chitosan Film  in water:acetic acid 2%
97101
    1CHTO  H203    1   3.343   5.663   5.143 -0.8536  2.8209 -1.4875
    1CHTO   O82    2   3.327   5.657   5.050 -0.4324  0.3529  0.4390
    1CHTO  C123    3   3.276   5.528   5.017 -0.6381  0.2833  1.3511
    1CHTO  H227    4   3.165   5.534   5.002  0.1786  0.0718  1.1860
    1CHTO   O77    5   3.331   5.498   4.884 -0.5948  0.1484  0.0454
    1CHTO  C118    6   3.333   5.359   4.843  0.1202 -0.0322 -0.5335
    1CHTO  H222    7   3.234   5.330   4.823 -2.1273  1.6560 -1.7518
    1CHTO  C125    8   3.401   5.361   4.709 -0.6145  0.3779  0.1896
    1CHTO   O84    9   3.382   5.241   4.634 -0.3992  0.0683 -0.6693
    1CHTO  H205   10   3.387   5.267   4.546  1.6416 -0.7844  1.7315
    1CHTO  C114   11   3.397   5.264   4.950  0.0445  0.0454 -0.1916
    1CHTO  H218   12   3.492   5.297   4.981 -1.5215 -2.2267 -2.0785
    1CHTO  C116   13   3.312   5.268   5.073 -0.1608 -0.2450  0.1430
    1CHTO  H220   14   3.211   5.242   5.043  1.1625 -0.7533 -2.2352
    1CHTO   O79   15   3.371   5.169   5.163 -0.1433  0.2221 -0.9143
    1CHTO  H201   16   3.334   5.087   5.147 -0.2839 -0.9525 -2.0138
    1CHTO  C120   17   3.311   5.417   5.129 -0.1680 -0.3217  0.3441
    1CHTO  H224   18   3.417   5.445   5.174  3.2082  1.8763 -0.1630
    1CHTO   N21   19   3.220   5.431   5.250 -0.3004  0.4781  0.5625
    1CHTO  H211   20   3.222   5.340   5.310  0.1110 -2.6309 -2.4633
    1CHTO  H212   21   3.119   5.459   5.229 -0.4922  1.1198 -1.0527
    1CHTO   O75   22   3.422   5.130   4.891 -0.3623 -0.5152 -0.7025
    1CHTO  C112   23   3.573   5.088   4.885 -0.2679  0.3152  0.4052
    1CHTO  H216   24   3.633   5.146   4.962  2.4831  0.6522  0.4194
    1CHTO   O73   25   3.616   5.115   4.752  0.1757  0.2902 -0.4332
    1CHTO  C113   26   3.758   5.090   4.738  0.5663  0.4595 -0.7364
    1CHTO  H217   27   3.805   5.158   4.808  0.1947 -2.9781 -1.6739
    1CHTO  C124   28   3.805   5.141   4.598 -0.6208 -0.1374 -0.1516
    1CHTO   O83   29   3.739   5.096   4.480  0.1288 -0.8609  0.1187
    1CHTO  H204   30   3.795   5.116   4.411 -1.2851  1.2060 -0.3953
    1CHTO  C109   31   3.773   4.934   4.768 -0.5422  0.2492 -0.1876
    1CHTO  H213   32   3.722   4.883   4.685 -2.5570  0.6423  1.1117
    1CHTO  C110   33   3.718   4.881   4.896 -0.4971  0.4386 -0.3006
    1CHTO  H214   34   3.791   4.910   4.975 -1.4646 -1.5334 -0.2700
    1CHTO   O78   35   3.725   4.737   4.902  0.5140  0.0884  0.0202
    1CHTO  H200   36   3.649   4.695   4.874  0.6642  1.4615  2.3164
    1CHTO  C111   37   3.579   4.937   4.927 -0.1433 -0.2408 -0.5600
    1CHTO  H215   38   3.508   4.886   4.857 -1.7572 -1.5539 -0.8382
    1CHTO   N19   39   3.536   4.904   5.062  0.0376  0.1283  0.4630
    1CHTO  H207   40   3.462   4.973   5.095  1.0148  1.7864  0.1166
    1CHTO  H208   41   3.514   4.797   5.057  1.5949 -0.3918  2.9848
    1CHTO   O74   42   3.922   4.900   4.767 -0.1139  0.0922 -0.7350
    1CHTO  C115   43   3.942   4.785   4.667 -0.2488  0.0058 -0.2459
    1CHTO  H219   44   3.857   4.710   4.670 -0.2061  1.3927  1.1494
    1CHTO   O76   45   3.945   4.831   4.523 -0.6157 -0.3626 -0.8788
    1CHTO  C122   46   4.067   4.891   4.487 -0.1059  0.9792  0.1791
    1CHTO  H226   47   4.088   4.975   4.552 -1.3505 -0.6074 -0.1358
    1CHTO  C126   48   4.047   4.946   4.345 -0.0913 -0.1468 -0.3484
    1CHTO   O85   49   4.150   5.028   4.299  0.2072 -0.1802  0.2740
    1CHTO  H206   50   4.128   5.074   4.219  0.7878 -0.1249  0.2072
    1CHTO  C121   51   4.201   4.797   4.502 -0.4243 -0.0559  0.3119
    1CHTO  H225   52   4.238   4.760   4.404  1.2325 -3.0239 -0.7364
    1CHTO   O81   53   4.294   4.869   4.571  0.1334  0.6995  0.4248
    1CHTO  H202   54   4.346   4.908   4.508  2.3059 -0.2409 -0.8358
    1CHTO  C119   55   4.166   4.673   4.593  0.1546  0.1129 -0.9421
    1CHTO  H223   56   4.111   4.611   4.528 -0.9082 -0.7818  2.3739
    1CHTO  C117   57   4.084   4.714   4.713 -0.5586 -0.6781 -0.6804
    1CHTO  H221   58   4.134   4.773   4.790 -0.8545  0.8965 -2.7255
    1CHTO   N20   59   4.043   4.590   4.792  0.0416  0.3655  0.4459
    1CHTO  H209   60   4.117   4.514   4.802 -1.5894  1.5668 -1.4412
    1CHTO  H210   61   4.000   4.622   4.882  2.0073 -3.0179 -0.1163
    1CHTO   O80   62   4.298   4.576   4.618  0.0219  0.0796  0.5020
    1CHTO  C103   63   4.326   4.450   4.522 -0.0045 -0.4985 -0.5387
    1CHTO  H190   64   4.236   4.388   4.514  0.0370 -1.1736  0.9039
    1CHTO  C101   65   4.371   4.486   4.374  0.4802 -0.3736  0.2701
    1CHTO  H188   66   4.460   4.553   4.384 -1.0116 -0.9336  2.7964
    1CHTO   O68   67   4.274   4.561   4.304 -0.3142 -0.3104  0.2801
    1CHTO  H168   68   4.316   4.621   4.242  0.1159  1.1485 -1.6998
    1CHTO   C99   69   4.423   4.355   4.297  0.1892  0.0596 -0.0460
    1CHTO  H186   70   4.333   4.288   4.282 -1.1512 -1.0734  0.6221
    1CHTO   N17   71   4.481   4.385   4.162  0.2409 -0.4576  0.3072
    1CHTO  H174   72   4.569   4.330   4.125  1.9003 -0.9649 -0.2051
    1CHTO  H175   73   4.514   4.483   4.161 -0.3163 -0.3856  0.0567
    1CHTO   C97   74   4.518   4.269   4.388  0.0980 -0.6620  0.1157
    1CHTO  H184   75   4.614   4.317   4.406 -2.0367  1.8024  1.8956
    1CHTO   O64   76   4.451   4.246   4.514  0.5020  0.1575  0.0524
    1CHTO  C104   77   4.434   4.358   4.594 -0.2939 -0.3202  0.3814
    1CHTO  H191   78   4.528   4.414   4.617 -0.0627  0.2200 -0.6367
    1CHTO  C108   79   4.375   4.306   4.730 -0.5004  0.1922  0.6967
    1CHTO   O71   80   4.366   4.402   4.840  0.3393  0.6036  0.0529
    1CHTO  H171   81   4.428   4.394   4.910 -0.2678  3.0458 -0.4313
    1CHTO   O62   82   4.549   4.135   4.339 -0.0891  0.1056  0.1246
    1CHTO   C91   83   4.687   4.103   4.303 -0.0940  0.0697 -0.1907
    1CHTO  H178   84   4.728   4.182   4.239  1.2842  0.1443 -0.3323
    1CHTO   C92   85   4.679   3.978   4.221  0.1772  0.6716  0.6465
    1CHTO  H179   86   4.595   3.987   4.145 -0.4915  2.1909 -1.5400
    1CHTO   O66   87   4.805   3.959   4.158 -0.4271 -0.1565  0.2288
    1CHTO  H166   88   4.877   3.933   4.212 -0.5321 -3.1623 -1.2520
    1CHTO   C93   89   4.656   3.844   4.305 -0.0695 -0.4254 -0.7217
    1CHTO  H180   90   4.699   3.759   4.248 -0.6589  0.6364 -0.9043
    1CHTO   N16   91   4.513   3.805   4.328  0.3126 -0.3981  0.6038
    1CHTO  H172   92   4.500   3.700   4.340  0.1757  1.0570  2.6983
    1CHTO  H173   93   4.474   3.850   4.420  1.5717 -0.9711  1.7095
    1CHTO   C94   94   4.736   3.848   4.447  0.6286  0.1538 -0.3447
    1CHTO  H181   95   4.665   3.871   4.531 -1.3613 -3.6544 -0.6575
    1CHTO   O61   96   4.837   3.952   4.441  0.2837 -0.2286 -0.3002
    1CHTO   C95   97   4.771   4.076   4.432 -0.3065 -0.5604 -0.1792
    1CHTO  H182   98   4.717   4.091   4.520  0.2255 -0.7520  0.5366
    1CHTO  C106   99   4.877   4.181   4.445  0.0222 -0.4484  0.2663
    1CHTO   O69  100   4.900   4.218   4.581  0.6152 -0.1771  0.5651
    1CHTO  H169  101   4.962   4.292   4.596 -1.1580 -0.3485  0.0180
    1CHTO   O63  102   4.793   3.695   4.476  0.0768 -0.0118  0.2671
    1CHTO   C96  103   4.894   3.686   4.565 -0.2256 -0.1834  0.1539
    1CHTO  H183  104   4.871   3.765   4.635  0.8677  2.4422 -1.9543
    1CHTO   C98  105   5.032   3.706   4.503  0.3912  1.1114  0.1180
    1CHTO  H185  106   5.028   3.781   4.426 -0.0320  2.7181  2.4173
    1CHTO   O67  107   5.117   3.760   4.615 -0.1098  0.2218 -0.0972
    1CHTO  H167  108   5.197   3.722   4.629  1.0828  1.1783 -0.1011
    1CHTO  C102  109   5.088   3.577   4.437  0.5383  0.9935  0.6181
    1CHTO  H189  110   5.201   3.586   4.426  1.4082  0.3755 -1.2087
    1CHTO   N18  111   5.040   3.542   4.304  0.0176 -0.5847  0.2987
    1CHTO  H176  112   4.931   3.557   4.304 -0.8709  0.9450 -1.6134
    1CHTO  H177  113   5.094   3.595   4.220  3.0176  0.1987 -0.4432
    1CHTO  C105  114   5.081   3.459   4.534 -0.2252 -0.0387 -0.4734
    1CHTO  H192  115   5.031   3.368   4.492 -1.0860 -0.4457  1.8351
    1CHTO   O65  116   5.015   3.492   4.655  0.5931  0.3714  0.1181
    1CHTO  C100  117   4.888   3.557   4.653  0.3752 -0.8527  0.5833
    1CHTO  H187  118   4.817   3.496   4.597 -1.4786 -2.7963 -1.6640
    1CHTO  C107  119   4.840   3.587   4.803  0.0816 -0.5392  0.1315
    1CHTO   O70  120   4.832   3.465   4.882 -0.4854 -0.3382 -0.7622
    1CHTO  H170  121   4.750   3.431   4.881  0.8572  0.8289 -3.5192
    1CHTO   O57  122   5.226   3.406   4.559 -0.0450  0.2868 -0.0077
    1CHTO   C85  123   5.302   3.337   4.454 -0.0553 -0.1199 -0.3740
    1CHTO  H157  124   5.265   3.373   4.359  3.3125 -1.5623  0.8177
    1CHTO   C83  125   5.271   3.184   4.461 -0.4265 -0.1414 -0.9412
    1CHTO  H155  126   5.166   3.163   4.449 -0.2654  1.4718 -1.0137
    1CHTO   O56  127   5.294   3.145   4.602  0.7089 -0.9844  0.1906
    1CHTO  H135  128   5.336   3.058   4.604 -1.4555 -1.4274  1.6224
    1CHTO   C81  129   5.351   3.102   4.363  0.1774 -0.0038  0.5167
    1CHTO  H153  130   5.324   3.123   4.264 -3.3099  0.3731  2.4763
    1CHTO   N14  131   5.309   2.963   4.370  0.2503  0.0805 -0.3001
    1CHTO  H141  132   5.220   2.950   4.428 -2.2530 -1.3407  0.0256
    1CHTO  H142  133   5.295   2.919   4.270  1.5713 -2.1687  2.7245
    1CHTO   C79  134   5.510   3.120   4.384  0.7025 -0.2043 -0.2780
    1CHTO  H151  135   5.563   3.077   4.298 -1.3742  0.9044  1.8170
    1CHTO   O52  136   5.538   3.265   4.382 -0.8069  0.1663 -0.1167
    1CHTO   C86  137   5.452   3.356   4.468 -0.1543 -0.9528  0.9043
    1CHTO  H158  138   5.486   3.342   4.572 -0.1903  0.1201  2.2648
    1CHTO   C90  139   5.483   3.504   4.444  0.2905 -0.1666  0.0020
    1CHTO   O60  140   5.593   3.560   4.516  0.7978  0.5475 -0.3486
    1CHTO  H138  141   5.673   3.523   4.483  0.1993  1.8511  0.4986
    1CHTO   O50  142   5.579   3.060   4.494  0.6035  0.2497 -0.4066
    1CHTO   C73  143   5.720   3.028   4.496  0.7598 -0.0464 -1.0791
    1CHTO  H145  144   5.777   3.075   4.413  3.5006  1.5822  0.9688
    1CHTO   C74  145   5.737   2.877   4.472  0.5011 -0.5096  0.2979
    1CHTO  H146  146   5.687   2.841   4.382  0.1720  1.9690  0.2219
    1CHTO   O54  147   5.880   2.857   4.450 -0.0314 -0.2990  0.3178
    1CHTO  H133  148   5.917   2.892   4.369  1.0386 -1.7538  1.3160
    1CHTO   C75  149   5.693   2.800   4.602 -0.3445 -0.2371  0.6373
    1CHTO  H147  150   5.589   2.830   4.625 -1.5518  1.5376 -3.5084
    1CHTO   N13  151   5.712   2.656   4.587  0.7741  0.7463  0.0475
    1CHTO  H139  152   5.664   2.613   4.499 -1.9438  0.4422  2.6552
    1CHTO  H140  153   5.698   2.603   4.674  3.3688  2.1703 -2.0555
    1CHTO   C76  154   5.783   2.848   4.718  0.0854 -0.2708 -0.2168
    1CHTO  H148  155   5.891   2.838   4.701  2.4644  0.2010  0.2732
    1CHTO   O49  156   5.742   2.991   4.740 -0.3209  0.1545 -1.0104
    1CHTO   C77  157   5.792   3.074   4.631  0.7768  0.5641 -0.0086
    1CHTO  H149  158   5.899   3.056   4.617 -0.6146  1.2027 -1.4391
    1CHTO   C88  159   5.764   3.227   4.659 -0.9419  0.0675  0.6322
    1CHTO   O58  160   5.834   3.291   4.556  0.6624 -0.2062 -0.1411
    1CHTO  H136  161   5.900   3.349   4.583 -0.9706  1.4568 -1.6654
    1CHTO   O51  162   5.744   2.791   4.859 -0.1890  1.0250  0.0004
    1CHTO   C78  163   5.869   2.765   4.974  0.1354 -0.7080 -0.8372
    1CHTO  H150  164   5.959   2.801   4.937  1.5824 -0.0566 -0.2031
    1CHTO   C80  165   5.885   2.621   5.012  0.4259  0.1134 -0.0480
    1CHTO  H152  166   5.791   2.581   5.026  2.3375 -3.1896 -1.1668
    1CHTO   O55  167   5.935   2.548   4.897 -0.0878  0.3301 -0.6823
    1CHTO  H134  168   5.952   2.456   4.915  2.6195 -0.8529 -0.9135
    1CHTO   C84  169   5.980   2.583   5.137 -0.3140  0.1119 -0.6719
    1CHTO  H156  170   6.082   2.603   5.109 -0.1935 -0.7785  0.2219
    1CHTO   N15  171   5.963   2.438   5.172 -0.2824 -0.0794  0.4083
    1CHTO  H143  172   5.883   2.384   5.130 -2.1271  0.8907  0.8633
    1CHTO  H144  173   6.054   2.379   5.169 -2.3586 -3.2632  0.6860
    1CHTO   C87  174   5.953   2.684   5.251  0.2558 -0.5936 -0.2328
    1CHTO  H159  175   5.855   2.661   5.295  2.4943  0.0078 -1.1538
    1CHTO   O53  176   5.954   2.831   5.192 -0.0805  0.3426 -0.1154
    1CHTO   C82  177   5.845   2.850   5.101 -0.6404 -0.7506  0.2922
    1CHTO  H154  178   5.746   2.818   5.143 -0.4358 -2.7840 -0.6654
    1CHTO   C89  179   5.828   3.002   5.066  0.2483 -0.2643  0.5814
    1CHTO   O59  180   5.817   3.057   5.193 -0.3019 -0.0434  0.0434
    1CHTO  H137  181   5.791   3.146   5.191  0.8164  1.2958  2.2809
    1CHTO   O45  182   6.058   2.661   5.360 -0.2302  0.1389 -0.2915
    1CHTO   C67  183   6.072   2.774   5.445  0.4964  0.0780 -0.0208
    1CHTO  H124  184   6.079   2.864   5.379 -0.2679  0.0520  1.1499
    1CHTO   C65  185   5.945   2.793   5.536 -0.2499 -0.2102 -0.1033
    1CHTO  H122  186   5.903   2.694   5.550 -0.0387 -0.8895  1.9216
    1CHTO   O44  187   5.856   2.888   5.473 -0.4535  0.2392 -0.3678
    1CHTO  H102  188   5.774   2.844   5.461  0.5964 -0.1780 -0.4710
    1CHTO   C63  189   5.978   2.842   5.687 -0.2005 -0.7768 -0.1508
    1CHTO  H120  190   6.027   2.755   5.743 -1.1731  0.7367  0.6304
    1CHTO   N11  191   5.863   2.866   5.780 -0.4147 -0.0351  0.1006
    1CHTO  H108  192   5.819   2.951   5.738  2.1813 -0.2497  0.1218
    1CHTO  H109  193   5.894   2.883   5.878  2.0127 -1.0028 -1.1286
    1CHTO   C61  194   6.086   2.956   5.672  0.0044 -0.7676 -0.8264
    1CHTO  H118  195   6.104   2.982   5.775  0.3226 -0.2845  0.9587
    1CHTO   O40  196   6.205   2.893   5.622  0.6640  0.0860 -0.3100
    1CHTO   C68  197   6.196   2.778   5.537 -0.5600 -0.0065 -0.6977
    1CHTO  H125  198   6.189   2.683   5.604 -2.1047  1.7788 -0.6545
    1CHTO   C72  199   6.340   2.768   5.468  0.2154  0.0051 -0.3136
    1CHTO   O48  200   6.435   2.755   5.573 -0.2174  0.3284 -0.4571
    1CHTO  H105  201   6.518   2.801   5.562  0.8179 -1.8324 -1.4235
    1CHTO   O38  202   6.049   3.063   5.580  0.0201 -0.2510  0.6029
    1CHTO   C55  203   6.014   3.191   5.628  0.8012 -0.1136 -0.2103
    1CHTO  H112  204   6.006   3.184   5.740  1.1600  1.6207 -0.8091
    1CHTO   C56  205   5.877   3.254   5.562 -0.2038 -0.7662 -0.0514
    1CHTO  H113  206   5.872   3.241   5.451 -3.4184 -2.1845  0.3535
    1CHTO   O42  207   5.767   3.174   5.605  0.1064  0.3970  0.0606
    1CHTO  H100  208   5.764   3.144   5.694 -3.8074  0.8165  2.1470
    1CHTO   C57  209   5.841   3.404   5.602  0.9355 -0.7378 -0.2051
    1CHTO  H114  210   5.815   3.406   5.709  2.3837 -1.9110  2.0290
    1CHTO   N10  211   5.727   3.466   5.528  0.4779  0.4131  0.7144
    1CHTO  H106  212   5.731   3.433   5.426  0.0841  1.8537  0.0287
    1CHTO  H107  213   5.638   3.428   5.582 -0.5559  0.7454  3.9469
    1CHTO   C58  214   5.966   3.489   5.583 -0.2631 -0.6463  0.1047
    1CHTO  H115  215   5.993   3.496   5.473  1.1122 -1.8885 -0.1554
    1CHTO   O37  216   6.079   3.432   5.660 -0.1358 -0.2042  0.3363
    1CHTO   C59  217   6.131   3.305   5.608 -0.2074 -0.5655 -0.4333
    1CHTO  H116  218   6.147   3.317   5.503 -1.6178 -0.6048 -1.3397
    1CHTO   C70  219   6.272   3.265   5.663  0.3545  0.7961  0.1447
    1CHTO   O46  220   6.271   3.255   5.806 -0.2460  0.0012 -0.1676
    1CHTO  H103  221   6.362   3.252   5.830  1.0405  0.7452 -0.1635
    1CHTO   O39  222   5.945   3.637   5.665 -0.3503 -0.7616 -0.0234
    1CHTO   C60  223   6.005   3.745   5.594  0.1045 -0.6246 -0.2038
    1CHTO  H117  224   6.055   3.708   5.503  0.0308 -2.4155 -2.1602
    1CHTO   C62  225   5.906   3.853   5.549  0.1550 -0.0744 -0.4325
    1CHTO  H119  226   5.839   3.802   5.469  0.2684  0.7856 -0.9764
    1CHTO   O43  227   5.823   3.889   5.666 -0.4520  0.1539 -0.3621
    1CHTO  H101  228   5.867   3.925   5.741  1.7212  3.0415  1.1745
    1CHTO   C66  229   5.970   3.985   5.479 -0.1491  0.6055 -0.1249
    1CHTO  H123  230   6.013   3.954   5.386 -1.3728  0.1068 -1.1671
    1CHTO   N12  231   5.863   4.082   5.460 -0.3807  0.2484  0.0382
    1CHTO  H110  232   5.883   4.176   5.415  0.9357  1.5127  0.7939
    1CHTO  H111  233   5.830   4.092   5.559 -0.1252 -0.8489  1.1516
    1CHTO   C69  234   6.088   4.039   5.562 -0.3243  0.2165 -0.5134
    1CHTO  H126  235   6.051   4.098   5.648 -1.8157 -0.7240  1.7602
    1CHTO   O41  236   6.175   3.927   5.600 -0.7302 -0.4639  0.1131
    1CHTO   C64  237   6.121   3.812   5.679  0.2260 -0.1365  0.6855
    1CHTO  H121  238   6.076   3.861   5.772 -0.7567  2.9673 -0.4009
    1CHTO   C71  239   6.222   3.710   5.725 -0.4564  0.0058 -0.3078
    1CHTO   O47  240   6.285   3.639   5.619  0.0054  0.0927  0.3231
    1CHTO  H104  241   6.224   3.568   5.604  1.3224 -3.5765 -1.2693
    1CHTO   O34  242   6.162   4.125   5.506 -0.2634  0.1978  0.0495
    1CHTO   C49  243   6.309   4.162   5.498 -0.8835  0.0408  0.0087
    1CHTO   H91  244   6.351   4.141   5.593  0.5950  0.5933 -1.3882
    1CHTO   C47  245   6.311   4.312   5.473  0.3238 -1.1109 -0.4374
    1CHTO   H89  246   6.424   4.350   5.469  1.2115  1.6009  1.0248
    1CHTO   O33  247   6.247   4.387   5.579 -0.7227  0.1821 -0.5914
    1CHTO   H70  248   6.229   4.326   5.649 -2.3403 -0.9121  2.0194
    1CHTO   C45  249   6.227   4.340   5.337  0.6085  0.1303 -0.1396
    1CHTO   H87  250   6.129   4.299   5.341  0.5010  2.2537  0.6237
    1CHTO    N8  251   6.206   4.484   5.303 -0.1294  0.3117  0.3244
    1CHTO   H75  252   6.105   4.493   5.261 -0.8518 -0.5071  1.2294
    1CHTO   H76  253   6.204   4.536   5.397 -1.7491  0.0867  1.2214
    1CHTO   C43  254   6.309   4.265   5.214  0.4826  0.9106  0.1923
    1CHTO   H85  255   6.237   4.280   5.135  1.3077 -0.5098  0.9577
    1CHTO   O29  256   6.318   4.126   5.249 -0.2391 -0.1134  0.4907
    1CHTO   C50  257   6.374   4.084   5.378  0.0063  0.6247  0.5281
    1CHTO   H92  258   6.355   3.980   5.400  0.1426 -0.3239 -2.1473
    1CHTO   C54  259   6.529   4.099   5.386 -0.0224 -0.5438  0.3696
    1CHTO   O36  260   6.589   4.016   5.289  0.1704  0.3891 -0.1311
    1CHTO   H72  261   6.620   3.935   5.330 -0.2645  0.2480  1.3265
    1CHTO   O27  262   6.436   4.329   5.176 -0.1573 -0.2146  0.4508
    1CHTO   C37  263   6.546   4.316   5.083 -0.2055 -0.0052  0.1139
    1CHTO   H79  264   6.628   4.264   5.128  0.9032  1.5793 -0.3712
    1CHTO   C38  265   6.503   4.224   4.967 -0.6363 -0.0485 -0.2774
    1CHTO   H80  266   6.410   4.257   4.929  1.1806  0.6821 -0.1367
    1CHTO   O31  267   6.488   4.088   5.016  0.1202 -0.6335  0.0480
    1CHTO   H68  268   6.552   4.024   4.987  2.7598 -0.1561  2.7521
    1CHTO   C39  269   6.597   4.229   4.843 -0.7045 -0.1843 -0.2881
    1CHTO   H81  270   6.694   4.181   4.875 -0.3150  2.5113 -0.4146
    1CHTO    N7  271   6.538   4.151   4.729 -0.2178  0.3281 -0.2537
    1CHTO   H73  272   6.619   4.142   4.657 -1.0782  0.4967 -1.1662
    1CHTO   H74  273   6.515   4.049   4.764 -1.0947  2.3946 -1.0204
    1CHTO   C40  274   6.635   4.373   4.803  0.3993  0.8186  0.8261
    1CHTO   H82  275   6.545   4.417   4.751  0.4883 -3.0276 -0.3705
    1CHTO   O26  276   6.677   4.452   4.915  0.4233 -0.2712  0.5873
    1CHTO   C41  277   6.584   4.463   5.032  0.1847  0.0957 -0.1651
    1CHTO   H83  278   6.495   4.511   5.014 -0.8686 -0.3007  2.2384
    1CHTO   C52  279   6.654   4.550   5.139  0.2398 -0.3654 -0.3485
    1CHTO   O35  280   6.680   4.671   5.104 -0.8125  0.3108 -0.7381
    1CHTO   H71  281   6.763   4.689   5.128 -0.6217 -2.4738 -3.6054
    1CHTO   O28  282   6.748   4.371   4.714  0.4119 -0.0709  0.0579
    1CHTO   C42  283   6.799   4.488   4.641  0.0217  0.3689 -0.1087
    1CHTO   H84  284   6.871   4.449   4.570 -0.6878 -2.9336 -3.2818
    1CHTO   C44  285   6.867   4.598   4.729  0.1791 -0.2809  0.1089
    1CHTO   H86  286   6.792   4.640   4.791 -2.3755 -1.2966  0.2647
    1CHTO   O32  287   6.964   4.539   4.816  0.0806 -0.3823  0.2112
    1CHTO   H69  288   6.933   4.540   4.905  0.4240  0.0535  1.8866
    1CHTO   C48  289   6.924   4.727   4.652 -0.4142  0.2776 -0.1270
    1CHTO   H90  290   7.011   4.694   4.588  0.5442  2.9012  2.5768
    1CHTO    N9  291   6.977   4.822   4.755  0.0994 -0.7262 -0.2198
    1CHTO   H77  292   7.067   4.793   4.815  2.3093  0.6988  4.9954
    1CHTO   H78  293   6.905   4.846   4.828 -1.0950 -2.6860  0.9776
    1CHTO   C51  294   6.801   4.768   4.566 -0.0114 -0.4077  0.7352
    1CHTO   H93  295   6.719   4.791   4.637 -0.1889 -1.7093  2.1368
    1CHTO   O30  296   6.769   4.648   4.485 -0.0325 -0.1469 -0.5467
    1CHTO   C46  297   6.694   4.554   4.551  0.7061 -0.1242  0.4512
    1CHTO   H88  298   6.608   4.593   4.600  1.1536  2.3363 -2.1853
    1CHTO   C53  299   6.649   4.457   4.439  0.2421  0.4251 -0.0932
    1CHTO   O72  300   6.552   4.519   4.348  0.4188  0.4863  0.4088
    1CHTO  H199  301   6.585   4.549   4.266  1.1410  1.3932 -0.5581
    1CHTO   O22  302   6.831   4.864   4.463 -0.2573 -0.0920  0.3689
    1CHTO   C31  303   6.748   4.991   4.450  0.4593  0.4954 -0.5798
    1CHTO   H59  304   6.774   5.034   4.348 -2.2901  1.2287 -2.4711
    1CHTO   C29  305   6.598   4.969   4.450 -0.7292 -0.2570 -0.0114
    1CHTO   H57  306   6.570   4.914   4.537 -0.0943 -1.1782 -3.2382
    1CHTO   O21  307   6.573   4.883   4.334 -0.2483 -0.1435 -0.5802
    1CHTO   H37  308   6.527   4.802   4.349 -0.5493 -1.0594 -0.5072
    1CHTO   C27  309   6.508   5.096   4.435 -0.5222  0.5108  0.2290
    1CHTO   H55  310   6.522   5.139   4.335  0.2031 -1.6630 -1.5317
    1CHTO    N5  311   6.365   5.065   4.459 -0.2088 -0.6048 -0.1841
    1CHTO   H43  312   6.326   5.116   4.545  0.0186  1.4449 -1.4351
    1CHTO   H44  313   6.354   4.958   4.466 -0.9703 -1.6130  1.2153
    1CHTO   C25  314   6.561   5.209   4.529 -0.5962  0.5938  0.5946
    1CHTO   H53  315   6.536   5.184   4.629  0.8752  0.2949  0.1910
    1CHTO   O17  316   6.702   5.221   4.529  0.4851 -0.0484  0.4309
    1CHTO   C32  317   6.781   5.104   4.556  0.7019  0.4116  0.0249
    1CHTO   H60  318   6.747   5.067   4.652 -2.2440  1.4145 -0.2740
    1CHTO   C36  319   6.931   5.142   4.556 -0.1358  0.6454 -0.5099
    1CHTO   O25  320   6.957   5.266   4.629  0.6008 -0.5455  0.5615
    1CHTO   H40  321   7.042   5.285   4.604  0.1730  0.8329 -1.8843
    1CHTO   O15  322   6.486   5.357   4.501 -0.4663 -0.0626  0.2110
    1CHTO   C19  323   6.513   5.423   4.374  0.0101  0.7692  0.4313
    1CHTO   H47  324   6.580   5.346   4.330 -3.0730  0.6429 -3.2236
    1CHTO   C20  325   6.386   5.466   4.294 -0.0697  0.2807 -0.4188
    1CHTO   H48  326   6.327   5.540   4.349  1.5311  0.4135 -2.9514
    1CHTO   O19  327   6.315   5.344   4.261  0.2567 -0.5046 -0.2809
    1CHTO   H35  328   6.225   5.353   4.283  3.8861 -0.0707  0.6051
    1CHTO   C21  329   6.427   5.551   4.157  0.6548  0.5562 -0.7851
    1CHTO   H49  330   6.484   5.491   4.101  0.8745  1.3641  0.6207
    1CHTO    N4  331   6.303   5.592   4.081 -0.6176 -0.3155  0.2941
    1CHTO   H41  332   6.236   5.641   4.153  1.2250 -2.0962  2.8687
    1CHTO   H42  333   6.257   5.504   4.038 -0.3970  0.3842  1.0822
    1CHTO   C22  334   6.521   5.673   4.200 -0.0192  0.2648 -0.2164
    1CHTO   H50  335   6.469   5.741   4.270 -0.5346 -0.8201  1.4132
    1CHTO   O14  336   6.630   5.607   4.266 -0.5400  0.0645  0.4770
    1CHTO   C23  337   6.598   5.546   4.389 -0.2066 -0.1414  0.9875
    1CHTO   H51  338   6.549   5.623   4.457 -0.6299 -1.3945 -1.7437
    1CHTO   C34  339   6.729   5.508   4.457 -0.4644  0.3105  0.0661
    1CHTO   O23  340   6.781   5.619   4.535 -0.0769 -0.1957 -0.1806
    1CHTO   H38  341   6.836   5.675   4.480  0.3875  0.1589 -1.1380
    1CHTO   O16  342   6.587   5.749   4.094  0.1707 -0.1798  0.1863
    1CHTO   C24  343   6.678   5.873   4.138 -0.1283  0.3108 -0.2532
    1CHTO   H52  344   6.700   5.872   4.250  1.2151 -0.7668 -2.7093
    1CHTO   C26  345   6.603   6.001   4.092 -0.8592 -0.4085  0.3340
    1CHTO   H54  346   6.576   5.983   3.981 -2.2632 -1.0120  2.4328
    1CHTO   O20  347   6.480   6.008   4.170 -0.0005  0.0508 -0.3386
    1CHTO   H36  348   6.426   6.079   4.142  0.8532  2.3022  3.3377
    1CHTO   C30  349   6.687   6.135   4.097  0.0890  0.0785  0.0916
    1CHTO   H58  350   6.694   6.171   4.206  0.0122 -1.4567  0.1513
    1CHTO    N6  351   6.609   6.244   4.038  0.0088 -0.0359 -0.2467
    1CHTO   H45  352   6.517   6.214   3.989 -0.0929  1.7211 -1.0298
    1CHTO   H46  353   6.668   6.308   3.977  0.5930  0.3981  0.9486
    1CHTO   C33  354   6.826   6.107   4.030  0.4716  0.6562 -0.0793
    1CHTO   H61  355   6.810   6.086   3.923 -0.7040  0.4437  1.0262
    1CHTO   O18  356   6.884   5.994   4.090  0.7568  0.1464 -0.1823
    1CHTO   C28  357   6.813   5.867   4.070  0.5879  0.1544 -0.3773
    1CHTO   H56  358   6.791   5.849   3.964  0.3463 -1.0412  0.0538
    1CHTO   C35  359   6.885   5.749   4.128 -0.2075 -0.2660 -0.1753
    1CHTO   O24  360   7.018   5.731   4.069  0.0123 -0.1363  0.1417
    1CHTO   H39  361   7.029   5.648   4.028 -1.4884  2.2121 -1.3402
    1CHTO    O9  362   6.910   6.226   4.041 -0.3357 -0.0872  0.5801
    1CHTO   C13  363   7.011   6.238   3.943  0.0524  0.0542 -0.3310
    1CHTO   H26  364   6.964   6.243   3.846 -2.4073 -0.6325 -1.4544
    1CHTO   C11  365   7.111   6.107   3.956  0.0266 -0.1941 -0.6285
    1CHTO   H24  366   7.055   6.012   3.937  4.0113  1.0802 -1.8596
    1CHTO    O8  367   7.162   6.102   4.093 -0.4196 -0.0281 -0.3089
    1CHTO    H3  368   7.090   6.104   4.155  3.7853  0.7131  0.9253
    1CHTO    C9  369   7.212   6.117   3.843  0.4869 -0.7264  0.5303
    1CHTO   H22  370   7.155   6.122   3.753  0.0305 -0.6769  3.2900
    1CHTO    N2  371   7.293   5.994   3.829 -0.5762 -0.0728 -0.5403
    1CHTO   H10  372   7.329   5.959   3.930 -1.2363 -0.2989 -1.1142
    1CHTO   H11  373   7.236   5.918   3.780  2.4172 -1.9130  1.3688
    1CHTO    C7  374   7.295   6.252   3.846 -0.0752  0.8323  0.6608
    1CHTO   H20  375   7.288   6.303   3.747  2.6157 -0.0908  1.9988
    1CHTO    O4  376   7.240   6.343   3.952  0.0626 -0.1303 -0.5904
    1CHTO   C14  377   7.099   6.369   3.946  0.0030 -0.6271 -0.3872
    1CHTO   H27  378   7.088   6.425   3.852 -0.8217  0.2490  0.9950
    1CHTO   C18  379   7.060   6.468   4.063  0.0065 -1.0105 -0.2867
    1CHTO   O13  380   7.140   6.589   4.084 -0.3724  0.4156  0.0054
    1CHTO    H7  381   7.098   6.645   4.148  0.5513 -0.4658  1.2647
    1CHTO    O2  382   7.460   6.259   3.867  0.0805 -0.0283  0.0832
    1CHTO    C1  383   7.519   6.380   3.811  0.4779  0.5591 -0.0815
    1CHTO   H14  384   7.441   6.453   3.796  2.0985 -0.0008 -0.3963
    1CHTO    C2  385   7.605   6.356   3.677  0.4236  0.3957 -0.5823
    1CHTO   H15  386   7.678   6.276   3.693 -0.0837 -0.0796  1.0814
    1CHTO    O6  387   7.508   6.313   3.575 -0.0786  0.0899 -0.1619
    1CHTO    H1  388   7.447   6.243   3.606  1.5902 -2.1115  2.5066
    1CHTO    C3  389   7.675   6.494   3.630  0.5292  0.0436  0.0877
    1CHTO   H16  390   7.588   6.562   3.609  1.1430  0.2074  0.4652
    1CHTO    N1  391   7.765   6.477   3.504  0.4167 -0.0508 -0.5249
    1CHTO    H8  392   7.736   6.386   3.461 -2.6959  4.3247  1.7807
    1CHTO    H9  393   7.743   6.554   3.432  1.8726 -1.5050 -2.5712
    1CHTO    C4  394   7.751   6.572   3.749 -0.3185 -0.3033  0.3561
    1CHTO   H17  395   7.848   6.523   3.766 -0.3970  1.7766 -3.1012
    1CHTO    O1  396   7.672   6.582   3.870 -0.6288 -0.6902  0.1482
    1CHTO    C5  397   7.614   6.455   3.916  0.0553  0.0498  0.7275
    1CHTO   H18  398   7.700   6.390   3.934 -1.3084  0.4947  0.0362
    1CHTO   C16  399   7.551   6.485   4.055 -0.2348 -0.2129 -0.1229
    1CHTO   O11  400   7.654   6.541   4.144  0.8493 -0.0742  0.3064
    1CHTO    H5  401   7.634   6.630   4.161  1.4893 -0.5791 -2.3463
    1CHTO    O3  402   7.773   6.709   3.702 -0.4100  0.1350  0.2420
    1CHTO    C6  403   7.884   6.781   3.764  0.1522 -0.6715  1.0695
    1CHTO   H19  404   7.931   6.717   3.829  1.4434  0.2977 -2.6881
    1CHTO    C8  405   7.987   6.827   3.656  0.0472  0.2866  0.6946
    1CHTO   H21  406   7.929   6.884   3.581  1.3162 -1.2825 -2.4976
    1CHTO    O7  407   8.034   6.706   3.593  0.0142  0.0291 -0.0830
    1CHTO    H2  408   8.083   6.725   3.514 -1.5070 -0.1554  0.6687
    1CHTO   C12  409   8.100   6.925   3.714  0.3305  0.3807 -0.0392
    1CHTO   H25  410   8.158   6.856   3.776 -2.4933 -1.7633  0.7713
    1CHTO    N3  411   8.188   6.970   3.597 -0.3734 -0.0409 -0.1780
    1CHTO   H12  412   8.129   7.031   3.530  1.1177 -1.3576 -2.5138
    1CHTO   H13  413   8.243   6.900   3.535  0.2710  2.1962  2.5849
    1CHTO   C15  414   8.036   7.039   3.804  0.4298  0.3436 -0.5858
    1CHTO   H28  415   7.993   7.122   3.741 -2.4678  1.9124 -2.0983
    1CHTO   O10  416   8.148   7.112   3.910  0.5474 -0.8233 -0.0911
    1CHTO    H4  417   8.225   7.061   3.916  1.4837  3.8368  1.0627
    1CHTO    O5  418   7.937   6.983   3.894 -0.0422 -0.1578  0.1554
    1CHTO   C10  419   7.832   6.901   3.838 -0.0967 -0.4374 -0.2297
    1CHTO   H23  420   7.789   6.958   3.756  1.6952  0.9113 -0.1458
    1CHTO   C17  421   7.735   6.871   3.955 -0.1800 -0.6486  0.2643
    1CHTO   O12  422   7.685   6.997   4.009  0.2221  0.1253 -0.0766
    1CHTO    H6  423   7.711   7.014   4.095  3.3852 -3.9911 -2.4497
    2CHTO  H203  424   9.546   8.287   4.201  1.9598  1.6946 -1.3923
    2CHTO   O82  425   9.558   8.237   4.282 -0.8090  0.6238 -0.1244
    2CHTO  C123  426   9.689   8.251   4.339 -0.2337 -0.0157 -0.0959
    2CHTO  H227  427   9.711   8.357   4.339 -1.7041  0.6564 -0.4899
    2CHTO   O77  428   9.666   8.202   4.478  0.5506  0.4644  0.1179
    2CHTO  C118  429   9.783   8.200   4.571 -0.1455 -0.1108  0.2871
    2CHTO  H222  430   9.814   8.305   4.584  0.7040 -2.2673 -0.8244
    2CHTO  C125  431   9.736   8.145   4.705 -0.3683  0.3196 -0.0162
    2CHTO   O84  432   9.701   8.255   4.790 -0.2088 -0.0334 -0.1821
    2CHTO  H205  433   9.631   8.313   4.759 -0.6158  0.5003  2.7511
    2CHTO  C114  434   9.893   8.116   4.514  0.3576 -0.1071  0.0058
    2CHTO  H218  435   9.859   8.016   4.502 -1.5168  0.1829  1.6323
    2CHTO  C116  436   9.930   8.145   4.367  0.2173 -0.5828 -0.3209
    2CHTO  H220  437   9.982   8.244   4.371  0.5503 -2.2484 -2.2629
    2CHTO   O79  438  10.018   8.045   4.309 -0.9011  0.2380  0.1451
    2CHTO  H201  439  10.106   8.084   4.305 -0.1548  2.2227  0.0907
    2CHTO  C120  440   9.803   8.165   4.273  0.0092  0.5829  0.2256
    2CHTO  H224  441   9.765   8.069   4.251 -2.4795 -0.5225 -0.5682
    2CHTO   N21  442   9.845   8.226   4.141  0.1059  0.3900  0.4608
    2CHTO  H211  443   9.782   8.184   4.059  2.8009  1.2412 -0.6884
    2CHTO  H212  444   9.955   8.219   4.119  0.4041 -0.3368 -2.4847
    2CHTO   O75  445   9.997   8.130   4.609  0.2984  0.2049 -0.1009
    2CHTO  C112  446  10.089   8.003   4.617 -0.6401  0.7816  0.1252
    2CHTO  H216  447  10.092   7.941   4.524  2.0264 -0.9033  2.4068
    2CHTO   O73  448  10.041   7.930   4.730  0.1696 -0.1373 -0.1611
    2CHTO  C113  449  10.127   7.829   4.779 -0.4426  0.7941 -1.0506
    2CHTO  H217  450  10.133   7.738   4.707 -2.0598  0.4194 -0.4143
    2CHTO  C124  451  10.037   7.761   4.888  0.1870 -0.0834  0.0835
    2CHTO   O83  452  10.018   7.841   4.999 -0.1474 -0.2684  0.7498
    2CHTO  H204  453   9.944   7.812   5.049  0.2102  0.5254  1.8084
    2CHTO  C109  454  10.265   7.877   4.826  0.2030  0.3352  0.2323
    2CHTO  H213  455  10.251   7.951   4.903 -2.7067 -2.3935 -1.2227
    2CHTO  C110  456  10.333   7.940   4.702 -0.3653  0.4683 -0.3261
    2CHTO  H214  457  10.356   7.863   4.627 -2.7173  0.5639 -0.9373
    2CHTO   O78  458  10.460   7.988   4.741 -0.5965  0.3322 -0.2114
    2CHTO  H200  459  10.449   8.052   4.807  0.1972 -0.6934 -0.8352
    2CHTO  C111  460  10.236   8.046   4.635 -0.3582 -0.0688 -0.2823
    2CHTO  H215  461  10.227   8.128   4.707  0.8448  0.7787 -0.8233
    2CHTO   N19  462  10.286   8.106   4.511 -0.1953 -0.3825 -0.3056
    2CHTO  H207  463  10.230   8.193   4.484  2.0167 -0.5204 -1.7182
    2CHTO  H208  464  10.386   8.134   4.520 -0.6807 -1.3751 -1.6431
    2CHTO   O74  465  10.334   7.760   4.876 -0.0224  0.1065 -0.2463
    2CHTO  C115  466  10.369   7.765   5.033 -0.0808  0.0496  0.0417
    2CHTO  H219  467  10.353   7.867   5.076  0.1102  0.5156  2.3869
    2CHTO   O76  468  10.275   7.668   5.123 -0.3474 -0.1645  0.0831
    2CHTO  C122  469  10.282   7.531   5.074 -0.0960 -0.1091 -0.0299
    2CHTO  H226  470  10.218   7.521   4.988 -0.7828 -0.6255  3.3256
    2CHTO  C126  471  10.211   7.453   5.191  0.0915 -0.1771 -0.3991
    2CHTO   O85  472  10.180   7.314   5.169  0.2838 -0.7124  0.2805
    2CHTO  H206  473  10.254   7.259   5.204 -0.8126 -0.0767 -2.6859
    2CHTO  C121  474  10.429   7.474   5.030 -0.1210  0.2174 -0.0094
    2CHTO  H225  475  10.434   7.364   5.087  0.3347  0.1339 -0.7414
    2CHTO   O81  476  10.427   7.451   4.884 -0.4383 -0.0416 -0.3771
    2CHTO  H202  477  10.511   7.439   4.848 -1.0998 -1.4689 -0.8490
    2CHTO  C119  478  10.544   7.566   5.081  0.3783  0.1842  0.1085
    2CHTO  H223  479  10.534   7.545   5.189 -1.1273  0.9412 -2.9526
    2CHTO  C117  480  10.522   7.726   5.052 -0.5284  0.0192  0.2089
    2CHTO  H221  481  10.567   7.760   4.954 -0.2008  1.0851  3.0739
    2CHTO   N20  482  10.581   7.814   5.153  0.3358 -0.2804 -0.1071
    2CHTO  H209  483  10.630   7.763   5.234 -0.7776 -0.2230  1.2563
    2CHTO  H210  484  10.646   7.887   5.106  1.4487  0.2905 -0.0157
    2CHTO   O80  485  10.683   7.514   5.055  0.6358  0.7078  0.3279
    2CHTO  C103  486  10.718   7.358   5.096  0.2801 -0.3404  1.0226
    2CHTO  H190  487  10.644   7.303   5.132  1.8939  0.7828 -1.3248
    2CHTO  C101  488  10.765   7.276   4.969 -0.2056  0.3649  0.6858
    2CHTO  H188  489  10.847   7.333   4.924 -0.4530 -1.2981  0.1323
    2CHTO   O68  490  10.656   7.272   4.867 -0.1139  0.5248 -0.2622
    2CHTO  H168  491  10.664   7.337   4.807 -3.1982 -1.6244 -1.0066
    2CHTO   C99  492  10.823   7.132   5.010 -0.0053  0.0141 -0.4503
    2CHTO  H186  493  10.749   7.070   5.050 -1.0129 -2.0025  0.8209
    2CHTO   N17  494  10.882   7.053   4.895 -0.0713  0.2386  0.2525
    2CHTO  H174  495  10.850   7.079   4.795  1.0302  1.1076 -0.4355
    2CHTO  H175  496  10.867   6.948   4.921  0.6514  1.8366  1.3369
    2CHTO   C97  497  10.923   7.157   5.125  0.6403  0.4589 -0.7008
    2CHTO  H184  498  11.015   7.207   5.080  1.4260  0.2716 -2.1136
    2CHTO   O64  499  10.867   7.230   5.236  0.4186 -0.0904 -0.6635
    2CHTO  C104  500  10.831   7.364   5.207 -0.7401 -0.7307  0.1281
    2CHTO  H191  501  10.916   7.429   5.169  2.5948 -1.1584 -2.9307
    2CHTO  C108  502  10.782   7.428   5.332 -0.1845  0.0880  0.0973
    2CHTO   O71  503  10.903   7.459   5.402  0.0543  0.2253  0.1924
    2CHTO  H171  504  10.952   7.526   5.354  0.4635  2.4259 -2.6024
    2CHTO   O62  505  10.956   7.027   5.188 -0.3532 -1.0611  0.1134
    2CHTO   C91  506  11.096   6.998   5.197 -0.9994 -0.5635 -0.0378
    2CHTO  H178  507  11.134   7.017   5.097 -0.3118 -0.9454 -3.6606
    2CHTO   C92  508  11.108   6.843   5.224  0.3407 -0.4498 -0.0407
    2CHTO  H179  509  11.053   6.785   5.151 -1.5151 -0.4384  0.3087
    2CHTO   O66  510  11.245   6.820   5.192 -1.0010 -0.5193  0.4107
    2CHTO  H166  511  11.304   6.869   5.254  0.0960  3.1881  4.2533
    2CHTO   C93  512  11.073   6.796   5.371 -0.3963 -0.2541 -0.7382
    2CHTO  H180  513  11.126   6.697   5.385  1.0189  0.4863  2.0225
    2CHTO   N16  514  10.931   6.772   5.399  0.0596  0.0808  0.4008
    2CHTO  H172  515  10.896   6.691   5.339 -0.8791  0.0163  1.1269
    2CHTO  H173  516  10.932   6.738   5.504  0.1211 -1.7595  1.8166
    2CHTO   C94  517  11.138   6.906   5.475 -0.7183  0.6840  0.3430
    2CHTO  H181  518  11.062   6.974   5.512 -0.7789 -2.8673 -2.1231
    2CHTO   O61  519  11.241   6.982   5.403 -0.1315 -0.2040 -0.6706
    2CHTO   C95  520  11.184   7.072   5.311 -0.0609 -0.2370  0.3906
    2CHTO  H182  521  11.126   7.145   5.363 -0.9967  0.9885  0.3541
    2CHTO  C106  522  11.293   7.166   5.242  0.0693 -0.4467 -0.6580
    2CHTO   O69  523  11.238   7.262   5.156  0.3919  0.0797  0.4536
    2CHTO  H169  524  11.239   7.220   5.068 -0.6807 -0.8730  1.8334
    2CHTO   O63  525  11.218   6.838   5.591  0.0534 -0.2773  0.0888
    2CHTO   C96  526  11.220   6.939   5.717  0.0706 -0.6896  0.5104
    2CHTO  H183  527  11.116   6.973   5.723 -5.0545 -0.3112 -0.3880
    2CHTO   C98  528  11.312   7.061   5.699  0.1817 -0.3173  0.5223
    2CHTO  H185  529  11.287   7.106   5.601  1.3866 -1.4720 -1.3440
    2CHTO   O67  530  11.274   7.164   5.796 -0.2619  0.1156 -0.5691
    2CHTO  H167  531  11.191   7.207   5.779 -0.7744  0.6541 -1.3349
    2CHTO  C102  532  11.470   7.017   5.711  0.5149  0.2193 -0.6639
    2CHTO  H189  533  11.515   7.105   5.758 -1.6471  1.3880  0.5641
    2CHTO   N18  534  11.535   7.006   5.579  0.4186 -0.1109 -0.2101
    2CHTO  H176  535  11.536   7.105   5.530  1.5190  1.0810  2.8223
    2CHTO  H177  536  11.485   6.937   5.517  0.0582  2.1580  0.3844
    2CHTO  C105  537  11.487   6.892   5.802 -0.8406 -0.5225 -0.0708
    2CHTO  H192  538  11.487   6.802   5.740  1.4212  3.5460 -2.1811
    2CHTO   O65  539  11.383   6.890   5.896  0.1127 -0.1333  0.9641
    2CHTO  C100  540  11.259   6.852   5.843 -0.8181  0.5359 -0.5567
    2CHTO  H187  541  11.272   6.740   5.831  1.0973 -2.5637  2.0450
    2CHTO  C107  542  11.154   6.858   5.953  0.5527  0.0178 -0.0622
    2CHTO   O70  543  11.030   6.807   5.908  0.4321  0.2766  0.6530
    2CHTO  H170  544  10.990   6.764   5.980  0.8419 -0.0478  1.9520
    2CHTO   O57  545  11.632   6.926   5.883  0.3055 -0.1056 -0.0224
    2CHTO   C85  546  11.706   6.812   5.928  0.4303  0.0196  0.9157
    2CHTO  H157  547  11.630   6.728   5.919  0.3918  0.6413 -0.4441
    2CHTO   C83  548  11.738   6.827   6.080  0.2980  0.0044 -0.0486
    2CHTO  H155  549  11.647   6.846   6.136 -3.2803 -0.2111  2.4559
    2CHTO   O56  550  11.810   6.952   6.084  0.4217  0.4706  0.3334
    2CHTO  H135  551  11.855   6.966   6.166 -0.8880  2.1120 -2.2385
    2CHTO   C81  552  11.811   6.699   6.129 -0.1239  0.7391  0.3676
    2CHTO  H153  553  11.756   6.611   6.107 -0.5267 -0.4703  1.9486
    2CHTO   N14  554  11.815   6.687   6.276 -0.1962 -0.3867 -0.2010
    2CHTO  H141  555  11.725   6.730   6.305 -0.6352 -4.5121 -1.8883
    2CHTO  H142  556  11.809   6.581   6.304  1.3924 -2.4794  0.6506
    2CHTO   C79  557  11.951   6.691   6.051 -0.2442 -0.0769 -0.0808
    2CHTO  H151  558  12.001   6.602   6.086 -2.4530 -1.2747 -0.6990
    2CHTO   O52  559  11.929   6.682   5.903 -0.0213  0.8022  0.1438
    2CHTO   C86  560  11.839   6.786   5.848 -0.0526 -0.7074  0.7519
    2CHTO  H158  561  11.905   6.882   5.828  2.0970 -0.8639 -0.8799
    2CHTO   C90  562  11.807   6.742   5.702 -0.2844  0.0691  0.0651
    2CHTO   O60  563  11.742   6.611   5.703 -0.4380  0.1722 -0.1489
    2CHTO  H138  564  11.654   6.605   5.676  0.5854  0.7046 -0.2239
    2CHTO   O50  565  12.037   6.796   6.082  0.3496 -0.0702 -0.4107
    2CHTO   C73  566  12.136   6.901   6.087  0.6842 -0.2666 -1.0159
    2CHTO  H145  567  12.112   6.983   6.157  1.8543 -2.5436 -0.4018
    2CHTO   C74  568  12.165   6.967   5.944 -0.7526  0.1641  0.0034
    2CHTO  H146  569  12.069   7.010   5.920 -1.4236 -0.1373  0.2318
    2CHTO   O54  570  12.250   7.082   5.977  0.4251  0.3596  0.5081
    2CHTO  H133  571  12.315   7.089   5.905  2.8707  2.2371 -0.5225
    2CHTO   C75  572  12.213   6.865   5.839 -0.0370  0.1582  0.3441
    2CHTO  H147  573  12.132   6.786   5.831 -2.1356 -1.2435  1.3160
    2CHTO   N13  574  12.239   6.927   5.711 -0.1780 -0.0409 -0.2305
    2CHTO  H139  575  12.224   7.026   5.716 -1.2211 -1.4084 -2.0396
    2CHTO  H140  576  12.167   6.882   5.644 -1.2682 -0.7131 -1.5404
    2CHTO   C76  577  12.339   6.789   5.903  0.0537  0.4421  0.1333
    2CHTO  H148  578  12.421   6.858   5.915  0.4597  1.4976  2.1720
    2CHTO   O49  579  12.317   6.742   6.038 -0.2711 -0.4677  0.1975
    2CHTO   C77  580  12.267   6.837   6.135 -0.4721 -0.2979 -0.0062
    2CHTO  H149  581  12.346   6.912   6.138  0.5857 -0.7753 -1.1669
    2CHTO   C88  582  12.261   6.774   6.276 -0.3280 -0.2762 -0.4240
    2CHTO   O58  583  12.403   6.775   6.323  0.0100  0.1008 -0.0305
    2CHTO  H136  584  12.403   6.759   6.413 -1.9897 -0.6004 -0.6379
    2CHTO   O51  585  12.391   6.655   5.816 -0.5075 -0.4800 -0.5376
    2CHTO   C78  586  12.533   6.608   5.864 -0.2415  0.2798 -0.6288
    2CHTO  H150  587  12.564   6.658   5.963  2.1097  0.9944 -2.3279
    2CHTO   C80  588  12.641   6.632   5.759 -0.5298 -0.1301 -0.2806
    2CHTO  H152  589  12.600   6.596   5.657  1.5492  2.0455 -1.3315
    2CHTO   O55  590  12.652   6.770   5.738 -0.0444 -0.8689  0.2481
    2CHTO  H134  591  12.577   6.803   5.705  1.3146 -0.9607  2.4865
    2CHTO   C84  592  12.776   6.574   5.803 -0.3608 -0.7644  0.1770
    2CHTO  H156  593  12.811   6.633   5.888 -0.4764 -2.9280 -4.3363
    2CHTO   N15  594  12.885   6.583   5.700  0.5400 -1.1247 -0.4315
    2CHTO  H143  595  12.912   6.683   5.676 -0.2508  0.6752 -2.4224
    2CHTO  H144  596  12.907   6.512   5.627 -0.5364 -1.7597  0.9413
    2CHTO   C87  597  12.767   6.427   5.858  0.1086 -0.0714 -0.3830
    2CHTO  H159  598  12.751   6.354   5.776 -0.3215  0.5746 -0.6155
    2CHTO   O53  599  12.643   6.417   5.956  0.3323  0.0740 -0.3415
    2CHTO   C82  600  12.521   6.457   5.900  0.5331 -0.0439  0.4754
    2CHTO  H154  601  12.498   6.385   5.819  0.6098  1.3881  0.3887
    2CHTO   C89  602  12.420   6.425   6.017  0.0974  0.1631  0.1141
    2CHTO   O59  603  12.289   6.472   5.993 -0.1221  0.0366 -0.2409
    2CHTO  H137  604  12.207   6.419   5.997 -2.5827  1.3161 -1.0224
    2CHTO   O45  605  12.898   6.403   5.968  0.5441  0.3423 -0.4721
    2CHTO   C67  606  12.889   6.461   6.106 -0.5356 -0.4894  0.0495
    2CHTO  H124  607  12.832   6.554   6.108 -0.1014  1.1064 -0.3747
    2CHTO   C65  608  12.809   6.356   6.198  0.3063  0.0652  0.1241
    2CHTO  H122  609  12.780   6.272   6.133  0.8402 -1.1700  2.2888
    2CHTO   O44  610  12.693   6.422   6.247 -0.2611  0.0507 -0.4213
    2CHTO  H102  611  12.717   6.473   6.324  0.2454 -0.3929  1.8589
    2CHTO   C63  612  12.896   6.290   6.314  0.5188  0.2944 -0.1549
    2CHTO  H120  613  12.969   6.231   6.261  3.1817 -1.7858 -2.8165
    2CHTO   N11  614  12.824   6.191   6.398 -0.0278 -0.3764 -0.1060
    2CHTO  H108  615  12.723   6.178   6.370 -0.9404  3.8572 -2.0157
    2CHTO  H109  616  12.874   6.094   6.404  0.8989  0.3562 -1.9597
    2CHTO   C61  617  12.970   6.403   6.395  0.1570 -0.2665  0.0988
    2CHTO  H118  618  13.059   6.351   6.442 -0.8909  1.9356  2.8757
    2CHTO   O40  619  13.029   6.512   6.312 -0.0803 -0.1539 -0.2421
    2CHTO   C68  620  13.031   6.488   6.166  0.0660 -0.3404 -0.1516
    2CHTO  H125  621  13.083   6.390   6.145 -0.2769 -1.8668 -0.5653
    2CHTO   C72  622  13.112   6.601   6.108 -0.0874  0.1624 -0.5754
    2CHTO   O48  623  13.050   6.727   6.129  0.4835 -0.1455 -0.3049
    2CHTO  H105  624  12.965   6.731   6.095  1.6119  0.3883 -0.2805
    2CHTO   O38  625  12.885   6.480   6.490  0.1725  0.8398 -0.6249
    2CHTO   C55  626  12.965   6.529   6.599  0.5287  0.2406  0.7248
    2CHTO  H112  627  13.070   6.543   6.556 -0.5257 -0.7488 -0.3271
    2CHTO   C56  628  12.966   6.440   6.724 -0.1449 -0.2843 -0.4290
    2CHTO  H113  629  12.866   6.432   6.763 -1.9205  1.3551 -0.0670
    2CHTO   O42  630  13.003   6.306   6.689 -0.2845 -0.0131  0.8973
    2CHTO  H100  631  13.022   6.260   6.767  1.6639  1.5233 -0.1226
    2CHTO   C57  632  13.070   6.495   6.823 -0.0236  0.1916 -0.1309
    2CHTO  H114  633  13.168   6.487   6.782 -1.3870  0.1816 -1.2134
    2CHTO   N10  634  13.088   6.418   6.949  0.6107 -0.2540  0.0124
    2CHTO  H106  635  13.191   6.408   6.974  1.8787 -1.4804  0.1219
    2CHTO  H107  636  13.035   6.464   7.034 -3.6649 -0.0630 -1.2644
    2CHTO   C58  637  13.033   6.640   6.853  0.4817 -0.0596  0.2871
    2CHTO  H115  638  12.944   6.642   6.928 -1.6923  0.6699 -2.0449
    2CHTO   O37  639  12.997   6.720   6.739 -0.2748  0.0671 -0.1974
    2CHTO   C59  640  12.904   6.664   6.650  0.5309 -0.3059  0.6120
    2CHTO  H116  641  12.810   6.643   6.704 -1.0311 -0.7827 -1.1904
    2CHTO   C70  642  12.891   6.768   6.536 -0.6524  0.3359  0.0822
    2CHTO   O46  643  12.764   6.732   6.474  0.0779  0.1897  0.0992
    2CHTO  H103  644  12.705   6.801   6.479 -2.2870  0.2531  1.8011
    2CHTO   O39  645  13.160   6.708   6.908  0.4786  0.3126  0.2414
    2CHTO   C60  646  13.146   6.822   6.994 -0.3161  0.4298 -0.2923
    2CHTO  H117  647  13.069   6.895   6.959 -2.1550 -2.4172  0.1506
    2CHTO   C62  648  13.092   6.784   7.136  0.4031  0.3541 -0.2069
    2CHTO  H119  649  12.984   6.733   7.121  0.0815 -4.7929 -1.1240
    2CHTO   O43  650  13.176   6.681   7.201  0.0509  0.2128 -0.1131
    2CHTO  H101  651  13.139   6.641   7.283  3.6503 -0.7205  0.7856
    2CHTO   C66  652  13.069   6.920   7.216  0.4471  0.4837 -0.1677
    2CHTO  H123  653  13.002   6.984   7.163 -1.3871 -0.6437 -2.0437
    2CHTO   N12  654  12.999   6.897   7.344 -0.6304 -0.2066  0.1150
    2CHTO  H110  655  12.942   6.985   7.361  0.5581  3.4772 -2.3894
    2CHTO  H111  656  12.938   6.816   7.327  0.2849 -0.6586 -1.7435
    2CHTO   C69  657  13.206   6.993   7.231  0.5677  0.2681 -0.1862
    2CHTO  H126  658  13.273   6.933   7.291  1.7365 -0.4670  0.4256
    2CHTO   O41  659  13.271   7.016   7.077  0.4910 -0.0077  0.6614
    2CHTO   C64  660  13.283   6.894   6.993 -0.2389 -0.4655 -0.0869
    2CHTO  H121  661  13.358   6.831   7.028 -1.5068  0.7335  2.1349
    2CHTO   C71  662  13.302   6.940   6.844  0.5047  0.4327  0.2829
    2CHTO   O47  663  13.410   7.029   6.833 -0.1338 -0.3055 -0.5318
    2CHTO  H104  664  13.465   6.988   6.767  0.7508  0.6009  0.6972
    2CHTO   O34  665  13.199   7.117   7.287 -0.5594 -0.3842  0.7464
    2CHTO   C49  666  13.176   7.256   7.288 -0.1006  0.2491 -0.6232
    2CHTO   H91  667  13.240   7.294   7.212  0.1621  0.5871 -0.2090
    2CHTO   C47  668  13.228   7.316   7.426 -0.4242  0.1140 -0.8069
    2CHTO   H89  669  13.230   7.430   7.406  3.2847  1.2205  0.6522
    2CHTO   O33  670  13.365   7.276   7.443 -0.2776 -0.0129 -0.3881
    2CHTO   H70  671  13.408   7.271   7.366 -0.9157  1.9025  1.2233
    2CHTO   C45  672  13.126   7.260   7.539  0.3044  0.2344  0.8422
    2CHTO   H87  673  13.120   7.148   7.527  0.1476  1.5627  0.9089
    2CHTO    N8  674  13.178   7.288   7.674 -0.2182 -0.0893  0.8285
    2CHTO   H75  675  13.205   7.393   7.676 -0.5740 -0.0440 -0.5976
    2CHTO   H76  676  13.267   7.230   7.688 -0.5296 -0.5443 -0.0864
    2CHTO   C43  677  12.980   7.320   7.513 -0.3433  0.3817 -0.5627
    2CHTO   H85  678  12.921   7.274   7.592  2.1958  2.2915  0.7915
    2CHTO   O29  679  12.932   7.284   7.376  0.5075  0.2031 -0.2608
    2CHTO   C50  680  13.022   7.302   7.261  0.0995  0.0485  0.5733
    2CHTO   H92  681  12.983   7.246   7.170  0.6276 -1.1321 -1.2195
    2CHTO   C54  682  13.006   7.447   7.210 -0.1460  0.4121 -0.9998
    2CHTO   O36  683  12.878   7.478   7.148  0.2144 -0.2006 -0.1117
    2CHTO   H72  684  12.875   7.559   7.098 -2.1266 -0.5597 -1.1936
    2CHTO   O27  685  12.971   7.459   7.534  0.0442 -0.3866  0.3558
    2CHTO   C37  686  12.915   7.587   7.516 -1.1824 -0.5484  0.2192
    2CHTO   H79  687  12.930   7.618   7.412 -2.7009 -0.3803 -1.0519
    2CHTO   C38  688  12.761   7.594   7.531 -0.4293  0.2753 -0.1326
    2CHTO   H80  689  12.732   7.547   7.626  3.4950 -0.0923  1.7223
    2CHTO   O31  690  12.700   7.523   7.420 -0.3698 -0.4012  0.6608
    2CHTO   H68  691  12.734   7.553   7.335 -1.4795  0.4947  1.4824
    2CHTO   C39  692  12.716   7.746   7.537 -0.2438 -0.2958 -0.1985
    2CHTO   H81  693  12.720   7.782   7.433 -3.3354  2.0784 -0.1512
    2CHTO    N7  694  12.576   7.753   7.570 -0.0249  0.4216  0.1201
    2CHTO   H73  695  12.519   7.687   7.506  1.0425 -1.4881  0.4012
    2CHTO   H74  696  12.551   7.850   7.539  0.9528 -0.8537 -2.2796
    2CHTO   C40  697  12.804   7.834   7.635  0.1888  1.3064  0.3236
    2CHTO   H82  698  12.794   7.793   7.737 -0.0899  0.2852 -0.3950
    2CHTO   O26  699  12.937   7.822   7.586  0.2266 -0.2007  0.1578
    2CHTO   C41  700  12.992   7.690   7.607  0.6415 -0.2771 -0.3210
    2CHTO   H83  701  12.992   7.660   7.711 -0.3019 -0.7606  2.0427
    2CHTO   C52  702  13.130   7.702   7.548  0.0004  0.0013  0.0314
    2CHTO   O35  703  13.145   7.756   7.390  0.1320  0.3654 -0.4384
    2CHTO   H71  704  13.234   7.794   7.373 -1.0640  0.2854  0.2439
    2CHTO   O28  705  12.777   7.971   7.638 -0.6671 -0.1680  0.3509
    2CHTO   C42  706  12.828   8.058   7.744  0.2052  0.8281 -0.6803
    2CHTO   H84  707  12.893   7.991   7.801 -0.0314 -1.9593  0.0995
    2CHTO   C44  708  12.717   8.098   7.847 -0.1762 -0.7705 -0.3190
    2CHTO   H86  709  12.633   8.130   7.792  0.4529 -0.7340 -1.0019
    2CHTO   O32  710  12.678   7.980   7.906  0.1784  0.1031  0.7069
    2CHTO   H69  711  12.661   7.905   7.847 -0.8653 -2.2287  0.8506
    2CHTO   C48  712  12.742   8.208   7.956  0.7823  0.2786  0.0043
    2CHTO   H90  713  12.793   8.161   8.040 -0.8443 -1.3511  1.4234
    2CHTO    N9  714  12.613   8.262   8.024  0.0797  0.1847 -0.3093
    2CHTO   H77  715  12.573   8.182   8.080  1.4692  1.4364  1.3474
    2CHTO   H78  716  12.635   8.343   8.090  0.6640 -0.4870  0.7875
    2CHTO   C51  717  12.828   8.319   7.892  0.5522 -0.2576  0.3189
    2CHTO   H93  718  12.768   8.369   7.813  2.2009  1.7017 -1.3898
    2CHTO   O30  719  12.945   8.260   7.833 -0.1789 -0.7972  0.0401
    2CHTO   C46  720  12.910   8.185   7.702 -0.5253  0.1301 -0.0606
    2CHTO   H88  721  12.845   8.244   7.634 -1.8091  2.6668  2.3873
    2CHTO   C53  722  13.041   8.148   7.629 -0.1775  0.1632 -0.1837
    2CHTO   O72  723  13.015   8.107   7.494 -0.2027 -0.6269  0.3582
    2CHTO  H199  724  13.008   8.179   7.438  1.1595  0.1345 -2.1761
    2CHTO   O22  725  12.869   8.412   7.995  0.1163 -0.3997 -0.3568
    2CHTO   C31  726  12.915   8.551   7.990  0.2464  0.7408 -0.6320
    2CHTO   H59  727  12.950   8.573   8.100 -1.1724 -1.2100 -0.2960
    2CHTO   C29  728  13.023   8.591   7.894 -0.0819  0.1364  0.5101
    2CHTO   H57  729  12.982   8.572   7.792 -1.5291 -0.7336  1.4386
    2CHTO   O21  730  13.124   8.494   7.918  0.1954 -0.0920  0.4188
    2CHTO   H37  731  13.158   8.452   7.843  2.3900  0.5809 -0.9970
    2CHTO   C27  732  13.075   8.741   7.906 -0.4863  0.5230 -0.4035
    2CHTO   H55  733  13.119   8.757   8.010  2.7509 -2.1545  2.9480
    2CHTO    N5  734  13.176   8.770   7.802 -0.1300  0.3165  0.2176
    2CHTO   H43  735  13.146   8.763   7.699 -0.9998 -1.9102  3.2012
    2CHTO   H44  736  13.258   8.695   7.803 -0.6494  0.7042 -1.4795
    2CHTO   C25  737  12.959   8.838   7.896  0.4044  0.2273  0.4619
    2CHTO   H53  738  12.930   8.847   7.792  0.6867  3.5057 -0.6262
    2CHTO   O17  739  12.853   8.795   7.991  0.2165 -0.0395  0.7224
    2CHTO   C32  740  12.803   8.659   7.965  0.3603 -0.3443  0.0854
    2CHTO   H60  741  12.767   8.658   7.863  1.1300  0.4676  0.1209
    2CHTO   C36  742  12.679   8.642   8.046  0.9450  0.6650  0.0625
    2CHTO   O25  743  12.695   8.674   8.185  0.1059  0.6550 -0.8353
    2CHTO   H40  744  12.707   8.598   8.240  3.2959  2.8919 -0.4699
    2CHTO   O15  745  13.004   8.982   7.936 -0.1172  0.6261  0.0688
    2CHTO   C19  746  12.974   9.111   7.994  0.9486 -0.2875 -0.6398
    2CHTO   H47  747  13.070   9.151   8.038 -0.0591 -0.1282 -1.4540
    2CHTO   C20  748  12.901   9.221   7.905  0.7536  0.5849  0.1914
    2CHTO   H48  749  12.799   9.188   7.877  0.2654 -0.2926 -1.9134
    2CHTO   O19  750  12.984   9.241   7.788 -0.6484 -0.2885 -0.0271
    2CHTO   H35  751  12.936   9.282   7.717  1.4075  1.4908  0.4898
    2CHTO   C21  752  12.875   9.365   7.986 -0.6192  0.0101  0.4464
    2CHTO   H49  753  12.964   9.407   8.016 -1.3532 -0.9059 -0.3043
    2CHTO    N4  754  12.811   9.473   7.916  0.5494 -0.2615  0.1484
    2CHTO   H41  755  12.737   9.528   7.972 -0.3841  0.8509  0.8589
    2CHTO   H42  756  12.774   9.462   7.815  1.1314 -1.1799  2.5407
    2CHTO   C22  757  12.791   9.326   8.113  0.1969 -0.7504  0.5529
    2CHTO   H50  758  12.679   9.302   8.103 -1.0163  0.8080  0.9186
    2CHTO   O14  759  12.856   9.224   8.191 -0.4523  0.0048 -0.3370
    2CHTO   C23  760  12.884   9.094   8.125  0.0441  0.8566 -0.0919
    2CHTO   H51  761  12.787   9.050   8.101  2.0426  1.1497  2.2731
    2CHTO   C34  762  12.953   9.005   8.230 -0.2603  0.1695  0.4769
    2CHTO   O23  763  12.871   8.952   8.335 -0.2059 -0.2967 -0.1036
    2CHTO   H38  764  12.850   9.021   8.392  2.0609 -2.6410 -0.8711
    2CHTO   O16  765  12.792   9.435   8.210  0.1694  0.1033 -0.1648
    2CHTO   C24  766  12.660   9.434   8.320 -0.5765  0.0112  0.0553
    2CHTO   H52  767  12.610   9.337   8.321 -1.0469 -0.6174  0.4822
    2CHTO   C26  768  12.567   9.545   8.268  0.2752 -0.5720  0.9241
    2CHTO   H54  769  12.635   9.651   8.251  1.0158 -1.0868  2.0435
    2CHTO   O20  770  12.518   9.509   8.139 -0.0763 -0.1511  0.6494
    2CHTO   H36  771  12.470   9.577   8.108  2.5148  0.3114  0.3360
    2CHTO   C30  772  12.455   9.567   8.376  0.1574  0.1827  1.8221
    2CHTO   H58  773  12.381   9.486   8.377 -1.0634 -1.9587 -1.6084
    2CHTO    N6  774  12.378   9.689   8.333  0.0814  0.3709  0.2098
    2CHTO   H45  775  12.394   9.759   8.414  1.6799 -1.3793 -0.2921
    2CHTO   H46  776  12.424   9.732   8.245 -0.9098  0.3859 -0.6238
    2CHTO   C33  777  12.508   9.587   8.522  0.5135  0.7801  1.0096
    2CHTO   H61  778  12.561   9.686   8.533  3.0432  0.8050  1.3065
    2CHTO   O18  779  12.600   9.475   8.554 -0.2355 -0.6538  0.3695
    2CHTO   C28  780  12.714   9.461   8.467 -0.0429 -0.5223 -0.0898
    2CHTO   H56  781  12.771   9.555   8.469 -3.1199 -0.0666 -0.5132
    2CHTO   C35  782  12.808   9.351   8.516  0.2087 -0.3042  0.1166
    2CHTO   O24  783  12.839   9.356   8.651 -0.4428  0.5835 -0.7086
    2CHTO   H39  784  12.860   9.270   8.683  0.6839  1.5341 -0.0094
    2CHTO    O9  785  12.396   9.602   8.616 -0.1645 -0.2664 -0.8396
    2CHTO   C13  786  12.331   9.469   8.670 -0.0752  0.3391  0.4305
    2CHTO   H26  787  12.401   9.388   8.648  1.6841  1.0500  1.0238
    2CHTO   C11  788  12.190   9.449   8.594  0.8379 -0.2461 -0.0690
    2CHTO   H24  789  12.218   9.438   8.488  1.5602  0.3803 -0.8033
    2CHTO    O8  790  12.120   9.574   8.603 -0.3758 -0.0363 -0.0913
    2CHTO    H3  791  12.174   9.632   8.557 -2.2156  0.6739  2.0372
    2CHTO    C9  792  12.108   9.328   8.653  0.0446  0.0431 -0.0136
    2CHTO   H22  793  12.169   9.235   8.640  0.3619  0.5654  1.6855
    2CHTO    N2  794  11.981   9.300   8.580 -0.0144  0.1503 -0.3206
    2CHTO   H10  795  12.015   9.272   8.483  0.3764  0.0644 -1.9733
    2CHTO   H11  796  11.933   9.216   8.627  0.1819  0.6218  0.8395
    2CHTO    C7  797  12.094   9.347   8.807  0.0738 -0.1950 -0.6030
    2CHTO   H20  798  12.142   9.246   8.839 -1.3606 -3.2432 -1.8799
    2CHTO    O4  799  12.172   9.451   8.866  0.2383 -0.5126  0.6024
    2CHTO   C14  800  12.309   9.466   8.830  0.6624  0.6832 -0.9278
    2CHTO   H27  801  12.359   9.380   8.869  1.6333 -1.6287  2.5518
    2CHTO   C18  802  12.366   9.585   8.897 -0.5880 -0.4698  0.0287
    2CHTO   O13  803  12.511   9.589   8.882 -0.2291 -0.1895  0.0821
    2CHTO    H7  804  12.550   9.663   8.923  1.8463 -4.0208 -0.6181
    2CHTO    O2  805  11.932   9.363   8.866  0.3859  0.0004  0.3002
    2CHTO    C1  806  11.909   9.319   8.998  0.0559  0.9480  0.2150
    2CHTO   H14  807  11.802   9.343   9.013 -0.0735 -0.1581 -1.0310
    2CHTO    C2  808  11.994   9.386   9.120 -0.3386  0.5862 -0.5100
    2CHTO   H15  809  12.094   9.356   9.096  1.5427 -1.0644 -0.9728
    2CHTO    O6  810  11.981   9.529   9.117  0.5298  0.0028 -0.4592
    2CHTO    H1  811  12.044   9.582   9.063  0.2470  2.6504 -0.6596
    2CHTO    C3  812  11.944   9.323   9.258  1.0041 -0.7068  0.1210
    2CHTO   H16  813  11.844   9.352   9.280  4.1115  0.8881  5.5555
    2CHTO    N1  814  12.033   9.365   9.366  0.3979 -0.1075 -0.3978
    2CHTO    H8  815  11.987   9.450   9.407  0.5113  0.6928 -1.0380
    2CHTO    H9  816  12.041   9.294   9.450  0.1412  0.0874 -0.3146
    2CHTO    C4  817  11.947   9.162   9.246 -0.2880  0.0086 -0.3359
    2CHTO   H17  818  12.050   9.133   9.229 -2.3600  0.2547 -1.7433
    2CHTO    O1  819  11.862   9.118   9.137 -0.9006 -0.0290 -0.1415
    2CHTO    C5  820  11.915   9.162   9.006 -0.2098 -0.0921  0.4684
    2CHTO   H18  821  12.025   9.133   8.982  3.4711  0.9247 -1.5433
    2CHTO   C16  822  11.825   9.080   8.911  0.3502 -0.1504  0.4193
    2CHTO   O11  823  11.900   9.065   8.788 -0.2191 -0.3937 -0.2598
    2CHTO    H5  824  11.940   9.146   8.758  0.3414  0.9108  0.3039
    2CHTO    O3  825  11.897   9.090   9.351 -0.3301 -0.0086  0.0269
    2CHTO    C6  826  11.918   8.941   9.356 -0.0450  0.1676  0.4665
    2CHTO   H19  827  11.980   8.905   9.273  0.7332  1.7345 -2.5686
    2CHTO    C8  828  11.999   8.907   9.482  0.4150  0.0910  0.0053
    2CHTO   H21  829  11.944   8.945   9.570 -0.1029  0.4946  2.3084
    2CHTO    O7  830  12.129   8.971   9.469  0.5013  0.0049 -0.0770
    2CHTO    H2  831  12.138   9.037   9.538 -0.1874 -0.7562  2.2259
    2CHTO   C12  832  12.016   8.754   9.508  1.0593  0.3566 -0.1069
    2CHTO   H25  833  12.075   8.724   9.426 -0.1625 -1.3478  1.5689
    2CHTO    N3  834  12.084   8.721   9.631 -0.1107  0.8016 -0.1602
    2CHTO   H12  835  12.030   8.764   9.708 -0.6727  2.1246 -0.1372
    2CHTO   H13  836  12.187   8.753   9.618  0.0127 -0.8998  1.4743
    2CHTO   C15  837  11.877   8.684   9.497  0.3422 -0.7347 -0.1788
    2CHTO   H28  838  11.816   8.705   9.590  0.6647  0.0241 -0.4387
    2CHTO   O10  839  11.880   8.540   9.480 -0.2404 -0.1580  0.1450
    2CHTO    H4  840  11.893   8.486   9.558  1.7808  0.2476  0.5493
    2CHTO    O5  841  11.792   8.720   9.383  0.6993  0.1269 -0.3027
    2CHTO   C10  842  11.781   8.862   9.356 -0.8442 -0.2215 -0.3187
    2CHTO   H23  843  11.710   8.899   9.434 -1.5056 -0.4386  3.1190
    2CHTO   C17  844  11.704   8.875   9.222 -0.3899 -0.1032 -0.3992
    2CHTO   O12  845  11.766   8.823   9.109  0.2131  0.1040  0.1501
    2CHTO    H6  846  11.793   8.886   9.047  0.4267 -3.8984  0.1855
    3CHTO  H203  847   5.424   9.057   5.358  1.0178 -1.2684 -0.6106
    3CHTO   O82  848   5.334   9.033   5.354 -0.3079  0.6106  0.1218
    3CHTO  C123  849   5.302   8.983   5.223  0.0540  0.5953  0.7185
    3CHTO  H227  850   5.216   8.914   5.234  0.3057  1.4791  1.0972
    3CHTO   O77  851   5.269   9.105   5.145  0.2756  0.5676  0.4339
    3CHTO  C118  852   5.224   9.090   5.010  0.1486  0.1115  0.1405
    3CHTO  H222  853   5.137   9.024   5.024  1.6509 -2.5470 -0.0977
    3CHTO  C125  854   5.182   9.221   4.946  0.1516 -0.2089 -0.5434
    3CHTO   O84  855   5.296   9.310   4.956 -0.0996 -0.2369  0.6192
    3CHTO  H205  856   5.366   9.282   4.901  1.8874  0.0256  1.1155
    3CHTO  C114  857   5.332   9.017   4.923 -0.0820  0.4154 -0.1898
    3CHTO  H218  858   5.432   9.069   4.923  1.2716 -0.3540 -1.9264
    3CHTO  C116  859   5.358   8.878   4.993 -0.0029  0.2033  0.1631
    3CHTO  H220  860   5.261   8.821   4.988  3.3195 -0.9585 -1.0841
    3CHTO   O79  861   5.445   8.815   4.892  0.7510  0.4683 -0.1177
    3CHTO  H201  862   5.428   8.724   4.883  3.2390  1.0990  3.3482
    3CHTO  C120  863   5.414   8.907   5.136  0.5106 -0.3526 -0.1083
    3CHTO  H224  864   5.499   8.969   5.129  0.8157 -1.6832  0.8491
    3CHTO   N21  865   5.464   8.788   5.215  0.4276  0.4691  0.2805
    3CHTO  H211  866   5.378   8.756   5.278 -0.8931  0.5697  1.6814
    3CHTO  H212  867   5.502   8.703   5.155  0.3339  0.8635  1.8731
    3CHTO   O75  868   5.286   9.002   4.790  0.3629  0.0675 -0.6991
    3CHTO  C112  869   5.393   9.040   4.678 -0.4837 -0.0022  0.2296
    3CHTO  H216  870   5.461   8.952   4.687 -2.8508 -3.0715 -0.4560
    3CHTO   O73  871   5.453   9.159   4.714 -0.2246 -0.6963  0.5049
    3CHTO  C113  872   5.569   9.190   4.634  0.3829 -0.5343 -0.1137
    3CHTO  H217  873   5.636   9.097   4.641  1.0822 -1.1991  0.4157
    3CHTO  C124  874   5.643   9.304   4.706  0.0341  0.3363 -0.3584
    3CHTO   O83  875   5.566   9.426   4.693 -0.3729  0.4682 -0.4902
    3CHTO  H204  876   5.550   9.453   4.601 -0.5302  2.3751 -2.0967
    3CHTO  C109  877   5.526   9.225   4.492 -0.1439 -0.0261 -0.6503
    3CHTO  H213  878   5.460   9.321   4.502 -0.4009  2.1393  2.4259
    3CHTO  C110  879   5.444   9.113   4.431  0.0323  0.1274  0.1704
    3CHTO  H214  880   5.511   9.037   4.403  0.5105  0.5106  0.7342
    3CHTO   O78  881   5.388   9.158   4.305 -0.0143  0.1338 -0.2466
    3CHTO  H200  882   5.459   9.194   4.255  0.6620  2.3246 -0.8824
    3CHTO  C111  883   5.338   9.055   4.530  0.1170  0.5155  0.7586
    3CHTO  H215  884   5.253   9.118   4.528  1.4911 -1.4476 -0.2682
    3CHTO   N19  885   5.291   8.919   4.488  0.5091  0.4115  0.0220
    3CHTO  H207  886   5.361   8.850   4.448  0.9213  0.5231 -0.4503
    3CHTO  H208  887   5.232   8.863   4.561 -0.3159 -0.2313 -3.1969
    3CHTO   O74  888   5.649   9.257   4.420 -0.1609  0.2445 -0.3914
    3CHTO  C115  889   5.664   9.400   4.372  0.1534 -0.0099 -0.5540
    3CHTO  H219  890   5.602   9.469   4.430 -2.9511 -2.1277  1.7107
    3CHTO   O76  891   5.814   9.456   4.400  0.0913 -0.0171  0.0003
    3CHTO  C122  892   5.911   9.365   4.335 -0.4462 -0.0717  0.5884
    3CHTO  H226  893   5.928   9.284   4.393  0.6892  0.7253  0.7123
    3CHTO  C126  894   6.054   9.435   4.329 -0.2027 -0.0066  0.1501
    3CHTO   O85  895   6.056   9.561   4.257 -0.0945 -0.2197 -0.3906
    3CHTO  H206  896   5.989   9.618   4.301 -2.6317  1.5798  2.1356
    3CHTO  C121  897   5.873   9.330   4.191  0.5157 -0.1244 -0.2686
    3CHTO  H225  898   5.969   9.338   4.132 -1.8320 -0.5705  0.9031
    3CHTO   O81  899   5.820   9.197   4.197  0.3566  0.3534  0.2615
    3CHTO  H202  900   5.880   9.124   4.201 -4.1202  0.7214 -2.5305
    3CHTO  C119  901   5.760   9.425   4.131 -0.4010 -0.7202  0.9208
    3CHTO  H223  902   5.813   9.523   4.149 -2.4453 -1.2494  1.4580
    3CHTO  C117  903   5.628   9.425   4.215  0.3207 -0.6634 -0.2178
    3CHTO  H221  904   5.560   9.344   4.189 -1.5322 -0.1191 -0.7886
    3CHTO   N20  905   5.554   9.552   4.193 -0.5765 -0.1717  0.0388
    3CHTO  H209  906   5.560   9.585   4.089  1.0237  0.3000  3.5862
    3CHTO  H210  907   5.577   9.622   4.273 -1.6464 -1.5813  4.4265
    3CHTO   O80  908   5.743   9.420   3.972 -0.7103  1.4252  0.1604
    3CHTO  C103  909   5.746   9.291   3.901  0.4359  0.2263  0.2293
    3CHTO  H190  910   5.805   9.215   3.950  0.6297  2.4598  0.5357
    3CHTO  C101  911   5.603   9.230   3.874  0.3061 -0.1142 -0.4323
    3CHTO  H188  912   5.543   9.317   3.858 -0.3150 -3.0069  3.3562
    3CHTO   O68  913   5.547   9.146   4.010  0.4258 -0.6265 -0.3038
    3CHTO  H168  914   5.616   9.103   4.061 -0.8080 -0.8493 -1.3822
    3CHTO   C99  915   5.598   9.130   3.745  0.1545  0.4576 -0.2309
    3CHTO  H186  916   5.661   9.047   3.774 -0.5274  0.1625 -0.9541
    3CHTO   N17  917   5.456   9.095   3.702  0.3847  0.2177 -0.0439
    3CHTO  H174  918   5.415   9.179   3.638 -1.2710  2.2626 -2.0815
    3CHTO  H175  919   5.463   9.005   3.643 -1.6608  1.7372 -0.2247
    3CHTO   C97  920   5.673   9.187   3.622  0.6170  0.1544 -0.1715
    3CHTO  H184  921   5.616   9.273   3.578 -2.2363  2.2260 -2.1191
    3CHTO   O64  922   5.807   9.226   3.665 -0.2804 -0.6551  0.0114
    3CHTO  C104  923   5.823   9.329   3.762  0.7120  0.4068  0.5127
    3CHTO  H191  924   5.798   9.427   3.721  0.4499  0.2606 -0.1480
    3CHTO  C108  925   5.970   9.346   3.799  0.1989  0.3807  0.1125
    3CHTO   O71  926   6.052   9.384   3.687  0.4745 -0.2547 -0.6648
    3CHTO  H171  927   6.066   9.308   3.629 -1.4017  0.7168  0.9362
    3CHTO   O62  928   5.705   9.089   3.525  0.0956  0.7820  0.1332
    3CHTO   C91  929   5.710   9.129   3.388  0.4852  0.2522 -0.1743
    3CHTO  H178  930   5.759   9.225   3.388  0.9322  0.4119 -3.2339
    3CHTO   C92  931   5.574   9.137   3.314  1.0792 -0.5310  0.2369
    3CHTO  H179  932   5.489   9.190   3.384 -0.9339 -0.6684  2.0730
    3CHTO   O66  933   5.587   9.223   3.196 -0.2760  0.0310  0.9321
    3CHTO  H166  934   5.504   9.266   3.180  3.6313 -0.3032  2.1036
    3CHTO   C93  935   5.520   9.000   3.251  0.2769 -0.2294 -0.5664
    3CHTO  H180  936   5.436   9.027   3.186  1.2999 -2.6633 -0.4421
    3CHTO   N16  937   5.461   8.911   3.353 -0.0662  0.3610  0.0608
    3CHTO  H172  938   5.521   8.829   3.366 -0.7084  1.0670  0.5302
    3CHTO  H173  939   5.447   8.959   3.447 -3.9547  1.2331  0.1548
    3CHTO   C94  940   5.629   8.936   3.162 -0.2746 -0.3391 -0.1898
    3CHTO  H181  941   5.649   8.831   3.189  1.7055 -1.3689 -1.3944
    3CHTO   O61  942   5.757   9.002   3.170 -0.2262  0.3017 -0.3629
    3CHTO   C95  943   5.802   9.027   3.305  0.0691  0.2264 -0.1690
    3CHTO  H182  944   5.795   8.936   3.366  1.4843  0.1715  1.3656
    3CHTO  C106  945   5.944   9.079   3.310 -0.2864 -0.6626 -0.1025
    3CHTO   O69  946   5.994   9.076   3.445  0.3329  0.7335 -0.6937
    3CHTO  H169  947   6.087   9.072   3.448 -0.1921 -0.4165 -2.5889
    3CHTO   O63  948   5.577   8.961   3.019 -0.4020  0.0022  0.1789
    3CHTO   C96  949   5.599   8.849   2.918  0.4170 -0.2459 -0.3099
    3CHTO  H183  950   5.704   8.826   2.913 -0.5432  0.1658 -0.4950
    3CHTO   C98  951   5.547   8.897   2.780 -0.8830 -0.9566 -0.4352
    3CHTO  H185  952   5.596   8.993   2.766 -1.7894  1.0582 -1.9244
    3CHTO   O67  953   5.603   8.814   2.681  0.2824 -0.1995  0.4349
    3CHTO  H167  954   5.643   8.869   2.612 -1.8152 -1.3819 -1.4922
    3CHTO  C102  955   5.384   8.911   2.775 -0.5393 -0.0296 -0.8065
    3CHTO  H189  956   5.355   8.878   2.674 -2.2958  0.2414 -0.1659
    3CHTO   N18  957   5.333   9.053   2.784 -0.3519 -0.4230 -0.0113
    3CHTO  H176  958   5.388   9.125   2.720  0.2330  5.3889  2.2616
    3CHTO  H177  959   5.225   9.066   2.756 -0.5199  1.3256 -1.2811
    3CHTO  C105  960   5.323   8.819   2.874 -0.3999  0.4950  0.0279
    3CHTO  H192  961   5.311   8.869   2.967 -0.9000  1.7278 -0.3155
    3CHTO   O65  962   5.402   8.701   2.899  0.2084  0.4163 -0.4606
    3CHTO  C100  963   5.514   8.730   2.981  0.0254  0.2939 -0.5842
    3CHTO  H187  964   5.481   8.746   3.086 -1.5814  2.2643 -0.2246
    3CHTO  C107  965   5.614   8.610   2.984  0.4022  0.2336 -0.0404
    3CHTO   O70  966   5.551   8.477   2.998  0.2867 -0.4991  0.2124
    3CHTO  H170  967   5.501   8.472   2.919  1.6666  0.7904 -2.1857
    3CHTO   O57  968   5.181   8.772   2.811 -0.1783 -0.2785  0.0581
    3CHTO   C85  969   5.067   8.785   2.888  0.5128  0.0296  0.4655
    3CHTO  H157  970   5.081   8.861   2.958  1.9567  0.8969 -2.1451
    3CHTO   C83  971   5.044   8.656   2.978 -0.1702 -0.0255  0.0685
    3CHTO  H155  972   5.129   8.668   3.042  0.2876  0.9640 -0.0001
    3CHTO   O56  973   5.063   8.533   2.906  0.0672 -0.4389 -0.2869
    3CHTO  H135  974   5.077   8.467   2.974  1.0698 -0.2846 -1.5385
    3CHTO   C81  975   4.917   8.667   3.067  0.4578  0.4549 -0.8196
    3CHTO  H153  976   4.929   8.756   3.134 -0.4677  1.4564  1.4176
    3CHTO   N14  977   4.911   8.556   3.163  0.4823 -0.7029 -0.3762
    3CHTO  H141  978   4.822   8.501   3.176  3.1198  0.1759  1.6361
    3CHTO  H142  979   4.954   8.571   3.263  1.2469 -1.2511  0.8577
    3CHTO   C79  980   4.786   8.685   2.982  0.2131 -0.3885  0.5340
    3CHTO  H151  981   4.703   8.716   3.048  1.1996  3.1546 -0.5401
    3CHTO   O52  982   4.802   8.786   2.872  0.2582 -0.0837 -0.1969
    3CHTO   C86  983   4.933   8.811   2.806  0.1780  0.0335 -0.8973
    3CHTO  H158  984   4.927   8.734   2.719  1.2608  1.9566  1.2089
    3CHTO   C90  985   4.938   8.948   2.733  0.7791  0.3910  0.1074
    3CHTO   O60  986   4.921   9.067   2.808 -0.6640 -0.3864  0.7643
    3CHTO  H138  987   4.982   9.131   2.782  2.0992  2.5445 -1.0042
    3CHTO   O50  988   4.744   8.562   2.918 -0.0703  0.0223 -0.2175
    3CHTO   C73  989   4.606   8.547   2.884  0.8844  0.2295  0.5572
    3CHTO  H145  990   4.546   8.640   2.864  1.1377  0.8276  1.6639
    3CHTO   C74  991   4.536   8.478   3.005 -0.5581  0.1230 -0.3683
    3CHTO  H146  992   4.559   8.540   3.097 -0.7427  0.7071  3.4995
    3CHTO   O54  993   4.393   8.473   2.995  0.4754 -0.1145  0.4000
    3CHTO  H133  994   4.369   8.435   2.914 -1.0977 -0.2917  0.2676
    3CHTO   C75  995   4.596   8.331   3.028  0.4449 -0.2351 -0.3876
    3CHTO  H147  996   4.705   8.345   3.045 -0.4800 -0.9018 -0.0720
    3CHTO   N13  997   4.550   8.253   3.147  0.5837 -0.6250 -0.0388
    3CHTO  H139  998   4.445   8.260   3.162  1.9779 -0.7283  1.7207
    3CHTO  H140  999   4.599   8.282   3.240  1.7631 -1.5420  3.3465
    3CHTO   C76 1000   4.583   8.252   2.887 -0.3132  0.1003 -0.6460
    3CHTO  H148 1001   4.478   8.248   2.863  1.7693  0.1160  1.1344
    3CHTO   O49 1002   4.650   8.325   2.779 -0.1665 -0.6877 -0.8285
    3CHTO   C77 1003   4.592   8.454   2.758 -0.4723  0.0215 -0.0630
    3CHTO  H149 1004   4.486   8.439   2.737  0.0669 -0.0732  0.0507
    3CHTO   C88 1005   4.656   8.517   2.635 -0.2190  0.3077 -0.0314
    3CHTO   O58 1006   4.609   8.451   2.513 -0.2555 -0.1001 -0.5155
    3CHTO  H136 1007   4.621   8.525   2.451 -2.9143  1.3916 -1.3002
    3CHTO   O51 1008   4.643   8.110   2.890 -0.1363 -0.4391  0.5790
    3CHTO   C78 1009   4.612   8.013   2.764  0.3731 -0.2594  0.1951
    3CHTO  H150 1010   4.551   8.072   2.687  0.1258 -2.6881  1.1317
    3CHTO   C80 1011   4.519   7.901   2.816  0.2009 -0.5306 -0.5008
    3CHTO  H152 1012   4.576   7.847   2.898 -2.4211  0.2261 -2.8431
    3CHTO   O55 1013   4.400   7.962   2.862  0.1095  0.6406  0.4082
    3CHTO  H134 1014   4.337   7.985   2.790 -2.8895 -0.0814  1.5874
    3CHTO   C84 1015   4.498   7.790   2.712 -0.0828  0.3225 -0.2191
    3CHTO  H156 1016   4.434   7.833   2.631 -0.2062 -0.4952 -1.6923
    3CHTO   N15 1017   4.407   7.682   2.758  0.4264  0.4503  0.3442
    3CHTO  H143 1018   4.371   7.628   2.671  0.3231 -1.5813  0.0606
    3CHTO  H144 1019   4.454   7.609   2.821 -1.7956  1.4361 -4.9668
    3CHTO   C87 1020   4.644   7.740   2.674 -0.7988  0.2490  0.3693
    3CHTO  H159 1021   4.689   7.692   2.761  1.5942 -0.0088 -0.0593
    3CHTO   O53 1022   4.725   7.861   2.623  0.7724 -0.3255  0.2989
    3CHTO   C82 1023   4.743   7.963   2.720 -0.9486 -0.2555 -0.4841
    3CHTO  H154 1024   4.791   7.922   2.806 -0.0412  0.0264 -2.3902
    3CHTO   C89 1025   4.851   8.062   2.667 -0.4273 -0.0156  0.0640
    3CHTO   O59 1026   4.794   8.129   2.558  0.6009 -0.3703 -0.0052
    3CHTO  H137 1027   4.863   8.179   2.516 -0.2032 -0.9952  1.1999
    3CHTO   O45 1028   4.639   7.642   2.544 -0.3191  0.1120  0.0429
    3CHTO   C67 1029   4.767   7.616   2.476  0.1026  0.4167 -0.3650
    3CHTO  H124 1030   4.853   7.666   2.524  0.2468  2.1057  2.0364
    3CHTO   C65 1031   4.797   7.463   2.477 -0.3894 -0.1054  0.0425
    3CHTO  H122 1032   4.697   7.422   2.462 -1.2951 -2.9723 -1.2518
    3CHTO   O44 1033   4.854   7.425   2.604 -0.5031 -0.6585 -0.0478
    3CHTO  H102 1034   4.929   7.482   2.618 -2.4013  3.8423  0.1463
    3CHTO   C63 1035   4.868   7.398   2.348 -0.2447 -0.2732 -0.1265
    3CHTO  H120 1036   4.792   7.388   2.267  1.7710 -0.1747  0.1992
    3CHTO   N11 1037   4.919   7.254   2.348  0.3722 -0.2078  0.2925
    3CHTO  H108 1038   4.856   7.192   2.284 -2.6421  0.7630 -2.8608
    3CHTO  H109 1039   4.934   7.213   2.449  0.2770 -0.4727 -2.3039
    3CHTO   C61 1040   4.966   7.519   2.297  0.6779  0.4258 -0.8461
    3CHTO  H118 1041   5.027   7.498   2.207 -2.1273  0.5846  1.8669
    3CHTO   O40 1042   4.893   7.646   2.269  0.0550 -1.0806  0.5596
    3CHTO   C68 1043   4.772   7.677   2.336 -0.0324  0.3387 -0.2585
    3CHTO  H125 1044   4.683   7.634   2.286 -0.7692 -1.2108 -2.2907
    3CHTO   C72 1045   4.762   7.832   2.322  0.3436  0.6159  0.3252
    3CHTO   O48 1046   4.870   7.897   2.391  0.5931 -0.7427 -0.1543
    3CHTO  H105 1047   4.877   7.882   2.482  2.7788  0.6725 -1.5619
    3CHTO   O38 1048   5.071   7.548   2.396  0.0449  0.3830  0.2405
    3CHTO   C55 1049   5.180   7.634   2.360 -0.0932 -0.2233 -0.2737
    3CHTO  H112 1050   5.142   7.718   2.303 -2.8495 -0.1655 -2.3818
    3CHTO   C56 1051   5.300   7.561   2.282  0.5025 -0.1902  0.3915
    3CHTO  H113 1052   5.342   7.499   2.364 -0.5486 -3.2498  1.0299
    3CHTO   O42 1053   5.264   7.477   2.170 -0.6244 -0.0183  0.6241
    3CHTO  H100 1054   5.305   7.395   2.178  0.2527  1.6848  0.2823
    3CHTO   C57 1055   5.403   7.675   2.260  1.3074 -0.4644 -0.2970
    3CHTO  H114 1056   5.357   7.764   2.206  1.4216  1.9523  0.6198
    3CHTO   N10 1057   5.521   7.632   2.181  0.4430 -0.9162  0.1015
    3CHTO  H106 1058   5.564   7.730   2.147  2.6362  1.6128  1.7608
    3CHTO  H107 1059   5.604   7.579   2.230  0.3887 -0.7734  0.0059
    3CHTO   C58 1060   5.446   7.727   2.405  0.4509 -0.4482  0.2979
    3CHTO  H115 1061   5.489   7.642   2.465 -0.1421 -2.3422  2.2209
    3CHTO   O37 1062   5.339   7.791   2.480  0.1994 -0.2329  0.4216
    3CHTO   C59 1063   5.231   7.698   2.493  0.5555  0.2506  0.8586
    3CHTO  H116 1064   5.256   7.622   2.573 -1.5080 -0.7664  3.3979
    3CHTO   C70 1065   5.111   7.784   2.547 -0.8781 -0.1108 -0.1166
    3CHTO   O46 1066   5.144   7.854   2.670 -0.5204 -0.0044 -0.2242
    3CHTO  H103 1067   5.075   7.908   2.699  0.2933  1.0900 -0.1463
    3CHTO   O39 1068   5.591   7.855   2.382  0.2035 -0.3562 -0.2751
    3CHTO   C60 1069   5.550   7.986   2.430 -0.8004  0.0423  0.7370
    3CHTO  H117 1070   5.445   8.004   2.403  0.5939 -1.8806  1.1468
    3CHTO   C62 1071   5.554   8.005   2.586  0.2130  0.5324  0.7443
    3CHTO  H119 1072   5.507   7.917   2.628  3.1926  2.0175 -1.8978
    3CHTO   O43 1073   5.688   8.010   2.642 -0.1708 -0.5528  0.0524
    3CHTO  H101 1074   5.681   7.989   2.735 -1.7679 -0.2940  1.1302
    3CHTO   C66 1075   5.470   8.132   2.619  0.4222 -0.3537 -0.2883
    3CHTO  H123 1076   5.370   8.107   2.579  2.7001 -1.4066  0.3752
    3CHTO   N12 1077   5.448   8.135   2.766  0.2097 -0.4603  0.2898
    3CHTO  H110 1078   5.546   8.142   2.819  1.7134 -0.3061  0.8355
    3CHTO  H111 1079   5.398   8.046   2.802 -0.3029  1.1282  0.6751
    3CHTO   C69 1080   5.542   8.252   2.560 -0.3966  0.5707 -0.8859
    3CHTO  H126 1081   5.635   8.282   2.610  1.4796  1.5409 -0.4417
    3CHTO   O41 1082   5.570   8.226   2.397  0.3325  0.3603  0.0062
    3CHTO   C64 1083   5.633   8.101   2.361  0.5828  0.5387 -0.4899
    3CHTO  H121 1084   5.729   8.087   2.397 -0.6870 -0.7597  2.1685
    3CHTO   C71 1085   5.618   8.094   2.199 -0.4405  0.0235  0.1394
    3CHTO   O47 1086   5.716   7.996   2.155 -0.4191  0.2517 -0.4888
    3CHTO  H104 1087   5.778   8.044   2.104 -1.0462  0.1560  0.3129
    3CHTO   O34 1088   5.459   8.366   2.563  0.1620 -0.1665  0.2478
    3CHTO   C49 1089   5.382   8.475   2.536  0.2769 -0.9541 -0.9480
    3CHTO   H91 1090   5.439   8.559   2.580  2.7451 -0.6510  1.2308
    3CHTO   C47 1091   5.263   8.462   2.625  0.0893  0.1597  0.2254
    3CHTO   H89 1092   5.217   8.564   2.622  1.3777  0.7294  1.2387
    3CHTO   O33 1093   5.306   8.444   2.757 -0.5239  0.7743 -0.3363
    3CHTO   H70 1094   5.231   8.456   2.807 -1.2478  1.2572 -2.1230
    3CHTO   C45 1095   5.148   8.350   2.566  0.3485 -0.8239  0.0109
    3CHTO   H87 1096   5.158   8.258   2.628 -0.0685  1.1656  0.5061
    3CHTO    N8 1097   5.013   8.411   2.575 -0.3169 -0.4802  0.5398
    3CHTO   H75 1098   4.951   8.333   2.625 -1.0731  0.7683  1.8392
    3CHTO   H76 1099   5.012   8.503   2.623  1.1414 -0.2043 -0.1384
    3CHTO   C43 1100   5.192   8.308   2.415 -0.6304 -0.1897  0.7712
    3CHTO   H85 1101   5.281   8.239   2.429  1.4123  0.5564 -2.2709
    3CHTO   O29 1102   5.225   8.419   2.335 -0.4151 -0.3432 -1.0272
    3CHTO   C50 1103   5.339   8.495   2.383 -0.5171  0.4945 -0.1083
    3CHTO   H92 1104   5.423   8.457   2.328  0.3837 -0.4074  1.3832
    3CHTO   C54 1105   5.318   8.642   2.356 -0.6937 -0.0404 -0.1822
    3CHTO   O36 1106   5.204   8.701   2.424 -0.1847  0.0477  0.1610
    3CHTO   H72 1107   5.167   8.780   2.390  1.3009 -1.2300 -0.0464
    3CHTO   O27 1108   5.095   8.223   2.358  0.3285 -0.3254  0.4625
    3CHTO   C37 1109   5.087   8.183   2.216  0.1759  0.2662 -0.0290
    3CHTO   H79 1110   5.156   8.245   2.154 -1.3235 -0.9662 -2.3542
    3CHTO   C38 1111   5.121   8.033   2.198 -0.3709  0.5574 -0.1069
    3CHTO   H80 1112   5.060   7.976   2.270  0.4567  0.5874 -2.8994
    3CHTO   O31 1113   5.255   8.025   2.234 -0.0804 -0.0594  0.8323
    3CHTO   H68 1114   5.294   7.941   2.206 -2.4947 -1.5800  0.0462
    3CHTO   C39 1115   5.097   7.984   2.053 -0.6001 -0.3026  1.6235
    3CHTO   H81 1116   5.171   8.034   1.989 -1.9941  1.1692 -1.1520
    3CHTO    N7 1117   5.115   7.837   2.032  0.0727  0.1822  0.1962
    3CHTO   H73 1118   5.173   7.781   2.114 -1.8021 -2.1889  0.8031
    3CHTO   H74 1119   5.167   7.825   1.935  1.7214 -1.6859 -1.4105
    3CHTO   C40 1120   4.951   8.021   2.007  0.4708  0.7031 -0.8363
    3CHTO   H82 1121   4.882   7.957   2.066 -1.0948 -4.0172  0.6071
    3CHTO   O26 1122   4.918   8.163   2.025 -0.3038  0.1724 -0.1658
    3CHTO   C41 1123   4.938   8.202   2.168  0.9990  0.0249 -1.1698
    3CHTO   H83 1124   4.884   8.133   2.234 -1.5624 -0.5668 -2.3063
    3CHTO   C52 1125   4.884   8.350   2.186 -0.4552  0.2553 -0.2067
    3CHTO   O35 1126   4.966   8.454   2.122 -0.1747  0.3933  0.4280
    3CHTO   H71 1127   5.019   8.497   2.185  0.0174 -2.6849  0.7922
    3CHTO   O28 1128   4.928   7.993   1.864  0.2287  0.3592  0.1384
    3CHTO   C42 1129   4.934   8.089   1.750 -0.5590  0.5181  0.7697
    3CHTO   H84 1130   4.960   8.021   1.661  0.1631 -1.3528 -0.5381
    3CHTO   C44 1131   5.044   8.211   1.755  0.1318  0.4382  0.2041
    3CHTO   H86 1132   5.024   8.272   1.836  2.0618 -1.8636 -2.1742
    3CHTO   O32 1133   5.173   8.156   1.770  0.0594  0.1486  0.3473
    3CHTO   H69 1134   5.194   8.105   1.693  1.8519 -0.0506 -1.0737
    3CHTO   C48 1135   5.027   8.288   1.620 -0.4698 -0.4951  0.3933
    3CHTO   H90 1136   5.048   8.213   1.542  0.2764 -2.2116  1.3342
    3CHTO    N9 1137   5.123   8.398   1.607  0.1374  0.0019  0.2739
    3CHTO   H77 1138   5.101   8.460   1.692  2.4453 -3.4497  0.6388
    3CHTO   H78 1139   5.229   8.374   1.608  1.4486  2.1739 -0.9946
    3CHTO   C51 1140   4.880   8.339   1.599 -0.2353 -0.1014  0.3435
    3CHTO   H93 1141   4.859   8.396   1.685  0.7100 -4.4512 -0.8341
    3CHTO   O30 1142   4.794   8.224   1.596 -0.2967  0.7696 -0.5057
    3CHTO   C46 1143   4.789   8.144   1.722  0.1586  0.2232 -0.0537
    3CHTO   H88 1144   4.755   8.209   1.807 -0.1765  1.6736 -0.1423
    3CHTO   C53 1145   4.673   8.033   1.703  0.6745  0.3948  0.0016
    3CHTO   O72 1146   4.551   8.107   1.681  0.6309  0.5832 -0.0768
    3CHTO  H199 1147   4.492   8.086   1.754  2.5882  0.5666  0.3925
    3CHTO   O22 1148   4.851   8.407   1.481  0.6305  0.2457  0.3190
    3CHTO   C31 1149   4.754   8.511   1.441 -0.0973  0.4858 -0.5152
    3CHTO   H59 1150   4.752   8.509   1.336  3.0323  1.3484 -4.1282
    3CHTO   C29 1151   4.615   8.478   1.500  0.0311 -0.2163 -0.3433
    3CHTO   H57 1152   4.633   8.481   1.612  0.3857 -0.1305  3.7607
    3CHTO   O21 1153   4.565   8.346   1.475 -0.2493 -0.0347 -0.3310
    3CHTO   H37 1154   4.498   8.343   1.408 -0.4716  1.9634  3.1712
    3CHTO   C27 1155   4.510   8.589   1.462  0.9580 -0.4467  0.0809
    3CHTO   H55 1156   4.487   8.583   1.353 -0.1357 -2.1469 -0.8670
    3CHTO    N5 1157   4.384   8.583   1.541 -0.5788 -0.2679 -0.1096
    3CHTO   H43 1158   4.314   8.518   1.489  1.1086 -0.6159  0.6444
    3CHTO   H44 1159   4.349   8.676   1.578  2.0951 -0.9299  2.4031
    3CHTO   C25 1160   4.579   8.738   1.477 -0.2043  0.0913  0.4408
    3CHTO   H53 1161   4.597   8.772   1.579  1.3294 -2.6988 -0.8200
    3CHTO   O17 1162   4.704   8.740   1.419 -0.5022  0.0989  0.4650
    3CHTO   C32 1163   4.801   8.653   1.477  0.5398 -0.3194 -0.1394
    3CHTO   H60 1164   4.802   8.664   1.590 -0.5062 -2.1190 -0.3273
    3CHTO   C36 1165   4.942   8.685   1.431  0.0384  0.1786 -0.4406
    3CHTO   O25 1166   4.970   8.821   1.472 -0.3598  0.3618 -0.0595
    3CHTO   H40 1167   4.894   8.870   1.468 -0.7486 -0.2941 -0.1939
    3CHTO   O15 1168   4.485   8.851   1.402  0.0831 -0.6949  0.0181
    3CHTO   C19 1169   4.455   8.934   1.285 -0.3098  0.5456  0.5370
    3CHTO   H47 1170   4.505   8.889   1.198  1.2074 -1.2734  1.1348
    3CHTO   C20 1171   4.302   8.943   1.252  0.0059 -0.2912 -0.2380
    3CHTO   H48 1172   4.246   8.998   1.333 -1.6732 -1.2122  0.4793
    3CHTO   O19 1173   4.251   8.811   1.222 -0.0795  0.5951  0.7732
    3CHTO   H35 1174   4.162   8.811   1.201  1.5211 -1.9535 -0.7771
    3CHTO   C21 1175   4.294   9.035   1.125 -0.5935  0.1045 -0.3048
    3CHTO   H49 1176   4.347   8.982   1.041 -0.2838  0.5133 -0.6313
    3CHTO    N4 1177   4.157   9.060   1.083 -0.5522 -0.3493 -0.2066
    3CHTO   H41 1178   4.142   9.002   0.994  0.1558 -2.2419  2.9518
    3CHTO   H42 1179   4.096   9.017   1.156 -0.3032  1.6479  2.2575
    3CHTO   C22 1180   4.370   9.176   1.145 -0.6385  0.0084 -0.0901
    3CHTO   H50 1181   4.311   9.236   1.214 -0.0213  0.0596  0.0580
    3CHTO   O14 1182   4.509   9.166   1.191  0.1768  0.0606 -0.4488
    3CHTO   C23 1183   4.521   9.077   1.305  0.6388  0.3925 -0.6896
    3CHTO   H51 1184   4.483   9.127   1.398 -0.6173  1.8613  2.1534
    3CHTO   C34 1185   4.673   9.060   1.331  0.0922 -0.0331  0.0304
    3CHTO   O23 1186   4.718   8.973   1.229 -0.2391  0.4702 -0.0151
    3CHTO   H38 1187   4.805   8.957   1.248 -0.7245 -0.2603  0.2759
    3CHTO   O16 1188   4.388   9.247   1.017  0.1804 -0.5827 -0.4792
    3CHTO   C24 1189   4.337   9.396   0.996 -0.2947 -0.4199  0.5904
    3CHTO   H52 1190   4.293   9.442   1.088  0.0444 -1.9487  0.5672
    3CHTO   C26 1191   4.224   9.405   0.889 -0.1461 -0.1033 -0.1855
    3CHTO   H54 1192   4.263   9.366   0.791  1.1519 -2.0063 -0.8122
    3CHTO   O20 1193   4.115   9.315   0.921 -0.5497 -0.0920  0.5313
    3CHTO   H36 1194   4.053   9.368   0.969  1.9941 -0.6325  0.9919
    3CHTO   C30 1195   4.182   9.553   0.875 -0.2759  0.8976 -0.1043
    3CHTO   H58 1196   4.154   9.588   0.973 -2.8164  0.8920  1.4006
    3CHTO    N6 1197   4.076   9.565   0.769 -0.2060 -0.2027  0.3768
    3CHTO   H45 1198   3.990   9.504   0.794 -4.6021  0.4598  1.0429
    3CHTO   H46 1199   4.109   9.548   0.667  0.8646  0.6106  0.7904
    3CHTO   C33 1200   4.312   9.642   0.847  0.3492 -0.0429  0.4246
    3CHTO   H61 1201   4.347   9.605   0.742  2.6042 -1.0711 -0.5586
    3CHTO   O18 1202   4.417   9.620   0.943 -0.8417 -0.0497  0.6761
    3CHTO   C28 1203   4.462   9.486   0.949  0.3435  0.4892 -0.3896
    3CHTO   H56 1204   4.492   9.447   0.851  2.7587  0.1277  0.5411
    3CHTO   C35 1205   4.574   9.477   1.049 -0.1970  0.0804  0.5482
    3CHTO   O24 1206   4.692   9.542   0.998 -0.0617  0.1510 -0.0940
    3CHTO   H39 1207   4.733   9.592   1.069 -1.4330 -0.6712 -3.1419
    3CHTO    O9 1208   4.287   9.786   0.831 -0.2913  0.1073 -0.4996
    3CHTO   C13 1209   4.393   9.859   0.738 -0.6870  0.3942  0.2167
    3CHTO   H26 1210   4.440   9.775   0.680 -0.1961  0.7217 -0.3383
    3CHTO   C11 1211   4.496   9.929   0.837 -0.7065  0.6739  0.8707
    3CHTO   H24 1212   4.541   9.842   0.890 -0.5920 -4.5599  0.6764
    3CHTO    O8 1213   4.436  10.011   0.933  0.6422  0.0693 -0.2955
    3CHTO    H3 1214   4.388  10.088   0.903  1.6241  0.2319  1.8313
    3CHTO    C9 1215   4.600  10.011   0.754  0.6593 -1.2955 -0.2681
    3CHTO   H22 1216   4.651   9.937   0.686  0.2161  1.1712  1.8139
    3CHTO    N2 1217   4.710  10.074   0.828 -0.0287 -0.6998 -0.0112
    3CHTO   H10 1218   4.799  10.018   0.804  0.7434 -0.7187 -3.6344
    3CHTO   H11 1219   4.708  10.076   0.936  1.9745  0.1037 -0.3310
    3CHTO    C7 1220   4.519  10.117   0.666  0.0022 -0.2970 -1.3373
    3CHTO   H20 1221   4.590  10.154   0.598  0.4591  0.6227  1.6783
    3CHTO    O4 1222   4.415  10.063   0.590  0.2141  0.4139 -0.2758
    3CHTO   C14 1223   4.322   9.957   0.633 -0.0042  0.8506  0.8327
    3CHTO   H27 1224   4.289   9.896   0.538 -2.8706 -0.0386 -1.7570
    3CHTO   C18 1225   4.203  10.028   0.684 -0.0987 -0.0619 -0.6371
    3CHTO   O13 1226   4.146  10.106   0.575 -0.2791  0.0811 -0.5735
    3CHTO    H7 1227   4.053  10.101   0.588 -0.4448  0.9202  0.0099
    3CHTO    O2 1228   4.462  10.248   0.758  0.5099 -0.1539  0.3968
    3CHTO    C1 1229   4.474  10.370   0.688 -0.2122  0.1891  0.6309
    3CHTO   H14 1230   4.449  10.343   0.583 -1.0410  0.2369 -1.9558
    3CHTO    C2 1231   4.618  10.432   0.690 -0.3209 -0.6655 -0.8452
    3CHTO   H15 1232   4.660  10.423   0.791  2.8638  0.4604  0.7006
    3CHTO    O6 1233   4.709  10.353   0.614  0.0638  0.4726 -0.2328
    3CHTO    H1 1234   4.734  10.275   0.664  0.4992 -2.6325 -0.6709
    3CHTO    C3 1235   4.623  10.585   0.630 -0.6721  0.7174 -0.2379
    3CHTO   H16 1236   4.617  10.576   0.522  0.7405  1.7529  1.4894
    3CHTO    N1 1237   4.754  10.650   0.647  0.1227 -0.3342  0.4692
    3CHTO    H8 1238   4.827  10.591   0.703 -1.2172 -2.2959 -0.7666
    3CHTO    H9 1239   4.755  10.754   0.673  1.9376  0.4950  0.4187
    3CHTO    C4 1240   4.506  10.674   0.671  0.1959 -0.1982 -0.2998
    3CHTO   H17 1241   4.508  10.700   0.778 -1.7872  2.5111  3.2282
    3CHTO    O1 1242   4.384  10.597   0.663  0.9663  0.1961  0.2915
    3CHTO    C5 1243   4.378  10.481   0.748  0.0057 -0.4416  0.2993
    3CHTO   H18 1244   4.421  10.500   0.846 -0.5271 -1.6473 -2.6763
    3CHTO   C16 1245   4.230  10.432   0.764  0.2330 -0.0637 -0.3872
    3CHTO   O11 1246   4.156  10.383   0.654 -0.3869  0.3096 -0.4715
    3CHTO    H5 1247   4.165  10.449   0.582  2.7427  1.9671 -3.8407
    3CHTO    O3 1248   4.483  10.788   0.578 -0.0284 -0.5700 -0.1210
    3CHTO    C6 1249   4.439  10.909   0.643 -0.0680  0.6132  0.0474
    3CHTO   H19 1250   4.407  10.907   0.750  0.3256 -1.4980  0.8050
    3CHTO    C8 1251   4.552  11.016   0.656 -0.4603 -0.0954  0.1525
    3CHTO   H21 1252   4.602  11.030   0.557 -0.4838  0.8237 -1.1257
    3CHTO    O7 1253   4.644  10.955   0.763  0.2831  0.2005  0.2699
    3CHTO    H2 1254   4.707  11.006   0.805  0.8817 -0.3810 -0.0356
    3CHTO   C12 1255   4.492  11.152   0.717 -0.3233 -0.3987  0.1584
    3CHTO   H25 1256   4.448  11.132   0.818  1.2137 -1.1381  1.7847
    3CHTO    N3 1257   4.599  11.249   0.735 -0.1671 -0.4751 -0.3518
    3CHTO   H12 1258   4.689  11.246   0.672  0.1300  0.8237 -0.8375
    3CHTO   H13 1259   4.569  11.348   0.744 -0.5556  0.9700 -0.1456
    3CHTO   C15 1260   4.381  11.200   0.619  0.1699 -0.1518 -0.0976
    3CHTO   H28 1261   4.422  11.211   0.516  1.7225 -3.2803 -2.9469
    3CHTO   O10 1262   4.309  11.332   0.653 -0.3152 -0.6256  0.2247
    3CHTO    H4 1263   4.272  11.326   0.739  2.2682 -3.0655 -1.6665
    3CHTO    O5 1264   4.273  11.100   0.609  0.2019 -0.3834  0.1360
    3CHTO   C10 1265   4.329  10.974   0.560  0.5240 -0.3314  0.2459
    3CHTO   H23 1266   4.368  10.999   0.462  0.7786 -1.3053 -1.3398
    3CHTO   C17 1267   4.211  10.879   0.529  0.0763 -0.2410 -0.8560
    3CHTO   O12 1268   4.143  10.931   0.417  0.4429 -0.4321 -0.8026
    3CHTO    H6 1269   4.098  11.006   0.447  1.2056 -1.1234 -0.4465
    4CHTO  H203 1270   1.890   0.721   3.260  1.5070  0.7839 -0.7496
    4CHTO   O82 1271   1.947   0.662   3.221 -0.0729 -0.1430  0.2181
    4CHTO  C123 1272   1.911   0.630   3.082 -0.1958 -0.1829 -0.4384
    4CHTO  H227 1273   1.963   0.700   3.025 -0.5832 -0.3915  3.4801
    4CHTO   O77 1274   1.967   0.502   3.057  0.1260  0.6993 -0.5535
    4CHTO  C118 1275   1.957   0.461   2.919 -0.0034 -1.1453  0.2268
    4CHTO  H222 1276   2.011   0.534   2.863  0.9606  2.2905  3.5063
    4CHTO  C125 1277   2.029   0.327   2.900 -0.2165 -0.4424 -0.1442
    4CHTO   O84 1278   2.166   0.346   2.920  0.0738  0.3117  0.7222
    4CHTO  H205 1279   2.210   0.268   2.926  1.0374 -0.0846 -2.8261
    4CHTO  C114 1280   1.814   0.457   2.868 -0.3913  0.3565 -0.1730
    4CHTO  H218 1281   1.762   0.376   2.924  2.0414  0.4759  2.4208
    4CHTO  C116 1282   1.741   0.585   2.902 -0.1313 -0.8100  0.2698
    4CHTO  H220 1283   1.785   0.673   2.841 -0.4043  1.5379 -0.5441
    4CHTO   O79 1284   1.608   0.585   2.850 -0.5447  0.2630  0.7186
    4CHTO  H201 1285   1.587   0.651   2.785 -0.5675 -0.7487 -0.0094
    4CHTO  C120 1286   1.757   0.626   3.055  0.1651 -0.5600 -0.0086
    4CHTO  H224 1287   1.704   0.546   3.110  1.5443  0.9153 -2.5731
    4CHTO   N21 1288   1.695   0.759   3.085 -0.0723  0.5250 -0.1248
    4CHTO  H211 1289   1.666   0.761   3.189  0.8795  0.2374  0.7195
    4CHTO  H212 1290   1.764   0.840   3.071  3.3353  0.4124 -1.8951
    4CHTO   O75 1291   1.822   0.421   2.732  0.2039  0.4106  0.4753
    4CHTO  C112 1292   1.710   0.309   2.701 -0.1324  0.6523  0.0807
    4CHTO  H216 1293   1.615   0.334   2.747 -0.3492 -1.0027 -0.6450
    4CHTO   O73 1294   1.764   0.183   2.753 -0.1419 -0.0533  0.6660
    4CHTO  C113 1295   1.683   0.072   2.728  0.6471  0.2485 -0.3952
    4CHTO  H217 1296   1.579   0.082   2.755 -3.5125 -1.3195 -0.2443
    4CHTO  C124 1297   1.750  -0.036   2.816  0.0834  0.6949 -0.0424
    4CHTO   O83 1298   1.880  -0.086   2.781  0.0729 -0.0968  0.5791
    4CHTO  H204 1299   1.928  -0.017   2.739 -0.0266  0.8163  0.0812
    4CHTO  C109 1300   1.675   0.037   2.579  0.1683  0.5182  0.1197
    4CHTO  H213 1301   1.773   0.005   2.550 -2.7428  2.3454  1.3673
    4CHTO  C110 1302   1.628   0.164   2.498  0.2698  0.1972 -0.4707
    4CHTO  H214 1303   1.524   0.172   2.529 -0.3879  0.3758  1.1303
    4CHTO   O78 1304   1.633   0.130   2.358  0.2267  0.2449  0.2506
    4CHTO  H200 1305   1.719   0.110   2.328  0.9692 -0.3947  0.7430
    4CHTO  C111 1306   1.703   0.290   2.544  0.0444 -1.1803 -0.5677
    4CHTO  H215 1307   1.813   0.286   2.503  1.9261  0.3405  0.2753
    4CHTO   N19 1308   1.641   0.407   2.476 -0.0086 -0.0627 -0.0259
    4CHTO  H207 1309   1.541   0.427   2.514 -1.9275  0.9228  2.1469
    4CHTO  H208 1310   1.638   0.413   2.367  0.7822 -0.8236  4.2893
    4CHTO   O74 1311   1.577  -0.071   2.559 -0.5547 -0.3791 -0.0698
    4CHTO  C115 1312   1.630  -0.183   2.485 -0.0174  0.1772 -0.4712
    4CHTO  H219 1313   1.731  -0.162   2.443  1.6032  2.2290  0.3918
    4CHTO   O76 1314   1.653  -0.313   2.580  0.2452  0.1090  0.3756
    4CHTO  C122 1315   1.535  -0.388   2.626  1.0341  0.0154  0.3641
    4CHTO  H226 1316   1.502  -0.337   2.714  1.0731 -1.6178  0.5336
    4CHTO  C126 1317   1.594  -0.528   2.675 -0.0391 -0.5026 -0.2208
    4CHTO   O85 1318   1.657  -0.606   2.573 -0.1780 -0.7695 -0.5609
    4CHTO  H206 1319   1.609  -0.687   2.576 -0.0896 -2.8431  1.9012
    4CHTO  C121 1320   1.423  -0.419   2.513  1.2401 -0.1391  0.0023
    4CHTO  H225 1321   1.393  -0.524   2.505  0.7374  0.0584 -0.2337
    4CHTO   O81 1322   1.300  -0.364   2.548  0.1496  0.0312  0.7490
    4CHTO  H202 1323   1.228  -0.382   2.486 -1.4924 -1.3672 -1.5731
    4CHTO  C119 1324   1.482  -0.373   2.373 -0.3082  0.1434 -0.5487
    4CHTO  H223 1325   1.571  -0.428   2.344  0.6355 -0.5998 -0.0321
    4CHTO  C117 1326   1.530  -0.225   2.375 -0.3066 -0.6112  0.2530
    4CHTO  H221 1327   1.450  -0.153   2.386 -0.4287  2.2056  1.5506
    4CHTO   N20 1328   1.593  -0.201   2.235  0.5068  0.5413  0.3821
    4CHTO  H209 1329   1.513  -0.224   2.160 -1.2380 -1.6135 -1.0545
    4CHTO  H210 1330   1.622  -0.098   2.226 -0.1421 -1.4141 -0.3934
    4CHTO   O80 1331   1.382  -0.411   2.242  0.3694  0.3289 -0.4820
    4CHTO  C103 1332   1.390  -0.554   2.178  0.0891  0.5144 -0.6893
    4CHTO  H190 1333   1.388  -0.546   2.064 -0.6416  0.2082  2.2922
    4CHTO  C101 1334   1.521  -0.645   2.211  0.3667 -0.3432  0.7835
    4CHTO  H188 1335   1.518  -0.664   2.319 -2.4465  2.2581 -0.1092
    4CHTO   O68 1336   1.661  -0.574   2.171  0.3863  0.5227  0.6363
    4CHTO  H168 1337   1.728  -0.643   2.176 -0.2749 -1.6361 -1.9095
    4CHTO   C99 1338   1.510  -0.792   2.141 -0.0699 -0.1369  0.1964
    4CHTO  H186 1339   1.495  -0.785   2.036  2.1615 -1.3246 -0.7023
    4CHTO   N17 1340   1.630  -0.884   2.176  0.5538  0.6266 -0.5576
    4CHTO  H174 1341   1.654  -0.875   2.282  1.7124  1.0962  0.0834
    4CHTO  H175 1342   1.616  -0.992   2.156 -1.2528 -0.4208  0.5975
    4CHTO   C97 1343   1.386  -0.852   2.203  0.2711  0.8986 -0.0588
    4CHTO  H184 1344   1.404  -0.858   2.319  2.6283  1.2398 -1.6289
    4CHTO   O64 1345   1.270  -0.769   2.167 -0.2084  0.2680  0.0592
    4CHTO  C104 1346   1.262  -0.634   2.227  0.7346  0.4713 -0.9431
    4CHTO  H191 1347   1.270  -0.651   2.336  0.3143  0.7811  0.7157
    4CHTO  C108 1348   1.126  -0.564   2.206 -0.1972  0.0808  0.0719
    4CHTO   O71 1349   1.019  -0.634   2.259  0.6475  0.0441  0.2366
    4CHTO  H171 1350   1.019  -0.725   2.244 -0.8881  0.8939  0.6227
    4CHTO   O62 1351   1.351  -0.978   2.151 -0.2630 -0.5787  0.1104
    4CHTO   C91 1352   1.311  -1.071   2.249  0.7496  0.0788  0.4431
    4CHTO  H178 1353   1.389  -1.073   2.328  1.0027 -0.9447  0.4775
    4CHTO   C92 1354   1.316  -1.216   2.187  0.3400 -0.1667  0.0576
    4CHTO  H179 1355   1.422  -1.237   2.152 -0.8275 -0.6663  2.7160
    4CHTO   O66 1356   1.297  -1.312   2.288  0.1313  0.3899  0.0094
    4CHTO  H166 1357   1.327  -1.401   2.261  0.8332 -0.8825 -0.9990
    4CHTO   C93 1358   1.202  -1.240   2.080 -0.0366 -0.6813 -0.7009
    4CHTO  H180 1359   1.184  -1.345   2.080 -1.7905  3.2579 -2.3406
    4CHTO   N16 1360   1.251  -1.217   1.943 -0.0433 -0.0343  0.3191
    4CHTO  H172 1361   1.195  -1.290   1.880 -1.7235  2.5984  0.9978
    4CHTO  H173 1362   1.361  -1.222   1.940  0.1810 -0.1970 -2.1948
    4CHTO   C94 1363   1.070  -1.162   2.113 -0.5374 -0.1370  0.2915
    4CHTO  H181 1364   1.063  -1.062   2.063 -0.6101  0.7855  0.2193
    4CHTO   O61 1365   1.062  -1.137   2.254 -0.0184  0.2585 -0.3534
    4CHTO   C95 1366   1.158  -1.050   2.307 -0.8753  0.6095 -0.9224
    4CHTO  H182 1367   1.135  -0.947   2.282  0.2917 -0.9750 -2.7337
    4CHTO  C106 1368   1.150  -1.055   2.463 -0.4664 -0.7286 -0.3183
    4CHTO   O69 1369   1.226  -0.947   2.523  0.0644  0.4824 -0.4136
    4CHTO  H169 1370   1.164  -0.887   2.561  0.4213 -2.7188  0.5520
    4CHTO   O63 1371   0.938  -1.255   2.058 -0.8690 -0.1334 -0.4034
    4CHTO   C96 1372   0.811  -1.211   2.097 -0.0019 -1.2863 -0.0714
    4CHTO  H183 1373   0.819  -1.205   2.210 -0.3198 -1.7400 -0.9852
    4CHTO   C98 1374   0.703  -1.317   2.055  0.3947 -0.9658 -0.3208
    4CHTO  H185 1375   0.725  -1.425   2.081  3.6663 -0.1891 -4.0270
    4CHTO   O67 1376   0.584  -1.288   2.131  0.5205  0.0754  0.3260
    4CHTO  H167 1377   0.574  -1.350   2.202 -0.2731  0.1035 -0.0808
    4CHTO  C102 1378   0.653  -1.308   1.903 -0.1867  0.3098 -0.1442
    4CHTO  H189 1379   0.553  -1.356   1.896 -4.2514 -2.5629 -1.4595
    4CHTO   N18 1380   0.750  -1.374   1.807 -0.1416  0.2833  0.3046
    4CHTO  H176 1381   0.849  -1.346   1.819 -0.7981 -0.9817 -0.6929
    4CHTO  H177 1382   0.733  -1.482   1.826  1.1014 -0.8638  1.4990
    4CHTO  C105 1383   0.642  -1.151   1.871  0.2778  1.0211 -0.2292
    4CHTO  H192 1384   0.717  -1.131   1.796 -3.5728  0.6009 -1.7304
    4CHTO   O65 1385   0.647  -1.058   1.979  0.0269  0.6384  0.1342
    4CHTO  C100 1386   0.773  -1.062   2.050 -0.3313 -0.3821  0.6109
    4CHTO  H187 1387   0.845  -1.038   1.974 -1.6467  1.9324  0.2405
    4CHTO  C107 1388   0.781  -0.966   2.167 -0.0901 -0.5700  0.1739
    4CHTO   O70 1389   0.792  -0.824   2.127 -0.2258  0.6940  0.9972
    4CHTO  H170 1390   0.735  -0.821   2.055 -0.3612 -2.0968  0.6593
    4CHTO   O57 1391   0.503  -1.150   1.803  0.9263 -0.1613  0.1969
    4CHTO   C85 1392   0.466  -1.043   1.713 -0.6898  0.2681  0.4778
    4CHTO  H157 1393   0.556  -1.020   1.654  3.2924 -2.3885 -1.0791
    4CHTO   C83 1394   0.445  -0.904   1.794  0.5462  0.2703 -0.3193
    4CHTO  H155 1395   0.539  -0.886   1.836 -1.7828  0.1036  0.0250
    4CHTO   O56 1396   0.347  -0.938   1.896  0.0276  0.6739 -0.2825
    4CHTO  H135 1397   0.332  -0.860   1.940 -0.0950  0.7754  1.5739
    4CHTO   C81 1398   0.413  -0.791   1.692  0.3996  0.5070 -0.5295
    4CHTO  H153 1399   0.500  -0.771   1.632 -0.6630 -1.3989  0.2026
    4CHTO   N14 1400   0.387  -0.662   1.764 -0.3022  0.4684  0.3147
    4CHTO  H141 1401   0.470  -0.617   1.813 -1.5085  0.1668  0.7300
    4CHTO  H142 1402   0.340  -0.587   1.711  0.0584 -0.5191  0.0422
    4CHTO   C79 1403   0.286  -0.833   1.604  0.3359  0.0514 -1.6314
    4CHTO  H151 1404   0.268  -0.753   1.536 -2.3092  1.1676 -1.2762
    4CHTO   O52 1405   0.301  -0.951   1.538  0.1835  0.2114 -0.1098
    4CHTO   C86 1406   0.339  -1.064   1.622  0.3998  0.5181 -0.2536
    4CHTO  H158 1407   0.249  -1.072   1.690  0.6616  0.8942  2.8448
    4CHTO   C90 1408   0.354  -1.201   1.541 -0.2403 -0.3258 -0.4454
    4CHTO   O60 1409   0.383  -1.318   1.624 -0.3033 -0.7858  0.4410
    4CHTO  H138 1410   0.472  -1.306   1.652  2.4417  0.5456 -0.1570
    4CHTO   O50 1411   0.163  -0.832   1.678 -0.1636  0.6176 -0.0320
    4CHTO   C73 1412   0.039  -0.762   1.662  0.5963  1.1734 -0.0963
    4CHTO  H145 1413   0.039  -0.684   1.583  0.7386  2.0272 -0.1097
    4CHTO   C74 1414   0.005  -0.694   1.797 -0.0524 -0.4801  0.4448
    4CHTO  H146 1415   0.087  -0.625   1.813  1.5272  1.8588 -0.2431
    4CHTO   O54 1416  -0.118  -0.614   1.780 -0.4545 -0.5369 -0.8331
    4CHTO  H133 1417  -0.125  -0.550   1.849  2.0820 -0.9764 -0.9869
    4CHTO   C75 1418  -0.004  -0.809   1.906  0.5704 -0.2279  0.9648
    4CHTO  H147 1419   0.090  -0.857   1.917 -1.4588 -1.3092  0.1196
    4CHTO   N13 1420  -0.027  -0.766   2.047 -0.1701 -0.3904  0.6665
    4CHTO  H139 1421  -0.039  -0.850   2.113  0.8209 -0.0957 -2.9162
    4CHTO  H140 1422  -0.094  -0.682   2.058 -0.2990  0.6091  0.9459
    4CHTO   C76 1423  -0.106  -0.930   1.866  0.3731  0.2731  0.8022
    4CHTO  H148 1424  -0.211  -0.898   1.875 -1.4082 -1.2783  0.7838
    4CHTO   O49 1425  -0.073  -0.972   1.733 -0.5218  0.0303  0.5944
    4CHTO   C77 1426  -0.063  -0.872   1.630 -0.4642 -0.0634  0.4447
    4CHTO  H149 1427  -0.161  -0.829   1.630 -2.0502 -0.9800 -1.3485
    4CHTO   C88 1428  -0.055  -0.954   1.502 -0.1509 -0.8188  0.0417
    4CHTO   O58 1429   0.054  -1.068   1.502  0.3974  0.3474  0.4620
    4CHTO  H136 1430   0.108  -1.049   1.574 -1.8359  1.6763  0.2517
    4CHTO   O51 1431  -0.082  -1.065   1.965 -0.1915 -0.1836 -0.6151
    4CHTO   C78 1432  -0.189  -1.163   1.927 -0.2068 -0.1388 -0.2352
    4CHTO  H150 1433  -0.229  -1.138   1.833  0.1823  0.0835 -0.5204
    4CHTO   C80 1434  -0.302  -1.169   2.025 -0.4576  0.0309 -0.7154
    4CHTO  H152 1435  -0.269  -1.207   2.116 -0.9866  0.0899  1.3458
    4CHTO   O55 1436  -0.354  -1.035   2.041  0.1321  0.2644  0.0962
    4CHTO  H134 1437  -0.438  -1.029   1.992  1.4613  1.4538  0.7301
    4CHTO   C84 1438  -0.416  -1.261   1.973 -0.3200  0.5972  0.7867
    4CHTO  H156 1439  -0.452  -1.234   1.872 -0.0961 -0.3326  1.4600
    4CHTO   N15 1440  -0.540  -1.260   2.067 -1.1768 -0.1172 -0.4236
    4CHTO  H143 1441  -0.520  -1.316   2.160  0.4840  2.3736  0.9905
    4CHTO  H144 1442  -0.558  -1.163   2.096  1.3172 -2.5384 -0.3386
    4CHTO   C87 1443  -0.355  -1.400   1.952  0.2045  0.0571 -0.4647
    4CHTO  H159 1444  -0.330  -1.437   2.053  0.0022  0.5352 -0.3784
    4CHTO   O53 1445  -0.235  -1.393   1.865 -0.1726 -0.4024  0.4024
    4CHTO   C82 1446  -0.133  -1.306   1.913  0.8757 -0.0470 -0.7167
    4CHTO  H154 1447  -0.098  -1.334   2.014 -0.1154  0.4174  1.3927
    4CHTO   C89 1448  -0.016  -1.321   1.818  0.5734  0.2819  0.1485
    4CHTO   O59 1449  -0.046  -1.300   1.680  0.0062  0.5423 -0.0977
    4CHTO  H137 1450   0.039  -1.305   1.638  0.0797  1.2993  1.3730
    4CHTO   O45 1451  -0.452  -1.492   1.876 -0.1697  0.0152  0.1535
    4CHTO   C67 1452  -0.432  -1.632   1.896  0.8521 -0.3995  0.9589
    4CHTO  H124 1453  -0.332  -1.657   1.947  2.1472 -2.0659  0.2631
    4CHTO   C65 1454  -0.550  -1.692   1.971  0.0704  0.0271  0.5906
    4CHTO  H122 1455  -0.638  -1.633   1.933 -0.6068 -0.1426 -1.5450
    4CHTO   O44 1456  -0.517  -1.654   2.101 -0.3132 -0.0565  0.0546
    4CHTO  H102 1457  -0.583  -1.648   2.160  4.7600 -0.1400 -1.4723
    4CHTO   C63 1458  -0.587  -1.848   1.933 -0.6571  0.7816 -0.1967
    4CHTO  H120 1459  -0.657  -1.845   1.852 -0.1905  0.8533  2.7145
    4CHTO   N11 1460  -0.673  -1.924   2.028 -0.2158  0.2545  0.6614
    4CHTO  H108 1461  -0.767  -1.965   1.982  0.6305 -0.2401 -0.5400
    4CHTO  H109 1462  -0.685  -1.873   2.122 -0.3398 -0.3863  2.9663
    4CHTO   C61 1463  -0.461  -1.933   1.890  0.9775 -0.3849  0.3997
    4CHTO  H118 1464  -0.496  -2.032   1.847 -0.1369 -0.6544 -1.2827
    4CHTO   O40 1465  -0.390  -1.860   1.775 -0.0858  0.0087  0.2659
    4CHTO   C68 1466  -0.417  -1.714   1.758  0.9711  0.1595 -0.3944
    4CHTO  H125 1467  -0.510  -1.721   1.700 -2.4108 -2.0872 -1.9763
    4CHTO   C72 1468  -0.302  -1.665   1.664 -0.4157 -0.2876  0.1516
    4CHTO   O48 1469  -0.286  -1.735   1.538 -0.2555  0.2038 -0.0412
    4CHTO  H105 1470  -0.201  -1.705   1.499  1.1626  1.0847  0.4621
    4CHTO   O38 1471  -0.371  -1.942   2.005  0.6877  0.1937 -0.3502
    4CHTO   C55 1472  -0.267  -2.038   1.977  0.3033  0.7655  0.2760
    4CHTO  H112 1473  -0.277  -2.069   1.868 -2.3796  1.2836  1.9095
    4CHTO   C56 1474  -0.288  -2.161   2.071  0.0629  0.1750 -0.0228
    4CHTO  H113 1475  -0.269  -2.112   2.170 -1.1630 -1.4965 -0.2783
    4CHTO   O42 1476  -0.426  -2.208   2.061  0.3857 -0.2383 -0.4859
    4CHTO  H100 1477  -0.445  -2.256   2.140 -0.0847 -2.1568  1.1574
    4CHTO   C57 1478  -0.175  -2.267   2.048  0.2066  0.3715  0.1409
    4CHTO  H114 1479  -0.186  -2.311   1.949  2.3853  0.8220 -2.5635
    4CHTO   N10 1480  -0.188  -2.379   2.150  0.2402  0.2106  0.1548
    4CHTO  H106 1481  -0.126  -2.465   2.137  0.8776  2.5870  0.4941
    4CHTO  H107 1482  -0.287  -2.411   2.176 -1.2763 -2.9348  0.8858
    4CHTO   C58 1483  -0.036  -2.202   2.054  0.6033 -0.3242 -0.6834
    4CHTO  H115 1484  -0.011  -2.170   2.161  1.8711 -0.6243 -0.1817
    4CHTO   O37 1485  -0.029  -2.081   1.979 -0.1257 -0.0089  0.3612
    4CHTO   C59 1486  -0.125  -1.981   2.003  0.3643 -0.0394 -0.3720
    4CHTO  H116 1487  -0.108  -1.962   2.111 -0.8466  0.6143 -0.2293
    4CHTO   C70 1488  -0.101  -1.861   1.911  0.7318  0.3830  0.0052
    4CHTO   O46 1489  -0.104  -1.889   1.773  0.5164 -0.2715 -0.0356
    4CHTO  H103 1490  -0.179  -1.936   1.750 -0.0130  0.7261  2.2013
    4CHTO   O39 1491   0.085  -2.309   1.994 -0.0428  0.3141  0.3410
    4CHTO   C60 1492   0.213  -2.288   2.058  0.2633  0.2555  0.7635
    4CHTO  H117 1493   0.231  -2.184   2.094  3.4644 -0.7978  1.3961
    4CHTO   C62 1494   0.214  -2.360   2.196 -0.5648 -0.0681  0.1984
    4CHTO  H119 1495   0.135  -2.302   2.263 -0.1433  2.0950  1.5727
    4CHTO   O43 1496   0.168  -2.494   2.161  0.3386 -0.0836  0.1234
    4CHTO  H101 1497   0.113  -2.541   2.222  0.5722 -2.7311 -0.2182
    4CHTO   C66 1498   0.356  -2.355   2.275 -0.1430 -0.4919  0.8312
    4CHTO  H123 1499   0.385  -2.249   2.295  4.1180  0.8561 -2.2398
    4CHTO   N12 1500   0.377  -2.426   2.397  0.8827  0.3570 -0.5408
    4CHTO  H110 1501   0.361  -2.531   2.381  0.5627  0.3652 -2.7045
    4CHTO  H111 1502   0.317  -2.388   2.476 -0.1791 -2.2758  1.0549
    4CHTO   C69 1503   0.467  -2.391   2.168 -0.3187 -0.1632 -0.2119
    4CHTO  H126 1504   0.440  -2.489   2.139  2.0274  1.6783  1.0440
    4CHTO   O41 1505   0.456  -2.297   2.044  0.0619 -0.3348 -0.7345
    4CHTO   C64 1506   0.335  -2.325   1.965  0.3254 -0.2755 -0.2502
    4CHTO  H121 1507   0.323  -2.429   1.932  1.5854 -1.4872  2.1322
    4CHTO   C71 1508   0.334  -2.247   1.835 -0.2883 -0.1256 -0.3611
    4CHTO   O47 1509   0.247  -2.305   1.732 -0.1215 -1.1023 -0.2681
    4CHTO  H104 1510   0.265  -2.397   1.737  2.6980  0.6499 -1.9007
    4CHTO   O34 1511   0.620  -2.391   2.212 -0.0195 -0.4883  0.6669
    4CHTO   C49 1512   0.748  -2.471   2.166  0.0986 -0.1252  0.7808
    4CHTO   H91 1513   0.815  -2.396   2.132 -1.9027 -1.7425 -0.5392
    4CHTO   C47 1514   0.738  -2.565   2.040 -0.5924  0.4490 -0.0505
    4CHTO   H89 1515   0.844  -2.595   2.015  0.7720 -0.3756 -0.2226
    4CHTO   O33 1516   0.679  -2.493   1.934 -0.2358 -0.2032 -0.2761
    4CHTO   H70 1517   0.737  -2.421   1.901  1.4447  2.0630  2.0961
    4CHTO   C45 1518   0.642  -2.693   2.074 -0.2417  0.4345  0.0339
    4CHTO   H87 1519   0.534  -2.667   2.058 -2.9509 -0.2566 -1.3694
    4CHTO    N8 1520   0.681  -2.806   1.984 -0.3297  0.9931 -0.6840
    4CHTO   H75 1521   0.594  -2.868   1.966  3.4627 -0.6401 -0.5080
    4CHTO   H76 1522   0.759  -2.849   2.042  4.0132  0.4871  1.3456
    4CHTO   C43 1523   0.644  -2.718   2.232  0.3061  0.1016  0.2469
    4CHTO   H85 1524   0.571  -2.654   2.272  0.7627 -0.7002  2.6531
    4CHTO   O29 1525   0.774  -2.695   2.292 -0.1229  0.3149 -0.0641
    4CHTO   C50 1526   0.808  -2.552   2.287 -0.4083  0.3150 -0.1570
    4CHTO   H92 1527   0.767  -2.511   2.381  1.4438 -2.6049  0.0383
    4CHTO   C54 1528   0.962  -2.537   2.295 -0.0447 -0.0568  0.1477
    4CHTO   O36 1529   1.039  -2.613   2.203  0.1887  0.0244 -0.9382
    4CHTO   H72 1530   1.117  -2.560   2.199 -1.4226 -1.7168  2.3309
    4CHTO   O27 1531   0.610  -2.851   2.256  0.0534  0.3196 -0.0595
    4CHTO   C37 1532   0.495  -2.928   2.288 -0.0933 -0.8470  0.3820
    4CHTO   H79 1533   0.454  -2.892   2.385  3.3206 -1.8439 -1.8438
    4CHTO   C38 1534   0.379  -2.915   2.184 -0.3912 -0.3090  0.4737
    4CHTO   H80 1535   0.424  -2.924   2.088  0.0164 -1.5856  1.2395
    4CHTO   O31 1536   0.317  -2.791   2.204  0.3158 -0.0922  0.0997
    4CHTO   H68 1537   0.252  -2.771   2.140  1.1777  0.1108 -0.9664
    4CHTO   C39 1538   0.275  -3.035   2.194  0.0145 -0.1597 -0.2612
    4CHTO   H81 1539   0.228  -3.030   2.289  1.9922 -0.0731 -2.2972
    4CHTO    N7 1540   0.170  -3.038   2.082 -0.8648  0.3735  0.7290
    4CHTO   H73 1541   0.114  -2.947   2.072 -0.7522 -1.3442  1.8872
    4CHTO   H74 1542   0.113  -3.129   2.100  0.9599 -0.9156 -1.3089
    4CHTO   C40 1543   0.354  -3.169   2.198  0.2585 -0.0318 -0.6107
    4CHTO   H82 1544   0.405  -3.190   2.107  2.7604 -0.3349  2.6162
    4CHTO   O26 1545   0.444  -3.169   2.311 -0.0307  0.1494 -0.4910
    4CHTO   C41 1546   0.550  -3.075   2.298  0.6149  0.0043  0.3152
    4CHTO   H83 1547   0.598  -3.100   2.198 -0.8659 -0.1305 -3.4727
    4CHTO   C52 1548   0.653  -3.090   2.411  0.5399 -0.4304 -0.0942
    4CHTO   O35 1549   0.714  -3.244   2.409 -0.4436 -0.1758  0.9990
    4CHTO   H71 1550   0.650  -3.318   2.396 -2.7523 -1.9050  1.8291
    4CHTO   O28 1551   0.263  -3.281   2.221 -0.7454 -0.4570  0.5448
    4CHTO   C42 1552   0.323  -3.421   2.186  0.5337 -0.0063 -0.4739
    4CHTO   H84 1553   0.242  -3.487   2.215 -0.4520 -0.1989  1.1624
    4CHTO   C44 1554   0.450  -3.472   2.262  0.1547  0.3875  0.6112
    4CHTO   H86 1555   0.524  -3.393   2.262 -0.4382  0.1932 -0.6340
    4CHTO   O32 1556   0.413  -3.500   2.394 -0.2925 -0.1691  0.3015
    4CHTO   H69 1557   0.375  -3.582   2.392 -3.7591  0.1507 -0.1168
    4CHTO   C48 1558   0.518  -3.597   2.190 -0.2608 -0.1473  0.1045
    4CHTO   H90 1559   0.462  -3.686   2.216 -2.1423  1.3483 -0.7052
    4CHTO    N9 1560   0.653  -3.623   2.244 -0.2249 -0.6221 -0.1181
    4CHTO   H77 1561   0.714  -3.537   2.221  1.1301 -1.1433  1.9328
    4CHTO   H78 1562   0.639  -3.626   2.350  0.3524  2.9601 -1.9955
    4CHTO   C51 1563   0.528  -3.577   2.035  0.0234  0.1917  0.0910
    4CHTO   H93 1564   0.580  -3.479   2.024 -0.1462 -1.1132  0.0968
    4CHTO   O30 1565   0.395  -3.570   1.990 -0.0068  0.0526  0.2067
    4CHTO   C46 1566   0.333  -3.432   2.031 -0.4391 -0.5689 -0.7374
    4CHTO   H88 1567   0.396  -3.352   1.985  0.0906  1.9248  0.3043
    4CHTO   C53 1568   0.195  -3.423   1.961 -0.3531 -0.7339 -0.0299
    4CHTO   O72 1569   0.105  -3.525   2.002 -0.6032 -0.3590 -0.5331
    4CHTO  H199 1570   0.082  -3.522   2.091 -0.2214 -1.1730  0.7830
    4CHTO   O22 1571   0.592  -3.679   1.961  0.2240  0.1729  0.0499
    4CHTO   C31 1572   0.641  -3.656   1.826 -1.0519 -0.2502  0.2100
    4CHTO   H59 1573   0.640  -3.755   1.778 -1.4985  0.7861 -1.8155
    4CHTO   C29 1574   0.559  -3.567   1.733  0.0397 -0.5747 -1.4818
    4CHTO   H57 1575   0.540  -3.467   1.778 -0.4601  0.4033  0.6414
    4CHTO   O21 1576   0.424  -3.626   1.730 -0.5704  0.1711 -0.1061
    4CHTO   H37 1577   0.387  -3.620   1.818  0.2114  0.3508 -0.4745
    4CHTO   C27 1578   0.614  -3.562   1.591  0.0068 -0.2005  0.3967
    4CHTO   H55 1579   0.629  -3.667   1.557  4.0880 -0.3169  0.1109
    4CHTO    N5 1580   0.531  -3.489   1.491  0.1101 -0.2575 -0.6232
    4CHTO   H43 1581   0.511  -3.389   1.519  1.7379 -0.7375 -1.7142
    4CHTO   H44 1582   0.591  -3.485   1.398  2.3059 -1.4754  0.7387
    4CHTO   C25 1583   0.766  -3.517   1.598  1.1487 -0.3241 -0.0535
    4CHTO   H53 1584   0.776  -3.413   1.643 -3.4922 -0.2561 -2.9507
    4CHTO   O17 1585   0.836  -3.606   1.689  0.6020  0.5039 -0.4601
    4CHTO   C32 1586   0.786  -3.603   1.822  0.4369 -0.4879 -0.6501
    4CHTO   H60 1587   0.789  -3.507   1.874  2.0614 -0.5720 -0.0912
    4CHTO   C36 1588   0.886  -3.691   1.906 -0.6065  0.7449 -0.1877
    4CHTO   O25 1589   1.020  -3.645   1.901  0.0258  0.3796 -0.0747
    4CHTO   H40 1590   1.031  -3.572   1.953  0.7686 -2.0655 -1.1373
    4CHTO   O15 1591   0.830  -3.529   1.452  0.4274  0.0374 -1.1477
    4CHTO   C19 1592   0.968  -3.536   1.424  0.0543  0.5483  0.4422
    4CHTO   H47 1593   0.984  -3.520   1.318 -0.7847 -2.6678  0.4470
    4CHTO   C20 1594   1.046  -3.419   1.498 -0.1154 -0.3744  0.2761
    4CHTO   H48 1595   1.013  -3.408   1.608 -1.3037 -2.3090  1.6439
    4CHTO   O19 1596   1.005  -3.305   1.426  0.4851  0.0931 -0.1701
    4CHTO   H35 1597   0.977  -3.228   1.484  2.1281  2.4800  2.1234
    4CHTO   C21 1598   1.206  -3.440   1.497 -0.2464 -0.1099  1.2212
    4CHTO   H49 1599   1.238  -3.449   1.392 -0.2403  0.2328  0.9739
    4CHTO    N4 1600   1.292  -3.337   1.553 -0.1956 -0.2670  0.2159
    4CHTO   H41 1601   1.283  -3.256   1.487  1.4184 -1.2442  1.1729
    4CHTO   H42 1602   1.270  -3.303   1.654 -0.3632  0.7320 -1.1977
    4CHTO   C22 1603   1.240  -3.587   1.546 -0.0010  0.2344 -0.0342
    4CHTO   H50 1604   1.194  -3.595   1.644  0.2043  1.4067 -0.3967
    4CHTO   O14 1605   1.174  -3.679   1.459 -0.0740 -0.1570 -0.2339
    4CHTO   C23 1606   1.027  -3.680   1.450  0.0402 -0.1892 -1.0443
    4CHTO   H51 1607   0.990  -3.719   1.544  0.0411 -1.6016  1.5937
    4CHTO   C34 1608   0.988  -3.773   1.338  0.6017 -0.4691  0.3052
    4CHTO   O23 1609   1.032  -3.910   1.354  0.1577  0.1943 -0.2442
    4CHTO   H38 1610   0.975  -3.967   1.301 -4.7867 -1.3276  2.1415
    4CHTO   O16 1611   1.382  -3.619   1.552 -0.5218  0.0921 -0.0967
    4CHTO   C24 1612   1.405  -3.766   1.631  0.4789 -0.1199  0.5291
    4CHTO   H52 1613   1.316  -3.827   1.642  0.9766  0.1463  0.8123
    4CHTO   C26 1614   1.449  -3.731   1.770  0.5558  0.6792 -1.4036
    4CHTO   H54 1615   1.533  -3.664   1.761 -2.2084  2.7583  0.3696
    4CHTO   O20 1616   1.346  -3.653   1.838  0.3345  0.1039 -0.0314
    4CHTO   H36 1617   1.289  -3.612   1.771 -1.3546 -1.0675 -0.6452
    4CHTO   C30 1618   1.497  -3.860   1.843 -0.1420  0.0473  0.0669
    4CHTO   H58 1619   1.404  -3.919   1.866 -0.3646  1.0930 -0.1009
    4CHTO    N6 1620   1.563  -3.834   1.973 -0.3518  0.1616 -0.3675
    4CHTO   H45 1621   1.656  -3.788   1.962 -2.3006 -0.6485 -2.2812
    4CHTO   H46 1622   1.499  -3.765   2.026 -5.4715 -1.4612  0.1360
    4CHTO   C33 1623   1.591  -3.940   1.754 -0.7268 -0.2854 -0.4342
    4CHTO   H61 1624   1.687  -3.884   1.737  0.2673  0.6354 -0.6614
    4CHTO   O18 1625   1.524  -3.962   1.626 -0.5768  0.2144 -0.3296
    4CHTO   C28 1626   1.500  -3.847   1.546  0.2871 -0.3665  0.4017
    4CHTO   H56 1627   1.588  -3.789   1.520  1.4546 -0.0179 -3.2477
    4CHTO   C35 1628   1.437  -3.896   1.421 -0.3381  0.6256  0.3238
    4CHTO   O24 1629   1.426  -3.800   1.312 -1.5352 -0.6537 -0.1359
    4CHTO   H39 1630   1.463  -3.714   1.321  0.1966  1.1861 -0.2593
    4CHTO    O9 1631   1.636  -4.067   1.815 -0.1499 -0.8050  0.1854
    4CHTO   C13 1632   1.786  -4.106   1.780  0.9698  0.9292 -0.3144
    4CHTO   H26 1633   1.848  -4.022   1.808  3.9787 -0.0953 -0.5862
    4CHTO   C11 1634   1.802  -4.147   1.627 -0.6723  0.1431  0.3558
    4CHTO   H24 1635   1.771  -4.061   1.559  1.1215 -0.2534 -1.5029
    4CHTO    O8 1636   1.714  -4.251   1.590  0.0080 -0.3113 -0.0363
    4CHTO    H3 1637   1.632  -4.226   1.630 -0.3289  0.7380 -0.3034
    4CHTO    C9 1638   1.953  -4.180   1.602  0.6929 -0.8779  0.0008
    4CHTO   H22 1639   2.007  -4.084   1.611  3.2037  0.8365  1.1721
    4CHTO    N2 1640   1.976  -4.209   1.465 -0.0809 -0.0391  0.3338
    4CHTO   H10 1641   2.085  -4.183   1.443  0.2824  0.7412 -0.2288
    4CHTO   H11 1642   1.961  -4.312   1.452  2.0526  1.1143 -0.4403
    4CHTO    C7 1643   2.017  -4.265   1.714 -0.2952 -0.3782 -0.0289
    4CHTO   H20 1644   2.088  -4.206   1.767 -1.2494  1.1608  0.5428
    4CHTO    O4 1645   1.915  -4.313   1.805 -0.0771  0.1605  0.0307
    4CHTO   C14 1646   1.841  -4.214   1.879 -0.7758 -0.1377 -0.7003
    4CHTO   H27 1647   1.909  -4.169   1.948 -1.5839  2.1874  0.5234
    4CHTO   C18 1648   1.734  -4.281   1.957  0.2491  0.5367  0.6970
    4CHTO   O13 1649   1.659  -4.385   1.881  0.4150 -0.2448  0.0198
    4CHTO    H7 1650   1.714  -4.460   1.875 -0.1504 -1.0844 -0.9795
    4CHTO    O2 1651   2.103  -4.395   1.667  0.4757  0.0243 -0.3732
    4CHTO    C1 1652   2.176  -4.455   1.779  0.3904 -0.1070  0.2919
    4CHTO   H14 1653   2.117  -4.448   1.865  2.4305 -4.8016  0.6302
    4CHTO    C2 1654   2.315  -4.383   1.815 -0.7541 -0.4938 -0.3087
    4CHTO   H15 1655   2.371  -4.402   1.719  0.1580  0.5409 -0.6837
    4CHTO    O6 1656   2.297  -4.242   1.845 -0.3894  0.1212 -0.0541
    4CHTO    H1 1657   2.212  -4.206   1.844 -1.6159 -2.7412 -1.8001
    4CHTO    C3 1658   2.389  -4.465   1.933  0.3153  0.4688  0.4438
    4CHTO   H16 1659   2.333  -4.453   2.025 -1.3322 -0.0786  2.2540
    4CHTO    N1 1660   2.530  -4.417   1.958  1.0229  0.2570  0.0377
    4CHTO    H8 1661   2.528  -4.310   1.982 -1.7504 -0.2637 -2.0571
    4CHTO    H9 1662   2.581  -4.427   1.868 -0.9298 -0.1524  1.0635
    4CHTO    C4 1663   2.396  -4.616   1.902  0.0249 -0.0643 -0.3585
    4CHTO   H17 1664   2.469  -4.631   1.814  3.3464  1.6643 -0.0725
    4CHTO    O1 1665   2.269  -4.661   1.863 -0.3607 -0.4936  0.4696
    4CHTO    C5 1666   2.200  -4.605   1.748  0.3234 -0.1340  0.2384
    4CHTO   H18 1667   2.253  -4.607   1.652  1.1264 -1.3948 -2.7679
    4CHTO   C16 1668   2.066  -4.687   1.735 -0.0189 -0.9357  0.7283
    4CHTO   O11 1669   2.103  -4.822   1.729  0.1214  0.2370  0.7166
    4CHTO    H5 1670   2.065  -4.875   1.794 -0.4738  0.0033  0.4485
    4CHTO    O3 1671   2.440  -4.697   2.016 -0.4046 -0.3856  0.1529
    4CHTO    C6 1672   2.495  -4.824   1.981  0.2628  0.2530  0.0948
    4CHTO   H19 1673   2.495  -4.843   1.876 -1.3088 -0.7989 -0.4758
    4CHTO    C8 1674   2.645  -4.821   2.016 -0.1093 -0.6896 -0.1254
    4CHTO   H21 1675   2.656  -4.773   2.115 -0.3983  1.0002  0.2735
    4CHTO    O7 1676   2.712  -4.735   1.931 -0.4441  0.4886  0.2145
    4CHTO    H2 1677   2.799  -4.766   1.903  0.7347 -0.0010  0.1434
    4CHTO   C12 1678   2.711  -4.963   2.015  0.3710 -0.2781 -0.1759
    4CHTO   H25 1679   2.738  -4.989   1.913  0.3163  1.7346  1.7515
    4CHTO    N3 1680   2.846  -4.959   2.076 -0.1050  0.0189 -0.1741
    4CHTO   H12 1681   2.853  -5.031   2.149  2.0508  0.3837  1.5182
    4CHTO   H13 1682   2.923  -4.962   2.000  2.1494 -0.2038  0.9247
    4CHTO   C15 1683   2.620  -5.074   2.072 -0.3444  0.1621  0.3773
    4CHTO   H28 1684   2.617  -5.087   2.179 -2.7660  1.2574 -1.3420
    4CHTO   O10 1685   2.650  -5.211   2.002 -0.3353 -0.4785  0.1731
    4CHTO    H4 1686   2.648  -5.278   2.065 -0.9319 -0.4220  0.3089
    4CHTO    O5 1687   2.492  -5.063   2.026  0.3524  0.5842 -0.1994
    4CHTO   C10 1688   2.423  -4.939   2.050 -0.0042 -0.6430 -0.9484
    4CHTO   H23 1689   2.406  -4.932   2.157 -0.9244 -1.1092 -1.6753
    4CHTO   C17 1690   2.284  -4.962   1.990  0.3222 -0.5789 -0.1504
    4CHTO   O12 1691   2.282  -5.009   1.855  0.4615  0.3218  0.3339
    4CHTO    H6 1692   2.201  -4.985   1.814 -1.4311  0.2814  0.5129
    5CHTO  H203 1693   6.917   1.378   6.263  0.1746 -0.5556  2.3862
    5CHTO   O82 1694   6.994   1.363   6.213 -0.2691  0.0687  0.1478
    5CHTO  C123 1695   7.003   1.445   6.098 -0.1888  0.7118  0.9125
    5CHTO  H227 1696   7.099   1.413   6.043  1.2674  0.3729  0.8187
    5CHTO   O77 1697   6.880   1.411   6.015 -0.2015 -0.0794 -0.8799
    5CHTO  C118 1698   6.869   1.480   5.890 -0.0563 -0.3945  0.1548
    5CHTO  H222 1699   6.965   1.472   5.827  0.5208 -0.1593 -0.9928
    5CHTO  C125 1700   6.741   1.421   5.807  0.1088  0.2068 -0.0382
    5CHTO   O84 1701   6.763   1.292   5.745 -0.2165 -0.2989  0.6102
    5CHTO  H205 1702   6.847   1.256   5.771 -0.9781  3.1543 -0.7363
    5CHTO  C114 1703   6.852   1.627   5.930 -0.2511 -0.4952 -0.0277
    5CHTO  H218 1704   6.762   1.641   5.989  0.5316 -2.3820  3.6821
    5CHTO  C116 1705   6.970   1.681   6.019 -0.3167 -0.1581 -0.7322
    5CHTO  H220 1706   7.053   1.680   5.957  0.7009 -0.8710  0.0020
    5CHTO   O79 1707   6.947   1.818   6.072  0.0133  0.0547  0.3072
    5CHTO  H201 1708   7.020   1.874   6.060  0.6376  1.5298 -0.4095
    5CHTO  C120 1709   7.000   1.593   6.144 -0.8205  0.2275  0.4214
    5CHTO  H224 1710   6.918   1.602   6.216 -1.2986  1.0901  0.6389
    5CHTO   N21 1711   7.130   1.631   6.210  0.4454  0.4119 -0.9346
    5CHTO  H211 1712   7.109   1.704   6.287 -0.1245  0.3293 -0.5455
    5CHTO  H212 1713   7.183   1.550   6.263  2.2488 -1.0742 -0.7795
    5CHTO   O75 1714   6.856   1.696   5.808  0.2404  0.3103 -0.0269
    5CHTO  C112 1715   6.724   1.811   5.785 -0.2703 -0.0175 -0.6949
    5CHTO  H216 1716   6.684   1.835   5.884  0.9286  0.5809 -0.5007
    5CHTO   O73 1717   6.630   1.748   5.703 -1.0039  0.0037  0.0442
    5CHTO  C113 1718   6.518   1.821   5.665  0.1222 -0.3644  0.8903
    5CHTO  H217 1719   6.458   1.835   5.757  2.1656  0.9698 -1.7417
    5CHTO  C124 1720   6.427   1.732   5.574 -0.2818  0.6843  0.2781
    5CHTO   O83 1721   6.300   1.784   5.536 -0.0809  0.3768 -0.7931
    5CHTO  H204 1722   6.246   1.792   5.607  2.4446 -0.5841  0.5972
    5CHTO  C109 1723   6.553   1.960   5.595  0.2493  0.8367 -0.3911
    5CHTO  H213 1724   6.603   1.933   5.496 -1.8130 -0.7856  1.7647
    5CHTO  C110 1725   6.644   2.039   5.695 -0.1715 -0.4305  0.3492
    5CHTO  H214 1726   6.592   2.066   5.787  0.2150  1.2441  2.1875
    5CHTO   O78 1727   6.683   2.163   5.635 -0.2124 -0.1376 -0.3047
    5CHTO  H200 1728   6.625   2.232   5.656 -1.3213 -0.0995  0.3188
    5CHTO  C111 1729   6.774   1.952   5.726  0.3638 -0.6122  0.7644
    5CHTO  H215 1730   6.824   1.932   5.628 -1.4062  1.7264  0.1347
    5CHTO   N19 1731   6.871   2.023   5.815 -0.8186  0.1786 -0.0667
    5CHTO  H207 1732   6.938   2.079   5.765 -3.7349 -0.1986  1.1161
    5CHTO  H208 1733   6.834   2.098   5.875 -0.2880 -1.8696 -1.4810
    5CHTO   O74 1734   6.429   2.032   5.576 -0.1388  0.1760  0.0841
    5CHTO  C115 1735   6.424   2.144   5.461 -0.4966 -0.5595 -0.1852
    5CHTO  H219 1736   6.525   2.164   5.418  0.6224  0.6782  3.1558
    5CHTO   O76 1737   6.333   2.099   5.337 -0.3454  0.5579 -0.0332
    5CHTO  C122 1738   6.194   2.080   5.356 -0.3030  0.2115  0.0960
    5CHTO  H226 1739   6.177   1.973   5.386 -0.1234 -1.7593  0.9130
    5CHTO  C126 1740   6.139   2.093   5.213  0.4322 -0.9387  0.2274
    5CHTO   O85 1741   6.007   2.039   5.200  0.0747  0.5951 -0.1768
    5CHTO  H206 1742   5.956   2.044   5.277 -3.2219 -1.7944 -0.0227
    5CHTO  C121 1743   6.128   2.170   5.461  0.5230  0.4048 -0.1627
    5CHTO  H225 1744   6.028   2.207   5.433  3.1206 -1.5491  0.9290
    5CHTO   O81 1745   6.112   2.084   5.572 -0.1512  0.3056  0.3651
    5CHTO  H202 1746   6.195   2.050   5.597  0.4347  1.8028 -0.2723
    5CHTO  C119 1747   6.217   2.295   5.485 -0.6175 -0.3071  0.2112
    5CHTO  H223 1748   6.221   2.336   5.382  0.0929  0.9361 -2.1923
    5CHTO  C117 1749   6.367   2.274   5.531  0.6894 -0.4148 -0.4440
    5CHTO  H221 1750   6.387   2.254   5.640  0.9323  1.4829 -1.9109
    5CHTO   N20 1751   6.450   2.392   5.501 -0.0920 -0.4802 -0.0223
    5CHTO  H209 1752   6.515   2.370   5.414 -1.1919  2.0300  0.7016
    5CHTO  H210 1753   6.516   2.412   5.586  0.2154  0.2730  1.4129
    5CHTO   O80 1754   6.134   2.426   5.572 -0.4875 -0.6824  0.6426
    5CHTO  C103 1755   6.083   2.406   5.721 -0.0092  0.1317  0.2354
    5CHTO  H190 1756   6.095   2.300   5.755  3.4321 -1.6672 -0.7013
    5CHTO  C101 1757   6.152   2.493   5.829 -0.4767  0.2321  0.5060
    5CHTO  H188 1758   6.156   2.598   5.789 -0.9349  2.2630 -1.4391
    5CHTO   O68 1759   6.297   2.438   5.860 -0.6676 -0.1751 -0.0113
    5CHTO  H168 1760   6.303   2.348   5.871  0.9568  1.8594 -2.0338
    5CHTO   C99 1761   6.071   2.496   5.966  0.6503 -0.5613 -0.3926
    5CHTO  H186 1762   6.086   2.400   6.008 -0.1838  1.1058 -0.0300
    5CHTO   N17 1763   6.124   2.599   6.068 -0.0015 -0.2398 -0.1285
    5CHTO  H174 1764   6.106   2.700   6.025  1.5389 -1.1524 -2.7911
    5CHTO  H175 1765   6.226   2.579   6.104  0.7660 -1.0288  0.1807
    5CHTO   C97 1766   5.914   2.505   5.955  0.0120 -0.0906  0.0764
    5CHTO  H184 1767   5.888   2.605   5.949  0.6046 -0.3842 -1.3924
    5CHTO   O64 1768   5.871   2.432   5.838 -0.1815 -0.5502 -0.2496
    5CHTO  C104 1769   5.936   2.440   5.712 -0.8656  0.1464 -0.2243
    5CHTO  H191 1770   5.923   2.544   5.669 -0.6408  0.5531 -0.4436
    5CHTO  C108 1771   5.845   2.360   5.622  0.1805 -0.2132 -0.2473
    5CHTO   O71 1772   5.864   2.403   5.484  0.3848  0.3208 -0.1642
    5CHTO  H171 1773   5.807   2.355   5.427  0.5804  0.2582 -2.0826
    5CHTO   O62 1774   5.851   2.448   6.069 -0.8118  0.6744  0.4969
    5CHTO   C91 1775   5.705   2.449   6.067 -0.4124 -0.3131  0.1106
    5CHTO  H178 1776   5.673   2.549   6.028 -0.5172 -1.1683 -1.9309
    5CHTO   C92 1777   5.661   2.433   6.221  0.6558 -0.3746  0.4957
    5CHTO  H179 1778   5.699   2.509   6.295 -1.4113 -0.3797  0.5001
    5CHTO   O66 1779   5.523   2.464   6.212 -0.9892 -0.5698  0.0188
    5CHTO  H166 1780   5.469   2.392   6.184 -2.8746 -0.5073  0.6178
    5CHTO   C93 1781   5.678   2.291   6.285  0.0389  0.4017  0.0532
    5CHTO  H180 1782   5.614   2.281   6.375 -0.4106 -1.5625 -0.7937
    5CHTO   N16 1783   5.813   2.270   6.336 -0.1339  0.4754 -0.9215
    5CHTO  H172 1784   5.889   2.253   6.259  2.6672 -0.8919  0.6685
    5CHTO  H173 1785   5.816   2.192   6.411 -0.7801  0.1428 -1.2500
    5CHTO   C94 1786   5.637   2.182   6.175  0.2376  0.7447 -0.2091
    5CHTO  H181 1787   5.728   2.127   6.137 -2.5171 -2.1207  0.2406
    5CHTO   O61 1788   5.570   2.228   6.058 -0.1786  1.0507 -0.7155
    5CHTO   C95 1789   5.633   2.330   5.980 -0.2868 -0.9172 -0.2492
    5CHTO  H182 1790   5.705   2.282   5.916 -0.6808  1.0290  0.5060
    5CHTO  C106 1791   5.533   2.388   5.868  0.2861 -0.1131 -0.0386
    5CHTO   O69 1792   5.418   2.461   5.916 -0.2678  0.3158 -0.0225
    5CHTO  H169 1793   5.361   2.489   5.847 -2.0247  0.0680 -2.1169
    5CHTO   O63 1794   5.534   2.080   6.254 -0.5359  0.3883  0.3342
    5CHTO   C96 1795   5.562   1.918   6.212 -0.6456  0.0917  0.4613
    5CHTO  H183 1796   5.621   1.916   6.111 -2.3883  0.7470 -3.5932
    5CHTO   C98 1797   5.428   1.829   6.190 -0.1003  0.7963 -0.1366
    5CHTO  H185 1798   5.351   1.880   6.144  1.0819 -2.2893  0.7027
    5CHTO   O67 1799   5.458   1.716   6.108  0.0532 -0.3805 -0.0351
    5CHTO  H167 1800   5.522   1.733   6.040 -1.1736  0.7995  0.9665
    5CHTO  C102 1801   5.370   1.776   6.329 -0.0942  0.0555  0.2178
    5CHTO  H189 1802   5.302   1.697   6.303  0.9015  3.3588 -0.4255
    5CHTO   N18 1803   5.301   1.881   6.410 -0.4122  0.2483  0.4017
    5CHTO  H176 1804   5.230   1.846   6.487 -1.5761 -1.3456 -0.9306
    5CHTO  H177 1805   5.370   1.955   6.445 -1.0401 -1.4912  0.2741
    5CHTO  C105 1806   5.480   1.703   6.418  0.0682 -0.0981 -0.0221
    5CHTO  H192 1807   5.477   1.742   6.520  0.8128  1.2506 -1.2091
    5CHTO   O65 1808   5.610   1.713   6.361 -1.1422  0.2240  0.3020
    5CHTO  C100 1809   5.650   1.847   6.323 -0.0011  0.4084  0.1749
    5CHTO  H187 1810   5.632   1.911   6.411 -0.4004  0.0758  0.5485
    5CHTO  C107 1811   5.803   1.851   6.290 -0.1027  0.1330 -0.1256
    5CHTO   O70 1812   5.826   1.785   6.167  0.0885  0.2642 -0.5056
    5CHTO  H170 1813   5.915   1.762   6.161  0.6206 -1.6074  0.6198
    5CHTO   O57 1814   5.456   1.566   6.425  0.1426  0.4040 -0.3315
    5CHTO   C85 1815   5.445   1.491   6.547 -0.1710  0.2815 -0.2412
    5CHTO  H157 1816   5.374   1.539   6.608  0.7730 -4.6074 -1.2748
    5CHTO   C83 1817   5.574   1.499   6.640 -0.4687 -0.2938 -0.3792
    5CHTO  H155 1818   5.594   1.603   6.664  0.0100 -0.9487 -0.7812
    5CHTO   O56 1819   5.679   1.450   6.557 -0.1825  0.5172 -0.0101
    5CHTO  H135 1820   5.666   1.359   6.540  0.9151  0.0808 -1.8318
    5CHTO   C81 1821   5.559   1.418   6.772  0.1326  0.0054  0.3674
    5CHTO  H153 1822   5.471   1.454   6.826  0.0816 -0.4526  2.6100
    5CHTO   N14 1823   5.675   1.440   6.860 -0.1160  0.2542  0.4207
    5CHTO  H141 1824   5.772   1.417   6.820 -0.4351 -0.3197  2.1675
    5CHTO  H142 1825   5.660   1.385   6.949 -1.5163 -0.8880 -1.4111
    5CHTO   C79 1826   5.532   1.266   6.738 -0.1187  0.4335  0.3956
    5CHTO  H151 1827   5.511   1.211   6.828 -2.0157  2.4106  0.3340
    5CHTO   O52 1828   5.409   1.255   6.651  0.3785  0.5232  0.0494
    5CHTO   C86 1829   5.408   1.338   6.530 -0.0649  0.4366  0.3164
    5CHTO  H158 1830   5.476   1.292   6.469  0.0696 -1.0603  0.3424
    5CHTO   C90 1831   5.271   1.317   6.461  0.7276  0.1336  0.0222
    5CHTO   O60 1832   5.279   1.200   6.380 -0.2125 -0.0836 -0.1199
    5CHTO  H138 1833   5.252   1.229   6.295  1.7470 -0.1610  1.0953
    5CHTO   O50 1834   5.637   1.190   6.674  0.2611 -0.1994 -0.1368
    5CHTO   C73 1835   5.682   1.054   6.690 -0.1035  0.0461 -0.1485
    5CHTO  H145 1836   5.594   0.986   6.702 -1.0395 -0.8619 -2.7644
    5CHTO   C74 1837   5.763   1.032   6.822 -0.1113 -0.5143  0.0692
    5CHTO  H146 1838   5.700   1.060   6.903 -0.0850  1.9888  0.3347
    5CHTO   O54 1839   5.784   0.888   6.830 -0.2992 -0.1227  0.1498
    5CHTO  H133 1840   5.874   0.864   6.840 -0.8310 -1.0001  1.5541
    5CHTO   C75 1841   5.895   1.112   6.817 -0.3359  0.0316 -0.2636
    5CHTO  H147 1842   5.873   1.221   6.819  0.8671 -1.9364 -1.0377
    5CHTO   N13 1843   5.988   1.093   6.932  0.3683  0.2154  0.0798
    5CHTO  H139 1844   6.013   1.194   6.969 -2.3783 -0.9270 -2.8589
    5CHTO  H140 1845   6.073   1.030   6.903  1.8623  0.7254 -1.9975
    5CHTO   C76 1846   5.972   1.085   6.677 -0.2455  0.2698  0.3469
    5CHTO  H148 1847   6.028   0.986   6.681  2.1487  0.1693 -4.2005
    5CHTO   O49 1848   5.887   1.087   6.558 -0.2039 -0.2893  0.0100
    5CHTO   C77 1849   5.763   1.012   6.560 -0.9956  0.6772 -0.1890
    5CHTO  H149 1850   5.788   0.905   6.567  3.1878 -0.8591 -0.9615
    5CHTO   C88 1851   5.679   1.029   6.434  0.2060 -0.7262 -0.4523
    5CHTO   O58 1852   5.743   0.992   6.327  0.1350 -0.0911  0.0592
    5CHTO  H136 1853   5.743   1.050   6.253 -0.1134  0.9586  1.5777
    5CHTO   O51 1854   6.091   1.201   6.655  0.4869 -0.2747  0.2747
    5CHTO   C78 1855   6.026   1.337   6.634 -0.3211  0.6032 -0.1836
    5CHTO  H150 1856   5.908   1.339   6.647 -2.7670  0.1860 -2.3143
    5CHTO   C80 1857   6.068   1.369   6.491 -0.5993  0.3158  0.5144
    5CHTO  H152 1858   6.181   1.349   6.480  0.9916 -1.3459  1.9206
    5CHTO   O55 1859   6.014   1.276   6.400  0.0460  0.2846 -0.2917
    5CHTO  H134 1860   6.040   1.187   6.417  3.6735 -1.6083  1.4186
    5CHTO   C84 1861   6.035   1.522   6.451 -0.2003  0.2793  0.3053
    5CHTO  H156 1862   5.926   1.514   6.434  0.3219 -1.4106 -0.2909
    5CHTO   N15 1863   6.091   1.575   6.320 -0.1719  0.0980  0.4936
    5CHTO  H143 1864   6.145   1.502   6.265 -0.6282 -0.5598  1.7331
    5CHTO  H144 1865   6.010   1.616   6.258  1.7149 -1.1424 -0.5364
    5CHTO   C87 1866   6.062   1.621   6.561 -0.1595 -0.4540  0.2811
    5CHTO  H159 1867   6.168   1.646   6.566 -1.1770 -0.6740  2.4474
    5CHTO   O53 1868   6.025   1.570   6.685 -0.2804 -0.3109 -0.0202
    5CHTO   C82 1869   6.084   1.446   6.721  0.4103 -0.0060  0.2122
    5CHTO  H154 1870   6.187   1.441   6.705  0.5951 -1.6870  0.7455
    5CHTO   C89 1871   6.060   1.432   6.873 -0.6405  0.5187 -0.7008
    5CHTO   O59 1872   6.152   1.514   6.951 -0.3540  0.5334  0.2113
    5CHTO  H137 1873   6.127   1.520   7.040 -0.7536  0.5439 -0.4529
    5CHTO   O45 1874   5.990   1.746   6.529 -0.3470  0.0126 -0.0016
    5CHTO   C67 1875   6.020   1.861   6.611  0.5208  0.1344 -0.0637
    5CHTO  H124 1876   6.055   1.834   6.707  0.8280 -1.5504  0.8413
    5CHTO   C65 1877   6.128   1.952   6.544  0.1842  0.5459  0.1975
    5CHTO  H122 1878   6.130   1.929   6.436 -1.8440  1.0033  1.4061
    5CHTO   O44 1879   6.249   1.901   6.598 -0.4458 -0.5792  0.3465
    5CHTO  H102 1880   6.288   1.958   6.665 -1.3672  0.5501 -1.0224
    5CHTO   C63 1881   6.103   2.113   6.556 -0.2855  0.0032 -0.1101
    5CHTO  H120 1882   6.029   2.140   6.486  0.4402  2.0439 -1.0259
    5CHTO   N11 1883   6.230   2.193   6.520  0.1171 -0.1541 -0.3220
    5CHTO  H108 1884   6.292   2.156   6.441  1.0854 -0.0755 -2.3502
    5CHTO  H109 1885   6.196   2.285   6.478 -0.5680 -1.4149 -0.6647
    5CHTO   C61 1886   6.033   2.140   6.692 -0.1679 -1.2863 -0.1383
    5CHTO  H118 1887   6.011   2.246   6.686  3.0776 -2.2729  1.0908
    5CHTO   O40 1888   5.903   2.071   6.706 -0.6399  0.0135 -0.0235
    5CHTO   C68 1889   5.885   1.942   6.632  0.0641 -0.1414 -0.2502
    5CHTO  H125 1890   5.843   1.965   6.532 -0.4915 -1.1505  0.4856
    5CHTO   C72 1891   5.773   1.866   6.715 -1.0796 -0.2843 -0.2304
    5CHTO   O48 1892   5.833   1.808   6.829  0.6420  0.0477 -0.0597
    5CHTO  H105 1893   5.798   1.849   6.907  1.4909  0.6814  2.3141
    5CHTO   O38 1894   6.123   2.106   6.802  0.4981  0.5107  0.2850
    5CHTO   C55 1895   6.086   2.135   6.941 -0.4861 -0.0913  0.4337
    5CHTO  H112 1896   5.976   2.134   6.949 -1.7602  0.2024  2.6333
    5CHTO   C56 1897   6.146   2.272   6.985  0.7610 -0.2270  0.0667
    5CHTO  H113 1898   6.255   2.258   6.965 -0.8290 -0.4447 -1.5517
    5CHTO   O42 1899   6.117   2.382   6.896 -0.4940 -0.7053  0.3214
    5CHTO  H100 1900   6.032   2.422   6.920 -2.5068 -0.5962  1.2432
    5CHTO   C57 1901   6.089   2.304   7.135  0.2551  0.6582 -0.7063
    5CHTO  H114 1902   5.984   2.293   7.114  2.7941  0.3458 -1.1401
    5CHTO   N10 1903   6.131   2.437   7.183 -0.1946 -0.5030  0.2974
    5CHTO  H106 1904   6.135   2.505   7.103 -0.9037  0.3737 -0.5913
    5CHTO  H107 1905   6.058   2.472   7.254 -0.2606  1.0716  3.5633
    5CHTO   C58 1906   6.134   2.191   7.225  0.1030 -0.3776 -1.0793
    5CHTO  H115 1907   6.236   2.210   7.247 -1.1411  1.8538 -0.8718
    5CHTO   O37 1908   6.105   2.062   7.168  0.3663  0.8060 -0.1056
    5CHTO   C59 1909   6.143   2.033   7.034 -0.2594  0.1424  0.0830
    5CHTO  H116 1910   6.257   2.035   7.025  2.9979  2.5467 -1.4250
    5CHTO   C70 1911   6.093   1.891   7.003 -0.0234 -0.5240 -0.2864
    5CHTO   O46 1912   6.175   1.821   6.905  0.0631 -0.1763  0.3324
    5CHTO  H103 1913   6.118   1.750   6.877  1.4983  2.3464 -0.5597
    5CHTO   O39 1914   6.062   2.201   7.366  0.1254  0.0151  0.2027
    5CHTO   C60 1915   6.133   2.126   7.472  1.1382  0.5200  0.7900
    5CHTO  H117 1916   6.194   2.056   7.417 -0.6350 -0.6467  0.6191
    5CHTO   C62 1917   6.214   2.217   7.560  0.0868  0.5327  0.2277
    5CHTO  H119 1918   6.275   2.279   7.498 -0.4849  3.8511 -0.5986
    5CHTO   O43 1919   6.130   2.304   7.642  0.3590 -1.2996  0.3602
    5CHTO  H101 1920   6.084   2.353   7.581 -0.3203 -1.7021  0.4644
    5CHTO   C66 1921   6.311   2.121   7.651  0.0852  0.6515 -0.0026
    5CHTO  H123 1922   6.378   2.065   7.589 -0.2097 -2.7442  0.9904
    5CHTO   N12 1923   6.401   2.201   7.740  0.4172 -0.4353  0.3936
    5CHTO  H110 1924   6.347   2.279   7.793  0.9536  1.0075 -1.1691
    5CHTO  H111 1925   6.471   2.248   7.680  1.3711 -2.2568 -0.9897
    5CHTO   C69 1926   6.220   2.029   7.732  0.0062 -0.0310  0.6984
    5CHTO  H126 1927   6.157   2.094   7.788 -0.3131 -2.2309  1.3937
    5CHTO   O41 1928   6.139   1.945   7.656  0.4381  0.3178  0.3107
    5CHTO   C64 1929   6.043   2.041   7.564  0.1728  0.4349 -0.6841
    5CHTO  H121 1930   5.994   2.107   7.638  2.1897 -1.4148  0.8699
    5CHTO   C71 1931   5.935   1.966   7.480 -0.2503 -0.9053  0.7919
    5CHTO   O47 1932   5.808   1.970   7.548 -0.3970  0.0701  0.0258
    5CHTO  H104 1933   5.757   1.892   7.538  1.1378  2.5131 -0.5258
    5CHTO   O34 1934   6.307   1.935   7.825  0.0904 -0.3311 -0.1790
    5CHTO   C49 1935   6.303   1.820   7.941 -0.2516  0.4412 -0.3274
    5CHTO   H91 1936   6.285   1.864   8.036  0.3129  3.6079  1.7054
    5CHTO   C47 1937   6.433   1.744   7.940 -0.2324  0.1700 -0.0046
    5CHTO   H89 1938   6.437   1.676   8.022 -0.3886  0.6998 -2.1650
    5CHTO   O33 1939   6.550   1.831   7.943  0.0644 -0.1416 -0.4568
    5CHTO   H70 1940   6.562   1.878   8.025 -1.5165  1.1177  3.5055
    5CHTO   C45 1941   6.446   1.650   7.802 -0.5845  0.0529 -0.0005
    5CHTO   H87 1942   6.512   1.707   7.740 -0.1656 -1.1362  0.4965
    5CHTO    N8 1943   6.514   1.519   7.836  0.0446 -0.1425 -0.9181
    5CHTO   H75 1944   6.606   1.506   7.780 -1.2169  1.9602 -2.1073
    5CHTO   H76 1945   6.447   1.430   7.828 -1.1794  0.0853  0.8635
    5CHTO   C43 1946   6.307   1.648   7.720  0.0281 -0.5121  0.0001
    5CHTO   H85 1947   6.297   1.742   7.676 -1.0387 -1.5897  2.7286
    5CHTO   O29 1948   6.199   1.621   7.813 -0.3098 -0.1959  0.0019
    5CHTO   C50 1949   6.188   1.716   7.921  0.0426  0.0574  0.2170
    5CHTO   H92 1950   6.100   1.769   7.890 -1.9022 -0.1601  0.5851
    5CHTO   C54 1951   6.158   1.644   8.055 -0.3531 -0.7261  1.0263
    5CHTO   O36 1952   6.027   1.591   8.071  0.4733  0.3308  0.2036
    5CHTO   H72 1953   5.993   1.605   8.154 -0.7284  0.6267 -0.2713
    5CHTO   O27 1954   6.312   1.556   7.615  0.1234  0.0764  0.5153
    5CHTO   C37 1955   6.233   1.503   7.511  0.4322  0.2344 -0.3688
    5CHTO   H79 1956   6.300   1.459   7.440  2.9124  1.6093 -0.0386
    5CHTO   C38 1957   6.138   1.398   7.578  0.4835 -0.1923  0.0284
    5CHTO   H80 1958   6.087   1.443   7.661  0.0278 -0.9202  0.6496
    5CHTO   O31 1959   6.218   1.293   7.625  0.0551 -0.3864 -0.2961
    5CHTO   H68 1960   6.222   1.218   7.574  1.5339  2.0529  1.2366
    5CHTO   C39 1961   6.034   1.348   7.465  0.2239 -0.3703 -0.3042
    5CHTO   H81 1962   6.090   1.297   7.391  0.1640 -1.2428  1.2412
    5CHTO    N7 1963   5.927   1.258   7.516 -0.4594  0.2234 -0.0037
    5CHTO   H73 1964   5.852   1.318   7.553  2.1567  0.3629  0.7675
    5CHTO   H74 1965   5.965   1.183   7.586  0.5289 -0.8723 -3.2130
    5CHTO   C40 1966   5.971   1.477   7.397  0.2771  0.3523 -0.1155
    5CHTO   H82 1967   5.901   1.531   7.464 -1.2818 -0.0621  1.5932
    5CHTO   O26 1968   6.072   1.566   7.343 -0.3431  0.3683  0.3938
    5CHTO   C41 1969   6.158   1.623   7.442  0.2703 -0.1292 -0.1565
    5CHTO   H83 1970   6.109   1.678   7.524 -1.5132  0.2645  0.0518
    5CHTO   C52 1971   6.263   1.722   7.378 -0.2290  0.0536 -0.5472
    5CHTO   O35 1972   6.355   1.658   7.305 -0.0689  0.6874 -0.0750
    5CHTO   H71 1973   6.431   1.647   7.359  1.4309 -1.7333 -0.1261
    5CHTO   O28 1974   5.884   1.439   7.282  0.9063 -0.2062  0.7364
    5CHTO   C42 1975   5.769   1.527   7.241 -0.4436  0.3691 -0.3833
    5CHTO   H84 1976   5.742   1.478   7.156  0.2217  1.8288 -0.2631
    5CHTO   C44 1977   5.809   1.669   7.193 -0.0338 -0.0168  0.3391
    5CHTO   H86 1978   5.870   1.709   7.274 -2.6584  0.5974 -1.9616
    5CHTO   O32 1979   5.881   1.645   7.073 -0.2756 -0.3577 -0.2553
    5CHTO   H69 1980   5.952   1.582   7.088  0.0843 -1.7641  1.1174
    5CHTO   C48 1981   5.677   1.760   7.172  0.2247  0.3768  0.1955
    5CHTO   H90 1982   5.624   1.714   7.085 -0.4318 -0.4357 -1.0102
    5CHTO    N9 1983   5.725   1.904   7.134 -0.3515 -0.3136 -1.1494
    5CHTO   H77 1984   5.720   1.970   7.212  0.0504 -2.5311  0.2611
    5CHTO   H78 1985   5.664   1.944   7.056  2.7982  1.3973  1.7890
    5CHTO   C51 1986   5.584   1.749   7.294  0.3010  0.2938 -0.2016
    5CHTO   H93 1987   5.630   1.788   7.383 -1.2016  2.5719 -2.3782
    5CHTO   O30 1988   5.532   1.616   7.312  0.4483 -0.4960 -0.4609
    5CHTO   C46 1989   5.648   1.514   7.338 -0.3490  0.0074  0.0863
    5CHTO   H88 1990   5.687   1.528   7.436  1.3122  0.6055 -3.6044
    5CHTO   C53 1991   5.584   1.378   7.319 -0.6234 -1.0075  0.5052
    5CHTO   O72 1992   5.487   1.362   7.417 -0.4260 -0.8802 -0.1788
    5CHTO  H199 1993   5.396   1.391   7.404  1.4153  0.5045  1.9467
    5CHTO   O22 1994   5.464   1.814   7.270  0.4319  0.3232  0.2298
    5CHTO   C31 1995   5.387   1.862   7.388  0.0996 -0.1752  0.2095
    5CHTO   H59 1996   5.291   1.901   7.352  1.5706  1.0327  2.3350
    5CHTO   C29 1997   5.359   1.752   7.494  0.0138  0.3282 -0.1925
    5CHTO   H57 1998   5.456   1.716   7.526  0.6066 -0.5570 -0.2686
    5CHTO   O21 1999   5.289   1.642   7.426 -0.1225 -0.5421 -0.1580
    5CHTO   H37 2000   5.322   1.574   7.473 -1.4996  3.2455 -0.8974
    5CHTO   C27 2001   5.276   1.798   7.617 -0.2077 -1.2375  0.8967
    5CHTO   H55 2002   5.174   1.824   7.582 -0.6811 -0.7951 -0.8513
    5CHTO    N5 2003   5.266   1.697   7.725  0.2585  0.2674 -0.6236
    5CHTO   H43 2004   5.203   1.615   7.701  0.5359  1.8256 -0.4753
    5CHTO   H44 2005   5.241   1.751   7.812  2.3712 -0.4521  0.8779
    5CHTO   C25 2006   5.335   1.931   7.677  0.0943  0.6934 -0.0494
    5CHTO   H53 2007   5.432   1.913   7.725 -1.8813 -0.5012  0.0238
    5CHTO   O17 2008   5.372   2.029   7.569  0.6758 -0.7547  0.1621
    5CHTO   C32 2009   5.459   1.983   7.463 -0.1471 -0.3732 -0.3398
    5CHTO   H60 2010   5.541   1.945   7.529  1.9239 -1.9297  1.5049
    5CHTO   C36 2011   5.506   2.098   7.370  0.3089  0.3768  0.0489
    5CHTO   O25 2012   5.555   2.201   7.460 -0.0916  0.1867  0.0927
    5CHTO   H40 2013   5.551   2.177   7.553 -0.4825 -0.4561  0.6040
    5CHTO   O15 2014   5.227   2.004   7.784  0.4840 -0.0305 -0.2007
    5CHTO   C19 2015   5.268   2.114   7.867  0.8496 -0.0440 -0.0218
    5CHTO   H47 2016   5.173   2.130   7.923  0.5499  3.2158 -1.6638
    5CHTO   C20 2017   5.375   2.071   7.979  0.6070 -0.3283  0.2802
    5CHTO   H48 2018   5.470   2.043   7.934 -0.3924  1.0384  0.9379
    5CHTO   O19 2019   5.330   1.945   8.037  0.0907 -0.9602 -0.0727
    5CHTO   H35 2020   5.397   1.913   8.085 -2.3241  2.0298 -1.3295
    5CHTO   C21 2021   5.397   2.183   8.087 -0.8223 -0.0302 -0.5894
    5CHTO   H49 2022   5.306   2.190   8.149 -0.7526 -3.4551 -2.5417
    5CHTO    N4 2023   5.504   2.147   8.184  0.2122 -0.0160 -0.3289
    5CHTO   H41 2024   5.478   2.063   8.244 -0.1442  0.8361 -0.6182
    5CHTO   H42 2025   5.536   2.230   8.248 -1.7074  0.3071  0.6115
    5CHTO   C22 2026   5.431   2.311   8.008  0.1101 -0.2208  0.2499
    5CHTO   H50 2027   5.524   2.300   7.951  1.7004  3.3986 -0.1874
    5CHTO   O14 2028   5.319   2.335   7.916  0.5350 -0.6474 -0.8994
    5CHTO   C23 2029   5.296   2.249   7.806 -0.1350  0.0388  0.0475
    5CHTO   H51 2030   5.388   2.250   7.744  1.5373 -0.4604  1.7392
    5CHTO   C34 2031   5.186   2.298   7.709 -0.0628 -0.0274 -0.4131
    5CHTO   O23 2032   5.179   2.228   7.586 -0.0844  0.0657 -0.0007
    5CHTO   H38 2033   5.157   2.142   7.615  0.2055  0.5498  0.8061
    5CHTO   O16 2034   5.436   2.436   8.080 -0.1406  0.3515 -0.7062
    5CHTO   C24 2035   5.596   2.523   8.066 -0.2893 -0.9162 -0.2728
    5CHTO   H52 2036   5.683   2.457   8.056 -0.4020  0.6058  0.3001
    5CHTO   C26 2037   5.600   2.604   8.199 -0.3977  0.2761  0.2125
    5CHTO   H54 2038   5.516   2.667   8.207  0.6560  1.4546 -1.5285
    5CHTO   O20 2039   5.607   2.513   8.311  0.4004  0.1568  0.4134
    5CHTO   H36 2040   5.619   2.564   8.391  1.6637 -0.2540 -0.2508
    5CHTO   C30 2041   5.721   2.704   8.195 -0.7911  0.6259 -0.0772
    5CHTO   H58 2042   5.819   2.656   8.205 -1.5774  0.2636 -2.0300
    5CHTO    N6 2043   5.709   2.797   8.311  0.4430 -0.0159  0.2894
    5CHTO   H45 2044   5.675   2.752   8.398 -0.3610  1.7445 -1.2463
    5CHTO   H46 2045   5.809   2.832   8.329 -0.7147  0.6722 -0.6625
    5CHTO   C33 2046   5.739   2.783   8.062  0.3762 -0.5445  0.1745
    5CHTO   H61 2047   5.663   2.859   8.053 -0.4491 -0.8469 -0.0302
    5CHTO   O18 2048   5.720   2.697   7.953  0.0014 -0.0563  0.0499
    5CHTO   C28 2049   5.597   2.628   7.950 -0.4172  0.5751  1.2919
    5CHTO   H56 2050   5.507   2.688   7.953 -1.1021 -1.9833 -2.7181
    5CHTO   C35 2051   5.582   2.570   7.807 -0.2076  0.6067  0.4117
    5CHTO   O24 2052   5.577   2.676   7.716  0.1693 -0.7052  0.5167
    5CHTO   H39 2053   5.510   2.657   7.656 -1.7861  0.0380  2.3639
    5CHTO    O9 2054   5.868   2.851   8.057  0.0970 -0.7736 -0.2482
    5CHTO   C13 2055   5.881   2.929   7.911 -0.4263  0.2887 -0.4864
    5CHTO   H26 2056   5.835   2.866   7.838  1.8510 -0.4212  3.0091
    5CHTO   C11 2057   6.037   2.960   7.877  1.1400 -0.9161 -0.6554
    5CHTO   H24 2058   6.079   2.862   7.855 -1.5491  2.6787 -1.2747
    5CHTO    O8 2059   6.099   3.026   7.988 -0.2368 -0.0984 -0.3392
    5CHTO    H3 2060   6.157   3.094   7.962 -0.3576  2.3207 -0.6967
    5CHTO    C9 2061   6.030   3.044   7.748  0.3370  0.6000 -0.3534
    5CHTO   H22 2062   5.985   2.977   7.670 -0.2767  0.8503 -3.5108
    5CHTO    N2 2063   6.159   3.071   7.688  0.0768  0.5472 -0.4021
    5CHTO   H10 2064   6.148   3.125   7.599  1.6272 -1.5189 -1.4992
    5CHTO   H11 2065   6.202   2.967   7.677 -0.6453 -2.2598  0.6832
    5CHTO    C7 2066   5.945   3.176   7.763  0.1266  0.1955 -0.8471
    5CHTO   H20 2067   5.941   3.219   7.656  0.4850  2.1065 -0.1614
    5CHTO    O4 2068   5.809   3.156   7.815  0.2250  0.1929 -0.0720
    5CHTO   C14 2069   5.791   3.056   7.915  0.1214 -0.3982  0.5276
    5CHTO   H27 2070   5.678   3.030   7.895 -1.2124  0.3705  1.2243
    5CHTO   C18 2071   5.802   3.131   8.049 -0.3181  0.0763  0.1554
    5CHTO   O13 2072   5.684   3.206   8.085 -0.4486  0.3581 -0.8974
    5CHTO    H7 2073   5.615   3.153   8.119  4.9598  0.7868  2.2773
    5CHTO    O2 2074   6.021   3.301   7.857 -0.4573  0.6506 -1.1542
    5CHTO    C1 2075   6.004   3.438   7.811  1.1628 -0.3266 -0.1257
    5CHTO   H14 2076   5.900   3.454   7.779 -0.7127  0.7758  0.5920
    5CHTO    C2 2077   6.097   3.479   7.691  0.0159  0.4172  0.6243
    5CHTO   H15 2078   6.198   3.440   7.710 -0.9888 -0.4330 -2.3450
    5CHTO    O6 2079   6.053   3.411   7.570 -0.1348  0.1913  0.0036
    5CHTO    H1 2080   6.125   3.407   7.512  1.8936  0.8683 -2.5110
    5CHTO    C3 2081   6.093   3.641   7.684 -0.6760  0.5205 -0.0518
    5CHTO   H16 2082   6.000   3.682   7.644 -0.5692 -0.1646  1.0601
    5CHTO    N1 2083   6.199   3.692   7.596 -0.6634 -0.6134  0.6000
    5CHTO    H8 2084   6.279   3.746   7.643  0.8072 -1.3277 -1.0739
    5CHTO    H9 2085   6.150   3.762   7.531 -0.5297  1.9732  0.5741
    5CHTO    C4 2086   6.106   3.704   7.825  0.7636 -1.0057 -0.4564
    5CHTO   H17 2087   6.206   3.688   7.863  0.2926 -0.1161 -0.2541
    5CHTO    O1 2088   5.997   3.657   7.911 -0.8267  0.1874  0.2571
    5CHTO    C5 2089   6.010   3.518   7.942  0.2742 -0.8890  0.0094
    5CHTO   H18 2090   6.108   3.513   7.989  2.9611  0.5335 -0.3470
    5CHTO   C16 2091   5.900   3.468   8.038  0.0095 -0.2915 -0.4941
    5CHTO   O11 2092   5.905   3.548   8.158 -0.0730  0.1644 -0.3877
    5CHTO    H5 2093   5.978   3.528   8.217  0.8300 -2.1076  0.3338
    5CHTO    O3 2094   6.093   3.848   7.813  0.5029  0.0240 -1.0584
    5CHTO    C6 2095   6.086   3.923   7.938 -0.9273  0.5571 -0.3870
    5CHTO   H19 2096   6.082   3.861   8.031 -0.2948 -0.5403  1.6352
    5CHTO    C8 2097   6.224   4.011   7.958 -0.0043  0.0301  0.0874
    5CHTO   H21 2098   6.222   4.088   7.882 -0.4709 -0.5341 -1.2944
    5CHTO    O7 2099   6.343   3.924   7.948 -0.2287  0.2495 -0.3624
    5CHTO    H2 2100   6.386   3.923   7.864  1.7695 -1.2613 -1.2719
    5CHTO   C12 2101   6.213   4.085   8.094  0.0073 -0.6929  0.0422
    5CHTO   H25 2102   6.228   4.007   8.180  1.0450  1.8671  3.3461
    5CHTO    N3 2103   6.337   4.168   8.110 -0.1613  0.0011 -0.5154
    5CHTO   H12 2104   6.354   4.195   8.216 -0.5667  0.9453  2.2370
    5CHTO   H13 2105   6.330   4.250   8.045 -1.7189 -0.8036  0.5931
    5CHTO   C15 2106   6.081   4.157   8.108 -0.3959  1.0915  0.0129
    5CHTO   H28 2107   6.080   4.248   8.044 -2.3471 -1.9899 -1.7017
    5CHTO   O10 2108   6.051   4.191   8.262 -0.1652 -0.4407 -0.1823
    5CHTO    H4 2109   6.089   4.275   8.286  0.0347 -1.9861 -1.5403
    5CHTO    O5 2110   5.966   4.078   8.074 -0.0768 -0.1857  0.0046
    5CHTO   C10 2111   5.969   4.024   7.941  0.3779 -0.7021  0.1311
    5CHTO   H23 2112   5.977   4.099   7.865 -1.0052  1.8303  0.1146
    5CHTO   C17 2113   5.830   3.959   7.912  0.2605 -0.1719  0.1798
    5CHTO   O12 2114   5.825   3.901   7.781 -0.5244 -1.4018  0.5214
    5CHTO    H6 2115   5.842   3.813   7.796  0.9594 -0.0974  3.7119
    6CHTO  H203 2116   4.876   2.287   0.883  1.0124  1.0988  0.0944
    6CHTO   O82 2117   4.787   2.279   0.913  0.7103 -0.3043  0.6601
    6CHTO  C123 2118   4.770   2.386   1.009 -1.1090  0.5982 -0.1366
    6CHTO  H227 2119   4.840   2.468   0.980  1.6341  1.6744  0.6131
    6CHTO   O77 2120   4.630   2.429   0.986  0.3591  0.0756 -0.2024
    6CHTO  C118 2121   4.586   2.531   1.075 -0.1788 -0.4684  0.0239
    6CHTO  H222 2122   4.656   2.615   1.080  3.0240 -0.0008 -0.2078
    6CHTO  C125 2123   4.448   2.589   1.034  0.2325 -0.0215  0.7723
    6CHTO   O84 2124   4.342   2.490   1.047  0.2130 -0.4474 -0.4066
    6CHTO  H205 2125   4.259   2.528   1.076 -1.1134  0.5438 -0.2905
    6CHTO  C114 2126   4.585   2.467   1.214  0.0534  0.2235 -0.5599
    6CHTO  H218 2127   4.525   2.373   1.213  1.9558  0.4117 -0.9511
    6CHTO  C116 2128   4.734   2.420   1.257  0.3335 -0.2082 -0.1235
    6CHTO  H220 2129   4.793   2.508   1.268 -2.5041  1.3309 -2.1105
    6CHTO   O79 2130   4.729   2.357   1.386 -0.5640  0.0861 -0.1288
    6CHTO  H201 2131   4.815   2.361   1.425 -2.3991  2.9906 -1.4186
    6CHTO  C120 2132   4.795   2.319   1.150 -0.2491  0.0974  0.3260
    6CHTO  H224 2133   4.740   2.230   1.161 -1.3928  0.1625  1.4519
    6CHTO   N21 2134   4.931   2.270   1.178  0.0252 -0.3877  0.1705
    6CHTO  H211 2135   4.960   2.265   1.283  2.8543 -2.5147  0.6485
    6CHTO  H212 2136   5.000   2.334   1.128 -0.3647  0.8968  0.2026
    6CHTO   O75 2137   4.521   2.566   1.298  0.0983  0.4307 -0.3577
    6CHTO  C112 2138   4.415   2.485   1.406 -0.4554 -0.0851  0.0325
    6CHTO  H216 2139   4.456   2.389   1.444 -0.0643  0.8009 -1.1367
    6CHTO   O73 2140   4.296   2.464   1.334 -0.0012  0.5482  0.5398
    6CHTO  C113 2141   4.180   2.409   1.400  0.1115 -0.2588 -0.8172
    6CHTO  H217 2142   4.209   2.303   1.430  0.8377  0.6687 -2.1667
    6CHTO  C124 2143   4.065   2.400   1.300  0.1718  0.1673  0.1682
    6CHTO   O83 2144   4.041   2.518   1.226 -0.5906  0.2587  0.0513
    6CHTO  H204 2145   3.969   2.562   1.260 -0.8264 -1.5727  2.9527
    6CHTO  C109 2146   4.138   2.485   1.527  0.0294  0.0458 -0.7620
    6CHTO  H213 2147   4.099   2.586   1.496  1.3884  2.8246 -1.5539
    6CHTO  C110 2148   4.268   2.507   1.614  0.6595  0.1958 -0.6390
    6CHTO  H214 2149   4.307   2.408   1.646  1.6334 -0.3818 -0.0741
    6CHTO   O78 2150   4.228   2.574   1.736 -0.0604  0.3576 -0.2749
    6CHTO  H200 2151   4.240   2.516   1.812 -0.0861  0.8375  1.2767
    6CHTO  C111 2152   4.377   2.581   1.529 -0.4367  0.6751  0.3260
    6CHTO  H215 2153   4.334   2.671   1.486 -0.0401  1.6159  2.4696
    6CHTO   N19 2154   4.497   2.618   1.608 -0.3857  0.2103  0.4212
    6CHTO  H207 2155   4.527   2.723   1.589 -0.2889 -2.3868 -1.3321
    6CHTO  H208 2156   4.492   2.610   1.714  4.3979  0.2190  2.2162
    6CHTO   O74 2157   4.036   2.416   1.610  0.1337 -0.0265  0.3798
    6CHTO  C115 2158   3.890   2.491   1.611  0.1220 -0.2366  0.1277
    6CHTO  H219 2159   3.898   2.597   1.584 -0.6478 -3.6583 -1.6874
    6CHTO   O76 2160   3.793   2.432   1.504 -0.7313  0.1563 -0.5194
    6CHTO  C122 2161   3.790   2.290   1.525 -0.3450 -0.0078  0.4694
    6CHTO  H226 2162   3.886   2.250   1.493 -0.0471  0.4524  1.8789
    6CHTO  C126 2163   3.683   2.223   1.430  0.2722  0.0652  0.1511
    6CHTO   O85 2164   3.550   2.261   1.455  0.1116 -0.1807 -0.6879
    6CHTO  H206 2165   3.490   2.235   1.391  0.8390  1.2630  0.4110
    6CHTO  C121 2166   3.758   2.251   1.674 -0.3128  1.0994  0.1718
    6CHTO  H225 2167   3.675   2.172   1.681 -0.7051 -0.8202 -1.9761
    6CHTO   O81 2168   3.874   2.183   1.724 -0.2804 -0.0374  0.8046
    6CHTO  H202 2169   3.850   2.111   1.774  0.5533 -0.9110  1.5316
    6CHTO  C119 2170   3.713   2.376   1.761  0.0522  0.0134 -0.1946
    6CHTO  H223 2171   3.625   2.415   1.712  2.2962  0.1194  0.3466
    6CHTO  C117 2172   3.822   2.487   1.759  0.3308 -0.0050  0.0379
    6CHTO  H221 2173   3.898   2.460   1.823  1.2858  0.2072 -0.5052
    6CHTO   N20 2174   3.776   2.616   1.810  0.5908  0.0857  0.0505
    6CHTO  H209 2175   3.747   2.688   1.732 -1.9375 -1.4209 -3.9876
    6CHTO  H210 2176   3.699   2.596   1.879 -0.8961  0.4225 -3.2890
    6CHTO   O80 2177   3.655   2.336   1.898  0.6600  0.3012  0.2134
    6CHTO  C103 2178   3.747   2.244   2.011  0.7170  0.3641  0.3683
    6CHTO  H190 2179   3.784   2.150   1.976 -0.3827  0.5973  4.0434
    6CHTO  C101 2180   3.873   2.306   2.083  0.0969  0.0652 -0.2648
    6CHTO  H188 2181   3.866   2.406   2.120 -1.5122 -0.5278 -0.5577
    6CHTO   O68 2182   3.987   2.303   1.999  0.2371  0.6028 -0.1379
    6CHTO  H168 2183   4.058   2.337   2.048 -1.9912  1.5416 -1.2738
    6CHTO   C99 2184   3.905   2.207   2.212 -0.8397 -0.1135 -0.6146
    6CHTO  H186 2185   3.933   2.102   2.167  0.3361 -2.0160  2.5113
    6CHTO   N17 2186   4.015   2.246   2.302  0.4144  0.0585  0.1497
    6CHTO  H174 2187   4.087   2.167   2.300 -1.6627 -1.0013 -0.6736
    6CHTO  H175 2188   4.060   2.350   2.281 -2.0442 -1.0031 -3.8227
    6CHTO   C97 2189   3.780   2.175   2.300 -0.2677 -0.7669  0.5241
    6CHTO  H184 2190   3.759   2.262   2.353  1.7811  0.6355 -1.2988
    6CHTO   O64 2191   3.667   2.127   2.219 -0.3423 -0.0283  0.1047
    6CHTO  C104 2192   3.622   2.215   2.111  0.1359  0.3527  0.2210
    6CHTO  H191 2193   3.588   2.311   2.156  0.4621  1.6531  2.9017
    6CHTO  C108 2194   3.504   2.157   2.032  0.0820 -0.5335 -0.3273
    6CHTO   O71 2195   3.397   2.128   2.119 -0.1674 -0.3531  0.3360
    6CHTO  H171 2196   3.347   2.203   2.121 -0.6464  0.4186  0.8039
    6CHTO   O62 2197   3.815   2.063   2.384  0.3714 -0.1757  0.8903
    6CHTO   C91 2198   3.732   2.051   2.495  0.4315  0.1304  0.3087
    6CHTO  H178 2199   3.665   2.136   2.497  0.9850 -0.0423 -0.7741
    6CHTO   C92 2200   3.823   2.066   2.626  0.7476  0.3119  0.2693
    6CHTO  H179 2201   3.881   2.157   2.622  0.5885 -0.4017 -0.1932
    6CHTO   O66 2202   3.746   2.082   2.747  0.0055 -1.4767 -0.8436
    6CHTO  H166 2203   3.655   2.091   2.723  2.1369  0.2541  0.6892
    6CHTO   C93 2204   3.917   1.939   2.643  0.3958 -0.0469 -0.0893
    6CHTO  H180 2205   3.936   1.929   2.752 -0.9115 -0.7401  0.8642
    6CHTO   N16 2206   4.045   1.952   2.574  0.2037 -0.3494  0.1317
    6CHTO  H172 2207   4.032   1.962   2.469  0.2147  3.1521  0.6166
    6CHTO  H173 2208   4.116   1.875   2.589  0.9115  0.3535  0.1813
    6CHTO   C94 2209   3.847   1.806   2.593 -0.1589  1.0544 -0.2562
    6CHTO  H181 2210   3.888   1.766   2.499 -1.3216  0.7145 -1.6776
    6CHTO   O61 2211   3.706   1.816   2.576  0.2015 -0.0976 -0.2000
    6CHTO   C95 2212   3.650   1.917   2.491  0.5650  0.0093 -0.1922
    6CHTO  H182 2213   3.636   1.878   2.392 -0.6195  1.0876  0.6068
    6CHTO  C106 2214   3.509   1.952   2.551  0.2166 -1.0519  0.0092
    6CHTO   O69 2215   3.431   1.832   2.551  0.2296  0.0837  0.3493
    6CHTO  H169 2216   3.434   1.783   2.474  0.9652  2.4235 -1.2738
    6CHTO   O63 2217   3.853   1.702   2.709 -0.1909  0.4656 -0.5097
    6CHTO   C96 2218   3.968   1.618   2.736 -0.9254  0.1011  0.2614
    6CHTO  H183 2219   4.055   1.679   2.738  0.6309  1.5726  3.2348
    6CHTO   C98 2220   3.991   1.506   2.622 -0.1151  0.4501 -0.3283
    6CHTO  H185 2221   3.990   1.554   2.524 -0.2536  0.9714  0.6814
    6CHTO   O67 2222   4.121   1.452   2.647 -0.0763 -0.5050  0.9180
    6CHTO  H167 2223   4.112   1.393   2.723 -0.4176 -1.4028  0.3718
    6CHTO  C102 2224   3.871   1.399   2.623  0.0051  0.2806  0.0932
    6CHTO  H189 2225   3.908   1.317   2.563  0.5603 -0.1966  2.7071
    6CHTO   N18 2226   3.743   1.440   2.555  0.5009 -0.4316 -0.1156
    6CHTO  H176 2227   3.731   1.544   2.537 -1.6385  1.1198 -1.3435
    6CHTO  H177 2228   3.652   1.409   2.612 -1.5908  0.1178  1.4142
    6CHTO  C105 2229   3.855   1.347   2.768 -1.0314  1.0880  0.3625
    6CHTO  H192 2230   3.756   1.357   2.802 -0.7728  1.1634  0.4622
    6CHTO   O65 2231   3.947   1.409   2.866  0.2299 -0.5723  0.3174
    6CHTO  C100 2232   3.940   1.554   2.867 -0.1110  0.3525  0.6113
    6CHTO  H187 2233   3.840   1.577   2.911  0.2629 -1.4207  0.1386
    6CHTO  C107 2234   4.039   1.599   2.968  0.2594 -0.1185  0.4767
    6CHTO   O70 2235   4.008   1.539   3.092  0.4257 -0.2582  0.2041
    6CHTO  H170 2236   4.050   1.455   3.105 -0.3404  0.5912  1.0210
    6CHTO   O57 2237   3.893   1.193   2.759  0.2891 -0.2758  0.2720
    6CHTO   C85 2238   3.805   1.086   2.811 -0.1555  0.0860 -0.3654
    6CHTO  H157 2239   3.878   0.995   2.828 -0.5340 -0.4888 -1.8563
    6CHTO   C83 2240   3.706   1.038   2.694  0.6540  0.2151  0.3395
    6CHTO  H155 2241   3.760   0.995   2.610  0.9223  0.7199 -1.0929
    6CHTO   O56 2242   3.638   1.149   2.630 -1.0587 -0.0240 -0.2732
    6CHTO  H135 2243   3.589   1.202   2.695 -1.4292  0.7257  2.0158
    6CHTO   C81 2244   3.604   0.928   2.742 -0.1325  0.3184 -0.0520
    6CHTO  H153 2245   3.664   0.835   2.762 -2.2812  2.0078 -0.6737
    6CHTO   N14 2246   3.512   0.881   2.634 -0.1219  0.2045 -0.2065
    6CHTO  H141 2247   3.420   0.936   2.632 -0.4078 -1.0710  1.7344
    6CHTO  H142 2248   3.489   0.773   2.636 -0.3170 -1.4316  0.3105
    6CHTO   C79 2249   3.533   0.974   2.877 -0.2482  0.6588 -0.0509
    6CHTO  H151 2250   3.479   0.887   2.920 -0.1731 -1.1681  1.8605
    6CHTO   O52 2251   3.632   1.005   2.973  0.1732 -0.1228 -0.0323
    6CHTO   C86 2252   3.727   1.115   2.947  0.2425  0.4792  0.1212
    6CHTO  H158 2253   3.668   1.199   2.932  1.5547 -1.6363  2.2879
    6CHTO   C90 2254   3.813   1.146   3.067 -0.1138 -0.0627  0.5220
    6CHTO   O60 2255   3.727   1.190   3.175 -0.4368  0.7428 -0.5382
    6CHTO  H138 2256   3.741   1.130   3.243  0.6498 -0.6158 -0.2810
    6CHTO   O50 2257   3.442   1.081   2.856  0.4624  0.5435  0.0302
    6CHTO   C73 2258   3.305   1.127   2.887  0.1228  0.0455 -0.3189
    6CHTO  H145 2259   3.245   1.034   2.908 -0.9799  0.8190 -2.6560
    6CHTO   C74 2260   3.244   1.203   2.766 -0.0321 -0.3029  0.6980
    6CHTO  H146 2261   3.259   1.137   2.680  1.7688  1.9056 -2.3782
    6CHTO   O54 2262   3.107   1.222   2.789  0.1788  0.7365 -0.0774
    6CHTO  H133 2263   3.054   1.144   2.774 -0.3011 -0.3853  0.9959
    6CHTO   C75 2264   3.321   1.344   2.750  0.2913  0.1262  0.0464
    6CHTO  H147 2265   3.432   1.327   2.733  0.9923  2.0707 -0.2682
    6CHTO   N13 2266   3.286   1.417   2.621 -0.2861  0.4049  1.0686
    6CHTO  H139 2267   3.382   1.427   2.562  1.3102 -0.5638 -1.1311
    6CHTO  H140 2268   3.244   1.516   2.638 -0.0162  0.7000  1.3224
    6CHTO   C76 2269   3.308   1.437   2.880  0.0697  0.3527 -0.2528
    6CHTO  H148 2270   3.208   1.473   2.903 -0.7319 -0.8026 -0.3425
    6CHTO   O49 2271   3.353   1.356   2.995 -0.2104 -0.2614 -0.8725
    6CHTO   C77 2272   3.302   1.223   3.014  0.0438  0.5146 -0.5771
    6CHTO  H149 2273   3.197   1.236   3.043 -1.0672 -1.4860  2.2917
    6CHTO   C88 2274   3.376   1.155   3.133 -0.2045  0.1618  0.5716
    6CHTO   O58 2275   3.326   1.225   3.253  0.4098  0.1830  0.4634
    6CHTO  H136 2276   3.316   1.314   3.233  1.8726 -0.0242 -2.0752
    6CHTO   O51 2277   3.418   1.544   2.865 -0.1215 -0.2398 -0.5080
    6CHTO   C78 2278   3.414   1.651   2.969 -1.1045 -0.6862  0.7748
    6CHTO  H150 2279   3.356   1.620   3.061 -3.7166 -1.2101 -0.6512
    6CHTO   C80 2280   3.349   1.776   2.910  0.0787 -0.0970 -0.2664
    6CHTO  H152 2281   3.393   1.794   2.816  0.5065  1.2195  1.9163
    6CHTO   O55 2282   3.207   1.741   2.897  0.0171 -0.3629 -0.1644
    6CHTO  H134 2283   3.164   1.746   2.982  0.4753 -1.4882  2.7737
    6CHTO   C84 2284   3.386   1.909   2.996 -0.9994 -0.2288 -0.2322
    6CHTO  H156 2285   3.319   1.905   3.089 -3.4557 -2.4829  1.7944
    6CHTO   N15 2286   3.340   2.034   2.928 -0.4947 -0.1378 -0.2938
    6CHTO  H143 2287   3.419   2.072   2.863 -0.7200  1.9677 -1.4001
    6CHTO  H144 2288   3.254   2.014   2.870  0.4267 -0.9917  1.0855
    6CHTO   C87 2289   3.539   1.906   3.022  0.5923 -0.5673  0.1233
    6CHTO  H159 2290   3.583   1.895   2.922  0.9419 -0.4618 -0.2250
    6CHTO   O53 2291   3.566   1.795   3.096  0.5266 -0.5367 -0.2410
    6CHTO   C82 2292   3.556   1.676   3.017  0.1547  0.7065  0.0388
    6CHTO  H154 2293   3.613   1.691   2.929  1.2532 -0.1806  1.5164
    6CHTO   C89 2294   3.615   1.553   3.089  0.8150 -0.1301 -0.1383
    6CHTO   O59 2295   3.646   1.438   3.005 -0.2803 -0.7508 -0.0053
    6CHTO  H137 2296   3.721   1.454   2.949 -1.3743  0.7848  1.5929
    6CHTO   O45 2297   3.601   2.040   3.111 -0.4350 -0.0960  0.9477
    6CHTO   C67 2298   3.735   2.022   3.164  0.2793  0.2528 -0.4576
    6CHTO  H124 2299   3.741   1.927   3.189  0.2336  1.2373 -0.8026
    6CHTO   C65 2300   3.849   2.043   3.058  0.0693 -0.5003  0.9146
    6CHTO  H122 2301   3.807   2.100   2.973 -0.3005 -0.5042 -1.8317
    6CHTO   O44 2302   3.892   1.908   3.012  0.2344  0.4273 -0.6295
    6CHTO  H102 2303   3.869   1.841   3.077  0.3325 -0.0782  4.0893
    6CHTO   C63 2304   3.968   2.125   3.117 -0.2505 -0.2838  0.7697
    6CHTO  H120 2305   3.945   2.227   3.129  3.3394 -0.1357  1.5935
    6CHTO   N11 2306   4.087   2.142   3.020  0.0305 -0.1627 -0.4359
    6CHTO  H108 2307   4.162   2.200   3.071 -0.1636 -0.4689  1.8304
    6CHTO  H109 2308   4.055   2.198   2.937  0.2733 -0.0009 -0.0313
    6CHTO   C61 2309   4.012   2.071   3.260  0.4489 -0.8013  0.2417
    6CHTO  H118 2310   4.087   2.140   3.295 -0.0967 -2.6662  0.8063
    6CHTO   O40 2311   3.898   2.074   3.360 -0.2460 -0.0088 -0.4210
    6CHTO   C68 2312   3.759   2.102   3.303  0.1299  0.4941  0.1520
    6CHTO  H125 2313   3.748   2.213   3.270 -2.9322 -0.9335 -1.5091
    6CHTO   C72 2314   3.654   2.073   3.413  0.0323  0.5924  0.3229
    6CHTO   O48 2315   3.522   2.121   3.376  0.0958  0.0363 -0.2961
    6CHTO  H105 2316   3.511   2.212   3.398  2.1883 -2.5028 -2.4888
    6CHTO   O38 2317   4.065   1.938   3.248  0.5851 -0.2326 -0.1542
    6CHTO   C55 2318   4.169   1.899   3.343  0.2445 -0.2740  0.8300
    6CHTO  H112 2319   4.159   1.963   3.432  0.1820  1.1764  0.8322
    6CHTO   C56 2320   4.317   1.908   3.274 -0.4758 -0.2480 -0.2575
    6CHTO  H113 2321   4.313   1.855   3.176  0.0268 -0.6364 -0.6192
    6CHTO   O42 2322   4.358   2.043   3.232 -0.2556 -0.1803 -0.3305
    6CHTO  H100 2323   4.352   2.100   3.301 -2.5922 -0.2584  0.8651
    6CHTO   C57 2324   4.424   1.846   3.371 -0.2768 -0.3970 -0.2390
    6CHTO  H114 2325   4.426   1.916   3.459  0.9912  0.7328  0.4361
    6CHTO   N10 2326   4.563   1.850   3.318 -0.0628 -0.1182  0.3672
    6CHTO  H106 2327   4.557   1.811   3.209  2.3673 -2.2953 -0.4437
    6CHTO  H107 2328   4.615   1.945   3.323  1.4031  0.5498  1.3857
    6CHTO   C58 2329   4.381   1.705   3.420 -0.3522 -0.0527  0.1209
    6CHTO  H115 2330   4.390   1.638   3.335 -1.9468 -0.0332 -0.5729
    6CHTO   O37 2331   4.245   1.708   3.469  0.3657  0.4465  0.0169
    6CHTO   C59 2332   4.137   1.753   3.389 -0.1563 -0.1735  0.9031
    6CHTO  H116 2333   4.117   1.681   3.309 -0.1482 -2.0984 -2.4133
    6CHTO   C70 2334   4.014   1.759   3.481  0.0556 -1.0566 -0.0507
    6CHTO   O46 2335   3.891   1.770   3.400 -0.0573  0.1415 -0.6407
    6CHTO  H103 2336   3.834   1.704   3.439 -0.3571 -0.0798 -1.2188
    6CHTO   O39 2337   4.486   1.653   3.529  0.1666  0.4676  0.0957
    6CHTO   C60 2338   4.446   1.683   3.658 -0.0691  0.4166 -0.4260
    6CHTO  H117 2339   4.391   1.780   3.666 -1.8100 -0.3757  1.1100
    6CHTO   C62 2340   4.360   1.557   3.716  0.3789 -0.3263 -0.8059
    6CHTO  H119 2341   4.267   1.538   3.650 -0.7808  0.0958  0.6296
    6CHTO   O43 2342   4.430   1.428   3.715 -0.5759 -0.3679 -0.0948
    6CHTO  H101 2343   4.412   1.369   3.642 -0.8674 -0.3082 -1.1028
    6CHTO   C66 2344   4.314   1.596   3.864  0.0794  0.4876 -0.8821
    6CHTO  H123 2345   4.267   1.689   3.854  0.9922  2.0382  0.0847
    6CHTO   N12 2346   4.207   1.503   3.907 -0.1648 -0.9157 -0.1521
    6CHTO  H110 2347   4.250   1.445   3.985  0.6732  1.3170  0.9481
    6CHTO  H111 2348   4.130   1.571   3.953  1.5236 -1.4077 -0.6896
    6CHTO   C69 2349   4.445   1.607   3.943  0.3747 -0.9159 -0.3386
    6CHTO  H126 2350   4.490   1.507   3.965  0.9904 -0.4365  2.5741
    6CHTO   O41 2351   4.540   1.715   3.878  0.4287 -0.6152 -0.4941
    6CHTO   C64 2352   4.573   1.699   3.726  0.0050 -0.4258  0.0617
    6CHTO  H121 2353   4.646   1.613   3.707 -0.2173 -1.3222  0.5513
    6CHTO   C71 2354   4.648   1.832   3.696 -0.2972  0.1712  0.0297
    6CHTO   O47 2355   4.758   1.870   3.775  0.2792 -1.1638 -0.2115
    6CHTO  H104 2356   4.794   1.805   3.825 -0.7996  1.5857 -1.0958
    6CHTO   O34 2357   4.408   1.670   4.074 -0.2577 -0.1303 -0.0420
    6CHTO   C49 2358   4.410   1.741   4.208  0.5131 -0.9088 -0.3083
    6CHTO   H91 2359   4.461   1.686   4.289  2.7808  0.2607  1.2412
    6CHTO   C47 2360   4.261   1.758   4.256 -0.7125 -0.1641 -0.2094
    6CHTO   H89 2361   4.263   1.788   4.363  0.0249 -1.4004  0.3618
    6CHTO   O33 2362   4.184   1.636   4.251  0.6889  0.1440  0.1746
    6CHTO   H70 2363   4.109   1.629   4.308 -0.5135 -0.1236  0.9953
    6CHTO   C45 2364   4.180   1.876   4.175  0.0968 -0.5535  1.1538
    6CHTO   H87 2365   4.104   1.835   4.105  3.8226  0.3913  1.7446
    6CHTO    N8 2366   4.101   1.954   4.274  0.7873 -0.3686  0.4613
    6CHTO   H75 2367   4.167   2.030   4.306 -0.8271  2.2792 -1.6123
    6CHTO   H76 2368   4.074   1.880   4.355 -1.1092  0.5185  1.1202
    6CHTO   C43 2369   4.273   1.956   4.073 -0.8596  0.0673  0.0385
    6CHTO   H85 2370   4.301   1.891   3.989 -0.4028  2.1558  0.5956
    6CHTO   O29 2371   4.391   1.996   4.144  0.1886 -0.6702 -0.3561
    6CHTO   C50 2372   4.471   1.886   4.194 -0.1155  0.6344 -0.0031
    6CHTO   H92 2373   4.554   1.874   4.121 -0.1494 -1.0905 -0.4627
    6CHTO   C54 2374   4.537   1.939   4.329 -0.5318  0.0387 -0.5836
    6CHTO   O36 2375   4.645   2.027   4.304  0.2639  0.4060 -0.4131
    6CHTO   H72 2376   4.651   2.041   4.210 -0.9433 -0.9076  2.8121
    6CHTO   O27 2377   4.207   2.069   4.008 -0.0965  0.5217 -0.2983
    6CHTO   C37 2378   4.133   2.076   3.883 -0.5074 -0.1335  0.1573
    6CHTO   H79 2379   4.105   1.981   3.844  0.8817 -1.8689 -2.9715
    6CHTO   C38 2380   3.992   2.148   3.902  0.3027 -0.5572 -0.9498
    6CHTO   H80 2381   4.004   2.248   3.954  0.4562  2.5283 -1.4703
    6CHTO   O31 2382   3.914   2.055   3.980 -0.2012  0.2513 -0.0305
    6CHTO   H68 2383   3.932   2.052   4.072  0.1051 -0.5969  0.4816
    6CHTO   C39 2384   3.929   2.183   3.764  0.6790  0.8075  0.8151
    6CHTO   H81 2385   3.911   2.096   3.709  1.5046  0.6779 -1.0137
    6CHTO    N7 2386   3.790   2.237   3.766 -0.4215  0.2662 -0.5476
    6CHTO   H73 2387   3.769   2.266   3.873 -1.3026 -0.3782  3.3063
    6CHTO   H74 2388   3.774   2.308   3.690 -0.3139 -1.1981 -0.7798
    6CHTO   C40 2389   4.034   2.262   3.672  0.3161 -0.7071  0.1834
    6CHTO   H82 2390   4.061   2.350   3.726 -0.9145  0.5332  1.1246
    6CHTO   O26 2391   4.143   2.170   3.655  0.3110  0.2546  0.2559
    6CHTO   C41 2392   4.218   2.147   3.774 -0.1380 -0.7716  0.3556
    6CHTO   H83 2393   4.258   2.247   3.807  1.8639  1.9835  0.3692
    6CHTO   C52 2394   4.346   2.063   3.729  0.4577  0.2513  0.6477
    6CHTO   O35 2395   4.427   2.131   3.628  0.1850  0.5060  0.0905
    6CHTO   H71 2396   4.453   2.215   3.659  2.7423 -1.6292  1.0159
    6CHTO   O28 2397   3.998   2.293   3.537 -0.2229 -0.4044  0.0432
    6CHTO   C42 2398   4.031   2.422   3.470  0.6909  0.1884 -0.3664
    6CHTO   H84 2399   3.986   2.414   3.371  0.0979  2.2433  1.8290
    6CHTO   C44 2400   4.181   2.446   3.451 -0.5876 -0.1859  0.5523
    6CHTO   H86 2401   4.229   2.430   3.543 -2.3646  1.1347 -0.5066
    6CHTO   O32 2402   4.227   2.354   3.352 -0.4653  0.4643 -0.5903
    6CHTO   H69 2403   4.231   2.266   3.393 -0.7687  3.8549 -0.7182
    6CHTO   C48 2404   4.229   2.595   3.410 -0.1916 -0.3530 -0.6546
    6CHTO   H90 2405   4.221   2.599   3.304  0.2250  0.6636 -0.1476
    6CHTO    N9 2406   4.379   2.619   3.427 -0.0470 -0.2516  0.0697
    6CHTO   H77 2407   4.417   2.711   3.457  1.5351 -1.6121  1.0699
    6CHTO   H78 2408   4.423   2.578   3.335 -2.2400 -1.5009 -2.3608
    6CHTO   C51 2409   4.142   2.704   3.484  0.4482 -0.2823  0.1518
    6CHTO   H93 2410   4.170   2.702   3.582 -0.0952 -2.3102 -0.2612
    6CHTO   O30 2411   4.002   2.661   3.466 -0.4714 -0.6077  0.1513
    6CHTO   C46 2412   3.964   2.550   3.534 -0.1982 -0.5747 -0.3189
    6CHTO   H88 2413   3.984   2.568   3.639  0.2481 -1.5587 -0.9351
    6CHTO   C53 2414   3.806   2.550   3.521 -0.2536  0.0303 -0.6480
    6CHTO   O72 2415   3.751   2.652   3.605  0.1734 -0.3283 -0.7258
    6CHTO  H199 2416   3.758   2.635   3.695  1.0707  1.1000 -0.9617
    6CHTO   O22 2417   4.157   2.830   3.421  0.2560  0.3838  0.2411
    6CHTO   C31 2418   4.094   2.960   3.470  0.6056  0.2677  0.4660
    6CHTO   H59 2419   4.136   3.035   3.415  2.8530  2.8137  1.7243
    6CHTO   C29 2420   3.939   2.966   3.452 -0.5846 -0.1945  0.9464
    6CHTO   H57 2421   3.892   2.897   3.526  0.4669 -3.6509  0.4994
    6CHTO   O21 2422   3.898   2.929   3.320 -1.0003 -0.0033  0.1069
    6CHTO   H37 2423   3.814   2.892   3.327 -1.0830 -0.8587  0.4400
    6CHTO   C27 2424   3.892   3.109   3.480  0.5837 -0.5831 -0.0996
    6CHTO   H55 2425   3.922   3.172   3.403 -1.3470 -0.1152 -1.5441
    6CHTO    N5 2426   3.745   3.110   3.482  0.2390  0.5447 -0.0538
    6CHTO   H43 2427   3.694   3.100   3.389  1.5580 -0.6051  2.1085
    6CHTO   H44 2428   3.699   3.053   3.563  2.4154  2.6452 -1.0587
    6CHTO   C25 2429   3.942   3.163   3.617 -0.2136 -0.4819  0.0722
    6CHTO   H53 2430   3.888   3.127   3.709 -0.9453 -0.0658  0.1934
    6CHTO   O17 2431   4.085   3.134   3.639  0.1233 -0.3074 -0.9449
    6CHTO   C32 2432   4.124   3.003   3.620  0.1959 -0.5707 -0.1238
    6CHTO   H60 2433   4.069   2.934   3.686 -2.3934  1.0876 -2.8633
    6CHTO   C36 2434   4.276   2.984   3.644 -0.3178  0.1421 -0.1367
    6CHTO   O25 2435   4.315   3.032   3.773 -0.5872 -1.0181 -0.0549
    6CHTO   H40 2436   4.391   2.983   3.795 -2.1199 -0.7732  3.1012
    6CHTO   O15 2437   3.918   3.311   3.611 -0.1864  0.1516 -0.0689
    6CHTO   C19 2438   3.981   3.438   3.622 -0.6283  0.2423  0.9895
    6CHTO   H47 2439   4.048   3.424   3.705  1.3113 -0.1183  0.2605
    6CHTO   C20 2440   4.068   3.458   3.500  0.0277 -0.1721  0.9117
    6CHTO   H48 2441   4.008   3.460   3.409 -3.8422 -0.1581 -2.1449
    6CHTO   O19 2442   4.158   3.354   3.489 -0.0133 -0.2821 -0.3059
    6CHTO   H35 2443   4.188   3.322   3.574  3.1748  0.7018 -0.2927
    6CHTO   C21 2444   4.146   3.596   3.512 -0.7534  0.5297  0.0033
    6CHTO   H49 2445   4.210   3.585   3.593 -1.2807  1.2441  0.2469
    6CHTO    N4 2446   4.230   3.644   3.394 -0.4738  0.7349 -0.0927
    6CHTO   H41 2447   4.306   3.579   3.372 -0.3347 -1.6545  0.9479
    6CHTO   H42 2448   4.272   3.737   3.420  3.7748 -1.9920 -0.8094
    6CHTO   C22 2449   4.055   3.718   3.550 -0.3220  0.0140 -0.4102
    6CHTO   H50 2450   3.995   3.733   3.462  1.5274 -1.0186 -0.0426
    6CHTO   O14 2451   3.972   3.677   3.662  0.8824  0.1494  0.1868
    6CHTO   C23 2452   3.894   3.557   3.646  0.2676  0.0901  0.2591
    6CHTO   H51 2453   3.824   3.571   3.568 -0.2187 -0.7179 -0.1350
    6CHTO   C34 2454   3.808   3.561   3.773 -1.0800  0.2177 -0.4072
    6CHTO   O23 2455   3.709   3.661   3.775  0.1945  0.2281 -0.1569
    6CHTO   H38 2456   3.627   3.621   3.790  1.4005  2.2029  1.7177
    6CHTO   O16 2457   4.124   3.834   3.598  0.3069 -0.3751  0.0968
    6CHTO   C24 2458   4.129   3.969   3.481 -0.4061 -0.0481  0.0246
    6CHTO   H52 2459   4.100   3.941   3.379 -2.1687  1.8925  0.1644
    6CHTO   C26 2460   4.273   4.031   3.494 -0.9850 -0.7330 -0.7698
    6CHTO   H54 2461   4.309   4.031   3.601 -0.8813  0.8955 -1.4004
    6CHTO   O20 2462   4.356   3.942   3.420  0.0262 -0.3331 -0.3890
    6CHTO   H36 2463   4.437   3.983   3.408  2.9771  0.6930  0.5813
    6CHTO   C30 2464   4.280   4.176   3.436  0.2994  0.2987  0.3309
    6CHTO   H58 2465   4.264   4.174   3.328 -0.1380  0.2939 -0.6491
    6CHTO    N6 2466   4.419   4.226   3.461 -0.4701  1.1727  0.5115
    6CHTO   H45 2467   4.460   4.257   3.368 -2.8520  2.2783  0.8197
    6CHTO   H46 2468   4.484   4.152   3.512  0.4125 -0.9684  1.7156
    6CHTO   C33 2469   4.160   4.255   3.503 -0.4555 -0.0288  0.5046
    6CHTO   H61 2470   4.174   4.242   3.613 -0.0814  1.3799 -1.9383
    6CHTO   O18 2471   4.038   4.199   3.465  0.6608 -0.1292 -0.3360
    6CHTO   C28 2472   4.021   4.072   3.525  0.0862 -0.0336  0.2418
    6CHTO   H56 2473   4.022   4.078   3.629 -1.7194  1.5484  0.0456
    6CHTO   C35 2474   3.878   4.043   3.484  0.2763 -0.1501  0.2644
    6CHTO   O24 2475   3.829   3.925   3.540 -0.4687  0.3932 -0.2864
    6CHTO   H39 2476   3.818   3.940   3.635 -1.0753  0.1911 -0.2339
    6CHTO    O9 2477   4.160   4.398   3.484  0.3206 -0.0399  0.1245
    6CHTO   C13 2478   4.217   4.473   3.616  0.0693  0.1918 -0.0823
    6CHTO   H26 2479   4.319   4.435   3.622 -2.1273  0.5828  0.5969
    6CHTO   C11 2480   4.136   4.442   3.749 -0.4514  0.4035  0.0309
    6CHTO   H24 2481   4.155   4.342   3.770 -0.2003 -0.6464 -0.7785
    6CHTO    O8 2482   3.995   4.454   3.725  0.0699 -0.6064  0.5440
    6CHTO    H3 2483   3.958   4.369   3.693  2.0510 -1.4826 -0.9872
    6CHTO    C9 2484   4.192   4.533   3.860  0.5103 -0.1358  0.4355
    6CHTO   H22 2485   4.298   4.508   3.869  0.0417  0.3920 -1.0387
    6CHTO    N2 2486   4.132   4.502   3.993 -0.3172 -0.0306 -0.7884
    6CHTO   H10 2487   4.217   4.510   4.064  1.5600  3.9372  0.2922
    6CHTO   H11 2488   4.095   4.403   3.995  0.7518 -1.5765 -1.1879
    6CHTO    C7 2489   4.177   4.679   3.822  0.3736 -0.1692  0.3568
    6CHTO   H20 2490   4.225   4.727   3.899 -0.5720  0.8839 -0.8806
    6CHTO    O4 2491   4.246   4.711   3.698 -0.0605  0.7239  0.4905
    6CHTO   C14 2492   4.221   4.622   3.584  0.0827  0.0192  0.3011
    6CHTO   H27 2493   4.313   4.626   3.518 -0.3447 -0.2858 -2.3684
    6CHTO   C18 2494   4.096   4.675   3.503  0.8522 -0.6711  0.5890
    6CHTO   O13 2495   4.136   4.784   3.411 -0.5314  0.1487 -0.0425
    6CHTO    H7 2496   4.200   4.838   3.453 -0.7340  3.9812 -1.3754
    6CHTO    O2 2497   4.007   4.715   3.803 -0.2348 -0.0380 -0.1831
    6CHTO    C1 2498   3.974   4.849   3.800 -0.2010 -0.2146  0.3231
    6CHTO   H14 2499   3.977   4.887   3.689  0.4944  0.5045  0.5937
    6CHTO    C2 2500   4.060   4.949   3.888 -0.1719 -0.0002 -0.1480
    6CHTO   H15 2501   4.077   4.900   3.992 -0.0877 -0.6523  1.0597
    6CHTO    O6 2502   4.192   4.973   3.836 -1.0714 -0.4581  0.3307
    6CHTO    H1 2503   4.213   5.056   3.796  1.5582 -2.0087  0.4043
    6CHTO    C3 2504   3.990   5.100   3.899 -0.1365  0.1115 -0.0457
    6CHTO   H16 2505   3.992   5.155   3.799  1.8000  0.7603 -0.2748
    6CHTO    N1 2506   4.061   5.190   3.999  0.4693 -0.0769  0.3947
    6CHTO    H8 2507   4.008   5.283   3.984  0.9664  0.0337 -1.9469
    6CHTO    H9 2508   4.166   5.197   3.978  0.9987  1.7419  2.5853
    6CHTO    C4 2509   3.841   5.081   3.943  1.3091 -0.0309  1.1029
    6CHTO   H17 2510   3.835   5.046   4.045 -3.3396 -0.2959 -0.4542
    6CHTO    O1 2511   3.778   4.987   3.853  0.3802 -0.4338 -0.3672
    6CHTO    C5 2512   3.832   4.856   3.850  0.3181 -0.3424  0.1109
    6CHTO   H18 2513   3.839   4.815   3.947 -1.9072  2.7929 -0.5067
    6CHTO   C16 2514   3.740   4.763   3.763  0.5166 -0.4905  0.4138
    6CHTO   O11 2515   3.604   4.751   3.822 -0.3319  0.2003 -0.0281
    6CHTO    H5 2516   3.601   4.696   3.902  2.1221  0.8109 -0.4706
    6CHTO    O3 2517   3.760   5.207   3.930 -0.0400 -0.1586 -0.1565
    6CHTO    C6 2518   3.662   5.219   4.039  0.5335  0.1364 -0.1860
    6CHTO   H19 2519   3.647   5.132   4.099  1.4247 -1.4519 -0.2800
    6CHTO    C8 2520   3.707   5.326   4.145  0.9925 -0.6547 -0.2740
    6CHTO   H21 2521   3.732   5.417   4.088 -0.7694  2.6725 -1.2328
    6CHTO    O7 2522   3.823   5.274   4.211 -0.7801 -0.2048 -0.5076
    6CHTO    H2 2523   3.888   5.340   4.208 -0.4630  0.6894  0.4649
    6CHTO   C12 2524   3.587   5.381   4.236 -0.5171  0.2760 -0.0985
    6CHTO   H25 2525   3.558   5.294   4.301 -0.9954  0.2461 -2.9278
    6CHTO    N3 2526   3.638   5.494   4.324  0.2882 -0.4054  0.2469
    6CHTO   H12 2527   3.652   5.583   4.262  0.1345 -1.3367 -1.0206
    6CHTO   H13 2528   3.729   5.457   4.365  2.9806 -2.5812  0.2541
    6CHTO   C15 2529   3.464   5.412   4.151 -0.5037  0.4213 -0.1124
    6CHTO   H28 2530   3.488   5.505   4.092 -0.5463  0.4543 -0.9698
    6CHTO   O10 2531   3.326   5.437   4.243  0.8814 -0.6932  0.3069
    6CHTO    H4 2532   3.248   5.413   4.189 -2.5973 -1.4481 -0.0298
    6CHTO    O5 2533   3.431   5.295   4.075  1.1297 -0.1845 -0.8739
    6CHTO   C10 2534   3.522   5.254   3.974 -0.5573  0.0936  0.4476
    6CHTO   H23 2535   3.533   5.336   3.911  1.2996  0.1649  0.4977
    6CHTO   C17 2536   3.477   5.139   3.886  0.1739  0.0746  0.2644
    6CHTO   O12 2537   3.489   5.008   3.951  0.1970 -0.1728  0.2194
    6CHTO    H6 2538   3.497   4.937   3.890 -0.2765  0.9293  2.5318
    7CHTO  H203 2539   6.662   1.783   7.138  0.3808  1.6551  1.1065
    7CHTO   O82 2540   6.727   1.721   7.163  0.2492  0.1763 -0.3040
    7CHTO  C123 2541   6.838   1.777   7.228 -0.2366  0.5292 -0.2644
    7CHTO  H227 2542   6.802   1.840   7.304 -0.0388  3.6816  1.7903
    7CHTO   O77 2543   6.881   1.649   7.286 -0.4479  0.0223  0.0795
    7CHTO  C118 2544   7.002   1.666   7.372  0.3297 -1.0094 -0.3573
    7CHTO  H222 2545   6.975   1.741   7.453 -0.4950  0.9844  1.0711
    7CHTO  C125 2546   7.035   1.526   7.430  0.7803 -0.1289  0.7675
    7CHTO   O84 2547   6.971   1.522   7.556 -0.3312 -0.1233  0.0690
    7CHTO  H205 2548   6.881   1.520   7.557 -0.2187  0.6453 -0.3512
    7CHTO  C114 2549   7.116   1.714   7.286  0.0708 -0.1117 -0.1676
    7CHTO  H218 2550   7.132   1.637   7.210 -0.2723 -0.5707 -0.5899
    7CHTO  C116 2551   7.083   1.836   7.202 -0.0199 -0.6165  0.3642
    7CHTO  H220 2552   7.098   1.924   7.262  0.4708  2.2361 -1.0009
    7CHTO   O79 2553   7.186   1.842   7.099  0.2339 -1.1035 -0.6241
    7CHTO  H201 2554   7.166   1.790   7.024  0.3996  0.2074 -2.4075
    7CHTO  C120 2555   6.947   1.831   7.127 -0.1620 -0.1573 -0.1420
    7CHTO  H224 2556   6.964   1.760   7.050 -0.7015  0.9297  1.0953
    7CHTO   N21 2557   6.906   1.954   7.050 -0.0195 -0.7630  0.0329
    7CHTO  H211 2558   6.802   1.961   7.034  0.5701  1.1786  5.0918
    7CHTO  H212 2559   6.962   1.963   6.957 -0.6153 -1.4900  1.0617
    7CHTO   O75 2560   7.226   1.740   7.378  0.1748  0.0752 -0.0524
    7CHTO  C112 2561   7.373   1.751   7.300  0.0359 -0.2334 -0.2695
    7CHTO  H216 2562   7.382   1.839   7.248  1.9923 -0.2523 -0.7928
    7CHTO   O73 2563   7.382   1.640   7.217 -0.4302 -0.0510  0.4347
    7CHTO  C113 2564   7.514   1.622   7.155  0.5203 -0.3251 -0.6358
    7CHTO  H217 2565   7.551   1.718   7.094  1.8075  2.0494  0.3168
    7CHTO  C124 2566   7.509   1.504   7.059 -0.8146  0.0642  0.4276
    7CHTO   O83 2567   7.625   1.484   6.977 -0.5309  0.5956 -0.0495
    7CHTO  H204 2568   7.684   1.555   6.975 -0.1692 -0.3758 -0.8050
    7CHTO  C109 2569   7.625   1.612   7.263  0.1738 -0.9110  0.8979
    7CHTO  H213 2570   7.607   1.517   7.310  1.0264  1.8202  2.7988
    7CHTO  C110 2571   7.619   1.733   7.359 -0.0734  0.2059 -0.1037
    7CHTO  H214 2572   7.656   1.824   7.314 -1.9661 -2.3525  1.2602
    7CHTO   O78 2573   7.714   1.710   7.467  0.0922 -0.0697 -0.1541
    7CHTO  H200 2574   7.685   1.636   7.520  0.6335 -1.8554  2.5086
    7CHTO  C111 2575   7.482   1.756   7.417  0.2177  0.0497 -0.5787
    7CHTO  H215 2576   7.458   1.672   7.481  0.4199  0.1965 -1.4822
    7CHTO   N19 2577   7.468   1.886   7.491  0.3565 -0.3335 -0.7274
    7CHTO  H207 2578   7.375   1.871   7.551 -0.8382  0.3281  0.4792
    7CHTO  H208 2579   7.546   1.890   7.568 -1.6041 -1.4883  1.7061
    7CHTO   O74 2580   7.754   1.607   7.202 -0.4771  0.3617 -0.1130
    7CHTO  C115 2581   7.838   1.495   7.251  0.3139  1.0785 -0.0884
    7CHTO  H219 2582   7.796   1.444   7.333  0.3289 -2.7095 -1.2581
    7CHTO   O76 2583   7.852   1.375   7.137 -0.1388 -0.5353  0.2137
    7CHTO  C122 2584   7.932   1.414   7.023  0.1253 -0.1935  0.5352
    7CHTO  H226 2585   7.862   1.474   6.971 -2.8901  0.0091  0.3637
    7CHTO  C126 2586   7.965   1.292   6.932 -0.1091 -0.3111  0.1096
    7CHTO   O85 2587   7.860   1.196   6.910 -0.1976 -0.0227  0.2661
    7CHTO  H206 2588   7.777   1.236   6.882 -1.4523 -2.2467 -1.1486
    7CHTO  C121 2589   8.062   1.491   7.059  0.2819 -0.4718 -0.1977
    7CHTO  H225 2590   8.147   1.445   7.009 -0.5512 -0.2619  1.3276
    7CHTO   O81 2591   8.057   1.616   6.997  0.2357  0.4602  0.2551
    7CHTO  H202 2592   8.147   1.643   6.992 -0.5917 -0.8882 -2.6929
    7CHTO  C119 2593   8.097   1.502   7.213 -0.0439  0.1525  0.2949
    7CHTO  H223 2594   8.105   1.396   7.239 -3.3043  1.8840 -0.1542
    7CHTO  C117 2595   7.980   1.555   7.293 -0.5614  0.1258  0.2826
    7CHTO  H221 2596   7.973   1.660   7.280 -1.2991  0.5711  4.3399
    7CHTO   N20 2597   8.003   1.532   7.439  0.1790 -0.8017 -0.0769
    7CHTO  H209 2598   7.909   1.535   7.500 -1.2360  0.1170  0.4267
    7CHTO  H210 2599   8.058   1.619   7.474  0.2898  0.2056  1.1343
    7CHTO   O80 2600   8.253   1.563   7.250 -0.2332 -0.3579 -0.4328
    7CHTO  C103 2601   8.285   1.718   7.251 -0.2665  0.6255 -0.9148
    7CHTO  H190 2602   8.223   1.778   7.187 -1.8409  1.0395  0.5688
    7CHTO  C101 2603   8.280   1.782   7.390 -0.2408  0.2681 -0.0368
    7CHTO  H188 2604   8.310   1.709   7.467  1.8136 -2.8335  0.4948
    7CHTO   O68 2605   8.137   1.814   7.414 -0.2767 -0.4004 -0.0754
    7CHTO  H168 2606   8.088   1.778   7.339  1.2932 -3.3366 -1.8212
    7CHTO   C99 2607   8.376   1.914   7.402 -0.0540  0.7652  0.5234
    7CHTO  H186 2608   8.320   1.988   7.348  0.6564  2.5298 -0.1147
    7CHTO   N17 2609   8.395   1.975   7.540  0.0457  0.1865  1.3015
    7CHTO  H174 2610   8.307   1.999   7.590  0.4860  2.5134  0.4286
    7CHTO  H175 2611   8.457   1.911   7.592  1.1362 -1.9729 -2.1870
    7CHTO   C97 2612   8.510   1.890   7.327  0.0015 -0.0781  0.1404
    7CHTO  H184 2613   8.561   1.814   7.393 -0.9897 -2.1935  0.1919
    7CHTO   O64 2614   8.487   1.843   7.191 -0.0419  0.8066  0.4639
    7CHTO  C104 2615   8.429   1.711   7.184  0.1335  0.0002  0.4519
    7CHTO  H191 2616   8.491   1.636   7.238 -0.5709  1.1372  0.1579
    7CHTO  C108 2617   8.423   1.670   7.033 -0.4872  0.3712  0.2748
    7CHTO   O71 2618   8.332   1.754   6.958 -0.1884  0.2830  0.4012
    7CHTO  H171 2619   8.349   1.747   6.866  0.8359 -1.2959  0.1828
    7CHTO   O62 2620   8.589   2.011   7.312  0.1679  0.1699  0.0458
    7CHTO   C91 2621   8.727   1.997   7.283  0.1684 -0.4212  0.2567
    7CHTO  H178 2622   8.763   1.929   7.361  0.2683 -0.7431 -1.0433
    7CHTO   C92 2623   8.796   2.137   7.308  0.6068  0.3204  0.0732
    7CHTO  H179 2624   8.746   2.179   7.401  1.1090 -3.7923  0.7626
    7CHTO   O66 2625   8.932   2.128   7.347  0.5582  0.0980  0.1694
    7CHTO  H166 2626   8.980   2.087   7.276 -1.0241 -0.1556 -1.5783
    7CHTO   C93 2627   8.786   2.237   7.190  0.2624  0.1720 -0.2197
    7CHTO  H180 2628   8.867   2.308   7.187 -1.6671 -2.8052 -2.3368
    7CHTO   N16 2629   8.661   2.320   7.201  0.4307 -0.2488 -0.4705
    7CHTO  H172 2630   8.667   2.383   7.112 -2.1749 -0.0281  1.7219
    7CHTO  H173 2631   8.569   2.260   7.211 -1.0483 -3.5321 -1.5072
    7CHTO   C94 2632   8.778   2.164   7.049 -0.4200 -0.6940  0.0084
    7CHTO  H181 2633   8.683   2.137   7.020  1.6249 -2.6670  1.0975
    7CHTO   O61 2634   8.840   2.039   7.058 -0.4064 -0.3579 -0.4758
    7CHTO   C95 2635   8.776   1.940   7.138 -1.0674 -1.1730  0.3229
    7CHTO  H182 2636   8.686   1.903   7.086 -1.9173 -1.5449 -2.8413
    7CHTO  C106 2637   8.887   1.819   7.160 -0.1928  0.2293  0.2676
    7CHTO   O69 2638   9.004   1.861   7.238 -0.4828  0.0206  0.0357
    7CHTO  H169 2639   9.047   1.786   7.280 -0.4467 -2.3186 -3.0317
    7CHTO   O63 2640   8.852   2.257   6.942 -0.3032 -0.2115 -0.4321
    7CHTO   C96 2641   8.815   2.235   6.796  0.0920 -0.7018 -0.5316
    7CHTO  H183 2642   8.821   2.134   6.758 -2.3908 -1.4059  0.8334
    7CHTO   C98 2643   8.910   2.313   6.701  0.4417 -0.0349 -0.6687
    7CHTO  H185 2644   9.012   2.298   6.736  0.0801 -0.9121 -2.0223
    7CHTO   O67 2645   8.908   2.262   6.574 -0.8617 -0.0219  0.3395
    7CHTO  H167 2646   8.968   2.309   6.515 -1.3941  1.0004  2.4915
    7CHTO  C102 2647   8.874   2.470   6.697 -0.5388  0.7963 -0.9856
    7CHTO  H189 2648   8.919   2.506   6.608  0.1027 -2.0034  1.9935
    7CHTO   N18 2649   8.936   2.544   6.807  0.1967 -0.0902 -0.9777
    7CHTO  H176 2650   8.934   2.648   6.785  1.7171  1.3335 -0.7276
    7CHTO  H177 2651   8.877   2.524   6.897  1.0731  3.2809  0.8482
    7CHTO  C105 2652   8.720   2.493   6.686 -0.0057  0.5487  0.6183
    7CHTO  H192 2653   8.681   2.538   6.774  2.2959 -1.4680 -0.3288
    7CHTO   O65 2654   8.643   2.376   6.664 -0.2006  0.4422 -0.0924
    7CHTO  C100 2655   8.656   2.280   6.772 -0.5844 -0.0406 -0.3230
    7CHTO  H187 2656   8.625   2.326   6.857  0.0259  0.2173 -1.1576
    7CHTO  C107 2657   8.566   2.157   6.739 -0.5732 -0.5283 -0.1891
    7CHTO   O70 2658   8.443   2.178   6.789  0.5126 -0.4776  0.6084
    7CHTO  H170 2659   8.434   2.161   6.882 -1.6728  1.5399  1.6251
    7CHTO   O57 2660   8.725   2.595   6.547 -0.3059 -0.6714  0.1188
    7CHTO   C85 2661   8.645   2.718   6.559 -0.6260  0.0245 -0.1262
    7CHTO  H157 2662   8.673   2.760   6.664  1.6292  4.3119  1.0630
    7CHTO   C83 2663   8.492   2.693   6.550  0.1751 -0.1860  0.0409
    7CHTO  H155 2664   8.469   2.631   6.636 -1.0720  4.2843  0.8576
    7CHTO   O56 2665   8.450   2.614   6.444  1.0223  0.2106  0.0673
    7CHTO  H135 2666   8.458   2.665   6.362  0.6621  2.6343 -1.9230
    7CHTO   C81 2667   8.408   2.824   6.565  0.3391 -0.5113 -0.3888
    7CHTO  H153 2668   8.446   2.869   6.654 -0.3077 -3.2076 -2.2951
    7CHTO   N14 2669   8.262   2.831   6.580 -0.1056  0.1777 -0.4649
    7CHTO  H141 2670   8.220   2.824   6.674 -2.5032 -0.2610 -2.7197
    7CHTO  H142 2671   8.220   2.755   6.526  0.3466  1.1843  0.8390
    7CHTO   C79 2672   8.444   2.922   6.445  0.0077  0.0342  0.4933
    7CHTO  H151 2673   8.397   3.021   6.465 -2.6098 -0.9409  1.0657
    7CHTO   O52 2674   8.591   2.946   6.449 -0.0194 -0.5473 -0.1207
    7CHTO   C86 2675   8.675   2.818   6.442  0.4486 -0.2683  0.0630
    7CHTO  H158 2676   8.648   2.769   6.341 -2.7164 -0.4415 -0.0427
    7CHTO   C90 2677   8.824   2.859   6.435 -0.1275  0.2057  0.6122
    7CHTO   O60 2678   8.866   2.941   6.545  0.8754  0.5205 -0.5499
    7CHTO  H138 2679   8.925   2.999   6.504  1.1309  0.3127 -1.4630
    7CHTO   O50 2680   8.397   2.879   6.318  0.1167  0.0642  0.7566
    7CHTO   C73 2681   8.368   2.909   6.185  0.3176 -0.0643  0.1208
    7CHTO  H145 2682   8.287   2.983   6.181 -1.1873  2.5061  4.0000
    7CHTO   C74 2683   8.324   2.783   6.115 -0.6220  0.8061  0.1905
    7CHTO  H146 2684   8.254   2.743   6.184  1.5801 -0.2672 -0.9567
    7CHTO   O54 2685   8.253   2.813   5.993 -0.0063  0.1751  0.0888
    7CHTO  H133 2686   8.313   2.828   5.919  0.8653  2.2859  1.7637
    7CHTO   C75 2687   8.445   2.677   6.084  0.7578  0.5503  0.3837
    7CHTO  H147 2688   8.475   2.631   6.179  0.4899 -0.2477 -1.2613
    7CHTO   N13 2689   8.409   2.548   6.016  0.1364  0.6310 -0.3574
    7CHTO  H139 2690   8.431   2.551   5.910 -0.9763  1.1866 -1.1091
    7CHTO  H140 2691   8.463   2.469   6.063 -0.7022 -0.6599 -0.2724
    7CHTO   C76 2692   8.571   2.752   6.016  0.0140  0.0098 -0.1033
    7CHTO  H148 2693   8.537   2.778   5.920 -1.2498  1.3132 -1.4766
    7CHTO   O49 2694   8.605   2.867   6.099 -0.1527  0.1230  0.2563
    7CHTO   C77 2695   8.490   2.954   6.101  0.2054  0.3753 -0.2751
    7CHTO  H149 2696   8.458   2.975   5.997  1.5926  0.0563 -1.0304
    7CHTO   C88 2697   8.534   3.092   6.152  0.1013  0.3336 -0.6516
    7CHTO   O58 2698   8.644   3.153   6.034 -0.2647  0.6756 -0.0285
    7CHTO  H136 2699   8.725   3.165   6.071  0.5616 -2.1461  0.5434
    7CHTO   O51 2700   8.705   2.638   6.013  0.1293  0.2301 -0.0355
    7CHTO   C78 2701   8.837   2.695   6.092 -0.2667 -0.6012  0.4883
    7CHTO  H150 2702   8.809   2.756   6.181  0.2879 -2.9242  0.6798
    7CHTO   C80 2703   8.927   2.774   5.993  1.0639  0.4284  0.2974
    7CHTO  H152 2704   8.949   2.704   5.911 -2.0833 -2.1756  2.3866
    7CHTO   O55 2705   8.846   2.883   5.937  0.2823  0.1364 -0.2889
    7CHTO  H134 2706   8.862   2.888   5.844  0.8021 -0.1118 -0.2376
    7CHTO   C84 2707   9.058   2.817   6.069 -0.2713 -0.1275  0.0548
    7CHTO  H156 2708   9.017   2.869   6.158 -1.5802 -0.1535 -1.2773
    7CHTO   N15 2709   9.146   2.902   5.989  0.5645 -0.7480  1.0030
    7CHTO  H143 2710   9.219   2.946   6.049  0.5798  1.3709 -1.3399
    7CHTO  H144 2711   9.188   2.861   5.903 -3.6671  0.4141  3.4376
    7CHTO   C87 2712   9.130   2.690   6.126  0.1870 -0.1873 -0.0283
    7CHTO  H159 2713   9.170   2.623   6.058 -0.3655  2.2712  0.5135
    7CHTO   O53 2714   9.031   2.616   6.228 -0.0788  0.0729  0.1714
    7CHTO   C82 2715   8.912   2.573   6.154 -0.2054  0.6903 -0.4839
    7CHTO  H154 2716   8.940   2.501   6.070  0.0227  1.0030 -0.5649
    7CHTO   C89 2717   8.816   2.488   6.248 -0.1898  0.5058 -0.0612
    7CHTO   O59 2718   8.865   2.359   6.291 -0.4866  0.1178  0.4203
    7CHTO  H137 2719   8.939   2.369   6.348  1.0136 -0.9895  0.0439
    7CHTO   O45 2720   9.244   2.735   6.231  0.1109 -0.4330 -0.1275
    7CHTO   C67 2721   9.307   2.622   6.301  0.7267 -0.1364 -0.3241
    7CHTO  H124 2722   9.239   2.539   6.309 -1.3813 -0.1013 -1.8327
    7CHTO   C65 2723   9.440   2.578   6.226  0.5252 -0.0041  0.3502
    7CHTO  H122 2724   9.467   2.657   6.152 -1.0663  1.2957  0.9517
    7CHTO   O44 2725   9.406   2.457   6.152 -0.1605 -0.1694  0.1645
    7CHTO  H102 2726   9.453   2.442   6.071 -1.8832 -2.4201  0.6712
    7CHTO   C63 2727   9.562   2.581   6.331 -0.1383  0.2854  0.3681
    7CHTO  H120 2728   9.588   2.683   6.354  2.1204 -1.9340  0.0133
    7CHTO   N11 2729   9.690   2.528   6.274 -0.1200 -0.0533 -0.2589
    7CHTO  H108 2730   9.673   2.447   6.208 -1.3236  3.1939  2.3042
    7CHTO  H109 2731   9.751   2.607   6.238 -0.7992 -3.0072  1.0852
    7CHTO   C61 2732   9.514   2.508   6.466 -0.3571 -0.1235  0.0459
    7CHTO  H118 2733   9.596   2.507   6.543  1.2108 -4.4187 -1.4446
    7CHTO   O40 2734   9.396   2.557   6.530 -0.3662 -0.0116 -0.1009
    7CHTO   C68 2735   9.326   2.660   6.448 -0.0568  0.0565 -0.2790
    7CHTO  H125 2736   9.384   2.753   6.451 -1.5778 -0.3492 -1.4980
    7CHTO   C72 2737   9.193   2.699   6.522 -0.3053  0.1773 -0.7160
    7CHTO   O48 2738   9.222   2.791   6.631  0.6194 -0.1908  0.3541
    7CHTO  H105 2739   9.290   2.846   6.605 -1.5986 -1.7583 -1.5554
    7CHTO   O38 2740   9.469   2.375   6.441  0.0434  0.0754 -0.0683
    7CHTO   C55 2741   9.496   2.272   6.540  0.4108  0.4145 -0.2963
    7CHTO  H112 2742   9.494   2.323   6.633  0.9239  0.2158  0.9922
    7CHTO   C56 2743   9.630   2.187   6.521 -0.6176  0.3664  0.6402
    7CHTO  H113 2744   9.617   2.128   6.427  0.0219  0.6764  1.9860
    7CHTO   O42 2745   9.750   2.260   6.517 -0.1504 -0.1950 -0.6925
    7CHTO  H100 2746   9.823   2.232   6.565  0.8802  0.5612  1.4863
    7CHTO   C57 2747   9.639   2.079   6.641  0.3232  0.6337  0.1576
    7CHTO  H114 2748   9.674   2.130   6.726 -0.1630 -1.5738 -0.9157
    7CHTO   N10 2749   9.746   1.976   6.622  0.3020  0.3302  0.3157
    7CHTO  H106 2750   9.829   2.034   6.588  0.8436 -0.1149  2.1118
    7CHTO  H107 2751   9.712   1.902   6.549  1.7424 -2.1514  1.0733
    7CHTO   C58 2752   9.503   2.003   6.683 -0.2186 -0.4497 -0.1952
    7CHTO  H115 2753   9.488   1.909   6.623  0.1275 -0.3900  0.7492
    7CHTO   O37 2754   9.387   2.085   6.667  0.3688  0.2958 -0.0195
    7CHTO   C59 2755   9.379   2.167   6.551 -0.2575  0.1173  0.2097
    7CHTO  H116 2756   9.379   2.103   6.461 -0.4651  2.1890 -0.4585
    7CHTO   C70 2757   9.234   2.232   6.561 -0.0520 -0.1076  0.9616
    7CHTO   O46 2758   9.215   2.322   6.446  0.6832  0.1436  0.7117
    7CHTO  H103 2759   9.180   2.277   6.376  0.5973  0.8209  1.4949
    7CHTO   O39 2760   9.486   1.963   6.837 -0.3724 -0.0527 -0.1861
    7CHTO   C60 2761   9.475   2.065   6.936 -0.0123  0.3804  0.6937
    7CHTO  H117 2762   9.509   2.157   6.882 -1.0002 -1.2524  1.4765
    7CHTO   C62 2763   9.328   2.089   6.977 -0.3833  0.4619  0.1379
    7CHTO  H119 2764   9.281   2.123   6.883  0.3612 -2.3899  0.4375
    7CHTO   O43 2765   9.271   1.960   7.020 -0.2295 -0.1746  0.6691
    7CHTO  H101 2766   9.188   1.966   7.060  0.8603 -1.3175  0.6381
    7CHTO   C66 2767   9.313   2.197   7.087  0.2059 -0.0871 -0.5221
    7CHTO  H123 2768   9.359   2.295   7.057 -1.2203 -0.0268  0.9129
    7CHTO   N12 2769   9.168   2.219   7.116 -0.2687 -0.7961 -0.1629
    7CHTO  H110 2770   9.154   2.300   7.183  1.2311  1.4053 -1.7326
    7CHTO  H111 2771   9.120   2.239   7.023  2.6643 -1.0103  1.8256
    7CHTO   C69 2772   9.387   2.159   7.214  0.4330 -0.0694 -0.7152
    7CHTO  H126 2773   9.363   2.058   7.261 -1.6853  2.4641 -0.4297
    7CHTO   O41 2774   9.536   2.153   7.173  0.0966 -0.4428  0.5580
    7CHTO   C64 2775   9.573   2.034   7.054 -0.3405 -0.1567  1.0130
    7CHTO  H121 2776   9.559   1.927   7.084  0.1424 -0.6144  0.1449
    7CHTO   C71 2777   9.717   2.049   7.008  0.1964 -0.7030 -0.8905
    7CHTO   O47 2778   9.806   2.017   7.120 -0.3981 -0.1529 -0.5041
    7CHTO  H104 2779   9.833   1.928   7.115 -1.2423 -1.7473 -1.7919
    7CHTO   O34 2780   9.364   2.278   7.334  0.0559  0.3467  0.2190
    7CHTO   C49 2781   9.433   2.328   7.450  0.5710 -0.2875  0.5588
    7CHTO   H91 2782   9.384   2.287   7.543 -3.0913 -0.7441 -0.4126
    7CHTO   C47 2783   9.400   2.480   7.445  0.2466  0.2307 -0.3075
    7CHTO   H89 2784   9.441   2.518   7.547 -1.4483  1.0560  0.9204
    7CHTO   O33 2785   9.264   2.497   7.442  0.1384  0.3642 -0.0270
    7CHTO   H70 2786   9.241   2.578   7.478 -0.4715  0.1459  1.5736
    7CHTO   C45 2787   9.476   2.557   7.314 -0.4962  0.2597 -0.0448
    7CHTO   H87 2788   9.415   2.547   7.218 -1.8416  1.4964 -1.5165
    7CHTO    N8 2789   9.485   2.698   7.346  0.0134 -0.4953  0.1115
    7CHTO   H75 2790   9.510   2.763   7.263 -0.2877  1.3553  1.0828
    7CHTO   H76 2791   9.555   2.708   7.429 -0.7097  0.2968 -0.6154
    7CHTO   C43 2792   9.612   2.479   7.278 -0.3200  0.2326  0.1403
    7CHTO   H85 2793   9.585   2.402   7.207 -0.1263  0.9008  3.1347
    7CHTO   O29 2794   9.676   2.422   7.394 -0.4055  0.1323  0.1249
    7CHTO   C50 2795   9.588   2.322   7.455  0.3391 -0.2076 -0.8065
    7CHTO   H92 2796   9.618   2.230   7.404  3.3018  0.4342  0.3540
    7CHTO   C54 2797   9.636   2.289   7.601  0.2920  0.1851  0.1713
    7CHTO   O36 2798   9.770   2.273   7.604  0.2941 -0.3964  0.1413
    7CHTO   H72 2799   9.792   2.201   7.548 -1.2477  1.7811  1.0943
    7CHTO   O27 2800   9.701   2.558   7.197  0.5533 -0.4737  0.0434
    7CHTO   C37 2801   9.827   2.558   7.146 -0.4599  0.0626 -0.2361
    7CHTO   H79 2802   9.904   2.529   7.217  0.7427  1.1735 -0.9256
    7CHTO   C38 2803   9.833   2.444   7.043  0.3403 -0.4929 -0.2473
    7CHTO   H80 2804   9.736   2.434   6.997  0.4961 -0.7425 -0.9355
    7CHTO   O31 2805   9.859   2.321   7.113  0.4317  0.1849 -0.2203
    7CHTO   H68 2806   9.783   2.295   7.165 -0.0946 -2.8003 -1.1547
    7CHTO   C39 2807   9.944   2.470   6.929 -0.4266 -0.4444  0.4065
    7CHTO   H81 2808  10.037   2.410   6.962  2.3051  1.5860 -1.2669
    7CHTO    N7 2809   9.913   2.407   6.796  0.3427 -0.5365  0.1217
    7CHTO   H73 2810   9.812   2.421   6.762 -0.1417 -2.9185 -1.2191
    7CHTO   H74 2811   9.924   2.306   6.807  0.3160  0.3301 -0.9053
    7CHTO   C40 2812   9.977   2.621   6.901  0.5788 -0.6951  0.4853
    7CHTO   H82 2813   9.894   2.666   6.849  1.4059  0.6419  2.4362
    7CHTO   O26 2814   9.995   2.675   7.035  0.3262 -0.2638 -0.2464
    7CHTO   C41 2815   9.865   2.692   7.100  0.3458 -0.4161  0.5340
    7CHTO   H83 2816   9.791   2.725   7.024  3.0489  2.8261 -2.4169
    7CHTO   C52 2817   9.886   2.790   7.216  0.2122 -0.2753  0.0042
    7CHTO   O35 2818   9.936   2.921   7.172  0.1242  0.0776 -0.0972
    7CHTO   H71 2819   9.907   2.947   7.091  1.5370 -4.0540  0.3287
    7CHTO   O28 2820  10.107   2.642   6.843  0.0675  0.4169  0.1586
    7CHTO   C42 2821  10.136   2.747   6.749 -0.1467  0.4825 -0.6373
    7CHTO   H84 2822  10.230   2.719   6.705  0.6653  1.4118 -1.7351
    7CHTO   C44 2823  10.155   2.885   6.817  0.3857 -0.4220 -0.3133
    7CHTO   H86 2824  10.065   2.905   6.878  0.1724 -1.0205  0.4461
    7CHTO   O32 2825  10.268   2.859   6.903  0.0207 -0.0468  0.1318
    7CHTO   H69 2826  10.248   2.907   6.979  0.0276 -1.4306 -2.6294
    7CHTO   C48 2827  10.160   3.007   6.713 -0.0892  0.5420 -0.1353
    7CHTO   H90 2828  10.249   2.997   6.650  1.6046 -1.9531  0.6148
    7CHTO    N9 2829  10.170   3.142   6.779  0.7635  0.5778 -0.0860
    7CHTO   H77 2830  10.105   3.144   6.870 -0.3019  0.7883 -2.2535
    7CHTO   H78 2831  10.270   3.180   6.801  2.6884 -0.6927 -1.5597
    7CHTO   C51 2832  10.045   2.992   6.611  0.1918 -0.4269 -0.2418
    7CHTO   H93 2833   9.946   3.007   6.649  0.1180 -1.4196 -1.3918
    7CHTO   O30 2834  10.057   2.862   6.547 -0.0071 -0.4145  0.0472
    7CHTO   C46 2835  10.032   2.752   6.631  0.0286  1.3335 -0.3882
    7CHTO   H88 2836   9.931   2.767   6.678  3.1368 -3.5560  0.1576
    7CHTO   C53 2837  10.051   2.625   6.550 -0.9693  0.6880  0.0115
    7CHTO   O72 2838   9.951   2.603   6.452  0.2868 -0.6816  0.0703
    7CHTO  H199 2839   9.867   2.563   6.486 -2.0833 -1.7484 -2.3047
    7CHTO   O22 2840  10.066   3.078   6.495 -0.3482  0.2760 -0.1928
    7CHTO   C31 2841   9.964   3.133   6.405  0.7857  0.0167  0.0072
    7CHTO   H59 2842  10.022   3.178   6.310  1.8688 -1.0177 -1.5511
    7CHTO   C29 2843   9.872   3.020   6.351 -0.3139 -0.1788 -0.7737
    7CHTO   H57 2844   9.823   2.971   6.439  1.1859 -1.5012 -0.5529
    7CHTO   O21 2845   9.946   2.926   6.275 -0.3709 -0.5483  0.0163
    7CHTO   H37 2846   9.903   2.845   6.282  3.2353 -0.8459  1.6226
    7CHTO   C27 2847   9.759   3.070   6.256 -0.0105 -1.1146 -0.9959
    7CHTO   H55 2848   9.801   3.103   6.158 -0.5840  2.2631 -2.5192
    7CHTO    N5 2849   9.648   2.979   6.229 -0.0811 -0.4973 -0.2411
    7CHTO   H43 2850   9.686   2.898   6.178 -2.3883 -0.2600 -2.0688
    7CHTO   H44 2851   9.562   3.022   6.181  1.1645  0.6069  4.5638
    7CHTO   C25 2852   9.697   3.204   6.317  0.4627 -0.4276 -0.4812
    7CHTO   H53 2853   9.637   3.185   6.401  0.2773 -2.8873 -1.7094
    7CHTO   O17 2854   9.791   3.296   6.364  0.8435  0.1414 -0.3539
    7CHTO   C32 2855   9.881   3.245   6.464 -0.3555  0.1353  0.0342
    7CHTO   H60 2856   9.824   3.207   6.547  2.8247 -2.4653  0.8445
    7CHTO   C36 2857   9.975   3.361   6.514  0.0841  0.0750  0.5059
    7CHTO   O25 2858   9.903   3.466   6.580  0.1121 -0.2537  0.4945
    7CHTO   H40 2859   9.965   3.529   6.605 -1.9580  1.6404  0.0844
    7CHTO   O15 2860   9.604   3.280   6.220  0.2026 -0.1896 -0.0892
    7CHTO   C19 2861   9.471   3.322   6.259  0.0547  0.2927 -0.1261
    7CHTO   H47 2862   9.441   3.390   6.177  0.0482 -1.9193 -1.3990
    7CHTO   C20 2863   9.368   3.205   6.259  0.2123  0.4054  0.4027
    7CHTO   H48 2864   9.400   3.117   6.327  1.9334 -1.1269 -0.9918
    7CHTO   O19 2865   9.337   3.157   6.123 -0.1679  0.3242  0.0052
    7CHTO   H35 2866   9.415   3.136   6.074 -2.8143 -1.8977 -1.3351
    7CHTO   C21 2867   9.233   3.256   6.328  0.1800 -0.4830  0.6898
    7CHTO   H49 2868   9.206   3.336   6.269  2.0120  1.7832 -0.6411
    7CHTO    N4 2869   9.117   3.161   6.326 -0.7426  0.0228  0.0388
    7CHTO   H41 2870   9.160   3.058   6.335  1.4491 -1.7175 -1.1240
    7CHTO   H42 2871   9.065   3.171   6.234  2.3887 -1.0464 -0.5807
    7CHTO   C22 2872   9.265   3.309   6.468 -0.3930  0.3276 -0.7320
    7CHTO   H50 2873   9.319   3.238   6.530  0.7456 -0.5759  0.6799
    7CHTO   O14 2874   9.348   3.428   6.451 -0.2843  0.0565  0.0867
    7CHTO   C23 2875   9.475   3.406   6.389  0.6945  0.3500  0.1079
    7CHTO   H51 2876   9.536   3.353   6.469  1.7899 -2.7917 -0.1548
    7CHTO   C34 2877   9.537   3.548   6.378  0.3777 -0.2010  0.4305
    7CHTO   O23 2878   9.676   3.559   6.331  0.5088  0.3475 -0.1727
    7CHTO   H38 2879   9.724   3.482   6.363 -0.4386  2.3900  0.4967
    7CHTO   O16 2880   9.150   3.359   6.540 -0.1386 -0.0170 -0.2015
    7CHTO   C24 2881   9.151   3.329   6.699 -0.7033  0.0767 -0.3641
    7CHTO   H52 2882   9.252   3.313   6.739  0.1389  0.0894  0.1560
    7CHTO   C26 2883   9.067   3.205   6.732 -0.2741 -0.3000 -0.2687
    7CHTO   H54 2884   8.965   3.210   6.674  0.9454  0.7085  0.9131
    7CHTO   O20 2885   9.132   3.089   6.685 -0.3542 -0.5539  0.2544
    7CHTO   H36 2886   9.115   3.080   6.591 -0.3856  1.6112 -2.4413
    7CHTO   C30 2887   9.032   3.197   6.889  0.2271  0.0364  0.1521
    7CHTO   H58 2888   9.111   3.190   6.965 -1.8304  1.4409 -2.0914
    7CHTO    N6 2889   8.943   3.084   6.926 -0.0449  0.2885 -0.1029
    7CHTO   H45 2890   8.922   3.092   7.035  0.3996 -1.1986  0.9004
    7CHTO   H46 2891   8.855   3.079   6.861  1.1495 -0.3577 -1.0510
    7CHTO   C33 2892   8.978   3.332   6.939 -0.1128  0.7798 -0.2440
    7CHTO   H61 2893   8.886   3.358   6.888  0.2606  0.8102 -0.1420
    7CHTO   O18 2894   9.089   3.422   6.900  0.1006  0.6111 -0.2614
    7CHTO   C28 2895   9.106   3.455   6.763 -0.2786 -0.0350 -0.2836
    7CHTO   H56 2896   9.013   3.491   6.720  1.0250  1.8044  0.3839
    7CHTO   C35 2897   9.220   3.569   6.756 -0.2921  0.2388  0.3116
    7CHTO   O24 2898   9.209   3.685   6.832 -0.1071  0.1757  0.3291
    7CHTO   H39 2899   9.120   3.713   6.825 -3.1136 -0.5314  1.6324
    7CHTO    O9 2900   8.947   3.344   7.083 -0.5797 -0.1329  0.1115
    7CHTO   C13 2901   8.916   3.473   7.148 -1.1928  0.2055  0.0810
    7CHTO   H26 2902   8.835   3.522   7.089  0.2554 -0.5064 -0.8329
    7CHTO   C11 2903   9.040   3.561   7.163  0.2924  0.0240 -0.3643
    7CHTO   H24 2904   9.063   3.608   7.068  0.1215 -0.1609 -1.0376
    7CHTO    O8 2905   9.158   3.481   7.195 -0.1073  0.2251  0.2733
    7CHTO    H3 2906   9.154   3.456   7.284 -2.2404  0.1326  0.2323
    7CHTO    C9 2907   9.012   3.680   7.252 -0.1281 -0.1720 -0.3218
    7CHTO   H22 2908   8.920   3.718   7.215  0.7245  0.7213  0.7509
    7CHTO    N2 2909   9.120   3.780   7.242 -0.0499 -0.0331 -0.9766
    7CHTO   H10 2910   9.191   3.748   7.168  4.2602  1.4937  0.0099
    7CHTO   H11 2911   9.075   3.875   7.209  0.8144 -0.3112  0.5718
    7CHTO    C7 2912   8.985   3.618   7.399  0.5340 -0.7081 -0.5560
    7CHTO   H20 2913   8.904   3.689   7.430  0.4205  1.9635  0.9295
    7CHTO    O4 2914   8.942   3.486   7.391 -0.5306  0.3757  0.1453
    7CHTO   C14 2915   8.853   3.453   7.288  0.6153  0.1135  0.1640
    7CHTO   H27 2916   8.773   3.522   7.308  0.2335 -0.3171  1.6543
    7CHTO   C18 2917   8.797   3.311   7.322  0.3029  0.2790 -0.9996
    7CHTO   O13 2918   8.706   3.258   7.224  0.3099 -0.1386  0.4402
    7CHTO    H7 2919   8.620   3.273   7.256 -0.3304 -1.3611  1.1262
    7CHTO    O2 2920   9.126   3.629   7.507  0.0210 -0.1898 -0.1589
    7CHTO    C1 2921   9.189   3.500   7.509  0.6275  0.1030  0.1871
    7CHTO   H14 2922   9.162   3.435   7.423  1.6198  4.6106  0.7579
    7CHTO    C2 2923   9.154   3.415   7.639 -0.0549 -0.0383 -0.6064
    7CHTO   H15 2924   9.189   3.475   7.729 -3.2621  0.2095  0.0313
    7CHTO    O6 2925   9.016   3.408   7.655  0.0650  0.2187  0.1715
    7CHTO    H1 2926   8.980   3.329   7.692 -3.8143  1.4969  0.6603
    7CHTO    C3 2927   9.223   3.262   7.622 -0.2309 -0.0676  0.1350
    7CHTO   H16 2928   9.173   3.203   7.542 -0.8611 -3.8442 -0.2366
    7CHTO    N1 2929   9.200   3.176   7.748 -0.1051  0.1746  0.5146
    7CHTO    H8 2930   9.103   3.129   7.731 -1.7982  0.3284 -0.2313
    7CHTO    H9 2931   9.188   3.231   7.838 -1.4326 -0.1081  1.1362
    7CHTO    C4 2932   9.377   3.280   7.593  0.0688 -0.1647 -0.5745
    7CHTO   H17 2933   9.429   3.320   7.679  1.5015 -1.0284  1.0368
    7CHTO    O1 2934   9.393   3.371   7.484  0.4169 -0.2459  0.1662
    7CHTO    C5 2935   9.341   3.504   7.516 -0.3400  0.1201 -0.3551
    7CHTO   H18 2936   9.366   3.535   7.619 -0.5855 -1.1964  2.0554
    7CHTO   C16 2937   9.413   3.596   7.415  0.3953  0.4444 -0.2515
    7CHTO   O11 2938   9.541   3.630   7.460 -0.1281 -0.8252 -0.1919
    7CHTO    H5 2939   9.608   3.590   7.414  0.3952 -1.6359  0.6542
    7CHTO    O3 2940   9.442   3.159   7.560 -0.0311 -0.3063  0.1992
    7CHTO    C6 2941   9.589   3.171   7.556  0.2709 -0.0282  0.1414
    7CHTO   H19 2942   9.617   3.277   7.559 -0.3351  2.5393  0.2272
    7CHTO    C8 2943   9.646   3.089   7.670  0.8935 -0.5072  0.2644
    7CHTO   H21 2944   9.591   2.997   7.678  1.7627 -2.2119 -1.3998
    7CHTO    O7 2945   9.623   3.172   7.790 -0.2727 -0.3541  0.2962
    7CHTO    H2 2946   9.666   3.130   7.860 -0.5432 -0.8549  0.6865
    7CHTO   C12 2947   9.804   3.064   7.659  0.1261 -0.6167  0.0688
    7CHTO   H25 2948   9.856   3.167   7.659 -0.0983  0.4277  0.2676
    7CHTO    N3 2949   9.867   3.003   7.780 -0.4612 -0.4900  0.0023
    7CHTO   H12 2950   9.913   2.910   7.759  0.0069  1.2600  0.0399
    7CHTO   H13 2951   9.939   3.074   7.828  1.7132 -0.9422 -1.4315
    7CHTO   C15 2952   9.832   3.002   7.518  0.2987 -0.1851 -0.0155
    7CHTO   H28 2953   9.783   2.909   7.509 -1.0660 -0.9203 -0.6230
    7CHTO   O10 2954   9.981   2.986   7.486  0.3028 -0.0594  0.2281
    7CHTO    H4 2955  10.018   2.939   7.560  1.0373  0.5203  1.7875
    7CHTO    O5 2956   9.787   3.086   7.410 -0.1532  0.4846 -0.7458
    7CHTO   C10 2957   9.643   3.114   7.418  0.2502 -0.6864 -0.2406
    7CHTO   H23 2958   9.586   3.026   7.389  0.6360  2.6372 -0.9738
    7CHTO   C17 2959   9.607   3.208   7.303 -0.2795 -0.5377 -0.7150
    7CHTO   O12 2960   9.664   3.336   7.315  0.2871  0.5452  0.2280
    7CHTO    H6 2961   9.670   3.381   7.236 -0.3429  1.6474  1.9041
    8CHTO  H203 2962   8.615   9.770   4.069 -0.7372 -1.5184  2.5494
    8CHTO   O82 2963   8.669   9.849   4.074 -0.5166 -0.2367  0.3082
    8CHTO  C123 2964   8.707   9.918   3.950 -0.0789 -0.3449  0.4152
    8CHTO  H227 2965   8.803   9.980   3.975  1.0535  1.2650  0.8218
    8CHTO   O77 2966   8.726   9.818   3.850 -0.2595  0.2051  0.2857
    8CHTO  C118 2967   8.772   9.884   3.721  0.5733  0.1615 -0.0141
    8CHTO  H222 2968   8.852   9.947   3.752 -0.1151 -1.3491  1.0807
    8CHTO  C125 2969   8.837   9.778   3.618  0.4354 -0.5370  0.9092
    8CHTO   O84 2970   8.747   9.672   3.601  0.2907  0.1863 -0.1910
    8CHTO  H205 2971   8.691   9.686   3.527  0.6343  0.8183 -3.0030
    8CHTO  C114 2972   8.659   9.968   3.658 -0.0491 -0.6311  0.1637
    8CHTO  H218 2973   8.565   9.908   3.644  0.1637  0.2770  0.5446
    8CHTO  C116 2974   8.617  10.077   3.766  0.5880  0.5345 -0.5571
    8CHTO  H220 2975   8.712  10.145   3.763  0.8311 -0.6190 -1.3359
    8CHTO   O79 2976   8.513  10.163   3.716  0.4725  0.1303 -0.4765
    8CHTO  H201 2977   8.535  10.199   3.637 -0.4138 -1.5203 -0.7698
    8CHTO  C120 2978   8.588  10.011   3.905  0.0927  0.3356  0.0789
    8CHTO  H224 2979   8.495   9.950   3.894  1.2317 -1.7438 -2.3030
    8CHTO   N21 2980   8.569  10.117   4.007 -0.3516 -0.2200 -0.2185
    8CHTO  H211 2981   8.583  10.215   3.968 -0.7806  2.3745  3.2169
    8CHTO  H212 2982   8.471  10.096   4.045  2.9021 -1.1707  2.2293
    8CHTO   O75 2983   8.701  10.022   3.534 -0.1454  0.2410  0.8816
    8CHTO  C112 2984   8.624   9.984   3.399 -0.7573  0.0637 -0.2694
    8CHTO  H216 2985   8.519   9.997   3.422  2.3411  1.2376  0.6394
    8CHTO   O73 2986   8.651   9.848   3.366 -0.9702 -0.6377  0.1223
    8CHTO  C113 2987   8.556   9.803   3.276 -0.7135  0.4066  0.0363
    8CHTO  H217 2988   8.449   9.858   3.289 -4.3678 -0.1264 -3.1302
    8CHTO  C124 2989   8.545   9.652   3.285  0.4967  0.0081  0.0838
    8CHTO   O83 2990   8.496   9.607   3.414  0.0572  0.3857 -0.2950
    8CHTO  H204 2991   8.493   9.515   3.413  1.3456 -1.2094 -0.3863
    8CHTO  C109 2992   8.612   9.854   3.144  0.0077  0.1457  0.3266
    8CHTO  H213 2993   8.718   9.835   3.148  0.4456 -0.6002  0.8517
    8CHTO  C110 2994   8.585  10.009   3.150 -0.0593  0.4557 -0.5011
    8CHTO  H214 2995   8.482  10.031   3.146 -1.5253  1.5122 -0.4956
    8CHTO   O78 2996   8.635  10.082   3.029  0.8294  0.1286 -0.1613
    8CHTO  H200 2997   8.726  10.058   3.011 -1.7003 -2.0572 -3.1358
    8CHTO  C111 2998   8.664  10.072   3.272  0.7471  0.0905 -0.3350
    8CHTO  H215 2999   8.767  10.056   3.252 -1.5513  0.2666 -0.9485
    8CHTO   N19 3000   8.649  10.217   3.308  0.4089 -0.5351  0.7039
    8CHTO  H207 3001   8.694  10.284   3.240 -0.4396  1.6422  1.8205
    8CHTO  H208 3002   8.544  10.237   3.304 -0.1828  2.0670  0.4354
    8CHTO   O74 3003   8.553   9.790   3.030  0.2090 -0.3438 -0.0829
    8CHTO  C115 3004   8.650   9.777   2.903  0.2517  0.1213  0.0748
    8CHTO  H219 3005   8.697   9.881   2.877  0.0591  4.8320 -0.5357
    8CHTO   O76 3006   8.763   9.680   2.936 -0.3295  0.3158  0.1190
    8CHTO  C122 3007   8.849   9.647   2.828 -0.3694 -0.0488  0.1035
    8CHTO  H226 3008   8.927   9.574   2.870  1.9086  0.9628  0.8789
    8CHTO  C126 3009   8.929   9.768   2.757 -0.3469  0.2405 -0.1723
    8CHTO   O85 3010   9.021   9.721   2.653 -0.3223  0.4754  0.3396
    8CHTO  H206 3011   8.977   9.671   2.585  0.7718  0.2962 -2.0952
    8CHTO  C121 3012   8.759   9.570   2.724 -0.3591  0.0794 -0.0430
    8CHTO  H225 3013   8.832   9.549   2.641  0.0381 -0.7687 -0.2727
    8CHTO   O81 3014   8.722   9.441   2.782 -0.3000 -0.1666  0.3840
    8CHTO  H202 3015   8.672   9.455   2.860 -1.2970 -0.3869  1.2366
    8CHTO  C119 3016   8.649   9.653   2.672  0.1438 -0.0291  0.2622
    8CHTO  H223 3017   8.702   9.732   2.613  0.2539  3.3294 -1.6615
    8CHTO  C117 3018   8.561   9.721   2.782 -0.6598 -0.3950 -0.8840
    8CHTO  H221 3019   8.487   9.654   2.834 -0.1002 -1.1104  0.5046
    8CHTO   N20 3020   8.478   9.829   2.732 -0.2196  0.2768  0.2741
    8CHTO  H209 3021   8.537   9.894   2.674  4.7823 -2.4284  1.0714
    8CHTO  H210 3022   8.373   9.819   2.753  0.3008 -0.9114  2.6767
    8CHTO   O80 3023   8.556   9.581   2.553  0.1508  0.7909 -0.2901
    8CHTO  C103 3024   8.569   9.630   2.391 -0.3860  0.1304  0.2391
    8CHTO  H190 3025   8.498   9.580   2.333  3.9991 -0.1330  0.1799
    8CHTO  C101 3026   8.543   9.780   2.372 -0.3519 -1.0015 -0.8329
    8CHTO  H188 3027   8.582   9.836   2.456 -1.3652  1.2087 -1.4649
    8CHTO   O68 3028   8.388   9.806   2.399  0.0415  0.3273  0.1258
    8CHTO  H168 3029   8.381   9.890   2.441  1.0989 -1.1465 -1.6330
    8CHTO   C99 3030   8.599   9.840   2.233  0.6714 -0.6201  0.1086
    8CHTO  H186 3031   8.540   9.803   2.151 -1.2173 -1.0216  0.4643
    8CHTO   N17 3032   8.584   9.996   2.234  0.3810  0.4230 -0.4338
    8CHTO  H174 3033   8.651  10.044   2.301  0.5106 -1.8267 -2.6607
    8CHTO  H175 3034   8.480  10.022   2.254 -0.8297  2.4950 -1.6559
    8CHTO   C97 3035   8.744   9.788   2.207  0.4068 -0.1620 -0.2773
    8CHTO  H184 3036   8.804   9.823   2.291 -0.2863 -1.3369 -0.5838
    8CHTO   O64 3037   8.738   9.645   2.206 -0.2384  0.3126 -0.0426
    8CHTO  C104 3038   8.709   9.590   2.339 -0.7277  0.1017  0.4896
    8CHTO  H191 3039   8.785   9.630   2.405 -0.9376 -2.3957  2.0743
    8CHTO  C108 3040   8.734   9.439   2.333 -0.2255 -0.1441 -0.0438
    8CHTO   O71 3041   8.745   9.380   2.464  0.0809 -0.1162  0.1372
    8CHTO  H171 3042   8.691   9.422   2.530 -2.1323 -1.2924  2.4470
    8CHTO   O62 3043   8.786   9.838   2.080 -0.4624 -0.3382  0.2009
    8CHTO   C91 3044   8.891   9.771   2.009 -0.2927 -0.6249 -0.2531
    8CHTO  H178 3045   8.951   9.713   2.081  1.5741 -0.8010 -2.7147
    8CHTO   C92 3046   8.972   9.878   1.930 -0.3142 -0.4450  0.2175
    8CHTO  H179 3047   9.015   9.950   2.005  0.0433  0.9796  3.1902
    8CHTO   O66 3048   9.087   9.818   1.873 -0.2870 -0.8079  0.5179
    8CHTO  H166 3049   9.157   9.813   1.938 -1.1093 -1.0607  1.6371
    8CHTO   C93 3050   8.902   9.948   1.810 -0.5084  0.4298  0.3013
    8CHTO  H180 3051   8.982   9.971   1.730  1.9927 -0.3040  1.6531
    8CHTO   N16 3052   8.843  10.083   1.841 -0.2337 -0.0318  0.3986
    8CHTO  H172 3053   8.898  10.122   1.921 -1.1689  2.0394  0.6460
    8CHTO  H173 3054   8.862  10.146   1.759  2.4266 -0.5250  0.8776
    8CHTO   C94 3055   8.798   9.850   1.746  0.0055  0.0814 -0.2129
    8CHTO  H181 3056   8.698   9.869   1.782 -0.5638  1.4855  1.1356
    8CHTO   O61 3057   8.837   9.712   1.772 -0.0778 -0.5519 -0.2094
    8CHTO   C95 3058   8.821   9.665   1.911 -0.0580  0.7417  0.0369
    8CHTO  H182 3059   8.714   9.650   1.934 -1.5097 -0.2500  2.9354
    8CHTO  C106 3060   8.893   9.522   1.910 -0.0679  0.0233  0.4977
    8CHTO   O69 3061   8.829   9.421   1.829  0.2173  0.2839 -0.2656
    8CHTO  H169 3062   8.776   9.372   1.887 -1.2642 -1.9173 -1.4351
    8CHTO   O63 3063   8.798   9.852   1.586  0.2872 -0.0555 -0.5373
    8CHTO   C96 3064   8.696   9.749   1.505  0.0726 -0.0828 -0.3799
    8CHTO  H183 3065   8.643   9.686   1.580  0.8350 -0.0731  1.9730
    8CHTO   C98 3066   8.761   9.656   1.393  1.1484 -0.5346  0.0845
    8CHTO  H185 3067   8.855   9.615   1.432 -1.1606  1.6088  0.1797
    8CHTO   O67 3068   8.677   9.538   1.383  0.4797  0.0693  0.1683
    8CHTO  H167 3069   8.681   9.499   1.469 -0.2197 -0.7389  1.0997
    8CHTO  C102 3070   8.770   9.728   1.250  1.3108  0.7021  0.2516
    8CHTO  H189 3071   8.774   9.645   1.179  0.8738  2.5513 -1.0990
    8CHTO   N18 3072   8.892   9.812   1.227  0.0048 -0.1430  0.5650
    8CHTO  H176 3073   8.983   9.753   1.207  0.1821  0.1377 -0.8811
    8CHTO  H177 3074   8.878   9.872   1.138  0.0877 -4.6739  0.4443
    8CHTO  C105 3075   8.633   9.804   1.223 -0.0612  0.2654  0.0626
    8CHTO  H192 3076   8.652   9.907   1.211  0.0551 -1.3191 -2.3360
    8CHTO   O65 3077   8.537   9.787   1.330 -0.1814  0.0044 -0.5395
    8CHTO  C100 3078   8.582   9.834   1.456  1.4065 -0.3605 -0.2571
    8CHTO  H187 3079   8.620   9.930   1.436 -5.2971 -0.0287 -1.3680
    8CHTO  C107 3080   8.452   9.844   1.544 -0.6186 -0.3399  0.1601
    8CHTO   O70 3081   8.399   9.717   1.568 -0.7341 -0.7746  0.3342
    8CHTO  H170 3082   8.356   9.683   1.495  4.4397  2.6346  1.6162
    8CHTO   O57 3083   8.582   9.743   1.091 -0.7127 -0.0576  0.7601
    8CHTO   C85 3084   8.581   9.814   0.963  0.1461 -0.7294  0.4880
    8CHTO  H157 3085   8.685   9.839   0.943 -0.2242 -0.0028 -1.9754
    8CHTO   C83 3086   8.505   9.958   0.971  0.1929 -0.0614  0.2790
    8CHTO  H155 3087   8.561  10.021   1.037  0.2800  0.1715  3.1601
    8CHTO   O56 3088   8.382   9.935   1.043 -0.0651  0.4777  0.1805
    8CHTO  H135 3089   8.344  10.009   1.078 -0.3990  0.7348  2.2199
    8CHTO   C81 3090   8.494  10.021   0.829 -0.0952 -0.6007 -0.2795
    8CHTO  H153 3091   8.595  10.016   0.782  0.5240 -2.2376  0.5293
    8CHTO   N14 3092   8.435  10.156   0.831 -0.4491  0.0524 -0.4147
    8CHTO  H141 3093   8.350  10.171   0.903  0.2069  1.7333 -1.9529
    8CHTO  H142 3094   8.395  10.164   0.728  1.4282 -1.4323 -1.7435
    8CHTO   C79 3095   8.406   9.921   0.741 -0.4400 -0.5074 -0.2569
    8CHTO  H151 3096   8.399   9.966   0.639  0.2016  0.5063 -1.5158
    8CHTO   O52 3097   8.485   9.797   0.720  0.4765 -0.4145 -0.3874
    8CHTO   C86 3098   8.520   9.728   0.843  0.1982 -0.3039 -0.1625
    8CHTO  H158 3099   8.426   9.672   0.869  3.1575 -0.7480 -0.9529
    8CHTO   C90 3100   8.624   9.620   0.805  0.2660  0.4767  0.4054
    8CHTO   O60 3101   8.558   9.532   0.721 -0.2303  0.4128 -0.4158
    8CHTO  H138 3102   8.594   9.446   0.739  1.4155  0.4652  1.8540
    8CHTO   O50 3103   8.274   9.906   0.789  0.0976 -0.1340  0.6752
    8CHTO   C73 3104   8.137   9.885   0.765  0.0820  1.1497 -0.1942
    8CHTO  H145 3105   8.125   9.845   0.664 -3.3369 -1.4578 -0.7280
    8CHTO   C74 3106   8.061  10.018   0.777  0.8722 -0.2588  0.1111
    8CHTO  H146 3107   8.115  10.087   0.714 -2.4930  0.6215  0.0886
    8CHTO   O54 3108   7.931  10.019   0.721 -0.1003 -0.0795 -0.2267
    8CHTO  H133 3109   7.939   9.986   0.635 -0.3303 -0.0216 -4.2964
    8CHTO   C75 3110   8.070  10.069   0.929  0.8206 -0.3312  0.3393
    8CHTO  H147 3111   8.174  10.099   0.952 -0.2146  0.0246 -0.6164
    8CHTO   N13 3112   7.998  10.199   0.963  0.7455  0.0744 -0.3699
    8CHTO  H139 3113   8.036  10.279   0.902 -0.3410  0.0516  0.5005
    8CHTO  H140 3114   7.891  10.191   0.943  0.6634  0.5212 -1.0374
    8CHTO   C76 3115   8.015   9.955   1.030 -0.0411 -0.2034 -0.7912
    8CHTO  H148 3116   7.910   9.938   1.006 -2.6614  1.7909  0.5713
    8CHTO   O49 3117   8.104   9.831   1.008  0.4370  0.1516  0.6663
    8CHTO   C77 3118   8.084   9.784   0.873 -0.1385 -0.4490 -0.7816
    8CHTO  H149 3119   7.979   9.767   0.852 -1.3910 -1.8159 -2.1440
    8CHTO   C88 3120   8.140   9.643   0.866  0.1937 -0.1790  0.7562
    8CHTO   O58 3121   8.153   9.587   0.718  0.3651 -0.1745  0.2573
    8CHTO  H136 3122   8.114   9.505   0.715  4.4461  0.4310  2.2032
    8CHTO   O51 3123   8.043   9.991   1.185 -0.5820 -0.0926  0.2129
    8CHTO   C78 3124   7.958   9.906   1.277  0.1020  0.3746  0.3700
    8CHTO  H150 3125   7.912   9.810   1.229  0.1878 -0.1636 -0.9260
    8CHTO   C80 3126   7.846   9.993   1.340 -0.0021 -0.1683  1.0153
    8CHTO  H152 3127   7.893  10.086   1.367  0.6336  0.4361 -1.8076
    8CHTO   O55 3128   7.748  10.033   1.236 -0.1848  0.2688 -0.0658
    8CHTO  H134 3129   7.715  10.118   1.255  0.2862 -0.8646 -0.1702
    8CHTO   C84 3130   7.773   9.912   1.454 -0.3528  0.0464 -0.5676
    8CHTO  H156 3131   7.720   9.831   1.400  3.1685 -2.1071 -0.2002
    8CHTO   N15 3132   7.669   9.993   1.527 -0.2949  0.2544 -0.2673
    8CHTO  H143 3133   7.666  10.095   1.486  0.6758  0.1912  0.6707
    8CHTO  H144 3134   7.570   9.951   1.510 -0.3764 -0.9552  2.6033
    8CHTO   C87 3135   7.883   9.855   1.548  0.0872 -0.3998  0.1489
    8CHTO  H159 3136   7.930   9.943   1.593 -0.5530  4.0459  1.1850
    8CHTO   O53 3137   7.978   9.765   1.465  0.3610  0.0341 -0.6748
    8CHTO   C82 3138   8.057   9.851   1.382  0.7598 -0.1337  0.2375
    8CHTO  H154 3139   8.101   9.941   1.435  0.4314  0.2781  1.2072
    8CHTO   C89 3140   8.172   9.772   1.327  0.5492 -0.3602 -0.1566
    8CHTO   O59 3141   8.143   9.671   1.227 -0.2536 -1.1688 -0.2123
    8CHTO  H137 3142   8.223   9.635   1.194 -0.0908 -0.4823 -1.9352
    8CHTO   O45 3143   7.814   9.761   1.669  0.2165  0.3289 -0.6368
    8CHTO   C67 3144   7.902   9.725   1.774 -0.3540 -0.5391 -0.6003
    8CHTO  H124 3145   8.002   9.691   1.738  1.8265 -0.6625  0.2149
    8CHTO   C65 3146   7.918   9.849   1.869  0.5831  0.1859  0.3342
    8CHTO  H122 3147   7.847   9.929   1.842  0.2373  0.0838 -1.2789
    8CHTO   O44 3148   8.049   9.904   1.843 -0.1196  0.3890 -0.1884
    8CHTO  H102 3149   8.110   9.906   1.919 -0.4132 -0.2526  0.0153
    8CHTO   C63 3150   7.873   9.809   2.014 -0.1834 -0.9285 -1.2951
    8CHTO  H120 3151   7.769   9.781   2.007  0.2775 -0.6407 -0.5880
    8CHTO   N11 3152   7.870   9.920   2.115  0.8560 -0.6526 -0.2552
    8CHTO  H108 3153   7.886  10.012   2.067  2.3198 -1.7613  0.7595
    8CHTO  H109 3154   7.769   9.917   2.160 -2.2922 -1.7299 -3.0591
    8CHTO   C61 3155   7.960   9.691   2.050  0.4657 -0.1027 -0.2641
    8CHTO  H118 3156   7.931   9.660   2.153  0.2745 -1.5283 -0.4855
    8CHTO   O40 3157   7.921   9.571   1.964 -0.5693 -0.5235 -0.4211
    8CHTO   C68 3158   7.838   9.595   1.847  0.3553  0.3117  1.3850
    8CHTO  H125 3159   7.739   9.613   1.880 -0.5484 -1.9056 -2.1967
    8CHTO   C72 3160   7.832   9.460   1.773 -0.3747 -0.4268  0.1708
    8CHTO   O48 3161   7.953   9.437   1.710  0.6018  0.0332 -0.1228
    8CHTO  H105 3162   7.952   9.353   1.667  0.5965  2.5528 -0.7097
    8CHTO   O38 3163   8.106   9.716   2.044 -0.1702 -0.2180 -0.4364
    8CHTO   C55 3164   8.209   9.611   2.021  0.5165 -0.0819  0.2006
    8CHTO  H112 3165   8.188   9.566   1.920  1.1420  2.0627  0.2673
    8CHTO   C56 3166   8.218   9.498   2.133  0.1456 -0.1828 -0.5391
    8CHTO  H113 3167   8.252   9.547   2.230  2.2137  3.4383  3.0678
    8CHTO   O42 3168   8.091   9.441   2.148 -0.2335  0.0122 -0.0125
    8CHTO  H100 3169   8.093   9.367   2.203 -0.3172  1.3820 -1.2362
    8CHTO   C57 3170   8.323   9.395   2.080  0.4873  0.4883  0.0331
    8CHTO  H114 3171   8.275   9.349   1.991  0.7292 -1.8211 -3.0070
    8CHTO   N10 3172   8.356   9.283   2.169  0.0472 -0.1243 -0.3454
    8CHTO  H106 3173   8.272   9.233   2.214  1.0138 -1.1755  0.2018
    8CHTO  H107 3174   8.416   9.210   2.119 -1.0742  1.0276  1.7025
    8CHTO   C58 3175   8.460   9.460   2.024  0.3176  0.4679  0.1508
    8CHTO  H115 3176   8.528   9.480   2.112  1.5049 -1.9809 -0.8295
    8CHTO   O37 3177   8.436   9.576   1.947 -0.1431  0.5121  0.3626
    8CHTO   C59 3178   8.349   9.677   2.000  0.2940 -0.2341 -0.0750
    8CHTO  H116 3179   8.393   9.703   2.097  0.9003 -1.5894 -0.0897
    8CHTO   C70 3180   8.342   9.793   1.903 -0.6676 -0.5614  0.0909
    8CHTO   O46 3181   8.473   9.851   1.890 -0.1617 -0.5703 -0.0690
    8CHTO  H103 3182   8.531   9.783   1.862 -0.8433  1.4048 -1.6431
    8CHTO   O39 3183   8.551   9.349   1.926 -0.8652 -0.2751  0.7566
    8CHTO   C60 3184   8.466   9.268   1.837 -0.4931 -0.1677 -0.6033
    8CHTO  H117 3185   8.392   9.218   1.903 -1.5798 -0.5675  0.2233
    8CHTO   C62 3186   8.404   9.356   1.732  0.3762  0.5573  0.1553
    8CHTO  H119 3187   8.338   9.425   1.785 -0.3314 -1.7314  0.8918
    8CHTO   O43 3188   8.509   9.439   1.670 -0.3075  0.1910  0.5574
    8CHTO  H101 3189   8.474   9.524   1.665  0.0625 -1.2963 -1.9931
    8CHTO   C66 3190   8.320   9.278   1.623  0.1074  0.3352 -0.1703
    8CHTO  H123 3191   8.236   9.222   1.678  0.2866 -1.9699  4.0873
    8CHTO   N12 3192   8.250   9.372   1.531 -0.0999  0.3837  0.4485
    8CHTO  H110 3193   8.253   9.333   1.426 -2.6582 -0.8996 -2.7190
    8CHTO  H111 3194   8.267   9.474   1.545 -0.8084  0.7096 -1.7790
    8CHTO   C69 3195   8.411   9.183   1.547 -0.7347 -0.4660  0.1083
    8CHTO  H126 3196   8.493   9.244   1.492  0.2574 -2.4469  0.4618
    8CHTO   O41 3197   8.474   9.081   1.653 -0.4833 -0.7679 -0.5734
    8CHTO   C64 3198   8.555   9.155   1.769  0.1455 -0.6487  0.2869
    8CHTO  H121 3199   8.648   9.200   1.729 -0.4400 -2.2299 -2.7215
    8CHTO   C71 3200   8.604   9.059   1.874  0.0972  0.1739  0.0171
    8CHTO   O47 3201   8.669   8.948   1.815 -0.2710  0.2823 -0.1393
    8CHTO  H104 3202   8.760   8.974   1.798 -1.1154  0.1350  2.7976
    8CHTO   O34 3203   8.349   9.101   1.451  0.2772  0.0912  0.3665
    8CHTO   C49 3204   8.300   8.960   1.449  0.7754 -0.2698  0.8149
    8CHTO   H91 3205   8.358   8.904   1.524 -0.6299 -0.5135  0.2885
    8CHTO   C47 3206   8.339   8.899   1.313  0.2594  0.2764 -0.1001
    8CHTO   H89 3207   8.323   8.796   1.333 -0.2130  2.4542  1.5244
    8CHTO   O33 3208   8.481   8.919   1.287  0.3498  0.4033 -0.5906
    8CHTO   H70 3209   8.522   8.833   1.300  0.7596 -0.1624 -1.5772
    8CHTO   C45 3210   8.239   8.959   1.201  0.4617 -0.4273 -0.2149
    8CHTO   H87 3211   8.296   9.040   1.148  0.8515 -3.6854  2.2494
    8CHTO    N8 3212   8.219   8.847   1.102 -0.4201  0.0325  0.4999
    8CHTO   H75 3213   8.289   8.866   1.027  0.5115 -0.7033  0.1888
    8CHTO   H76 3214   8.122   8.838   1.059  0.7125 -1.8302  1.4653
    8CHTO   C43 3215   8.113   9.033   1.253  0.0779 -0.1523  0.9887
    8CHTO   H85 3216   8.136   9.129   1.287 -2.5886 -1.5801 -1.2566
    8CHTO   O29 3217   8.061   8.945   1.356  0.1589 -0.5359  0.2150
    8CHTO   C50 3218   8.140   8.951   1.476 -0.2329  0.1699 -0.3986
    8CHTO   H92 3219   8.104   9.041   1.530 -1.9448 -1.5934 -0.8644
    8CHTO   C54 3220   8.096   8.835   1.566  0.3059 -0.6482  0.1532
    8CHTO   O36 3221   8.127   8.714   1.503 -0.1692  0.3966 -0.3868
    8CHTO   H72 3222   8.213   8.692   1.520  0.5844  1.8649  2.3422
    8CHTO   O27 3223   8.012   9.071   1.158  0.1996 -0.4008  0.0861
    8CHTO   C37 3224   7.900   9.160   1.136  0.1159 -0.4473 -1.1283
    8CHTO   H79 3225   7.812   9.125   1.196 -3.5056 -0.2721 -1.3529
    8CHTO   C38 3226   7.931   9.310   1.174  0.3729  0.5318  0.1386
    8CHTO   H80 3227   8.022   9.346   1.128  0.8254  0.9478  1.2349
    8CHTO   O31 3228   7.946   9.301   1.316 -0.4867  0.5934 -0.4374
    8CHTO   H68 3229   8.013   9.245   1.350 -0.5910 -0.1190  1.9217
    8CHTO   C39 3230   7.816   9.411   1.137  0.5331  0.4057 -0.1647
    8CHTO   H81 3231   7.727   9.378   1.194  0.6434 -1.7152 -2.4672
    8CHTO    N7 3232   7.847   9.549   1.173  0.0338  0.1989 -0.1071
    8CHTO   H73 3233   7.958   9.570   1.153  3.0326 -0.9544 -3.9964
    8CHTO   H74 3234   7.784   9.614   1.112  2.5756  0.6756 -0.5737
    8CHTO   C40 3235   7.773   9.392   0.991 -0.2355 -0.4418 -0.0899
    8CHTO   H82 3236   7.858   9.435   0.922  1.0319  1.1650 -3.7785
    8CHTO   O26 3237   7.750   9.244   0.968 -0.2044 -0.3038 -0.3407
    8CHTO   C41 3238   7.865   9.159   0.989 -0.0059 -0.4187  0.0047
    8CHTO   H83 3239   7.952   9.196   0.930 -1.5516  0.5238 -1.7909
    8CHTO   C52 3240   7.839   9.022   0.930  0.1749  0.1100 -0.2171
    8CHTO   O35 3241   7.719   8.959   0.980 -0.3333 -0.3733 -0.1455
    8CHTO   H71 3242   7.730   8.969   1.072 -0.5006 -0.6500 -0.4252
    8CHTO   O28 3243   7.638   9.441   0.964 -0.6280 -0.3538 -0.4302
    8CHTO   C42 3244   7.622   9.485   0.824  0.7472  0.8238 -0.8162
    8CHTO   H84 3245   7.519   9.520   0.817  0.0705  0.7646 -1.3555
    8CHTO   C44 3246   7.633   9.372   0.719 -0.1622 -1.0248  0.0344
    8CHTO   H86 3247   7.730   9.311   0.735  1.1398 -2.5316 -1.1067
    8CHTO   O32 3248   7.523   9.285   0.747 -0.3137  0.2078 -0.1509
    8CHTO   H69 3249   7.490   9.275   0.834  1.5887  2.5154 -0.7446
    8CHTO   C48 3250   7.623   9.422   0.570 -0.2839 -0.5797 -0.1191
    8CHTO   H90 3251   7.527   9.466   0.551  0.5337  2.8516 -2.7485
    8CHTO    N9 3252   7.636   9.311   0.476 -0.3048 -0.2355 -0.3399
    8CHTO   H77 3253   7.678   9.348   0.382 -0.2087  1.3190 -3.0527
    8CHTO   H78 3254   7.537   9.281   0.454  2.0283  1.2961 -2.1942
    8CHTO   C51 3255   7.725   9.535   0.551 -0.6793 -0.1364 -0.5009
    8CHTO   H93 3256   7.824   9.507   0.562 -1.7034 -0.4746 -0.8857
    8CHTO   O30 3257   7.693   9.642   0.633 -0.0685 -0.2549  0.4731
    8CHTO   C46 3258   7.712   9.604   0.783 -1.0616  0.4135 -0.0083
    8CHTO   H88 3259   7.815   9.579   0.794  0.7257 -0.1406 -0.1400
    8CHTO   C53 3260   7.666   9.723   0.867 -0.6107 -0.9898 -0.4309
    8CHTO   O72 3261   7.725   9.853   0.830 -0.6625  0.0445 -0.0198
    8CHTO  H199 3262   7.775   9.893   0.902  0.4498 -0.1547 -1.4235
    8CHTO   O22 3263   7.708   9.587   0.416 -0.4152 -0.7272  0.0517
    8CHTO   C31 3264   7.828   9.648   0.350 -0.1787 -0.4356  0.1325
    8CHTO   H59 3265   7.794   9.668   0.246 -1.6696 -2.4084  0.8449
    8CHTO   C29 3266   7.879   9.784   0.409  0.1578 -0.7441 -0.6711
    8CHTO   H57 3267   7.917   9.778   0.512  1.7427  0.4556 -3.7666
    8CHTO   O21 3268   7.763   9.875   0.413 -0.2181 -0.5324  0.4308
    8CHTO   H37 3269   7.700   9.859   0.480 -0.0646  1.3075  0.9128
    8CHTO   C27 3270   8.000   9.834   0.316 -0.7346 -0.3848  0.0748
    8CHTO   H55 3271   7.965   9.848   0.210 -0.9045  0.7334 -1.7667
    8CHTO    N5 3272   8.049   9.964   0.364 -0.1995  0.3609  0.5308
    8CHTO   H43 3273   7.983  10.020   0.429  0.1613 -1.0918  1.7272
    8CHTO   H44 3274   8.093  10.024   0.286 -0.1663 -1.3057  1.8100
    8CHTO   C25 3275   8.111   9.726   0.321  0.0808 -0.1771 -0.2432
    8CHTO   H53 3276   8.135   9.706   0.426 -0.1530  1.5589  1.5350
    8CHTO   O17 3277   8.067   9.600   0.266 -0.1001  0.0830  0.4515
    8CHTO   C32 3278   7.948   9.551   0.328 -0.7394  0.0498  0.0773
    8CHTO   H60 3279   7.977   9.516   0.431  0.1253  0.2819  1.8976
    8CHTO   C36 3280   7.918   9.424   0.240  0.1451  0.0506  0.8743
    8CHTO   O25 3281   7.869   9.442   0.107  0.0504  0.0586 -0.4443
    8CHTO   H40 3282   7.942   9.483   0.059  3.2311  0.0621 -0.0862
    8CHTO   O15 3283   8.238   9.767   0.247 -0.1924  0.6548 -0.4410
    8CHTO   C19 3284   8.381   9.782   0.260 -0.0076  0.1945 -0.3771
    8CHTO   H47 3285   8.426   9.752   0.161  1.4457  0.6268 -1.9463
    8CHTO   C20 3286   8.426   9.932   0.289  0.6061 -0.3919  0.8243
    8CHTO   H48 3287   8.390   9.969   0.386  1.7354  1.7402  0.2861
    8CHTO   O19 3288   8.378  10.024   0.186 -0.5707  0.4559  0.9501
    8CHTO   H35 3289   8.387   9.984   0.102 -0.3542 -1.6161  1.2931
    8CHTO   C21 3290   8.584   9.937   0.295  0.1817 -0.2248 -0.5019
    8CHTO   H49 3291   8.617   9.911   0.194 -0.8579 -1.6253 -1.4098
    8CHTO    N4 3292   8.638  10.071   0.324 -0.5986  0.0364 -0.4751
    8CHTO   H41 3293   8.659  10.127   0.236  2.6693  0.0202  0.9263
    8CHTO   H42 3294   8.728  10.065   0.389 -4.1753  0.1322  1.4489
    8CHTO   C22 3295   8.645   9.834   0.389 -0.9662  0.2614  0.0782
    8CHTO   H50 3296   8.608   9.858   0.487  1.5533 -0.2766  1.7091
    8CHTO   O14 3297   8.594   9.702   0.366  0.1168  0.2279  0.3689
    8CHTO   C23 3298   8.448   9.689   0.364  0.4029  0.4040 -0.3543
    8CHTO   H51 3299   8.409   9.709   0.464  0.4316 -0.6432 -0.7953
    8CHTO   C34 3300   8.415   9.548   0.329 -0.0400  0.1935 -0.4098
    8CHTO   O23 3301   8.435   9.453   0.435 -0.0495 -0.3858 -0.2894
    8CHTO   H38 3302   8.454   9.362   0.405  3.2452 -1.3898 -0.5239
    8CHTO   O16 3303   8.787   9.830   0.384 -0.1620  0.0898 -1.0136
    8CHTO   C24 3304   8.848   9.715   0.495  0.5850  0.0937  0.3430
    8CHTO   H52 3305   8.764   9.652   0.539 -1.1074  0.0036  1.3960
    8CHTO   C26 3306   8.931   9.782   0.606  0.2876 -1.7074  1.4380
    8CHTO   H54 3307   9.000   9.861   0.558 -0.3076 -0.9515  0.8279
    8CHTO   O20 3308   8.842   9.864   0.688 -0.2133  0.4371  0.2406
    8CHTO   H36 3309   8.886   9.891   0.763 -2.6278 -1.5383  1.8057
    8CHTO   C30 3310   9.013   9.684   0.690 -0.4893  0.4317  0.4722
    8CHTO   H58 3311   8.943   9.647   0.766 -1.1795  1.6915 -0.2568
    8CHTO    N6 3312   9.124   9.747   0.769 -0.1019  0.1686 -0.4987
    8CHTO   H45 3313   9.116   9.721   0.874 -0.7649 -1.2969 -2.7957
    8CHTO   H46 3314   9.123   9.856   0.760  0.6424  0.3832  0.3816
    8CHTO   C33 3315   9.071   9.556   0.614 -1.0862  0.0703 -0.4862
    8CHTO   H61 3316   9.170   9.577   0.569 -0.6799  0.8052 -0.9172
    8CHTO   O18 3317   8.983   9.519   0.511  0.6590  0.3313 -0.2950
    8CHTO   C28 3318   8.946   9.624   0.421  0.4294  0.4579  0.2180
    8CHTO   H56 3319   9.031   9.676   0.389  1.7921  0.0899  1.0153
    8CHTO   C35 3320   8.884   9.565   0.290 -0.2755 -0.0794  0.1193
    8CHTO   O24 3321   8.971   9.468   0.232  0.0064  0.3100 -0.2756
    8CHTO   H39 3322   9.039   9.512   0.182 -0.6064  0.5553 -0.6191
    8CHTO    O9 3323   9.096   9.448   0.708 -0.1674  0.2365  0.3599
    8CHTO   C13 3324   9.181   9.332   0.638  0.6200 -0.0742  0.2102
    8CHTO   H26 3325   9.247   9.379   0.559  1.7176  2.4810 -0.4252
    8CHTO   C11 3326   9.077   9.231   0.577 -0.0465 -0.3950 -0.1271
    8CHTO   H24 3327   9.049   9.276   0.477 -0.0731  0.0439 -1.1371
    8CHTO    O8 3328   8.954   9.212   0.658 -0.3734 -0.5049  0.1413
    8CHTO    H3 3329   8.975   9.175   0.743  1.7963 -0.6482  0.6988
    8CHTO    C9 3330   9.150   9.094   0.553 -0.0391 -0.2079  0.3158
    8CHTO   H22 3331   9.234   9.114   0.501  1.0088 -2.3880 -0.7089
    8CHTO    N2 3332   9.065   9.021   0.458 -0.6282  0.1913 -0.8871
    8CHTO   H10 3333   8.967   9.056   0.435  0.7003  1.2557  1.3231
    8CHTO   H11 3334   9.125   9.002   0.372 -0.1619  3.1953 -2.6840
    8CHTO    C7 3335   9.188   9.030   0.694  0.2110 -0.2101 -0.6485
    8CHTO   H20 3336   9.275   8.983   0.673  1.0656 -0.5910  3.3493
    8CHTO    O4 3337   9.206   9.135   0.793  0.1766 -0.5664 -0.1770
    8CHTO   C14 3338   9.271   9.254   0.745 -0.3742  0.6185  0.3089
    8CHTO   H27 3339   9.361   9.220   0.693  1.2624 -1.4854  1.7146
    8CHTO   C18 3340   9.318   9.338   0.863  0.1128 -0.8255 -0.4055
    8CHTO   O13 3341   9.398   9.455   0.834 -0.7018 -0.0969  0.1926
    8CHTO    H7 3342   9.363   9.533   0.875 -0.7860 -0.5642 -0.4603
    8CHTO    O2 3343   9.074   8.926   0.748 -0.7957  0.2124 -0.1039
    8CHTO    C1 3344   9.105   8.865   0.877  0.1129 -0.0346  0.2627
    8CHTO   H14 3345   9.161   8.940   0.945  2.1723  3.4849 -0.2958
    8CHTO    C2 3346   9.190   8.734   0.859  0.7318 -0.2639  0.1999
    8CHTO   H15 3347   9.134   8.685   0.780 -0.2007 -0.0844 -0.0897
    8CHTO    O6 3348   9.320   8.774   0.809  0.1103 -0.0633  0.0440
    8CHTO    H1 3349   9.364   8.823   0.874  0.6582 -0.7820 -0.4259
    8CHTO    C3 3350   9.207   8.642   0.992  0.7414  0.0834  0.0995
    8CHTO   H16 3351   9.269   8.697   1.071 -0.2224 -2.9995  0.9383
    8CHTO    N1 3352   9.272   8.515   0.956  0.3899  0.5462 -0.1958
    8CHTO    H8 3353   9.195   8.452   0.930 -2.4417 -0.7090  2.5996
    8CHTO    H9 3354   9.336   8.465   1.032 -0.8476  2.6005 -1.2359
    8CHTO    C4 3355   9.060   8.626   1.063  0.3485 -0.5687  0.6388
    8CHTO   H17 3356   8.994   8.567   0.994 -0.3986 -1.2824 -0.3718
    8CHTO    O1 3357   8.995   8.755   1.075  0.2311  0.2521 -0.0044
    8CHTO    C5 3358   8.974   8.828   0.948  0.1257  0.3025 -0.1063
    8CHTO   H18 3359   8.913   8.764   0.892  1.2679 -1.6499 -0.8992
    8CHTO   C16 3360   8.894   8.954   0.982  0.3065  0.2486  0.3198
    8CHTO   O11 3361   8.755   8.935   1.018 -0.6757 -0.1687 -0.7223
    8CHTO    H5 3362   8.751   8.877   1.092 -1.7764 -0.3356 -1.5892
    8CHTO    O3 3363   9.053   8.572   1.194  0.2093 -0.5461  1.2483
    8CHTO    C6 3364   8.937   8.489   1.223 -0.3834  0.2090 -0.8476
    8CHTO   H19 3365   8.858   8.522   1.160 -1.4279 -1.4640 -0.3613
    8CHTO    C8 3366   8.969   8.341   1.197  0.1620 -0.1205 -0.7712
    8CHTO   H21 3367   9.064   8.327   1.246 -3.0092  1.9893 -1.2581
    8CHTO    O7 3368   8.980   8.316   1.053 -0.0154  0.2783 -0.1696
    8CHTO    H2 3369   9.053   8.372   1.033  1.3841  1.0936 -1.7910
    8CHTO   C12 3370   8.863   8.246   1.268 -0.3924  0.4686  0.3121
    8CHTO   H25 3371   8.767   8.251   1.205 -1.1572  0.8956 -1.4360
    8CHTO    N3 3372   8.906   8.099   1.267 -0.7261  0.3297 -0.2116
    8CHTO   H12 3373   8.822   8.042   1.299  0.2524 -1.7412  0.2779
    8CHTO   H13 3374   8.938   8.058   1.170  1.0442 -0.6766  3.8634
    8CHTO   C15 3375   8.834   8.286   1.417  0.3478  0.0489 -0.1450
    8CHTO   H28 3376   8.926   8.274   1.476 -1.1977  0.2947 -0.9697
    8CHTO   O10 3377   8.709   8.203   1.488 -0.1840  0.3054 -0.5535
    8CHTO    H4 3378   8.722   8.109   1.469 -2.2403  0.5376 -1.5363
    8CHTO    O5 3379   8.792   8.422   1.421 -0.2715 -0.4798  0.2900
    8CHTO   C10 3380   8.898   8.512   1.374  0.2847  0.3010  0.0279
    8CHTO   H23 3381   8.993   8.497   1.430  0.5735  1.7589  0.5416
    8CHTO   C17 3382   8.868   8.665   1.392  0.2927  0.0484  0.1015
    8CHTO   O12 3383   8.863   8.686   1.536  0.3654 -0.3406 -1.0280
    8CHTO    H6 3384   8.789   8.738   1.556  0.6365 -1.8633  0.0758
    9CHTO  H203 3385   6.579   2.680   5.215 -0.1696 -2.5321 -2.1151
    9CHTO   O82 3386   6.566   2.592   5.177  0.0754 -0.3965  0.2865
    9CHTO  C123 3387   6.534   2.608   5.033 -0.2758 -0.1534 -0.6394
    9CHTO  H227 3388   6.615   2.672   4.993  0.7074  0.8793  3.9293
    9CHTO   O77 3389   6.552   2.477   4.976  0.0615 -0.3620  0.2884
    9CHTO  C118 3390   6.506   2.459   4.843  0.8365 -0.5394 -0.3273
    9CHTO  H222 3391   6.576   2.515   4.780 -0.7069  1.2335 -1.7553
    9CHTO  C125 3392   6.530   2.306   4.833  0.2348 -0.1416 -0.7301
    9CHTO   O84 3393   6.530   2.266   4.695 -0.3353  0.1568  0.1340
    9CHTO  H205 3394   6.559   2.176   4.699  0.2659  1.6834 -0.8131
    9CHTO  C114 3395   6.359   2.498   4.827 -0.3935 -0.0089  1.0815
    9CHTO  H218 3396   6.297   2.438   4.897  0.6411  1.3519 -0.3591
    9CHTO  C116 3397   6.335   2.648   4.870 -0.4814  0.4126 -0.1113
    9CHTO  H220 3398   6.389   2.711   4.795  0.4362  1.1413  0.4514
    9CHTO   O79 3399   6.194   2.674   4.850 -0.3066  0.7658  0.0421
    9CHTO  H201 3400   6.171   2.660   4.761 -0.3434 -1.6110  0.2332
    9CHTO  C120 3401   6.387   2.661   5.018  0.0244  0.4664 -0.0886
    9CHTO  H224 3402   6.324   2.600   5.079  0.9913  0.5701  0.4459
    9CHTO   N21 3403   6.371   2.799   5.072 -0.3993 -0.2583 -0.0684
    9CHTO  H211 3404   6.282   2.807   5.134 -2.6221 -0.6552  0.5005
    9CHTO  H212 3405   6.359   2.873   4.996 -2.2691 -2.2776  1.1348
    9CHTO   O75 3406   6.334   2.473   4.686 -0.0193 -0.2250  0.1913
    9CHTO  C112 3407   6.195   2.407   4.666  0.1396  0.6489  0.1246
    9CHTO  H216 3408   6.120   2.444   4.744 -1.1020 -0.1525 -2.3615
    9CHTO   O73 3409   6.214   2.260   4.672 -0.3022 -0.1876  0.1504
    9CHTO  C113 3410   6.094   2.189   4.669  0.2101 -0.5217  0.3363
    9CHTO  H217 3411   6.030   2.228   4.748 -1.6201  2.0660 -1.6456
    9CHTO  C124 3412   6.129   2.045   4.707 -0.2355  0.0660 -0.5963
    9CHTO   O83 3413   6.172   2.028   4.843 -0.0087  0.1708  0.0030
    9CHTO  H204 3414   6.157   1.937   4.864 -0.9543 -2.8047 -0.1315
    9CHTO  C109 3415   6.032   2.202   4.529  0.0643 -0.3676  0.6675
    9CHTO  H213 3416   6.105   2.156   4.463 -1.7215 -1.3634  0.9189
    9CHTO  C110 3417   6.015   2.359   4.497 -0.0444  0.5751 -0.3097
    9CHTO  H214 3418   5.929   2.404   4.542  0.4034 -0.5406 -0.4417
    9CHTO   O78 3419   5.975   2.366   4.358  0.8135  0.4130  0.2145
    9CHTO  H200 3420   5.901   2.313   4.345 -1.5853 -0.8336 -2.3294
    9CHTO  C111 3421   6.146   2.446   4.519 -0.1632 -0.6602 -0.1803
    9CHTO  H215 3422   6.227   2.415   4.447 -0.0246  2.7124  1.6897
    9CHTO   N19 3423   6.128   2.593   4.505 -0.2697  0.6075  0.6672
    9CHTO  H207 3424   6.139   2.645   4.594 -2.2408 -1.0809 -0.6473
    9CHTO  H208 3425   6.206   2.637   4.444  0.4694 -2.0318 -1.3814
    9CHTO   O74 3426   5.908   2.126   4.517 -0.2361  0.2184  0.6558
    9CHTO  C115 3427   5.894   2.043   4.382  0.1518  0.1312  0.1284
    9CHTO  H219 3428   5.961   2.078   4.301 -2.4535 -0.3278 -0.4950
    9CHTO   O76 3429   5.932   1.897   4.403 -0.3652  0.5328 -0.3727
    9CHTO  C122 3430   5.847   1.842   4.504 -0.0840  0.6580 -0.2489
    9CHTO  H226 3431   5.856   1.907   4.591  1.7339 -1.7789  1.7905
    9CHTO  C126 3432   5.902   1.707   4.548 -0.3855  0.0820 -1.2644
    9CHTO   O85 3433   6.016   1.734   4.638  0.0395  0.1256 -0.0979
    9CHTO  H206 3434   6.050   1.656   4.679 -0.2450 -3.6519 -1.7779
    9CHTO  C121 3435   5.690   1.842   4.465  0.0026  0.1179 -0.0363
    9CHTO  H225 3436   5.689   1.789   4.368  2.5701  0.1487  2.0025
    9CHTO   O81 3437   5.600   1.767   4.558 -0.2012  0.0927  0.1959
    9CHTO  H202 3438   5.528   1.736   4.505  1.6413 -2.3941 -1.1136
    9CHTO  C119 3439   5.646   1.993   4.439  0.1326 -0.5596 -0.7413
    9CHTO  H223 3440   5.549   1.989   4.392  2.1578 -1.5740 -0.3614
    9CHTO  C117 3441   5.744   2.058   4.337 -0.0489  0.5056  0.1688
    9CHTO  H221 3442   5.739   2.167   4.332  1.9814  2.8566 -1.5493
    9CHTO   N20 3443   5.722   2.026   4.193 -0.4252 -0.8195  0.0725
    9CHTO  H209 3444   5.767   2.085   4.118 -0.1513  1.2133 -0.7727
    9CHTO  H210 3445   5.731   1.922   4.187 -0.4209 -1.3715  0.8924
    9CHTO   O80 3446   5.621   2.068   4.592 -0.3726 -0.7936  0.1345
    9CHTO  C103 3447   5.589   2.223   4.599  0.0842 -0.7250  0.2427
    9CHTO  H190 3448   5.667   2.280   4.546 -3.4272 -0.9616 -1.2485
    9CHTO  C101 3449   5.450   2.265   4.531 -1.2940  0.1816  0.4250
    9CHTO  H188 3450   5.370   2.199   4.557 -1.7799  0.9232  0.3091
    9CHTO   O68 3451   5.466   2.265   4.381 -0.0418 -0.4557  0.4951
    9CHTO  H168 3452   5.470   2.175   4.357 -0.7356 -2.7163  2.5248
    9CHTO   C99 3453   5.415   2.414   4.567  0.4144 -0.0381  0.3915
    9CHTO  H186 3454   5.495   2.482   4.533 -0.8036  0.8903  1.5938
    9CHTO   N17 3455   5.284   2.476   4.518 -0.0883  0.1722  0.0387
    9CHTO  H174 3456   5.197   2.442   4.566  2.4318  1.3634  0.1854
    9CHTO  H175 3457   5.281   2.464   4.405  0.3949 -1.7908 -0.3753
    9CHTO   C97 3458   5.412   2.427   4.722  0.2156  0.7358 -0.2322
    9CHTO  H184 3459   5.345   2.352   4.770  0.8104 -0.5015 -0.4189
    9CHTO   O64 3460   5.553   2.407   4.762  0.3015 -0.3966 -0.0902
    9CHTO  C104 3461   5.593   2.269   4.752 -0.4150 -0.2419  0.4112
    9CHTO  H191 3462   5.530   2.192   4.811 -0.7386 -1.2129  1.6190
    9CHTO  C108 3463   5.728   2.261   4.822 -0.4308  0.4453 -0.9806
    9CHTO   O71 3464   5.719   2.291   4.962  0.2140 -0.2221 -0.1165
    9CHTO  H171 3465   5.695   2.384   4.973 -0.0789  0.3144  1.0730
    9CHTO   O62 3466   5.394   2.557   4.788 -0.0903 -0.0948 -0.0307
    9CHTO   C91 3467   5.375   2.558   4.926  0.2677 -0.2643 -0.4574
    9CHTO  H178 3468   5.326   2.470   4.955  0.6077  1.3395  1.0179
    9CHTO   C92 3469   5.273   2.672   4.954 -0.0982  0.4608 -0.5161
    9CHTO  H179 3470   5.204   2.681   4.876  1.7701  0.3964 -1.8595
    9CHTO   O66 3471   5.201   2.623   5.067  0.3157  0.4298  0.2530
    9CHTO  H166 3472   5.140   2.556   5.033 -0.2882 -0.9263  0.1188
    9CHTO   C93 3473   5.325   2.818   4.988  0.0749  0.3501 -0.1637
    9CHTO  H180 3474   5.242   2.862   5.035 -3.9802  2.0290 -0.8025
    9CHTO   N16 3475   5.352   2.899   4.863 -0.5409 -0.7448  0.0088
    9CHTO  H172 3476   5.359   2.853   4.765  2.6834 -1.2705 -0.1917
    9CHTO  H173 3477   5.437   2.972   4.872 -1.3177 -1.2027 -1.9858
    9CHTO   C94 3478   5.449   2.804   5.088 -0.0297  0.0150 -0.5069
    9CHTO  H181 3479   5.504   2.894   5.096 -0.4389 -0.7942 -0.0188
    9CHTO   O61 3480   5.547   2.702   5.050 -0.3973 -0.3100 -0.5581
    9CHTO   C95 3481   5.503   2.570   5.019  0.3132  0.7030 -0.3579
    9CHTO  H182 3482   5.581   2.516   4.961 -0.2708  2.5973  1.6639
    9CHTO  C106 3483   5.489   2.493   5.158  0.2691 -0.0670  0.3629
    9CHTO   O69 3484   5.613   2.472   5.233 -0.6843  0.4994 -0.0011
    9CHTO  H169 3485   5.670   2.544   5.211  1.7856  1.6528  2.4109
    9CHTO   O63 3486   5.400   2.768   5.237 -0.2486 -0.0786 -0.4940
    9CHTO   C96 3487   5.399   2.885   5.338  0.6193 -0.1899  0.0629
    9CHTO  H183 3488   5.378   2.983   5.290  1.1820 -0.0399  0.3011
    9CHTO   C98 3489   5.537   2.909   5.410  0.1528 -0.0913  0.0569
    9CHTO  H185 3490   5.627   2.904   5.339 -0.6806 -1.3079 -1.8767
    9CHTO   O67 3491   5.541   3.043   5.462  0.1838 -0.8553  0.4913
    9CHTO  H167 3492   5.516   3.102   5.392 -0.1149  0.9531  2.5865
    9CHTO  C102 3493   5.558   2.814   5.538  0.4006 -0.5922  0.0226
    9CHTO  H189 3494   5.637   2.859   5.600  1.1072 -1.1646 -0.7736
    9CHTO   N18 3495   5.604   2.675   5.514  0.1230  0.1079 -0.0042
    9CHTO  H176 3496   5.613   2.669   5.406  0.9517  0.9954 -2.0630
    9CHTO  H177 3497   5.550   2.594   5.558 -1.5889  1.0062 -0.2629
    9CHTO  C105 3498   5.429   2.816   5.633 -0.4102  0.4234 -0.6109
    9CHTO  H192 3499   5.378   2.721   5.639 -0.5316 -2.4650  2.2152
    9CHTO   O65 3500   5.322   2.895   5.582  1.1546  0.0951 -0.1883
    9CHTO  C100 3501   5.289   2.852   5.448 -0.0752  0.2882  0.1168
    9CHTO  H187 3502   5.274   2.751   5.441  3.4078  0.1199 -2.7388
    9CHTO  C107 3503   5.153   2.913   5.408 -0.1452 -0.0168  0.1627
    9CHTO   O70 3504   5.088   2.860   5.292 -0.0870 -0.3922  0.0824
    9CHTO  H170 3505   5.131   2.889   5.210  0.7790 -1.1361  0.2481
    9CHTO   O57 3506   5.483   2.874   5.788  0.1732 -0.3940  0.0409
    9CHTO   C85 3507   5.427   2.800   5.893 -0.3924 -0.0205 -0.3697
    9CHTO  H157 3508   5.461   2.700   5.871 -0.2270  0.8557 -1.4378
    9CHTO   C83 3509   5.272   2.804   5.892  0.3065 -0.6343 -0.2801
    9CHTO  H155 3510   5.231   2.762   5.803  0.0746 -1.4401  1.0673
    9CHTO   O56 3511   5.233   2.939   5.891 -0.3755 -0.3888  0.2641
    9CHTO  H135 3512   5.262   2.977   5.970 -2.1345 -1.0546 -1.8960
    9CHTO   C81 3513   5.208   2.733   6.014 -0.0403  0.0855  0.7628
    9CHTO  H153 3514   5.228   2.629   6.001 -0.4874 -1.0503 -3.1437
    9CHTO   N14 3515   5.062   2.736   6.016  0.4547  0.1808 -0.1592
    9CHTO  H141 3516   5.025   2.815   5.957  1.0852  0.3131 -2.3439
    9CHTO  H142 3517   5.034   2.736   6.120  0.6553 -1.6630  1.9401
    9CHTO   C79 3518   5.267   2.781   6.151 -0.0114 -0.1658 -0.7034
    9CHTO  H151 3519   5.233   2.712   6.227 -0.7975  0.5561  0.9068
    9CHTO   O52 3520   5.412   2.767   6.149  0.4823 -0.3509  0.3646
    9CHTO   C86 3521   5.472   2.848   6.048 -0.3725 -0.6288  0.1618
    9CHTO  H158 3522   5.434   2.954   6.077  1.1686  3.8382  1.4938
    9CHTO   C90 3523   5.625   2.860   6.062  0.6413 -0.2009  0.2859
    9CHTO   O60 3524   5.666   2.938   6.177  0.2023 -0.7495 -0.0756
    9CHTO  H138 3525   5.755   2.964   6.156  0.1206  2.5482 -1.5617
    9CHTO   O50 3526   5.219   2.920   6.194 -0.4289 -0.3661  0.4514
    9CHTO   C73 3527   5.218   3.012   6.308  0.0118  0.0288 -1.0193
    9CHTO  H145 3528   5.183   2.951   6.395 -1.0545 -2.9945  1.2704
    9CHTO   C74 3529   5.132   3.130   6.280  0.3340  0.1105 -0.4149
    9CHTO  H146 3530   5.041   3.100   6.244  0.7174 -0.7055  1.6189
    9CHTO   O54 3531   5.107   3.205   6.406 -0.1087 -0.0389  0.0281
    9CHTO  H133 3532   5.090   3.295   6.377  0.2301  1.2143  2.2408
    9CHTO   C75 3533   5.202   3.226   6.168  0.3481  0.0870  0.0446
    9CHTO  H147 3534   5.206   3.165   6.073  1.1442  0.7584 -2.3848
    9CHTO   N13 3535   5.114   3.343   6.135  0.0100  0.8922 -0.2799
    9CHTO  H139 3536   5.070   3.325   6.037 -0.8164 -0.0837 -0.9777
    9CHTO  H140 3537   5.161   3.437   6.135 -2.5278  1.7024 -1.2582
    9CHTO   C76 3538   5.353   3.265   6.198 -0.6049  0.4289  0.5405
    9CHTO  H148 3539   5.374   3.341   6.276  1.2198  2.3002 -0.9153
    9CHTO   O49 3540   5.424   3.146   6.234 -0.3614  0.6034  0.1482
    9CHTO   C77 3541   5.358   3.077   6.343  0.1355  0.9748 -0.3931
    9CHTO  H149 3542   5.344   3.139   6.429  3.2291 -0.3392  0.1337
    9CHTO   C88 3543   5.448   2.966   6.408  0.0544  0.6926  0.3912
    9CHTO   O58 3544   5.586   3.020   6.461  0.0107  0.5629  0.3560
    9CHTO  H136 3545   5.577   3.065   6.539  0.6311 -0.6298 -0.6133
    9CHTO   O51 3546   5.413   3.316   6.058  0.3119 -0.3931 -0.3691
    9CHTO   C78 3547   5.528   3.409   6.065  0.5560  1.1684  0.3421
    9CHTO  H150 3548   5.586   3.410   6.165  0.7650  1.9949  1.2863
    9CHTO   C80 3549   5.478   3.558   6.037  0.3788  0.1333 -0.2876
    9CHTO  H152 3550   5.406   3.555   5.950 -2.5258 -1.2746  2.0318
    9CHTO   O55 3551   5.383   3.601   6.136 -0.3005  0.0619  0.2153
    9CHTO  H134 3552   5.424   3.615   6.225  2.2266  1.6365  2.3983
    9CHTO   C84 3553   5.601   3.662   6.027 -0.2677  0.3912  0.2762
    9CHTO  H156 3554   5.659   3.667   6.118  2.8115  1.5054  2.5198
    9CHTO   N15 3555   5.554   3.797   5.988 -0.0044  0.2057 -1.2994
    9CHTO  H143 3556   5.467   3.823   6.033 -1.2303  1.2224  1.9439
    9CHTO  H144 3557   5.631   3.869   6.013 -2.0482  0.7115  0.2810
    9CHTO   C87 3558   5.713   3.616   5.929 -0.2132 -0.4347 -0.8469
    9CHTO  H159 3559   5.695   3.634   5.826  1.5305  0.9886  1.2226
    9CHTO   O53 3560   5.739   3.450   5.948 -0.4819  0.0440  0.0125
    9CHTO   C82 3561   5.627   3.363   5.959 -0.8325 -0.0105  0.5524
    9CHTO  H154 3562   5.577   3.360   5.860  0.7535  1.7398 -2.0130
    9CHTO   C89 3563   5.683   3.223   5.984 -0.5791  0.0766 -0.4041
    9CHTO   O59 3564   5.757   3.208   6.104 -0.4965  0.1724 -0.3093
    9CHTO  H137 3565   5.850   3.210   6.085  1.5978  2.5942 -1.8906
    9CHTO   O45 3566   5.859   3.696   5.945 -0.3579 -0.0122 -0.1000
    9CHTO   C67 3567   5.926   3.670   6.071  0.1115 -0.1167  0.1012
    9CHTO  H124 3568   5.850   3.645   6.140 -0.7320  0.7083 -0.6336
    9CHTO   C65 3569   6.031   3.546   6.057 -0.2498  0.7455 -1.1954
    9CHTO  H122 3570   6.052   3.523   5.949  0.3680 -2.1519 -1.6054
    9CHTO   O44 3571   5.966   3.424   6.106 -0.4103  0.2304  0.2198
    9CHTO  H102 3572   6.008   3.343   6.091  0.9625 -0.3152  3.5700
    9CHTO   C63 3573   6.166   3.577   6.115  0.1401  0.3784 -0.2108
    9CHTO  H120 3574   6.217   3.649   6.057  0.1178  0.2231  0.2504
    9CHTO   N11 3575   6.262   3.465   6.122  0.5771  0.0832  0.4954
    9CHTO  H108 3576   6.218   3.372   6.156 -0.5461  1.4489 -2.1722
    9CHTO  H109 3577   6.320   3.462   6.035  0.2083 -1.7131 -0.7178
    9CHTO   C61 3578   6.137   3.649   6.259 -0.3765  0.4902 -0.1433
    9CHTO  H118 3579   6.233   3.669   6.310 -0.6097 -0.7301 -2.8654
    9CHTO   O40 3580   6.073   3.782   6.240  0.6546 -0.2072  0.8785
    9CHTO   C68 3581   5.998   3.809   6.119  0.3446  0.1640  0.1850
    9CHTO  H125 3582   6.060   3.825   6.041 -4.0538 -0.6564 -1.2271
    9CHTO   C72 3583   5.899   3.926   6.126  0.3122 -0.6733 -0.0239
    9CHTO   O48 3584   5.974   4.035   6.181 -0.0165  0.1222 -1.0754
    9CHTO  H105 3585   5.988   4.025   6.274  1.0912 -3.1485 -3.1927
    9CHTO   O38 3586   6.055   3.564   6.347 -0.2620  0.5183 -0.0986
    9CHTO   C55 3587   6.097   3.537   6.484  0.1990  0.1391  0.0466
    9CHTO  H112 3588   6.189   3.589   6.506  1.5330 -2.9479 -0.9883
    9CHTO   C56 3589   6.108   3.378   6.506  0.0792 -0.5915  0.4970
    9CHTO  H113 3590   6.005   3.345   6.482  1.7248  0.5861 -1.1362
    9CHTO   O42 3591   6.195   3.326   6.400 -0.1540  0.0032  0.1869
    9CHTO  H100 3592   6.213   3.235   6.421 -0.5754  0.3085 -1.4114
    9CHTO   C57 3593   6.146   3.355   6.650  0.5615  0.5395 -0.3872
    9CHTO  H114 3594   6.241   3.396   6.671 -0.9114  1.1443  1.1658
    9CHTO   N10 3595   6.153   3.206   6.678 -0.1843 -0.1820  0.1366
    9CHTO  H106 3596   6.179   3.149   6.592 -0.7711  2.6257  2.8229
    9CHTO  H107 3597   6.065   3.179   6.729  0.0685  0.9937 -1.6929
    9CHTO   C58 3598   6.045   3.429   6.746 -0.6484 -0.1992  0.0519
    9CHTO  H115 3599   5.942   3.398   6.720 -1.4300  4.3397 -1.3547
    9CHTO   O37 3600   6.035   3.569   6.720 -0.1694 -0.1512 -0.8446
    9CHTO   C59 3601   5.996   3.605   6.586  0.0136 -0.0567 -0.2017
    9CHTO  H116 3602   5.896   3.571   6.562 -1.5034  1.9657  1.8657
    9CHTO   C70 3603   5.968   3.753   6.567  0.5183  0.4119 -1.1711
    9CHTO   O46 3604   5.861   3.804   6.643  0.3428  0.3468  0.0971
    9CHTO  H103 3605   5.775   3.767   6.623 -0.6923  0.2312  1.0759
    9CHTO   O39 3606   6.087   3.419   6.912 -0.1093 -0.3370 -0.2118
    9CHTO   C60 3607   5.985   3.346   6.991 -0.1240 -0.3318  0.7170
    9CHTO  H117 3608   5.934   3.275   6.927  0.0422 -3.2522  1.4340
    9CHTO   C62 3609   6.054   3.271   7.108 -0.2791 -0.0600  0.4078
    9CHTO  H119 3610   6.107   3.195   7.063  2.3290 -0.1430  2.5017
    9CHTO   O43 3611   6.143   3.361   7.174 -0.1567  0.7143  0.8365
    9CHTO  H101 3612   6.208   3.320   7.228 -0.4514  1.6286  0.7726
    9CHTO   C66 3613   5.947   3.204   7.210  0.4777 -0.7437 -0.2629
    9CHTO  H123 3614   5.883   3.134   7.165 -1.1379  3.5961 -0.2205
    9CHTO   N12 3615   6.016   3.131   7.318 -0.7348 -0.2273 -0.8975
    9CHTO  H110 3616   6.019   3.022   7.309  0.4530  0.1044  1.7082
    9CHTO  H111 3617   5.973   3.162   7.410  1.3437  0.5326  1.2753
    9CHTO   C69 3618   5.869   3.330   7.265  0.7416  0.5356 -0.6070
    9CHTO  H126 3619   5.936   3.392   7.316  0.2422 -1.3493 -1.3201
    9CHTO   O41 3620   5.788   3.414   7.148 -0.2893 -0.2950 -0.0416
    9CHTO   C64 3621   5.882   3.458   7.038  0.8709  0.3135 -0.1463
    9CHTO  H121 3622   5.943   3.549   7.080  1.4416 -2.4620 -0.4358
    9CHTO   C71 3623   5.783   3.509   6.925  0.1164 -0.7879  0.2794
    9CHTO   O47 3624   5.734   3.640   6.950  0.2535 -0.1311  0.0082
    9CHTO  H104 3625   5.638   3.623   6.964 -2.8808  0.7185  0.6346
    9CHTO   O34 3626   5.759   3.285   7.378 -0.3443  0.2838  0.1963
    9CHTO   C49 3627   5.637   3.352   7.465 -0.1841  0.1215  0.6697
    9CHTO   H91 3628   5.567   3.273   7.487 -1.0551 -1.1362 -0.5698
    9CHTO   C47 3629   5.558   3.455   7.374 -0.0086  1.3168 -0.1635
    9CHTO   H89 3630   5.463   3.475   7.432  1.1499  1.4088 -0.6694
    9CHTO   O33 3631   5.524   3.403   7.245  0.2438 -0.7490 -1.2456
    9CHTO   H70 3632   5.486   3.316   7.233  0.2945 -1.1601 -0.7255
    9CHTO   C45 3633   5.642   3.592   7.357  0.3465 -0.1259 -0.9486
    9CHTO   H87 3634   5.698   3.582   7.260  1.2843 -2.9189 -1.0026
    9CHTO    N8 3635   5.549   3.707   7.344 -0.4565 -0.0160 -0.0890
    9CHTO   H75 3636   5.595   3.801   7.326 -0.8320 -0.9234 -1.8124
    9CHTO   H76 3637   5.464   3.683   7.284 -4.0092  0.4805 -0.7045
    9CHTO   C43 3638   5.764   3.607   7.454  0.2676  0.1159 -0.3619
    9CHTO   H85 3639   5.842   3.541   7.410 -0.6644 -0.4775 -0.4809
    9CHTO   O29 3640   5.720   3.564   7.586  0.3769  0.6116  0.0814
    9CHTO   C50 3641   5.680   3.425   7.593  1.0448  0.3539  0.3506
    9CHTO   H92 3642   5.757   3.366   7.648  0.0602 -0.3906 -3.7794
    9CHTO   C54 3643   5.560   3.415   7.693 -0.0551  0.6546 -0.2133
    9CHTO   O36 3644   5.536   3.512   7.795 -0.2724  0.1837 -0.0226
    9CHTO   H72 3645   5.484   3.465   7.855  2.0159 -1.1444  1.9926
    9CHTO   O27 3646   5.827   3.735   7.464  0.0207  0.1989  0.6255
    9CHTO   C37 3647   5.908   3.829   7.393  0.6661 -0.2803  0.0254
    9CHTO   H79 3648   5.999   3.858   7.451  1.9811 -0.8106 -1.4209
    9CHTO   C38 3649   5.968   3.767   7.264 -0.4532 -0.2457  0.4512
    9CHTO   H80 3650   5.887   3.728   7.208 -0.3292  1.2747  0.5808
    9CHTO   O31 3651   6.068   3.669   7.309  0.4665 -0.1600 -0.4315
    9CHTO   H68 3652   6.135   3.710   7.361  0.4054  2.1080  1.7271
    9CHTO   C39 3653   6.032   3.875   7.168  0.5803  0.4602 -0.6174
    9CHTO   H81 3654   6.127   3.918   7.209 -2.4302  1.7144  0.8480
    9CHTO    N7 3655   6.068   3.809   7.033 -0.0214 -0.4754 -0.6102
    9CHTO   H73 3656   6.119   3.883   6.972  2.4514  0.1820  1.1435
    9CHTO   H74 3657   6.127   3.719   7.048  0.0484 -1.3524 -1.7851
    9CHTO   C40 3658   5.934   3.997   7.155 -0.5156 -0.5349  0.1783
    9CHTO   H82 3659   5.843   3.955   7.111 -0.9044  1.3373  2.0263
    9CHTO   O26 3660   5.907   4.054   7.286  0.1240 -0.2428  0.3572
    9CHTO   C41 3661   5.824   3.962   7.366  0.2758 -0.2090  0.3509
    9CHTO   H83 3662   5.739   3.922   7.311 -0.1614 -0.1699 -0.9733
    9CHTO   C52 3663   5.780   4.046   7.488 -0.4701 -1.0055 -0.0433
    9CHTO   O35 3664   5.718   4.158   7.448  0.0800 -0.3576  0.3471
    9CHTO   H71 3665   5.642   4.134   7.399  1.7345  1.2908 -0.8959
    9CHTO   O28 3666   5.959   4.110   7.073 -0.4938  0.0348  0.3240
    9CHTO   C42 3667   5.856   4.189   7.006 -0.6638 -0.0568  0.7108
    9CHTO   H84 3668   5.903   4.288   6.988 -1.8024  2.3320 -0.4134
    9CHTO   C44 3669   5.719   4.211   7.091 -0.2088  0.1805 -0.4804
    9CHTO   H86 3670   5.704   4.121   7.149 -0.0310  0.3800  2.7086
    9CHTO   O32 3671   5.747   4.313   7.189  0.1380 -0.2356 -0.2413
    9CHTO   H69 3672   5.683   4.377   7.174  0.7683  1.9895  0.3038
    9CHTO   C48 3673   5.587   4.249   7.018  0.0548  0.1304  0.6130
    9CHTO   H90 3674   5.598   4.350   6.996  1.5874 -2.6424  0.7533
    9CHTO    N9 3675   5.463   4.236   7.106  0.0660 -0.4445 -0.5152
    9CHTO   H77 3676   5.470   4.152   7.178  2.4424  0.4728  1.8988
    9CHTO   H78 3677   5.447   4.324   7.162 -0.0063 -1.2547 -0.4366
    9CHTO   C51 3678   5.592   4.166   6.881  0.2658 -0.0462 -0.0334
    9CHTO   H93 3679   5.578   4.064   6.912  0.1549 -0.0091 -1.8965
    9CHTO   O30 3680   5.711   4.179   6.804 -0.5152 -0.0004  0.0123
    9CHTO   C46 3681   5.831   4.123   6.869  0.1023  0.7913 -0.4614
    9CHTO   H88 3682   5.817   4.018   6.882 -0.8328 -0.1420  0.7311
    9CHTO   C53 3683   5.946   4.161   6.773  0.5939 -0.2921 -1.0289
    9CHTO   O72 3684   6.072   4.097   6.803 -0.7503  0.7189 -0.3515
    9CHTO  H199 3685   6.089   4.107   6.899 -2.7501  0.9428  3.6162
    9CHTO   O22 3686   5.479   4.194   6.794  0.0735  0.2697 -0.0694
    9CHTO   C31 3687   5.435   4.098   6.691  0.6017 -0.0971  0.7168
    9CHTO   H59 3688   5.342   4.145   6.644 -2.3374 -1.1035 -1.6012
    9CHTO   C29 3689   5.534   4.082   6.577  0.4705  0.8988  0.6630
    9CHTO   H57 3690   5.630   4.050   6.620  1.3996  2.2268  0.0463
    9CHTO   O21 3691   5.554   4.215   6.522  0.1773  0.0782 -0.0713
    9CHTO   H37 3692   5.592   4.262   6.594  1.7358  1.2563  0.5095
    9CHTO   C27 3693   5.482   3.980   6.467  0.1105 -0.1519 -0.0303
    9CHTO   H55 3694   5.390   4.023   6.419 -1.4424 -0.2894 -2.5592
    9CHTO    N5 3695   5.587   3.960   6.360  0.3057  0.9283 -0.0065
    9CHTO   H43 3696   5.602   4.048   6.304  0.8603 -0.3121  1.3387
    9CHTO   H44 3697   5.684   3.936   6.411  1.2572  1.3120  0.6838
    9CHTO   C25 3698   5.440   3.845   6.535 -0.3214  0.0522  0.6833
    9CHTO   H53 3699   5.527   3.809   6.579 -1.2484  0.3057  2.9134
    9CHTO   O17 3700   5.334   3.873   6.627 -0.2950  0.2958 -0.5850
    9CHTO   C32 3701   5.381   3.954   6.737  0.0048 -0.6576  0.5662
    9CHTO   H60 3702   5.461   3.906   6.793  0.1505 -0.1407  1.3932
    9CHTO   C36 3703   5.273   3.971   6.847  0.1757  0.0295 -0.1083
    9CHTO   O25 3704   5.143   4.024   6.820  0.6424 -0.4748  0.0432
    9CHTO   H40 3705   5.151   4.113   6.800 -0.0485  2.6330 -2.8804
    9CHTO   O15 3706   5.394   3.751   6.434 -0.7122  0.4399 -0.2241
    9CHTO   C19 3707   5.415   3.608   6.460 -1.6383 -0.4300 -0.1872
    9CHTO   H47 3708   5.383   3.564   6.368 -0.2104  0.8146 -2.1841
    9CHTO   C20 3709   5.566   3.567   6.481  0.8460  0.6289 -0.2873
    9CHTO   H48 3710   5.609   3.613   6.568 -1.2884 -1.0772  0.1824
    9CHTO   O19 3711   5.641   3.599   6.362  0.3080  0.0982 -0.4851
    9CHTO   H35 3712   5.730   3.616   6.384 -0.6131  0.4078 -0.1182
    9CHTO   C21 3713   5.577   3.411   6.508  0.4086  0.1662 -0.0656
    9CHTO   H49 3714   5.541   3.357   6.415 -2.2447  0.2712 -0.0151
    9CHTO    N4 3715   5.716   3.362   6.530 -0.4800  0.1437 -0.9036
    9CHTO   H41 3716   5.754   3.353   6.432 -1.5052  0.0487 -0.7532
    9CHTO   H42 3717   5.773   3.432   6.587 -1.1063 -4.0538  2.0617
    9CHTO   C22 3718   5.487   3.378   6.631  0.8801 -0.8032  0.7273
    9CHTO   H50 3719   5.503   3.440   6.713 -0.9022  0.3056  0.0404
    9CHTO   O14 3720   5.350   3.401   6.594 -0.2847  0.0028 -0.2851
    9CHTO   C23 3721   5.330   3.543   6.576  0.3961  0.4800 -0.1380
    9CHTO   H51 3722   5.341   3.597   6.671 -3.3248 -2.0498  1.8307
    9CHTO   C34 3723   5.182   3.574   6.542 -0.5231 -0.4155  0.5676
    9CHTO   O23 3724   5.095   3.505   6.631 -0.1791  0.4769  0.5292
    9CHTO   H38 3725   5.104   3.533   6.721  1.4973  2.5980  0.7321
    9CHTO   O16 3726   5.487   3.240   6.670  0.6789 -0.1073 -0.0829
    9CHTO   C24 3727   5.532   3.221   6.816  0.9225  0.1492  0.0248
    9CHTO   H52 3728   5.586   3.306   6.853 -1.0621  1.2106 -0.7859
    9CHTO   C26 3729   5.629   3.101   6.829 -0.3476 -0.0484  0.3451
    9CHTO   H54 3730   5.592   3.013   6.779 -0.6949  1.1403  1.8827
    9CHTO   O20 3731   5.753   3.124   6.755  0.2601 -0.4766 -0.3141
    9CHTO   H36 3732   5.738   3.192   6.694 -2.1362  2.7208  1.7231
    9CHTO   C30 3733   5.670   3.077   6.977 -0.4191  0.0375 -0.1483
    9CHTO   H58 3734   5.728   3.164   7.016 -1.4657  2.9667  2.4826
    9CHTO    N6 3735   5.756   2.958   6.996  0.4916  0.1350 -0.3346
    9CHTO   H45 3736   5.716   2.871   6.956 -1.3600  1.0283  0.6218
    9CHTO   H46 3737   5.778   2.938   7.098  1.4860  1.3296 -0.2426
    9CHTO   C33 3738   5.538   3.073   7.064  0.3591 -0.0445  1.1276
    9CHTO   H61 3739   5.482   2.989   7.033  3.4926  1.5319 -0.7004
    9CHTO   O18 3740   5.469   3.196   7.045  0.0948  0.2780  0.6090
    9CHTO   C28 3741   5.411   3.206   6.915 -0.1008 -0.4230  0.1148
    9CHTO   H56 3742   5.354   3.114   6.891 -0.0067  2.3230 -0.1066
    9CHTO   C35 3743   5.309   3.323   6.908 -0.1634  0.1224  0.3416
    9CHTO   O24 3744   5.198   3.293   6.992  0.1190  0.0732  0.3093
    9CHTO   H39 3745   5.137   3.357   6.974  2.2427 -0.4440  0.2191
    9CHTO    O9 3746   5.567   3.052   7.205  0.1997 -0.3898 -0.5985
    9CHTO   C13 3747   5.479   2.935   7.280  1.0946 -0.3842  0.1607
    9CHTO   H26 3748   5.483   2.842   7.213 -1.7887  0.4616 -0.3776
    9CHTO   C11 3749   5.328   2.985   7.293 -0.5491 -0.0184  1.0454
    9CHTO   H24 3750   5.286   2.999   7.196  2.0978  0.8052  1.5686
    9CHTO    O8 3751   5.331   3.123   7.337 -0.0138  0.3812  0.0082
    9CHTO    H3 3752   5.368   3.180   7.274  2.6146  2.7070  1.5051
    9CHTO    C9 3753   5.256   2.889   7.393 -0.0528 -0.1552 -0.0088
    9CHTO   H22 3754   5.268   2.788   7.347 -0.5178 -0.0331 -1.2348
    9CHTO    N2 3755   5.107   2.902   7.400 -0.7145 -0.5241 -0.2320
    9CHTO   H10 3756   5.055   2.904   7.302  1.6436  0.4542 -3.1599
    9CHTO   H11 3757   5.083   2.997   7.453  0.9287 -1.5282  2.5267
    9CHTO    C7 3758   5.327   2.886   7.530 -0.1478 -0.2756  0.1369
    9CHTO   H20 3759   5.329   2.785   7.556 -1.5647 -0.1427 -1.3370
    9CHTO    O4 3760   5.463   2.935   7.534  0.2681  0.5488 -0.4813
    9CHTO   C14 3761   5.542   2.896   7.423 -0.1458  0.3630 -0.3878
    9CHTO   H27 3762   5.553   2.781   7.429 -0.2463 -2.1540 -0.6140
    9CHTO   C18 3763   5.679   2.961   7.436 -0.0965 -0.1975  0.2998
    9CHTO   O13 3764   5.757   2.907   7.543  0.2365 -0.1891 -0.5825
    9CHTO    H7 3765   5.721   2.943   7.622  0.7604 -0.5015  0.5968
    9CHTO    O2 3766   5.244   2.966   7.661 -0.4172  0.0802 -0.3178
    9CHTO    C1 3767   5.281   2.908   7.785  0.0712 -0.0327 -0.1312
    9CHTO   H14 3768   5.385   2.853   7.774  1.6668  1.9115  1.5997
    9CHTO    C2 3769   5.177   2.808   7.834  0.4851 -0.2747  0.4467
    9CHTO   H15 3770   5.088   2.865   7.842  1.8742  2.1068 -0.2761
    9CHTO    O6 3771   5.166   2.706   7.733 -0.0767  0.2229 -0.3068
    9CHTO    H1 3772   5.087   2.653   7.744 -1.1091  1.6874  0.7196
    9CHTO    C3 3773   5.204   2.746   7.976 -0.0934 -0.4757  0.1658
    9CHTO   H16 3774   5.295   2.692   7.952 -0.6654 -1.8184 -0.1283
    9CHTO    N1 3775   5.102   2.649   8.023 -0.4758 -0.5065  0.2927
    9CHTO    H8 3776   5.143   2.562   8.071  0.1024  1.0975 -0.3936
    9CHTO    H9 3777   5.030   2.620   7.950 -4.9715  1.2745  0.6811
    9CHTO    C4 3778   5.245   2.862   8.080 -0.9429  0.4851  0.2354
    9CHTO   H17 3779   5.160   2.921   8.100 -0.6506 -2.1911  0.8099
    9CHTO    O1 3780   5.339   2.953   8.024 -0.0016  0.4016  0.2027
    9CHTO    C5 3781   5.290   3.017   7.901  0.3656 -0.0121 -0.4601
    9CHTO   H18 3782   5.186   3.056   7.908 -2.1757  1.6837 -1.9219
    9CHTO   C16 3783   5.381   3.132   7.849  0.1804  1.2070 -0.3123
    9CHTO   O11 3784   5.393   3.223   7.961 -0.6931  0.2026  0.1138
    9CHTO    H5 3785   5.407   3.313   7.931 -0.6318  0.9292  0.6779
    9CHTO    O3 3786   5.292   2.820   8.211  0.1936  0.1008  0.3798
    9CHTO    C6 3787   5.228   2.884   8.325  0.0268  0.1655  0.4746
    9CHTO   H19 3788   5.165   2.968   8.299  0.6773  2.2941 -0.5053
    9CHTO    C8 3789   5.131   2.789   8.407  0.4564  0.6015 -0.0844
    9CHTO   H21 3790   5.191   2.695   8.425  3.7165 -0.2422 -1.9790
    9CHTO    O7 3791   5.012   2.770   8.324 -0.2539 -0.3264  0.3085
    9CHTO    H2 3792   5.021   2.682   8.288 -1.7728 -0.8754  0.4110
    9CHTO   C12 3793   5.095   2.840   8.549 -0.8448 -0.6586  0.4997
    9CHTO   H25 3794   5.022   2.913   8.545 -0.8167 -3.2957 -0.6124
    9CHTO    N3 3795   5.024   2.730   8.632  0.2644 -0.5072 -0.0927
    9CHTO   H12 3796   5.086   2.636   8.644 -0.3669 -0.2939 -1.4504
    9CHTO   H13 3797   4.931   2.709   8.575  1.9410 -1.6084  0.8195
    9CHTO   C15 3798   5.224   2.899   8.616 -0.3254  0.3825 -0.8069
    9CHTO   H28 3799   5.297   2.820   8.646  2.0067 -1.0126 -2.0755
    9CHTO   O10 3800   5.197   2.979   8.741  0.3264 -0.1465  0.0550
    9CHTO    H4 3801   5.107   3.011   8.729 -2.6192 -2.2063 -3.5510
    9CHTO    O5 3802   5.284   3.000   8.528  0.6275  0.3096  0.6441
    9CHTO   C10 3803   5.349   2.937   8.414  0.1033 -0.3398 -0.1703
    9CHTO   H23 3804   5.413   2.859   8.449  0.3348 -1.2500 -1.0187
    9CHTO   C17 3805   5.431   3.035   8.331  0.1524 -0.2616  0.4499
    9CHTO   O12 3806   5.547   3.089   8.398  0.1812  0.0257 -0.0068
    9CHTO    H6 3807   5.521   3.170   8.441 -1.9384 -1.3008  0.2121
   10CHTO  H203 3808   4.061   7.208   6.088  0.8516 -0.9372 -4.2169
   10CHTO   O82 3809   4.120   7.255   6.032  0.0041 -0.1887 -0.1466
   10CHTO  C123 3810   4.236   7.307   6.105  0.2675  0.0809  0.1154
   10CHTO  H227 3811   4.276   7.400   6.045  1.9236  0.3115 -0.1424
   10CHTO   O77 3812   4.188   7.356   6.236 -0.1263 -0.4783  0.2957
   10CHTO  C118 3813   4.295   7.413   6.312 -0.4836 -0.4045  0.4303
   10CHTO  H222 3814   4.336   7.502   6.262 -0.0785  0.8790 -2.2032
   10CHTO  C125 3815   4.209   7.460   6.439 -0.3508 -0.1162 -0.3365
   10CHTO   O84 3816   4.113   7.566   6.419 -0.3181  0.7849  0.5099
   10CHTO  H205 3817   4.113   7.590   6.324  2.1071  0.0860 -1.8356
   10CHTO  C114 3818   4.407   7.311   6.342  0.3713 -0.3939 -0.2633
   10CHTO  H218 3819   4.361   7.229   6.394  0.0777 -0.6905 -2.1166
   10CHTO  C116 3820   4.464   7.245   6.216  0.4171  0.2068  1.1226
   10CHTO  H220 3821   4.524   7.315   6.165  1.1528  0.1544  1.4797
   10CHTO   O79 3822   4.555   7.138   6.251 -0.3647  0.4903  0.0331
   10CHTO  H201 3823   4.635   7.177   6.290  0.9034  2.3228  0.6626
   10CHTO  C120 3824   4.342   7.192   6.127 -0.0385  0.0555  0.7124
   10CHTO  H224 3825   4.307   7.099   6.166  1.6768 -1.5089 -0.2041
   10CHTO   N21 3826   4.394   7.154   5.998 -0.2600  0.3482  0.2397
   10CHTO  H211 3827   4.481   7.097   6.004  1.0082  3.5476  0.5684
   10CHTO  H212 3828   4.312   7.102   5.934 -2.0137 -0.3497  0.7502
   10CHTO   O75 3829   4.504   7.379   6.430  0.0275  0.3330 -0.1865
   10CHTO  C112 3830   4.574   7.299   6.567  0.5518  0.3770 -0.1761
   10CHTO  H216 3831   4.598   7.197   6.531 -1.5978  0.5768 -2.0225
   10CHTO   O73 3832   4.478   7.297   6.674 -0.1504 -0.5220 -0.3365
   10CHTO  C113 3833   4.540   7.259   6.800 -0.3512  0.6162  1.0668
   10CHTO  H217 3834   4.579   7.163   6.792  0.0311  3.2589  1.4222
   10CHTO  C124 3835   4.431   7.256   6.906  0.6281 -0.1952 -0.0089
   10CHTO   O83 3836   4.447   7.170   7.018  0.3663 -0.5279 -0.1660
   10CHTO  H204 3837   4.365   7.171   7.066  0.5481 -1.5488 -0.6891
   10CHTO  C109 3838   4.656   7.358   6.832  0.2003 -0.3164  0.2512
   10CHTO  H213 3839   4.607   7.457   6.845  1.2519  2.5378  1.2605
   10CHTO  C110 3840   4.759   7.357   6.723  0.1622 -0.0040  0.1699
   10CHTO  H214 3841   4.789   7.255   6.717 -0.8412  0.9297  0.6584
   10CHTO   O78 3842   4.876   7.435   6.751  0.3344  0.6756  0.0207
   10CHTO  H200 3843   4.875   7.525   6.727 -1.6451 -0.2447  0.4199
   10CHTO  C111 3844   4.698   7.390   6.587 -0.3046  0.4452 -0.1038
   10CHTO  H215 3845   4.663   7.496   6.593  1.2773  0.5079 -2.8093
   10CHTO   N19 3846   4.799   7.383   6.474 -0.2731 -1.0172  0.0728
   10CHTO  H207 3847   4.863   7.469   6.495 -0.6344  0.4810  0.7780
   10CHTO  H208 3848   4.855   7.293   6.482  2.2544  3.1998 -2.8638
   10CHTO   O74 3849   4.714   7.317   6.958 -0.3096  0.1958  0.0159
   10CHTO  C115 3850   4.747   7.427   7.060  0.0289 -0.2947  0.3167
   10CHTO  H219 3851   4.767   7.526   7.006  0.4702  0.1442 -1.3545
   10CHTO   O76 3852   4.627   7.463   7.163 -0.2696  0.4272 -0.0508
   10CHTO  C122 3853   4.607   7.355   7.258 -0.6980 -0.8450 -0.7292
   10CHTO  H226 3854   4.577   7.267   7.208 -0.5139  2.5403  1.2783
   10CHTO  C126 3855   4.491   7.389   7.357  0.3032  0.3641  0.0973
   10CHTO   O85 3856   4.368   7.394   7.282 -0.2882 -0.0794  0.2531
   10CHTO  H206 3857   4.337   7.309   7.256  0.4988 -1.7682 -0.7741
   10CHTO  C121 3858   4.738   7.311   7.344  0.7590  0.5193  0.6229
   10CHTO  H225 3859   4.711   7.335   7.442  2.7969 -1.0295  1.3884
   10CHTO   O81 3860   4.761   7.170   7.322 -0.3169  0.0048  0.5531
   10CHTO  H202 3861   4.827   7.126   7.373 -0.9385 -0.5210  1.2983
   10CHTO  C119 3862   4.865   7.400   7.301 -0.2021  0.5270 -0.0716
   10CHTO  H223 3863   4.845   7.506   7.328 -0.0520 -0.2177 -0.6945
   10CHTO  C117 3864   4.887   7.394   7.144  0.3275 -0.0520 -0.1516
   10CHTO  H221 3865   4.923   7.300   7.106  0.7682 -0.1988 -0.7302
   10CHTO   N20 3866   4.993   7.488   7.095 -0.1833  0.1059  0.3762
   10CHTO  H209 3867   5.036   7.540   7.178  3.1841 -0.9537 -0.0970
   10CHTO  H210 3868   4.952   7.556   7.023 -0.7713 -1.9779  3.4891
   10CHTO   O80 3869   4.995   7.366   7.385 -0.3644 -0.3869  0.2214
   10CHTO  C103 3870   5.031   7.445   7.508 -0.5650  0.5214  0.4290
   10CHTO  H190 3871   5.090   7.533   7.495  2.5658  1.2993  2.5578
   10CHTO  C101 3872   4.913   7.487   7.609 -0.4287  0.9433  0.0482
   10CHTO  H188 3873   4.845   7.400   7.615  0.4202  0.5022  0.5994
   10CHTO   O68 3874   4.840   7.595   7.546  0.4516 -0.2852  0.3589
   10CHTO  H168 3875   4.895   7.670   7.550  0.0959  1.8217 -2.0444
   10CHTO   C99 3876   4.965   7.525   7.747 -0.0307  0.2801 -0.0934
   10CHTO  H186 3877   5.020   7.616   7.737  1.0655  0.3813 -1.2671
   10CHTO   N17 3878   4.856   7.552   7.845 -0.3168  0.0474  0.4965
   10CHTO  H174 3879   4.796   7.468   7.852 -0.5802 -1.3265 -0.2552
   10CHTO  H175 3880   4.893   7.568   7.942  0.2641 -1.3533  0.5973
   10CHTO   C97 3881   5.066   7.423   7.809  0.6321  0.2855 -0.5770
   10CHTO  H184 3882   5.007   7.320   7.833 -0.8452 -0.5262 -3.1831
   10CHTO   O64 3883   5.170   7.400   7.712  0.2407  0.3785  0.1108
   10CHTO  C104 3884   5.122   7.339   7.588 -0.0572 -0.3638  0.0291
   10CHTO  H191 3885   5.067   7.244   7.598 -1.0370  1.8201 -3.5006
   10CHTO  C108 3886   5.248   7.299   7.512  0.0884  0.2179  0.0053
   10CHTO   O71 3887   5.239   7.217   7.397 -0.1135  0.1276  0.6774
   10CHTO  H171 3888   5.231   7.128   7.421  1.6232 -0.2913 -0.2395
   10CHTO   O62 3889   5.129   7.476   7.926 -0.3112  0.3151 -0.2281
   10CHTO   C91 3890   5.242   7.397   7.979 -0.6267  0.4858  0.3906
   10CHTO  H178 3891   5.251   7.302   7.930  4.4330  0.0705  2.0543
   10CHTO   C92 3892   5.199   7.382   8.132  0.2698  0.3078  0.6732
   10CHTO  H179 3893   5.096   7.354   8.131  0.5847 -1.0856 -2.9451
   10CHTO   O66 3894   5.276   7.272   8.172 -0.0730 -0.2485  0.4024
   10CHTO  H166 3895   5.235   7.192   8.151  0.9200  3.0576 -0.1649
   10CHTO   C93 3896   5.233   7.496   8.234 -0.4052 -0.3327 -0.5704
   10CHTO  H180 3897   5.237   7.450   8.339 -1.9387 -2.0498  1.9310
   10CHTO   N16 3898   5.124   7.600   8.247 -0.7355  0.4924 -0.5774
   10CHTO  H172 3899   5.155   7.679   8.316 -0.0771 -1.4636  0.4109
   10CHTO  H173 3900   5.104   7.637   8.147 -1.4001  0.6903  3.3988
   10CHTO   C94 3901   5.375   7.566   8.201 -0.9114 -0.2882  0.2000
   10CHTO  H181 3902   5.360   7.668   8.163 -2.0188 -1.7549  0.4549
   10CHTO   O61 3903   5.443   7.502   8.093  0.2638 -0.6118  0.4601
   10CHTO   C95 3904   5.381   7.471   7.967 -0.3295 -0.5084 -0.7826
   10CHTO  H182 3905   5.357   7.562   7.910 -1.5816  1.4555  1.1530
   10CHTO  C106 3906   5.479   7.382   7.882 -0.5658 -0.4351  0.1761
   10CHTO   O69 3907   5.443   7.367   7.740  0.0042  0.0890 -1.0824
   10CHTO  H169 3908   5.425   7.448   7.698  0.3964  0.6313 -0.6064
   10CHTO   O63 3909   5.469   7.568   8.339  0.0017  0.1197 -0.4954
   10CHTO   C96 3910   5.539   7.432   8.364 -0.1742 -0.6785  0.5346
   10CHTO  H183 3911   5.480   7.354   8.326  0.8377  1.5082  1.4162
   10CHTO   C98 3912   5.556   7.390   8.519 -0.5391 -0.1375  0.6724
   10CHTO  H185 3913   5.461   7.382   8.567  0.2474  0.6863  3.1885
   10CHTO   O67 3914   5.613   7.254   8.508 -0.1178 -0.9920 -0.6863
   10CHTO  H167 3915   5.547   7.196   8.475  1.4971  1.7837 -0.7251
   10CHTO  C102 3916   5.647   7.487   8.593 -0.8576 -0.0805 -0.5485
   10CHTO  H189 3917   5.686   7.433   8.677  0.1153  1.4565 -0.7239
   10CHTO   N18 3918   5.585   7.604   8.654 -0.3200  0.0340  0.3472
   10CHTO  H176 3919   5.556   7.562   8.748  0.7464 -0.2487  0.8374
   10CHTO  H177 3920   5.658   7.680   8.670 -2.2571 -0.2292  1.3221
   10CHTO  C105 3921   5.760   7.532   8.496  0.0466 -0.9599  0.5281
   10CHTO  H192 3922   5.736   7.630   8.452  2.9730 -1.9214 -1.4574
   10CHTO   O65 3923   5.785   7.445   8.386  0.0405 -0.5293 -0.2569
   10CHTO  C100 3924   5.677   7.440   8.294  0.0151 -0.4975  0.7842
   10CHTO  H187 3925   5.685   7.530   8.233 -1.0580 -2.5767 -0.8729
   10CHTO  C107 3926   5.706   7.328   8.194 -0.1325 -0.2004  1.0750
   10CHTO   O70 3927   5.789   7.375   8.085  0.1393 -0.1057  0.5281
   10CHTO  H170 3928   5.738   7.425   8.021 -2.4547  0.7804  1.5575
   10CHTO   O57 3929   5.904   7.550   8.597  0.1399 -0.2957  0.1419
   10CHTO   C85 3930   6.029   7.606   8.552  0.2585  0.7087 -0.6998
   10CHTO  H157 3931   5.995   7.688   8.497 -0.6135 -2.5814 -1.6337
   10CHTO   C83 3932   6.110   7.511   8.455  0.3541  0.6451  0.4915
   10CHTO  H155 3933   6.043   7.485   8.375  0.7205 -1.4214  0.6042
   10CHTO   O56 3934   6.139   7.380   8.511 -0.0995 -0.7007  0.0308
   10CHTO  H135 3935   6.173   7.326   8.444 -1.4415 -0.8339  1.2667
   10CHTO   C81 3936   6.240   7.580   8.406  0.7667 -0.0673 -0.3719
   10CHTO  H153 3937   6.211   7.672   8.357 -3.3128 -1.5491 -2.8579
   10CHTO   N14 3938   6.297   7.521   8.286  0.5590  0.3568  0.6112
   10CHTO  H141 3939   6.317   7.416   8.292  0.5822  2.6793  1.2668
   10CHTO  H142 3940   6.383   7.570   8.244 -1.1802  2.0203 -0.5058
   10CHTO   C79 3941   6.332   7.612   8.526 -0.1707 -0.5790 -0.5997
   10CHTO  H151 3942   6.416   7.672   8.493 -1.5101 -0.4820  4.2000
   10CHTO   O52 3943   6.265   7.689   8.624 -0.1773 -0.5921  0.1028
   10CHTO   C86 3944   6.132   7.653   8.668 -0.9516 -0.0460 -0.0931
   10CHTO  H158 3945   6.148   7.567   8.739 -0.1915 -0.7175  0.1815
   10CHTO   C90 3946   6.068   7.769   8.747 -0.0590 -0.3612  0.2327
   10CHTO   O60 3947   5.995   7.733   8.863  0.1956 -0.7535 -0.4888
   10CHTO  H138 3948   5.936   7.800   8.897  0.7835  0.4831 -1.1659
   10CHTO   O50 3949   6.381   7.490   8.581 -0.0498 -0.1079  0.5096
   10CHTO   C73 3950   6.504   7.443   8.645 -0.0549 -0.6569 -0.5637
   10CHTO  H145 3951   6.586   7.494   8.599  1.7551 -2.4607  0.7394
   10CHTO   C74 3952   6.525   7.295   8.616 -0.5508 -0.6309  0.0643
   10CHTO  H146 3953   6.534   7.284   8.507 -0.0435  0.1960  1.0302
   10CHTO   O54 3954   6.653   7.255   8.676  0.0225 -0.0989 -0.4785
   10CHTO  H133 3955   6.642   7.223   8.759 -3.3158 -1.2096 -2.0628
   10CHTO   C75 3956   6.405   7.218   8.669  0.3885  0.5215 -0.2800
   10CHTO  H147 3957   6.320   7.257   8.621  0.3624 -2.9039 -0.4593
   10CHTO   N13 3958   6.398   7.070   8.646  0.2159  0.3446  0.0200
   10CHTO  H139 3959   6.485   7.019   8.681  0.7373 -2.6272 -4.0825
   10CHTO  H140 3960   6.307   7.037   8.692  2.0367 -0.5826  1.1461
   10CHTO   C76 3961   6.389   7.247   8.826 -0.0574  0.0583 -0.5584
   10CHTO  H148 3962   6.466   7.188   8.875 -0.4295  0.9122 -0.9536
   10CHTO   O49 3963   6.404   7.392   8.864 -0.3438  0.1781 -0.0494
   10CHTO   C77 3964   6.509   7.467   8.800 -0.2619 -0.4817 -0.1591
   10CHTO  H149 3965   6.604   7.445   8.841  2.3372  1.3399 -0.9310
   10CHTO   C88 3966   6.487   7.620   8.830  0.1885 -0.0955 -0.3338
   10CHTO   O58 3967   6.617   7.699   8.792 -1.1340 -0.1054 -0.9251
   10CHTO  H136 3968   6.681   7.682   8.860 -0.6267 -3.7732  1.9625
   10CHTO   O51 3969   6.246   7.204   8.872  0.2808 -0.4623  0.0726
   10CHTO   C78 3970   6.197   7.253   9.006 -0.7649 -0.2800  0.1851
   10CHTO  H150 3971   6.244   7.348   9.031 -2.1513  5.0533  0.3905
   10CHTO   C80 3972   6.227   7.156   9.118 -0.0557  0.2546 -0.7756
   10CHTO  H152 3973   6.191   7.046   9.097 -0.8073 -1.3628 -2.3283
   10CHTO   O55 3974   6.372   7.156   9.137  0.2797  0.3917 -0.4820
   10CHTO  H134 3975   6.415   7.094   9.078  2.1155  0.8338  0.3853
   10CHTO   C84 3976   6.159   7.200   9.259  0.3206 -0.2340  0.6055
   10CHTO  H156 3977   6.198   7.296   9.289  0.5674 -0.0845 -0.1876
   10CHTO   N15 3978   6.171   7.098   9.367  0.3660  0.0914 -0.8922
   10CHTO  H143 3979   6.113   7.117   9.454 -1.3040  0.6659 -0.9087
   10CHTO  H144 3980   6.274   7.078   9.392 -2.1672 -0.6182  1.2371
   10CHTO   C87 3981   6.006   7.233   9.232 -0.3109  0.3502 -0.2463
   10CHTO  H159 3982   5.952   7.144   9.203 -0.8394 -0.5316 -0.1610
   10CHTO   O53 3983   5.992   7.337   9.120  0.1422  0.2415  0.1241
   10CHTO   C82 3984   6.046   7.280   8.995  0.0547  0.0853  0.0516
   10CHTO  H154 3985   5.992   7.189   8.964 -1.2834  1.5129 -1.5894
   10CHTO   C89 3986   6.018   7.377   8.883  0.9047 -0.0979  0.5413
   10CHTO   O59 3987   5.883   7.388   8.853  0.7838 -0.4234 -0.0749
   10CHTO  H137 3988   5.861   7.337   8.772  1.2173 -0.0810  0.5695
   10CHTO   O45 3989   5.944   7.297   9.341  0.4824  0.2497  0.1643
   10CHTO   C67 3990   5.815   7.246   9.376  0.2098 -0.2176  0.1573
   10CHTO  H124 3991   5.765   7.224   9.286 -2.0431 -0.1907  0.8328
   10CHTO   C65 3992   5.825   7.121   9.469 -0.6332 -0.8542  0.4059
   10CHTO  H122 3993   5.903   7.056   9.425  0.4076  0.3561  2.5523
   10CHTO   O44 3994   5.697   7.051   9.481 -0.6212 -0.1771 -0.4803
   10CHTO  H102 3995   5.670   6.986   9.419 -0.3776  1.0328  3.6813
   10CHTO   C63 3996   5.890   7.168   9.609 -0.2214 -0.3635 -0.3133
   10CHTO  H120 3997   5.981   7.217   9.588 -1.0102 -2.2336 -0.8738
   10CHTO   N11 3998   5.940   7.057   9.692 -0.4221  0.3444 -0.3336
   10CHTO  H108 3999   5.994   7.094   9.777 -0.5911 -1.1484 -0.8942
   10CHTO  H109 4000   5.849   7.005   9.719 -0.8547  3.3085 -0.9584
   10CHTO   C61 4001   5.802   7.276   9.681 -0.4068  1.4842 -0.3754
   10CHTO  H118 4002   5.863   7.312   9.765  0.9789  0.1851 -3.1646
   10CHTO   O40 4003   5.776   7.391   9.588  0.1593 -0.8376 -0.5818
   10CHTO   C68 4004   5.733   7.367   9.446  0.0819 -0.9118  0.1196
   10CHTO  H125 4005   5.764   7.459   9.381  0.4880 -1.8926 -0.2457
   10CHTO   C72 4006   5.580   7.368   9.452  0.0074 -0.4927 -0.0103
   10CHTO   O48 4007   5.523   7.350   9.323  0.2337  0.2709 -0.5159
   10CHTO  H105 4008   5.519   7.431   9.274  0.5098 -2.3892  1.0757
   10CHTO   O38 4009   5.674   7.232   9.734 -0.1035  0.1642  0.2930
   10CHTO   C55 4010   5.642   7.212   9.877  0.3931 -0.1872 -0.3160
   10CHTO  H112 4011   5.730   7.182   9.931 -1.2748  1.7099  0.1495
   10CHTO   C56 4012   5.529   7.097   9.885  0.0852  0.3212  0.2575
   10CHTO  H113 4013   5.453   7.134   9.810  1.3106 -1.4751 -2.3909
   10CHTO   O42 4014   5.577   6.968   9.833 -0.2284 -0.0767  0.1357
   10CHTO  H100 4015   5.637   6.922   9.889 -2.9794 -1.7099 -1.3317
   10CHTO   C57 4016   5.472   7.072  10.028  0.4251 -0.2722 -0.7704
   10CHTO  H114 4017   5.549   7.020  10.093 -1.9925 -2.0530  2.0867
   10CHTO   N10 4018   5.352   6.987  10.022  0.3008 -0.2115 -1.0838
   10CHTO  H106 4019   5.256   7.032  10.005 -1.3010 -2.2667 -0.0694
   10CHTO  H107 4020   5.345   6.930  10.115 -0.0191  1.2802  0.5909
   10CHTO   C58 4021   5.435   7.215  10.087  0.7650 -0.6931 -0.1412
   10CHTO  H115 4022   5.350   7.256  10.031  1.5718 -1.7652  2.1205
   10CHTO   O37 4023   5.540   7.313  10.079 -0.2294  0.4362  0.7181
   10CHTO   C59 4024   5.594   7.340   9.944  0.1343 -0.6814  0.7132
   10CHTO  H116 4025   5.508   7.381   9.884  2.2948  1.6272  0.5104
   10CHTO   C70 4026   5.702   7.444   9.969  0.0107  0.1623  0.2622
   10CHTO   O46 4027   5.645   7.565  10.013 -0.1567  0.7587  0.1861
   10CHTO  H103 4028   5.652   7.639   9.951 -0.4804  1.0808 -3.1559
   10CHTO   O39 4029   5.388   7.203  10.245 -0.2686 -0.5154  0.3383
   10CHTO   C60 4030   5.359   7.322  10.314  0.3336  0.2151 -0.6265
   10CHTO  H117 4031   5.451   7.386  10.314 -2.6551 -2.3812  0.4657
   10CHTO   C62 4032   5.239   7.400  10.260  0.0940 -0.4971  0.0303
   10CHTO  H119 4033   5.284   7.432  10.169  1.4387 -0.7790  2.6323
   10CHTO   O43 4034   5.120   7.324  10.241  0.1551 -0.4744 -0.3941
   10CHTO  H101 4035   5.093   7.287  10.321  1.5502 -0.9455 -0.6077
   10CHTO   C66 4036   5.213   7.533  10.350 -0.6186 -0.2961 -0.7462
   10CHTO  H123 4037   5.310   7.582  10.348  0.9954  0.9057 -1.8553
   10CHTO   N12 4038   5.117   7.636  10.301  0.1072  0.4383  0.2869
   10CHTO  H110 4039   5.029   7.597  10.335  0.9349  0.3805 -1.0815
   10CHTO  H111 4040   5.112   7.652  10.193  0.5190 -0.0287 -0.7780
   10CHTO   C69 4041   5.187   7.500  10.496  0.7402 -1.3731  0.1885
   10CHTO  H126 4042   5.092   7.442  10.494  0.4488  0.3056 -2.8280
   10CHTO   O41 4043   5.317   7.400  10.558  0.1164  0.1528 -0.5694
   10CHTO   C64 4044   5.332   7.280  10.466  0.0675 -1.0599 -0.8071
   10CHTO  H121 4045   5.229   7.230  10.472 -1.4091  1.9627 -0.6837
   10CHTO   C71 4046   5.444   7.182  10.515  0.0877 -0.0121  0.3496
   10CHTO   O47 4047   5.556   7.253  10.564  0.0078  0.2290  0.2144
   10CHTO  H104 4048   5.566   7.249  10.655 -1.3425  0.2613 -1.2282
   10CHTO   O34 4049   5.175   7.635  10.590 -0.6634 -0.3141  0.0975
   10CHTO   C49 4050   5.129   7.684  10.722  0.2001  1.0642  0.0530
   10CHTO   H91 4051   5.191   7.628  10.795  2.0458 -3.0520  1.3619
   10CHTO   C47 4052   4.979   7.650  10.733  0.4034 -0.2015  0.0088
   10CHTO   H89 4053   4.934   7.672  10.843 -0.8322 -2.0033  0.3112
   10CHTO   O33 4054   4.966   7.509  10.718 -0.5651 -0.0123  0.6213
   10CHTO   H70 4055   4.879   7.488  10.743  3.7030  0.1782 -2.2646
   10CHTO   C45 4056   4.896   7.735  10.631 -0.2242 -0.7083 -0.6211
   10CHTO   H87 4057   4.944   7.729  10.527  1.5218 -2.4102  0.0066
   10CHTO    N8 4058   4.757   7.692  10.620  0.2225 -0.3254 -0.2195
   10CHTO   H75 4059   4.713   7.755  10.547 -0.2851  0.7523  0.5496
   10CHTO   H76 4060   4.714   7.692  10.717 -0.2902 -0.7579  1.4131
   10CHTO   C43 4061   4.914   7.892  10.669 -0.8361 -0.6328  0.6670
   10CHTO   H85 4062   4.855   7.949  10.592  0.5784 -1.4562  0.1138
   10CHTO   O29 4063   5.057   7.921  10.668 -0.1647 -0.0285  0.3911
   10CHTO   C50 4064   5.143   7.841  10.746  0.1326  0.1990  0.3819
   10CHTO   H92 4065   5.244   7.873  10.722 -2.6975  1.3965  1.4458
   10CHTO   C54 4066   5.145   7.871  10.902  0.6906 -0.0061  0.3969
   10CHTO   O36 4067   5.220   7.985  10.935  0.2070 -0.1667  0.8124
   10CHTO   H72 4068   5.316   7.967  10.925 -0.5264  0.7170  1.0121
   10CHTO   O27 4069   4.852   7.946  10.791  0.1087  0.5359  0.0126
   10CHTO   C37 4070   4.799   8.061  10.853 -0.2939 -0.7342  0.4269
   10CHTO   H79 4071   4.691   8.079  10.821  1.3639  0.6912  1.1360
   10CHTO   C38 4072   4.809   8.032  11.008 -0.2522  0.1064  0.2387
   10CHTO   H80 4073   4.904   7.980  11.031 -0.3771 -0.9370 -2.5809
   10CHTO   O31 4074   4.697   7.945  11.029  0.2923 -0.8478 -0.4025
   10CHTO   H68 4075   4.717   7.862  10.981  0.2035  0.1510 -1.3875
   10CHTO   C39 4076   4.787   8.164  11.095  0.4601  0.3611  0.0080
   10CHTO   H81 4077   4.684   8.191  11.100  0.0581 -1.1333  1.4512
   10CHTO    N7 4078   4.830   8.141  11.237 -0.4799 -0.5378  1.0394
   10CHTO   H73 4079   4.821   8.037  11.267  0.2989 -2.2481 -0.0890
   10CHTO   H74 4080   4.930   8.175  11.256  0.1331 -0.1986 -2.4021
   10CHTO   C40 4081   4.864   8.288  11.029 -0.4188  0.2152 -0.3270
   10CHTO   H82 4082   4.969   8.265  11.040 -0.8954  2.8279  3.8455
   10CHTO   O26 4083   4.823   8.302  10.895 -0.6916 -0.2257  0.2696
   10CHTO   C41 4084   4.879   8.195  10.819 -0.0186  0.2891 -0.1698
   10CHTO   H83 4085   4.982   8.173  10.849  0.2789  0.3083 -0.1707
   10CHTO   C52 4086   4.877   8.238  10.675 -0.6423  0.2625  0.1707
   10CHTO   O35 4087   4.752   8.276  10.633 -0.2409  0.2631  0.5215
   10CHTO   H71 4088   4.754   8.274  10.539  0.2031 -1.2396  0.8104
   10CHTO   O28 4089   4.858   8.413  11.107  1.0890  0.3264 -0.1876
   10CHTO   C42 4090   4.781   8.535  11.075  0.0505  0.4045 -0.3698
   10CHTO   H84 4091   4.794   8.596  11.161 -2.3106  1.5246 -0.7428
   10CHTO   C44 4092   4.628   8.512  11.053  0.0337  0.8587  0.4632
   10CHTO   H86 4093   4.612   8.435  10.976  0.0666 -0.3284  1.4073
   10CHTO   O32 4094   4.581   8.445  11.168 -0.1153 -0.1536  0.2227
   10CHTO   H69 4095   4.575   8.500  11.243  2.1327 -0.9883 -1.5183
   10CHTO   C48 4096   4.549   8.642  11.033  0.6584  0.7884 -0.1450
   10CHTO   H90 4097   4.560   8.699  11.122  1.2804  2.9603  1.0618
   10CHTO    N9 4098   4.398   8.622  11.008  0.5995  0.3039 -0.1744
   10CHTO   H77 4099   4.367   8.517  10.994 -1.5091  0.1326 -0.8365
   10CHTO   H78 4100   4.341   8.695  10.949 -0.2829  0.8335 -1.6392
   10CHTO   C51 4101   4.620   8.722  10.920  0.1262  0.1288  0.1007
   10CHTO   H93 4102   4.612   8.676  10.828 -3.1435  1.5876  0.3357
   10CHTO   O30 4103   4.756   8.748  10.950  0.5157  0.2664  0.0791
   10CHTO   C46 4104   4.845   8.615  10.954 -0.6416 -0.1214 -0.0123
   10CHTO   H88 4105   4.842   8.558  10.861 -0.8045 -1.1155  0.1104
   10CHTO   C53 4106   4.993   8.653  10.982 -0.0948  0.7565 -0.5821
   10CHTO   O72 4107   4.996   8.758  11.079  0.7748  0.7931 -0.1866
   10CHTO  H199 4108   5.086   8.771  11.095 -3.3577  0.1201  0.0982
   10CHTO   O22 4109   4.558   8.851  10.899  0.0406  0.0008 -0.2490
   10CHTO   C31 4110   4.570   8.939  10.791  0.0357  0.2179  0.2728
   10CHTO   H59 4111   4.643   8.896  10.721  0.0900 -0.9352  0.3512
   10CHTO   C29 4112   4.434   8.949  10.712  0.4609 -0.7311  0.7359
   10CHTO   H57 4113   4.354   8.965  10.787  0.1576 -1.1810 -0.2708
   10CHTO   O21 4114   4.410   8.827  10.646  0.2125 -0.1134  0.2710
   10CHTO   H37 4115   4.323   8.788  10.671 -4.0869 -2.8728  2.7754
   10CHTO   C27 4116   4.430   9.067  10.607  0.2028  1.3711 -0.1482
   10CHTO   H55 4117   4.493   9.034  10.525 -1.5306 -2.4095 -2.5583
   10CHTO    N5 4118   4.294   9.090  10.556 -0.1155 -0.3729 -0.1006
   10CHTO   H43 4119   4.227   9.006  10.553 -1.7592 -1.0152  0.7857
   10CHTO   H44 4120   4.281   9.159  10.474 -0.1407  0.4748 -1.5757
   10CHTO   C25 4121   4.482   9.200  10.666  0.1954 -0.2469 -0.6400
   10CHTO   H53 4122   4.419   9.249  10.737 -0.6556 -0.1085 -0.0385
   10CHTO   O17 4123   4.619   9.172  10.715  0.1542 -0.1195 -0.3769
   10CHTO   C32 4124   4.614   9.082  10.825 -0.1439  0.0089 -0.9303
   10CHTO   H60 4125   4.540   9.118  10.894 -3.6534  1.0270 -0.5967
   10CHTO   C36 4126   4.754   9.084  10.895 -0.1653 -0.0749  0.0022
   10CHTO   O25 4127   4.778   9.199  10.974 -0.6870 -0.0329 -0.1761
   10CHTO   H40 4128   4.735   9.211  11.052  3.4333  2.8276  0.6118
   10CHTO   O15 4129   4.508   9.313  10.544 -0.4982  0.1650  0.2831
   10CHTO   C19 4130   4.521   9.459  10.547 -0.2793 -0.5232 -0.4129
   10CHTO   H47 4131   4.463   9.489  10.637 -0.4617  1.7286 -1.5629
   10CHTO   C20 4132   4.667   9.500  10.567  0.1218  0.0857 -0.5173
   10CHTO   H48 4133   4.729   9.471  10.479  3.1423 -1.5721  0.3753
   10CHTO   O19 4134   4.712   9.438  10.680 -0.5377  0.2390 -0.1696
   10CHTO   H35 4135   4.741   9.501  10.744  1.6071  1.3620  0.3102
   10CHTO   C21 4136   4.681   9.662  10.566 -0.8307 -0.6551  0.0526
   10CHTO   H49 4137   4.614   9.698  10.646  1.9199  1.4629 -0.3631
   10CHTO    N4 4138   4.821   9.715  10.587 -0.5387  0.9980 -0.0680
   10CHTO   H41 4139   4.817   9.817  10.600  0.0793  0.2791 -1.2888
   10CHTO   H42 4140   4.885   9.691  10.503  0.9197  0.6543 -1.1365
   10CHTO   C22 4141   4.609   9.712  10.444 -0.0101 -0.6046 -0.9102
   10CHTO   H50 4142   4.662   9.682  10.359 -0.0700 -0.1894  0.7129
   10CHTO   O14 4143   4.475   9.666  10.440 -0.9229 -0.1971  0.2319
   10CHTO   C23 4144   4.457   9.524  10.433 -0.3581 -0.5393  0.2602
   10CHTO   H51 4145   4.502   9.487  10.340 -3.4357  0.0503  0.1174
   10CHTO   C34 4146   4.310   9.478  10.424 -0.3155  0.5658  1.0995
   10CHTO   O23 4147   4.267   9.529  10.300 -0.2976 -0.5856 -0.9206
   10CHTO   H38 4148   4.293   9.612  10.296 -2.5882 -2.3952  1.1994
   10CHTO   O16 4149   4.608   9.857  10.431  0.6833 -0.9264 -0.1579
   10CHTO   C24 4150   4.635   9.938  10.301 -0.1323 -0.4106 -0.1052
   10CHTO   H52 4151   4.625   9.875  10.207  1.1532 -0.8863 -2.8200
   10CHTO   C26 4152   4.778   9.997  10.309 -0.5619 -0.2512  0.6332
   10CHTO   H54 4153   4.796  10.039  10.415  1.0846  0.7203 -2.2764
   10CHTO   O20 4154   4.860   9.882  10.271 -0.1184 -0.1101 -0.1565
   10CHTO   H36 4155   4.945   9.886  10.314 -3.3693 -2.3100  2.2069
   10CHTO   C30 4156   4.783  10.116  10.209 -0.3219 -0.1704 -0.1091
   10CHTO   H58 4157   4.787  10.096  10.102 -0.9012  2.8892  2.0419
   10CHTO    N6 4158   4.920  10.177  10.237 -0.5027 -0.2504 -0.2047
   10CHTO   H45 4159   4.954  10.198  10.338  0.0890  1.8374  2.3706
   10CHTO   H46 4160   4.936  10.270  10.176 -0.8472  0.9162 -0.2817
   10CHTO   C33 4161   4.671  10.219  10.235 -0.2526  0.3139  0.0661
   10CHTO   H61 4162   4.671  10.238  10.347 -0.6797 -0.0147 -0.0254
   10CHTO   O18 4163   4.554  10.146  10.198 -0.0255  0.0374 -0.0214
   10CHTO   C28 4164   4.528  10.044  10.298  0.3340 -0.1280 -0.3182
   10CHTO   H56 4165   4.520  10.094  10.396 -2.3134 -0.9809 -0.5095
   10CHTO   C35 4166   4.392   9.984  10.277 -0.0580  0.5989 -0.5213
   10CHTO   O24 4167   4.282  10.078  10.298 -0.8821  0.4895 -0.5039
   10CHTO   H39 4168   4.211  10.033  10.337 -0.4725 -1.1049  1.5538
   10CHTO    O9 4169   4.682  10.346  10.166 -0.7956 -0.0442 -0.3877
   10CHTO   C13 4170   4.614  10.472  10.261  0.0498  0.2267 -0.0747
   10CHTO   H26 4171   4.611  10.440  10.361 -1.3920 -2.6094  0.6569
   10CHTO   C11 4172   4.470  10.492  10.211  0.2562 -0.4494 -0.2957
   10CHTO   H24 4173   4.415  10.402  10.248 -1.0624  2.1641 -0.4184
   10CHTO    O8 4174   4.464  10.500  10.067  0.2732 -0.7581 -0.6866
   10CHTO    H3 4175   4.390  10.548  10.036  0.6444 -0.9952  0.9473
   10CHTO    C9 4176   4.410  10.614  10.284  0.4192  0.0229 -0.0855
   10CHTO   H22 4177   4.413  10.592  10.385  0.9629  2.3105 -0.3701
   10CHTO    N2 4178   4.265  10.635  10.252 -0.4409 -0.1742 -0.4887
   10CHTO   H10 4179   4.215  10.700  10.320  2.3069 -0.5244 -0.1939
   10CHTO   H11 4180   4.254  10.663  10.147  0.2127 -1.5141 -1.5772
   10CHTO    C7 4181   4.497  10.741  10.249 -0.4276  0.2111  0.3894
   10CHTO   H20 4182   4.457  10.823  10.311 -1.3286  2.7040  2.3139
   10CHTO    O4 4183   4.627  10.710  10.298  0.2002  0.1799  0.0236
   10CHTO   C14 4184   4.700  10.596  10.253 -0.0900 -0.6381 -0.2559
   10CHTO   H27 4185   4.782  10.576  10.325 -1.0850 -1.3948 -2.7306
   10CHTO   C18 4186   4.761  10.629  10.118 -0.2912  0.1595  0.4222
   10CHTO   O13 4187   4.874  10.547  10.093  0.4433  0.3900  0.3711
   10CHTO    H7 4188   4.936  10.592  10.038  3.0436 -0.0543  2.4842
   10CHTO    O2 4189   4.504  10.785  10.080  0.1220  0.0768  0.2087
   10CHTO    C1 4190   4.502  10.929  10.056  0.5712 -0.1684 -0.0838
   10CHTO   H14 4191   4.513  10.938   9.947  3.0892  1.6486 -1.5971
   10CHTO    C2 4192   4.617  11.001  10.131  0.0379  0.1709  0.0502
   10CHTO   H15 4193   4.603  10.993  10.244  1.9101 -1.5472  0.2724
   10CHTO    O6 4194   4.741  10.946  10.087  0.3481  0.1288  0.4383
   10CHTO    H1 4195   4.816  10.967  10.145  0.7696 -1.1469  0.3205
   10CHTO    C3 4196   4.609  11.157  10.100 -0.2107 -0.2790 -0.4402
   10CHTO   H16 4197   4.625  11.172   9.992 -2.9557 -1.3997  0.0392
   10CHTO    N1 4198   4.713  11.229  10.174  0.3688  0.3284 -0.4351
   10CHTO    H8 4199   4.741  11.187  10.267 -2.0312  0.8392  1.6447
   10CHTO    H9 4200   4.782  11.296  10.123  0.3838  3.0548 -0.4429
   10CHTO    C4 4201   4.458  11.210  10.121  0.0222 -0.1603 -0.3101
   10CHTO   H17 4202   4.444  11.215  10.229  2.1524 -2.3339 -1.1025
   10CHTO    O1 4203   4.366  11.134  10.053  0.2975 -0.0597  0.9635
   10CHTO    C5 4204   4.360  10.993  10.089  0.3815  0.4394 -0.7447
   10CHTO   H18 4205   4.344  10.988  10.201 -0.3551 -2.5189  0.9599
   10CHTO   C16 4206   4.243  10.920  10.019 -0.6029  0.1546  0.4880
   10CHTO   O11 4207   4.113  10.971  10.044  0.6251 -0.0068 -0.6903
   10CHTO    H5 4208   4.063  10.973   9.963 -3.2855 -1.5441 -0.9633
   10CHTO    O3 4209   4.433  11.342  10.064  0.4834 -0.0309 -0.4460
   10CHTO    C6 4210   4.337  11.433  10.129  0.0017  0.0208  0.2262
   10CHTO   H19 4211   4.260  11.387  10.181  0.9745  1.3285 -1.6652
   10CHTO    C8 4212   4.423  11.526  10.232 -0.3995  0.2828 -0.1959
   10CHTO   H21 4213   4.496  11.586  10.173  0.5409  0.4310  1.4876
   10CHTO    O7 4214   4.492  11.446  10.330 -0.2701  0.0774  0.3266
   10CHTO    H2 4215   4.560  11.504  10.367  0.8104  1.5800 -2.0113
   10CHTO   C12 4216   4.328  11.635  10.298  0.2120  0.2814  0.0894
   10CHTO   H25 4217   4.248  11.578  10.344  1.2636 -0.9021 -0.7060
   10CHTO    N3 4218   4.401  11.724  10.401 -0.5174  0.6404  0.5233
   10CHTO   H12 4219   4.405  11.697  10.501  2.3943 -1.7205 -3.8869
   10CHTO   H13 4220   4.506  11.742  10.362  1.8440 -0.0263 -2.2298
   10CHTO   C15 4221   4.273  11.720  10.178  0.3458  0.4617 -0.2344
   10CHTO   H28 4222   4.360  11.757  10.121  0.4140 -1.4120 -2.5929
   10CHTO   O10 4223   4.174  11.836  10.226 -1.1294 -0.0674 -0.4784
   10CHTO    H4 4224   4.188  11.920  10.184 -1.5359  1.6090 -0.0082
   10CHTO    O5 4225   4.192  11.632  10.092 -0.1207  0.0410 -0.0057
   10CHTO   C10 4226   4.274  11.532  10.028 -0.2706 -0.0367 -0.0357
   10CHTO   H23 4227   4.337  11.574   9.957  1.2736  0.4980  1.4500
   10CHTO   C17 4228   4.182  11.445   9.940 -0.0227  0.7900 -0.5242
   10CHTO   O12 4229   4.258  11.403   9.817  0.7011 -0.1376 -0.2814
   10CHTO    H6 4230   4.254  11.465   9.747 -1.1909  0.1281  0.6481
   11CHTO  H203 4231   6.766   4.185   5.927  3.2534  0.6841 -2.3668
   11CHTO   O82 4232   6.740   4.163   5.837 -0.2422  0.2345 -0.3235
   11CHTO  C123 4233   6.822   4.228   5.736 -0.5075 -0.3544 -0.2332
   11CHTO  H227 4234   6.883   4.301   5.794  0.3617  0.6083  2.1280
   11CHTO   O77 4235   6.914   4.125   5.688  0.1905 -0.2991  0.0997
   11CHTO  C118 4236   6.990   4.152   5.564  0.2000  0.2097 -0.8178
   11CHTO  H222 4237   7.064   4.230   5.583 -0.3135  0.8678 -0.7032
   11CHTO  C125 4238   7.057   4.022   5.521  0.2634 -0.0934 -0.1552
   11CHTO   O84 4239   7.148   3.984   5.622 -0.0640  0.1608  0.0980
   11CHTO  H205 4240   7.222   3.942   5.583  2.8823 -0.6042  0.8674
   11CHTO  C114 4241   6.898   4.210   5.457 -1.2505  0.0994  0.4871
   11CHTO  H218 4242   6.823   4.135   5.433 -2.2252  1.7973  2.0196
   11CHTO  C116 4243   6.829   4.335   5.508  0.8605  0.5960 -0.1392
   11CHTO  H220 4244   6.902   4.405   5.537 -0.1297  3.1754  0.8631
   11CHTO   O79 4245   6.755   4.399   5.405 -0.4752 -0.2130 -0.2060
   11CHTO  H201 4246   6.678   4.354   5.382 -0.5406  2.0636 -0.7856
   11CHTO  C120 4247   6.736   4.299   5.630  0.2341  0.3179  0.0125
   11CHTO  H224 4248   6.663   4.223   5.600 -1.4573 -3.0369 -0.5163
   11CHTO   N21 4249   6.649   4.407   5.687 -0.0987 -0.5719 -0.4022
   11CHTO  H211 4250   6.543   4.385   5.669  0.7128 -1.9191  0.2498
   11CHTO  H212 4251   6.672   4.440   5.784  0.2867  0.0995  1.6697
   11CHTO   O75 4252   6.982   4.245   5.351 -0.1051  0.3071  0.6265
   11CHTO  C112 4253   6.915   4.216   5.207  0.3752  0.9779 -0.5888
   11CHTO  H216 4254   6.823   4.266   5.203  1.9998 -1.4688  0.9520
   11CHTO   O73 4255   6.895   4.071   5.197 -0.1694 -0.2235 -0.6478
   11CHTO  C113 4256   6.851   4.024   5.071 -0.1170 -0.0998  0.2038
   11CHTO  H217 4257   6.748   4.066   5.044  0.1257  0.1713 -3.6424
   11CHTO  C124 4258   6.826   3.875   5.081  0.1472  0.4773  0.5006
   11CHTO   O83 4259   6.743   3.827   4.972 -0.4530  0.4988 -0.1610
   11CHTO  H204 4260   6.787   3.826   4.892  0.2060 -0.8764 -2.5926
   11CHTO  C109 4261   6.959   4.060   4.959 -0.3341 -0.3585 -0.2374
   11CHTO  H213 4262   7.052   4.004   4.986  2.6158  0.6737  1.0474
   11CHTO  C110 4263   6.975   4.215   4.967  0.2705 -0.1653  0.1782
   11CHTO  H214 4264   6.876   4.258   4.942 -4.5570  1.0714  1.7129
   11CHTO   O78 4265   7.070   4.255   4.871 -0.0002  0.4237  0.3189
   11CHTO  H200 4266   7.051   4.207   4.792  3.2032  1.0385  0.0382
   11CHTO  C111 4267   7.014   4.259   5.103  0.0212 -0.6441  0.5649
   11CHTO  H215 4268   7.114   4.217   5.126 -0.1183  0.8598 -0.3787
   11CHTO   N19 4269   7.035   4.410   5.107 -0.1197  0.0015  0.6597
   11CHTO  H207 4270   6.944   4.449   5.064  1.4099  0.0405 -1.3261
   11CHTO  H208 4271   7.114   4.432   5.033 -0.4554 -1.6913 -0.3617
   11CHTO   O74 4272   6.914   4.019   4.822 -0.4874 -0.1551 -0.2243
   11CHTO  C115 4273   7.013   3.924   4.738 -0.1523 -0.1116 -0.1652
   11CHTO  H219 4274   7.081   3.872   4.802 -0.6399  1.5296  2.7787
   11CHTO   O76 4275   6.926   3.811   4.659 -0.2328  0.0839 -0.1384
   11CHTO  C122 4276   6.830   3.861   4.564  0.6121  0.6388  0.3203
   11CHTO  H226 4277   6.739   3.883   4.615 -0.5271  2.3870  3.1520
   11CHTO  C126 4278   6.789   3.750   4.458 -0.2419 -0.1282 -0.2499
   11CHTO   O85 4279   6.693   3.779   4.354 -0.2623 -0.2251 -0.1769
   11CHTO  H206 4280   6.693   3.709   4.292  0.6048  0.6894 -1.3007
   11CHTO  C121 4281   6.875   3.994   4.496 -0.1336 -0.0890  0.4412
   11CHTO  H225 4282   6.827   3.998   4.390 -0.2046 -2.2855 -1.8866
   11CHTO   O81 4283   6.813   4.108   4.554 -0.2695 -0.1698 -0.5039
   11CHTO  H202 4284   6.804   4.181   4.489  0.0371  2.6870  1.0297
   11CHTO  C119 4285   7.030   4.000   4.494 -0.3879 -0.5978  0.3919
   11CHTO  H223 4286   7.067   3.905   4.458  0.5863  1.6046  1.0798
   11CHTO  C117 4287   7.091   4.020   4.635  0.0757  0.3801 -0.0840
   11CHTO  H221 4288   7.084   4.115   4.687  3.6118  0.6252  1.7657
   11CHTO   N20 4289   7.240   3.991   4.630 -0.1181 -0.3989  0.0315
   11CHTO  H209 4290   7.283   4.001   4.732  0.2668  0.2615 -0.0792
   11CHTO  H210 4291   7.290   4.059   4.565  3.7005 -0.6219 -2.6581
   11CHTO   O80 4292   7.081   4.086   4.391 -0.3039  0.0487 -0.8327
   11CHTO  C103 4293   7.052   4.230   4.396 -0.3236 -0.4408  0.0796
   11CHTO  H190 4294   6.972   4.256   4.465  2.1552  2.0634  0.2820
   11CHTO  C101 4295   7.168   4.332   4.426  0.1024 -0.3379 -0.0025
   11CHTO  H188 4296   7.245   4.308   4.360 -1.4676 -0.9232  0.0784
   11CHTO   O68 4297   7.204   4.324   4.584 -0.1464  0.1400  0.3474
   11CHTO  H168 4298   7.283   4.271   4.582 -1.9437 -0.8339 -0.0450
   11CHTO   C99 4299   7.118   4.479   4.393  0.1649  0.1209 -0.1715
   11CHTO  H186 4300   7.046   4.504   4.461  1.4799 -0.6194 -2.4256
   11CHTO   N17 4301   7.227   4.580   4.414 -0.4814  0.4359  0.0227
   11CHTO  H174 4302   7.274   4.542   4.506 -2.3281  0.2842 -0.1772
   11CHTO  H175 4303   7.286   4.566   4.324  2.2210 -1.4379  0.6242
   11CHTO   C97 4304   7.052   4.494   4.256 -0.3281  0.1482  0.6516
   11CHTO  H184 4305   7.131   4.479   4.176 -1.3674 -1.6778 -3.5628
   11CHTO   O64 4306   6.953   4.396   4.247  0.1627 -0.3697 -0.2338
   11CHTO  C104 4307   7.000   4.266   4.241  0.4252  0.0136  0.7450
   11CHTO  H191 4308   7.077   4.248   4.167 -0.4959  2.4866 -1.7201
   11CHTO  C108 4309   6.875   4.183   4.193 -0.0266  0.0120  1.1126
   11CHTO   O71 4310   6.901   4.049   4.156 -0.1844 -0.1375  0.3133
   11CHTO  H171 4311   6.880   4.048   4.059 -0.8079  1.7912 -0.9698
   11CHTO   O62 4312   6.988   4.626   4.235 -0.0261 -0.3965  0.4736
   11CHTO   C91 4313   6.964   4.662   4.092 -0.6995  0.4221 -0.1977
   11CHTO  H178 4314   6.946   4.574   4.031  0.7260  0.5990 -1.2351
   11CHTO   C92 4315   7.091   4.736   4.029 -0.2982  0.5977  1.0099
   11CHTO  H179 4316   7.187   4.689   4.060  0.3065  0.0472  0.7110
   11CHTO   O66 4317   7.080   4.717   3.884  0.0705 -0.2553 -0.2495
   11CHTO  H166 4318   7.098   4.630   3.851  2.2893 -0.2805 -2.5483
   11CHTO   C93 4319   7.096   4.889   4.054  0.8832 -0.5363  0.3121
   11CHTO  H180 4320   7.162   4.920   3.967  0.9686  0.7757 -1.4680
   11CHTO   N16 4321   7.159   4.923   4.184  0.6729  0.6240 -0.5637
   11CHTO  H172 4322   7.088   4.928   4.267 -1.4757  1.1326 -0.6212
   11CHTO  H173 4323   7.198   5.020   4.164  1.3774  0.7048 -0.4895
   11CHTO   C94 4324   6.956   4.957   4.041  0.5921  0.4708  0.2749
   11CHTO  H181 4325   6.912   4.981   4.142  1.8615  0.2492  0.4220
   11CHTO   O61 4326   6.859   4.866   3.996  0.5699 -0.0815  0.3782
   11CHTO   C95 4327   6.833   4.752   4.083  0.6743  0.2269 -0.1971
   11CHTO  H182 4328   6.798   4.786   4.182  0.3464 -0.4595  0.9601
   11CHTO  C106 4329   6.715   4.665   4.022  0.4449 -0.0391 -0.1321
   11CHTO   O69 4330   6.592   4.734   4.011  0.5547 -0.2154 -0.4648
   11CHTO  H169 4331   6.561   4.780   4.088 -2.2347  2.4367  0.1384
   11CHTO   O63 4332   6.961   5.090   3.946  0.6015  0.0141 -1.0103
   11CHTO   C96 4333   7.015   5.224   4.031  0.0391  1.0481 -0.6198
   11CHTO  H183 4334   7.109   5.199   4.074 -2.9651  0.2114 -1.0852
   11CHTO   C98 4335   6.923   5.274   4.139 -0.0021 -0.0873  0.8033
   11CHTO  H185 4336   6.901   5.196   4.215 -3.1989  3.5141 -0.0888
   11CHTO   O67 4337   6.984   5.385   4.214 -0.2823  0.2963 -0.1567
   11CHTO  H167 4338   6.933   5.422   4.283  1.0186 -0.6481  1.6378
   11CHTO  C102 4339   6.781   5.344   4.076 -0.7551  0.7472 -0.0299
   11CHTO  H189 4340   6.747   5.412   4.150 -1.1339 -0.9986  0.3492
   11CHTO   N18 4341   6.670   5.250   4.057 -0.0019  0.1477 -0.4313
   11CHTO  H176 4342   6.645   5.249   3.951  0.0363 -2.5354 -0.8123
   11CHTO  H177 4343   6.582   5.275   4.107 -1.4699  0.7344  1.5168
   11CHTO  C105 4344   6.822   5.414   3.941  0.2756 -0.3544  0.1550
   11CHTO  H192 4345   6.801   5.348   3.855 -0.6026 -0.0401  2.6125
   11CHTO   O65 4346   6.959   5.448   3.935 -0.2131  0.5599  0.4666
   11CHTO  C100 4347   7.045   5.334   3.921 -0.6031 -0.8181 -0.4364
   11CHTO  H187 4348   7.040   5.292   3.824  0.6280 -1.7029 -1.9769
   11CHTO  C107 4349   7.192   5.379   3.933  0.1233 -0.7653 -0.4433
   11CHTO   O70 4350   7.235   5.487   3.851 -0.0207 -0.0761 -0.2517
   11CHTO  H170 4351   7.201   5.472   3.767  1.4692  0.5794  0.2157
   11CHTO   O57 4352   6.731   5.536   3.935 -0.6790  0.7624  0.1215
   11CHTO   C85 4353   6.680   5.604   3.817 -0.6421 -0.5059  0.3102
   11CHTO  H157 4354   6.664   5.705   3.848 -2.4590 -1.0594  0.8749
   11CHTO   C83 4355   6.537   5.547   3.784 -0.4070 -0.6040 -1.1634
   11CHTO  H155 4356   6.473   5.593   3.856  1.3564  2.7759 -2.7407
   11CHTO   O56 4357   6.526   5.407   3.806  0.0348 -0.9860  0.2225
   11CHTO  H135 4358   6.600   5.361   3.773 -1.9651  1.7670  2.3373
   11CHTO   C81 4359   6.491   5.597   3.644 -0.1433  0.0706  0.3526
   11CHTO  H153 4360   6.498   5.708   3.644 -0.1176 -0.0931  0.7497
   11CHTO   N14 4361   6.355   5.563   3.602  0.6614  0.4804 -0.0061
   11CHTO  H141 4362   6.289   5.613   3.666 -0.7959 -2.8874  0.9591
   11CHTO  H142 4363   6.337   5.602   3.505 -1.7661  1.6712 -0.4214
   11CHTO   C79 4364   6.593   5.542   3.539 -0.5434  0.0700 -0.1549
   11CHTO  H151 4365   6.558   5.571   3.450 -0.7783  0.0237  0.6811
   11CHTO   O52 4366   6.719   5.603   3.562 -0.0678  0.3290 -0.6167
   11CHTO   C86 4367   6.777   5.588   3.696 -0.3661 -0.7384  0.4281
   11CHTO  H158 4368   6.827   5.490   3.691  1.2233 -1.2156  2.1142
   11CHTO   C90 4369   6.890   5.685   3.719  0.1845 -0.8232 -0.0180
   11CHTO   O60 4370   7.011   5.657   3.639 -0.0498 -0.0814 -0.1808
   11CHTO  H138 4371   7.077   5.727   3.625 -0.4103  0.1096 -0.5844
   11CHTO   O50 4372   6.600   5.401   3.523 -0.1789 -0.0608  0.1175
   11CHTO   C73 4373   6.581   5.285   3.441  0.3827  0.0892  0.2079
   11CHTO  H145 4374   6.485   5.301   3.382 -1.0512  1.2162 -0.6630
   11CHTO   C74 4375   6.570   5.158   3.529  0.3891  0.4165 -0.0285
   11CHTO  H146 4376   6.475   5.176   3.594 -1.8456  0.4904  0.4791
   11CHTO   O54 4377   6.541   5.042   3.452 -0.4035  0.3422  0.6733
   11CHTO  H133 4378   6.453   5.016   3.469  1.2557 -0.2174  2.7629
   11CHTO   C75 4379   6.702   5.142   3.618  0.1324  0.2923 -0.6851
   11CHTO  H147 4380   6.714   5.233   3.682  2.4195  1.1612  1.3750
   11CHTO   N13 4381   6.699   5.031   3.716  0.1231 -0.2821  0.3484
   11CHTO  H139 4382   6.754   4.950   3.676 -1.9936  1.5346  0.0376
   11CHTO  H140 4383   6.737   5.068   3.813 -0.1180  0.3801 -1.1615
   11CHTO   C76 4384   6.830   5.141   3.525  0.4997  0.4897  0.1251
   11CHTO  H148 4385   6.837   5.037   3.487  1.7874  1.0773 -1.8190
   11CHTO   O49 4386   6.820   5.246   3.426  0.3695 -0.2019  0.7806
   11CHTO   C77 4387   6.697   5.262   3.350  0.4770  0.8092  0.3280
   11CHTO  H149 4388   6.674   5.166   3.293 -1.6443  2.3849  0.3736
   11CHTO   C88 4389   6.716   5.376   3.251 -0.0895 -0.0851 -0.0679
   11CHTO   O58 4390   6.832   5.354   3.154 -0.0532  0.4390  0.0783
   11CHTO  H136 4391   6.832   5.422   3.096 -0.4412 -1.7711  0.7217
   11CHTO   O51 4392   6.950   5.183   3.620 -0.0816  0.1655 -0.0728
   11CHTO   C78 4393   7.088   5.132   3.573 -0.2484 -0.1932 -0.6135
   11CHTO  H150 4394   7.079   5.091   3.479  0.9871 -0.8230  3.1754
   11CHTO   C80 4395   7.147   5.024   3.670 -0.7152 -0.5213 -0.2418
   11CHTO  H152 4396   7.154   5.067   3.772  0.6691 -3.1478 -1.7630
   11CHTO   O55 4397   7.056   4.910   3.664 -1.0058  0.1169 -0.5252
   11CHTO  H134 4398   7.054   4.879   3.579  1.2992  0.9614  0.8129
   11CHTO   C84 4399   7.285   4.976   3.612 -0.3346 -0.1904  0.0174
   11CHTO  H156 4400   7.266   4.945   3.507  2.6652 -0.5144 -0.5091
   11CHTO   N15 4401   7.342   4.856   3.694 -0.2202 -0.5358  0.0730
   11CHTO  H143 4402   7.337   4.860   3.800 -3.0640  2.0470  3.4784
   11CHTO  H144 4403   7.285   4.775   3.672  0.0641  0.1557  3.4043
   11CHTO   C87 4404   7.382   5.100   3.605 -0.0822  0.7535 -0.6576
   11CHTO  H159 4405   7.401   5.141   3.706  1.5055 -1.4976 -1.8769
   11CHTO   O53 4406   7.312   5.206   3.505 -0.0490  0.4513  0.4418
   11CHTO   C82 4407   7.186   5.250   3.550 -0.3935 -0.4206  0.0382
   11CHTO  H154 4408   7.192   5.314   3.641 -2.2381  1.1602 -0.7843
   11CHTO   C89 4409   7.132   5.339   3.438 -0.6484  0.5921  0.1841
   11CHTO   O59 4410   7.191   5.464   3.405  0.3309  0.4955 -0.1072
   11CHTO  H137 4411   7.191   5.477   3.311  2.4546 -1.6665 -0.2234
   11CHTO   O45 4412   7.529   5.064   3.532 -0.4102 -0.3762 -0.0546
   11CHTO   C67 4413   7.632   5.176   3.540 -0.2199  0.6650  0.1653
   11CHTO  H124 4414   7.599   5.244   3.621 -1.7667 -2.2923  1.2641
   11CHTO   C65 4415   7.782   5.124   3.563 -0.5575 -1.6569 -0.1486
   11CHTO  H122 4416   7.783   5.057   3.650  2.2437  0.0146 -1.9901
   11CHTO   O44 4417   7.868   5.236   3.601  0.5544  0.1918  0.0327
   11CHTO  H102 4418   7.957   5.208   3.602 -0.1022 -3.0895  1.6340
   11CHTO   C63 4419   7.821   5.037   3.442  0.2675  0.3300  0.5123
   11CHTO  H120 4420   7.751   4.952   3.436 -2.2961 -1.5860  2.7914
   11CHTO   N11 4421   7.955   4.957   3.464  0.9094  0.0409  0.0784
   11CHTO  H108 4422   8.030   4.976   3.390 -0.2882  2.1352  1.6122
   11CHTO  H109 4423   7.939   4.845   3.475  0.8907 -1.4101 -0.7994
   11CHTO   C61 4424   7.820   5.125   3.313  0.1106 -0.5739 -0.6640
   11CHTO  H118 4425   7.832   5.058   3.234  2.0923  0.5310 -0.3908
   11CHTO   O40 4426   7.691   5.199   3.285  0.5129 -0.6696  0.0423
   11CHTO   C68 4427   7.622   5.261   3.402 -0.3217  0.7480  0.7379
   11CHTO  H125 4428   7.514   5.278   3.368  0.3765  0.0159  0.4648
   11CHTO   C72 4429   7.676   5.405   3.420  0.1832 -0.0244  0.1644
   11CHTO   O48 4430   7.635   5.483   3.532  0.0044  0.2125  0.2791
   11CHTO  H105 4431   7.720   5.502   3.569 -0.6805 -0.8918 -1.9620
   11CHTO   O38 4432   7.923   5.226   3.293  0.0235  0.4274 -0.5661
   11CHTO   C55 4433   7.973   5.255   3.159  0.0223  0.6683 -0.4675
   11CHTO  H112 4434   7.913   5.195   3.083 -1.3940 -0.5421 -0.2863
   11CHTO   C56 4435   8.131   5.220   3.148  0.0248 -0.0116  0.6366
   11CHTO  H113 4436   8.175   5.257   3.238 -0.6742  2.7921  1.8673
   11CHTO   O42 4437   8.138   5.072   3.148  0.0146  0.0647 -0.0705
   11CHTO  H100 4438   8.100   5.031   3.076  2.1542  2.0554  1.5591
   11CHTO   C57 4439   8.203   5.271   3.019 -0.8618  0.5669  0.1849
   11CHTO  H114 4440   8.162   5.204   2.942 -0.2751 -1.8799  0.7750
   11CHTO   N10 4441   8.351   5.263   3.011  0.0709 -0.2520  0.5213
   11CHTO  H106 4442   8.401   5.335   2.947  2.9325 -0.8636  0.3269
   11CHTO  H107 4443   8.394   5.271   3.112 -1.5509 -0.8597  0.1570
   11CHTO   C58 4444   8.155   5.410   2.973 -0.5603 -0.3026 -0.9707
   11CHTO  H115 4445   8.193   5.483   3.039 -2.7890  0.0750  0.6826
   11CHTO   O37 4446   8.010   5.407   2.977 -0.1627 -0.2636  0.4778
   11CHTO   C59 4447   7.958   5.400   3.108  0.3774  0.4734 -0.7760
   11CHTO  H116 4448   8.016   5.470   3.166  1.0867  2.3368 -1.6042
   11CHTO   C70 4449   7.810   5.435   3.095  0.2085  0.0462 -0.1828
   11CHTO   O46 4450   7.727   5.353   3.014  0.1174  1.0518 -0.1079
   11CHTO  H103 4451   7.669   5.301   3.059  0.5156  2.0331 -0.5620
   11CHTO   O39 4452   8.192   5.442   2.822 -0.2496 -0.3245 -0.6335
   11CHTO   C60 4453   8.178   5.579   2.785  1.2330 -0.0225  0.1934
   11CHTO  H117 4454   8.114   5.639   2.857  0.1892 -0.6871  3.0725
   11CHTO   C62 4455   8.316   5.654   2.783  0.4968  0.2815 -0.6124
   11CHTO  H119 4456   8.343   5.674   2.891  0.0335  0.3319 -0.9490
   11CHTO   O43 4457   8.415   5.575   2.722 -0.3474 -0.1241  0.4938
   11CHTO  H101 4458   8.402   5.549   2.634  0.0667 -0.5484  2.1273
   11CHTO   C66 4459   8.294   5.796   2.709  0.4356 -0.3472 -0.0686
   11CHTO  H123 4460   8.217   5.853   2.762 -0.8439 -0.0533  0.1795
   11CHTO   N12 4461   8.415   5.887   2.712  0.3644  0.6953 -0.5574
   11CHTO  H110 4462   8.451   5.903   2.814  3.8154  0.4604  1.7588
   11CHTO  H111 4463   8.495   5.828   2.659 -2.1747  1.3660  0.6853
   11CHTO   C69 4464   8.240   5.782   2.569  0.5060 -0.1497 -0.5621
   11CHTO  H126 4465   8.301   5.719   2.500  0.8710 -1.4628  0.7776
   11CHTO   O41 4466   8.105   5.709   2.578  0.1610 -0.0456 -0.3131
   11CHTO   C64 4467   8.107   5.576   2.645 -0.1626  0.6297 -0.2652
   11CHTO  H121 4468   8.161   5.500   2.579 -1.1695  1.4066  0.0858
   11CHTO   C71 4469   7.956   5.528   2.654 -0.1736  0.5181 -0.3755
   11CHTO   O47 4470   7.907   5.504   2.522 -0.0772 -0.3473  0.2929
   11CHTO  H104 4471   7.815   5.478   2.527  0.9820  0.5033  1.2704
   11CHTO   O34 4472   8.213   5.915   2.505  0.4692  0.1673 -0.5604
   11CHTO   C49 4473   8.241   5.957   2.356  0.3624  0.1618 -0.0645
   11CHTO   H91 4474   8.260   6.070   2.362  1.0473  0.6952  1.5176
   11CHTO   C47 4475   8.116   5.923   2.265 -0.3202 -0.2859 -0.0253
   11CHTO   H89 4476   8.129   5.977   2.162  0.4933  2.1157 -2.0027
   11CHTO   O33 4477   8.002   5.981   2.333 -0.1545 -0.2391  0.1249
   11CHTO   H70 4478   7.989   6.073   2.316 -2.4442  0.1376 -3.9750
   11CHTO   C45 4479   8.113   5.760   2.234 -0.0544  0.0357  0.1664
   11CHTO   H87 4480   8.118   5.698   2.333  2.1848 -1.5809  0.7214
   11CHTO    N8 4481   7.997   5.720   2.156  0.3240  0.0592 -0.3213
   11CHTO   H75 4482   7.981   5.776   2.071  0.3318 -0.6788  1.4658
   11CHTO   H76 4483   7.992   5.618   2.135  2.3070  0.5299 -0.0503
   11CHTO   C43 4484   8.257   5.729   2.159  0.3127  0.3711 -0.3869
   11CHTO   H85 4485   8.264   5.624   2.131 -1.9120  1.4499  2.3895
   11CHTO   O29 4486   8.358   5.762   2.257  0.0082  0.0221  0.2200
   11CHTO   C50 4487   8.371   5.897   2.303  0.5150  0.0205 -0.0953
   11CHTO   H92 4488   8.439   5.899   2.384  0.7033  1.6054 -1.8117
   11CHTO   C54 4489   8.435   5.994   2.202 -0.4527  0.3036 -0.0239
   11CHTO   O36 4490   8.575   5.968   2.207  0.0060 -0.1819  0.6040
   11CHTO   H72 4491   8.599   5.977   2.300 -0.7551  0.6051 -0.9962
   11CHTO   O27 4492   8.275   5.797   2.033  0.1478  0.0444  0.3887
   11CHTO   C37 4493   8.322   5.757   1.901 -0.1377 -0.0599 -0.2981
   11CHTO   H79 4494   8.343   5.848   1.849  0.0094  2.0171  3.8342
   11CHTO   C38 4495   8.457   5.671   1.918  0.6174  0.3453  0.1620
   11CHTO   H80 4496   8.434   5.595   1.998 -0.0888 -0.6695 -2.7176
   11CHTO   O31 4497   8.561   5.762   1.972 -0.3768 -0.2128 -0.1152
   11CHTO   H68 4498   8.580   5.734   2.059  0.4077 -0.7545 -0.0528
   11CHTO   C39 4499   8.503   5.606   1.782 -0.4216  0.3338 -0.3251
   11CHTO   H81 4500   8.537   5.681   1.705  2.2535 -0.1565 -0.3894
   11CHTO    N7 4501   8.625   5.526   1.806 -0.2662  0.4155  0.3585
   11CHTO   H73 4502   8.646   5.479   1.713 -1.4691  0.2143  0.0860
   11CHTO   H74 4503   8.700   5.579   1.867 -0.6498 -0.1200 -1.6596
   11CHTO   C40 4504   8.388   5.528   1.716  0.3006 -0.1976 -0.2954
   11CHTO   H82 4505   8.375   5.439   1.780  1.3473  0.3100 -2.9875
   11CHTO   O26 4506   8.269   5.606   1.700 -0.0245 -0.1235  0.0359
   11CHTO   C41 4507   8.213   5.670   1.821 -0.1152 -0.8748 -0.6501
   11CHTO   H83 4508   8.177   5.601   1.898 -0.2055 -0.7214  0.0399
   11CHTO   C52 4509   8.082   5.749   1.781  0.2703 -0.2273 -0.1642
   11CHTO   O35 4510   7.966   5.652   1.734 -0.1175 -0.1450  0.1470
   11CHTO   H71 4511   7.964   5.574   1.787 -0.4748  1.2401  0.1255
   11CHTO   O28 4512   8.418   5.492   1.578 -0.4282  0.0061  0.4197
   11CHTO   C42 4513   8.360   5.374   1.517 -0.5856  0.1991 -0.8786
   11CHTO   H84 4514   8.396   5.385   1.411  2.5414  0.1511  2.2901
   11CHTO   C44 4515   8.205   5.367   1.508  0.6696 -0.4732  0.1797
   11CHTO   H86 4516   8.159   5.351   1.608  0.4195 -0.6881  0.5374
   11CHTO   O32 4517   8.163   5.497   1.466 -0.0206  0.0967 -0.2064
   11CHTO   H69 4518   8.156   5.502   1.373 -0.5140  1.4195  1.8826
   11CHTO   C48 4519   8.144   5.245   1.420 -0.3712  0.4296 -0.0965
   11CHTO   H90 4520   8.179   5.256   1.320 -1.7248  0.7745 -0.4199
   11CHTO    N9 4521   7.998   5.237   1.413  1.1098  0.4824 -0.1487
   11CHTO   H77 4522   7.951   5.317   1.474 -1.4907  0.3684 -2.2644
   11CHTO   H78 4523   7.964   5.232   1.312  0.7338 -1.8370  2.1809
   11CHTO   C51 4524   8.217   5.120   1.473  0.4050 -0.2384  0.0406
   11CHTO   H93 4525   8.169   5.112   1.569  1.4591 -1.1175 -1.2416
   11CHTO   O30 4526   8.358   5.130   1.485  0.1976 -0.2783  0.1359
   11CHTO   C46 4527   8.412   5.234   1.572  0.1529 -0.6233 -0.3213
   11CHTO   H88 4528   8.382   5.220   1.675  1.0603 -0.1577 -0.3397
   11CHTO   C53 4529   8.564   5.217   1.567  0.2417 -1.1549  0.5429
   11CHTO   O72 4530   8.614   5.089   1.596 -0.3332  0.0314  0.3824
   11CHTO  H199 4531   8.621   5.044   1.513 -1.5564 -0.1160 -1.1480
   11CHTO   O22 4532   8.198   5.001   1.404 -0.9890 -0.0267  0.4358
   11CHTO   C31 4533   8.222   4.871   1.465  0.2642 -0.2997 -0.0606
   11CHTO   H59 4534   8.172   4.806   1.402 -3.2706 -1.2655 -0.1850
   11CHTO   C29 4535   8.370   4.830   1.470 -0.3553  0.7520 -0.6556
   11CHTO   H57 4536   8.410   4.903   1.541  0.0958 -2.2080 -0.5747
   11CHTO   O21 4537   8.442   4.861   1.348  0.1741  0.5307  0.4074
   11CHTO   H37 4538   8.419   4.800   1.280 -1.6857  0.6815 -0.6583
   11CHTO   C27 4539   8.399   4.687   1.531 -0.3290  0.5084 -0.5803
   11CHTO   H55 4540   8.376   4.608   1.457  0.4345  0.4575 -0.1462
   11CHTO    N5 4541   8.546   4.671   1.562  0.4411  0.0436  0.2881
   11CHTO   H43 4542   8.558   4.700   1.663 -1.2113 -0.2711 -0.7349
   11CHTO   H44 4543   8.572   4.574   1.543  1.2441  0.1628  1.0420
   11CHTO   C25 4544   8.311   4.661   1.661 -0.1008 -0.1922 -0.0092
   11CHTO   H53 4545   8.364   4.693   1.751  0.8746 -1.5528  2.0120
   11CHTO   O17 4546   8.171   4.715   1.651  0.1672 -0.4901 -0.0664
   11CHTO   C32 4547   8.155   4.845   1.605 -0.7048 -0.5625  0.4096
   11CHTO   H60 4548   8.204   4.907   1.680 -2.1421  1.3657  2.1769
   11CHTO   C36 4549   8.003   4.867   1.616 -0.1844 -0.0023 -0.5339
   11CHTO   O25 4550   7.932   4.795   1.514  0.2556  0.2005 -0.3084
   11CHTO   H40 4551   7.852   4.766   1.549  0.0831 -3.2334 -0.0561
   11CHTO   O15 4552   8.298   4.502   1.674 -0.3207  0.0045  0.3872
   11CHTO   C19 4553   8.234   4.396   1.605  0.5208  0.0985 -0.2421
   11CHTO   H47 4554   8.207   4.434   1.502  2.2409 -0.3939 -0.9340
   11CHTO   C20 4555   8.337   4.275   1.582  0.1284  0.1224 -0.5629
   11CHTO   H48 4556   8.377   4.235   1.677  1.0451 -2.0976 -0.2223
   11CHTO   O19 4557   8.447   4.323   1.506  0.2089 -0.0189  0.1727
   11CHTO   H35 4558   8.519   4.339   1.560 -3.5093  0.7202  0.5185
   11CHTO   C21 4559   8.261   4.147   1.515  0.1390 -0.1795  0.4137
   11CHTO   H49 4560   8.238   4.167   1.411 -0.4560 -1.5186  1.8713
   11CHTO    N4 4561   8.349   4.031   1.507 -0.1015  0.0303 -0.0199
   11CHTO   H41 4562   8.387   3.992   1.601 -0.9340 -0.2072 -3.0195
   11CHTO   H42 4563   8.322   3.952   1.442  0.4116 -0.6965  3.0950
   11CHTO   C22 4564   8.126   4.123   1.585  0.8199  0.5612  0.3598
   11CHTO   H50 4565   8.144   4.079   1.680  0.3994  1.8252  1.3079
   11CHTO   O14 4566   8.045   4.239   1.596  0.4580  0.0766 -0.6081
   11CHTO   C23 4567   8.103   4.346   1.670 -0.3796  0.7130  0.7471
   11CHTO   H51 4568   8.123   4.304   1.774  1.7930  2.2777  1.6959
   11CHTO   C34 4569   7.994   4.451   1.669  0.3151 -0.1271 -0.1134
   11CHTO   O23 4570   7.887   4.413   1.751  0.2630  0.0263 -0.2290
   11CHTO   H38 4571   7.815   4.382   1.703  2.3154 -1.5213  2.7320
   11CHTO   O16 4572   8.046   4.042   1.494  0.3770 -0.1662 -0.0783
   11CHTO   C24 4573   7.914   3.983   1.559 -0.3129  0.2299  0.2149
   11CHTO   H52 4574   7.884   4.037   1.649 -1.3236 -1.4014  0.2674
   11CHTO   C26 4575   7.956   3.838   1.601 -0.7521  0.1465 -0.6067
   11CHTO   H54 4576   8.025   3.798   1.522 -1.1932  1.9524  2.5723
   11CHTO   O20 4577   8.034   3.843   1.724  0.2027 -0.5196 -0.3084
   11CHTO   H36 4578   8.054   3.755   1.750 -0.5404  0.9246 -1.7232
   11CHTO   C30 4579   7.836   3.745   1.616 -0.0801 -0.3682 -0.0880
   11CHTO   H58 4580   7.778   3.776   1.701  1.6833  1.6462  1.2414
   11CHTO    N6 4581   7.869   3.607   1.645  0.0410  0.0368  0.2424
   11CHTO   H45 4582   7.777   3.554   1.677 -0.5340 -0.7655  1.2506
   11CHTO   H46 4583   7.902   3.572   1.549 -0.5865  2.1008  0.6527
   11CHTO   C33 4584   7.748   3.760   1.494 -0.0178  0.5307  0.9643
   11CHTO   H61 4585   7.803   3.732   1.403 -1.7157 -0.4689 -1.7959
   11CHTO   O18 4586   7.700   3.896   1.489  0.8933  0.5414  0.1732
   11CHTO   C28 4587   7.799   3.991   1.457  0.2972 -0.8509  0.3139
   11CHTO   H56 4588   7.833   3.971   1.355  0.2166 -0.8603  0.7716
   11CHTO   C35 4589   7.744   4.135   1.463 -0.0402 -0.2021 -0.0827
   11CHTO   O24 4590   7.838   4.232   1.412  0.2609 -0.2746 -0.3106
   11CHTO   H39 4591   7.888   4.199   1.337 -1.3301  1.2410 -1.0894
   11CHTO    O9 4592   7.633   3.671   1.501 -0.0788 -0.5940 -0.2353
   11CHTO   C13 4593   7.575   3.631   1.359 -0.1321  0.0550 -0.0120
   11CHTO   H26 4594   7.666   3.628   1.290  0.8171 -0.2238 -2.0396
   11CHTO   C11 4595   7.465   3.734   1.306 -0.8086 -0.0262  0.2116
   11CHTO   H24 4596   7.508   3.837   1.299 -0.2831  0.1952  1.1141
   11CHTO    O8 4597   7.356   3.739   1.401  0.6548 -1.0693  0.6251
   11CHTO    H3 4598   7.381   3.787   1.477  0.1824 -0.4480 -1.7263
   11CHTO    C9 4599   7.421   3.683   1.165  0.0909  0.3967  1.1109
   11CHTO   H22 4600   7.511   3.691   1.103  0.0730 -1.9589  0.5478
   11CHTO    N2 4601   7.327   3.768   1.093 -0.0868 -0.6153 -0.4433
   11CHTO   H10 4602   7.318   3.738   0.984  2.2327  2.0542 -3.1088
   11CHTO   H11 4603   7.345   3.873   1.112  0.0166  1.4242 -0.1536
   11CHTO    C7 4604   7.381   3.532   1.168 -0.2779  0.3244 -0.0508
   11CHTO   H20 4605   7.452   3.482   1.097  0.9239  0.4773  1.0077
   11CHTO    O4 4606   7.392   3.467   1.297  0.0784  0.5539  0.0268
   11CHTO   C14 4607   7.523   3.480   1.363  0.5087  0.4062 -0.0819
   11CHTO   H27 4608   7.586   3.414   1.307 -0.5942  0.0696  3.4243
   11CHTO   C18 4609   7.513   3.426   1.516  0.1070 -0.1152  0.2420
   11CHTO   O13 4610   7.419   3.500   1.596 -0.3479 -0.5043 -0.2708
   11CHTO    H7 4611   7.410   3.475   1.684  0.1050 -0.2344 -0.3229
   11CHTO    O2 4612   7.225   3.495   1.110 -0.2205  0.0102 -0.1515
   11CHTO    C1 4613   7.187   3.362   1.108  0.2170 -0.3050 -0.2116
   11CHTO   H14 4614   7.220   3.306   1.200 -1.1825 -2.5391  1.9403
   11CHTO    C2 4615   7.238   3.296   0.978  0.6086 -0.8816  0.2804
   11CHTO   H15 4616   7.199   3.354   0.903 -1.8343 -1.2788  0.2687
   11CHTO    O6 4617   7.381   3.282   0.986  0.1548  0.6519  0.0354
   11CHTO    H1 4618   7.419   3.218   0.928  0.0727 -0.6118  0.6643
   11CHTO    C3 4619   7.170   3.151   0.973  0.0491  0.3595 -0.3527
   11CHTO   H16 4620   7.207   3.084   1.050 -0.1596 -1.6462 -0.4894
   11CHTO    N1 4621   7.195   3.092   0.838 -0.0394  0.0329  1.1554
   11CHTO    H8 4622   7.118   3.015   0.814 -0.2464  1.1700 -2.7551
   11CHTO    H9 4623   7.288   3.057   0.838 -0.5152 -0.1903  0.8418
   11CHTO    C4 4624   7.018   3.166   0.992 -0.6751  0.0916  0.2436
   11CHTO   H17 4625   6.977   3.215   0.906 -0.9143 -0.6735 -0.6064
   11CHTO    O1 4626   6.978   3.237   1.113  0.0384 -0.0679  0.2685
   11CHTO    C5 4627   7.034   3.369   1.121  0.9965  0.2079 -0.7396
   11CHTO   H18 4628   6.987   3.438   1.046 -1.9561  2.1270  2.6853
   11CHTO   C16 4629   6.987   3.409   1.262 -0.1325  0.3624  0.3425
   11CHTO   O11 4630   7.014   3.541   1.307 -0.0327 -0.0190 -0.2808
   11CHTO    H5 4631   7.105   3.533   1.336  0.6890  0.0113 -0.1108
   11CHTO    O3 4632   6.962   3.034   1.006  0.0595 -0.3925  0.1382
   11CHTO    C6 4633   6.813   3.028   0.994 -1.0894  0.4876 -0.3430
   11CHTO   H19 4634   6.772   3.126   1.000 -0.6974  0.3998  3.2241
   11CHTO    C8 4635   6.788   2.968   0.859  0.8683 -0.9128  0.4890
   11CHTO   H21 4636   6.837   2.870   0.857 -1.7648 -1.2348  1.6849
   11CHTO    O7 4637   6.844   3.054   0.753  0.3717 -0.0997 -0.5669
   11CHTO    H2 4638   6.879   2.998   0.688  1.9508  2.1233  0.6261
   11CHTO   C12 4639   6.634   2.945   0.830 -0.1341  0.2595 -0.3791
   11CHTO   H25 4640   6.595   3.044   0.823 -0.9206 -0.0014  0.2510
   11CHTO    N3 4641   6.599   2.884   0.699 -0.1701  0.1385 -1.0188
   11CHTO   H12 4642   6.522   2.940   0.649 -0.0157  0.3937 -0.3459
   11CHTO   H13 4643   6.556   2.786   0.707  2.3812  1.7241  0.3281
   11CHTO   C15 4644   6.563   2.880   0.955 -0.0752  0.1379 -0.4188
   11CHTO   H28 4645   6.595   2.773   0.966  1.9458 -1.3295 -0.9639
   11CHTO   O10 4646   6.420   2.899   0.956 -0.4887 -0.5465 -0.4440
   11CHTO    H4 4647   6.382   2.825   0.992  1.2401 -0.9772 -1.4850
   11CHTO    O5 4648   6.600   2.949   1.081 -0.0983  0.2955 -0.7294
   11CHTO   C10 4649   6.738   2.944   1.107 -0.2865 -0.4243  0.3423
   11CHTO   H23 4650   6.774   2.851   1.118 -3.1800  2.2458  0.9738
   11CHTO   C17 4651   6.761   3.013   1.242  0.2166  0.8150  0.4436
   11CHTO   O12 4652   6.703   2.936   1.348  0.0636 -0.0389  0.6815
   11CHTO    H6 4653   6.698   2.979   1.430  0.3244  3.5853 -0.1956
   12CHTO  H203 4654   7.806   1.026   7.791 -0.9257  1.2012 -0.8909
   12CHTO   O82 4655   7.730   1.003   7.752 -0.2137  0.0998  0.8993
   12CHTO  C123 4656   7.656   0.935   7.852  0.1509 -0.1040 -0.7741
   12CHTO  H227 4657   7.563   0.987   7.862 -0.7644  1.4785  1.7089
   12CHTO   O77 4658   7.648   0.811   7.795  0.0577  0.5511  0.1538
   12CHTO  C118 4659   7.569   0.712   7.863  0.2146 -0.5013  0.1321
   12CHTO  H222 4660   7.466   0.743   7.871  3.3941 -3.4800 -1.1341
   12CHTO  C125 4661   7.562   0.572   7.785  0.2635 -0.2046  0.3794
   12CHTO   O84 4662   7.689   0.521   7.754  0.0067 -0.3335  0.0478
   12CHTO  H205 4663   7.724   0.455   7.815  0.9817  0.7621  2.9403
   12CHTO  C114 4664   7.627   0.691   8.000  0.5079  1.1785 -0.2354
   12CHTO  H218 4665   7.719   0.629   7.989  1.0598  0.9521 -1.0923
   12CHTO  C116 4666   7.679   0.826   8.081 -0.4618  0.4262 -0.0246
   12CHTO  H220 4667   7.597   0.871   8.140 -2.1443 -3.3843 -1.6374
   12CHTO   O79 4668   7.793   0.789   8.167 -0.6527 -0.0508  0.6107
   12CHTO  H201 4669   7.856   0.753   8.109  1.0302 -0.2859 -1.9066
   12CHTO  C120 4670   7.736   0.937   7.991  0.3862 -0.1557 -0.2903
   12CHTO  H224 4671   7.842   0.904   7.971  1.6629  2.1541 -0.5213
   12CHTO   N21 4672   7.752   1.077   8.041  0.7229  0.4761  0.0255
   12CHTO  H211 4673   7.675   1.106   8.114  1.4591  0.0810  1.7081
   12CHTO  H212 4674   7.778   1.158   7.976  2.1886  1.2217 -0.9093
   12CHTO   O75 4675   7.531   0.612   8.077 -0.5068  0.3194  0.1085
   12CHTO  C112 4676   7.576   0.569   8.228  0.2793  0.5499 -0.0014
   12CHTO  H216 4677   7.634   0.654   8.267  2.2324  1.1200  1.1974
   12CHTO   O73 4678   7.650   0.447   8.231 -0.3180  0.1646  0.1097
   12CHTO  C113 4679   7.706   0.435   8.363  0.4564  0.7986  0.2844
   12CHTO  H217 4680   7.773   0.522   8.379  1.0426  1.0553  0.3733
   12CHTO  C124 4681   7.804   0.320   8.342  0.0186 -0.1776 -0.7825
   12CHTO   O83 4682   7.763   0.186   8.296 -0.3110  0.0807 -0.1333
   12CHTO  H204 4683   7.763   0.124   8.362 -1.7348  0.6818 -2.3880
   12CHTO  C109 4684   7.601   0.407   8.477 -0.5245 -0.6580  0.5881
   12CHTO  H213 4685   7.549   0.316   8.457 -0.7004  1.5302 -0.7018
   12CHTO  C110 4686   7.497   0.526   8.479 -0.0948  1.0677  0.4682
   12CHTO  H214 4687   7.553   0.619   8.504  2.8677  1.4255  1.6641
   12CHTO   O78 4688   7.395   0.498   8.577  0.0761 -0.3854  0.1053
   12CHTO  H200 4689   7.335   0.572   8.588 -0.9823  0.6046 -3.0516
   12CHTO  C111 4690   7.448   0.553   8.328 -0.2237  0.1343  0.0866
   12CHTO  H215 4691   7.398   0.463   8.296  2.4298 -2.2092 -0.8400
   12CHTO   N19 4692   7.349   0.662   8.324 -0.6286  0.4393 -0.2683
   12CHTO  H207 4693   7.261   0.617   8.279  0.0684  0.9710  0.2022
   12CHTO  H208 4694   7.312   0.682   8.426 -0.7453  0.4872  0.2483
   12CHTO   O74 4695   7.682   0.401   8.604 -0.7187  0.0081 -0.2269
   12CHTO  C115 4696   7.665   0.268   8.682  0.0399 -0.8097  0.5306
   12CHTO  H219 4697   7.566   0.226   8.668 -1.6223  2.0999 -1.1707
   12CHTO   O76 4698   7.763   0.164   8.637 -0.0273 -0.3061  0.6452
   12CHTO  C122 4699   7.904   0.182   8.656  0.3072 -0.2606  0.1583
   12CHTO  H226 4700   7.946   0.263   8.597 -1.3816  2.9817  0.2993
   12CHTO  C126 4701   7.979   0.052   8.597  0.1378 -0.3130  0.1568
   12CHTO   O85 4702   7.977   0.051   8.451  0.0005  0.8087  0.1215
   12CHTO  H206 4703   8.002   0.138   8.428  0.1808 -0.2529  0.3166
   12CHTO  C121 4704   7.936   0.200   8.816  0.0458 -0.2754 -0.1940
   12CHTO  H225 4705   7.983   0.109   8.849  0.4391  0.6244 -1.1790
   12CHTO   O81 4706   8.026   0.306   8.827  0.0516 -0.0773 -0.0391
   12CHTO  H202 4707   7.995   0.389   8.796 -3.0687 -0.5475 -0.9478
   12CHTO  C119 4708   7.804   0.216   8.897  0.5056 -0.1423  0.3181
   12CHTO  H223 4709   7.767   0.116   8.901 -0.0464  1.9358 -0.4731
   12CHTO  C117 4710   7.698   0.311   8.828 -0.4469 -0.3161 -0.7558
   12CHTO  H221 4711   7.734   0.410   8.831 -0.2682 -0.0753 -0.4151
   12CHTO   N20 4712   7.568   0.315   8.905 -0.8781  0.3794 -0.5275
   12CHTO  H209 4713   7.491   0.248   8.860 -1.5757 -0.3729 -1.6086
   12CHTO  H210 4714   7.536   0.420   8.907 -1.5715  2.5141 -1.8669
   12CHTO   O80 4715   7.824   0.253   9.056 -0.0239 -0.0456  0.4607
   12CHTO  C103 4716   7.862   0.139   9.154 -0.4674 -0.0060 -0.1114
   12CHTO  H190 4717   7.834   0.161   9.256 -0.6581 -1.7470 -3.6720
   12CHTO  C101 4718   7.799  -0.003   9.139 -0.4407 -0.1373  0.0976
   12CHTO  H188 4719   7.824  -0.037   9.035  1.4158 -0.5666 -1.4145
   12CHTO   O68 4720   7.636  -0.003   9.164  0.4101  0.4579 -0.1530
   12CHTO  H168 4721   7.611   0.033   9.249 -2.1240 -0.5839 -0.9255
   12CHTO   C99 4722   7.864  -0.116   9.229  0.3983  0.2227 -0.5898
   12CHTO  H186 4723   7.830  -0.111   9.339  1.1154 -1.9172  0.7833
   12CHTO   N17 4724   7.815  -0.250   9.193  0.9124 -0.2519 -0.1161
   12CHTO  H174 4725   7.712  -0.255   9.174  0.4251 -2.8603 -3.0059
   12CHTO  H175 4726   7.866  -0.270   9.106 -1.9795  1.8110  0.9912
   12CHTO   C97 4727   8.025  -0.112   9.230 -0.3847 -0.0186  0.4485
   12CHTO  H184 4728   8.051  -0.139   9.130 -1.4289  1.0568 -1.3219
   12CHTO   O64 4729   8.061   0.027   9.261 -0.1320  0.5967 -0.1757
   12CHTO  C104 4730   8.014   0.121   9.154  0.2987 -0.5268 -0.0492
   12CHTO  H191 4731   8.049   0.089   9.058 -0.0628 -0.9582  0.7394
   12CHTO  C108 4732   8.087   0.257   9.174  0.1978  0.6428  0.6748
   12CHTO   O71 4733   8.221   0.218   9.141  0.2224 -0.5065  0.5096
   12CHTO  H171 4734   8.269   0.294   9.114  1.8822  1.4819 -0.9069
   12CHTO   O62 4735   8.076  -0.203   9.334 -0.0831 -0.0047  0.2318
   12CHTO   C91 4736   8.211  -0.251   9.304 -0.1863  0.3544 -0.1116
   12CHTO  H178 4737   8.228  -0.213   9.202 -0.2982  2.3194 -0.8043
   12CHTO   C92 4738   8.198  -0.407   9.300  0.1770  0.1041 -0.4176
   12CHTO  H179 4739   8.114  -0.427   9.225  0.3961 -1.2997  0.4147
   12CHTO   O66 4740   8.314  -0.467   9.245  0.4863 -0.5104 -0.8875
   12CHTO  H166 4741   8.330  -0.435   9.162  1.0239  1.0569  0.6264
   12CHTO   C93 4742   8.170  -0.475   9.441 -0.5082 -0.1625 -0.0134
   12CHTO  H180 4743   8.217  -0.583   9.438  1.8542 -1.6315  0.2397
   12CHTO   N16 4744   8.024  -0.489   9.484 -0.3489 -0.1041  0.4629
   12CHTO  H172 4745   8.022  -0.574   9.551  0.3222  2.0370 -0.1038
   12CHTO  H173 4746   7.962  -0.507   9.400  0.5972 -0.2972 -0.4355
   12CHTO   C94 4747   8.252  -0.398   9.545  0.5302 -1.0659 -0.1624
   12CHTO  H181 4748   8.194  -0.318   9.591  0.5799 -2.4024 -4.1138
   12CHTO   O61 4749   8.368  -0.326   9.487  0.5974 -0.2274 -0.3881
   12CHTO   C95 4750   8.320  -0.218   9.411 -1.1975 -0.1035  0.1922
   12CHTO  H182 4751   8.264  -0.144   9.475 -2.6947  1.1356  0.6521
   12CHTO  C106 4752   8.443  -0.146   9.336  0.0763  0.2257 -0.2332
   12CHTO   O69 4753   8.521  -0.240   9.264 -0.1229 -0.0194 -0.4060
   12CHTO  H169 4754   8.576  -0.195   9.203 -2.3933 -0.9020  2.5130
   12CHTO   O63 4755   8.302  -0.497   9.647 -0.2838  0.1352 -0.8707
   12CHTO   C96 4756   8.321  -0.439   9.784 -0.1211 -0.1342 -0.0575
   12CHTO  H183 4757   8.332  -0.331   9.769  1.8894 -0.6421 -2.7647
   12CHTO   C98 4758   8.454  -0.510   9.842  0.5138 -0.0970  0.7278
   12CHTO  H185 4759   8.531  -0.514   9.761  0.2350 -1.7342 -2.2251
   12CHTO   O67 4760   8.497  -0.424   9.943 -0.4850  0.2776  0.0235
   12CHTO  H167 4761   8.589  -0.437   9.959  1.2678 -0.8732 -0.9336
   12CHTO  C102 4762   8.426  -0.659   9.892 -0.6074 -0.0940 -0.1002
   12CHTO  H189 4763   8.515  -0.686   9.946 -2.6452  3.5197 -0.7652
   12CHTO   N18 4764   8.415  -0.767   9.789  0.0961 -0.9447 -0.4047
   12CHTO  H176 4765   8.506  -0.780   9.738 -2.1000 -1.4134 -0.7502
   12CHTO  H177 4766   8.378  -0.865   9.812  0.2269  0.7070  1.7294
   12CHTO  C105 4767   8.294  -0.661   9.977  0.1473 -0.5559 -0.1630
   12CHTO  H192 4768   8.219  -0.719   9.927  1.4714  0.3702  1.7846
   12CHTO   O65 4769   8.230  -0.532   9.992 -0.2620  0.6291  0.3119
   12CHTO  C100 4770   8.188  -0.465   9.875  0.9502  0.1915  0.0601
   12CHTO  H187 4771   8.113  -0.524   9.830 -0.1408 -0.3268 -1.4119
   12CHTO  C107 4772   8.119  -0.337   9.915  0.5070  0.7778 -0.1363
   12CHTO   O70 4773   8.006  -0.347   9.999  0.8773  0.3938 -0.7178
   12CHTO  H170 4774   8.007  -0.285  10.068 -0.2551 -3.5653  1.3490
   12CHTO   O57 4775   8.343  -0.719  10.123 -0.1954 -0.6375 -0.7514
   12CHTO   C85 4776   8.356  -0.863  10.145  0.0428  0.3308  0.4873
   12CHTO  H157 4777   8.397  -0.900  10.047 -1.1324 -0.2122 -0.2450
   12CHTO   C83 4778   8.216  -0.932  10.156  0.1634  0.2754 -0.0150
   12CHTO  H155 4779   8.164  -0.921  10.067 -2.7019  1.4904  0.7808
   12CHTO   O56 4780   8.130  -0.872  10.251 -0.3340  0.1971  0.3077
   12CHTO  H135 4781   8.044  -0.890  10.230 -1.5165  0.6510 -1.5176
   12CHTO   C81 4782   8.241  -1.086  10.179  0.5308  0.0236  0.7408
   12CHTO  H153 4783   8.301  -1.125  10.097  0.9391 -0.4933  3.0479
   12CHTO   N14 4784   8.128  -1.178  10.169  1.3672  0.1617 -0.3642
   12CHTO  H141 4785   8.036  -1.142  10.217 -1.8439  2.1664  2.2745
   12CHTO  H142 4786   8.155  -1.275  10.197  0.4648  2.1583 -0.9025
   12CHTO   C79 4787   8.322  -1.107  10.313  0.5638 -0.4205 -0.1870
   12CHTO  H151 4788   8.346  -1.215  10.312  0.3070 -2.2773 -2.3849
   12CHTO   O52 4789   8.449  -1.041  10.305 -0.4486 -0.1944 -0.0333
   12CHTO   C86 4790   8.450  -0.900  10.273  0.0019  0.1783 -0.3059
   12CHTO  H158 4791   8.410  -0.838  10.367 -1.5790 -0.1671  1.2849
   12CHTO   C90 4792   8.596  -0.849  10.256 -0.3098 -0.2515  0.3823
   12CHTO   O60 4793   8.677  -0.880  10.365  0.1957 -0.3567  0.2159
   12CHTO  H138 4794   8.639  -0.845  10.442 -2.0130  0.5120  2.6214
   12CHTO   O50 4795   8.243  -1.069  10.429 -0.1583  0.0941 -0.3122
   12CHTO   C73 4796   8.150  -1.101  10.532 -0.4335  0.1976 -0.2516
   12CHTO  H145 4797   8.084  -1.182  10.510  0.6504  3.8175  0.5159
   12CHTO   C74 4798   8.047  -0.985  10.554 -0.7677  0.1636  0.2973
   12CHTO  H146 4799   7.999  -0.969  10.458 -0.8968 -1.0394  1.0709
   12CHTO   O54 4800   7.955  -1.017  10.653 -0.4168  0.2922 -0.3568
   12CHTO  H133 4801   7.948  -0.951  10.721  1.5930  0.7281  0.3733
   12CHTO   C75 4802   8.134  -0.860  10.592 -0.2651 -0.0573 -0.5434
   12CHTO  H147 4803   8.203  -0.833  10.507  0.5716 -2.4569  0.3889
   12CHTO   N13 4804   8.056  -0.735  10.594 -0.0521 -0.2141 -0.2535
   12CHTO  H139 4805   8.087  -0.663  10.518  0.6295 -1.0747  0.3487
   12CHTO  H140 4806   8.052  -0.679  10.690 -0.6318 -1.4674 -2.4770
   12CHTO   C76 4807   8.221  -0.889  10.733  0.1887 -0.3273  0.6106
   12CHTO  H148 4808   8.149  -0.891  10.818  0.1108  1.4678 -0.3279
   12CHTO   O49 4809   8.292  -1.019  10.724  0.6022  0.0578 -0.5914
   12CHTO   C77 4810   8.221  -1.132  10.672 -0.1700 -0.3635  0.4916
   12CHTO  H149 4811   8.150  -1.161  10.746 -0.3435 -0.0973  2.0165
   12CHTO   C88 4812   8.324  -1.244  10.667 -0.7864 -0.1756 -0.7025
   12CHTO   O58 4813   8.390  -1.253  10.799  0.2698 -0.4280 -0.0559
   12CHTO  H136 4814   8.343  -1.221  10.866 -0.6161  0.8836 -1.0949
   12CHTO   O51 4815   8.332  -0.776  10.757 -0.5852 -0.5497  0.5629
   12CHTO   C78 4816   8.406  -0.793  10.887 -0.1015 -0.0962 -0.3959
   12CHTO  H150 4817   8.392  -0.890  10.933  1.5334 -2.8996  1.7296
   12CHTO   C80 4818   8.374  -0.687  10.987 -0.2444 -0.2255 -0.7794
   12CHTO  H152 4819   8.373  -0.592  10.936  0.4712  1.1036 -0.1444
   12CHTO   O55 4820   8.233  -0.707  11.024 -0.2896  0.2787  0.0502
   12CHTO  H134 4821   8.231  -0.773  11.089  1.5847 -2.8089 -0.6698
   12CHTO   C84 4822   8.469  -0.685  11.116 -0.4228  0.0271 -0.2141
   12CHTO  H156 4823   8.462  -0.771  11.181 -0.8152 -1.4470  0.5014
   12CHTO   N15 4824   8.439  -0.566  11.201  0.5079  0.1777  0.3531
   12CHTO  H143 4825   8.460  -0.473  11.144 -1.7992  1.9411  0.6009
   12CHTO  H144 4826   8.509  -0.572  11.281  0.2009  1.5754 -0.4588
   12CHTO   C87 4827   8.619  -0.694  11.081 -0.7116  0.4061  0.0415
   12CHTO  H159 4828   8.640  -0.594  11.054 -2.5829 -0.4197  0.8202
   12CHTO   O53 4829   8.647  -0.789  10.970  0.1765  0.0466  0.1240
   12CHTO   C82 4830   8.558  -0.776  10.856  0.2065 -0.0753 -0.4164
   12CHTO  H154 4831   8.569  -0.675  10.809 -0.9273  0.8907 -1.8559
   12CHTO   C89 4832   8.604  -0.883  10.750  0.6407 -0.0707  0.0408
   12CHTO   O59 4833   8.586  -1.022  10.784 -0.6710  0.3075  0.5402
   12CHTO  H137 4834   8.616  -1.043  10.867 -2.6468 -0.2298 -0.3862
   12CHTO   O45 4835   8.700  -0.738  11.229  0.1148 -0.1705 -0.3980
   12CHTO   C67 4836   8.843  -0.748  11.240  0.9324 -0.2101  0.3325
   12CHTO  H124 4837   8.882  -0.850  11.199 -1.3798  0.9624 -0.6944
   12CHTO   C65 4838   8.910  -0.643  11.144  0.1575 -0.1306 -0.0636
   12CHTO  H122 4839   8.838  -0.564  11.130 -0.6323  0.1227  1.6477
   12CHTO   O44 4840   8.939  -0.712  11.025  0.5920 -0.9059 -0.0319
   12CHTO  H102 4841   8.944  -0.639  10.964  0.9464 -0.4759 -0.3184
   12CHTO   C63 4842   9.028  -0.573  11.216 -0.2643 -0.0899 -0.0187
   12CHTO  H120 4843   8.987  -0.505  11.284  1.1850 -2.7019  2.0567
   12CHTO   N11 4844   9.104  -0.480  11.128  0.3945  0.0028 -0.6702
   12CHTO  H108 4845   9.072  -0.492  11.033  1.7259  1.5146  1.1950
   12CHTO  H109 4846   9.206  -0.507  11.141 -2.5321  2.7600  1.0443
   12CHTO   C61 4847   9.119  -0.677  11.297  0.1636 -0.2394 -0.1377
   12CHTO  H118 4848   9.187  -0.612  11.359  0.2679  0.6440  0.9784
   12CHTO   O40 4849   9.038  -0.757  11.394 -0.5937  0.0158 -0.2998
   12CHTO   C68 4850   8.897  -0.737  11.391 -0.2918  0.4090 -0.1832
   12CHTO  H125 4851   8.880  -0.638  11.442 -0.8008  0.3000 -0.5940
   12CHTO   C72 4852   8.828  -0.844  11.486  0.1602  0.5195 -0.0647
   12CHTO   O48 4853   8.883  -0.838  11.614  0.3535  0.1003 -0.1242
   12CHTO  H105 4854   8.975  -0.813  11.611  0.2194  0.5941 -2.1964
   12CHTO   O38 4855   9.193  -0.767  11.213 -0.7564  0.1697  0.0628
   12CHTO   C55 4856   9.298  -0.835  11.284 -0.7832 -0.0162  0.3473
   12CHTO  H112 4857   9.285  -0.828  11.393  0.6809  0.5019  1.4515
   12CHTO   C56 4858   9.438  -0.764  11.242  0.6182  0.2852 -1.0580
   12CHTO  H113 4859   9.429  -0.747  11.137 -0.6803  1.8646  2.7488
   12CHTO   O42 4860   9.451  -0.635  11.292  0.4939 -0.4195  0.0637
   12CHTO  H100 4861   9.507  -0.590  11.234 -1.5633 -0.7495 -1.4019
   12CHTO   C57 4862   9.559  -0.858  11.282 -0.4874  0.0861  0.0626
   12CHTO  H114 4863   9.547  -0.852  11.392  2.0814 -2.9751  0.4937
   12CHTO   N10 4864   9.683  -0.815  11.218 -0.5635  0.4436 -0.5475
   12CHTO  H106 4865   9.693  -0.707  11.206  1.6383 -0.3780  1.4843
   12CHTO  H107 4866   9.762  -0.845  11.279  0.3644  0.7559  0.6595
   12CHTO   C58 4867   9.527  -1.006  11.245  0.0818 -0.9662 -0.1438
   12CHTO  H115 4868   9.507  -1.014  11.134  0.9929 -1.5191 -0.3863
   12CHTO   O37 4869   9.420  -1.049  11.322  0.3262  0.3516 -0.3936
   12CHTO   C59 4870   9.303  -0.991  11.264  0.3387  0.0407  0.9093
   12CHTO  H116 4871   9.300  -1.020  11.162  1.2290  2.7761 -0.2347
   12CHTO   C70 4872   9.176  -1.047  11.326  0.2724  0.0635  0.3726
   12CHTO   O46 4873   9.175  -1.187  11.337 -0.0037  0.0848 -0.7001
   12CHTO  H103 4874   9.106  -1.211  11.391  1.7842 -0.7478 -0.0819
   12CHTO   O39 4875   9.633  -1.103  11.275 -0.6318  0.4404 -0.4564
   12CHTO   C60 4876   9.612  -1.236  11.224  0.3677  0.5151 -0.4478
   12CHTO  H117 4877   9.510  -1.254  11.232 -0.5321  2.3074  2.2747
   12CHTO   C62 4878   9.653  -1.249  11.078  0.2799 -0.2954 -0.2053
   12CHTO  H119 4879   9.595  -1.172  11.028  1.5124 -0.2199  1.8548
   12CHTO   O43 4880   9.788  -1.208  11.064  1.0288 -0.0026 -0.3973
   12CHTO  H101 4881   9.802  -1.119  11.044 -0.8624 -1.3333 -1.6833
   12CHTO   C66 4882   9.627  -1.402  11.032  0.1755  0.1518 -0.6754
   12CHTO  H123 4883   9.520  -1.420  11.046  1.6135  1.2354  0.0980
   12CHTO   N12 4884   9.670  -1.430  10.891  0.1628 -0.3641 -0.2220
   12CHTO  H110 4885   9.771  -1.388  10.867  1.4969 -1.6541 -1.2141
   12CHTO  H111 4886   9.590  -1.408  10.817 -0.4669 -0.8148 -1.7155
   12CHTO   C69 4887   9.702  -1.513  11.122 -0.0479 -0.5509  0.8720
   12CHTO  H126 4888   9.808  -1.492  11.116 -2.3350  0.2768 -0.3904
   12CHTO   O41 4889   9.660  -1.490  11.281 -0.5124  0.2464  0.0969
   12CHTO   C64 4890   9.684  -1.343  11.317  0.5596  0.4777 -0.1332
   12CHTO  H121 4891   9.806  -1.331  11.322  1.3062  2.8833  0.1350
   12CHTO   C71 4892   9.637  -1.329  11.460  0.2137 -0.1180 -0.3029
   12CHTO   O47 4893   9.671  -1.210  11.524  0.4349 -0.0905 -0.7032
   12CHTO  H104 4894   9.612  -1.137  11.504  0.2510 -0.0572  1.6948
   12CHTO   O34 4895   9.670  -1.683  11.075  0.1797  0.7675  0.1432
   12CHTO   C49 4896   9.677  -1.838  11.096  0.3144  0.6477 -0.0557
   12CHTO   H91 4897   9.770  -1.876  11.042  1.6772  1.6294  0.3360
   12CHTO   C47 4898   9.556  -1.897  11.028  0.9477 -0.2792  0.0720
   12CHTO   H89 4899   9.560  -2.019  11.051  1.4213  0.5641 -1.0384
   12CHTO   O33 4900   9.577  -1.883  10.884  0.1027  0.1202  0.0800
   12CHTO   H70 4901   9.623  -1.807  10.864 -1.0445 -2.0991  0.2324
   12CHTO   C45 4902   9.419  -1.838  11.083  0.5503 -0.1529  0.6993
   12CHTO   H87 4903   9.395  -1.737  11.044 -0.9611 -0.6923  1.6250
   12CHTO    N8 4904   9.316  -1.935  11.049  0.2217  0.3917 -0.3533
   12CHTO   H75 4905   9.226  -1.873  11.023 -2.4659  1.9760  0.4704
   12CHTO   H76 4906   9.281  -1.999  11.128  0.7121  1.9191 -0.5364
   12CHTO   C43 4907   9.429  -1.804  11.243 -1.0736  0.1193  0.9403
   12CHTO   H85 4908   9.462  -1.704  11.244  2.4151 -3.3390  2.9317
   12CHTO   O29 4909   9.530  -1.889  11.299 -0.8549 -0.3797  1.1252
   12CHTO   C50 4910   9.669  -1.878  11.247 -0.0894  0.6842  0.0892
   12CHTO   H92 4911   9.725  -1.800  11.305  1.7216 -0.9124  0.2956
   12CHTO   C54 4912   9.748  -2.004  11.277  0.1767  1.0932 -0.1873
   12CHTO   O36 4913   9.776  -2.018  11.415  0.1004  0.4043  0.8936
   12CHTO   H72 4914   9.836  -2.093  11.435  2.2446  0.2095  0.8386
   12CHTO   O27 4915   9.305  -1.806  11.317 -0.1640 -0.0167 -0.1142
   12CHTO   C37 4916   9.298  -1.776  11.457  0.1407  0.0073 -0.3390
   12CHTO   H79 4917   9.395  -1.796  11.500  0.9571  3.4036  1.7392
   12CHTO   C38 4918   9.264  -1.626  11.482 -0.0800  0.2853 -0.4451
   12CHTO   H80 4919   9.179  -1.600  11.418 -0.9477 -0.1032  1.9373
   12CHTO   O31 4920   9.379  -1.552  11.455 -0.1383  0.1358 -0.7381
   12CHTO   H68 4921   9.362  -1.464  11.435  0.6869  0.2209  0.4538
   12CHTO   C39 4922   9.229  -1.595  11.632 -0.0925  0.9108  0.0606
   12CHTO   H81 4923   9.322  -1.600  11.689 -2.0587 -0.6474 -0.7632
   12CHTO    N7 4924   9.181  -1.455  11.661  0.3039 -0.2206 -0.2350
   12CHTO   H73 4925   9.223  -1.394  11.577  3.2435  1.6551 -2.0218
   12CHTO   H74 4926   9.229  -1.424  11.753 -0.0696  1.9250 -1.5503
   12CHTO   C40 4927   9.126  -1.704  11.691 -0.6798 -0.2602  0.0645
   12CHTO   H82 4928   9.028  -1.691  11.643  0.9789  1.8497 -0.1858
   12CHTO   O26 4929   9.177  -1.837  11.673  0.0595  0.1248  0.2062
   12CHTO   C41 4930   9.191  -1.868  11.530 -0.2755  0.1146 -0.0391
   12CHTO   H83 4931   9.096  -1.840  11.483 -0.3612  2.6860  2.5525
   12CHTO   C52 4932   9.235  -2.018  11.511  0.3118 -0.0058  0.4358
   12CHTO   O35 4933   9.354  -2.052  11.587 -0.1225  1.0049 -0.3781
   12CHTO   H71 4934   9.342  -2.116  11.657 -0.6794 -0.5378 -0.1056
   12CHTO   O28 4935   9.108  -1.698  11.830 -0.3141 -0.9528 -0.4502
   12CHTO   C42 4936   8.988  -1.763  11.897 -0.0248  0.3404 -0.0090
   12CHTO   H84 4937   9.015  -1.777  12.001  4.4637 -0.7225  0.1153
   12CHTO   C44 4938   8.945  -1.902  11.847  0.6385  0.5893 -0.1555
   12CHTO   H86 4939   8.937  -1.903  11.741 -1.7144 -2.1686  0.1222
   12CHTO   O32 4940   9.045  -1.988  11.894  0.1751  0.2890  0.2503
   12CHTO   H69 4941   9.051  -1.980  11.982 -2.0932 -1.9028 -1.8340
   12CHTO   C48 4942   8.806  -1.950  11.897 -0.4108  0.4579  0.2042
   12CHTO   H90 4943   8.822  -1.971  12.003 -0.0379  0.6078 -3.9045
   12CHTO    N9 4944   8.760  -2.079  11.838 -0.3164  0.5698 -0.1542
   12CHTO   H77 4945   8.843  -2.143  11.810  0.0658  1.2766  2.4171
   12CHTO   H78 4946   8.692  -2.063  11.756 -0.3384  0.4090 -1.6632
   12CHTO   C51 4947   8.703  -1.838  11.879  0.8474 -0.5744  0.6444
   12CHTO   H93 4948   8.717  -1.819  11.772  1.5070 -0.3630  1.1640
   12CHTO   O30 4949   8.742  -1.720  11.959 -0.2312  0.1387  0.0962
   12CHTO   C46 4950   8.863  -1.663  11.893 -0.1605 -0.4353  0.3079
   12CHTO   H88 4951   8.845  -1.645  11.790  0.3746  1.7391 -0.3382
   12CHTO   C53 4952   8.898  -1.526  11.953 -0.2230  0.4347 -0.6256
   12CHTO   O72 4953   8.953  -1.549  12.081  0.5436  0.6878 -0.0846
   12CHTO  H199 4954   9.008  -1.480  12.110  1.4894 -0.6659 -2.1179
   12CHTO   O22 4955   8.570  -1.871  11.923 -0.4375 -0.1362  0.4479
   12CHTO   C31 4956   8.467  -1.804  11.845  0.3240 -0.0911  0.0598
   12CHTO   H59 4957   8.379  -1.836  11.887 -1.1739 -0.1038 -2.2598
   12CHTO   C29 4958   8.469  -1.653  11.859  0.2181 -0.3826  0.2097
   12CHTO   H57 4959   8.566  -1.625  11.828  0.1155 -1.6261  2.6911
   12CHTO   O21 4960   8.443  -1.627  12.001 -0.3096  0.0067 -0.2337
   12CHTO   H37 4961   8.372  -1.675  12.037 -2.1044 -1.1501  2.8972
   12CHTO   C27 4962   8.368  -1.581  11.762 -0.6456 -0.8897 -0.6997
   12CHTO   H55 4963   8.265  -1.614  11.785 -0.7046 -1.6613 -0.3551
   12CHTO    N5 4964   8.381  -1.433  11.777  0.3547 -0.0187  0.0053
   12CHTO   H43 4965   8.344  -1.404  11.876 -1.7307 -0.6567  2.0546
   12CHTO   H44 4966   8.333  -1.372  11.700 -1.5048 -0.5284  2.5984
   12CHTO   C25 4967   8.397  -1.626  11.618 -0.2558 -0.1070 -0.5308
   12CHTO   H53 4968   8.500  -1.615  11.597  1.2500  0.8208  3.1800
   12CHTO   O17 4969   8.374  -1.773  11.612 -0.1897 -0.1867 -0.4834
   12CHTO   C32 4970   8.457  -1.858  11.696  0.4165 -0.7752  0.0954
   12CHTO   H60 4971   8.550  -1.867  11.654 -2.6713  3.6059 -1.1874
   12CHTO   C36 4972   8.399  -2.003  11.675 -0.8675 -0.0177  0.2494
   12CHTO   O25 4973   8.468  -2.112  11.741 -0.1350 -0.2653 -0.0662
   12CHTO   H40 4974   8.462  -2.104  11.834 -2.3501 -0.7818 -0.0315
   12CHTO   O15 4975   8.313  -1.548  11.498  0.6600  0.1625  0.5445
   12CHTO   C19 4976   8.336  -1.540  11.353 -0.4535 -0.0511 -0.1532
   12CHTO   H47 4977   8.263  -1.460  11.315 -1.6892 -0.7702 -0.9740
   12CHTO   C20 4978   8.484  -1.495  11.312 -0.3546 -0.6530  0.4284
   12CHTO   H48 4979   8.558  -1.575  11.333 -1.0634 -0.6131 -2.5825
   12CHTO   O19 4980   8.515  -1.383  11.391  0.1040 -0.2756  0.4374
   12CHTO   H35 4981   8.607  -1.394  11.412  1.7070 -0.7190  0.2566
   12CHTO   C21 4982   8.476  -1.473  11.156 -0.7345  0.2930  0.0850
   12CHTO   H49 4983   8.399  -1.402  11.136  0.7358  0.1297 -2.4173
   12CHTO    N4 4984   8.602  -1.413  11.097  0.3650  0.0411  0.0934
   12CHTO   H41 4985   8.571  -1.363  11.009 -1.9328 -1.8991  0.9768
   12CHTO   H42 4986   8.683  -1.484  11.069 -1.7822 -0.8613 -0.1057
   12CHTO   C22 4987   8.440  -1.606  11.082  0.1225  0.0180 -0.0044
   12CHTO   H50 4988   8.517  -1.683  11.105  1.5887 -1.0063  2.1029
   12CHTO   O14 4989   8.308  -1.654  11.123  0.2598  0.0745 -0.1277
   12CHTO   C23 4990   8.290  -1.669  11.269 -0.1535  0.1146  0.2823
   12CHTO   H51 4991   8.338  -1.761  11.309 -0.7413  1.7050  0.2355
   12CHTO   C34 4992   8.140  -1.682  11.295  1.0290  0.5958 -0.1621
   12CHTO   O23 4993   8.090  -1.807  11.271 -0.3123 -0.0069 -0.6349
   12CHTO   H38 4994   8.107  -1.839  11.181 -0.4577 -0.1684  1.4138
   12CHTO   O16 4995   8.430  -1.598  10.941 -0.0983 -0.2878  0.5973
   12CHTO   C24 4996   8.476  -1.719  10.859  0.1922 -0.3529  0.9278
   12CHTO   H52 4997   8.469  -1.812  10.917 -2.9880  0.1031  0.9248
   12CHTO   C26 4998   8.625  -1.684  10.820  0.0141  0.5329  0.0535
   12CHTO   H54 4999   8.635  -1.579  10.804  2.4817  0.1075  3.8841
   12CHTO   O20 5000   8.704  -1.712  10.938  0.1173  0.5333 -0.1430
   12CHTO   H36 5001   8.675  -1.664  11.017  1.1240 -2.1212  0.0687
   12CHTO   C30 5002   8.684  -1.767  10.700 -0.0200 -0.4733 -0.1597
   12CHTO   H58 5003   8.703  -1.876  10.720  2.0136  1.9678  0.1558
   12CHTO    N6 5004   8.816  -1.715  10.651 -0.1335 -0.3251  0.2271
   12CHTO   H45 5005   8.839  -1.621  10.697  1.9534  0.1628  0.8450
   12CHTO   H46 5006   8.896  -1.791  10.678  1.2105  0.8025  1.0839
   12CHTO   C33 5007   8.584  -1.774  10.583  0.0892  0.2582  0.4755
   12CHTO   H61 5008   8.563  -1.663  10.555 -0.8646  1.7706 -1.7798
   12CHTO   O18 5009   8.464  -1.825  10.638  0.0778  0.2055  0.0524
   12CHTO   C28 5010   8.396  -1.735  10.730 -0.1999  0.1708 -0.6979
   12CHTO   H56 5011   8.385  -1.642  10.678 -0.1774  2.3899 -0.3728
   12CHTO   C35 5012   8.253  -1.787  10.757  0.6023  0.4191  0.9673
   12CHTO   O24 5013   8.171  -1.695  10.836 -0.2253 -0.2631  1.0129
   12CHTO   H39 5014   8.207  -1.687  10.922  1.5440 -2.1225 -0.4348
   12CHTO    O9 5015   8.620  -1.841  10.463 -0.0363 -0.1342 -0.0234
   12CHTO   C13 5016   8.654  -2.001  10.488 -0.1761  0.0906  0.3838
   12CHTO   H26 5017   8.681  -2.023  10.596  0.5192  0.2562  0.7527
   12CHTO   C11 5018   8.774  -2.036  10.388  0.3794  0.8460  0.3692
   12CHTO   H24 5019   8.860  -1.975  10.420  0.1420  3.6894  1.2697
   12CHTO    O8 5020   8.742  -1.993  10.248  0.1887 -0.2652 -0.1172
   12CHTO    H3 5021   8.664  -2.031  10.217  1.1135 -0.3314 -0.6488
   12CHTO    C9 5022   8.812  -2.183  10.415  0.4426  0.4157 -0.6450
   12CHTO   H22 5023   8.871  -2.175  10.509 -2.3896 -1.3151  2.1339
   12CHTO    N2 5024   8.920  -2.239  10.325  0.6228  0.0477  0.1833
   12CHTO   H10 5025   8.880  -2.247  10.223 -1.4536 -2.1279 -1.6906
   12CHTO   H11 5026   9.009  -2.177  10.336  0.6851  3.0753 -1.9071
   12CHTO    C7 5027   8.690  -2.282  10.443 -0.6873 -1.2019 -0.2107
   12CHTO   H20 5028   8.684  -2.285  10.552 -3.0198  0.5620  1.9003
   12CHTO    O4 5029   8.568  -2.232  10.394 -0.3779 -0.5999 -0.2255
   12CHTO   C14 5030   8.535  -2.102  10.461 -0.2016 -0.3972 -0.2454
   12CHTO   H27 5031   8.490  -2.144  10.558 -1.0535  1.5684  0.3601
   12CHTO   C18 5032   8.417  -2.040  10.385  0.4909  0.0572  0.4077
   12CHTO   O13 5033   8.303  -2.131  10.380 -0.1989 -0.2942 -0.2317
   12CHTO    H7 5034   8.231  -2.092  10.331  1.4208  0.5412 -0.8430
   12CHTO    O2 5035   8.713  -2.443  10.386  0.4137  0.3569 -0.2144
   12CHTO    C1 5036   8.661  -2.548  10.467 -0.2700  0.7741 -0.8139
   12CHTO   H14 5037   8.609  -2.504  10.554 -0.7017 -2.8144 -0.4070
   12CHTO    C2 5038   8.771  -2.647  10.518 -0.2962 -0.0213  0.2235
   12CHTO   H15 5039   8.833  -2.677  10.434  1.5058 -0.9727  0.3089
   12CHTO    O6 5040   8.855  -2.575  10.612  0.4255 -0.2474 -0.5004
   12CHTO    H1 5041   8.900  -2.505  10.564 -1.3355 -0.3129  0.2142
   12CHTO    C3 5042   8.703  -2.778  10.584  0.5388  0.1150 -0.4547
   12CHTO   H16 5043   8.645  -2.748  10.673  1.0277  0.3229 -0.0177
   12CHTO    N1 5044   8.797  -2.885  10.639  0.4133  0.6664  0.4786
   12CHTO    H8 5045   8.781  -2.974  10.578 -1.2764  0.4982 -1.3957
   12CHTO    H9 5046   8.757  -2.916  10.734  1.2675  0.9155 -1.7967
   12CHTO    C4 5047   8.592  -2.843  10.490  0.1399  0.0098 -0.0759
   12CHTO   H17 5048   8.652  -2.872  10.399  3.5802  1.3479 -1.1454
   12CHTO    O1 5049   8.496  -2.747  10.455 -0.1913 -0.1259  0.1313
   12CHTO    C5 5050   8.554  -2.629  10.387  0.9120  0.1510 -0.0829
   12CHTO   H18 5051   8.611  -2.664  10.296  1.6426  3.2841 -2.4309
   12CHTO   C16 5052   8.437  -2.544  10.336 -0.0491 -0.4220  0.0793
   12CHTO   O11 5053   8.369  -2.601  10.215 -0.5176  0.3881 -0.3915
   12CHTO    H5 5054   8.422  -2.583  10.137 -1.5870 -1.3022 -0.2370
   12CHTO    O3 5055   8.514  -2.943  10.556  0.2306  0.1902 -0.3321
   12CHTO    C6 5056   8.471  -3.054  10.472 -0.3244  0.1509 -0.4427
   12CHTO   H19 5057   8.492  -3.043  10.366  1.4178 -0.1605 -0.4303
   12CHTO    C8 5058   8.559  -3.182  10.510 -0.3725  0.3936 -0.2235
   12CHTO   H21 5059   8.568  -3.181  10.620 -0.5340  1.7161 -0.1626
   12CHTO    O7 5060   8.691  -3.153  10.457  0.0102  0.4910  0.2693
   12CHTO    H2 5061   8.741  -3.227  10.474 -2.6068 -0.9686 -1.8673
   12CHTO   C12 5062   8.514  -3.313  10.443 -0.1458  0.1740  0.5478
   12CHTO   H25 5063   8.539  -3.309  10.337  0.8873  2.5373  1.2558
   12CHTO    N3 5064   8.583  -3.438  10.494 -0.1401  0.5532  0.3553
   12CHTO   H12 5065   8.580  -3.513  10.412 -1.8287 -0.7357  0.1150
   12CHTO   H13 5066   8.533  -3.473  10.577  1.1762  1.8207  0.4193
   12CHTO   C15 5067   8.358  -3.330  10.457 -0.5232 -0.5543 -0.3664
   12CHTO   H28 5068   8.326  -3.346  10.559  1.0014 -1.7335  0.2679
   12CHTO   O10 5069   8.294  -3.445  10.376 -0.7830  0.5767  0.5507
   12CHTO    H4 5070   8.209  -3.473  10.405 -0.5750 -0.8155  1.5240
   12CHTO    O5 5071   8.297  -3.210  10.410  0.5125  0.4374 -0.2184
   12CHTO   C10 5072   8.331  -3.095  10.488 -0.3830 -0.7458  0.0817
   12CHTO   H23 5073   8.307  -3.109  10.591  1.0016 -0.4678 -1.7941
   12CHTO   C17 5074   8.248  -2.977  10.443  0.0354 -0.4643 -0.4671
   12CHTO   O12 5075   8.105  -2.990  10.451 -0.3252  0.3401  0.5565
   12CHTO    H6 5076   8.072  -2.913  10.481 -0.9138 -0.7304  0.1659
   13CHTO  H203 5077   4.495   2.722   3.088  0.8494 -0.9347  1.0169
   13CHTO   O82 5078   4.435   2.783   3.128  0.0215  0.2920 -0.6632
   13CHTO  C123 5079   4.520   2.898   3.139  0.0291 -0.1856  0.5417
   13CHTO  H227 5080   4.551   2.921   3.036 -1.3725 -2.1074  0.4058
   13CHTO   O77 5081   4.426   2.993   3.197 -0.1008 -0.2272 -0.0306
   13CHTO  C118 5082   4.477   3.120   3.191 -0.6213  0.3303 -0.4490
   13CHTO  H222 5083   4.518   3.143   3.095 -3.4510  0.4652  3.1390
   13CHTO  C125 5084   4.365   3.223   3.221 -0.4600 -0.3533 -0.6926
   13CHTO   O84 5085   4.263   3.220   3.126  0.8768  0.4138 -0.3384
   13CHTO  H205 5086   4.192   3.275   3.159  0.3969  2.3767  1.3102
   13CHTO  C114 5087   4.589   3.132   3.291 -0.4997 -0.5933 -0.1081
   13CHTO  H218 5088   4.550   3.111   3.394  0.5903  0.0991  1.1666
   13CHTO  C116 5089   4.704   3.027   3.264 -0.3927  0.4198 -0.4743
   13CHTO  H220 5090   4.768   3.074   3.171 -1.7048  5.6377  0.9600
   13CHTO   O79 5091   4.786   3.024   3.378 -0.5212 -0.4842  0.1357
   13CHTO  H201 5092   4.737   3.002   3.453 -1.2887  2.3244  0.3803
   13CHTO  C120 5093   4.639   2.882   3.238 -0.0576  0.6639  0.0395
   13CHTO  H224 5094   4.599   2.837   3.342 -0.0741 -0.7657 -1.8514
   13CHTO   N21 5095   4.742   2.787   3.191  0.0922 -0.4988  0.7775
   13CHTO  H211 5096   4.712   2.683   3.224 -2.7975  0.2493  3.5790
   13CHTO  H212 5097   4.738   2.793   3.082  2.0732 -1.0283 -1.3859
   13CHTO   O75 5098   4.632   3.269   3.294 -0.2216 -0.0949 -0.7124
   13CHTO  C112 5099   4.664   3.342   3.447  0.3135 -0.2526  0.5929
   13CHTO  H216 5100   4.761   3.303   3.477  0.4601 -0.8899  0.4922
   13CHTO   O73 5101   4.559   3.302   3.535  0.3001  0.0141  0.2346
   13CHTO  C113 5102   4.570   3.368   3.664 -0.2840  0.5659  0.8191
   13CHTO  H217 5103   4.676   3.371   3.692 -0.7308  1.7042  0.1596
   13CHTO  C124 5104   4.463   3.302   3.762  0.4388  0.4925 -0.1206
   13CHTO   O83 5105   4.490   3.316   3.900  0.2063  0.1523  0.3091
   13CHTO  H204 5106   4.414   3.292   3.953 -2.2236  0.5880  0.8011
   13CHTO  C109 5107   4.542   3.519   3.650 -0.0588 -0.1266 -0.6266
   13CHTO  H213 5108   4.445   3.532   3.606 -1.7433 -1.0140 -0.2864
   13CHTO  C110 5109   4.652   3.577   3.556  0.4986  1.0214 -0.1229
   13CHTO  H214 5110   4.752   3.559   3.605  1.4695  0.4403  0.6112
   13CHTO   O78 5111   4.635   3.721   3.551  0.1162 -0.5590  0.4667
   13CHTO  H200 5112   4.542   3.733   3.551  1.8409 -0.4641  2.0011
   13CHTO  C111 5113   4.661   3.496   3.423  0.1811  0.3974 -0.4154
   13CHTO  H215 5114   4.565   3.521   3.364 -1.3388  0.1940  3.8396
   13CHTO   N19 5115   4.771   3.532   3.338  0.4738 -0.5242 -0.2550
   13CHTO  H207 5116   4.788   3.470   3.248 -0.9590  0.3424 -0.0721
   13CHTO  H208 5117   4.776   3.634   3.311 -0.0571 -1.9711  0.0419
   13CHTO   O74 5118   4.531   3.579   3.787  0.1083  0.4569 -0.4413
   13CHTO  C115 5119   4.402   3.676   3.798  0.4561 -0.0175  0.4390
   13CHTO  H219 5120   4.386   3.731   3.701 -1.2697 -0.0466  1.7935
   13CHTO   O76 5121   4.274   3.605   3.826 -0.0170 -0.4535  0.7278
   13CHTO  C122 5122   4.270   3.560   3.968 -0.1430  0.1210  0.5104
   13CHTO  H226 5123   4.367   3.511   3.988 -0.0025  1.6588 -1.8487
   13CHTO  C126 5124   4.152   3.449   3.988  0.5120 -0.1506  0.1907
   13CHTO   O85 5125   4.187   3.341   3.901 -0.1687 -0.3280  0.4328
   13CHTO  H206 5126   4.268   3.305   3.924 -0.6951 -0.3818  0.0109
   13CHTO  C121 5127   4.241   3.690   4.051 -0.0329 -0.1626  0.7440
   13CHTO  H225 5128   4.135   3.706   4.049  0.4502 -1.9319 -0.9885
   13CHTO   O81 5129   4.267   3.667   4.191 -0.5759  0.1829 -0.1004
   13CHTO  H202 5130   4.195   3.635   4.232 -2.3158 -0.9447  0.8000
   13CHTO  C119 5131   4.301   3.822   3.994 -0.3114  0.3491  0.3484
   13CHTO  H223 5132   4.230   3.851   3.913 -0.3149 -3.0131 -0.1959
   13CHTO  C117 5133   4.430   3.784   3.910  0.2605 -0.3347 -0.2590
   13CHTO  H221 5134   4.517   3.741   3.958  2.0048 -0.2552  0.0873
   13CHTO   N20 5135   4.483   3.914   3.850  0.2280 -0.5055 -0.6256
   13CHTO  H209 5136   4.474   3.941   3.748 -1.1891  0.8817 -0.7950
   13CHTO  H210 5137   4.587   3.920   3.880  1.3348 -2.5650  0.6580
   13CHTO   O80 5138   4.305   3.939   4.090 -0.5413 -0.4020  0.5457
   13CHTO  C103 5139   4.174   3.981   4.160 -0.6006  0.7606 -0.2692
   13CHTO  H190 5140   4.098   3.906   4.132 -3.2964  0.7923  0.8211
   13CHTO  C101 5141   4.179   3.999   4.318  0.1778 -0.3797  0.2239
   13CHTO  H188 5142   4.269   4.056   4.341  2.4867 -0.3803 -1.1943
   13CHTO   O68 5143   4.195   3.844   4.398 -0.0412 -0.3747 -0.1736
   13CHTO  H168 5144   4.140   3.792   4.341  1.4156 -1.2742 -1.0613
   13CHTO   C99 5145   4.054   4.070   4.370  0.6734  0.2222 -0.6133
   13CHTO  H186 5146   3.978   4.005   4.356 -0.9451 -0.2142  1.6668
   13CHTO   N17 5147   4.041   4.105   4.515 -0.3188  0.3418  0.3185
   13CHTO  H174 5148   4.057   4.006   4.558  2.1777 -1.0447  0.0800
   13CHTO  H175 5149   4.126   4.171   4.549 -0.0247  3.0709 -0.7425
   13CHTO   C97 5150   4.020   4.196   4.285  0.0363  0.1257  0.0461
   13CHTO  H184 5151   4.086   4.283   4.306 -1.7326  3.6477 -1.1336
   13CHTO   O64 5152   4.016   4.162   4.147  0.4074  0.2930 -0.4226
   13CHTO  C104 5153   4.137   4.116   4.094  0.0648  0.1195 -0.0403
   13CHTO  H191 5154   4.220   4.181   4.103 -0.0016 -0.8261 -0.5087
   13CHTO  C108 5155   4.109   4.105   3.939  0.1030 -0.5119  0.1914
   13CHTO   O71 5156   3.983   4.049   3.904 -0.2729  0.4507 -0.2724
   13CHTO  H171 5157   3.990   3.953   3.907  1.2895  0.6590  3.1081
   13CHTO   O62 5158   3.889   4.252   4.317 -0.2696  0.3597  0.2773
   13CHTO   C91 5159   3.846   4.366   4.242 -0.4540 -0.2200  0.7184
   13CHTO  H178 5160   3.924   4.380   4.163  1.6612 -0.8521  2.0668
   13CHTO   C92 5161   3.854   4.488   4.341 -0.4801 -0.4479  0.2828
   13CHTO  H179 5162   3.946   4.479   4.402 -1.4071  0.5929  0.5980
   13CHTO   O66 5163   3.874   4.612   4.268  0.2328 -0.2800 -0.1833
   13CHTO  H166 5164   3.915   4.601   4.181  1.6183  1.4536  1.5573
   13CHTO   C93 5165   3.727   4.505   4.432  0.7219  0.1925 -0.0290
   13CHTO  H180 5166   3.729   4.611   4.468 -1.7941  2.5307 -0.8033
   13CHTO   N16 5167   3.736   4.424   4.553  0.3231 -0.2499 -0.3316
   13CHTO  H172 5168   3.754   4.324   4.514  1.1039 -0.1301 -0.6226
   13CHTO  H173 5169   3.637   4.421   4.594  3.7900 -1.7636  1.9312
   13CHTO   C94 5170   3.592   4.482   4.355  0.3138  0.1765 -0.0676
   13CHTO  H181 5171   3.545   4.383   4.374 -1.5837 -1.0331 -0.8522
   13CHTO   O61 5172   3.611   4.463   4.211  0.2902  0.4173 -0.3663
   13CHTO   C95 5173   3.697   4.352   4.181 -0.9762  0.0081  0.1954
   13CHTO  H182 5174   3.652   4.254   4.216 -1.9006 -1.3019 -0.3561
   13CHTO  C106 5175   3.697   4.344   4.022  0.9173  0.0194  0.0242
   13CHTO   O69 5176   3.770   4.223   3.992 -0.2234 -0.5011 -0.0258
   13CHTO  H169 5177   3.766   4.205   3.900  0.9047  0.0628 -0.8710
   13CHTO   O63 5178   3.489   4.593   4.391  0.1746 -0.9689  0.0919
   13CHTO   C96 5179   3.514   4.744   4.306  0.1193  0.4257  0.0569
   13CHTO  H183 5180   3.597   4.723   4.243  0.1942 -1.7257  0.8517
   13CHTO   C98 5181   3.533   4.871   4.379 -0.4307 -0.2855  0.2143
   13CHTO  H185 5182   3.626   4.859   4.451  0.1150 -1.8413  0.7449
   13CHTO   O67 5183   3.568   4.968   4.280  0.0927  0.4787  0.4962
   13CHTO  H167 5184   3.503   4.979   4.212  1.4516  2.3924 -1.5817
   13CHTO  C102 5185   3.403   4.927   4.451 -1.3621 -0.4037  0.0915
   13CHTO  H189 5186   3.423   5.038   4.472  2.3412  0.9345 -0.5074
   13CHTO   N18 5187   3.377   4.861   4.580 -0.4940  0.0923  0.1294
   13CHTO  H176 5188   3.445   4.904   4.654  0.2587 -3.0994  1.2973
   13CHTO  H177 5189   3.277   4.856   4.609 -0.3346 -0.8473  0.2982
   13CHTO  C105 5190   3.289   4.924   4.346 -0.2113 -0.5081 -0.2149
   13CHTO  H192 5191   3.211   4.861   4.382  0.2947  0.7273 -1.9771
   13CHTO   O65 5192   3.319   4.879   4.219 -0.1350  0.3989  0.1921
   13CHTO  C100 5193   3.379   4.748   4.217 -0.4001 -0.6661  0.1871
   13CHTO  H187 5194   3.315   4.673   4.260  0.0132 -2.5491  0.4484
   13CHTO  C107 5195   3.409   4.717   4.069  0.3240  0.1657 -0.5295
   13CHTO   O70 5196   3.289   4.666   4.002 -0.8028 -0.2730 -0.2729
   13CHTO  H170 5197   3.311   4.587   3.960 -1.2586  0.1801 -1.9496
   13CHTO   O57 5198   3.240   5.073   4.336 -0.0092 -0.0688  0.8395
   13CHTO   C85 5199   3.104   5.090   4.295  0.2962  0.0256  0.1185
   13CHTO  H157 5200   3.048   5.027   4.364 -0.0630  0.0865  2.3700
   13CHTO   C83 5201   3.071   5.031   4.157  0.1105  0.0005 -0.2310
   13CHTO  H155 5202   3.079   4.921   4.161  0.0090 -0.7757 -0.9963
   13CHTO   O56 5203   3.164   5.084   4.061  0.0541  0.3902  0.3072
   13CHTO  H135 5204   3.145   5.056   3.973 -0.9522 -0.7261 -0.4412
   13CHTO   C81 5205   2.923   5.055   4.132 -0.2905  0.0366  0.6270
   13CHTO  H153 5206   2.870   5.020   4.214 -1.5141  1.2250  0.6112
   13CHTO   N14 5207   2.872   4.981   4.016  0.3270  0.1246 -0.4131
   13CHTO  H141 5208   2.782   5.024   3.974 -1.8874  0.1266  0.7749
   13CHTO  H142 5209   2.849   4.874   4.045  1.5885 -0.0297 -1.4864
   13CHTO   C79 5210   2.890   5.209   4.122  0.1624 -0.0688  0.4042
   13CHTO  H151 5211   2.783   5.216   4.120 -0.1552 -0.1669  0.6432
   13CHTO   O52 5212   2.919   5.263   4.257 -0.1198 -0.0416  0.4415
   13CHTO   C86 5213   3.057   5.241   4.306  0.5253  0.7995 -0.5296
   13CHTO  H158 5214   3.119   5.309   4.241  1.9858  2.3280  0.6735
   13CHTO   C90 5215   3.077   5.294   4.444 -0.2955 -0.0883 -0.0857
   13CHTO   O60 5216   3.072   5.436   4.452  0.0440  0.2726 -0.4305
   13CHTO  H138 5217   2.985   5.472   4.474 -1.7658  2.3292  0.2570
   13CHTO   O50 5218   2.958   5.288   4.024  0.1230  0.1151 -0.1426
   13CHTO   C73 5219   2.969   5.313   3.879  0.1262  0.1559 -0.0035
   13CHTO  H145 5220   2.954   5.223   3.825 -0.2310 -1.8942  0.5287
   13CHTO   C74 5221   3.114   5.358   3.848 -0.3687  1.1187 -0.7371
   13CHTO  H146 5222   3.186   5.284   3.884 -1.2118 -1.2161  0.7671
   13CHTO   O54 5223   3.126   5.342   3.705 -0.0749 -0.1687 -0.0668
   13CHTO  H133 5224   3.149   5.255   3.675 -0.8253 -1.9861 -1.3116
   13CHTO   C75 5225   3.149   5.502   3.903  0.7188 -0.5159  0.9211
   13CHTO  H147 5226   3.152   5.495   4.008  0.5142 -0.3818  1.3180
   13CHTO   N13 5227   3.282   5.558   3.879  0.1464  0.3893 -0.2227
   13CHTO  H139 5228   3.362   5.502   3.931  1.7225  0.6297  1.3434
   13CHTO  H140 5229   3.286   5.658   3.906  0.8006 -2.3681  0.5637
   13CHTO   C76 5230   3.033   5.607   3.872 -0.1602  0.0359 -0.8399
   13CHTO  H148 5231   3.035   5.631   3.769 -4.4363 -0.3181  1.9113
   13CHTO   O49 5232   2.904   5.552   3.884 -0.1068  0.1158 -0.3971
   13CHTO   C77 5233   2.876   5.426   3.822  0.2827  0.7555  0.4914
   13CHTO  H149 5234   2.891   5.442   3.709 -0.9914 -1.8104 -2.5524
   13CHTO   C88 5235   2.729   5.384   3.857 -0.6280 -0.8538 -0.1554
   13CHTO   O58 5236   2.623   5.491   3.818 -0.2951 -0.1448 -0.0870
   13CHTO  H136 5237   2.616   5.503   3.725 -0.3430 -1.8426 -0.8676
   13CHTO   O51 5238   3.041   5.734   3.979  0.1147  0.1341 -0.0691
   13CHTO   C78 5239   2.998   5.719   4.138  0.4095 -0.3484 -0.5789
   13CHTO  H150 5240   3.003   5.625   4.163 -0.2560 -1.4592  0.9436
   13CHTO   C80 5241   2.857   5.771   4.170 -0.0106 -0.2285  0.0503
   13CHTO  H152 5242   2.858   5.884   4.160 -0.6753 -0.7842 -1.5545
   13CHTO   O55 5243   2.753   5.717   4.085  0.0935 -0.3568 -0.1845
   13CHTO  H134 5244   2.705   5.773   4.025  1.8595 -0.7713 -2.1149
   13CHTO   C84 5245   2.823   5.727   4.319  0.7315 -0.1090  0.0720
   13CHTO  H156 5246   2.835   5.621   4.321  0.1885  1.9713 -1.3475
   13CHTO   N15 5247   2.680   5.746   4.380 -0.0689 -0.1896  0.8956
   13CHTO  H143 5248   2.617   5.769   4.302  2.5462 -0.4300  0.0775
   13CHTO  H144 5249   2.689   5.826   4.449 -1.0436 -1.4782  2.0508
   13CHTO   C87 5250   2.927   5.784   4.417 -1.0851 -0.0663  0.6808
   13CHTO  H159 5251   2.924   5.887   4.445 -2.0862  1.0027 -1.0949
   13CHTO   O53 5252   3.060   5.761   4.364 -0.1546  0.5101  0.0850
   13CHTO   C82 5253   3.090   5.799   4.228  0.0574 -0.3942 -0.7844
   13CHTO  H154 5254   3.074   5.908   4.217  2.1708 -2.4438 -0.8926
   13CHTO   C89 5255   3.238   5.782   4.193  0.1863  0.1672 -0.6541
   13CHTO   O59 5256   3.312   5.874   4.264  0.5328 -0.1238  0.5774
   13CHTO  H137 5257   3.378   5.899   4.207 -3.0882 -1.1609 -0.2395
   13CHTO   O45 5258   2.940   5.704   4.552  0.2413 -0.4885 -0.1176
   13CHTO   C67 5259   2.996   5.787   4.661  0.6043  0.1389 -1.0968
   13CHTO  H124 5260   3.053   5.869   4.629  0.6032 -1.7897  0.0149
   13CHTO   C65 5261   2.876   5.841   4.750  0.4835 -0.0356 -0.5372
   13CHTO  H122 5262   2.788   5.831   4.691  1.4669  0.2050  1.5966
   13CHTO   O44 5263   2.893   5.982   4.774  0.1552  0.2617 -0.1774
   13CHTO  H102 5264   2.948   5.995   4.853 -2.2543  2.1134  2.2387
   13CHTO   C63 5265   2.838   5.757   4.879 -0.0698 -0.5155 -0.1379
   13CHTO  H120 5266   2.824   5.658   4.850 -0.2561 -1.1401 -0.7487
   13CHTO   N11 5267   2.712   5.789   4.958  0.4826  0.1893 -0.2704
   13CHTO  H108 5268   2.730   5.794   5.058 -0.4928  0.5548 -2.0719
   13CHTO  H109 5269   2.672   5.881   4.922  2.7573  0.5414 -3.7013
   13CHTO   C61 5270   2.965   5.757   4.972  0.1276  0.4648  0.2361
   13CHTO  H118 5271   2.968   5.676   5.041  0.0447  0.9176 -2.2825
   13CHTO   O40 5272   3.093   5.747   4.892 -0.5672 -0.3411  0.5354
   13CHTO   C68 5273   3.085   5.705   4.753 -0.3018 -0.4845 -0.3750
   13CHTO  H125 5274   3.051   5.597   4.764  2.0245 -0.0538  1.7333
   13CHTO   C72 5275   3.229   5.698   4.699 -0.6302  0.5640 -0.1374
   13CHTO   O48 5276   3.293   5.817   4.661  0.0366  0.0429  0.1959
   13CHTO  H105 5277   3.382   5.798   4.623  1.5950 -3.0085  0.4033
   13CHTO   O38 5278   2.982   5.882   5.044  0.4958  0.2519  0.7847
   13CHTO   C55 5279   3.056   5.861   5.167 -0.6044  0.5133  0.7348
   13CHTO  H112 5280   3.125   5.777   5.157 -0.0805 -2.2823  0.6349
   13CHTO   C56 5281   2.959   5.844   5.293  0.0825 -0.0593 -0.1353
   13CHTO  H113 5282   2.896   5.929   5.286  1.3551 -1.8692  0.7141
   13CHTO   O42 5283   2.877   5.731   5.273 -0.2018  0.1557 -0.1651
   13CHTO  H100 5284   2.796   5.735   5.312 -0.6101 -1.3257 -1.3273
   13CHTO   C57 5285   3.042   5.839   5.440  0.3928 -0.5080 -0.5371
   13CHTO  H114 5286   3.097   5.742   5.452 -0.4546 -0.6753  2.2732
   13CHTO   N10 5287   2.946   5.850   5.554  0.7714 -0.2567  0.2100
   13CHTO  H106 5288   2.912   5.951   5.583 -0.8979  2.0466  0.4520
   13CHTO  H107 5289   2.991   5.796   5.638  1.6853 -2.0968  0.6378
   13CHTO   C58 5290   3.146   5.953   5.440  0.6207  0.4720 -0.3283
   13CHTO  H115 5291   3.099   6.042   5.455 -0.3840 -0.2274 -0.1436
   13CHTO   O37 5292   3.214   5.952   5.315  0.1313 -0.0060 -0.4803
   13CHTO   C59 5293   3.145   5.983   5.201 -0.3178  0.7045 -0.3955
   13CHTO  H116 5294   3.080   6.075   5.207 -2.4000 -0.4960 -3.1406
   13CHTO   C70 5295   3.252   6.008   5.089  0.9908  0.5821  0.0375
   13CHTO   O46 5296   3.344   6.113   5.129 -0.2484  0.0475  0.3942
   13CHTO  H103 5297   3.289   6.186   5.145  2.2677 -2.1794 -0.4271
   13CHTO   O39 5298   3.245   5.930   5.559  0.2740  1.1846  0.2021
   13CHTO   C60 5299   3.263   6.043   5.648 -0.5597  0.2117  0.4815
   13CHTO  H117 5300   3.255   6.143   5.596 -0.9633  0.7170  2.0274
   13CHTO   C62 5301   3.162   6.035   5.766  0.1486 -0.1423 -0.2684
   13CHTO  H119 5302   3.066   6.056   5.720  0.1569 -4.2865  0.0736
   13CHTO   O43 5303   3.165   5.902   5.818 -0.1530  0.1241 -0.6927
   13CHTO  H101 5304   3.159   5.844   5.750 -1.7787  2.1101  0.0062
   13CHTO   C66 5305   3.189   6.150   5.881  0.2163 -0.1625  0.4955
   13CHTO  H123 5306   3.185   6.251   5.832  0.8121  0.0828 -0.7692
   13CHTO   N12 5307   3.087   6.152   5.986 -0.4447  0.2731  0.2373
   13CHTO  H110 5308   3.143   6.186   6.074  0.5220 -0.2587  0.5662
   13CHTO  H111 5309   3.007   6.224   5.969  1.2865  2.2345 -0.4364
   13CHTO   C69 5310   3.339   6.131   5.932  0.0056  0.1793  0.1863
   13CHTO  H126 5311   3.354   6.030   5.973 -1.5992  0.7092  0.4779
   13CHTO   O41 5312   3.430   6.139   5.817 -0.4373  0.2444  0.3296
   13CHTO   C64 5313   3.405   6.039   5.702 -0.5646  0.1957 -0.2224
   13CHTO  H121 5314   3.421   5.942   5.741 -0.2105 -0.0713 -0.0405
   13CHTO   C71 5315   3.517   6.056   5.592  0.0133 -0.7790 -0.3013
   13CHTO   O47 5316   3.508   6.191   5.544  0.2303 -0.0872 -0.4827
   13CHTO  H104 5317   3.585   6.239   5.545 -0.0100  0.9175  2.0426
   13CHTO   O34 5318   3.386   6.245   6.047  0.1267  0.1355 -0.1937
   13CHTO   C49 5319   3.477   6.197   6.150  0.5977  0.6686 -0.1387
   13CHTO   H91 5320   3.545   6.127   6.106 -2.2331  1.4662 -0.0224
   13CHTO   C47 5321   3.390   6.130   6.265  0.3345 -0.5483  0.3200
   13CHTO   H89 5322   3.459   6.092   6.326 -1.0811  2.7693 -0.1890
   13CHTO   O33 5323   3.304   6.024   6.219  0.6046  0.2275  0.0664
   13CHTO   H70 5324   3.345   5.975   6.150  1.8005  0.5693  1.1422
   13CHTO   C45 5325   3.314   6.239   6.360 -0.2160 -0.0362 -0.6057
   13CHTO   H87 5326   3.211   6.245   6.333 -0.2328 -0.6832  0.1430
   13CHTO    N8 5327   3.318   6.197   6.504  0.0656  0.3393  0.7137
   13CHTO   H75 5328   3.421   6.163   6.545  0.1565 -0.0254 -1.1747
   13CHTO   H76 5329   3.236   6.135   6.525  0.1025  1.7566  1.0527
   13CHTO   C43 5330   3.372   6.386   6.334  0.3675  0.1288  0.1571
   13CHTO   H85 5331   3.326   6.423   6.240 -1.5994 -0.9930 -2.6662
   13CHTO   O29 5332   3.515   6.370   6.326  0.3369 -0.9132  0.2204
   13CHTO   C50 5333   3.566   6.304   6.212  0.4738 -0.5488 -0.5073
   13CHTO   H92 5334   3.602   6.375   6.138  2.0280 -0.0769  1.4081
   13CHTO   C54 5335   3.699   6.243   6.257 -0.2841  0.1616 -0.0704
   13CHTO   O36 5336   3.806   6.325   6.289 -0.1946  0.7674 -0.0620
   13CHTO   H72 5337   3.845   6.370   6.216  1.9319 -1.4779  0.9691
   13CHTO   O27 5338   3.339   6.477   6.442  0.3256 -0.4165  0.1016
   13CHTO   C37 5339   3.406   6.587   6.517  0.2345 -0.5824  0.3752
   13CHTO   H79 5340   3.345   6.645   6.583 -0.0572 -0.7816  0.0836
   13CHTO   C38 5341   3.504   6.535   6.618 -0.1733 -0.4341 -0.4701
   13CHTO   H80 5342   3.568   6.463   6.569 -3.1515  1.0538 -0.9607
   13CHTO   O31 5343   3.438   6.459   6.718  0.7673 -0.1188 -0.2501
   13CHTO   H68 5344   3.421   6.498   6.800  1.2794 -1.2767 -0.6667
   13CHTO   C39 5345   3.592   6.648   6.681 -0.4363  0.3477 -0.3337
   13CHTO   H81 5346   3.518   6.712   6.727  0.0287 -1.4083  1.3501
   13CHTO    N7 5347   3.698   6.601   6.783 -0.1488  0.2303 -0.6135
   13CHTO   H73 5348   3.652   6.579   6.877  2.0190  0.3038 -1.2640
   13CHTO   H74 5349   3.750   6.514   6.752  1.1746  3.4734  0.8291
   13CHTO   C40 5350   3.654   6.742   6.571 -1.0175 -0.3601  0.2213
   13CHTO   H82 5351   3.745   6.692   6.529 -0.6385 -0.3406 -2.0383
   13CHTO   O26 5352   3.566   6.779   6.468  0.1525  0.7060  0.7753
   13CHTO   C41 5353   3.474   6.682   6.417  0.2508  0.1275 -0.0836
   13CHTO   H83 5354   3.531   6.618   6.352  0.3651  1.6713  1.1819
   13CHTO   C52 5355   3.374   6.762   6.322 -0.3451 -0.3400  0.2296
   13CHTO   O35 5356   3.450   6.833   6.216 -0.5115  0.2761  0.1515
   13CHTO   H71 5357   3.520   6.878   6.256  0.0651  3.0562 -1.3537
   13CHTO   O28 5358   3.681   6.862   6.637  0.0317 -0.7114  0.1319
   13CHTO   C42 5359   3.799   6.944   6.601 -0.1791  0.4605 -0.2283
   13CHTO   H84 5360   3.775   7.047   6.640 -1.6782  0.8056  0.6971
   13CHTO   C44 5361   3.831   6.962   6.449 -0.8131  0.3580 -0.3354
   13CHTO   H86 5362   3.813   6.868   6.395  1.5377  0.4616  0.0337
   13CHTO   O32 5363   3.723   7.036   6.395  0.5737 -0.5364 -0.1771
   13CHTO   H69 5364   3.736   7.044   6.307 -0.6248  0.6136  2.0831
   13CHTO   C48 5365   3.982   7.012   6.415  0.2776 -0.2709 -0.1410
   13CHTO   H90 5366   3.973   7.114   6.421  1.9595 -1.1781  0.4728
   13CHTO    N9 5367   4.007   6.978   6.269 -0.1103 -0.0689  0.2212
   13CHTO   H77 5368   4.091   7.034   6.230  1.0422  0.3405 -0.4931
   13CHTO   H78 5369   4.026   6.874   6.267 -0.4279 -0.4523 -0.5862
   13CHTO   C51 5370   4.095   6.954   6.508  0.5659  0.4040 -0.1721
   13CHTO   H93 5371   4.105   6.846   6.496 -0.0591 -2.0601 -2.0174
   13CHTO   O30 5372   4.047   6.988   6.644 -0.1504 -0.3257  1.0929
   13CHTO   C46 5373   3.928   6.898   6.670 -0.8524 -0.5504  0.2723
   13CHTO   H88 5374   3.943   6.792   6.648  0.7342 -0.6512 -0.0829
   13CHTO   C53 5375   3.913   6.907   6.821 -0.1525 -0.7008  0.2663
   13CHTO   O72 5376   4.007   6.818   6.885  0.2253  0.6191 -0.0698
   13CHTO  H199 5377   3.978   6.729   6.871  0.1891  0.7438  3.1713
   13CHTO   O22 5378   4.226   7.017   6.486  0.2047 -0.1522 -0.7263
   13CHTO   C31 5379   4.359   6.955   6.513 -0.5550 -0.3265 -0.5125
   13CHTO   H59 5380   4.440   7.032   6.498  0.1202 -0.1387  1.3772
   13CHTO   C29 5381   4.369   6.911   6.665 -0.7816  0.4833  0.4121
   13CHTO   H57 5382   4.298   6.824   6.662 -2.6027 -0.9909  1.9025
   13CHTO   O21 5383   4.313   7.010   6.750 -0.4112 -0.8617 -0.0950
   13CHTO   H37 5384   4.237   7.049   6.706 -0.6711  1.8304 -1.5156
   13CHTO   C27 5385   4.510   6.861   6.704  0.3918 -0.4963 -0.3186
   13CHTO   H55 5386   4.578   6.953   6.716 -1.7444  0.2482 -0.5426
   13CHTO    N5 5387   4.510   6.793   6.835  0.6340 -0.7153 -0.1467
   13CHTO   H43 5388   4.509   6.679   6.832 -0.5387 -0.1209 -2.4040
   13CHTO   H44 5389   4.562   6.841   6.913 -1.9508  1.0959  0.1404
   13CHTO   C25 5390   4.562   6.760   6.593  0.4089 -0.1865  0.9166
   13CHTO   H53 5391   4.507   6.665   6.607  0.8132  1.5670  1.5442
   13CHTO   O17 5392   4.535   6.803   6.448 -0.3760 -0.0577  0.6888
   13CHTO   C32 5393   4.402   6.838   6.424 -0.1916  0.1794 -0.2870
   13CHTO   H60 5394   4.334   6.759   6.445 -2.9580  3.3445 -0.2771
   13CHTO   C36 5395   4.383   6.873   6.275 -0.0192  0.2251  0.3608
   13CHTO   O25 5396   4.410   6.755   6.197  0.6299  0.2534  0.1304
   13CHTO   H40 5397   4.500   6.748   6.172 -1.3316  1.8738 -1.7566
   13CHTO   O15 5398   4.732   6.760   6.603  0.4159 -0.1923 -0.2646
   13CHTO   C19 5399   4.820   6.797   6.501  0.3735  0.0887  0.7913
   13CHTO   H47 5400   4.922   6.769   6.540 -0.3243 -1.3217  0.9085
   13CHTO   C20 5401   4.804   6.700   6.370 -0.1761 -0.1624  0.2044
   13CHTO   H48 5402   4.700   6.697   6.333  0.4904  2.2090 -3.6677
   13CHTO   O19 5403   4.826   6.560   6.411  0.2317 -0.2037  0.0376
   13CHTO   H35 5404   4.798   6.499   6.348 -0.6892 -0.4207 -0.4667
   13CHTO   C21 5405   4.898   6.746   6.251  0.2030 -1.4009 -0.5321
   13CHTO   H49 5406   5.005   6.729   6.282  1.8620  0.5797 -0.9537
   13CHTO    N4 5407   4.882   6.673   6.128  0.4045  0.8145  0.6082
   13CHTO   H41 5408   4.887   6.567   6.143  2.1237  2.7516 -2.1859
   13CHTO   H42 5409   4.783   6.700   6.090 -1.2320 -0.5682  0.4963
   13CHTO   C22 5410   4.882   6.902   6.227 -0.1474  0.7181  0.6324
   13CHTO   H50 5411   4.783   6.920   6.185  0.4534 -3.4629  0.2139
   13CHTO   O14 5412   4.912   6.965   6.349 -0.0087 -0.4995  0.3343
   13CHTO   C23 5413   4.828   6.948   6.464  0.8695  0.2657  0.6134
   13CHTO   H51 5414   4.729   6.988   6.432 -2.3147 -0.0152 -3.2740
   13CHTO   C34 5415   4.890   7.011   6.586  0.0518  0.2531  0.2292
   13CHTO   O23 5416   4.805   7.026   6.701 -0.1341  0.1349  0.4722
   13CHTO   H38 5417   4.846   6.991   6.775  3.0749 -0.3411 -0.7552
   13CHTO   O16 5418   4.985   6.957   6.143  0.0908 -0.2745  0.2901
   13CHTO   C24 5419   4.959   7.111   6.106  0.8030 -0.1168 -0.6392
   13CHTO   H52 5420   4.879   7.157   6.168 -0.4286 -0.8773 -0.9396
   13CHTO   C26 5421   4.901   7.115   5.964 -0.5127  0.3209  0.1457
   13CHTO   H54 5422   4.964   7.050   5.897 -0.8409 -3.7075  0.4574
   13CHTO   O20 5423   4.767   7.058   5.958 -0.2944 -0.3468  0.1507
   13CHTO   H36 5424   4.762   6.965   5.959  2.3975 -2.0964  0.7774
   13CHTO   C30 5425   4.901   7.257   5.893  0.3628 -0.1087 -0.2376
   13CHTO   H58 5426   4.827   7.327   5.932 -0.6821 -1.2768  0.1847
   13CHTO    N6 5427   4.877   7.249   5.744  0.1888 -0.0697 -0.2985
   13CHTO   H45 5428   4.970   7.241   5.694 -2.1260  1.8643 -0.6474
   13CHTO   H46 5429   4.819   7.327   5.698 -2.5389  1.2629 -1.7818
   13CHTO   C33 5430   5.040   7.328   5.920 -0.3880 -0.7733 -0.4114
   13CHTO   H61 5431   5.127   7.280   5.876 -3.4649 -1.2144 -4.1626
   13CHTO   O18 5432   5.061   7.332   6.062 -0.0490  0.2020  0.2487
   13CHTO   C28 5433   5.086   7.199   6.115  0.1275 -0.1002 -0.3327
   13CHTO   H56 5434   5.162   7.162   6.054 -2.8982 -1.5069 -2.7384
   13CHTO   C35 5435   5.134   7.202   6.262  0.0692 -0.0858 -0.5787
   13CHTO   O24 5436   5.260   7.274   6.281  0.3984  0.1920 -0.3450
   13CHTO   H39 5437   5.244   7.346   6.341 -2.3216 -1.7872 -2.6593
   13CHTO    O9 5438   5.039   7.458   5.864  0.0827  0.4356  0.0504
   13CHTO   C13 5439   5.180   7.502   5.783  0.0065 -0.2683  0.3447
   13CHTO   H26 5440   5.203   7.435   5.695 -2.6537  2.2208 -1.1248
   13CHTO   C11 5441   5.303   7.524   5.875  0.2801  1.0619 -0.5481
   13CHTO   H24 5442   5.389   7.500   5.816 -2.3553 -1.2767  1.3544
   13CHTO    O8 5443   5.296   7.423   5.980  0.0674  0.1361  0.3300
   13CHTO    H3 5444   5.265   7.453   6.063  1.9960 -2.9954  2.8047
   13CHTO    C9 5445   5.315   7.671   5.916 -0.0684  0.0873  0.2013
   13CHTO   H22 5446   5.371   7.726   5.838  3.0098  0.6292 -2.8552
   13CHTO    N2 5447   5.392   7.695   6.043  0.0285  0.3703 -0.3894
   13CHTO   H10 5448   5.469   7.623   6.031  1.3662 -2.0275  0.3353
   13CHTO   H11 5449   5.420   7.799   6.060 -0.2702  0.1042  0.8993
   13CHTO    C7 5450   5.170   7.741   5.925  0.0966  0.7175  0.2482
   13CHTO   H20 5451   5.203   7.839   5.940 -0.5401 -0.7182 -2.7617
   13CHTO    O4 5452   5.091   7.733   5.800 -0.4334 -0.1061  0.2300
   13CHTO   C14 5453   5.130   7.637   5.704 -0.1001 -0.5957  0.1988
   13CHTO   H27 5454   5.203   7.678   5.650  2.2976  1.5213  2.1160
   13CHTO   C18 5455   5.017   7.591   5.601 -0.1457 -0.2277  0.6702
   13CHTO   O13 5456   4.976   7.707   5.526  0.3230  0.1999  0.3245
   13CHTO    H7 5457   4.894   7.705   5.484  0.3200  0.0008  1.8746
   13CHTO    O2 5458   5.076   7.670   6.047  0.0585 -0.4093 -0.0677
   13CHTO    C1 5459   4.993   7.763   6.118  1.1700  0.7340  0.0481
   13CHTO   H14 5460   4.938   7.827   6.039 -0.9335  2.7345 -1.6821
   13CHTO    C2 5461   5.059   7.853   6.230  0.4035 -0.4346 -1.0066
   13CHTO   H15 5462   5.130   7.781   6.277 -0.4086  0.0366 -1.1287
   13CHTO    O6 5463   5.140   7.951   6.158  0.2925  0.2205 -0.0122
   13CHTO    H1 5464   5.215   7.909   6.121 -1.9808 -1.5574  1.1966
   13CHTO    C3 5465   4.949   7.922   6.331 -0.8658 -0.2915 -0.7766
   13CHTO   H16 5466   4.893   7.999   6.280  0.9125 -1.1581 -2.0380
   13CHTO    N1 5467   5.009   7.998   6.451  0.0668  0.2343 -0.0084
   13CHTO    H8 5468   5.110   7.975   6.471 -2.1156  0.4243 -1.2796
   13CHTO    H9 5469   5.001   8.104   6.434 -0.6905 -1.6027 -3.3602
   13CHTO    C4 5470   4.850   7.818   6.382  0.1247 -0.0888  0.3547
   13CHTO   H17 5471   4.895   7.748   6.452 -0.7664  0.8619 -0.5169
   13CHTO    O1 5472   4.794   7.752   6.262  0.0569 -0.4762 -0.3401
   13CHTO    C5 5473   4.879   7.674   6.184  0.9091  0.1681  0.6621
   13CHTO   H18 5474   4.926   7.603   6.253  0.0077 -3.5695  1.3356
   13CHTO   C16 5475   4.785   7.598   6.086 -0.4479  0.3381  0.2380
   13CHTO   O11 5476   4.712   7.486   6.140  0.3594  0.1936 -0.5512
   13CHTO    H5 5477   4.769   7.414   6.130  0.9134 -0.7080 -1.2480
   13CHTO    O3 5478   4.738   7.886   6.440  0.3936 -0.6306 -0.3026
   13CHTO    C6 5479   4.647   7.795   6.509  0.0855  0.2241  0.0273
   13CHTO   H19 5480   4.662   7.699   6.475 -1.1868  3.1515 -2.1388
   13CHTO    C8 5481   4.663   7.821   6.668  0.0168  0.9038  0.5127
   13CHTO   H21 5482   4.658   7.929   6.684 -1.2712  2.1860 -0.0515
   13CHTO    O7 5483   4.795   7.774   6.695 -0.2252 -0.0768 -0.6905
   13CHTO    H2 5484   4.829   7.827   6.767  3.2364 -0.5813  1.5735
   13CHTO   C12 5485   4.554   7.750   6.748 -0.0660 -0.2529 -0.4308
   13CHTO   H25 5486   4.576   7.640   6.734 -2.0621  0.4033 -0.8187
   13CHTO    N3 5487   4.568   7.775   6.900 -0.6937  0.3072 -0.4409
   13CHTO   H12 5488   4.596   7.695   6.962  2.6211  1.6990  1.3905
   13CHTO   H13 5489   4.469   7.818   6.936  1.8841  0.3045 -1.0390
   13CHTO   C15 5490   4.414   7.786   6.687 -0.1822 -0.7346  0.2870
   13CHTO   H28 5491   4.369   7.884   6.699  1.9270  1.8305 -2.6376
   13CHTO   O10 5492   4.311   7.689   6.733  0.9947  0.4699 -0.4179
   13CHTO    H4 5493   4.333   7.602   6.711  1.8548 -0.4593 -0.7258
   13CHTO    O5 5494   4.408   7.757   6.545  0.3695  0.2980 -0.0283
   13CHTO   C10 5495   4.502   7.834   6.466 -0.7339 -0.0934 -0.6407
   13CHTO   H23 5496   4.472   7.942   6.493 -0.9362  1.5237  0.5589
   13CHTO   C17 5497   4.454   7.805   6.325  0.1681  0.2118  0.1146
   13CHTO   O12 5498   4.514   7.882   6.219 -0.7331 -0.4931 -0.3126
   13CHTO    H6 5499   4.479   7.965   6.228 -1.4205 -1.5466  0.7338
   14CHTO  H203 5500   3.175   4.511   4.891  1.0387 -0.7845  0.8231
   14CHTO   O82 5501   3.203   4.573   4.823 -0.1866  0.0439 -0.0862
   14CHTO  C123 5502   3.196   4.702   4.877  0.4670 -0.4291  0.3901
   14CHTO  H227 5503   3.304   4.737   4.884  2.8865  3.4208 -0.0694
   14CHTO   O77 5504   3.128   4.767   4.766  0.0075 -0.2947 -0.3862
   14CHTO  C118 5505   3.109   4.910   4.780 -0.3771 -0.6714  0.2054
   14CHTO  H222 5506   3.202   4.956   4.802 -0.6445  0.0595 -0.5957
   14CHTO  C125 5507   3.044   4.970   4.642 -0.0166  0.5836 -0.6859
   14CHTO   O84 5508   2.928   4.897   4.606 -0.0457  0.2987  0.1492
   14CHTO  H205 5509   2.871   4.963   4.568 -0.8782 -0.2267 -0.0762
   14CHTO  C114 5510   3.024   4.945   4.906  0.1797  0.1320  0.1066
   14CHTO  H218 5511   2.931   4.893   4.905  1.3733 -0.8939  2.0909
   14CHTO  C116 5512   3.098   4.888   5.022 -0.4512  0.1210 -0.3904
   14CHTO  H220 5513   3.194   4.935   5.038 -0.9332  0.5216  0.4509
   14CHTO   O79 5514   3.030   4.923   5.144  0.3586 -0.1239  0.1944
   14CHTO  H201 5515   3.070   4.881   5.216 -1.5090 -0.2850  0.3316
   14CHTO  C120 5516   3.111   4.723   5.009  0.2585  0.0704 -0.2457
   14CHTO  H224 5517   3.019   4.680   5.001 -1.1323 -1.4892  1.9643
   14CHTO   N21 5518   3.175   4.659   5.128 -0.3616  0.4507  0.2542
   14CHTO  H211 5519   3.283   4.663   5.128 -1.8617  1.6284  3.8233
   14CHTO  H212 5520   3.145   4.703   5.223 -0.0840 -1.6204 -3.9222
   14CHTO   O75 5521   2.991   5.086   4.900  0.0392 -0.1564 -0.0031
   14CHTO  C112 5522   2.918   5.165   5.023 -0.2517 -0.7858  0.9240
   14CHTO  H216 5523   2.979   5.156   5.110  0.1211 -1.2405 -0.2528
   14CHTO   O73 5524   2.784   5.107   5.043 -0.3932  0.2594 -0.3026
   14CHTO  C113 5525   2.674   5.148   4.956 -0.7133 -0.7355 -0.5944
   14CHTO  H217 5526   2.607   5.222   5.012 -1.5766 -0.3980  1.7755
   14CHTO  C124 5527   2.590   5.021   4.943  0.7149 -0.1375  0.3363
   14CHTO   O83 5528   2.649   4.910   4.869  0.3207 -0.3126 -0.1684
   14CHTO  H204 5529   2.601   4.838   4.901  0.0238  0.1811  0.7435
   14CHTO  C109 5530   2.730   5.194   4.820  0.2207 -0.7568  0.2555
   14CHTO  H213 5531   2.790   5.112   4.778 -1.3389  0.1583  0.7645
   14CHTO  C110 5532   2.826   5.320   4.845 -0.2306  0.4953  0.0117
   14CHTO  H214 5533   2.777   5.412   4.851  0.3466  1.3492 -0.7531
   14CHTO   O78 5534   2.914   5.346   4.730 -0.2962 -0.5601  0.2199
   14CHTO  H200 5535   2.911   5.280   4.666  2.2425 -0.4220 -0.4025
   14CHTO  C111 5536   2.918   5.312   4.975 -0.2156  0.9442 -0.1244
   14CHTO  H215 5537   3.019   5.337   4.950 -0.1753 -2.6590  0.4598
   14CHTO   N19 5538   2.871   5.408   5.075  0.4715 -0.9559  0.0728
   14CHTO  H207 5539   2.940   5.400   5.156 -1.6000 -3.8955 -0.7633
   14CHTO  H208 5540   2.887   5.508   5.034  0.1186 -1.0634 -0.3969
   14CHTO   O74 5541   2.624   5.228   4.726  0.0732  0.1221 -0.3131
   14CHTO  C115 5542   2.653   5.172   4.574 -0.2672  0.4095  0.0241
   14CHTO  H219 5543   2.752   5.188   4.544 -2.4807 -0.0322 -0.6707
   14CHTO   O76 5544   2.646   5.003   4.568 -0.8130 -0.4627  0.3643
   14CHTO  C122 5545   2.531   4.945   4.529 -0.2816 -0.1801  0.4864
   14CHTO  H226 5546   2.478   4.916   4.620  0.6613  1.0140  0.9300
   14CHTO  C126 5547   2.575   4.807   4.462 -0.3743 -0.2700 -0.2937
   14CHTO   O85 5548   2.655   4.730   4.556  0.4091  0.1396  0.3108
   14CHTO  H206 5549   2.641   4.636   4.548 -1.2483 -0.8998  2.0572
   14CHTO  C121 5550   2.435   5.024   4.436  0.4238 -1.2848 -0.7303
   14CHTO  H225 5551   2.398   4.957   4.353  0.9496 -0.9157  0.6522
   14CHTO   O81 5552   2.319   5.052   4.523 -0.2822  0.0275 -0.6061
   14CHTO  H202 5553   2.252   5.107   4.489 -3.0662  0.0654  0.3924
   14CHTO  C119 5554   2.497   5.145   4.362  0.1150  0.2260  0.1354
   14CHTO  H223 5555   2.592   5.121   4.306  1.6053  2.3948  1.4236
   14CHTO  C117 5556   2.558   5.236   4.469 -0.2757  0.7557  0.4260
   14CHTO  H221 5557   2.476   5.275   4.534 -0.0369 -2.9770  0.0134
   14CHTO   N20 5558   2.629   5.352   4.409  0.0594 -0.1958 -0.1076
   14CHTO  H209 5559   2.653   5.328   4.312  1.1516 -1.7278 -0.8193
   14CHTO  H210 5560   2.569   5.440   4.406  1.0045 -1.1100  0.3411
   14CHTO   O80 5561   2.410   5.208   4.246  0.6361 -0.1295  0.2405
   14CHTO  C103 5562   2.453   5.199   4.108 -0.3836  0.1694 -0.3516
   14CHTO  H190 5563   2.550   5.249   4.094  1.8058 -0.5276 -1.5892
   14CHTO  C101 5564   2.465   5.047   4.052  0.2796  0.0264 -0.4586
   14CHTO  H188 5565   2.362   5.008   4.060  1.6285 -1.7078 -2.3686
   14CHTO   O68 5566   2.574   4.950   4.133 -0.9908  0.2388 -0.0699
   14CHTO  H168 5567   2.641   4.990   4.178 -1.1854 -1.1672  1.6799
   14CHTO   C99 5568   2.501   5.056   3.895 -0.6535  0.4938 -0.0568
   14CHTO  H186 5569   2.606   5.099   3.897 -1.2107 -0.2451 -1.0738
   14CHTO   N17 5570   2.499   4.927   3.814 -1.2953 -0.7178 -0.5411
   14CHTO  H174 5571   2.560   4.851   3.860 -2.5294 -1.4709 -1.7513
   14CHTO  H175 5572   2.538   4.957   3.713  0.6025  2.0057 -0.3620
   14CHTO   C97 5573   2.416   5.157   3.813  0.0080  0.2845 -0.1937
   14CHTO  H184 5574   2.325   5.108   3.774 -1.8906  1.5405 -0.9446
   14CHTO   O64 5575   2.386   5.275   3.877  0.5406 -0.6859 -0.5491
   14CHTO  C104 5576   2.348   5.277   4.018  0.1884  0.1789  0.3273
   14CHTO  H191 5577   2.254   5.230   4.026  1.5411 -0.8315 -0.9698
   14CHTO  C108 5578   2.328   5.427   4.054  0.0692  0.3732  0.1153
   14CHTO   O71 5579   2.447   5.507   4.061 -0.0563  1.0413  0.1487
   14CHTO  H171 5580   2.444   5.571   3.994 -4.2534  1.8449 -2.0492
   14CHTO   O62 5581   2.490   5.217   3.707 -0.8295  0.0847  0.1569
   14CHTO   C91 5582   2.417   5.262   3.592  0.8808 -1.0846  0.0196
   14CHTO  H178 5583   2.314   5.294   3.624 -0.8275 -1.9787  0.2475
   14CHTO   C92 5584   2.397   5.134   3.504 -0.8815  0.6295  0.6574
   14CHTO  H179 5585   2.387   5.046   3.568  0.0839 -0.0835 -0.8143
   14CHTO   O66 5586   2.276   5.156   3.430 -0.2826 -0.5496 -0.2576
   14CHTO  H166 5587   2.203   5.174   3.486 -1.6890 -0.7545  1.1479
   14CHTO   C93 5588   2.518   5.117   3.406 -0.5735 -0.3437  0.6279
   14CHTO  H180 5589   2.491   5.040   3.335  0.9019 -0.1316  0.6276
   14CHTO   N16 5590   2.642   5.068   3.473 -1.0731 -0.4645  0.6132
   14CHTO  H172 5591   2.721   5.101   3.417 -0.3570 -0.4675  0.4722
   14CHTO  H173 5592   2.641   4.957   3.488 -3.5428 -0.3932 -0.4184
   14CHTO   C94 5593   2.537   5.253   3.327  0.2006  0.3677  0.0203
   14CHTO  H181 5594   2.643   5.281   3.323 -1.0827 -2.3499 -1.0638
   14CHTO   O61 5595   2.463   5.368   3.376  0.1872 -0.2567  0.4689
   14CHTO   C95 5596   2.478   5.387   3.519  0.3541 -0.3519 -0.0925
   14CHTO  H182 5597   2.585   5.398   3.545 -3.1554 -0.9290  4.0856
   14CHTO  C106 5598   2.412   5.525   3.560 -0.3424 -0.6469 -0.1449
   14CHTO   O69 5599   2.456   5.643   3.496 -0.0236  0.4394 -0.0715
   14CHTO  H169 5600   2.386   5.701   3.484  1.1030 -1.9048 -1.9149
   14CHTO   O63 5601   2.488   5.207   3.180 -0.0398  0.5055 -0.4649
   14CHTO   C96 5602   2.595   5.185   3.074  0.3426 -0.9049 -0.1791
   14CHTO  H183 5603   2.664   5.265   3.083  1.4603 -0.0335 -1.1509
   14CHTO   C98 5604   2.529   5.191   2.934 -0.3162 -0.9977  0.6159
   14CHTO  H185 5605   2.468   5.287   2.936 -0.5419  3.1047 -1.5407
   14CHTO   O67 5606   2.626   5.203   2.831  0.3998  0.3029 -0.3862
   14CHTO  H167 5607   2.616   5.286   2.793  2.0299  0.4028  2.0554
   14CHTO  C102 5608   2.448   5.058   2.904 -0.0324 -0.6634 -0.9635
   14CHTO  H189 5609   2.459   5.049   2.802 -0.4784  1.2793  1.6219
   14CHTO   N18 5610   2.301   5.070   2.921 -0.0462  0.2347 -0.2693
   14CHTO  H176 5611   2.260   4.975   2.885 -2.7638 -1.1578  1.6236
   14CHTO  H177 5612   2.283   5.101   3.022  0.3534  1.6013 -0.9575
   14CHTO  C105 5613   2.511   4.941   2.978 -0.1032 -0.3997  1.1786
   14CHTO  H192 5614   2.470   4.932   3.069 -0.2465 -0.8537  0.0342
   14CHTO   O65 5615   2.653   4.958   2.995  0.6008  0.0776 -0.2222
   14CHTO  C100 5616   2.676   5.057   3.095 -0.2672 -0.1104 -0.7514
   14CHTO  H187 5617   2.651   5.013   3.195  0.9376  0.4717 -1.4849
   14CHTO  C107 5618   2.829   5.099   3.107 -0.3957  0.8129  0.4445
   14CHTO   O70 5619   2.859   5.171   3.227 -0.7825 -0.4396 -0.2470
   14CHTO  H170 5620   2.937   5.229   3.217 -0.9354 -2.2539  0.8432
   14CHTO   O57 5621   2.487   4.823   2.899 -0.1363  0.1736  0.3393
   14CHTO   C85 5622   2.442   4.700   2.944 -0.1752 -0.0606 -0.0046
   14CHTO  H157 5623   2.358   4.726   3.013 -0.7879  1.6658  1.0909
   14CHTO   C83 5624   2.549   4.624   3.026  0.1639  0.4219 -0.2395
   14CHTO  H155 5625   2.571   4.691   3.105 -2.3632  0.7191 -0.5395
   14CHTO   O56 5626   2.674   4.618   2.945 -0.2044 -0.6270 -0.0281
   14CHTO  H135 5627   2.713   4.703   2.946  1.6638 -2.2031  0.2587
   14CHTO   C81 5628   2.487   4.496   3.089  0.6767  0.9280  0.1143
   14CHTO  H153 5629   2.394   4.518   3.142 -1.8573 -1.1814  2.0259
   14CHTO   N14 5630   2.579   4.435   3.190  0.1983  0.4455 -0.2082
   14CHTO  H141 5631   2.621   4.507   3.252 -1.5948 -0.2241 -0.1787
   14CHTO  H142 5632   2.517   4.370   3.248  0.4997  2.8716  0.8797
   14CHTO   C79 5633   2.452   4.396   2.975  0.3703  0.3411  0.1999
   14CHTO  H151 5634   2.388   4.316   3.019 -0.4485 -0.9921 -0.5763
   14CHTO   O52 5635   2.356   4.468   2.881 -0.6006 -0.1237 -0.4971
   14CHTO   C86 5636   2.395   4.602   2.837  0.4951 -0.6978 -0.4084
   14CHTO  H158 5637   2.482   4.579   2.769  1.6663  2.0821 -2.4556
   14CHTO   C90 5638   2.276   4.651   2.743 -0.5498 -0.2436  0.1162
   14CHTO   O60 5639   2.262   4.568   2.628 -0.0241 -0.0147  0.0556
   14CHTO  H138 5640   2.242   4.480   2.655  0.2416 -2.7464 -0.0049
   14CHTO   O50 5641   2.558   4.346   2.902  0.0199  0.6691  0.1062
   14CHTO   C73 5642   2.631   4.332   2.773  0.3316  0.5601 -0.2374
   14CHTO  H145 5643   2.642   4.419   2.718  1.5810  1.0951 -1.3016
   14CHTO   C74 5644   2.559   4.238   2.669 -0.5175 -0.9512  0.2963
   14CHTO  H146 5645   2.458   4.282   2.656 -1.1373  2.8955  1.0881
   14CHTO   O54 5646   2.620   4.242   2.539  0.1856 -0.0479  1.3152
   14CHTO  H133 5647   2.710   4.212   2.547  0.9692 -1.0985 -0.4898
   14CHTO   C75 5648   2.557   4.089   2.723 -0.9492 -0.0865  0.1114
   14CHTO  H147 5649   2.500   4.085   2.815 -1.0091 -0.3559 -1.7263
   14CHTO   N13 5650   2.475   3.994   2.637  0.0007  0.3592 -0.2222
   14CHTO  H139 5651   2.421   4.040   2.557  0.1071 -1.8968  0.6890
   14CHTO  H140 5652   2.412   3.923   2.690  0.6025  0.6527  0.3587
   14CHTO   C76 5653   2.702   4.045   2.757 -0.7704  0.0846  0.3185
   14CHTO  H148 5654   2.754   4.031   2.659 -0.2677 -0.4409 -0.8406
   14CHTO   O49 5655   2.766   4.138   2.857  0.8392  0.2435  0.7277
   14CHTO   C77 5656   2.775   4.276   2.808  0.3187  0.7429  0.8687
   14CHTO  H149 5657   2.842   4.281   2.719  1.0477  0.8156 -2.5981
   14CHTO   C88 5658   2.850   4.359   2.916 -0.0208 -0.1424 -0.2195
   14CHTO   O58 5659   2.981   4.318   2.937 -0.5439  0.2991  0.1268
   14CHTO  H136 5660   3.015   4.389   2.984  0.7930 -0.6469  0.9432
   14CHTO   O51 5661   2.716   3.919   2.830 -0.3095  0.3617 -0.0133
   14CHTO   C78 5662   2.833   3.816   2.778  0.3417 -0.0341  0.2212
   14CHTO  H150 5663   2.893   3.860   2.705  0.9790 -0.2763 -0.7965
   14CHTO   C80 5664   2.761   3.698   2.717  0.2805 -0.2824 -0.3189
   14CHTO  H152 5665   2.689   3.668   2.790  0.3286  1.9046  1.6876
   14CHTO   O55 5666   2.681   3.739   2.603  0.4242  0.2718  0.0953
   14CHTO  H134 5667   2.727   3.729   2.521  2.2051 -1.4561  1.0662
   14CHTO   C84 5668   2.852   3.573   2.694  0.4179 -0.1110 -0.0352
   14CHTO  H156 5669   2.914   3.598   2.612  0.9389  1.9760  0.4703
   14CHTO   N15 5670   2.778   3.447   2.654 -0.1023  0.6053 -0.5366
   14CHTO  H143 5671   2.833   3.378   2.594  1.7737  1.2365 -3.0414
   14CHTO  H144 5672   2.696   3.483   2.593 -0.5734  0.9375 -1.0379
   14CHTO   C87 5673   2.953   3.546   2.809  0.3258  0.4937  0.3000
   14CHTO  H159 5674   2.908   3.493   2.888  0.7336  0.3915  0.6538
   14CHTO   O53 5675   3.013   3.679   2.859 -0.2790 -0.4157 -0.0465
   14CHTO   C82 5676   2.918   3.778   2.894 -0.0984  0.0806  0.1775
   14CHTO  H154 5677   2.864   3.744   2.976  2.8633 -1.7472  0.6705
   14CHTO   C89 5678   2.990   3.908   2.939 -0.1148  0.1191 -0.6034
   14CHTO   O59 5679   3.075   3.878   3.047 -0.1909 -0.1297 -0.2580
   14CHTO  H137 5680   3.119   3.961   3.068  0.2200  3.3812  1.4184
   14CHTO   O45 5681   3.067   3.453   2.766 -0.2089  0.0945  0.1872
   14CHTO   C67 5682   3.152   3.412   2.873 -0.2304 -1.0994  0.2352
   14CHTO  H124 5683   3.174   3.501   2.930 -0.4576  1.8064 -1.8108
   14CHTO   C65 5684   3.099   3.303   2.967 -0.0471  0.1638  0.6874
   14CHTO  H122 5685   2.995   3.326   2.997 -1.1914  2.7189  1.0185
   14CHTO   O44 5686   3.180   3.284   3.083  0.6679 -0.0231  0.4751
   14CHTO  H102 5687   3.152   3.220   3.146  2.0463  2.2970  2.8621
   14CHTO   C63 5688   3.088   3.172   2.887  0.3440 -0.3078  0.4521
   14CHTO  H120 5689   3.026   3.189   2.804  1.7860 -1.1994  1.0013
   14CHTO   N11 5690   3.021   3.063   2.956  0.0738 -0.2525 -0.3056
   14CHTO  H108 5691   2.935   3.034   2.899  2.0470 -0.8133 -0.3283
   14CHTO  H109 5692   3.089   2.995   3.008  1.3974  1.5738 -1.7175
   14CHTO   C61 5693   3.224   3.131   2.821  0.5430  0.0137 -0.4770
   14CHTO  H118 5694   3.200   3.048   2.752 -1.9377  1.6660  2.4258
   14CHTO   O40 5695   3.290   3.247   2.741 -0.4394 -0.2202 -0.5268
   14CHTO   C68 5696   3.288   3.378   2.808  0.0801 -0.8090  0.5198
   14CHTO  H125 5697   3.298   3.442   2.721 -1.4489  0.6967 -3.2380
   14CHTO   C72 5698   3.412   3.401   2.895 -0.5669  0.1950 -0.2869
   14CHTO   O48 5699   3.425   3.511   2.984 -0.2478  0.3819  0.0621
   14CHTO  H105 5700   3.397   3.494   3.074  1.2324 -0.3741  0.0455
   14CHTO   O38 5701   3.330   3.098   2.918  0.6984 -0.4562 -0.2543
   14CHTO   C55 5702   3.367   2.962   2.953  0.5400 -0.1476  0.0490
   14CHTO  H112 5703   3.287   2.894   2.920 -1.5511 -1.1064 -1.4877
   14CHTO   C56 5704   3.390   2.956   3.112 -0.3444  0.2598  0.1290
   14CHTO  H113 5705   3.434   3.056   3.132 -0.1530  0.4965  1.8296
   14CHTO   O42 5706   3.263   2.956   3.178 -0.0224 -0.1395 -0.0922
   14CHTO  H100 5707   3.201   2.899   3.133 -1.0091 -0.3249  0.8212
   14CHTO   C57 5708   3.471   2.827   3.158 -0.4310  0.1926  0.1224
   14CHTO  H114 5709   3.393   2.753   3.149 -1.5306 -1.5459 -0.1408
   14CHTO   N10 5710   3.522   2.848   3.297  0.4418 -0.1175  0.4139
   14CHTO  H106 5711   3.620   2.898   3.302  1.1671 -0.3330 -1.3128
   14CHTO  H107 5712   3.529   2.751   3.336 -1.1295  0.3197 -0.3707
   14CHTO   C58 5713   3.589   2.791   3.060  0.0573 -0.5436 -0.2625
   14CHTO  H115 5714   3.666   2.871   3.071  0.4749 -0.3903 -0.4329
   14CHTO   O37 5715   3.542   2.787   2.922 -0.1497  0.0811  0.4309
   14CHTO   C59 5716   3.493   2.915   2.870  0.1877 -0.6291 -0.2810
   14CHTO  H116 5717   3.575   2.988   2.871  1.8570  0.1648  3.0606
   14CHTO   C70 5718   3.449   2.898   2.720  0.4333  0.2839  0.7037
   14CHTO   O46 5719   3.541   2.822   2.649 -0.2357 -0.1697 -0.0566
   14CHTO  H103 5720   3.541   2.862   2.566  0.1109 -0.8612  0.5700
   14CHTO   O39 5721   3.644   2.640   3.082 -0.5718 -0.1011  0.2475
   14CHTO   C60 5722   3.769   2.617   3.014  0.3145 -0.0903  0.5492
   14CHTO  H117 5723   3.760   2.662   2.909 -0.6241 -0.2847 -0.7316
   14CHTO   C62 5724   3.883   2.689   3.097  0.4245  0.0031  0.2869
   14CHTO  H119 5725   3.866   2.798   3.089 -0.8479 -0.5546 -2.7253
   14CHTO   O43 5726   3.886   2.637   3.228 -0.0876 -0.0791  0.1985
   14CHTO  H101 5727   3.807   2.617   3.265  1.2963  2.0007  0.4205
   14CHTO   C66 5728   4.027   2.673   3.021  0.4198  0.2969  0.2673
   14CHTO  H123 5729   4.016   2.714   2.923 -0.0616 -1.7829  1.9142
   14CHTO   N12 5730   4.130   2.748   3.082 -0.6158 -0.3967  0.1145
   14CHTO  H110 5731   4.093   2.847   3.102  0.1891 -0.4033  1.9865
   14CHTO  H111 5732   4.218   2.747   3.028 -1.6093 -1.5559 -0.9114
   14CHTO   C69 5733   4.050   2.526   2.988  0.5067  0.8295 -0.2561
   14CHTO  H126 5734   4.077   2.481   3.091 -0.0176 -1.1050 -1.8139
   14CHTO   O41 5735   3.929   2.454   2.924  0.1175 -0.2747  0.1197
   14CHTO   C64 5736   3.793   2.462   2.997  1.1139  0.9088 -0.7587
   14CHTO  H121 5737   3.809   2.412   3.099  1.2309  1.0254 -3.0462
   14CHTO   C71 5738   3.687   2.388   2.916  0.4007  0.1862  0.2611
   14CHTO   O47 5739   3.566   2.356   2.989  0.1151 -0.3573  0.2550
   14CHTO  H104 5740   3.528   2.436   3.022 -0.1028  0.8887  0.5211
   14CHTO   O34 5741   4.164   2.507   2.891 -0.4535  0.1126 -0.2645
   14CHTO   C49 5742   4.245   2.487   2.781  0.1499 -0.7141  0.4001
   14CHTO   H91 5743   4.340   2.438   2.815  3.7417  0.7764  0.8506
   14CHTO   C47 5744   4.281   2.619   2.709  0.5021  0.1272  0.1088
   14CHTO   H89 5745   4.343   2.579   2.637 -0.4254  0.9347 -1.3511
   14CHTO   O33 5746   4.351   2.713   2.792 -0.1547 -0.0659 -0.1386
   14CHTO   H70 5747   4.412   2.662   2.837  1.4350 -0.0177  3.3846
   14CHTO   C45 5748   4.155   2.700   2.628 -0.9040  0.1613 -0.0537
   14CHTO   H87 5749   4.115   2.787   2.687  0.8628 -0.2346  2.2750
   14CHTO    N8 5750   4.219   2.757   2.507  0.0350  0.0346  0.1448
   14CHTO   H75 5751   4.138   2.802   2.451 -0.3619  1.3199 -1.4322
   14CHTO   H76 5752   4.287   2.830   2.544 -1.9867  0.2462  2.2604
   14CHTO   C43 5753   4.034   2.595   2.614  0.1258  0.4130 -0.7780
   14CHTO   H85 5754   3.982   2.596   2.710 -3.1085  0.7308 -0.7369
   14CHTO   O29 5755   4.079   2.464   2.577 -0.0966  0.4941 -0.5931
   14CHTO   C50 5756   4.157   2.397   2.677 -0.0761 -0.2463  0.2902
   14CHTO   H92 5757   4.091   2.337   2.732 -0.9248  1.5396 -0.2983
   14CHTO   C54 5758   4.257   2.309   2.605 -0.6664 -0.2965  0.7027
   14CHTO   O36 5759   4.337   2.233   2.695  0.2028 -0.3874  0.6261
   14CHTO   H72 5760   4.349   2.142   2.669  1.0823  1.9777 -0.7373
   14CHTO   O27 5761   3.939   2.648   2.525  0.0940  1.0475  0.2007
   14CHTO   C37 5762   3.832   2.591   2.442  1.3560  0.1349  0.3231
   14CHTO   H79 5763   3.884   2.514   2.375 -0.6956 -2.4193  2.1558
   14CHTO   C38 5764   3.719   2.519   2.524  0.1933 -0.8980 -0.2104
   14CHTO   H80 5765   3.695   2.584   2.607  0.7870 -0.8731 -1.5321
   14CHTO   O31 5766   3.773   2.393   2.580 -0.1727 -0.4421 -0.0190
   14CHTO   H68 5767   3.827   2.411   2.651 -1.2967  1.7489 -0.6662
   14CHTO   C39 5768   3.591   2.490   2.438  0.2962 -0.2725 -0.7186
   14CHTO   H81 5769   3.615   2.406   2.370 -0.4779  1.2449  1.8668
   14CHTO    N7 5770   3.473   2.442   2.515 -0.3007 -0.3062  0.3765
   14CHTO   H73 5771   3.489   2.338   2.538  1.4395 -0.4074  0.3862
   14CHTO   H74 5772   3.469   2.498   2.609  0.9323  3.0075 -0.9391
   14CHTO   C40 5773   3.545   2.610   2.348 -0.1747  0.4493 -0.1171
   14CHTO   H82 5774   3.496   2.684   2.415  2.3376 -0.9883 -0.0230
   14CHTO   O26 5775   3.651   2.661   2.271 -0.6295 -0.3988  0.0108
   14CHTO   C41 5776   3.767   2.707   2.355  0.7596  0.0313  0.2469
   14CHTO   H83 5777   3.732   2.787   2.415  1.5344 -0.5066  1.1303
   14CHTO   C52 5778   3.876   2.766   2.260  0.4290 -0.3407 -0.2844
   14CHTO   O35 5779   3.934   2.666   2.158 -0.3438 -0.3413  0.5186
   14CHTO   H71 5780   3.992   2.692   2.086  2.0411 -1.2074  0.4343
   14CHTO   O28 5781   3.450   2.559   2.247 -0.2578  0.1317 -0.2623
   14CHTO   C42 5782   3.358   2.645   2.169  0.1919  0.4291  0.2628
   14CHTO   H84 5783   3.286   2.577   2.141  1.2181  2.0562 -1.6931
   14CHTO   C44 5784   3.415   2.695   2.034  0.6424 -0.1175  0.2874
   14CHTO   H86 5785   3.503   2.749   2.053 -0.9661 -2.6926  0.1861
   14CHTO   O32 5786   3.447   2.581   1.947 -0.5730 -0.8648  0.8114
   14CHTO   H69 5787   3.479   2.512   2.004  1.0235 -0.6388 -1.0182
   14CHTO   C48 5788   3.315   2.793   1.963  0.5807 -1.0044 -0.2905
   14CHTO   H90 5789   3.231   2.733   1.937 -1.4508 -0.0009  3.9366
   14CHTO    N9 5790   3.371   2.852   1.837 -0.3616 -0.0831 -0.0415
   14CHTO   H77 5791   3.288   2.904   1.793  0.2715  0.7955  0.8300
   14CHTO   H78 5792   3.453   2.914   1.865 -2.1498 -1.7523  1.2917
   14CHTO   C51 5793   3.271   2.904   2.058  0.3397 -0.2015 -0.1502
   14CHTO   H93 5794   3.369   2.937   2.095 -1.2640 -1.8017  1.3339
   14CHTO   O30 5795   3.193   2.839   2.160  0.1331  0.5211  0.1024
   14CHTO   C46 5796   3.289   2.759   2.253 -0.6464  0.1193  0.7383
   14CHTO   H88 5797   3.375   2.823   2.289 -0.4872  0.0969 -0.0543
   14CHTO   C53 5798   3.213   2.708   2.371 -0.1636 -0.1445  0.1186
   14CHTO   O72 5799   3.165   2.824   2.447 -0.1375 -0.4195 -0.6727
   14CHTO  H199 5800   3.124   2.888   2.390  0.4355 -2.0218 -0.1686
   14CHTO   O22 5801   3.193   3.017   2.015  0.1688  0.5077 -0.3502
   14CHTO   C31 5802   3.191   3.147   2.088 -0.0381 -0.1910  0.0885
   14CHTO   H59 5803   3.107   3.207   2.037 -3.1689  2.0857 -1.5940
   14CHTO   C29 5804   3.152   3.136   2.235  0.5809  0.6828 -0.0479
   14CHTO   H57 5805   3.224   3.060   2.278 -0.3643 -0.0407 -0.4788
   14CHTO   O21 5806   3.029   3.066   2.249 -0.0274  0.0239 -0.0814
   14CHTO   H37 5807   3.018   3.035   2.338  1.4890  0.0690  0.9779
   14CHTO   C27 5808   3.153   3.275   2.318  0.1840  0.0439  0.0472
   14CHTO   H55 5809   3.064   3.326   2.280  0.3189 -2.8949 -0.0884
   14CHTO    N5 5810   3.134   3.247   2.463 -0.3136 -0.1653 -0.2199
   14CHTO   H43 5811   3.225   3.211   2.508 -2.1526 -0.6420  1.5751
   14CHTO   H44 5812   3.050   3.180   2.471  2.1166 -0.1424  0.2952
   14CHTO   C25 5813   3.285   3.352   2.289 -0.9023  0.3885  0.0909
   14CHTO   H53 5814   3.375   3.306   2.329 -1.3718 -1.2117 -0.2258
   14CHTO   O17 5815   3.315   3.352   2.142 -0.4689 -0.2937 -0.1021
   14CHTO   C32 5816   3.319   3.230   2.071 -0.2637  0.1224 -0.6112
   14CHTO   H60 5817   3.400   3.172   2.123 -0.2259 -3.0243  2.1352
   14CHTO   C36 5818   3.341   3.272   1.927 -0.0498  0.4776 -0.6538
   14CHTO   O25 5819   3.448   3.362   1.913  0.2210 -0.3589 -0.2921
   14CHTO   H40 5820   3.527   3.313   1.889 -0.4391  0.4016  3.2978
   14CHTO   O15 5821   3.286   3.482   2.333  0.0600 -0.3147 -0.2222
   14CHTO   C19 5822   3.239   3.592   2.425  0.1717  0.2205 -0.3610
   14CHTO   H47 5823   3.187   3.550   2.512 -1.4832 -1.1490 -0.7062
   14CHTO   C20 5824   3.365   3.668   2.487 -0.1099  0.9297  0.9564
   14CHTO   H48 5825   3.432   3.707   2.411 -0.2691 -1.5279 -0.6641
   14CHTO   O19 5826   3.439   3.566   2.560 -0.2695  0.0849 -0.6848
   14CHTO   H35 5827   3.479   3.506   2.497 -4.1613 -2.3184  0.0061
   14CHTO   C21 5828   3.300   3.772   2.587 -0.5828  1.0055  0.5567
   14CHTO   H49 5829   3.248   3.714   2.661 -0.9576 -0.2823 -0.5303
   14CHTO    N4 5830   3.403   3.851   2.662 -0.5332 -0.0665  0.0845
   14CHTO   H41 5831   3.472   3.785   2.711  1.2134 -0.1347  0.6045
   14CHTO   H42 5832   3.456   3.926   2.609 -3.2234  0.6427  1.3833
   14CHTO   C22 5833   3.213   3.868   2.505 -0.1346 -0.2751  0.4857
   14CHTO   H50 5834   3.269   3.906   2.417  0.8852 -2.1532 -2.2187
   14CHTO   O14 5835   3.101   3.792   2.455 -0.1627 -0.1703  0.2160
   14CHTO   C23 5836   3.136   3.691   2.362 -0.4674  0.3749  0.2527
   14CHTO   H51 5837   3.172   3.735   2.269 -1.0980  1.9750 -0.4702
   14CHTO   C34 5838   3.001   3.629   2.312 -0.5004 -0.0696 -0.0866
   14CHTO   O23 5839   2.921   3.713   2.234  0.4250 -0.0862  0.4022
   14CHTO   H38 5840   2.893   3.776   2.298  2.1369 -0.0042 -1.7792
   14CHTO   O16 5841   3.148   3.975   2.575  0.4466  0.5771 -0.6119
   14CHTO   C24 5842   3.144   4.117   2.503 -0.5534 -0.3574  0.8605
   14CHTO   H52 5843   3.192   4.112   2.402 -1.7385 -0.2544  1.7845
   14CHTO   C26 5844   3.215   4.227   2.576  0.9347  0.7706  0.2529
   14CHTO   H54 5845   3.190   4.213   2.684  0.2982  0.6639 -0.5386
   14CHTO   O20 5846   3.353   4.192   2.569 -0.5443  0.5309 -0.4187
   14CHTO   H36 5847   3.382   4.216   2.483  0.3240  1.0420 -1.8016
   14CHTO   C30 5848   3.185   4.372   2.524 -1.0184  0.2022 -0.1121
   14CHTO   H58 5849   3.223   4.385   2.419 -0.7153 -0.8545  1.7670
   14CHTO    N6 5850   3.253   4.473   2.607 -0.1031 -0.2771  0.1651
   14CHTO   H45 5851   3.360   4.452   2.604  2.7460  1.6941 -0.4481
   14CHTO   H46 5852   3.220   4.479   2.708 -0.5958  0.7716 -1.7568
   14CHTO   C33 5853   3.031   4.381   2.511  0.5462 -0.2251  0.1974
   14CHTO   H61 5854   2.992   4.379   2.611 -1.1480  2.0906 -1.4912
   14CHTO   O18 5855   2.984   4.272   2.434 -0.0302  0.2750  0.2662
   14CHTO   C28 5856   2.996   4.142   2.479  0.0830  0.1528  0.2887
   14CHTO   H56 5857   2.943   4.144   2.575  0.0777  0.6634  1.6396
   14CHTO   C35 5858   2.921   4.056   2.380 -0.4485  0.3018  1.0084
   14CHTO   O24 5859   2.776   4.054   2.372  0.6693  0.2464  0.0651
   14CHTO   H39 5860   2.730   4.055   2.457  0.6986  0.7005  1.8750
   14CHTO    O9 5861   2.991   4.503   2.453 -0.0168 -0.5045 -0.0578
   14CHTO   C13 5862   2.840   4.546   2.495  0.1354 -0.5198 -0.6796
   14CHTO   H26 5863   2.786   4.466   2.549 -1.6103  0.4097  1.3931
   14CHTO   C11 5864   2.760   4.592   2.365  0.7192  0.0487 -0.3789
   14CHTO   H24 5865   2.747   4.513   2.294 -1.9422 -2.5041 -1.4304
   14CHTO    O8 5866   2.823   4.701   2.291  0.2747  0.3386 -0.1260
   14CHTO    H3 5867   2.860   4.775   2.338 -1.2413 -0.1047 -1.0373
   14CHTO    C9 5868   2.614   4.621   2.415  0.8208 -0.2152 -0.2226
   14CHTO   H22 5869   2.585   4.528   2.465  1.2755 -0.8597  0.9243
   14CHTO    N2 5870   2.510   4.640   2.311  0.3937 -0.3421  0.2862
   14CHTO   H10 5871   2.426   4.696   2.354  2.2771  1.2998  0.3771
   14CHTO   H11 5872   2.491   4.547   2.261  2.2529 -0.5456  0.8394
   14CHTO    C7 5873   2.623   4.745   2.510  0.8344 -0.3378  0.2539
   14CHTO   H20 5874   2.524   4.752   2.554 -1.8274  1.5424  0.5734
   14CHTO    O4 5875   2.720   4.738   2.616  0.0608 -0.2547 -0.2578
   14CHTO   C14 5876   2.839   4.658   2.605 -0.2076 -0.8265 -0.0123
   14CHTO   H27 5877   2.849   4.612   2.699 -0.9120 -1.0268  0.4766
   14CHTO   C18 5878   2.966   4.745   2.579 -0.2620 -0.2793 -0.2035
   14CHTO   O13 5879   3.010   4.825   2.687 -0.6696  0.3733 -0.1350
   14CHTO    H7 5880   2.934   4.878   2.726 -0.1936  0.6362  2.7299
   14CHTO    O2 5881   2.648   4.874   2.438  0.2062  0.7947  0.2214
   14CHTO    C1 5882   2.586   4.986   2.508 -0.7658 -0.1165  0.1419
   14CHTO   H14 5883   2.580   4.978   2.623 -0.1050  0.0931 -1.2527
   14CHTO    C2 5884   2.432   5.008   2.462  0.6800 -0.3285 -0.6251
   14CHTO   H15 5885   2.437   4.995   2.355 -1.1346  0.2032  0.5766
   14CHTO    O6 5886   2.346   4.911   2.526  0.0348  0.1350  0.1482
   14CHTO    H1 5887   2.380   4.820   2.531 -1.4939 -1.3034 -0.5374
   14CHTO    C3 5888   2.375   5.152   2.498 -0.3423 -0.3193  0.0692
   14CHTO   H16 5889   2.348   5.155   2.607 -0.5757  4.3288  0.9350
   14CHTO    N1 5890   2.248   5.183   2.426  0.0469 -0.0715 -0.3823
   14CHTO    H8 5891   2.220   5.272   2.475 -0.1459 -1.1468 -2.3440
   14CHTO    H9 5892   2.174   5.106   2.442  0.3843  1.7678  1.2129
   14CHTO    C4 5893   2.484   5.262   2.466 -0.2936  0.2962 -0.8309
   14CHTO   H17 5894   2.498   5.272   2.361 -1.6020  0.7702 -0.4957
   14CHTO    O1 5895   2.609   5.232   2.532 -0.1350  0.0170  0.1184
   14CHTO    C5 5896   2.664   5.115   2.468 -0.9092 -0.6088  0.1336
   14CHTO   H18 5897   2.666   5.123   2.358 -2.0773  2.2120 -2.3401
   14CHTO   C16 5898   2.809   5.098   2.514 -0.6796 -0.2978 -0.6980
   14CHTO   O11 5899   2.897   5.200   2.468  0.3012 -0.1202 -0.3239
   14CHTO    H5 5900   2.951   5.167   2.401  1.4071  1.9867  1.2608
   14CHTO    O3 5901   2.441   5.386   2.522 -0.1165 -0.2103  1.0177
   14CHTO    C6 5902   2.511   5.507   2.464  0.0464  0.0311 -0.1932
   14CHTO   H19 5903   2.596   5.477   2.399 -0.4447 -0.9742  0.1071
   14CHTO    C8 5904   2.401   5.590   2.377  0.0510 -0.0310 -0.0262
   14CHTO   H21 5905   2.328   5.632   2.440  0.9887 -1.2482 -1.8753
   14CHTO    O7 5906   2.338   5.501   2.285 -0.1185 -0.2286 -0.2551
   14CHTO    H2 5907   2.402   5.482   2.218  4.0980  1.0550 -0.3626
   14CHTO   C12 5908   2.468   5.719   2.322  0.6874  0.0619  0.3278
   14CHTO   H25 5909   2.539   5.678   2.239  0.7193  0.8367  1.3530
   14CHTO    N3 5910   2.371   5.817   2.252 -0.1154  0.1661  0.3051
   14CHTO   H12 5911   2.354   5.903   2.319  1.2817  0.2652  2.5092
   14CHTO   H13 5912   2.285   5.768   2.218  2.0415 -1.8828 -0.5284
   14CHTO   C15 5913   2.552   5.790   2.432  0.5101 -0.3600  0.0789
   14CHTO   H28 5914   2.486   5.853   2.506 -1.2639  0.4535  0.1114
   14CHTO   O10 5915   2.647   5.888   2.358  0.5778  0.2228  0.3690
   14CHTO    H4 5916   2.698   5.839   2.297  0.3684 -0.7090  0.2292
   14CHTO    O5 5917   2.637   5.705   2.506  0.3523  0.0457 -0.2812
   14CHTO   C10 5918   2.564   5.604   2.579 -1.0842  0.4124 -0.0077
   14CHTO   H23 5919   2.484   5.650   2.633 -0.0518 -1.8009 -2.4214
   14CHTO   C17 5920   2.664   5.548   2.679  0.3864  1.0606 -0.3100
   14CHTO   O12 5921   2.763   5.458   2.617  0.3739  0.3486  0.4823
   14CHTO    H6 5922   2.817   5.506   2.556 -0.5723  1.4004  0.9756
   15CHTO  H203 5923   5.314   1.639   5.173  1.6735  0.9837 -0.3603
   15CHTO   O82 5924   5.239   1.630   5.234  0.7661  0.1867  0.5698
   15CHTO  C123 5925   5.180   1.501   5.259 -0.3414 -0.0446 -0.2918
   15CHTO  H227 5926   5.263   1.433   5.252  0.5120 -1.9070 -1.9909
   15CHTO   O77 5927   5.133   1.509   5.394 -0.3131 -0.0184  0.2124
   15CHTO  C118 5928   5.075   1.384   5.430 -0.0007  0.6647  0.9864
   15CHTO  H222 5929   5.142   1.304   5.414 -2.3261 -0.3076  1.6549
   15CHTO  C125 5930   5.046   1.399   5.585 -0.1756  0.3030 -0.2060
   15CHTO   O84 5931   5.171   1.389   5.655 -0.1056 -0.2369  0.1957
   15CHTO  H205 5932   5.226   1.465   5.662  0.5231  0.1966 -3.3543
   15CHTO  C114 5933   4.945   1.351   5.341 -0.4243 -0.1712 -0.6156
   15CHTO  H218 5934   4.877   1.431   5.352  3.3371  1.1670 -1.2450
   15CHTO  C116 5935   4.984   1.357   5.186  0.3264 -0.1307  0.3008
   15CHTO  H220 5936   5.038   1.262   5.157  2.1765 -0.4589 -1.2949
   15CHTO   O79 5937   4.858   1.347   5.123 -0.0424  0.0217  0.6721
   15CHTO  H201 5938   4.870   1.342   5.028  1.3096 -0.8370 -1.2002
   15CHTO  C120 5939   5.069   1.482   5.145  0.2398  0.2750  0.2024
   15CHTO  H224 5940   5.000   1.576   5.156 -3.4568  2.1922  0.4566
   15CHTO   N21 5941   5.114   1.466   5.005 -0.2563 -0.5543  0.4929
   15CHTO  H211 5942   5.199   1.396   5.001  0.0214 -1.4133  0.4471
   15CHTO  H212 5943   5.155   1.566   4.986 -0.2001  0.8054 -0.0969
   15CHTO   O75 5944   4.895   1.232   5.402 -0.1295  0.1545  0.6647
   15CHTO  C112 5945   4.932   1.094   5.320  0.6295  0.1158 -0.3869
   15CHTO  H216 5946   5.034   1.102   5.279  1.6040  1.5615  1.5213
   15CHTO   O73 5947   4.832   1.068   5.220  0.5561  0.5788  0.0708
   15CHTO  C113 5948   4.846   0.936   5.166  0.3133 -0.2987 -0.1765
   15CHTO  H217 5949   4.942   0.928   5.112 -0.3522 -1.3196 -0.8496
   15CHTO  C124 5950   4.745   0.928   5.052 -0.3043  0.3610 -0.5299
   15CHTO   O83 5951   4.774   1.017   4.941  0.3702  0.4266 -0.1935
   15CHTO  H204 5952   4.695   1.055   4.903 -1.3902  1.6830  0.3945
   15CHTO  C109 5953   4.821   0.828   5.276  0.7141  0.2622  0.3244
   15CHTO  H213 5954   4.721   0.850   5.315  0.2721  0.1904 -0.5225
   15CHTO  C110 5955   4.927   0.837   5.390 -0.2515 -0.2591  0.8469
   15CHTO  H214 5956   5.024   0.800   5.351 -0.8863 -1.7832 -0.2640
   15CHTO   O78 5957   4.898   0.754   5.506  0.5116 -0.3168  0.3007
   15CHTO  H200 5958   4.805   0.758   5.522  2.3890  0.0047  0.1982
   15CHTO  C111 5959   4.936   0.986   5.439 -0.1648  0.2231 -0.4209
   15CHTO  H215 5960   4.852   1.004   5.508  2.2565  3.5780 -0.6622
   15CHTO   N19 5961   5.060   1.012   5.517  0.2170 -0.2972 -0.3804
   15CHTO  H207 5962   5.031   1.068   5.608 -0.5224  3.3695 -0.7161
   15CHTO  H208 5963   5.087   0.921   5.563 -0.4520 -0.3758 -0.0955
   15CHTO   O74 5964   4.825   0.693   5.222 -0.1734  0.0980 -0.3347
   15CHTO  C115 5965   4.744   0.582   5.297 -0.7317  0.4171 -0.0621
   15CHTO  H219 5966   4.767   0.578   5.403 -1.4366  0.4617  1.2356
   15CHTO   O76 5967   4.599   0.607   5.291 -0.3585  0.0775  0.1161
   15CHTO  C122 5968   4.554   0.618   5.152 -0.2643  0.3629 -0.4516
   15CHTO  H226 5969   4.600   0.705   5.110 -2.4719 -0.8945  3.1553
   15CHTO  C126 5970   4.402   0.652   5.152  0.0776  0.0660 -0.0813
   15CHTO   O85 5971   4.331   0.548   5.222  0.3361 -0.6995  0.1901
   15CHTO  H206 5972   4.364   0.508   5.299  0.0466 -0.4871  0.5298
   15CHTO  C121 5973   4.591   0.489   5.066  0.6381 -0.3735 -0.3559
   15CHTO  H225 5974   4.497   0.444   5.032  2.9266  0.2415 -2.2207
   15CHTO   O81 5975   4.651   0.527   4.945 -0.6134 -0.5306 -0.0573
   15CHTO  H202 5976   4.610   0.469   4.882  0.4200  3.2107  0.8180
   15CHTO  C119 5977   4.668   0.385   5.149 -0.7373  0.0409 -0.7517
   15CHTO  H223 5978   4.598   0.343   5.215 -0.9186 -0.7664 -2.4660
   15CHTO  C117 5979   4.788   0.448   5.221 -1.0357  0.5074  0.8076
   15CHTO  H221 5980   4.875   0.477   5.154 -1.7329  1.9406 -3.9595
   15CHTO   N20 5981   4.842   0.350   5.325 -0.4676  0.1805  0.2729
   15CHTO  H209 5982   4.843   0.250   5.277  0.2228 -0.5776  1.4240
   15CHTO  H210 5983   4.939   0.391   5.347 -0.2805  0.9750  0.3526
   15CHTO   O80 5984   4.690   0.255   5.051  0.0114  0.0080 -0.5277
   15CHTO  C103 5985   4.645   0.132   5.087 -0.2611  0.5251  0.5530
   15CHTO  H190 5986   4.676   0.104   5.187 -3.0695  1.1944 -1.9484
   15CHTO  C101 5987   4.487   0.101   5.064 -0.2866  0.5583 -0.1505
   15CHTO  H188 5988   4.462   0.160   4.973  2.9263  0.6391 -1.7941
   15CHTO   O68 5989   4.405   0.159   5.178  0.4786 -0.0121  0.2227
   15CHTO  H168 5990   4.345   0.109   5.220 -1.4981  2.1803 -3.2758
   15CHTO   C99 5991   4.464  -0.057   5.050  0.5800 -0.4875  0.6781
   15CHTO  H186 5992   4.482  -0.114   5.146 -0.2069 -0.5390 -2.8850
   15CHTO   N17 5993   4.318  -0.089   5.013  0.1668 -0.6085  0.1130
   15CHTO  H174 5994   4.269  -0.163   5.068  0.2789 -1.7349  0.9711
   15CHTO  H175 5995   4.275  -0.048   4.928  1.4859  0.6237  0.5045
   15CHTO   C97 5996   4.553  -0.125   4.952  0.3242 -0.2139  0.1426
   15CHTO  H184 5997   4.528  -0.078   4.854 -1.6213 -1.0282 -0.5722
   15CHTO   O64 5998   4.691  -0.104   4.990 -0.3369 -0.3581  0.1722
   15CHTO  C104 5999   4.727   0.039   4.980 -0.3080  0.0392  0.2310
   15CHTO  H191 6000   4.711   0.076   4.881  1.3051 -1.6187  0.3869
   15CHTO  C108 6001   4.880   0.049   4.996 -0.9577  0.5187  0.8779
   15CHTO   O71 6002   4.924   0.027   5.129 -0.1278 -0.0188 -0.2039
   15CHTO  H171 6003   5.016   0.041   5.133  3.5046  1.0967 -0.6461
   15CHTO   O62 6004   4.546  -0.269   4.949 -0.7362  0.2837 -0.4488
   15CHTO   C91 6005   4.538  -0.343   4.824 -0.1534  0.0330  0.1813
   15CHTO  H178 6006   4.475  -0.277   4.758  0.4457  0.8211  0.9579
   15CHTO   C92 6007   4.456  -0.475   4.836 -0.6737  0.1478 -0.2549
   15CHTO  H179 6008   4.378  -0.458   4.910  0.6490 -1.5063  1.5974
   15CHTO   O66 6009   4.387  -0.485   4.704 -0.1606  0.1116 -0.5777
   15CHTO  H166 6010   4.353  -0.577   4.694 -0.0108 -2.3944 -0.8964
   15CHTO   C93 6011   4.538  -0.603   4.861 -0.0016  0.2858 -0.3025
   15CHTO  H180 6012   4.482  -0.687   4.817 -1.8409  0.3983  0.0299
   15CHTO   N16 6013   4.546  -0.633   5.006  0.0053 -1.0781  0.2058
   15CHTO  H172 6014   4.462  -0.608   5.066 -0.7452 -0.0715 -1.9828
   15CHTO  H173 6015   4.572  -0.735   5.026 -1.5773 -1.0872  3.0480
   15CHTO   C94 6016   4.680  -0.595   4.798  0.0425  0.8436  0.1177
   15CHTO  H181 6017   4.761  -0.587   4.874  0.7242 -2.3062  0.4523
   15CHTO   O61 6018   4.694  -0.485   4.699 -0.6780 -0.1269 -0.3584
   15CHTO   C95 6019   4.686  -0.363   4.770 -0.8235 -0.1075 -0.1639
   15CHTO  H182 6020   4.755  -0.357   4.857 -1.1593  0.2912 -1.2246
   15CHTO  C106 6021   4.734  -0.250   4.680  0.0532  0.1651  0.2400
   15CHTO   O69 6022   4.870  -0.265   4.650 -0.1709 -0.6641  0.4571
   15CHTO  H169 6023   4.870  -0.326   4.579  0.2030  0.9316  0.3809
   15CHTO   O63 6024   4.708  -0.731   4.722  0.3288  0.2061  0.2317
   15CHTO   C96 6025   4.867  -0.781   4.707 -0.3707 -0.0416 -0.9180
   15CHTO  H183 6026   4.917  -0.778   4.800  2.2597 -0.4091  1.2146
   15CHTO   C98 6027   4.948  -0.689   4.620 -0.2994 -0.4640  0.0680
   15CHTO  H185 6028   4.929  -0.582   4.646 -0.5527 -1.9938 -0.7730
   15CHTO   O67 6029   5.091  -0.712   4.635  0.4477 -0.1036 -0.0254
   15CHTO  H167 6030   5.122  -0.624   4.654 -1.2213  3.2693  3.0060
   15CHTO  C102 6031   4.927  -0.700   4.457  0.1303  0.3559  0.5813
   15CHTO  H189 6032   5.015  -0.671   4.409 -1.8503 -1.8445  2.6702
   15CHTO   N18 6033   4.831  -0.605   4.403 -0.2561  0.1205  0.4968
   15CHTO  H176 6034   4.856  -0.498   4.407 -0.9462 -0.2328  1.3421
   15CHTO  H177 6035   4.792  -0.642   4.306  1.4590 -3.0771 -1.9354
   15CHTO  C105 6036   4.889  -0.844   4.428 -0.3589  0.1246 -0.0964
   15CHTO  H192 6037   4.782  -0.850   4.415 -0.4400  0.0016  0.3764
   15CHTO   O65 6038   4.933  -0.939   4.528 -0.1585  0.0849 -0.6689
   15CHTO  C100 6039   4.872  -0.924   4.657 -0.0662 -0.3801  0.4547
   15CHTO  H187 6040   4.765  -0.949   4.649  0.4237 -2.2332  0.1514
   15CHTO  C107 6041   4.929  -1.032   4.758  0.3801 -0.3273  0.0434
   15CHTO   O70 6042   4.923  -1.168   4.704  0.0505 -0.2464 -0.7182
   15CHTO  H170 6043   4.985  -1.172   4.634  0.2183  1.0327 -1.5462
   15CHTO   O57 6044   4.977  -0.863   4.272  0.3213 -0.4333 -0.3806
   15CHTO   C85 6045   5.007  -0.991   4.219  0.5320 -0.7004 -0.6075
   15CHTO  H157 6046   5.053  -1.052   4.300  0.3482 -1.9825  1.4436
   15CHTO   C83 6047   5.120  -0.958   4.117 -0.5971  0.0553  0.6140
   15CHTO  H155 6048   5.216  -0.925   4.157 -0.3976 -0.4943  0.9325
   15CHTO   O56 6049   5.079  -0.850   4.028  0.6047 -0.9948 -0.3860
   15CHTO  H135 6050   5.035  -0.885   3.956  0.9254  3.3211  0.7576
   15CHTO   C81 6051   5.151  -1.086   4.044 -0.2068 -0.2459 -0.6334
   15CHTO  H153 6052   5.191  -1.158   4.117  5.1926  2.9925  3.0894
   15CHTO   N14 6053   5.267  -1.075   3.956 -0.1820  0.0734 -0.2724
   15CHTO  H141 6054   5.272  -1.155   3.887  0.4146  1.4513 -0.1235
   15CHTO  H142 6055   5.262  -0.981   3.905  0.8714  1.5108 -1.3887
   15CHTO   C79 6056   5.024  -1.146   3.977  0.0433  0.1632  0.6838
   15CHTO  H151 6057   5.053  -1.241   3.929 -0.1158  0.9075 -1.5043
   15CHTO   O52 6058   4.921  -1.175   4.075 -0.1701 -0.2266 -0.5767
   15CHTO   C86 6059   4.884  -1.062   4.158  0.2162  0.4137 -0.0991
   15CHTO  H158 6060   4.829  -0.988   4.081 -1.4358  0.7628  3.0578
   15CHTO   C90 6061   4.779  -1.104   4.260  0.4138 -0.1273 -0.6173
   15CHTO   O60 6062   4.648  -1.069   4.202 -0.0887 -0.1542  0.1287
   15CHTO  H138 6063   4.618  -0.981   4.231 -1.6190  0.5833  0.4667
   15CHTO   O50 6064   4.976  -1.051   3.872 -0.3941  0.2293 -0.0316
   15CHTO   C73 6065   4.861  -1.042   3.781 -0.2203  0.0676 -0.6797
   15CHTO  H145 6066   4.768  -1.078   3.836 -0.3167  1.1727  1.2229
   15CHTO   C74 6067   4.892  -1.130   3.658 -0.0639 -0.0160  0.3507
   15CHTO  H146 6068   4.908  -1.227   3.694  0.0885  0.5768 -3.5732
   15CHTO   O54 6069   4.767  -1.125   3.578  0.4709  0.0572 -0.4129
   15CHTO  H133 6070   4.717  -1.202   3.599  1.0271 -2.5332 -1.3533
   15CHTO   C75 6071   5.014  -1.069   3.583 -0.3310  0.7638 -0.3406
   15CHTO  H147 6072   5.101  -1.077   3.650  0.4361  1.3250  0.2078
   15CHTO   N13 6073   5.055  -1.141   3.459  0.5186 -0.5274 -0.1630
   15CHTO  H139 6074   5.012  -1.086   3.372 -1.3423  1.8003 -0.7943
   15CHTO  H140 6075   5.013  -1.242   3.460  1.3387  0.4065 -1.8152
   15CHTO   C76 6076   5.001  -0.912   3.559  0.4816 -0.7970 -0.2510
   15CHTO  H148 6077   4.922  -0.890   3.485 -1.3563 -1.5452  1.5501
   15CHTO   O49 6078   4.966  -0.849   3.680  0.2940  0.2067  0.4779
   15CHTO   C77 6079   4.844  -0.897   3.731  0.1210 -0.2193 -0.8255
   15CHTO  H149 6080   4.762  -0.895   3.667  0.5892 -0.8289  1.4671
   15CHTO   C88 6081   4.805  -0.791   3.835  0.3740 -0.6130  0.4392
   15CHTO   O58 6082   4.661  -0.818   3.884  0.9461 -0.2331  0.3764
   15CHTO  H136 6083   4.623  -0.739   3.911  1.0246 -0.6847  0.4324
   15CHTO   O51 6084   5.142  -0.851   3.510 -0.2518  0.5477 -0.0182
   15CHTO   C78 6085   5.135  -0.707   3.455  0.0799  0.5047 -0.1234
   15CHTO  H150 6086   5.033  -0.663   3.452  1.7557 -0.1567 -0.6045
   15CHTO   C80 6087   5.187  -0.716   3.312 -0.9431  0.4640  1.1199
   15CHTO  H152 6088   5.277  -0.790   3.310 -0.9494 -1.8651  0.0547
   15CHTO   O55 6089   5.083  -0.767   3.234 -0.6580  0.0770 -0.0519
   15CHTO  H134 6090   5.024  -0.705   3.197  0.8583  1.2374  0.4212
   15CHTO   C84 6091   5.234  -0.574   3.256 -0.2626  0.3466 -0.1737
   15CHTO  H156 6092   5.144  -0.517   3.242 -0.7172  0.8423  0.5545
   15CHTO   N15 6093   5.294  -0.583   3.119 -0.0098 -0.1848 -0.5173
   15CHTO  H143 6094   5.278  -0.492   3.061 -3.3258 -2.3258  1.1754
   15CHTO  H144 6095   5.398  -0.602   3.126 -1.5693 -1.0585 -0.7113
   15CHTO   C87 6096   5.332  -0.518   3.359  0.0613 -0.2999 -0.1580
   15CHTO  H159 6097   5.415  -0.587   3.369  2.0879  1.1391 -0.6167
   15CHTO   O53 6098   5.256  -0.495   3.480  0.4320  0.0619 -0.7479
   15CHTO   C82 6099   5.227  -0.622   3.544 -0.7862  0.7699 -0.1043
   15CHTO  H154 6100   5.322  -0.676   3.560  2.0005 -1.3317  2.3930
   15CHTO   C89 6101   5.160  -0.611   3.672  0.0751 -0.9663  0.7027
   15CHTO   O59 6102   5.263  -0.574   3.768  0.1994  0.9671 -0.1886
   15CHTO  H137 6103   5.221  -0.575   3.853 -2.0509 -0.0404 -0.0343
   15CHTO   O45 6104   5.405  -0.366   3.299  0.0277  0.0368 -0.9196
   15CHTO   C67 6105   5.491  -0.310   3.403 -0.9325  0.1139 -0.1883
   15CHTO  H124 6106   5.472  -0.362   3.496 -0.0851  1.4602  2.1526
   15CHTO   C65 6107   5.633  -0.343   3.360  0.4786  0.0391 -0.8264
   15CHTO  H122 6108   5.631  -0.336   3.252 -0.9898 -0.6913 -0.3320
   15CHTO   O44 6109   5.651  -0.483   3.399  0.7132  0.5532  0.1951
   15CHTO  H102 6110   5.666  -0.491   3.492  2.2595 -0.7432 -0.6042
   15CHTO   C63 6111   5.738  -0.238   3.408  0.1715 -0.4088 -0.9398
   15CHTO  H120 6112   5.736  -0.155   3.340 -0.5493  2.4051 -0.2700
   15CHTO   N11 6113   5.879  -0.274   3.407 -0.4485  0.4606  1.1706
   15CHTO  H108 6114   5.929  -0.201   3.339  0.7143 -0.8271 -1.5845
   15CHTO  H109 6115   5.886  -0.358   3.333  1.3866  1.5475  0.5999
   15CHTO   C61 6116   5.689  -0.181   3.543 -0.0492 -0.7424 -0.7382
   15CHTO  H118 6117   5.760  -0.099   3.567 -0.6641 -1.1629 -1.1350
   15CHTO   O40 6118   5.554  -0.109   3.532  0.2629  0.0971 -0.4085
   15CHTO   C68 6119   5.468  -0.160   3.426 -0.0134 -0.3003 -0.3074
   15CHTO  H125 6120   5.491  -0.095   3.337 -0.4305  2.5527 -2.2123
   15CHTO   C72 6121   5.325  -0.115   3.469 -0.0265  0.1201 -0.0729
   15CHTO   O48 6122   5.318   0.021   3.493 -0.0038  0.1361  0.0631
   15CHTO  H105 6123   5.234   0.047   3.472  3.9134 -2.9086 -1.1110
   15CHTO   O38 6124   5.679  -0.275   3.656 -0.3862  0.0199  0.4422
   15CHTO   C55 6125   5.701  -0.212   3.780 -0.0277 -0.3967  0.3048
   15CHTO  H112 6126   5.680  -0.099   3.765  0.8855  3.6475  1.3892
   15CHTO   C56 6127   5.843  -0.234   3.838  0.4511  0.2528  0.2352
   15CHTO  H113 6128   5.849  -0.339   3.860 -1.0377 -0.8934  1.9468
   15CHTO   O42 6129   5.948  -0.208   3.741  0.0660 -0.2559  0.1235
   15CHTO  H100 6130   6.025  -0.224   3.785 -1.9138 -2.0551  0.9243
   15CHTO   C57 6131   5.861  -0.147   3.972  0.4716  0.7821  0.0402
   15CHTO  H114 6132   5.862  -0.040   3.955 -1.0338  0.9446  1.2759
   15CHTO   N10 6133   5.985  -0.178   4.047  0.0053  0.4473 -0.3647
   15CHTO  H106 6134   6.071  -0.114   4.030 -1.3049  1.6895  2.9543
   15CHTO  H107 6135   5.965  -0.173   4.154 -1.7388  0.5208  1.0799
   15CHTO   C58 6136   5.741  -0.170   4.057  0.6652 -0.3054 -0.2393
   15CHTO  H115 6137   5.749  -0.270   4.108 -0.5483  1.2136  1.3280
   15CHTO   O37 6138   5.610  -0.166   3.992  0.1649  0.2667 -0.5086
   15CHTO   C59 6139   5.591  -0.258   3.884  0.4132 -0.0808  0.2843
   15CHTO  H116 6140   5.603  -0.355   3.927 -2.0642  1.7785  1.8111
   15CHTO   C70 6141   5.456  -0.265   3.821 -0.7598 -1.0567 -0.2329
   15CHTO   O46 6142   5.347  -0.312   3.902 -0.3174  0.3479  0.5248
   15CHTO  H103 6143   5.367  -0.400   3.928  0.5582 -3.1865 -2.4286
   15CHTO   O39 6144   5.736  -0.054   4.165  0.5177 -0.2064 -0.1465
   15CHTO   C60 6145   5.663  -0.092   4.287  0.3789 -0.1668 -0.1258
   15CHTO  H117 6146   5.596  -0.164   4.256 -0.4954  2.2326 -0.0790
   15CHTO   C62 6147   5.762  -0.161   4.389  0.2089  0.0089 -0.4569
   15CHTO  H119 6148   5.832  -0.238   4.343  2.0734  0.2876 -2.1149
   15CHTO   O43 6149   5.858  -0.053   4.412  0.2206  0.4208 -0.5305
   15CHTO  H101 6150   5.920  -0.048   4.348 -3.5502  2.6634  1.1866
   15CHTO   C66 6151   5.679  -0.217   4.511 -0.5985  0.1489 -0.1277
   15CHTO  H123 6152   5.614  -0.298   4.468  1.6757 -1.5271 -1.2622
   15CHTO   N12 6153   5.771  -0.293   4.607 -0.0697  0.0927  0.2109
   15CHTO  H110 6154   5.795  -0.395   4.586  0.8369  1.2239 -2.8029
   15CHTO  H111 6155   5.861  -0.235   4.619  1.3309 -1.3388 -3.5186
   15CHTO   C69 6156   5.592  -0.106   4.580  0.9439 -0.0540  0.2553
   15CHTO  H126 6157   5.670  -0.038   4.615 -0.7556 -0.4591  0.3947
   15CHTO   O41 6158   5.500  -0.036   4.472  0.1791  0.8937 -0.7026
   15CHTO   C64 6159   5.577   0.025   4.356  0.6556  0.2197 -0.1676
   15CHTO  H121 6160   5.646   0.106   4.374  1.0735  0.0619 -0.8236
   15CHTO   C71 6161   5.480   0.081   4.248 -0.9284  0.0037  0.0336
   15CHTO   O47 6162   5.418   0.206   4.297 -0.5612  0.2718  0.0908
   15CHTO  H104 6163   5.385   0.249   4.225 -1.5691 -0.9039 -0.1370
   15CHTO   O34 6164   5.513  -0.153   4.715  0.5720 -0.2600  0.8264
   15CHTO   C49 6165   5.430  -0.140   4.823 -0.3784 -0.3414 -0.2400
   15CHTO   H91 6166   5.494  -0.102   4.905  1.3201 -2.8544  0.4899
   15CHTO   C47 6167   5.363  -0.279   4.856  0.0757  0.2323 -0.0689
   15CHTO   H89 6168   5.294  -0.266   4.954 -0.1752 -2.0831 -1.4138
   15CHTO   O33 6169   5.467  -0.376   4.873  0.7429 -0.2390 -0.6187
   15CHTO   H70 6170   5.447  -0.456   4.917  1.0694 -2.5721 -1.1014
   15CHTO   C45 6171   5.269  -0.332   4.745  0.4218 -0.3931 -0.2452
   15CHTO   H87 6172   5.311  -0.407   4.683 -2.1080  1.8283 -2.2467
   15CHTO    N8 6173   5.149  -0.395   4.804 -0.0425 -0.0733  0.5867
   15CHTO   H75 6174   5.165  -0.500   4.789  2.1930  0.0532  0.1427
   15CHTO   H76 6175   5.147  -0.387   4.911 -0.5366 -1.4740 -0.0390
   15CHTO   C43 6176   5.235  -0.210   4.641 -0.4208  0.4670  0.0840
   15CHTO   H85 6177   5.320  -0.195   4.580 -1.3892  0.4235  0.8498
   15CHTO   O29 6178   5.204  -0.092   4.716 -0.3313 -0.0524  0.0931
   15CHTO   C50 6179   5.319  -0.039   4.789 -0.3775 -0.2468 -0.0290
   15CHTO   H92 6180   5.355   0.043   4.721  1.2326  2.0989  0.2104
   15CHTO   C54 6181   5.268   0.035   4.910  0.4109  0.6332 -0.8282
   15CHTO   O36 6182   5.365   0.123   4.969  0.7292  0.8043 -0.1484
   15CHTO   H72 6183   5.341   0.166   5.049 -0.2863 -0.3808  0.6507
   15CHTO   O27 6184   5.123  -0.237   4.552  0.5863  0.0516 -0.0656
   15CHTO   C37 6185   5.144  -0.251   4.413  1.1187 -0.4380 -0.3728
   15CHTO   H79 6186   5.238  -0.206   4.382 -2.8326  0.2913  0.1619
   15CHTO   C38 6187   5.153  -0.408   4.374 -0.1927 -0.0579  0.0548
   15CHTO   H80 6188   5.066  -0.456   4.402  0.1233 -2.2293 -2.9776
   15CHTO   O31 6189   5.260  -0.469   4.452 -0.1603  0.4770  0.1968
   15CHTO   H68 6190   5.339  -0.441   4.411 -2.5196  0.2747  1.0482
   15CHTO   C39 6191   5.169  -0.410   4.217  0.8110  0.0280  0.0498
   15CHTO   H81 6192   5.259  -0.348   4.208  1.6817  2.5452  0.6605
   15CHTO    N7 6193   5.177  -0.552   4.164  0.1351  0.2492  0.2425
   15CHTO   H73 6194   5.268  -0.600   4.208  0.2149  0.7993 -0.1705
   15CHTO   H74 6195   5.208  -0.550   4.062 -1.0314  0.0914  0.5598
   15CHTO   C40 6196   5.052  -0.325   4.150 -0.1191  0.6578  1.0014
   15CHTO   H82 6197   4.968  -0.381   4.196  3.8831  1.0833  0.1573
   15CHTO   O26 6198   5.057  -0.186   4.191 -0.2489 -0.1104  0.1704
   15CHTO   C41 6199   5.025  -0.179   4.337  0.2335 -0.3415  0.9077
   15CHTO   H83 6200   4.929  -0.230   4.365  1.4351 -0.2374 -4.1873
   15CHTO   C52 6201   5.012  -0.025   4.369  0.1757  0.1513  0.1956
   15CHTO   O35 6202   5.155   0.043   4.308  0.3485  0.2998  0.3999
   15CHTO   H71 6203   5.140   0.138   4.312  0.5730 -0.0173 -1.1356
   15CHTO   O28 6204   5.067  -0.333   4.005  0.2171  0.0086 -0.3909
   15CHTO   C42 6205   4.958  -0.312   3.909  0.0004  0.0798 -0.2424
   15CHTO   H84 6206   4.977  -0.392   3.839 -0.9928 -1.4486  0.7453
   15CHTO   C44 6207   4.982  -0.182   3.834  0.2350 -1.3336 -0.0465
   15CHTO   H86 6208   4.981  -0.097   3.909 -0.0429  0.2217  0.6344
   15CHTO   O32 6209   5.107  -0.206   3.764 -0.0248  0.0238 -0.2216
   15CHTO   H69 6210   5.101  -0.173   3.678  0.7680  0.2453 -0.9097
   15CHTO   C48 6211   4.859  -0.145   3.738 -1.0195 -0.7378 -0.2391
   15CHTO   H90 6212   4.853  -0.218   3.653 -0.1019  0.3113 -2.5546
   15CHTO    N9 6213   4.889  -0.007   3.681 -0.9842 -0.1836  0.0509
   15CHTO   H77 6214   4.871   0.067   3.751 -0.3528 -2.0625 -0.3945
   15CHTO   H78 6215   4.992  -0.004   3.650  0.6739  0.6627 -0.7421
   15CHTO   C51 6216   4.722  -0.144   3.819 -0.6487  0.3382  0.4133
   15CHTO   H93 6217   4.733  -0.074   3.899  1.4661  1.7366  1.3064
   15CHTO   O30 6218   4.706  -0.279   3.866  0.3063  0.0798 -0.4237
   15CHTO   C46 6219   4.815  -0.325   3.965 -0.2328 -0.0843 -0.0158
   15CHTO   H88 6220   4.803  -0.261   4.051 -1.4804 -0.4836  1.1762
   15CHTO   C53 6221   4.799  -0.479   3.994  0.3767  0.2485  0.0627
   15CHTO   O72 6222   4.672  -0.506   4.054 -0.5021 -0.6286  0.2236
   15CHTO  H199 6223   4.642  -0.465   4.136  1.0612  0.4947  1.3529
   15CHTO   O22 6224   4.607  -0.108   3.735 -0.2317  0.4332 -0.4024
   15CHTO   C31 6225   4.477  -0.054   3.787  0.0395 -0.1243 -0.2877
   15CHTO   H59 6226   4.417  -0.038   3.699  0.0130 -0.1584  0.1367
   15CHTO   C29 6227   4.396  -0.155   3.875  0.1274 -0.1776 -0.1036
   15CHTO   H57 6228   4.462  -0.189   3.960  1.7777  0.5403  0.3703
   15CHTO   O21 6229   4.366  -0.271   3.797 -0.0596  0.2169 -0.4119
   15CHTO   H37 6230   4.304  -0.324   3.846 -2.4308  2.8005 -0.3413
   15CHTO   C27 6231   4.268  -0.089   3.935  0.7360 -0.5028 -0.1374
   15CHTO   H55 6232   4.199  -0.071   3.856 -0.7443  1.8737 -2.2344
   15CHTO    N5 6233   4.204  -0.174   4.041 -0.1216 -0.3734  0.1072
   15CHTO   H43 6234   4.111  -0.136   4.078  1.8443  3.2156 -5.0434
   15CHTO   H44 6235   4.275  -0.189   4.122 -0.2544  0.7165  2.7922
   15CHTO   C25 6236   4.307   0.053   4.000 -0.2677 -0.0408 -0.0771
   15CHTO   H53 6237   4.375   0.042   4.084 -2.8710  1.6199 -0.0586
   15CHTO   O17 6238   4.371   0.134   3.898  0.3634  0.1198 -0.4914
   15CHTO   C32 6239   4.500   0.087   3.849 -0.6046  0.6095  0.3141
   15CHTO   H60 6240   4.557   0.072   3.941 -0.4384 -0.9442  0.2934
   15CHTO   C36 6241   4.560   0.189   3.752  0.4002 -0.2284  0.0707
   15CHTO   O25 6242   4.574   0.305   3.831  0.2156 -0.2335 -0.0896
   15CHTO   H40 6243   4.582   0.384   3.778  0.0879  0.5192 -2.9205
   15CHTO   O15 6244   4.173   0.138   4.060 -0.1058  0.0417 -0.0866
   15CHTO   C19 6245   4.139   0.247   4.156  0.0066  0.1481 -0.2356
   15CHTO   H47 6246   4.037   0.267   4.124 -0.6468 -2.2644 -2.1820
   15CHTO   C20 6247   4.139   0.197   4.300 -0.1377 -0.3818  0.1764
   15CHTO   H48 6248   4.237   0.157   4.324 -0.9889 -0.2509  0.3475
   15CHTO   O19 6249   4.045   0.082   4.298 -0.3149  0.4088  0.3376
   15CHTO   H35 6250   4.054   0.025   4.370 -0.1347  2.1477  2.7130
   15CHTO   C21 6251   4.096   0.314   4.396 -0.4463  0.0757 -0.6265
   15CHTO   H49 6252   3.993   0.341   4.374 -0.2304 -0.1121 -1.1074
   15CHTO    N4 6253   4.089   0.264   4.535 -0.2143 -0.0907 -0.1672
   15CHTO   H41 6254   4.023   0.320   4.600  2.2240 -0.8375 -0.1725
   15CHTO   H42 6255   4.188   0.258   4.578 -0.1341  0.1748 -1.1798
   15CHTO   C22 6256   4.194   0.429   4.376 -0.2127  0.4863  0.1875
   15CHTO   H50 6257   4.295   0.393   4.393  0.3376  2.0492 -1.8475
   15CHTO   O14 6258   4.179   0.477   4.241  0.5700 -0.1708 -0.5765
   15CHTO   C23 6259   4.213   0.375   4.139 -0.0794  0.7494  0.2894
   15CHTO   H51 6260   4.327   0.358   4.152  1.4889  1.0455  0.2581
   15CHTO   C34 6261   4.177   0.446   4.012  0.3907  0.1502 -0.0074
   15CHTO   O23 6262   4.266   0.558   3.994 -0.0990  0.7041  0.4178
   15CHTO   H38 6263   4.357   0.533   3.989 -0.1871 -0.0312  0.1513
   15CHTO   O16 6264   4.163   0.539   4.465 -0.0820 -0.5266 -0.2806
   15CHTO   C24 6265   4.276   0.638   4.467 -0.2420  0.7195  0.0645
   15CHTO   H52 6266   4.353   0.616   4.392  0.1336 -0.2649  0.3730
   15CHTO   C26 6267   4.333   0.633   4.602  0.8015 -0.7891 -1.2161
   15CHTO   H54 6268   4.250   0.653   4.677 -0.9839  2.4917 -1.5403
   15CHTO   O20 6269   4.398   0.506   4.630 -0.2300 -0.0523 -0.3145
   15CHTO   H36 6270   4.426   0.467   4.550  0.4173  1.0929  0.6753
   15CHTO   C30 6271   4.450   0.734   4.619 -0.0390  1.0915 -0.2531
   15CHTO   H58 6272   4.527   0.711   4.546 -1.1138  2.1501 -2.8246
   15CHTO    N6 6273   4.496   0.748   4.758 -0.7513  0.2388  0.0087
   15CHTO   H45 6274   4.586   0.808   4.760  1.8734  2.9976 -0.1307
   15CHTO   H46 6275   4.413   0.798   4.812  0.5963  1.9868 -1.5071
   15CHTO   C33 6276   4.403   0.874   4.563  0.7035 -0.0639 -0.3290
   15CHTO   H61 6277   4.328   0.924   4.633 -3.0487  0.5431 -2.9339
   15CHTO   O18 6278   4.337   0.863   4.440 -0.3318  0.0864 -0.4338
   15CHTO   C28 6279   4.218   0.780   4.440 -0.2887 -0.5623 -0.5076
   15CHTO   H56 6280   4.152   0.809   4.523  0.9173 -1.5214 -0.6166
   15CHTO   C35 6281   4.140   0.794   4.306  0.1234  0.0406  0.4578
   15CHTO   O24 6282   4.094   0.931   4.283  0.4377 -0.2699  0.0269
   15CHTO   H39 6283   4.002   0.937   4.267 -2.4434 -2.3527  0.3344
   15CHTO    O9 6284   4.510   0.964   4.556  0.3278 -0.3549  0.1753
   15CHTO   C13 6285   4.457   1.114   4.527 -0.8361  0.3602 -0.0421
   15CHTO   H26 6286   4.360   1.128   4.581  2.9729  0.2865  1.1290
   15CHTO   C11 6287   4.452   1.147   4.377 -0.7832  0.0921 -0.2946
   15CHTO   H24 6288   4.380   1.070   4.332  2.6634 -3.9982  0.3123
   15CHTO    O8 6289   4.565   1.102   4.305 -0.1822 -0.7620 -0.0516
   15CHTO    H3 6290   4.546   1.115   4.218 -0.5162 -1.1975 -0.4535
   15CHTO    C9 6291   4.406   1.295   4.361  0.1737  0.3509  0.3719
   15CHTO   H22 6292   4.318   1.302   4.417  1.8319 -0.9941  0.2446
   15CHTO    N2 6293   4.355   1.342   4.230  0.3294  0.8523  0.4706
   15CHTO   H10 6294   4.250   1.344   4.234  0.7582 -0.9188 -1.6862
   15CHTO   H11 6295   4.392   1.291   4.141  0.9099 -1.8007  0.2216
   15CHTO    C7 6296   4.519   1.385   4.419  0.2155 -0.0551 -0.5921
   15CHTO   H20 6297   4.481   1.486   4.414 -0.9588  0.5992  0.7107
   15CHTO    O4 6298   4.532   1.360   4.557  0.3792 -0.1061 -0.2893
   15CHTO   C14 6299   4.551   1.228   4.608  0.1643  0.9194 -0.2514
   15CHTO   H27 6300   4.527   1.212   4.722  0.1666  2.5787 -1.2597
   15CHTO   C18 6301   4.699   1.187   4.593  0.2726 -0.2924 -0.0027
   15CHTO   O13 6302   4.775   1.250   4.698 -0.2886 -0.0443  0.0884
   15CHTO    H7 6303   4.853   1.281   4.665 -2.4635 -1.0485  1.1748
   15CHTO    O2 6304   4.685   1.371   4.334  0.2838 -0.1308 -0.2180
   15CHTO    C1 6305   4.708   1.476   4.240 -0.4418  0.6454 -0.5549
   15CHTO   H14 6306   4.609   1.530   4.223 -1.8974  0.6526 -0.6480
   15CHTO    C2 6307   4.771   1.431   4.105  0.2691  0.9140  0.2834
   15CHTO   H15 6308   4.854   1.371   4.140 -0.2490 -0.1821 -2.0407
   15CHTO    O6 6309   4.671   1.361   4.030 -0.0849 -0.2632  0.1518
   15CHTO    H1 6310   4.690   1.271   4.014  0.6838 -0.6331  1.1578
   15CHTO    C3 6311   4.816   1.551   4.013 -0.2704 -0.1072  0.0581
   15CHTO   H16 6312   4.730   1.608   3.978 -0.2985  1.9850  0.9300
   15CHTO    N1 6313   4.889   1.495   3.894 -0.3993  0.0615  0.0516
   15CHTO    H8 6314   4.810   1.461   3.826 -1.8832  0.3370  0.9535
   15CHTO    H9 6315   4.947   1.568   3.839  2.3713  0.5559  1.1310
   15CHTO    C4 6316   4.906   1.651   4.082  0.7054 -0.0341  0.6116
   15CHTO   H17 6317   5.005   1.610   4.100 -1.8023 -0.3701  0.3537
   15CHTO    O1 6318   4.843   1.686   4.205  0.3312 -0.2102  0.0849
   15CHTO    C5 6319   4.807   1.587   4.302  0.2112  0.5616 -0.5504
   15CHTO   H18 6320   4.892   1.531   4.339 -2.0510  1.7137 -0.0507
   15CHTO   C16 6321   4.741   1.648   4.418 -0.1578  0.1013 -0.3028
   15CHTO   O11 6322   4.820   1.758   4.476  0.6222 -0.0005 -0.1143
   15CHTO    H5 6323   4.781   1.840   4.446 -0.1215  1.1323  2.7426
   15CHTO    O3 6324   4.910   1.773   4.004 -0.0431 -0.5048 -0.3338
   15CHTO    C6 6325   5.018   1.868   4.035 -0.4082 -0.4652 -0.4620
   15CHTO   H19 6326   5.032   1.867   4.138  0.1774  1.7045 -1.8223
   15CHTO    C8 6327   5.150   1.825   3.956  0.1697 -0.3241  0.5755
   15CHTO   H21 6328   5.119   1.819   3.851 -1.7648  0.2338  2.5904
   15CHTO    O7 6329   5.206   1.702   3.998 -0.2681 -0.0590  0.0082
   15CHTO    H2 6330   5.137   1.647   4.026 -0.9083 -2.6210  2.4127
   15CHTO   C12 6331   5.259   1.940   3.981  0.0229  0.1309  0.7223
   15CHTO   H25 6332   5.296   1.918   4.076  1.9866 -2.6227  0.5728
   15CHTO    N3 6333   5.378   1.929   3.891  0.4979 -0.4278 -0.1075
   15CHTO   H12 6334   5.442   2.010   3.918 -2.4512 -1.1842  0.4032
   15CHTO   H13 6335   5.356   1.938   3.785  0.1218 -1.4003 -1.1583
   15CHTO   C15 6336   5.202   2.085   3.979 -0.4133  0.5375  0.3608
   15CHTO   H28 6337   5.197   2.122   3.880  4.8975  1.0242  0.9864
   15CHTO   O10 6338   5.290   2.179   4.064 -0.0165  0.2067 -0.3454
   15CHTO    H4 6339   5.384   2.180   4.055  2.2191  0.1071  0.1868
   15CHTO    O5 6340   5.076   2.098   4.041 -0.4133  0.6492 -0.6597
   15CHTO   C10 6341   4.976   2.004   3.991 -0.4906 -0.4528  0.3517
   15CHTO   H23 6342   4.965   2.003   3.886 -1.1459 -0.1894  1.8463
   15CHTO   C17 6343   4.841   2.039   4.047  0.1332  0.2697  0.5906
   15CHTO   O12 6344   4.808   2.179   4.017 -0.1948 -0.0645  0.2306
   15CHTO    H6 6345   4.723   2.207   4.053  1.4291 -1.5710  1.6579
   16CHTO  H203 6346   4.285   9.126   4.060 -2.3684  2.5522  0.3348
   16CHTO   O82 6347   4.222   9.095   4.124  0.3353  0.1903  0.0224
   16CHTO  C123 6348   4.197   9.204   4.216 -0.0564 -0.3443 -0.8540
   16CHTO  H227 6349   4.135   9.164   4.291 -1.2200  0.6974 -0.2135
   16CHTO   O77 6350   4.331   9.242   4.266 -0.7901 -0.4259 -1.0471
   16CHTO  C118 6351   4.316   9.325   4.380  0.2009  0.8008 -0.0856
   16CHTO  H222 6352   4.245   9.276   4.450 -1.0006 -1.8838  3.8731
   16CHTO  C125 6353   4.467   9.329   4.444 -0.4466 -0.4256  0.5299
   16CHTO   O84 6354   4.527   9.204   4.484  0.7988  0.8218  0.2822
   16CHTO  H205 6355   4.519   9.135   4.414  1.0454  0.0154  0.8372
   16CHTO  C114 6356   4.255   9.459   4.333 -0.3815  0.0482  0.1116
   16CHTO  H218 6357   4.324   9.504   4.262 -0.7553 -0.5334  2.0530
   16CHTO  C116 6358   4.113   9.440   4.265  0.1531  0.4184 -0.5054
   16CHTO  H220 6359   4.046   9.411   4.339  0.3633  2.4316 -0.7057
   16CHTO   O79 6360   4.077   9.572   4.220 -0.3728  0.8180 -0.0913
   16CHTO  H201 6361   4.003   9.557   4.163  0.9179  0.4042 -0.5909
   16CHTO  C120 6362   4.130   9.331   4.156 -0.2058  0.4710  0.8572
   16CHTO  H224 6363   4.180   9.378   4.082 -0.8759  2.0606 -0.6363
   16CHTO   N21 6364   3.998   9.301   4.089 -0.3827 -0.7161 -0.4983
   16CHTO  H211 6365   3.938   9.388   4.065  0.6065  1.3115 -2.1258
   16CHTO  H212 6366   4.014   9.233   4.004  3.7636  0.3179  0.8924
   16CHTO   O75 6367   4.254   9.533   4.452 -0.2259  0.3680 -0.2137
   16CHTO  C112 6368   4.279   9.684   4.421 -0.3515  0.1920 -0.1742
   16CHTO  H216 6369   4.218   9.719   4.330 -0.2441  1.9634 -0.1419
   16CHTO   O73 6370   4.416   9.693   4.404  0.2103  0.0155  0.2792
   16CHTO  C113 6371   4.462   9.810   4.345 -0.5684  1.2551  0.0156
   16CHTO  H217 6372   4.408   9.825   4.258 -0.6872  0.8547 -0.4230
   16CHTO  C124 6373   4.607   9.786   4.299  0.0794 -0.3396  0.0120
   16CHTO   O83 6374   4.666   9.889   4.223 -0.0385  0.9938  0.3498
   16CHTO  H204 6375   4.624   9.889   4.139 -2.0457  3.6881  0.0626
   16CHTO  C109 6376   4.440   9.924   4.453  0.0225 -1.2761  0.0333
   16CHTO  H213 6377   4.515   9.914   4.528 -0.2276 -0.8087 -2.0077
   16CHTO  C110 6378   4.296   9.917   4.511  0.8942 -0.2850  0.0690
   16CHTO  H214 6379   4.233   9.966   4.439 -2.3274  0.0643  0.2039
   16CHTO   O78 6380   4.292   9.992   4.634  0.2702 -0.3227 -0.7949
   16CHTO  H200 6381   4.212  10.039   4.646  4.0609 -1.9861  1.4614
   16CHTO  C111 6382   4.242   9.775   4.540 -0.0217  0.3686 -0.5663
   16CHTO  H215 6383   4.296   9.737   4.625 -2.1899 -2.8553 -3.2792
   16CHTO   N19 6384   4.098   9.771   4.581  0.6744  0.2191 -0.3626
   16CHTO  H207 6385   4.063   9.674   4.607 -0.0733 -0.2338 -0.8625
   16CHTO  H208 6386   4.043   9.827   4.507 -0.0138  0.1929  1.0237
   16CHTO   O74 6387   4.459  10.058   4.390 -0.5011  0.3304 -0.3011
   16CHTO  C115 6388   4.610  10.120   4.434  0.6795  0.2634  0.7841
   16CHTO  H219 6389   4.666  10.050   4.478 -2.2607 -1.0148 -0.1414
   16CHTO   O76 6390   4.692  10.156   4.314  0.2151 -0.3826 -0.1224
   16CHTO  C122 6391   4.666  10.279   4.253  0.1820  0.5560  0.2977
   16CHTO  H226 6392   4.564  10.265   4.219  2.4202 -0.9395 -1.9219
   16CHTO  C126 6393   4.753  10.299   4.126 -0.2662 -0.6037  0.6948
   16CHTO   O85 6394   4.898  10.313   4.137  0.6954 -0.2185 -0.3429
   16CHTO  H206 6395   4.933  10.272   4.063  1.7788  0.4490  0.6078
   16CHTO  C121 6396   4.687  10.398   4.351  0.6368  0.4542  0.2677
   16CHTO  H225 6397   4.786  10.450   4.324  0.9906  1.1887  0.1291
   16CHTO   O81 6398   4.573  10.486   4.332 -0.1838 -0.1407  0.1694
   16CHTO  H202 6399   4.563  10.517   4.246  0.4369  2.0231 -0.0227
   16CHTO  C119 6400   4.699  10.354   4.496  0.3906  0.1716 -0.3624
   16CHTO  H223 6401   4.799  10.303   4.504  1.5595 -2.0635 -2.0188
   16CHTO  C117 6402   4.591  10.242   4.524 -1.5255 -0.1590 -0.0306
   16CHTO  H221 6403   4.484  10.266   4.503  0.2229  2.1444 -0.8301
   16CHTO   N20 6404   4.598  10.205   4.676  0.1477 -0.1386  0.0580
   16CHTO  H209 6405   4.498  10.199   4.718 -1.2187  0.6958  1.6805
   16CHTO  H210 6406   4.649  10.269   4.737 -0.2396  0.4948  1.0804
   16CHTO   O80 6407   4.714  10.482   4.586 -0.3872 -0.1142 -0.3837
   16CHTO  C103 6408   4.867  10.571   4.585  0.3019 -0.4482 -0.4787
   16CHTO  H190 6409   4.947  10.526   4.529 -1.2342  0.4327  1.5585
   16CHTO  C101 6410   4.849  10.725   4.541  0.2101 -0.1093 -0.3661
   16CHTO  H188 6411   4.775  10.779   4.594 -2.1420 -0.2685 -0.9038
   16CHTO   O68 6412   4.806  10.733   4.397 -0.3366  0.0263 -0.1331
   16CHTO  H168 6413   4.849  10.670   4.340 -3.4789 -2.2883  0.1009
   16CHTO   C99 6414   4.974  10.803   4.576 -0.4040  0.5700 -0.1574
   16CHTO  H186 6415   5.056  10.753   4.524 -0.9899  1.6718  1.1926
   16CHTO   N17 6416   4.977  10.940   4.529  0.1713  0.2134  0.4704
   16CHTO  H174 6417   4.879  10.969   4.504 -2.2509  0.0062  0.8646
   16CHTO  H175 6418   5.050  10.953   4.453 -0.4628  0.0483 -0.2317
   16CHTO   C97 6419   5.009  10.788   4.724  1.0324 -0.2501  0.5882
   16CHTO  H184 6420   4.930  10.834   4.788 -1.5604 -1.2477 -0.7752
   16CHTO   O64 6421   5.030  10.649   4.752  0.2031  0.3293  0.1191
   16CHTO  C104 6422   4.908  10.568   4.734  0.0121 -0.4110  0.0978
   16CHTO  H191 6423   4.828  10.604   4.792 -0.5499  1.7256 -1.4879
   16CHTO  C108 6424   4.930  10.428   4.776  0.1307  0.0791 -0.1802
   16CHTO   O71 6425   4.971  10.411   4.914  0.0095  0.3443  0.4098
   16CHTO  H171 6426   4.972  10.324   4.943  0.8363 -0.6815 -1.9755
   16CHTO   O62 6427   5.137  10.844   4.756  0.1954 -0.4806  0.0923
   16CHTO   C91 6428   5.161  10.864   4.894 -0.4770  1.0330 -0.1488
   16CHTO  H178 6429   5.066  10.853   4.949 -4.7697 -0.5651 -0.3084
   16CHTO   C92 6430   5.223  11.007   4.914  0.2684 -0.0504  0.3784
   16CHTO  H179 6431   5.158  11.068   4.848  0.5256 -0.8043 -1.5924
   16CHTO   O66 6432   5.204  11.061   5.042  0.4235 -0.0628 -0.1408
   16CHTO  H166 6433   5.262  11.131   5.058  1.2399 -2.4598 -1.1973
   16CHTO   C93 6434   5.384  11.016   4.894 -0.1239 -0.1486  0.5358
   16CHTO  H180 6435   5.411  11.108   4.940  0.4036  1.0132  1.4595
   16CHTO   N16 6436   5.428  11.038   4.757 -0.0124 -0.0464 -0.1611
   16CHTO  H172 6437   5.525  11.071   4.748  0.5273 -1.1154  0.0247
   16CHTO  H173 6438   5.360  11.113   4.712  0.5426  0.9224 -0.5541
   16CHTO   C94 6439   5.458  10.893   4.962 -0.3308 -0.0780 -0.0578
   16CHTO  H181 6440   5.513  10.825   4.888  2.4304 -1.7927 -0.5020
   16CHTO   O61 6441   5.367  10.807   5.037 -0.5271 -0.0008 -0.2454
   16CHTO   C95 6442   5.258  10.753   4.957 -0.5702  0.1353 -0.0438
   16CHTO  H182 6443   5.307  10.697   4.876 -0.4991  0.1599 -0.8660
   16CHTO  C106 6444   5.174  10.650   5.035  0.0158 -0.3477 -0.0311
   16CHTO   O69 6445   5.111  10.700   5.153 -0.1536 -0.1084 -0.0569
   16CHTO  H169 6446   5.055  10.643   5.194 -2.9435  1.0005 -0.3105
   16CHTO   O63 6447   5.574  10.955   5.043 -0.2712  0.4335 -0.1619
   16CHTO   C96 6448   5.649  10.851   5.152 -0.5966  0.4719  0.2360
   16CHTO  H183 6449   5.674  10.758   5.096  0.9599 -3.9725  0.0435
   16CHTO   C98 6450   5.565  10.821   5.278  0.9910 -0.6858 -0.1808
   16CHTO  H185 6451   5.470  10.762   5.253 -0.8210  0.8116 -0.4295
   16CHTO   O67 6452   5.644  10.736   5.370 -0.2923  0.0765  0.1133
   16CHTO  H167 6453   5.733  10.752   5.370  1.2758  3.0866  0.0791
   16CHTO  C102 6454   5.532  10.948   5.363 -0.0404  0.4470  0.2035
   16CHTO  H189 6455   5.516  10.907   5.457 -0.4466 -2.0496  2.1682
   16CHTO   N18 6456   5.411  11.029   5.324 -0.0396  0.3550 -0.2375
   16CHTO  H176 6457   5.311  10.983   5.327 -5.2522 -1.4358  0.7458
   16CHTO  H177 6458   5.431  11.052   5.225 -1.8197 -0.6844  1.4491
   16CHTO  C105 6459   5.662  11.039   5.375 -0.2554  0.3618 -0.0103
   16CHTO  H192 6460   5.655  11.127   5.310 -3.0353 -1.0951 -2.3069
   16CHTO   O65 6461   5.783  10.974   5.334  0.2598  0.0786 -0.1932
   16CHTO  C100 6462   5.782  10.928   5.196  0.8588 -0.1779  0.1860
   16CHTO  H187 6463   5.785  11.015   5.135 -2.0446  1.3469  3.0303
   16CHTO  C107 6464   5.912  10.836   5.180 -0.1423 -0.0344 -0.3745
   16CHTO   O70 6465   5.900  10.699   5.223  0.1193 -0.0286 -0.1278
   16CHTO  H170 6466   5.896  10.699   5.319  3.7786  2.7660  0.3716
   16CHTO   O57 6467   5.667  11.085   5.526 -0.4447 -0.4802  0.3387
   16CHTO   C85 6468   5.716  11.212   5.571 -0.0582 -0.1236  0.2565
   16CHTO  H157 6469   5.783  11.249   5.499  0.3000 -2.1468  1.0895
   16CHTO   C83 6470   5.798  11.190   5.701 -0.1608 -0.0654  0.3107
   16CHTO  H155 6471   5.893  11.143   5.679  3.5479  0.2773 -1.2131
   16CHTO   O56 6472   5.730  11.097   5.790 -0.3003  0.1195 -0.6085
   16CHTO  H135 6473   5.686  11.036   5.742 -0.1868  1.7350 -0.0400
   16CHTO   C81 6474   5.832  11.322   5.771 -0.1814 -0.2510  0.0491
   16CHTO  H153 6475   5.890  11.382   5.711  1.8515 -2.0017  1.3888
   16CHTO   N14 6476   5.918  11.309   5.891 -0.1001  0.5853 -0.1645
   16CHTO  H141 6477   5.865  11.241   5.954  1.4364 -2.0888 -1.5411
   16CHTO  H142 6478   5.928  11.406   5.941  0.3313 -0.8699 -0.1907
   16CHTO   C79 6479   5.694  11.389   5.802  0.4008 -0.5701 -0.6478
   16CHTO  H151 6480   5.717  11.471   5.868 -1.2196 -3.5433 -0.5500
   16CHTO   O52 6481   5.639  11.429   5.674  0.1642 -0.1567  0.6523
   16CHTO   C86 6482   5.600  11.316   5.595 -0.2893 -0.0335 -0.0721
   16CHTO  H158 6483   5.517  11.275   5.649 -1.3205  1.0557 -1.6771
   16CHTO   C90 6484   5.531  11.365   5.465  0.0786  0.1914 -0.6802
   16CHTO   O60 6485   5.423  11.455   5.493 -0.1223 -0.5496  0.1486
   16CHTO  H138 6486   5.359  11.452   5.423 -4.1463 -0.5039  3.3254
   16CHTO   O50 6487   5.606  11.319   5.890 -0.2282  0.4204 -0.2148
   16CHTO   C73 6488   5.561  11.270   6.019  0.2092  0.9044  0.4173
   16CHTO  H145 6489   5.646  11.222   6.066 -1.9124  0.3401  1.2512
   16CHTO   C74 6490   5.448  11.159   5.996 -0.6950  0.7584  1.0044
   16CHTO  H146 6491   5.492  11.079   5.931  4.1004 -2.2845  0.7522
   16CHTO   O54 6492   5.429  11.090   6.125  0.0113 -0.1113 -0.3938
   16CHTO  H133 6493   5.335  11.087   6.139 -1.3953  2.4233 -2.0839
   16CHTO   C75 6494   5.315  11.231   5.933 -0.3244 -0.3294  0.0123
   16CHTO  H147 6495   5.349  11.280   5.839  2.2156 -0.5593  1.5712
   16CHTO   N13 6496   5.202  11.146   5.894  0.5360 -0.0786 -0.2875
   16CHTO  H139 6497   5.201  11.051   5.951 -2.2230 -0.4204 -0.2003
   16CHTO  H140 6498   5.111  11.206   5.915 -1.6566 -0.8023 -0.3093
   16CHTO   C76 6499   5.283  11.357   6.033  0.2354 -0.1049 -0.0310
   16CHTO  H148 6500   5.252  11.309   6.128  1.2689  0.4122  1.4606
   16CHTO   O49 6501   5.403  11.442   6.063  0.3284 -0.4811  0.2785
   16CHTO   C77 6502   5.512  11.374   6.117 -0.1671  0.2190  0.1828
   16CHTO  H149 6503   5.469  11.324   6.197  0.7823  1.0078 -3.1848
   16CHTO   C88 6504   5.625  11.467   6.155 -0.1597  0.1895  0.2510
   16CHTO   O58 6505   5.695  11.402   6.276  0.0892 -0.0318  0.3630
   16CHTO  H136 6506   5.790  11.419   6.279 -1.3091  0.7399 -0.7283
   16CHTO   O51 6507   5.164  11.450   5.956 -0.0139  0.1956 -0.2074
   16CHTO   C78 6508   5.129  11.596   6.037 -0.1187  0.2942 -0.0324
   16CHTO  H150 6509   5.221  11.626   6.092  0.6584  0.8499  1.7352
   16CHTO   C80 6510   5.012  11.595   6.137  0.3915 -0.0610  0.0862
   16CHTO  H152 6511   4.926  11.555   6.084 -0.6235 -2.0667  1.3071
   16CHTO   O55 6512   5.047  11.508   6.246 -1.1638 -0.7499  0.2128
   16CHTO  H134 6513   5.127  11.539   6.282 -1.2771 -1.3493  0.8661
   16CHTO   C84 6514   4.977  11.741   6.188 -0.2732 -0.0731  0.8778
   16CHTO  H156 6515   5.070  11.770   6.232 -1.9689  3.4536 -1.0123
   16CHTO   N15 6516   4.869  11.750   6.286 -0.4675  0.0872 -0.0839
   16CHTO  H143 6517   4.862  11.847   6.330 -2.3487  1.9976  1.4163
   16CHTO  H144 6518   4.880  11.680   6.364 -0.1979  0.1710 -1.7376
   16CHTO   C87 6519   4.958  11.847   6.075  0.6033  0.0590  0.0104
   16CHTO  H159 6520   4.865  11.839   6.015 -0.5642 -0.1387  0.7982
   16CHTO   O53 6521   5.087  11.833   5.985  0.6278 -0.0023  0.0712
   16CHTO   C82 6522   5.104  11.701   5.926  0.9754  0.1730 -0.0017
   16CHTO  H154 6523   5.019  11.668   5.864  1.0600 -0.6320  0.1682
   16CHTO   C89 6524   5.222  11.702   5.834  0.0944 -0.2346  0.2146
   16CHTO   O59 6525   5.192  11.771   5.714 -0.4155 -0.3857 -0.0141
   16CHTO  H137 6526   5.247  11.744   5.637  1.2165  0.6634  1.9171
   16CHTO   O45 6527   4.971  11.997   6.145 -0.3096 -0.6288  0.0235
   16CHTO   C67 6528   4.963  12.109   6.055 -0.4068  0.6042  0.5976
   16CHTO  H124 6529   5.004  12.082   5.964  0.0233  1.5222  1.5055
   16CHTO   C65 6530   4.826  12.184   6.028  0.0674  0.1305  0.0029
   16CHTO  H122 6531   4.776  12.188   6.125  1.7460 -3.3833 -1.1109
   16CHTO   O44 6532   4.760  12.093   5.933 -0.5332  0.0250  0.1709
   16CHTO  H102 6533   4.786  12.123   5.853 -2.2016  0.7447  1.6963
   16CHTO   C63 6534   4.838  12.334   5.977  0.0802 -0.1800 -0.0117
   16CHTO  H120 6535   4.839  12.397   6.065 -0.4149 -2.3630 -2.0186
   16CHTO   N11 6536   4.717  12.380   5.904  0.1294 -0.0422  1.2439
   16CHTO  H108 6537   4.695  12.312   5.826 -3.2339 -1.8227 -0.4223
   16CHTO  H109 6538   4.630  12.374   5.962  2.3434 -1.3956  0.2151
   16CHTO   C61 6539   4.983  12.356   5.911  0.4208 -0.8715 -0.6610
   16CHTO  H118 6540   4.991  12.467   5.889  0.8575  1.0473  0.6412
   16CHTO   O40 6541   5.080  12.329   6.018  0.3253 -0.3172  0.8971
   16CHTO   C68 6542   5.067  12.214   6.110 -0.4605  0.5168 -0.0599
   16CHTO  H125 6543   5.042  12.252   6.208  1.8781  0.8314  0.1687
   16CHTO   C72 6544   5.202  12.162   6.129 -0.4114  0.4479  0.1321
   16CHTO   O48 6545   5.297  12.243   6.200  0.0826  0.0988 -0.5019
   16CHTO  H105 6546   5.378  12.236   6.156  0.4005 -2.2189 -0.2855
   16CHTO   O38 6547   5.001  12.276   5.795  0.0918 -0.0936  0.6399
   16CHTO   C55 6548   5.083  12.323   5.689  0.1460 -0.3726 -0.0302
   16CHTO  H112 6549   5.157  12.393   5.733 -0.8291  2.2288  1.2465
   16CHTO   C56 6550   4.997  12.393   5.578  0.4348  0.1069  0.3625
   16CHTO  H113 6551   4.906  12.334   5.557  2.7428 -1.6693  0.8222
   16CHTO   O42 6552   4.956  12.519   5.626  0.0277 -0.3161  0.3334
   16CHTO  H100 6553   4.895  12.562   5.562 -1.6997 -0.5816  0.4308
   16CHTO   C57 6554   5.078  12.417   5.448 -0.5913  0.0832 -0.5800
   16CHTO  H114 6555   5.158  12.484   5.484  1.0986 -2.0947  2.1116
   16CHTO   N10 6556   5.003  12.478   5.344  0.3555  0.1834  0.3802
   16CHTO  H106 6557   4.899  12.446   5.341 -1.6564  0.2373 -3.3281
   16CHTO  H107 6558   5.008  12.582   5.365  1.7157 -1.3027 -2.0098
   16CHTO   C58 6559   5.147  12.283   5.403  0.7623 -0.0523 -0.2656
   16CHTO  H115 6560   5.063  12.210   5.384 -4.2680  3.8520 -1.4995
   16CHTO   O37 6561   5.231  12.242   5.508  0.4522  0.1859  0.3563
   16CHTO   C59 6562   5.161  12.209   5.631  0.0249  0.7897  0.0190
   16CHTO  H116 6563   5.091  12.127   5.613 -0.0680 -1.1240  0.9644
   16CHTO   C70 6564   5.277  12.168   5.723 -0.4030  0.1554  0.2926
   16CHTO   O46 6565   5.370  12.076   5.659 -0.3069 -0.6608 -0.5834
   16CHTO  H103 6566   5.444  12.047   5.710  1.6203 -0.3436 -1.9394
   16CHTO   O39 6567   5.239  12.290   5.284  0.0169 -0.3836 -0.9531
   16CHTO   C60 6568   5.271  12.157   5.241 -0.3842  0.3409  0.3243
   16CHTO  H117 6569   5.251  12.081   5.312  0.7805  1.6481 -0.2383
   16CHTO   C62 6570   5.173  12.124   5.122 -0.0633  1.1251  0.0786
   16CHTO  H119 6571   5.063  12.130   5.162 -2.3636  0.2615  1.4178
   16CHTO   O43 6572   5.195  12.220   5.023 -0.3495 -0.4602  0.1443
   16CHTO  H101 6573   5.123  12.247   4.971 -2.0539  2.1921 -0.3257
   16CHTO   C66 6574   5.210  11.968   5.073 -0.3305 -0.1984  0.0915
   16CHTO  H123 6575   5.167  11.897   5.143 -2.3871  0.9235 -0.0069
   16CHTO   N12 6576   5.136  11.921   4.954 -0.3517 -0.4783  0.4085
   16CHTO  H110 6577   5.029  11.940   4.967 -2.3962 -1.8871  1.1655
   16CHTO  H111 6578   5.150  11.820   4.940  3.1882 -2.4814  1.9631
   16CHTO   C69 6579   5.362  11.948   5.043  0.4985 -0.2722 -0.1193
   16CHTO  H126 6580   5.382  12.001   4.944 -1.8187 -1.3366  0.3605
   16CHTO   O41 6581   5.444  12.012   5.152 -0.6133 -0.3167 -0.1605
   16CHTO   C64 6582   5.422  12.150   5.210  0.3029  0.0289  0.5229
   16CHTO  H121 6583   5.458  12.222   5.145 -1.6130  0.6560  0.7112
   16CHTO   C71 6584   5.511  12.159   5.336 -0.2832  0.4195 -0.5613
   16CHTO   O47 6585   5.648  12.145   5.303 -0.0600  0.1046  0.0404
   16CHTO  H104 6586   5.690  12.078   5.350 -1.6516 -0.9346 -1.3537
   16CHTO   O34 6587   5.401  11.799   5.022 -1.0361 -0.5381  0.0431
   16CHTO   C49 6588   5.525  11.753   4.943  0.5536  0.2115  0.6348
   16CHTO   H91 6589   5.513  11.779   4.843  3.1631 -0.6718 -0.1312
   16CHTO   C47 6590   5.540  11.597   4.969 -0.1152  0.3439 -0.3015
   16CHTO   H89 6591   5.614  11.554   4.911 -0.5001  0.1237  0.9556
   16CHTO   O33 6592   5.416  11.529   4.938  0.2824 -0.0993 -0.7898
   16CHTO   H70 6593   5.387  11.546   4.850  1.6093  1.2813 -0.0434
   16CHTO   C45 6594   5.578  11.567   5.124 -0.2889  1.0103 -0.3845
   16CHTO   H87 6595   5.490  11.527   5.178 -0.1574  1.4770  1.8427
   16CHTO    N8 6596   5.688  11.470   5.124  0.1248 -0.3009 -0.3801
   16CHTO   H75 6597   5.673  11.377   5.074 -0.0560  3.3074 -2.4741
   16CHTO   H76 6598   5.728  11.456   5.226  4.5889  1.4141  1.3855
   16CHTO   C43 6599   5.617  11.706   5.204 -0.0533 -0.4545  0.1709
   16CHTO   H85 6600   5.522  11.749   5.235 -0.1571  0.6785 -0.2505
   16CHTO   O29 6601   5.696  11.803   5.126 -0.2200  0.3324 -0.1685
   16CHTO   C50 6602   5.654  11.830   4.990 -0.2375  0.7338 -0.0217
   16CHTO   H92 6603   5.631  11.935   4.970  1.6770 -3.3412 -0.8210
   16CHTO   C54 6604   5.774  11.811   4.894 -0.0826 -0.1643  0.3166
   16CHTO   O36 6605   5.880  11.903   4.926 -0.2398  0.0915  0.6887
   16CHTO   H72 6606   5.957  11.856   4.951  0.3226 -0.7462 -1.8274
   16CHTO   O27 6607   5.678  11.675   5.326  0.2833  0.6531  0.1869
   16CHTO   C37 6608   5.728  11.752   5.430 -0.0392  0.4099 -0.8736
   16CHTO   H79 6609   5.738  11.854   5.391  1.5528 -0.0709  1.7049
   16CHTO   C38 6610   5.629  11.766   5.547  0.5312  0.0911 -0.7065
   16CHTO   H80 6611   5.588  11.666   5.571  1.2647 -1.3649 -2.3253
   16CHTO   O31 6612   5.516  11.837   5.508  0.0638  0.2567 -0.6953
   16CHTO   H68 6613   5.491  11.825   5.421  3.1445 -0.5748  0.3859
   16CHTO   C39 6614   5.694  11.832   5.679  0.2202 -0.2316  0.4890
   16CHTO   H81 6615   5.695  11.940   5.680  1.2346 -0.2074  3.0311
   16CHTO    N7 6616   5.621  11.819   5.805  0.2303  0.2393 -0.1464
   16CHTO   H73 6617   5.523  11.781   5.785 -0.5451 -0.7656 -1.0356
   16CHTO   H74 6618   5.658  11.748   5.878  0.6153 -0.0320  1.4320
   16CHTO   C40 6619   5.845  11.780   5.707 -0.4829 -0.0093  0.0188
   16CHTO   H82 6620   5.830  11.674   5.727  1.1713  1.4613 -0.8258
   16CHTO   O26 6621   5.918  11.801   5.588  0.0731 -0.0208 -0.2046
   16CHTO   C41 6622   5.872  11.710   5.480  0.2797 -0.5018  1.0419
   16CHTO   H83 6623   5.873  11.606   5.508 -2.7295  0.0873  0.0019
   16CHTO   C52 6624   5.984  11.733   5.369  0.4322  0.1452  0.1530
   16CHTO   O35 6625   5.965  11.675   5.257  0.5335 -0.0669  0.4943
   16CHTO   H71 6626   6.043  11.632   5.233 -1.3560 -0.9894  1.7134
   16CHTO   O28 6627   5.919  11.849   5.807 -0.4531  0.3731 -0.0301
   16CHTO   C42 6628   6.062  11.822   5.848 -0.1415 -0.1725  0.7665
   16CHTO   H84 6629   6.120  11.861   5.766  2.6538  1.9235  2.2312
   16CHTO   C44 6630   6.098  11.674   5.876  0.0828  0.5113  0.1423
   16CHTO   H86 6631   6.025  11.636   5.945  0.8803  0.6139  0.2477
   16CHTO   O32 6632   6.076  11.607   5.754  0.4568  0.2631  0.0275
   16CHTO   H69 6633   6.132  11.530   5.741  0.6227  3.2882  1.8643
   16CHTO   C48 6634   6.243  11.647   5.930 -0.3293  0.5733  0.0837
   16CHTO   H90 6635   6.296  11.647   5.838  1.4970 -0.1695 -0.7095
   16CHTO    N9 6636   6.257  11.503   5.981 -0.0936 -0.2931  0.6615
   16CHTO   H77 6637   6.204  11.497   6.072  3.1767  2.9148 -1.5626
   16CHTO   H78 6638   6.359  11.470   5.993 -0.6078 -0.0298 -0.9048
   16CHTO   C51 6639   6.306  11.752   6.030 -0.4842  0.3407  0.0683
   16CHTO   H93 6640   6.267  11.733   6.126  1.0587  0.2877 -1.7614
   16CHTO   O30 6641   6.270  11.884   5.983  0.7247 -0.1228  0.4767
   16CHTO   C46 6642   6.107  11.904   5.967  0.2599  0.4073 -0.7157
   16CHTO   H88 6643   6.052  11.873   6.054  0.9391  1.0511  0.6504
   16CHTO   C53 6644   6.078  12.060   5.959  0.2248 -0.0502 -0.3182
   16CHTO   O72 6645   6.146  12.116   6.076  0.3724 -0.0772  0.4406
   16CHTO  H199 6646   6.104  12.086   6.155  2.1263 -1.1988  0.7965
   16CHTO   O22 6647   6.447  11.741   6.025  0.3051  0.0938 -0.0963
   16CHTO   C31 6648   6.520  11.793   6.138 -0.6542  0.1917  0.0937
   16CHTO   H59 6649   6.627  11.771   6.125  0.2961 -0.1405  0.3690
   16CHTO   C29 6650   6.506  11.949   6.162  0.6970  0.6214 -0.0365
   16CHTO   H57 6651   6.397  11.975   6.201 -1.1122 -0.2296 -1.9604
   16CHTO   O21 6652   6.528  12.019   6.036 -0.1688 -0.1796 -0.4459
   16CHTO   H37 6653   6.611  11.992   5.997 -0.0640 -0.8731 -0.1015
   16CHTO   C27 6654   6.600  12.002   6.272  0.0951  0.2721  0.2289
   16CHTO   H55 6655   6.702  11.972   6.252  0.5892 -0.4982 -1.4081
   16CHTO    N5 6656   6.600  12.152   6.295 -0.0746  0.5558 -0.3419
   16CHTO   H43 6657   6.616  12.199   6.201 -2.0721 -2.8449 -0.8698
   16CHTO   H44 6658   6.516  12.180   6.358 -2.6596 -2.3550  1.1926
   16CHTO   C25 6659   6.562  11.928   6.405 -0.0119  0.3419 -0.2643
   16CHTO   H53 6660   6.468  11.976   6.434 -0.3646  0.5531  1.0669
   16CHTO   O17 6661   6.567  11.781   6.376 -0.1658 -0.2802 -0.2219
   16CHTO   C32 6662   6.486  11.725   6.276 -0.0006 -0.0710  0.4054
   16CHTO   H60 6663   6.384  11.744   6.298  0.4277  0.4590 -0.1468
   16CHTO   C36 6664   6.502  11.571   6.277  0.0614 -0.2561 -0.5830
   16CHTO   O25 6665   6.637  11.529   6.238  0.7106  0.1678  0.5670
   16CHTO   H40 6666   6.670  11.594   6.185 -1.1050  1.8663 -0.8699
   16CHTO   O15 6667   6.648  11.960   6.518  0.0758 -0.6300  0.5797
   16CHTO   C19 6668   6.689  11.886   6.635 -0.9577  0.0116  0.1495
   16CHTO   H47 6669   6.721  11.966   6.699  1.1068 -0.2336 -1.2882
   16CHTO   C20 6670   6.573  11.809   6.710 -0.2602  0.4729 -0.3957
   16CHTO   H48 6671   6.529  11.730   6.646 -0.4118  0.9413  0.7061
   16CHTO   O19 6672   6.476  11.904   6.750  1.1120 -0.1755 -0.2362
   16CHTO   H35 6673   6.519  11.977   6.796  1.2816  0.6894 -1.1300
   16CHTO   C21 6674   6.633  11.729   6.838 -0.1799 -0.0343  0.7690
   16CHTO   H49 6675   6.680  11.799   6.902 -0.4405  1.4158  1.3384
   16CHTO    N4 6676   6.524  11.653   6.911 -0.0698  0.0401  0.8393
   16CHTO   H41 6677   6.549  11.550   6.901  1.1355 -0.8155  0.8680
   16CHTO   H42 6678   6.532  11.681   7.014 -1.4600 -0.2993  1.2237
   16CHTO   C22 6679   6.756  11.652   6.797  0.3243  0.6960 -0.1584
   16CHTO   H50 6680   6.723  11.563   6.744 -0.1725 -0.6338  2.1340
   16CHTO   O14 6681   6.857  11.726   6.733 -0.0646 -0.1753  0.2597
   16CHTO   C23 6682   6.816  11.792   6.607  0.3243  0.5786  0.2299
   16CHTO   H51 6683   6.792  11.714   6.530 -1.1881 -2.1012  1.2587
   16CHTO   C34 6684   6.938  11.877   6.562 -0.0568  0.7747 -0.0440
   16CHTO   O23 6685   7.056  11.800   6.536  0.1052 -0.3707  0.0229
   16CHTO   H38 6686   7.089  11.749   6.609 -0.3097 -0.1967  1.8607
   16CHTO   O16 6687   6.824  11.609   6.916 -0.2510  0.0641 -0.3291
   16CHTO   C24 6688   6.890  11.461   6.913 -0.0331 -0.1239  0.4878
   16CHTO   H52 6689   6.884  11.412   6.814 -0.0431 -0.8822  2.3737
   16CHTO   C26 6690   6.814  11.375   7.014 -0.1888  1.4434 -0.6840
   16CHTO   H54 6691   6.795  11.441   7.103  0.2564  3.0674 -0.7306
   16CHTO   O20 6692   6.690  11.337   6.954  0.2151  0.4027 -0.4737
   16CHTO   H36 6693   6.632  11.406   6.956 -0.8173  0.1980  0.2254
   16CHTO   C30 6694   6.894  11.243   7.060  0.4509 -0.0358 -0.6744
   16CHTO   H58 6695   6.891  11.167   6.981 -2.0563 -1.8311 -0.6435
   16CHTO    N6 6696   6.832  11.186   7.181  0.2992  0.8289 -0.1577
   16CHTO   H45 6697   6.865  11.249   7.262  0.2372 -2.4065 -1.3023
   16CHTO   H46 6698   6.871  11.089   7.194  0.1079 -2.5257  3.6398
   16CHTO   C33 6699   7.046  11.276   7.084  0.0963 -0.2315  0.6835
   16CHTO   H61 6700   7.060  11.346   7.166 -0.4563  1.1953 -2.2684
   16CHTO   O18 6701   7.096  11.341   6.960  0.6024  0.2831 -0.3284
   16CHTO   C28 6702   7.044  11.471   6.954 -0.2047 -0.8591 -0.6456
   16CHTO   H56 6703   7.051  11.519   7.054  1.3170  0.3330  0.6547
   16CHTO   C35 6704   7.132  11.557   6.855 -0.6384  0.2539  0.4971
   16CHTO   O24 6705   7.146  11.489   6.730  0.1633  0.1183  0.0703
   16CHTO   H39 6706   7.235  11.458   6.708  1.8063  2.5322 -1.9112
   16CHTO    O9 6707   7.124  11.161   7.120 -0.1698  0.5081  0.1824
   16CHTO   C13 6708   7.285  11.196   7.133  0.2342 -0.1413 -0.7664
   16CHTO   H26 6709   7.305  11.293   7.086 -1.2824  0.0019  2.0997
   16CHTO   C11 6710   7.371  11.078   7.073 -1.0180  1.4936 -0.4601
   16CHTO   H24 6711   7.342  11.064   6.963  1.1380 -0.9887 -2.6899
   16CHTO    O8 6712   7.339  10.949   7.136 -0.1577 -0.0141 -0.0991
   16CHTO    H3 6713   7.251  10.929   7.118 -0.9939  1.2178  0.6373
   16CHTO    C9 6714   7.520  11.118   7.082 -0.0620  0.0989  0.0119
   16CHTO   H22 6715   7.531  11.211   7.018 -0.6036  1.2763 -0.0710
   16CHTO    N2 6716   7.598  11.012   7.022 -0.0084  0.1961 -0.0119
   16CHTO   H10 6717   7.641  11.042   6.932 -2.1885  2.0903  1.4165
   16CHTO   H11 6718   7.673  10.973   7.089  0.7914  0.2218  0.9392
   16CHTO    C7 6719   7.551  11.163   7.229 -0.2821 -0.3201 -0.5025
   16CHTO   H20 6720   7.642  11.213   7.211  0.3946 -0.9171 -0.3819
   16CHTO    O4 6721   7.457  11.259   7.289 -0.1657 -0.9742  0.2462
   16CHTO   C14 6722   7.321  11.231   7.285  0.1203  0.3782  0.6385
   16CHTO   H27 6723   7.269  11.319   7.317  3.3102  2.4666  0.3847
   16CHTO   C18 6724   7.276  11.114   7.385 -1.0736  0.2149  0.0853
   16CHTO   O13 6725   7.309  11.132   7.517  0.0760  0.7941 -0.2614
   16CHTO    H7 6726   7.251  11.074   7.560 -1.7272 -1.1011  0.1578
   16CHTO    O2 6727   7.570  11.040   7.335  0.5301 -0.2058  0.3936
   16CHTO    C1 6728   7.689  11.003   7.402  0.4161  0.6199  0.0910
   16CHTO   H14 6729   7.668  10.994   7.504 -1.9780 -3.2299 -1.7541
   16CHTO    C2 6730   7.808  11.103   7.385  0.0143  0.2720  0.3078
   16CHTO   H15 6731   7.818  11.119   7.271 -2.1601  1.5549 -1.3525
   16CHTO    O6 6732   7.795  11.225   7.458  0.1801 -0.0795  0.5091
   16CHTO    H1 6733   7.868  11.277   7.438  1.9103 -0.2310 -1.2444
   16CHTO    C3 6734   7.945  11.033   7.444  0.2580  0.6703  0.1790
   16CHTO   H16 6735   7.934  11.026   7.553 -0.7578 -1.7810 -1.2937
   16CHTO    N1 6736   8.075  11.110   7.423  1.0762 -0.6288 -0.3760
   16CHTO    H8 6737   8.042  11.213   7.436 -1.2956 -1.3750 -1.7555
   16CHTO    H9 6738   8.157  11.068   7.482 -0.1130 -0.3783 -0.1817
   16CHTO    C4 6739   7.966  10.886   7.394  1.0887 -0.1183 -0.0244
   16CHTO   H17 6740   7.986  10.891   7.287  2.0593 -1.4768  0.2577
   16CHTO    O1 6741   7.844  10.810   7.417  0.2619 -0.1063 -0.3688
   16CHTO    C5 6742   7.726  10.856   7.351  0.0096  0.0345  0.3616
   16CHTO   H18 6743   7.736  10.846   7.243  2.3324 -0.2051 -1.4638
   16CHTO   C16 6744   7.613  10.756   7.392  0.1812 -0.1406 -0.2425
   16CHTO   O11 6745   7.483  10.773   7.338  0.3461  0.3592 -0.5890
   16CHTO    H5 6746   7.440  10.856   7.345 -1.1907  0.1198  1.3954
   16CHTO    O3 6747   8.060  10.819   7.476 -0.1061 -0.2428  0.0632
   16CHTO    C6 6748   8.117  10.703   7.404 -0.3198  0.4056  0.1705
   16CHTO   H19 6749   8.049  10.670   7.321 -0.6695 -2.5640  1.5414
   16CHTO    C8 6750   8.266  10.733   7.366  0.0124 -0.5433  0.3101
   16CHTO   H21 6751   8.318  10.763   7.452 -1.2782  0.9484 -0.5811
   16CHTO    O7 6752   8.257  10.843   7.271  0.0269 -0.0530 -0.0467
   16CHTO    H2 6753   8.239  10.915   7.321  0.3085 -2.5574 -0.0833
   16CHTO   C12 6754   8.329  10.595   7.314  0.6630  0.1121  0.3488
   16CHTO   H25 6755   8.274  10.567   7.221 -1.7027  1.1976 -1.9216
   16CHTO    N3 6756   8.470  10.625   7.270  0.5911 -0.2994 -0.5350
   16CHTO   H12 6757   8.465  10.715   7.212  0.2917 -0.2485  3.2410
   16CHTO   H13 6758   8.527  10.647   7.357  3.1328  0.9263 -1.1854
   16CHTO   C15 6759   8.314  10.481   7.418 -0.7839 -0.6171 -0.1908
   16CHTO   H28 6760   8.372  10.502   7.506 -1.2712 -0.6853  1.2667
   16CHTO   O10 6761   8.365  10.331   7.350 -0.5919  1.0008  0.0069
   16CHTO    H4 6762   8.320  10.310   7.273 -1.0403 -2.6868  1.0956
   16CHTO    O5 6763   8.177  10.457   7.445  0.6138  0.0248  0.2424
   16CHTO   C10 6764   8.122  10.579   7.498  0.0612 -0.0552  0.0341
   16CHTO   H23 6765   8.166  10.614   7.590 -1.7882  2.4700  0.1318
   16CHTO   C17 6766   7.974  10.538   7.537 -0.2424 -0.6212 -0.0513
   16CHTO   O12 6767   7.966  10.417   7.612 -0.4710 -0.9037 -0.6210
   16CHTO    H6 6768   7.898  10.425   7.680  0.4618 -4.9838  2.0798
   17CHTO  H203 6769   7.660   3.169   0.870  0.5133  0.8348 -0.3588
   17CHTO   O82 6770   7.742   3.209   0.885 -0.0389  0.0136 -0.6527
   17CHTO  C123 6771   7.726   3.342   0.933  0.6527 -0.4028 -0.4471
   17CHTO  H227 6772   7.651   3.344   1.014 -1.2414  0.0054 -1.4436
   17CHTO   O77 6773   7.851   3.371   0.992 -0.3702  0.5479 -0.3523
   17CHTO  C118 6774   7.845   3.502   1.056 -0.6894  0.1191 -0.4691
   17CHTO  H222 6775   7.756   3.511   1.130 -0.3117 -0.2406  0.9262
   17CHTO  C125 6776   7.972   3.525   1.142  0.2187  0.0151 -0.5024
   17CHTO   O84 6777   7.957   3.634   1.232  0.1142  0.6293  0.1317
   17CHTO  H205 6778   8.010   3.707   1.204 -1.3583  1.5228 -0.1323
   17CHTO  C114 6779   7.838   3.624   0.956  0.2474 -0.0150 -0.2658
   17CHTO  H218 6780   7.931   3.635   0.910 -0.8714 -1.5309 -0.4836
   17CHTO  C116 6781   7.716   3.596   0.865 -0.1963  0.3359  0.3653
   17CHTO  H220 6782   7.611   3.606   0.915 -1.0695 -0.3333 -0.6740
   17CHTO   O79 6783   7.726   3.701   0.767  0.2115 -0.2742 -0.1324
   17CHTO  H201 6784   7.808   3.712   0.720  1.6429  0.9287 -1.4367
   17CHTO  C120 6785   7.702   3.445   0.807 -0.1254  0.4397  0.4312
   17CHTO  H224 6786   7.784   3.436   0.728 -0.2030 -1.7076 -0.2424
   17CHTO   N21 6787   7.573   3.425   0.735 -0.3251 -0.3141 -0.0288
   17CHTO  H211 6788   7.495   3.487   0.777 -1.5327  2.0990  0.0988
   17CHTO  H212 6789   7.550   3.323   0.740 -0.9937  1.4813  0.0352
   17CHTO   O75 6790   7.814   3.748   1.028  0.9205  0.0393  0.1147
   17CHTO  C112 6791   7.894   3.885   0.990 -0.7014 -0.3510 -0.3660
   17CHTO  H216 6792   7.912   3.893   0.880 -0.9558  0.2288 -1.4700
   17CHTO   O73 6793   8.016   3.887   1.066 -0.5333  0.1233  0.5490
   17CHTO  C113 6794   8.104   3.998   1.037  0.7206  0.4110 -0.1710
   17CHTO  H217 6795   8.121   3.997   0.933  0.3249 -2.4799  1.2573
   17CHTO  C124 6796   8.243   3.975   1.108 -0.3933 -0.0227  0.1738
   17CHTO   O83 6797   8.239   3.935   1.243 -0.0274 -0.0999 -0.7376
   17CHTO  H204 6798   8.277   4.007   1.297  2.6657  3.5109  1.1216
   17CHTO  C109 6799   8.027   4.132   1.079 -0.3138 -0.4174  0.1638
   17CHTO  H213 6800   8.022   4.127   1.190 -2.3582 -0.9919  0.1297
   17CHTO  C110 6801   7.880   4.145   1.025 -0.1319 -0.2856 -0.5338
   17CHTO  H214 6802   7.885   4.180   0.920 -0.5013 -2.6251  1.0561
   17CHTO   O78 6803   7.814   4.248   1.097 -0.1014  0.2157  0.3962
   17CHTO  H200 6804   7.831   4.329   1.054 -0.4299  2.0965 -1.7612
   17CHTO  C111 6805   7.799   4.007   1.036 -0.0174 -0.1516  0.2152
   17CHTO  H215 6806   7.765   3.999   1.140  0.9651 -2.7536  1.2826
   17CHTO   N19 6807   7.679   4.008   0.948 -0.3627 -0.1525  0.0572
   17CHTO  H207 6808   7.650   3.909   0.916  1.0600 -1.2111 -0.8715
   17CHTO  H208 6809   7.701   4.070   0.860 -0.3155 -1.3521 -0.1031
   17CHTO   O74 6810   8.114   4.245   1.043 -0.0210  0.0789 -0.0986
   17CHTO  C115 6811   8.143   4.341   1.173  0.0324 -0.5250 -0.3742
   17CHTO  H219 6812   8.100   4.301   1.262  0.2507  0.8489 -1.9681
   17CHTO   O76 6813   8.288   4.354   1.207  0.2400 -0.0001  0.2044
   17CHTO  C122 6814   8.372   4.395   1.104 -0.1147 -0.1302 -0.4114
   17CHTO  H226 6815   8.396   4.310   1.042 -0.9264 -0.0833 -2.1491
   17CHTO  C126 6816   8.510   4.438   1.171  0.0918 -0.2052 -0.4166
   17CHTO   O85 6817   8.609   4.342   1.199 -0.7672 -0.1501  0.0512
   17CHTO  H206 6818   8.667   4.331   1.124  3.0314 -2.1218 -0.6821
   17CHTO  C121 6819   8.322   4.519   1.031  0.0694 -0.0839 -0.2958
   17CHTO  H225 6820   8.394   4.594   1.010 -1.0852 -0.8648  0.8863
   17CHTO   O81 6821   8.265   4.481   0.901 -0.5357  0.3728 -0.4541
   17CHTO  H202 6822   8.226   4.559   0.861 -1.9626 -0.1380  0.2237
   17CHTO  C119 6823   8.208   4.585   1.111  0.4379 -0.2408 -0.7138
   17CHTO  H223 6824   8.241   4.621   1.204 -0.8843 -2.4190  0.5337
   17CHTO  C117 6825   8.083   4.490   1.144 -0.0114  0.4024  0.4400
   17CHTO  H221 6826   8.014   4.479   1.060 -1.7567 -3.0809 -0.1150
   17CHTO   N20 6827   7.994   4.540   1.253  0.0444 -0.4409  0.1007
   17CHTO  H209 6828   7.945   4.624   1.213 -0.3429  2.0232  2.3957
   17CHTO  H210 6829   7.930   4.450   1.267  0.4329  1.7741 -0.4136
   17CHTO   O80 6830   8.158   4.725   1.040  0.0241 -0.8498  0.0639
   17CHTO  C103 6831   8.221   4.868   1.086 -0.0191  0.5867 -0.6270
   17CHTO  H190 6832   8.235   4.865   1.193 -2.1867 -1.0561 -0.0943
   17CHTO  C101 6833   8.365   4.906   1.019  1.4813 -0.0394  0.1527
   17CHTO  H188 6834   8.352   4.893   0.912 -1.4947 -1.0085  0.0487
   17CHTO   O68 6835   8.490   4.819   1.083 -0.8974 -0.0767  0.0807
   17CHTO  H168 6836   8.450   4.743   1.113  0.5874 -0.4060 -0.7914
   17CHTO   C99 6837   8.391   5.062   1.048  0.3661 -0.1926  0.0726
   17CHTO  H186 6838   8.389   5.077   1.153  0.9199 -1.7897 -1.3943
   17CHTO   N17 6839   8.517   5.124   0.982  0.6245 -0.2419 -0.3059
   17CHTO  H174 6840   8.497   5.216   0.933  0.7380  0.9518 -0.3344
   17CHTO  H175 6841   8.548   5.051   0.902  1.1769  1.5860  0.6044
   17CHTO   C97 6842   8.272   5.143   0.998 -0.5311 -0.2829  0.4495
   17CHTO  H184 6843   8.271   5.121   0.884 -0.3891 -0.7209 -2.7131
   17CHTO   O64 6844   8.146   5.104   1.059 -0.3633 -0.0449 -0.5877
   17CHTO  C104 6845   8.111   4.965   1.054  0.2339  0.2544 -0.2494
   17CHTO  H191 6846   8.077   4.953   0.950  2.4986  2.2908 -0.8436
   17CHTO  C108 6847   7.984   4.944   1.140  0.1059  0.0291  1.1472
   17CHTO   O71 6848   7.867   5.008   1.072 -0.5841 -0.3194 -0.2353
   17CHTO  H171 6849   7.785   4.973   1.102 -1.0191  2.5989 -0.0922
   17CHTO   O62 6850   8.290   5.282   1.021 -0.3530 -0.3134 -0.1091
   17CHTO   C91 6851   8.192   5.374   0.959  0.8308  0.3333  0.5240
   17CHTO  H178 6852   8.150   5.323   0.871  1.3865  1.1069  0.0859
   17CHTO   C92 6853   8.274   5.489   0.908  0.6080 -1.4001  0.1037
   17CHTO  H179 6854   8.348   5.446   0.840  0.0116  0.5399  1.0832
   17CHTO   O66 6855   8.199   5.577   0.817 -0.1628  0.2832 -0.3123
   17CHTO  H166 6856   8.182   5.537   0.738 -2.0011  2.0841  2.2460
   17CHTO   C93 6857   8.335   5.584   1.020  0.1806 -0.2302  0.8090
   17CHTO  H180 6858   8.353   5.685   0.969  1.2519 -0.7065  2.0669
   17CHTO   N16 6859   8.476   5.551   1.061  0.4716  0.3357  0.5986
   17CHTO  H172 6860   8.541   5.567   0.967 -0.9463 -2.7278 -1.8621
   17CHTO  H173 6861   8.482   5.447   1.089 -0.9908 -0.7621 -0.4220
   17CHTO   C94 6862   8.239   5.600   1.145 -0.0614  0.3069  0.0971
   17CHTO  H181 6863   8.275   5.542   1.230 -0.7142  0.9854  3.2508
   17CHTO   O61 6864   8.110   5.558   1.105  0.6891 -0.2832  0.1844
   17CHTO   C95 6865   8.079   5.426   1.057 -0.8718  0.2913  0.2514
   17CHTO  H182 6866   8.073   5.359   1.148 -3.6152 -1.7967  0.7691
   17CHTO  C106 6867   7.944   5.423   0.986 -0.1102 -1.5035  0.3031
   17CHTO   O69 6868   7.889   5.294   0.972 -0.1769 -0.4423 -0.5004
   17CHTO  H169 6869   7.917   5.236   1.044  1.3665 -0.6625 -1.0825
   17CHTO   O63 6870   8.245   5.747   1.197 -0.7922  0.0320  0.2831
   17CHTO   C96 6871   8.120   5.831   1.210 -0.5412 -0.1905  0.5466
   17CHTO  H183 6872   8.060   5.769   1.279  0.5940 -3.0451  0.5988
   17CHTO   C98 6873   8.055   5.871   1.070 -0.0340 -0.1965 -0.0703
   17CHTO  H185 6874   8.055   5.781   1.009  0.7480  2.6100  0.9087
   17CHTO   O67 6875   7.916   5.905   1.090  0.4476 -0.0900  0.1592
   17CHTO  H167 6876   7.864   5.834   1.114 -0.9159  1.6758 -2.7234
   17CHTO  C102 6877   8.137   5.985   0.998  0.2702  0.4781  0.1972
   17CHTO  H189 6878   8.064   6.034   0.931 -1.8460 -1.5318 -1.7179
   17CHTO   N18 6879   8.250   5.940   0.913 -0.5104 -0.0180  0.3408
   17CHTO  H176 6880   8.239   5.829   0.910 -0.4685  0.3492  3.6241
   17CHTO  H177 6881   8.243   5.976   0.811  0.0041  2.4497 -1.4194
   17CHTO  C105 6882   8.185   6.093   1.096  0.6260 -0.1781 -0.1530
   17CHTO  H192 6883   8.290   6.081   1.112  0.6719 -0.5505 -0.1777
   17CHTO   O65 6884   8.127   6.078   1.225  0.2853 -0.2035  0.0112
   17CHTO  C100 6885   8.157   5.959   1.301  0.5667 -0.4606  0.5939
   17CHTO  H187 6886   8.267   5.958   1.326  1.8938  0.8234  1.1466
   17CHTO  C107 6887   8.080   5.967   1.437  0.2122 -0.7038  1.1051
   17CHTO   O70 6888   8.164   6.019   1.541  0.2741 -0.6390 -0.5662
   17CHTO  H170 6889   8.170   6.113   1.538  1.3088  1.4557 -1.1842
   17CHTO   O57 6890   8.148   6.235   1.037 -0.9103  0.0858  0.0799
   17CHTO   C85 6891   8.041   6.320   1.077 -0.0492 -0.3315  0.5237
   17CHTO  H157 6892   8.037   6.319   1.190  1.1476  1.4422  0.8362
   17CHTO   C83 6893   7.911   6.264   1.015 -0.1799  0.3645 -0.0362
   17CHTO  H155 6894   7.880   6.176   1.077 -0.4514 -1.0373 -0.0273
   17CHTO   O56 6895   7.936   6.226   0.877 -0.1558 -0.4209  0.0414
   17CHTO  H135 6896   7.871   6.171   0.844 -0.3485  2.4287 -1.7184
   17CHTO   C81 6897   7.796   6.366   1.019 -0.1573  0.4444  0.3135
   17CHTO  H153 6898   7.778   6.394   1.123 -1.2989 -1.3442  2.0458
   17CHTO   N14 6899   7.659   6.311   0.976  0.2736 -0.1809 -0.2137
   17CHTO  H141 6900   7.586   6.387   0.988 -3.0674  0.8246 -2.8158
   17CHTO  H142 6901   7.624   6.233   1.032 -3.1158 -1.7570 -0.3944
   17CHTO   C79 6902   7.835   6.500   0.938  0.0000 -0.0612 -0.2666
   17CHTO  H151 6903   7.751   6.573   0.954 -0.0564  0.1311  2.8045
   17CHTO   O52 6904   7.946   6.556   1.009  0.4881  0.0851  0.8641
   17CHTO   C86 6905   8.064   6.464   1.024 -0.2147 -0.0025  0.2018
   17CHTO  H158 6906   8.085   6.454   0.916 -0.3554  0.9613  0.0064
   17CHTO   C90 6907   8.183   6.534   1.089 -0.2823 -0.3253 -0.3667
   17CHTO   O60 6908   8.219   6.654   1.008  0.2584  0.3756 -0.2694
   17CHTO  H138 6909   8.156   6.723   1.023  2.4318 -1.9669  0.5970
   17CHTO   O50 6910   7.860   6.483   0.800 -0.3206  0.5202 -0.4248
   17CHTO   C73 6911   7.820   6.529   0.671 -0.5331  0.1141 -0.5374
   17CHTO  H145 6912   7.777   6.629   0.681  0.0984  1.5382  3.8574
   17CHTO   C74 6913   7.701   6.447   0.608 -0.0555  0.2737 -0.2896
   17CHTO  H146 6914   7.618   6.445   0.682 -0.3229 -0.3932  0.4925
   17CHTO   O54 6915   7.644   6.522   0.497  0.5205 -0.3251 -0.1682
   17CHTO  H133 6916   7.600   6.468   0.439 -1.9598  1.5130 -0.3209
   17CHTO   C75 6917   7.759   6.296   0.578 -0.8296 -0.9842 -0.5273
   17CHTO  H147 6918   7.773   6.245   0.670 -1.4960 -1.9450 -0.6840
   17CHTO   N13 6919   7.664   6.220   0.499  0.6214 -0.1940 -0.3504
   17CHTO  H139 6920   7.702   6.125   0.473  0.4537  1.1666  1.4413
   17CHTO  H140 6921   7.576   6.200   0.561  3.4636  3.2044  3.1315
   17CHTO   C76 6922   7.895   6.301   0.501  0.0872 -0.1633 -0.0442
   17CHTO  H148 6923   7.876   6.352   0.401  1.3975  0.3514  0.0516
   17CHTO   O49 6924   7.989   6.383   0.569  0.0716 -0.4069  0.0561
   17CHTO   C77 6925   7.945   6.526   0.574 -0.0624  0.0163  0.8910
   17CHTO  H149 6926   7.917   6.565   0.480  1.2871  2.1674  3.9033
   17CHTO   C88 6927   8.046   6.621   0.636  0.1755  0.1541  0.2449
   17CHTO   O58 6928   8.005   6.757   0.628  0.3304 -0.2112  0.2429
   17CHTO  H136 6929   8.076   6.809   0.607 -0.4200 -1.9061  1.1684
   17CHTO   O51 6930   7.960   6.176   0.490 -0.1281 -0.4423 -0.5651
   17CHTO   C78 6931   8.042   6.160   0.372 -0.4762 -0.8106  0.2597
   17CHTO  H150 6932   8.086   6.260   0.329  0.5414  3.9236  1.0010
   17CHTO   C80 6933   7.958   6.095   0.256 -0.1983  0.2226 -0.0592
   17CHTO  H152 6934   7.900   6.010   0.302  2.8565  0.2955 -0.9210
   17CHTO   O55 6935   7.876   6.197   0.204  0.2223 -0.3801 -0.3990
   17CHTO  H134 6936   7.818   6.155   0.143 -2.5941 -1.4726  0.6767
   17CHTO   C84 6937   8.049   6.045   0.143 -0.0145  0.3307 -0.1508
   17CHTO  H156 6938   8.094   6.128   0.093  0.1415  1.7457  3.5055
   17CHTO   N15 6939   7.966   5.977   0.039  0.3343  0.7321  0.6474
   17CHTO  H143 6940   7.912   5.903   0.094  2.2381  1.3221 -0.1848
   17CHTO  H144 6941   8.031   5.923  -0.029 -0.0238  0.7072  0.6322
   17CHTO   C87 6942   8.168   5.960   0.183 -0.0909  0.0281 -0.2513
   17CHTO  H159 6943   8.132   5.872   0.227  4.8503  0.1519  2.2361
   17CHTO   O53 6944   8.251   6.040   0.283  0.0235  0.0961  0.6045
   17CHTO   C82 6945   8.167   6.069   0.400 -0.2805 -0.9557 -0.6293
   17CHTO  H154 6946   8.139   5.973   0.450 -0.4815 -2.0368 -1.1531
   17CHTO   C89 6947   8.259   6.146   0.494  0.2851  0.3206  0.0886
   17CHTO   O59 6948   8.230   6.108   0.625  0.3214 -0.2317 -0.7193
   17CHTO  H137 6949   8.278   6.143   0.696 -3.8616  0.2257  1.8161
   17CHTO   O45 6950   8.279   5.922   0.048  0.3482  0.1708  0.0700
   17CHTO   C67 6951   8.343   5.794   0.070 -0.3232 -0.1138 -0.2089
   17CHTO  H124 6952   8.369   5.782   0.171 -0.2718 -0.8570  2.9985
   17CHTO   C65 6953   8.240   5.682   0.029 -0.6565 -0.0288 -0.3239
   17CHTO  H122 6954   8.150   5.702   0.087 -0.0267 -2.1232  0.1512
   17CHTO   O44 6955   8.289   5.551   0.067  0.2244  0.3873  0.0083
   17CHTO  H102 6956   8.381   5.553   0.053 -2.0050 -1.3823 -2.8163
   17CHTO   C63 6957   8.201   5.710  -0.123  1.1538  0.1700  0.5387
   17CHTO  H120 6958   8.160   5.813  -0.127 -2.4381 -1.1429 -2.1747
   17CHTO   N11 6959   8.090   5.629  -0.179 -0.2526  0.2320  0.4782
   17CHTO  H108 6960   8.015   5.632  -0.109  2.4226  1.5272  1.6081
   17CHTO  H109 6961   8.129   5.533  -0.198  0.7437  0.5380  0.9516
   17CHTO   C61 6962   8.334   5.701  -0.210  0.5027 -0.1535 -0.0966
   17CHTO  H118 6963   8.306   5.750  -0.306 -2.7633  0.4946  0.8874
   17CHTO   O40 6964   8.451   5.777  -0.152  0.0164  0.0560 -0.2043
   17CHTO   C68 6965   8.473   5.780  -0.010  0.5840 -0.1813  0.7589
   17CHTO  H125 6966   8.523   5.873   0.014  1.3067 -0.1975 -1.1892
   17CHTO   C72 6967   8.570   5.667   0.030 -0.2678  0.1978 -0.0949
   17CHTO   O48 6968   8.695   5.671  -0.045 -0.8968 -0.4616  0.0918
   17CHTO  H105 6969   8.744   5.744  -0.017  0.6241 -0.2674 -1.4114
   17CHTO   O38 6970   8.368   5.565  -0.227 -0.1941  0.7134  0.4532
   17CHTO   C55 6971   8.472   5.520  -0.319 -0.5567  0.4393  0.5912
   17CHTO  H112 6972   8.563   5.511  -0.253  1.3853  0.3557 -1.4367
   17CHTO   C56 6973   8.498   5.620  -0.444 -0.1662 -0.4711 -0.5549
   17CHTO  H113 6974   8.396   5.654  -0.484 -0.1936 -1.4339 -0.7730
   17CHTO   O42 6975   8.577   5.734  -0.397 -0.4014  0.2319 -0.3275
   17CHTO  H100 6976   8.598   5.801  -0.461 -3.7576  0.3302 -2.2495
   17CHTO   C57 6977   8.576   5.551  -0.564 -0.1483  0.0056  0.3716
   17CHTO  H114 6978   8.680   5.539  -0.536  2.1587  0.5312 -1.3205
   17CHTO   N10 6979   8.575   5.636  -0.691  0.1836  0.0945  1.4674
   17CHTO  H106 6980   8.563   5.742  -0.662 -0.0070  2.1481 -1.9771
   17CHTO  H107 6981   8.494   5.611  -0.758  0.0013 -2.5301  3.0750
   17CHTO   C58 6982   8.510   5.411  -0.589 -0.6542 -0.4567  0.0655
   17CHTO  H115 6983   8.407   5.426  -0.616 -1.9686 -2.2902  1.2936
   17CHTO   O37 6984   8.508   5.332  -0.475 -0.8576  0.2520 -0.3835
   17CHTO   C59 6985   8.428   5.373  -0.370  0.1141 -0.4499  0.3439
   17CHTO  H116 6986   8.320   5.364  -0.392  0.4045 -0.8815 -0.2867
   17CHTO   C70 6987   8.456   5.273  -0.254  0.0428  0.0933 -0.4621
   17CHTO   O46 6988   8.419   5.138  -0.291  0.7679  0.7271  0.0456
   17CHTO  H103 6989   8.407   5.078  -0.220 -2.0295  0.0079 -0.1985
   17CHTO   O39 6990   8.570   5.339  -0.695 -0.9210  0.2120  0.1563
   17CHTO   C60 6991   8.502   5.221  -0.741  0.0380 -0.3270 -0.0572
   17CHTO  H117 6992   8.484   5.154  -0.652  1.3330  1.5807  0.8953
   17CHTO   C62 6993   8.366   5.263  -0.814 -1.2954  0.0075 -0.1077
   17CHTO  H119 6994   8.313   5.315  -0.737  0.7235 -1.4774 -0.1956
   17CHTO   O43 6995   8.392   5.353  -0.924 -0.1550 -0.1332 -0.2212
   17CHTO  H101 6996   8.420   5.437  -0.896 -0.5450 -3.0255  0.9344
   17CHTO   C66 6997   8.282   5.131  -0.852  0.1019  0.2525 -0.0489
   17CHTO  H123 6998   8.276   5.076  -0.758 -1.0498  0.8348  0.3421
   17CHTO   N12 6999   8.144   5.168  -0.896  0.2739  0.3675  0.1531
   17CHTO  H110 7000   8.122   5.114  -0.985  0.3865 -0.8048  1.4613
   17CHTO  H111 7001   8.076   5.136  -0.815 -1.2576  3.6916 -0.3023
   17CHTO   C69 7002   8.367   5.049  -0.955 -0.5937 -0.3097  0.1504
   17CHTO  H126 7003   8.388   5.094  -1.054  0.6258 -1.1284  0.5023
   17CHTO   O41 7004   8.500   5.012  -0.894  0.4623  0.4640  0.1845
   17CHTO   C64 7005   8.585   5.142  -0.848  0.0782  0.1135  0.0320
   17CHTO  H121 7006   8.608   5.203  -0.937 -1.3536 -0.0440 -0.8891
   17CHTO   C71 7007   8.712   5.085  -0.803 -0.1231  0.4021 -0.6300
   17CHTO   O47 7008   8.801   5.037  -0.905  0.1357 -0.2952  0.0297
   17CHTO  H104 7009   8.763   5.014  -0.983  0.5407  1.0612  1.4862
   17CHTO   O34 7010   8.284   4.915  -0.994  0.5812  0.3797  0.3702
   17CHTO   C49 7011   8.321   4.797  -1.077  0.1835  0.3708  0.3879
   17CHTO   H91 7012   8.286   4.821  -1.177 -0.2508 -0.9919 -1.6601
   17CHTO   C47 7013   8.267   4.661  -1.037 -0.6884  0.2773 -0.0688
   17CHTO   H89 7014   8.305   4.578  -1.115 -1.1697  1.6186  3.2232
   17CHTO   O33 7015   8.124   4.646  -1.028  0.7725  0.1436  0.2973
   17CHTO   H70 7016   8.110   4.567  -0.989 -0.9939  1.3203 -2.3976
   17CHTO   C45 7017   8.331   4.624  -0.884  0.0123  0.2019 -0.7301
   17CHTO   H87 7018   8.252   4.638  -0.805 -1.0086 -4.1088 -3.1506
   17CHTO    N8 7019   8.356   4.479  -0.882 -0.6238 -0.5091 -0.2732
   17CHTO   H75 7020   8.281   4.410  -0.920 -0.6964  1.3278 -0.9765
   17CHTO   H76 7021   8.458   4.446  -0.880 -1.9552  1.2438  0.5452
   17CHTO   C43 7022   8.451   4.717  -0.846 -0.0660 -0.8198  0.0629
   17CHTO   H85 7023   8.411   4.810  -0.818  0.6029  2.0160  0.5422
   17CHTO   O29 7024   8.546   4.731  -0.955  0.2998  0.0788 -0.2410
   17CHTO   C50 7025   8.486   4.785  -1.075  0.3042 -0.4484 -0.9778
   17CHTO   H92 7026   8.530   4.882  -1.101 -0.7573  0.1051 -0.0352
   17CHTO   C54 7027   8.537   4.704  -1.202 -0.0040  0.1217  0.0355
   17CHTO   O36 7028   8.673   4.706  -1.237  0.0148 -0.0127  0.4458
   17CHTO   H72 7029   8.709   4.635  -1.195 -1.8351  0.1728  0.6916
   17CHTO   O27 7030   8.521   4.680  -0.725  0.1585  0.5751 -0.1771
   17CHTO   C37 7031   8.616   4.752  -0.641 -0.7370 -0.3384  0.5521
   17CHTO   H79 7032   8.650   4.853  -0.675  0.7020 -0.8198 -0.2362
   17CHTO   C38 7033   8.543   4.795  -0.504 -0.5203 -0.3190  0.7795
   17CHTO   H80 7034   8.488   4.713  -0.463 -1.9519  2.8665  0.0236
   17CHTO   O31 7035   8.449   4.906  -0.522 -0.8544  0.4369 -0.5045
   17CHTO   H68 7036   8.374   4.874  -0.570 -0.4499  0.8983  1.7146
   17CHTO   C39 7037   8.642   4.835  -0.383  0.0567  0.0968  0.1671
   17CHTO   H81 7038   8.664   4.939  -0.400 -1.8336 -0.1176 -0.6689
   17CHTO    N7 7039   8.572   4.832  -0.252 -0.5591  0.4707 -0.0723
   17CHTO   H73 7040   8.532   4.733  -0.237  0.5135 -0.8985  1.9749
   17CHTO   H74 7041   8.495   4.910  -0.251  0.0989  1.6873  3.6805
   17CHTO   C40 7042   8.772   4.760  -0.392  0.5901  0.1838  0.4292
   17CHTO   H82 7043   8.749   4.662  -0.341 -2.4452  0.7052  2.0045
   17CHTO   O26 7044   8.819   4.743  -0.528 -0.5171 -0.0172 -0.0121
   17CHTO   C41 7045   8.738   4.665  -0.610  0.0900  0.6893  0.4534
   17CHTO   H83 7046   8.701   4.575  -0.546  1.6871  0.0973  1.0070
   17CHTO   C52 7047   8.820   4.613  -0.726 -0.2546 -0.5049  0.5214
   17CHTO   O35 7048   8.907   4.723  -0.789  0.1667 -0.7027  0.1346
   17CHTO   H71 7049   8.928   4.788  -0.727  0.4491 -1.7323 -2.8781
   17CHTO   O28 7050   8.881   4.835  -0.321 -0.3227 -0.3022 -0.6850
   17CHTO   C42 7051   8.952   4.956  -0.365  0.1960  0.2101 -0.9123
   17CHTO   H84 7052   9.005   4.975  -0.270 -0.8620  0.3442 -2.3567
   17CHTO   C44 7053   8.871   5.086  -0.401  0.3150 -0.4452  0.1593
   17CHTO   H86 7054   8.806   5.058  -0.493 -1.9821  0.5154  0.9072
   17CHTO   O32 7055   8.805   5.116  -0.275  0.1485 -0.4410 -0.8776
   17CHTO   H69 7056   8.761   5.193  -0.291  2.7206 -0.8014 -2.5298
   17CHTO   C48 7057   8.956   5.210  -0.443 -0.3368 -0.7661 -0.1025
   17CHTO   H90 7058   9.023   5.248  -0.367 -0.5297 -0.3196 -0.7444
   17CHTO    N9 7059   8.875   5.334  -0.472 -0.1703  0.6362 -0.7289
   17CHTO   H77 7060   8.810   5.360  -0.391  0.8051 -1.1046 -0.8622
   17CHTO   H78 7061   8.828   5.326  -0.570 -2.4234 -0.1219  1.2006
   17CHTO   C51 7062   9.035   5.160  -0.577  0.4742  0.6253  0.0690
   17CHTO   H93 7063   8.961   5.111  -0.641 -1.9537  0.9037  1.6056
   17CHTO   O30 7064   9.128   5.068  -0.534  1.0185 -0.0462 -0.2753
   17CHTO   C46 7065   9.062   4.931  -0.482  0.7485 -0.2588  0.0202
   17CHTO   H88 7066   9.012   4.870  -0.562 -0.4174  1.5159 -1.2369
   17CHTO   C53 7067   9.164   4.844  -0.415  0.3649 -0.2313 -0.5577
   17CHTO   O72 7068   9.125   4.707  -0.405  0.0130 -0.0948  0.4284
   17CHTO  H199 7069   9.148   4.647  -0.479  0.4641 -1.7099 -1.4092
   17CHTO   O22 7070   9.110   5.270  -0.637 -0.2905  0.0832  0.2248
   17CHTO   C31 7071   9.122   5.278  -0.781  0.3744  0.7690 -0.0947
   17CHTO   H59 7072   9.192   5.359  -0.801  1.2739 -2.7970 -1.7410
   17CHTO   C29 7073   9.184   5.156  -0.852  0.7831  0.0998 -0.0438
   17CHTO   H57 7074   9.119   5.069  -0.841 -1.3065 -0.1446  0.4067
   17CHTO   O21 7075   9.312   5.122  -0.800 -0.2514 -0.2523  0.2692
   17CHTO   H37 7076   9.358   5.053  -0.846  0.5233  2.6713  0.4923
   17CHTO   C27 7077   9.201   5.178  -1.009  0.2748  0.5083 -0.2118
   17CHTO   H55 7078   9.272   5.268  -1.026  2.8725  1.7205 -0.5004
   17CHTO    N5 7079   9.250   5.064  -1.097  0.4756 -0.4801 -0.2174
   17CHTO   H43 7080   9.237   4.971  -1.048 -1.3593 -2.2666 -2.4269
   17CHTO   H44 7081   9.348   5.086  -1.134  0.4267  0.2172  1.0084
   17CHTO   C25 7082   9.062   5.220  -1.064  0.7327 -0.4279  0.4132
   17CHTO   H53 7083   8.990   5.140  -1.053  0.9267 -3.2210  0.4380
   17CHTO   O17 7084   9.011   5.336  -0.993 -0.0284 -0.1582  0.1771
   17CHTO   C32 7085   8.990   5.318  -0.852  0.1020 -0.0829  0.3007
   17CHTO   H60 7086   8.921   5.231  -0.845  0.0117 -1.2485  0.5500
   17CHTO   C36 7087   8.939   5.458  -0.796 -0.5053  0.6577 -0.2938
   17CHTO   O25 7088   8.793   5.468  -0.824 -0.3756 -0.2263 -0.3733
   17CHTO   H40 7089   8.759   5.555  -0.808 -2.7325 -1.5569 -1.6584
   17CHTO   O15 7090   9.056   5.266  -1.208 -0.1564 -0.0318  0.1983
   17CHTO   C19 7091   8.978   5.230  -1.328 -0.0571  0.4548 -0.0019
   17CHTO   H47 7092   9.020   5.296  -1.414 -0.6650 -0.7527  1.3734
   17CHTO   C20 7093   8.973   5.076  -1.370 -0.1357 -0.3824 -0.1033
   17CHTO   H48 7094   8.955   5.009  -1.280  1.4472  0.8173  1.4356
   17CHTO   O19 7095   9.096   5.040  -1.426 -0.4046  0.0507 -0.0536
   17CHTO   H35 7096   9.141   5.111  -1.457 -0.2591 -0.5121  0.4946
   17CHTO   C21 7097   8.862   5.048  -1.483  0.6691 -0.3703 -0.4117
   17CHTO   H49 7098   8.891   5.096  -1.577  1.0455 -2.3011  0.7229
   17CHTO    N4 7099   8.849   4.907  -1.526  0.0112 -0.1550 -0.0601
   17CHTO   H41 7100   8.765   4.893  -1.589  0.7533  0.0641 -0.4919
   17CHTO   H42 7101   8.848   4.835  -1.442 -0.6476 -0.1248 -0.3608
   17CHTO   C22 7102   8.731   5.108  -1.438  0.4688  0.7945 -0.6468
   17CHTO   H50 7103   8.697   5.063  -1.338 -1.0223 -1.6188 -0.8220
   17CHTO   O14 7104   8.748   5.252  -1.418  0.6800 -0.7785  0.0987
   17CHTO   C23 7105   8.833   5.279  -1.309 -0.1374 -0.4051 -0.1656
   17CHTO   H51 7106   8.786   5.237  -1.221 -1.0710 -0.4990 -0.4488
   17CHTO   C34 7107   8.828   5.434  -1.279  0.2750 -0.4710 -0.1934
   17CHTO   O23 7108   8.696   5.467  -1.231  0.1894 -0.0999 -0.3149
   17CHTO   H38 7109   8.657   5.506  -1.306 -2.3254  0.6522 -0.2931
   17CHTO   O16 7110   8.619   5.093  -1.530  0.2560 -0.7403  0.0032
   17CHTO   C24 7111   8.489   4.994  -1.463 -0.1107 -0.1959 -0.3048
   17CHTO   H52 7112   8.516   4.939  -1.375 -0.6140 -1.2376 -0.4674
   17CHTO   C26 7113   8.438   4.897  -1.571 -0.1178  0.1745 -0.1956
   17CHTO   H54 7114   8.405   4.961  -1.661 -1.9186 -0.5157 -2.2562
   17CHTO   O20 7115   8.555   4.821  -1.601  0.3109 -0.2963 -0.2591
   17CHTO   H36 7116   8.532   4.735  -1.642 -0.9746 -1.6178 -1.9016
   17CHTO   C30 7117   8.318   4.814  -1.520  0.0759 -0.5792  0.7816
   17CHTO   H58 7118   8.352   4.753  -1.432  1.6543  0.3036 -1.1133
   17CHTO    N6 7119   8.256   4.729  -1.627 -0.3263 -0.4096 -0.6444
   17CHTO   H45 7120   8.210   4.802  -1.697  0.3362 -0.0965 -0.7153
   17CHTO   H46 7121   8.338   4.677  -1.677  0.3517  0.7219  0.7423
   17CHTO   C33 7122   8.210   4.911  -1.459 -0.5609  0.1048 -0.1676
   17CHTO   H61 7123   8.151   4.966  -1.532 -0.8697  0.3370 -1.4205
   17CHTO   O18 7124   8.263   5.005  -1.362  0.1629  0.2003 -0.4270
   17CHTO   C28 7125   8.368   5.085  -1.425  0.3546  0.8795  0.1951
   17CHTO   H56 7126   8.330   5.136  -1.517 -2.1943 -0.4805 -0.7481
   17CHTO   C35 7127   8.406   5.203  -1.335 -0.2861 -0.0147  0.0186
   17CHTO   O24 7128   8.304   5.304  -1.334  0.1619  0.4147 -0.0675
   17CHTO   H39 7129   8.327   5.358  -1.404  1.2370 -0.9740  1.7738
   17CHTO    O9 7130   8.119   4.824  -1.396  0.3984 -0.3567 -0.0642
   17CHTO   C13 7131   7.948   4.907  -1.380  0.6049  0.0988  0.9080
   17CHTO   H26 7132   7.918   4.929  -1.486 -0.0426  0.5530  1.2678
   17CHTO   C11 7133   7.962   5.040  -1.294 -0.4201 -0.8061 -0.0604
   17CHTO   H24 7134   8.009   5.127  -1.352  0.4810  1.4003  2.1595
   17CHTO    O8 7135   8.056   5.008  -1.192 -0.2965  0.0620  0.4748
   17CHTO    H3 7136   8.133   4.974  -1.221 -3.7323  0.8648  2.4835
   17CHTO    C9 7137   7.819   5.081  -1.240 -0.7769  0.0009  0.2201
   17CHTO   H22 7138   7.755   5.089  -1.331 -1.2551  0.5407 -0.6445
   17CHTO    N2 7139   7.816   5.214  -1.177  0.1166 -0.1281 -0.0720
   17CHTO   H10 7140   7.868   5.206  -1.087 -0.5048 -1.5504  0.6316
   17CHTO   H11 7141   7.855   5.286  -1.240 -3.1919 -2.4758 -2.2449
   17CHTO    C7 7142   7.761   4.971  -1.140  0.2274  0.1959 -0.0964
   17CHTO   H20 7143   7.662   5.013  -1.117  1.1412 -3.5493  0.4625
   17CHTO    O4 7144   7.745   4.842  -1.213  0.1250 -0.0514 -0.4100
   17CHTO   C14 7145   7.840   4.802  -1.320 -0.2209  0.2897 -0.0574
   17CHTO   H27 7146   7.780   4.768  -1.402 -1.9949  0.6403 -0.0491
   17CHTO   C18 7147   7.909   4.677  -1.262  0.1275 -0.1086 -0.4395
   17CHTO   O13 7148   7.820   4.577  -1.202 -0.0437 -0.1191  0.1269
   17CHTO    H7 7149   7.734   4.610  -1.178  0.3892  0.7791 -1.1360
   17CHTO    O2 7150   7.853   4.956  -1.002  0.2460  0.1821  0.3658
   17CHTO    C1 7151   7.783   4.954  -0.874  0.2130 -0.4551 -0.0156
   17CHTO   H14 7152   7.712   4.864  -0.877  0.8394  1.7607  2.0430
   17CHTO    C2 7153   7.702   5.090  -0.835  0.5702 -0.0149 -0.0953
   17CHTO   H15 7154   7.770   5.168  -0.867  4.6702 -1.8420 -0.8146
   17CHTO    O6 7155   7.585   5.102  -0.917  0.0534 -0.6312  0.6183
   17CHTO    H1 7156   7.563   5.192  -0.919 -0.7637 -3.3800  1.1845
   17CHTO    C3 7157   7.666   5.093  -0.674  0.3367 -0.2072  0.7411
   17CHTO   H16 7158   7.585   5.028  -0.646  1.5673  0.9397  0.7884
   17CHTO    N1 7159   7.620   5.230  -0.643 -0.4642 -0.2579 -0.2010
   17CHTO    H8 7160   7.596   5.294  -0.731 -1.1971  0.3758 -1.5915
   17CHTO    H9 7161   7.669   5.274  -0.565 -2.6726 -1.7923 -0.7362
   17CHTO    C4 7162   7.786   5.049  -0.592 -0.4796 -0.3667  0.5155
   17CHTO   H17 7163   7.867   5.119  -0.591  0.9120  0.6376  2.4570
   17CHTO    O1 7164   7.818   4.920  -0.634 -0.5779 -0.0535  0.2371
   17CHTO    C5 7165   7.881   4.912  -0.765  0.5452 -0.0376  0.5902
   17CHTO   H18 7166   7.965   4.975  -0.763  0.7745 -0.3699  1.5235
   17CHTO   C16 7167   7.937   4.769  -0.776  0.8232 -0.1676  0.5015
   17CHTO   O11 7168   8.052   4.731  -0.702 -0.7604  0.1853 -0.1810
   17CHTO    H5 7169   8.067   4.641  -0.706  0.5049  1.4647  0.7462
   17CHTO    O3 7170   7.756   5.025  -0.452 -0.5224  0.0745  0.0881
   17CHTO    C6 7171   7.849   4.963  -0.361  0.0573  0.7908  0.2563
   17CHTO   H19 7172   7.918   4.894  -0.419  0.7206 -2.6800  1.4808
   17CHTO    C8 7173   7.922   5.071  -0.275  0.1966 -0.1930 -0.9654
   17CHTO   H21 7174   7.844   5.132  -0.219  1.8405 -0.0794  3.6293
   17CHTO    O7 7175   8.001   5.153  -0.364  0.3289 -0.1791 -0.1281
   17CHTO    H2 7176   7.960   5.214  -0.422  1.4546 -0.4108 -1.4879
   17CHTO   C12 7177   8.013   5.006  -0.171  0.0332 -0.3144 -0.0435
   17CHTO   H25 7178   8.094   4.947  -0.219  2.3885  2.4582 -1.6184
   17CHTO    N3 7179   8.089   5.113  -0.091 -0.6789 -0.4565  0.2692
   17CHTO   H12 7180   8.200   5.092  -0.089  0.8649 -2.6649 -1.0346
   17CHTO   H13 7181   8.052   5.129   0.010  0.3303  0.9086  3.4569
   17CHTO   C15 7182   7.929   4.901  -0.081 -1.4682  0.5053 -0.5192
   17CHTO   H28 7183   7.856   4.953  -0.030 -1.7924  2.8119 -1.6153
   17CHTO   O10 7184   8.026   4.820   0.004 -0.6388  0.0727  0.0172
   17CHTO    H4 7185   8.065   4.878   0.071  2.5024  1.1619  1.3009
   17CHTO    O5 7186   7.876   4.803  -0.173  0.4778 -0.3654  0.1582
   17CHTO   C10 7187   7.776   4.861  -0.266  0.3193 -0.4244  0.0232
   17CHTO   H23 7188   7.699   4.918  -0.216 -0.5402 -0.9627 -1.6334
   17CHTO   C17 7189   7.710   4.741  -0.338 -0.1068 -0.1908  0.0164
   17CHTO   O12 7190   7.603   4.780  -0.418 -0.0869  0.0109 -0.0159
   17CHTO    H6 7191   7.521   4.772  -0.369 -1.4507  0.1637  3.3908
   18CHTO  H203 7192   7.472   7.366   3.903  1.4273 -1.6077  2.2313
   18CHTO   O82 7193   7.484   7.392   3.815 -0.2275  0.4753 -0.4184
   18CHTO  C123 7194   7.617   7.360   3.774  0.5491 -0.0021  0.3195
   18CHTO  H227 7195   7.661   7.289   3.846 -1.5716 -0.1065  0.0843
   18CHTO   O77 7196   7.586   7.295   3.647  0.0239 -0.6129  0.0509
   18CHTO  C118 7197   7.703   7.231   3.591 -0.2755  0.3032  0.6374
   18CHTO  H222 7198   7.730   7.159   3.665  2.6117 -0.2018 -3.3367
   18CHTO  C125 7199   7.646   7.154   3.470 -0.6524  0.0329 -0.2254
   18CHTO   O84 7200   7.613   7.250   3.369 -0.0372 -0.1104 -0.0761
   18CHTO  H205 7201   7.517   7.260   3.365 -1.8578  0.5957 -2.1693
   18CHTO  C114 7202   7.820   7.336   3.570  0.5193  0.0162  0.0021
   18CHTO  H218 7203   7.792   7.401   3.486 -0.6968  3.2439 -1.9453
   18CHTO  C116 7204   7.850   7.425   3.697  0.1121 -0.2677  0.3222
   18CHTO  H220 7205   7.908   7.352   3.771 -0.1194 -0.2007 -1.6511
   18CHTO   O79 7206   7.955   7.520   3.666  0.1850 -0.4517 -0.4015
   18CHTO  H201 7207   7.941   7.594   3.723  2.0948  1.2051 -0.0420
   18CHTO  C120 7208   7.715   7.482   3.758  0.5156  0.5256 -0.3798
   18CHTO  H224 7209   7.680   7.553   3.682  1.7980  0.0929  0.5131
   18CHTO   N21 7210   7.748   7.545   3.886 -0.4771  0.3296 -0.2690
   18CHTO  H211 7211   7.784   7.647   3.866  2.2436 -2.2718  0.6623
   18CHTO  H212 7212   7.815   7.490   3.951 -1.1648 -0.6712 -2.7163
   18CHTO   O75 7213   7.935   7.265   3.527 -0.0952  0.4058  0.1162
   18CHTO  C112 7214   8.019   7.342   3.389  0.0387  0.6803 -0.4672
   18CHTO  H216 7215   7.996   7.452   3.399 -0.3210 -0.0917 -2.0072
   18CHTO   O73 7216   7.960   7.292   3.274  0.5189 -0.0830  0.0140
   18CHTO  C113 7217   8.000   7.363   3.158 -0.0393 -0.1233  0.0829
   18CHTO  H217 7218   7.980   7.478   3.168 -0.6860 -0.0722 -1.2822
   18CHTO  C124 7219   7.923   7.301   3.041 -0.0243  0.1713  0.0517
   18CHTO   O83 7220   7.952   7.163   3.024  0.1669  0.3850  0.2260
   18CHTO  H204 7221   7.885   7.109   3.058 -0.7237 -1.9672  2.0295
   18CHTO  C109 7222   8.156   7.352   3.139 -0.8353  0.4691 -0.2336
   18CHTO  H213 7223   8.177   7.244   3.116  0.0993 -1.5858 -2.4623
   18CHTO  C110 7224   8.230   7.402   3.274 -1.0312 -0.1390 -0.4463
   18CHTO  H214 7225   8.205   7.503   3.288 -1.4741  1.2721 -2.9866
   18CHTO   O78 7226   8.374   7.393   3.250  0.2547  0.1592 -0.4385
   18CHTO  H200 7227   8.412   7.361   3.321 -2.3547 -1.4936  1.9480
   18CHTO  C111 7228   8.174   7.313   3.392  0.4971 -0.3734  0.1927
   18CHTO  H215 7229   8.190   7.207   3.369  0.8192  0.7428  0.8920
   18CHTO   N19 7230   8.237   7.342   3.521  0.3654  0.4244 -0.3769
   18CHTO  H207 7231   8.339   7.327   3.512 -0.9778  1.3559 -0.3311
   18CHTO  H208 7232   8.208   7.436   3.560  0.2311 -0.9345 -0.0939
   18CHTO   O74 7233   8.201   7.430   3.013  0.4439 -0.2172 -0.4155
   18CHTO  C115 7234   8.310   7.342   2.920 -0.6015 -0.4221 -0.0936
   18CHTO  H219 7235   8.401   7.320   2.978 -0.5812 -1.3946  1.8578
   18CHTO   O76 7236   8.254   7.195   2.886 -0.0666  0.6164  0.1521
   18CHTO  C122 7237   8.338   7.116   2.806  0.0635  0.6701  0.5262
   18CHTO  H226 7238   8.297   7.016   2.809  2.5126  1.7707 -1.3443
   18CHTO  C126 7239   8.476   7.104   2.871  0.2047  0.0296  0.0900
   18CHTO   O85 7240   8.488   7.029   2.994  0.2604  0.6633 -0.2259
   18CHTO  H206 7241   8.408   7.053   3.044 -0.7117  1.1271  1.1184
   18CHTO  C121 7242   8.345   7.190   2.669  0.0581  0.4663  0.0394
   18CHTO  H225 7243   8.425   7.135   2.610  2.8924  1.2834  0.0407
   18CHTO   O81 7244   8.226   7.167   2.590  0.2725 -0.1723 -0.4764
   18CHTO  H202 7245   8.156   7.226   2.613 -1.2200  1.7723  0.5424
   18CHTO  C119 7246   8.397   7.337   2.677 -0.3873 -0.4294 -1.3597
   18CHTO  H223 7247   8.503   7.319   2.693  1.6054  1.5966 -2.2513
   18CHTO  C117 7248   8.347   7.429   2.791  0.4479  0.0031 -0.1951
   18CHTO  H221 7249   8.252   7.482   2.766 -1.4077  3.4241 -0.0508
   18CHTO   N20 7250   8.448   7.542   2.825  0.6306 -0.2020 -0.0502
   18CHTO  H209 7251   8.542   7.504   2.867 -1.3612  1.8769 -0.1814
   18CHTO  H210 7252   8.402   7.620   2.880 -0.4730  1.1096  0.2388
   18CHTO   O80 7253   8.402   7.424   2.521  0.6299 -0.3603 -0.2166
   18CHTO  C103 7254   8.523   7.422   2.434 -0.2255 -0.1948 -0.2320
   18CHTO  H190 7255   8.491   7.468   2.343  1.0754 -0.7739 -2.6220
   18CHTO  C101 7256   8.658   7.482   2.491  0.9642  0.6040 -0.3129
   18CHTO  H188 7257   8.673   7.442   2.588 -0.2316 -1.5168 -1.8549
   18CHTO   O68 7258   8.647   7.642   2.505  0.4774  0.2590  0.2458
   18CHTO  H168 7259   8.589   7.675   2.437  0.3899  1.1505 -0.2328
   18CHTO   C99 7260   8.787   7.446   2.398  0.2608 -1.2155 -0.0283
   18CHTO  H186 7261   8.777   7.494   2.294 -0.1907 -2.4525 -1.4663
   18CHTO   N17 7262   8.920   7.498   2.454  0.5019 -0.3652  0.5245
   18CHTO  H174 7263   8.989   7.418   2.482  2.4436  1.1424 -2.0907
   18CHTO  H175 7264   8.903   7.559   2.541 -1.3656 -0.8198  0.8931
   18CHTO   C97 7265   8.786   7.297   2.366 -1.0631 -0.1895  0.8263
   18CHTO  H184 7266   8.799   7.248   2.465 -0.2622  0.1267  1.3071
   18CHTO   O64 7267   8.664   7.258   2.303  0.4532  0.4400 -0.5326
   18CHTO  C104 7268   8.553   7.268   2.399  0.5034  0.3220 -0.3635
   18CHTO  H191 7269   8.561   7.209   2.489 -0.9995 -0.0252 -1.6917
   18CHTO  C108 7270   8.427   7.216   2.325  0.2180 -0.4498 -0.3909
   18CHTO   O71 7271   8.431   7.079   2.281  0.1803  0.0409 -0.0353
   18CHTO  H171 7272   8.351   7.058   2.237 -1.3831 -2.5810 -1.4418
   18CHTO   O62 7273   8.893   7.264   2.270 -0.0876 -0.3247  0.4398
   18CHTO   C91 7274   8.921   7.123   2.265 -0.1490  0.9750  0.7964
   18CHTO  H178 7275   8.888   7.077   2.357  2.1236  0.0858 -0.0125
   18CHTO   C92 7276   9.079   7.112   2.268  0.5133  0.6914  0.9313
   18CHTO  H179 7277   9.121   7.155   2.360 -1.5023  1.6158  1.6481
   18CHTO   O66 7278   9.106   6.970   2.276 -0.3762  0.3193 -0.4124
   18CHTO  H166 7279   9.193   6.957   2.317  1.2684 -1.0924 -0.9586
   18CHTO   C93 7280   9.142   7.168   2.131 -0.5247  0.8801  0.1261
   18CHTO  H180 7281   9.232   7.113   2.106 -2.4296 -0.4650 -0.0165
   18CHTO   N16 7282   9.188   7.312   2.147 -0.3143  0.6194  0.7336
   18CHTO  H172 7283   9.262   7.321   2.224  2.0564 -0.2092  0.3639
   18CHTO  H173 7284   9.221   7.347   2.049 -1.9324  0.5174  2.2823
   18CHTO   C94 7285   9.040   7.147   2.011 -0.8270  0.1322  0.6976
   18CHTO  H181 7286   8.970   7.232   2.006  1.6956  2.7125  1.9918
   18CHTO   O61 7287   8.965   7.030   2.034  0.0478 -0.1729 -0.2821
   18CHTO   C95 7288   8.869   7.035   2.143 -0.6721 -0.0045  0.4481
   18CHTO  H182 7289   8.780   7.081   2.112 -0.0165 -0.1862  1.8592
   18CHTO  C106 7290   8.814   6.898   2.177 -0.0711 -0.3722 -0.5162
   18CHTO   O69 7291   8.701   6.877   2.269 -0.1457 -0.8207 -0.6074
   18CHTO  H169 7292   8.730   6.868   2.359  1.7862 -2.6969  1.0973
   18CHTO   O63 7293   9.119   7.114   1.879  0.8116 -0.6782  0.9817
   18CHTO   C96 7294   9.080   7.196   1.755  0.6415 -0.1288 -0.4125
   18CHTO  H183 7295   8.971   7.184   1.743  1.7656  0.7682  1.1971
   18CHTO   C98 7296   9.137   7.133   1.619  0.1561  0.2617 -0.6704
   18CHTO  H185 7297   9.141   7.026   1.631  0.1409  3.7303 -0.3467
   18CHTO   O67 7298   9.037   7.158   1.513  0.0156  0.3532  0.0015
   18CHTO  H167 7299   9.071   7.148   1.426 -0.2439  0.2198  1.7083
   18CHTO  C102 7300   9.276   7.190   1.571 -0.0520 -0.2109  0.3114
   18CHTO  H189 7301   9.288   7.154   1.468 -1.4325 -1.1840  2.4146
   18CHTO   N18 7302   9.393   7.137   1.647  0.2806  0.4891  0.0546
   18CHTO  H176 7303   9.392   7.031   1.642  1.8659  3.0870  1.8757
   18CHTO  H177 7304   9.484   7.174   1.605  0.7816  1.7239 -2.4281
   18CHTO  C105 7305   9.268   7.343   1.560 -0.2182 -0.5132  0.3412
   18CHTO  H192 7306   9.358   7.385   1.603  0.3535  0.1429  1.2021
   18CHTO   O65 7307   9.155   7.398   1.635 -0.3267 -0.0053 -0.2851
   18CHTO  C100 7308   9.121   7.350   1.766 -0.0192 -0.7375 -0.4733
   18CHTO  H187 7309   9.213   7.361   1.824  4.3110 -2.8998 -1.3903
   18CHTO  C107 7310   9.012   7.445   1.829  0.2600 -0.3552  0.3161
   18CHTO   O70 7311   9.060   7.577   1.829  0.3759 -0.1483  0.7910
   18CHTO  H170 7312   9.041   7.615   1.914  1.1055  0.4724 -0.7033
   18CHTO   O57 7313   9.249   7.378   1.398 -0.2118  0.4990 -0.0033
   18CHTO   C85 7314   9.185   7.497   1.365  0.1971  0.4880 -0.1529
   18CHTO  H157 7315   9.181   7.555   1.455 -0.5232 -1.9239 -0.3994
   18CHTO   C83 7316   9.031   7.481   1.339 -0.0253 -0.2055  0.1561
   18CHTO  H155 7317   8.992   7.439   1.430 -2.0822 -1.9027  1.5577
   18CHTO   O56 7318   9.011   7.391   1.232  0.4009  0.1981  0.4992
   18CHTO  H135 7319   9.047   7.304   1.242 -0.6417  3.7883 -2.1325
   18CHTO   C81 7320   8.974   7.628   1.327 -0.2933 -0.2085  0.4112
   18CHTO  H153 7321   9.000   7.683   1.418  0.6845  1.8729  0.1152
   18CHTO   N14 7322   8.823   7.631   1.337 -0.0193 -0.3732  0.3769
   18CHTO  H141 7323   8.796   7.737   1.363  0.6644  3.6507 -0.9070
   18CHTO  H142 7324   8.779   7.599   1.241  1.5287 -2.1655 -2.6449
   18CHTO   C79 7325   9.038   7.694   1.208 -0.2498 -0.8365 -0.4390
   18CHTO  H151 7326   9.006   7.801   1.203  2.3884  0.1888  0.5938
   18CHTO   O52 7327   9.185   7.702   1.220 -0.2096 -0.2634  0.1144
   18CHTO   C86 7328   9.249   7.576   1.245 -0.1297  0.3902  0.3461
   18CHTO  H158 7329   9.249   7.526   1.141  2.5465 -2.6531 -0.9426
   18CHTO   C90 7330   9.405   7.598   1.278  0.4830 -0.3135 -0.6617
   18CHTO   O60 7331   9.425   7.683   1.390 -0.0090  0.0596  0.0046
   18CHTO  H138 7332   9.485   7.649   1.454  0.5798  1.5696 -0.4454
   18CHTO   O50 7333   9.004   7.624   1.084  0.0608 -0.1723  0.5714
   18CHTO   C73 7334   8.988   7.647   0.943 -0.1279  0.3393 -0.2378
   18CHTO  H145 7335   9.054   7.582   0.880  2.1828  1.5106 -1.6705
   18CHTO   C74 7336   9.030   7.790   0.898 -0.2381  0.3348  0.7313
   18CHTO  H146 7337   9.124   7.803   0.952  3.3929 -0.4181  1.2370
   18CHTO   O54 7338   9.052   7.772   0.754 -0.4182  0.2903  0.1239
   18CHTO  H133 7339   8.972   7.754   0.714  4.9526  1.8003 -1.0251
   18CHTO   C75 7340   8.921   7.903   0.940 -0.4890  0.0184  0.2734
   18CHTO  H147 7341   8.918   7.911   1.045 -0.0323 -0.1022 -1.8713
   18CHTO   N13 7342   8.960   8.034   0.891 -0.2396 -0.3759 -0.0722
   18CHTO  H139 7343   9.057   8.062   0.930 -0.7406  2.2503 -0.6063
   18CHTO  H140 7344   8.977   8.041   0.787  2.0049 -0.5967  2.0624
   18CHTO   C76 7345   8.774   7.859   0.886 -0.3311 -0.3878  0.3005
   18CHTO  H148 7346   8.790   7.865   0.775  3.1537 -1.2362 -0.2021
   18CHTO   O49 7347   8.741   7.720   0.917 -0.3381  0.0756  0.1609
   18CHTO   C77 7348   8.844   7.620   0.900 -0.5503  0.1511 -0.0813
   18CHTO  H149 7349   8.843   7.615   0.792  1.2421 -1.2187  1.7831
   18CHTO   C88 7350   8.769   7.496   0.959 -0.7996 -0.1120  0.4175
   18CHTO   O58 7351   8.857   7.375   0.965  0.6007  0.3077 -0.1842
   18CHTO  H136 7352   8.898   7.358   0.880  0.8190  0.4419  0.4638
   18CHTO   O51 7353   8.652   7.941   0.949 -0.2786 -0.4113  0.3158
   18CHTO   C78 7354   8.504   7.863   0.997  0.0618 -0.3439  0.8026
   18CHTO  H150 7355   8.524   7.755   1.019 -3.0419 -1.0254 -0.4420
   18CHTO   C80 7356   8.394   7.859   0.880  0.4287 -0.1191  0.1572
   18CHTO  H152 7357   8.395   7.961   0.834  2.6183 -0.9609  1.1090
   18CHTO   O55 7358   8.444   7.773   0.777 -0.1361  0.3673 -0.1262
   18CHTO  H134 7359   8.380   7.772   0.708  1.3563  1.9273 -2.3778
   18CHTO   C84 7360   8.254   7.819   0.925 -0.8276  0.1469 -0.0257
   18CHTO  H156 7361   8.245   7.707   0.938  1.0906  0.4091  1.4910
   18CHTO   N15 7362   8.137   7.842   0.825 -0.2305  0.0551 -0.0239
   18CHTO  H143 7363   8.112   7.752   0.776 -1.3407  1.2851 -1.5201
   18CHTO  H144 7364   8.056   7.874   0.889 -2.6949 -0.0942  0.7779
   18CHTO   C87 7365   8.225   7.869   1.068 -0.0857  0.0324 -0.0275
   18CHTO  H159 7366   8.184   7.967   1.061 -0.8497  0.7654  0.3819
   18CHTO   O53 7367   8.342   7.863   1.161 -0.1566  0.3269  0.4139
   18CHTO   C82 7368   8.448   7.945   1.116 -0.2216 -0.7260  0.2001
   18CHTO  H154 7369   8.408   8.045   1.089  1.0803 -3.8466  0.0245
   18CHTO   C89 7370   8.555   7.958   1.217  0.0544 -0.0511  0.1389
   18CHTO   O59 7371   8.531   8.041   1.330 -0.1368 -0.1564  0.7927
   18CHTO  H137 7372   8.602   8.046   1.395  1.0006  2.4940  1.9106
   18CHTO   O45 7373   8.106   7.768   1.132 -0.0518 -0.5465 -0.0422
   18CHTO   C67 7374   8.127   7.716   1.269  1.3280  0.4230  0.2899
   18CHTO  H124 7375   8.229   7.695   1.275 -0.7089  1.8738  0.1107
   18CHTO   C65 7376   8.104   7.829   1.381  0.0274 -0.3946 -0.3432
   18CHTO  H122 7377   8.036   7.897   1.346  3.5533  0.0962  1.9253
   18CHTO   O44 7378   8.226   7.906   1.394  0.4202 -0.7098 -0.1241
   18CHTO  H102 7379   8.207   7.992   1.418  4.4112 -2.9667 -0.5867
   18CHTO   C63 7380   8.039   7.765   1.512  0.1782 -0.2233 -0.1340
   18CHTO  H120 7381   7.936   7.745   1.486 -3.0927  1.2823 -2.0164
   18CHTO   N11 7382   8.026   7.853   1.635  0.0888  0.4513  0.1879
   18CHTO  H108 7383   7.948   7.816   1.701 -1.3696  1.3131  0.4008
   18CHTO  H109 7384   8.116   7.864   1.691  4.1756 -1.9427 -0.5897
   18CHTO   C61 7385   8.104   7.626   1.540 -0.0909 -0.9007 -0.3371
   18CHTO  H118 7386   8.054   7.588   1.628  0.7434 -0.5528  1.6681
   18CHTO   O40 7387   8.089   7.525   1.435 -0.1136  0.3942  0.0894
   18CHTO   C68 7388   8.048   7.588   1.308  0.2403  0.2720  0.4957
   18CHTO  H125 7389   7.935   7.621   1.313  2.0029 -2.7747  2.7517
   18CHTO   C72 7390   8.051   7.476   1.195 -0.3597 -0.0058  0.2201
   18CHTO   O48 7391   8.174   7.403   1.174 -0.0091  0.0809  0.6400
   18CHTO  H105 7392   8.141   7.332   1.127  0.1661  1.1800 -0.5168
   18CHTO   O38 7393   8.248   7.646   1.568  0.2930  0.2881 -0.7240
   18CHTO   C55 7394   8.301   7.530   1.641  0.0758  0.0777  0.6576
   18CHTO  H112 7395   8.239   7.441   1.618 -0.9697  1.3501 -1.5214
   18CHTO   C56 7396   8.308   7.559   1.794  0.1058 -0.2393 -0.0076
   18CHTO  H113 7397   8.362   7.655   1.802  2.6358  0.6350  0.1971
   18CHTO   O42 7398   8.176   7.574   1.851  0.0735 -0.0220  0.2364
   18CHTO  H100 7399   8.127   7.493   1.843 -0.9413 -1.8633  1.5089
   18CHTO   C57 7400   8.382   7.443   1.868  0.7738 -0.2213  0.2319
   18CHTO  H114 7401   8.318   7.356   1.889  4.0595  1.5237 -3.1222
   18CHTO   N10 7402   8.419   7.476   2.012 -0.4609  0.1817 -0.0519
   18CHTO  H106 7403   8.340   7.429   2.075 -0.2759  1.6833  0.2521
   18CHTO  H107 7404   8.405   7.582   2.021  0.1172  2.0203 -1.4373
   18CHTO   C58 7405   8.514   7.400   1.800 -0.1729  0.4951 -0.4062
   18CHTO  H115 7406   8.595   7.472   1.815  0.8099 -3.0788  1.6416
   18CHTO   O37 7407   8.491   7.380   1.663 -0.4123 -0.0206  0.5871
   18CHTO   C59 7408   8.443   7.495   1.588 -0.2260 -0.2469 -0.2798
   18CHTO  H116 7409   8.519   7.578   1.585 -0.2930  1.6217 -2.3285
   18CHTO   C70 7410   8.441   7.434   1.446 -0.6046 -0.9515 -0.2007
   18CHTO   O46 7411   8.431   7.528   1.344  0.0480  0.1199  0.4921
   18CHTO  H103 7412   8.479   7.495   1.273 -1.3288 -0.8822  0.7872
   18CHTO   O39 7413   8.569   7.249   1.857  0.8646 -0.2649  0.3257
   18CHTO   C60 7414   8.525   7.132   1.783  0.9968 -0.6537 -0.5203
   18CHTO  H117 7415   8.464   7.153   1.702  2.9548  0.2239  1.8603
   18CHTO   C62 7416   8.658   7.082   1.714  0.7469  0.1564  0.5242
   18CHTO  H119 7417   8.692   7.176   1.662 -0.0385 -1.5739  0.4032
   18CHTO   O43 7418   8.753   7.048   1.819  0.1105  0.2378 -0.4905
   18CHTO  H101 7419   8.732   6.959   1.853  0.7950 -0.6212 -0.2706
   18CHTO   C66 7420   8.626   6.964   1.611 -0.2518 -0.0094  0.5396
   18CHTO  H123 7421   8.561   7.003   1.538  0.0134 -1.0450  0.6796
   18CHTO   N12 7422   8.742   6.920   1.535 -0.5661  0.5396 -0.8999
   18CHTO  H110 7423   8.727   6.943   1.431 -1.3683  1.4324  1.5092
   18CHTO  H111 7424   8.835   6.971   1.567 -0.3339 -0.8070 -0.3264
   18CHTO   C69 7425   8.555   6.850   1.683  0.1214  0.3662  0.2067
   18CHTO  H126 7426   8.627   6.795   1.756 -1.6511  2.0365 -2.9887
   18CHTO   O41 7427   8.421   6.915   1.767  0.3179 -0.5708  0.0899
   18CHTO   C64 7428   8.458   7.021   1.869  0.1821  0.0715 -0.2563
   18CHTO  H121 7429   8.519   6.984   1.951 -0.3520 -0.5884 -1.0438
   18CHTO   C71 7430   8.329   7.073   1.931 -0.2666  0.3896 -0.4318
   18CHTO   O47 7431   8.262   6.963   1.987  0.0142 -0.1219 -0.7782
   18CHTO  H104 7432   8.317   6.887   1.992  1.5395  0.4258  0.7456
   18CHTO   O34 7433   8.502   6.746   1.576  0.4461  0.3194 -0.2863
   18CHTO   C49 7434   8.373   6.702   1.492  0.0868 -0.0699  0.4911
   18CHTO   H91 7435   8.408   6.628   1.419  2.0595 -0.2585  0.4112
   18CHTO   C47 7436   8.326   6.814   1.401 -0.8319  0.2099 -0.3353
   18CHTO   H89 7437   8.260   6.763   1.320 -1.2724  0.3681 -0.2279
   18CHTO   O33 7438   8.437   6.872   1.338 -0.4330  0.4863  0.2532
   18CHTO   H70 7439   8.508   6.876   1.400  0.8268  0.6547 -0.9590
   18CHTO   C45 7440   8.259   6.931   1.485  0.7011  0.6625 -0.1940
   18CHTO   H87 7441   8.326   6.973   1.556 -1.4705  0.7389  0.2913
   18CHTO    N8 7442   8.207   7.046   1.406  0.3786  0.1669  0.0482
   18CHTO   H75 7443   8.117   7.008   1.367  1.4825  0.3859  1.0843
   18CHTO   H76 7444   8.273   7.068   1.325  0.4466 -0.5975  1.7800
   18CHTO   C43 7445   8.138   6.866   1.576  0.1121  0.6556  0.0273
   18CHTO   H85 7446   8.106   6.940   1.646  1.8228 -1.6300 -0.6567
   18CHTO   O29 7447   8.192   6.748   1.648 -0.0402 -0.1244 -0.1164
   18CHTO   C50 7448   8.256   6.644   1.575 -0.7924 -0.2711  0.0961
   18CHTO   H92 7449   8.311   6.566   1.630  0.0108  0.3980 -1.9454
   18CHTO   C54 7450   8.155   6.544   1.493 -0.0311 -0.0831 -0.1570
   18CHTO   O36 7451   8.099   6.442   1.572  0.3632  0.4730  0.4520
   18CHTO   H72 7452   8.024   6.408   1.527  0.5233  1.8392 -3.5833
   18CHTO   O27 7453   8.019   6.835   1.509 -0.1283  0.0677 -0.4027
   18CHTO   C37 7454   7.889   6.793   1.537  0.2013 -0.1345  0.8829
   18CHTO   H79 7455   7.900   6.688   1.550 -3.4895  0.8922 -0.2071
   18CHTO   C38 7456   7.833   6.842   1.678 -0.2433 -0.6409  0.7112
   18CHTO   H80 7457   7.870   6.947   1.701 -0.0662  0.7674  0.5133
   18CHTO   O31 7458   7.878   6.762   1.784 -0.7254 -0.2564  0.2853
   18CHTO   H68 7459   7.967   6.777   1.805 -1.9385  0.3756 -0.1213
   18CHTO   C39 7460   7.672   6.844   1.674  0.0477  0.9304 -0.2442
   18CHTO   H81 7461   7.639   6.745   1.704  2.2790 -1.0397  2.8682
   18CHTO    N7 7462   7.615   6.927   1.784  0.3560  0.1946 -0.0261
   18CHTO   H73 7463   7.550   6.873   1.855 -2.6160  1.1352 -0.8915
   18CHTO   H74 7464   7.573   7.015   1.739 -1.2317 -0.0792  1.2947
   18CHTO   C40 7465   7.609   6.868   1.539 -0.2783  0.1256 -1.0306
   18CHTO   H82 7466   7.614   6.973   1.503  1.0284  1.0263  1.3417
   18CHTO   O26 7467   7.669   6.783   1.445 -0.4269 -0.4812 -0.2396
   18CHTO   C41 7468   7.804   6.820   1.413 -0.1866  0.9600 -0.0325
   18CHTO   H83 7469   7.809   6.926   1.385 -0.3672  0.6475 -0.7166
   18CHTO   C52 7470   7.855   6.735   1.301  0.0839 -0.5555 -0.0389
   18CHTO   O35 7471   7.779   6.767   1.170 -0.2252  0.1382  0.2091
   18CHTO   H71 7472   7.804   6.715   1.093  0.1317 -0.1467  1.0667
   18CHTO   O28 7473   7.471   6.835   1.528  0.2232 -0.5093  0.0906
   18CHTO   C42 7474   7.401   6.833   1.396  0.7829  0.2927 -0.1697
   18CHTO   H84 7475   7.298   6.826   1.431 -2.4308  2.8967  0.9856
   18CHTO   C44 7476   7.412   6.701   1.306 -0.9316 -0.4795 -0.0289
   18CHTO   H86 7477   7.514   6.671   1.298 -0.8778 -0.3014 -2.3964
   18CHTO   O32 7478   7.335   6.599   1.362  0.5114  0.2501 -0.0698
   18CHTO   H69 7479   7.308   6.525   1.303 -1.3182 -0.6390 -1.9744
   18CHTO   C48 7480   7.364   6.723   1.152  0.1316 -0.3587 -0.4976
   18CHTO   H90 7481   7.253   6.727   1.150  1.2974  0.6392  2.8197
   18CHTO    N9 7482   7.409   6.608   1.076  0.5095 -0.1712 -0.3542
   18CHTO   H77 7483   7.515   6.601   1.066 -0.5415 -2.9717 -0.7239
   18CHTO   H78 7484   7.388   6.519   1.135  1.9790 -0.5362 -0.7046
   18CHTO   C51 7485   7.423   6.858   1.100 -0.2193 -0.2330 -0.4471
   18CHTO   H93 7486   7.537   6.855   1.118  4.2797 -1.1385 -1.4613
   18CHTO   O30 7487   7.356   6.953   1.185 -1.1092  0.4287 -0.3214
   18CHTO   C46 7488   7.408   6.972   1.318  0.2840 -0.0037 -1.0068
   18CHTO   H88 7489   7.510   7.004   1.308  1.7600  3.2892  1.7417
   18CHTO   C53 7490   7.335   7.077   1.403 -0.6062 -0.0868  0.0258
   18CHTO   O72 7491   7.360   7.214   1.365 -0.2498  0.6346 -0.0289
   18CHTO  H199 7492   7.330   7.271   1.434  0.6683  2.4645  1.8882
   18CHTO   O22 7493   7.398   6.890   0.961  0.0171  0.0939 -0.1153
   18CHTO   C31 7494   7.487   6.970   0.887  0.5424  0.1400  0.1626
   18CHTO   H59 7495   7.427   6.983   0.793 -2.7071 -0.7538 -0.6799
   18CHTO   C29 7496   7.513   7.113   0.946  0.1270  0.8244 -0.3280
   18CHTO   H57 7497   7.547   7.103   1.052  1.3133 -1.1922 -1.9899
   18CHTO   O21 7498   7.387   7.180   0.953  0.0173 -0.1584  0.0654
   18CHTO   H37 7499   7.383   7.251   1.012  0.2773 -1.5956  1.3435
   18CHTO   C27 7500   7.623   7.196   0.870  0.0141 -1.5965 -0.9051
   18CHTO   H55 7501   7.583   7.216   0.772  1.2279 -1.1222  1.7755
   18CHTO    N5 7502   7.661   7.331   0.935 -0.1374  0.3615  0.0216
   18CHTO   H43 7503   7.615   7.340   1.032 -3.2644 -0.0454  0.1571
   18CHTO   H44 7504   7.765   7.331   0.960  0.0238 -0.1670  1.7401
   18CHTO   C25 7505   7.749   7.108   0.844 -0.7920  0.1264 -0.3418
   18CHTO   H53 7506   7.791   7.087   0.945 -0.8285  1.8033  0.3350
   18CHTO   O17 7507   7.709   6.988   0.773  0.6589  0.2918 -0.1883
   18CHTO   C32 7508   7.621   6.901   0.843  0.3707  0.1697  0.7810
   18CHTO   H60 7509   7.663   6.855   0.931  1.7027  2.8937  0.5913
   18CHTO   C36 7510   7.590   6.794   0.743  0.1323  0.6012  0.4398
   18CHTO   O25 7511   7.507   6.691   0.798 -0.1058 -0.2496  0.1341
   18CHTO   H40 7512   7.478   6.636   0.726 -0.4452  1.6076  0.7631
   18CHTO   O15 7513   7.886   7.186   0.771  0.0461 -0.0193  0.3545
   18CHTO   C19 7514   8.031   7.172   0.768 -0.5927 -0.5286 -0.3530
   18CHTO   H47 7515   8.057   7.116   0.674  1.0787 -1.6665 -1.0086
   18CHTO   C20 7516   8.106   7.317   0.755 -0.5543  0.1540 -0.0855
   18CHTO   H48 7517   8.087   7.375   0.844 -1.9489  1.1564  0.1339
   18CHTO   O19 7518   8.044   7.380   0.638  0.2396 -0.1568 -0.6313
   18CHTO   H35 7519   8.087   7.346   0.563  1.1367  1.6574 -0.5770
   18CHTO   C21 7520   8.263   7.301   0.737  0.2847 -0.2680  0.1350
   18CHTO   H49 7521   8.285   7.239   0.645  0.8029 -2.2186 -2.6655
   18CHTO    N4 7522   8.334   7.427   0.735 -0.2954  0.1935  0.0871
   18CHTO   H41 7523   8.295   7.497   0.666  1.8853 -2.2718 -0.1991
   18CHTO   H42 7524   8.332   7.474   0.835  1.6570  1.5226  2.3625
   18CHTO   C22 7525   8.315   7.210   0.852 -0.0083  0.3391 -0.1326
   18CHTO   H50 7526   8.325   7.262   0.949  1.7556 -0.2887  0.1177
   18CHTO   O14 7527   8.240   7.084   0.863  0.1499 -0.2631  0.1766
   18CHTO   C23 7528   8.098   7.098   0.887  0.4420  0.1113  0.6602
   18CHTO   H51 7529   8.100   7.165   0.979  0.0398 -2.2582  1.2772
   18CHTO   C34 7530   8.047   6.951   0.906  0.3190  0.0806  0.0005
   18CHTO   O23 7531   8.066   6.897   1.034  0.2328  0.1835  0.4681
   18CHTO   H38 7532   8.147   6.850   1.037  0.3426 -0.3375 -0.5983
   18CHTO   O16 7533   8.449   7.162   0.834  0.2589 -0.2161 -0.3642
   18CHTO   C24 7534   8.508   7.071   0.976 -0.7251 -0.3734 -0.3906
   18CHTO   H52 7535   8.430   7.045   1.045  2.2019  1.0400 -1.5836
   18CHTO   C26 7536   8.611   7.168   1.045  0.0602 -0.1120 -0.2757
   18CHTO   H54 7537   8.685   7.205   0.965  1.4462  0.8417  0.1389
   18CHTO   O20 7538   8.534   7.284   1.089 -0.0791 -0.0390 -0.3184
   18CHTO   H36 7539   8.565   7.318   1.174  0.6878  1.1072 -0.4297
   18CHTO   C30 7540   8.676   7.094   1.164  0.7838 -0.6596  0.1551
   18CHTO   H58 7541   8.604   7.075   1.239 -1.9746  3.5740  1.0770
   18CHTO    N6 7542   8.778   7.172   1.236  0.2535  0.0204 -0.3865
   18CHTO   H45 7543   8.771   7.166   1.344  1.0314 -0.2030 -1.9761
   18CHTO   H46 7544   8.881   7.146   1.214  0.8685  2.4864  0.1313
   18CHTO   C33 7545   8.736   6.961   1.114 -1.0275  0.2070  0.0398
   18CHTO   H61 7546   8.819   6.980   1.038 -0.7670 -1.8242 -0.7377
   18CHTO   O18 7547   8.632   6.885   1.046  0.6630 -0.2830  0.0641
   18CHTO   C28 7548   8.579   6.946   0.932  0.2301  0.3829  0.0590
   18CHTO   H56 7549   8.652   6.967   0.859  1.2565  1.4776  1.9670
   18CHTO   C35 7550   8.466   6.858   0.866 -0.3785  0.4568 -0.4897
   18CHTO   O24 7551   8.508   6.727   0.840  0.2989 -0.4879 -0.0327
   18CHTO   H39 7552   8.605   6.720   0.834  2.1915 -0.8199 -0.7989
   18CHTO    O9 7553   8.793   6.883   1.220 -0.1608  0.1885  0.4173
   18CHTO   C13 7554   8.894   6.767   1.151  0.0770 -0.7418 -0.5951
   18CHTO   H26 7555   8.957   6.816   1.064  0.8247 -0.9439  0.7018
   18CHTO   C11 7556   8.804   6.646   1.101 -0.7544 -0.5102 -1.0573
   18CHTO   H24 7557   8.770   6.675   0.997 -0.4577 -0.8122  0.1516
   18CHTO    O8 7558   8.693   6.623   1.184 -0.5309  0.4156  0.3602
   18CHTO    H3 7559   8.650   6.559   1.137  0.9250  0.0201  1.7652
   18CHTO    C9 7560   8.898   6.526   1.079  0.4288 -0.4568  0.4966
   18CHTO   H22 7561   8.981   6.561   1.014 -1.2103 -1.4189  2.4885
   18CHTO    N2 7562   8.832   6.422   0.997  0.3497 -0.0131  0.1812
   18CHTO   H10 7563   8.745   6.389   1.052  0.1432 -1.4456 -2.0165
   18CHTO   H11 7564   8.819   6.455   0.897  0.0996  0.5269 -1.3926
   18CHTO    C7 7565   8.960   6.486   1.215 -0.2348  0.5545 -0.2287
   18CHTO   H20 7566   9.063   6.449   1.190 -1.2700  0.8062  0.4549
   18CHTO    O4 7567   8.968   6.593   1.311  0.2117  0.4860  0.2895
   18CHTO   C14 7568   8.995   6.719   1.256 -0.6758  0.1599  0.0312
   18CHTO   H27 7569   9.092   6.703   1.210  0.7741  0.2987 -0.6529
   18CHTO   C18 7570   9.018   6.813   1.377 -0.1073 -0.3842 -0.1111
   18CHTO   O13 7571   9.058   6.945   1.326  0.3563  0.1526 -0.1045
   18CHTO    H7 7572   9.145   6.969   1.351 -0.9309  3.3016 -2.1042
   18CHTO    O2 7573   8.874   6.351   1.290  0.4150 -0.2995  0.5523
   18CHTO    C1 7574   8.818   6.370   1.420  0.4159 -0.3299 -0.1363
   18CHTO   H14 7575   8.788   6.478   1.438  0.0424  0.5975 -1.9088
   18CHTO    C2 7576   8.911   6.325   1.535  0.2782 -0.8182 -0.6634
   18CHTO   H15 7577   8.938   6.227   1.512 -0.8833  1.3966 -0.3966
   18CHTO    O6 7578   9.021   6.420   1.522 -0.2475 -0.2554 -0.1522
   18CHTO    H1 7579   9.108   6.384   1.519  1.4406  0.1101 -1.1293
   18CHTO    C3 7580   8.836   6.323   1.674 -0.2756  0.9466  0.1949
   18CHTO   H16 7581   8.816   6.434   1.705  0.3769  1.1126  1.9258
   18CHTO    N1 7582   8.934   6.278   1.785 -0.0161 -0.5993 -0.1047
   18CHTO    H8 7583   9.000   6.200   1.758 -0.6127  0.5333 -0.2592
   18CHTO    H9 7584   8.887   6.262   1.878  0.1497  1.8501 -2.5903
   18CHTO    C4 7585   8.702   6.246   1.659  0.5100 -0.2540 -0.3825
   18CHTO   H17 7586   8.718   6.139   1.636 -3.2372  1.4581  0.9382
   18CHTO    O1 7587   8.615   6.305   1.564 -0.1203 -0.1146  0.1968
   18CHTO    C5 7588   8.681   6.289   1.434  0.5011 -0.3458  0.2768
   18CHTO   H18 7589   8.693   6.182   1.412 -0.0932  0.0511 -0.8374
   18CHTO   C16 7590   8.583   6.345   1.323  0.3970  0.3565  0.1026
   18CHTO   O11 7591   8.460   6.273   1.328  0.9574  0.2729 -0.3001
   18CHTO    H5 7592   8.424   6.274   1.416 -1.0685  0.6378 -0.7738
   18CHTO    O3 7593   8.625   6.261   1.782  0.8382 -0.2462  0.3659
   18CHTO    C6 7594   8.491   6.321   1.797 -0.1349 -0.8682  0.0107
   18CHTO   H19 7595   8.461   6.384   1.714  0.9433  2.2709 -2.4769
   18CHTO    C8 7596   8.388   6.208   1.822 -0.3940 -0.3814 -0.0542
   18CHTO   H21 7597   8.415   6.146   1.912  2.8643 -1.0484  0.5271
   18CHTO    O7 7598   8.386   6.131   1.701 -0.0483  0.1717 -0.1944
   18CHTO    H2 7599   8.461   6.073   1.699 -0.7168 -0.0625 -1.7458
   18CHTO   C12 7600   8.245   6.268   1.859  0.6025 -0.5831  0.2499
   18CHTO   H25 7601   8.194   6.308   1.762 -1.7935  0.3633  1.3260
   18CHTO    N3 7602   8.154   6.158   1.900 -0.1948 -0.4156  0.1862
   18CHTO   H12 7603   8.198   6.060   1.898 -3.0503 -1.4105  1.2754
   18CHTO   H13 7604   8.060   6.156   1.845 -0.6131 -0.8592  0.0121
   18CHTO   C15 7605   8.253   6.379   1.971  0.0513 -0.5068 -0.1707
   18CHTO   H28 7606   8.263   6.347   2.078 -0.7229  1.6025 -0.7411
   18CHTO   O10 7607   8.114   6.459   1.968  0.2980 -0.7631 -0.3303
   18CHTO    H4 7608   8.137   6.541   2.004 -0.2041  1.1224 -1.4188
   18CHTO    O5 7609   8.356   6.474   1.941  0.4711  0.4903  0.1149
   18CHTO   C10 7610   8.484   6.413   1.926 -0.7392 -0.2367  0.4883
   18CHTO   H23 7611   8.499   6.355   2.018 -0.6752  1.1391  0.0835
   18CHTO   C17 7612   8.598   6.515   1.935 -0.8582  0.1060 -0.0272
   18CHTO   O12 7613   8.629   6.548   2.072  0.0178 -0.4340 -0.3543
   18CHTO    H6 7614   8.582   6.501   2.139 -1.5268  1.4649  0.0658
   19CHTO  H203 7615   5.487   5.344   9.991  1.2811  1.1323  1.4262
   19CHTO   O82 7616   5.439   5.408  10.037 -0.1945 -0.1590 -0.1514
   19CHTO  C123 7617   5.496   5.534   9.997  0.4120  0.5170  0.0824
   19CHTO  H227 7618   5.497   5.536   9.885 -2.3203 -2.0073 -0.2803
   19CHTO   O77 7619   5.406   5.622  10.055  0.1423  0.1128 -0.2763
   19CHTO  C118 7620   5.437   5.754  10.011  0.2768 -0.3129  0.1311
   19CHTO  H222 7621   5.439   5.757   9.905  0.6218  0.5180 -1.6940
   19CHTO  C125 7622   5.310   5.836  10.054  0.1416 -0.5081  0.0462
   19CHTO   O84 7623   5.309   5.965  10.001 -0.0282 -0.5375  0.5649
   19CHTO  H205 7624   5.224   5.996  10.001  2.8685  0.8844  2.4198
   19CHTO  C114 7625   5.564   5.802  10.073  0.7053  0.3441  0.1636
   19CHTO  H218 7626   5.560   5.802  10.175  2.0922  2.3803 -1.5879
   19CHTO  C116 7627   5.685   5.704  10.042  0.5249  0.3217 -0.1610
   19CHTO  H220 7628   5.728   5.728   9.940  1.5751 -0.3649  0.9041
   19CHTO   O79 7629   5.802   5.738  10.126 -0.4684  0.2636  0.5413
   19CHTO  H201 7630   5.856   5.812  10.095 -0.0973  0.8552  2.1897
   19CHTO  C120 7631   5.642   5.558  10.055  0.2694 -0.2075 -0.3061
   19CHTO  H224 7632   5.647   5.529  10.168  0.4118 -1.7193  1.4217
   19CHTO   N21 7633   5.741   5.467   9.992  0.1499  0.2899 -0.0498
   19CHTO  H211 7634   5.742   5.361  10.019 -0.6807 -0.2131  0.4662
   19CHTO  H212 7635   5.718   5.476   9.884 -1.3271 -0.3007  0.6984
   19CHTO   O75 7636   5.586   5.927  10.012  0.9348 -0.7097 -0.4121
   19CHTO  C112 7637   5.669   6.033  10.094 -0.2090  0.0214  0.4790
   19CHTO  H216 7638   5.748   5.984  10.154 -0.7277 -0.8031 -0.5374
   19CHTO   O73 7639   5.576   6.097  10.182  0.6292 -0.1880  0.1006
   19CHTO  C113 7640   5.621   6.197  10.272  1.1191  0.1472  0.2379
   19CHTO  H217 7641   5.718   6.152  10.328  1.5774  1.3504  3.3149
   19CHTO  C124 7642   5.505   6.227  10.364  0.2015 -0.6610  0.6169
   19CHTO   O83 7643   5.468   6.106  10.429  0.2216 -0.0967 -0.2234
   19CHTO  H204 7644   5.396   6.128  10.483 -0.4214  0.7897 -0.9562
   19CHTO  C109 7645   5.670   6.316  10.190  0.5897 -0.5724  0.0388
   19CHTO  H213 7646   5.577   6.352  10.139 -0.4020  0.3173  2.4076
   19CHTO  C110 7647   5.764   6.271  10.077  0.4947  0.7906  0.8469
   19CHTO  H214 7648   5.858   6.248  10.127  0.8186 -0.7576 -0.7595
   19CHTO   O78 7649   5.790   6.378   9.989 -0.8480 -0.1922 -0.1088
   19CHTO  H200 7650   5.793   6.467  10.029 -0.8686  0.6262  0.7663
   19CHTO  C111 7651   5.722   6.141   9.997 -1.1035 -0.0754 -0.0660
   19CHTO  H215 7652   5.634   6.168   9.935  0.8766 -0.2657  2.6487
   19CHTO   N19 7653   5.824   6.087   9.901 -0.4279 -0.0724  0.2013
   19CHTO  H207 7654   5.897   6.164   9.865  0.8306  1.8909  0.2728
   19CHTO  H208 7655   5.867   5.991   9.924  0.8652 -1.2842 -1.1702
   19CHTO   O74 7656   5.722   6.421  10.272  0.6396 -1.0075  0.1740
   19CHTO  C115 7657   5.633   6.573  10.283 -0.0170 -0.4974 -0.7888
   19CHTO  H219 7658   5.540   6.565  10.233  1.7705  1.7835 -1.5691
   19CHTO   O76 7659   5.599   6.596  10.416 -0.4409  0.1932 -0.1142
   19CHTO  C122 7660   5.695   6.655  10.507  1.4339  0.5161  0.6784
   19CHTO  H226 7661   5.772   6.577  10.513 -1.6308  0.6538 -0.8915
   19CHTO  C126 7662   5.630   6.665  10.654 -0.3165 -0.7015 -0.3177
   19CHTO   O85 7663   5.695   6.747  10.744 -0.2954 -0.1779 -0.4371
   19CHTO  H206 7664   5.675   6.731  10.836  0.2787  1.2496  1.6319
   19CHTO  C121 7665   5.759   6.786  10.443  0.4634 -0.0857  0.3649
   19CHTO  H225 7666   5.737   6.872  10.503  1.0987  0.9872 -4.4277
   19CHTO   O81 7667   5.896   6.759  10.434 -0.5244 -0.9133  0.4752
   19CHTO  H202 7668   5.930   6.806  10.505 -2.6827 -2.1790  3.1549
   19CHTO  C119 7669   5.709   6.820  10.302  0.3315 -0.4810  0.3165
   19CHTO  H223 7670   5.606   6.845  10.320  2.1625  0.3879 -1.9352
   19CHTO  C117 7671   5.717   6.684  10.212 -0.0942  0.0660 -0.1083
   19CHTO  H221 7672   5.815   6.640  10.208  1.9011  0.1223 -1.6335
   19CHTO   N20 7673   5.674   6.693  10.068 -0.0061 -0.3037 -0.3251
   19CHTO  H209 7674   5.680   6.600  10.012  0.3219 -1.2337  2.8736
   19CHTO  H210 7675   5.747   6.759  10.022  2.8783 -0.1373  1.1913
   19CHTO   O80 7676   5.758   6.960  10.223 -0.2676  0.5705  0.7822
   19CHTO  C103 7677   5.915   6.995  10.224 -0.1094  0.2681  0.7333
   19CHTO  H190 7678   5.955   6.988  10.324 -0.2723 -1.1210  0.7423
   19CHTO  C101 7679   5.998   6.915  10.124 -0.2810  0.1224 -0.0510
   19CHTO  H188 7680   5.940   6.907  10.035  1.8527 -1.6657 -0.0504
   19CHTO   O68 7681   6.013   6.762  10.171  0.2009 -0.2517 -0.1696
   19CHTO  H168 7682   6.100   6.719  10.178  1.9339  2.6875 -0.2627
   19CHTO   C99 7683   6.137   6.986  10.091 -0.3943 -0.1050  0.1795
   19CHTO  H186 7684   6.207   6.984  10.175 -1.8272 -1.4550  0.8434
   19CHTO   N17 7685   6.211   6.916   9.972  0.6423  0.2889  0.4722
   19CHTO  H174 7686   6.156   6.935   9.881  1.1115 -0.1949 -1.7266
   19CHTO  H175 7687   6.215   6.806   9.985  0.6137 -0.2907 -0.7084
   19CHTO   C97 7688   6.107   7.137  10.060  0.2547 -0.4055 -0.3992
   19CHTO  H184 7689   6.035   7.140   9.976 -1.7848 -1.0356 -3.9669
   19CHTO   O64 7690   6.049   7.194  10.177 -0.6262  0.4380 -0.2127
   19CHTO  C104 7691   5.920   7.148  10.190  0.7205 -0.2675 -0.3849
   19CHTO  H191 7692   5.854   7.170  10.104  0.6490  2.5737 -2.6276
   19CHTO  C108 7693   5.859   7.223  10.308 -0.2781  0.1702  0.5078
   19CHTO   O71 7694   5.714   7.240  10.312 -1.1588  0.2535 -0.1111
   19CHTO  H171 7695   5.692   7.203  10.227  1.0289 -0.0296 -0.9528
   19CHTO   O62 7696   6.219   7.223  10.023 -0.1463  0.4293 -0.5807
   19CHTO   C91 7697   6.192   7.365   9.991  0.2842  0.7510 -0.0889
   19CHTO  H178 7698   6.110   7.393  10.052 -0.1304  2.0258 -2.4480
   19CHTO   C92 7699   6.163   7.374   9.839 -0.2409  0.2203 -0.0625
   19CHTO  H179 7700   6.091   7.292   9.817 -0.1390 -0.1487 -1.3373
   19CHTO   O66 7701   6.098   7.503   9.819  0.1308 -0.3380 -0.6748
   19CHTO  H166 7702   6.165   7.558   9.795  1.7341  1.9991 -4.4966
   19CHTO   C93 7703   6.282   7.365   9.745 -0.2056  0.0161  0.6267
   19CHTO  H180 7704   6.257   7.415   9.651 -1.7400  2.1310 -0.8796
   19CHTO   N16 7705   6.315   7.227   9.700  0.8741  0.3901 -0.4055
   19CHTO  H172 7706   6.292   7.214   9.600  1.2281 -0.9214  0.7415
   19CHTO  H173 7707   6.423   7.209   9.700  0.1627 -2.1647 -3.6496
   19CHTO   C94 7708   6.405   7.442   9.803  0.0739 -0.6632  0.1294
   19CHTO  H181 7709   6.473   7.376   9.849 -1.8262 -0.4926  0.1687
   19CHTO   O61 7710   6.360   7.535   9.905  0.1520  0.2011  0.5521
   19CHTO   C95 7711   6.318   7.462  10.024 -0.2041  0.0263 -0.1764
   19CHTO  H182 7712   6.406   7.409  10.064  0.3920 -1.1337 -0.0547
   19CHTO  C106 7713   6.282   7.554  10.140 -0.0149  0.5326 -0.5232
   19CHTO   O69 7714   6.338   7.501  10.261  0.3205  0.5432  0.4196
   19CHTO  H169 7715   6.277   7.512  10.330  0.5843 -0.8554  0.2881
   19CHTO   O63 7716   6.454   7.524   9.677 -0.1879 -0.0524 -0.0063
   19CHTO   C96 7717   6.606   7.523   9.650 -0.9852 -0.2035 -0.2776
   19CHTO  H183 7718   6.661   7.551   9.740  0.9946  2.4908 -1.3067
   19CHTO   C98 7719   6.641   7.632   9.545 -0.2837 -0.2417 -0.0834
   19CHTO  H185 7720   6.610   7.732   9.584 -1.1779 -0.3494 -0.8181
   19CHTO   O67 7721   6.783   7.644   9.538 -0.1820 -0.3275 -0.0471
   19CHTO  H167 7722   6.817   7.618   9.459  0.5130 -1.5883 -0.3150
   19CHTO  C102 7723   6.583   7.593   9.399  0.6555  0.3058  0.0849
   19CHTO  H189 7724   6.637   7.657   9.326 -1.4947  0.3086  1.7578
   19CHTO   N18 7725   6.437   7.616   9.373 -0.5404  0.4108 -0.5055
   19CHTO  H176 7726   6.394   7.653   9.462 -3.7555  2.1154 -1.0508
   19CHTO  H177 7727   6.423   7.698   9.302  0.8560  1.4932  0.3511
   19CHTO  C105 7728   6.637   7.445   9.365  0.3627  0.1291  0.4468
   19CHTO  H192 7729   6.556   7.378   9.340  1.6244  0.5176  1.0794
   19CHTO   O65 7730   6.715   7.378   9.468 -0.7433  0.5847  0.0998
   19CHTO  C100 7731   6.651   7.379   9.594  0.0757  0.3195  0.1384
   19CHTO  H187 7732   6.558   7.326   9.577  0.3634  1.9069  1.2979
   19CHTO  C107 7733   6.740   7.308   9.698 -0.4375  0.0224 -0.3608
   19CHTO   O70 7734   6.755   7.174   9.666 -0.0574  0.3741  0.5803
   19CHTO  H170 7735   6.834   7.165   9.619  0.9077  0.2650 -0.8825
   19CHTO   O57 7736   6.743   7.464   9.237  0.0964 -0.0649  0.0883
   19CHTO   C85 7737   6.757   7.378   9.118  1.2236  0.0568 -0.1361
   19CHTO  H157 7738   6.682   7.414   9.057  0.5690  0.0880  2.6527
   19CHTO   C83 7739   6.720   7.227   9.147  0.5522 -0.3622 -1.4651
   19CHTO  H155 7740   6.616   7.230   9.161 -1.1787 -0.4054 -1.7397
   19CHTO   O56 7741   6.797   7.196   9.271 -0.3097 -0.1710 -0.1708
   19CHTO  H135 7742   6.767   7.119   9.310 -0.5404 -1.9554 -0.6819
   19CHTO   C81 7743   6.754   7.151   9.016 -0.2763 -0.4827  0.5937
   19CHTO  H153 7744   6.698   7.200   8.940  0.8319  0.7547  0.8354
   19CHTO   N14 7745   6.698   7.009   9.024 -0.3505 -0.2119  0.0406
   19CHTO  H141 7746   6.613   7.009   9.086 -0.6538 -0.6052 -1.4843
   19CHTO  H142 7747   6.669   6.976   8.928  1.6201 -0.4553 -3.9170
   19CHTO   C79 7748   6.906   7.158   8.977 -0.0384 -1.1293  0.0519
   19CHTO  H151 7749   6.918   7.108   8.887  0.4832  2.1230 -2.9074
   19CHTO   O52 7750   6.952   7.298   8.958  0.1589 -0.0301 -0.0750
   19CHTO   C86 7751   6.900   7.394   9.055 -0.1523 -0.0052  0.1949
   19CHTO  H158 7752   6.982   7.377   9.128 -0.1327  2.2906 -1.5447
   19CHTO   C90 7753   6.921   7.532   9.009  0.4860  0.7333 -0.5535
   19CHTO   O60 7754   7.055   7.575   9.002  0.0629  0.2527  0.1237
   19CHTO  H138 7755   7.059   7.665   8.979  0.5651  2.1247 -0.1372
   19CHTO   O50 7756   6.993   7.096   9.071 -0.2622  0.2474 -0.0537
   19CHTO   C73 7757   7.115   7.027   9.091  0.0242 -0.0121 -0.3889
   19CHTO  H145 7758   7.147   6.980   8.996 -0.3102 -0.0657 -2.0018
   19CHTO   C74 7759   7.103   6.918   9.198 -0.0151 -0.0910 -0.5496
   19CHTO  H146 7760   7.023   6.854   9.156  3.0751 -1.4664 -1.2096
   19CHTO   O54 7761   7.225   6.841   9.209 -0.4353 -0.0399  0.3071
   19CHTO  H133 7762   7.223   6.795   9.124 -1.4903 -2.9630 -2.9911
   19CHTO   C75 7763   7.063   6.985   9.336 -0.1083 -0.2598 -0.4877
   19CHTO  H147 7764   6.956   7.008   9.329  0.3613 -4.3990  2.2866
   19CHTO   N13 7765   7.041   6.897   9.452  0.1238  0.1897  0.0272
   19CHTO  H139 7766   7.004   6.798   9.428  0.7307  0.6907 -1.5182
   19CHTO  H140 7767   6.975   6.945   9.515 -0.5890  0.3470 -2.4794
   19CHTO   C76 7768   7.148   7.126   9.369 -0.4636  0.4020 -0.9154
   19CHTO  H148 7769   7.240   7.104   9.410 -0.8596 -0.9591 -1.1200
   19CHTO   O49 7770   7.178   7.203   9.247  1.0897 -0.8171 -0.1918
   19CHTO   C77 7771   7.226   7.131   9.128  0.1366 -0.3049 -0.3494
   19CHTO  H149 7772   7.316   7.072   9.156 -0.2296 -1.9817  0.9549
   19CHTO   C88 7773   7.262   7.236   9.023 -0.5211  0.2820  0.5554
   19CHTO   O58 7774   7.362   7.321   9.060  0.0404  0.0269  0.4350
   19CHTO  H136 7775   7.376   7.399   9.005  3.2621  0.4442 -0.2950
   19CHTO   O51 7776   7.064   7.231   9.458 -0.1352  0.1641 -0.0262
   19CHTO   C78 7777   7.158   7.329   9.523 -0.0945  0.6706 -0.1587
   19CHTO  H150 7778   7.261   7.331   9.480  1.3631  0.8756 -1.6030
   19CHTO   C80 7779   7.166   7.298   9.675  0.0477 -0.3084  0.4462
   19CHTO  H152 7780   7.065   7.324   9.723 -0.0130  1.0334  0.5866
   19CHTO   O55 7781   7.217   7.165   9.690 -0.7513  0.2225  0.1812
   19CHTO  H134 7782   7.160   7.128   9.757  2.1973  3.8701  0.8196
   19CHTO   C84 7783   7.276   7.393   9.748  0.1850 -0.2469  0.6533
   19CHTO  H156 7784   7.375   7.385   9.694  1.9315 -0.6995  1.1292
   19CHTO   N15 7785   7.312   7.363   9.891  0.1754 -0.4702 -0.0829
   19CHTO  H143 7786   7.413   7.344   9.907 -0.4154 -1.1097  2.6407
   19CHTO  H144 7787   7.255   7.283   9.933  1.7679  0.4214  1.2616
   19CHTO   C87 7788   7.212   7.534   9.741 -0.1786 -0.0170  0.0424
   19CHTO  H159 7789   7.123   7.532   9.810  0.7689 -1.6306  0.3571
   19CHTO   O53 7790   7.177   7.559   9.587  0.2546  0.2885  0.3333
   19CHTO   C82 7791   7.099   7.469   9.512  0.3383 -0.1398  0.3153
   19CHTO  H154 7792   6.998   7.471   9.548  0.7732 -1.6079 -1.3059
   19CHTO   C89 7793   7.099   7.523   9.363  0.4350 -0.4452 -0.6366
   19CHTO   O59 7794   7.038   7.651   9.352  0.6229 -0.6783 -0.5999
   19CHTO  H137 7795   7.032   7.674   9.260 -0.1998  1.6017 -0.7277
   19CHTO   O45 7796   7.328   7.653   9.766 -0.4563 -0.2102  0.3545
   19CHTO   C67 7797   7.411   7.686   9.648 -0.2214  0.1126 -0.0399
   19CHTO  H124 7798   7.399   7.614   9.569 -0.6500  0.2779  0.8095
   19CHTO   C65 7799   7.373   7.824   9.588  0.7983 -0.0644 -0.0710
   19CHTO  H122 7800   7.339   7.878   9.681 -0.9577  1.5810  0.2974
   19CHTO   O44 7801   7.267   7.803   9.493  0.0669 -0.4606  0.2422
   19CHTO  H102 7802   7.187   7.849   9.504 -0.8021  0.6538  0.8887
   19CHTO   C63 7803   7.497   7.898   9.532 -0.8902 -0.5541  0.0384
   19CHTO  H120 7804   7.552   7.944   9.608 -1.5636 -0.2633  0.8888
   19CHTO   N11 7805   7.472   8.022   9.455 -0.2426  0.9376  0.0216
   19CHTO  H108 7806   7.531   8.023   9.366 -0.0273  1.1063  1.8380
   19CHTO  H109 7807   7.368   8.044   9.428 -0.9253 -1.6495  2.2060
   19CHTO   C61 7808   7.599   7.800   9.468  0.5094  0.4313  1.0302
   19CHTO  H118 7809   7.691   7.855   9.434  1.7185  1.3360 -1.9782
   19CHTO   O40 7810   7.641   7.695   9.563  0.5713 -0.2258 -0.3647
   19CHTO   C68 7811   7.570   7.684   9.690  0.6097 -0.0192  0.2877
   19CHTO  H125 7812   7.614   7.771   9.754  0.6659  0.5341  2.8188
   19CHTO   C72 7813   7.616   7.558   9.753  0.5537 -0.6679  0.2026
   19CHTO   O48 7814   7.611   7.581   9.895 -0.5900 -0.3173  0.0714
   19CHTO  H105 7815   7.678   7.643   9.914 -2.5505  2.6009  0.5564
   19CHTO   O38 7816   7.544   7.720   9.362 -0.2594 -0.3898 -0.6366
   19CHTO   C55 7817   7.624   7.676   9.248 -0.1863  0.0752 -1.2058
   19CHTO  H112 7818   7.727   7.664   9.280  0.3768  1.2075 -0.7233
   19CHTO   C56 7819   7.613   7.777   9.126 -0.2403  0.0998 -0.1404
   19CHTO  H113 7820   7.506   7.779   9.099 -2.9420 -1.8814  0.1949
   19CHTO   O42 7821   7.662   7.902   9.172 -0.0615 -0.3133  0.7694
   19CHTO  H100 7822   7.610   7.971   9.128 -1.2358  0.5587 -3.7233
   19CHTO   C57 7823   7.698   7.727   9.002  0.5717  0.5078 -0.4456
   19CHTO  H114 7824   7.801   7.744   9.026  0.3948  1.3786  0.4365
   19CHTO   N10 7825   7.675   7.813   8.884  0.5830  0.2833 -0.7926
   19CHTO  H106 7826   7.709   7.765   8.798  0.7732 -2.8540 -1.0738
   19CHTO  H107 7827   7.570   7.830   8.868 -0.0032  2.8350 -2.6129
   19CHTO   C58 7828   7.681   7.578   8.983  0.5792 -0.8905  0.0695
   19CHTO  H115 7829   7.579   7.565   8.929  0.8910 -1.3030 -1.2526
   19CHTO   O37 7830   7.688   7.501   9.107  0.6436  0.3070  0.6018
   19CHTO   C59 7831   7.583   7.540   9.191  0.7233  0.7810 -0.1827
   19CHTO  H116 7832   7.491   7.541   9.135  1.0872  1.0194  1.7138
   19CHTO   C70 7833   7.581   7.441   9.308 -0.0766 -0.3381  0.0645
   19CHTO   O46 7834   7.464   7.460   9.390  0.2589  0.3532 -0.1837
   19CHTO  H103 7835   7.387   7.437   9.342 -2.7678 -5.0157  0.9741
   19CHTO   O39 7836   7.795   7.507   8.891 -0.4266 -0.4817  0.0468
   19CHTO   C60 7837   7.785   7.362   8.884  0.3218  0.1581  0.5245
   19CHTO  H117 7838   7.740   7.332   8.978  1.4999  1.3143 -1.4482
   19CHTO   C62 7839   7.689   7.317   8.768  0.5157  0.2369  0.2158
   19CHTO  H119 7840   7.583   7.363   8.786  1.2060  2.3249  0.9241
   19CHTO   O43 7841   7.731   7.370   8.642 -0.7534 -0.2419  0.5940
   19CHTO  H101 7842   7.684   7.328   8.571  1.8739  0.1608  0.7830
   19CHTO   C66 7843   7.672   7.161   8.769  0.2004  0.9258 -0.4936
   19CHTO  H123 7844   7.625   7.134   8.865 -1.8294  2.8519 -1.1237
   19CHTO   N12 7845   7.580   7.120   8.660  0.4804  0.3600 -0.6432
   19CHTO  H110 7846   7.550   7.206   8.591 -1.2606  0.1892  1.7095
   19CHTO  H111 7847   7.489   7.087   8.709  1.4784  2.1936 -0.8691
   19CHTO   C69 7848   7.809   7.096   8.775 -0.1521 -0.0494  0.6936
   19CHTO  H126 7849   7.856   7.104   8.676 -2.8864  0.5450  0.2064
   19CHTO   O41 7850   7.895   7.143   8.883 -0.1715 -0.0213 -0.1121
   19CHTO   C64 7851   7.920   7.298   8.877 -0.7263  0.2351  0.2754
   19CHTO  H121 7852   7.977   7.319   8.775  1.2541  1.2663 -0.1470
   19CHTO   C71 7853   8.025   7.334   8.988  0.3843  0.7030 -0.8935
   19CHTO   O47 7854   8.068   7.463   8.983 -0.0900 -0.3419  0.1019
   19CHTO  H104 7855   8.127   7.480   9.056  0.2978 -0.3682  1.9388
   19CHTO   O34 7856   7.784   6.923   8.790 -0.2536 -0.3363  0.1909
   19CHTO   C49 7857   7.844   6.795   8.812  0.1965 -0.3533  1.0789
   19CHTO   H91 7858   7.894   6.773   8.713 -1.4817 -0.7287 -3.3563
   19CHTO   C47 7859   7.737   6.692   8.836 -0.3634 -0.2146 -0.0430
   19CHTO   H89 7860   7.782   6.592   8.824  1.5312 -0.8024 -2.3560
   19CHTO   O33 7861   7.636   6.707   8.736  0.1009  0.4863  0.4119
   19CHTO   H70 7862   7.574   6.630   8.735 -1.5307  0.9644  2.2851
   19CHTO   C45 7863   7.662   6.723   8.985  0.0227 -0.5884  0.4853
   19CHTO   H87 7864   7.578   6.783   8.967 -0.5372 -0.1328  1.3827
   19CHTO    N8 7865   7.610   6.592   9.037 -0.1267 -0.0293  0.3041
   19CHTO   H75 7866   7.668   6.509   8.995  1.9851  1.8199 -1.7229
   19CHTO   H76 7867   7.631   6.592   9.145  1.2673 -0.2400  2.7727
   19CHTO   C43 7868   7.750   6.813   9.076 -0.5016  0.6868  0.4447
   19CHTO   H85 7869   7.735   6.913   9.037  1.8823  2.6614 -0.7922
   19CHTO   O29 7870   7.890   6.778   9.065  0.2305 -0.3707 -0.2683
   19CHTO   C50 7871   7.944   6.788   8.934 -0.2401  0.3872 -0.2476
   19CHTO   H92 7872   8.015   6.872   8.947  0.6239 -1.6744  0.9055
   19CHTO   C54 7873   8.036   6.672   8.928 -0.9321 -0.3517 -0.3039
   19CHTO   O36 7874   8.115   6.656   8.812 -0.4316  0.4756 -0.1255
   19CHTO   H72 7875   8.098   6.569   8.784 -1.8400  1.2532  1.3872
   19CHTO   O27 7876   7.705   6.825   9.210  0.2326  0.1838 -0.6504
   19CHTO   C37 7877   7.645   6.936   9.284  0.3160  0.2669  0.1541
   19CHTO   H79 7878   7.566   6.989   9.228 -1.6873 -2.3019  3.0264
   19CHTO   C38 7879   7.571   6.863   9.404  0.6913  0.1263  0.5681
   19CHTO   H80 7880   7.638   6.777   9.439  0.8982 -1.6249  1.9372
   19CHTO   O31 7881   7.461   6.788   9.354  0.0534  0.6947 -0.3308
   19CHTO   H68 7882   7.474   6.750   9.272  0.5159  2.6591  1.5167
   19CHTO   C39 7883   7.537   6.967   9.517 -0.2216  0.4270 -0.3212
   19CHTO   H81 7884   7.454   7.025   9.473  1.5517 -1.4909 -2.1091
   19CHTO    N7 7885   7.480   6.905   9.643  0.8758 -0.4406 -0.5487
   19CHTO   H73 7886   7.507   6.951   9.738 -0.7320  3.2316  1.1335
   19CHTO   H74 7887   7.499   6.794   9.644  0.9430 -0.8460 -0.8650
   19CHTO   C40 7888   7.668   7.060   9.543  0.5179  0.5985  0.5746
   19CHTO   H82 7889   7.743   6.990   9.579 -0.1958 -2.1480 -0.5534
   19CHTO   O26 7890   7.707   7.133   9.429  0.2814  0.2315 -0.0173
   19CHTO   C41 7891   7.758   7.034   9.336 -0.3470  0.2911 -0.4310
   19CHTO   H83 7892   7.838   6.973   9.377 -1.1772 -0.8058 -0.4500
   19CHTO   C52 7893   7.815   7.120   9.221 -0.9114 -0.1455  0.6590
   19CHTO   O35 7894   7.930   7.182   9.254 -0.4863  0.0570 -0.3776
   19CHTO   H71 7895   7.944   7.268   9.229 -0.7916 -2.4501 -0.6398
   19CHTO   O28 7896   7.643   7.160   9.642  0.4244  0.3081 -0.0123
   19CHTO   C42 7897   7.741   7.196   9.750  0.2209  0.3870  0.1964
   19CHTO   H84 7898   7.691   7.276   9.800  0.9478  0.4239 -2.4795
   19CHTO   C44 7899   7.882   7.254   9.697  0.9342  0.2375  0.0132
   19CHTO   H86 7900   7.933   7.189   9.621  0.2110  0.4406  1.4821
   19CHTO   O32 7901   7.849   7.375   9.630 -0.1677  0.4669  0.0415
   19CHTO   H69 7902   7.848   7.448   9.689  2.0588 -0.3558  1.5576
   19CHTO   C48 7903   7.982   7.267   9.815 -0.2919 -0.0913  0.2585
   19CHTO   H90 7904   7.965   7.348   9.888  0.1023  0.0022 -0.3380
   19CHTO    N9 7905   8.119   7.303   9.762 -0.2790  0.2953  0.4617
   19CHTO   H77 7906   8.103   7.350   9.665 -0.2097  2.3142 -3.6280
   19CHTO   H78 7907   8.171   7.211   9.744  0.7843 -0.3816 -2.0609
   19CHTO   C51 7908   7.981   7.135   9.896  0.4313 -0.1768 -0.3789
   19CHTO   H93 7909   8.007   7.051   9.831 -1.1242 -1.9144 -1.5599
   19CHTO   O30 7910   7.850   7.121   9.947  0.0675 -0.3069 -0.2800
   19CHTO   C46 7911   7.759   7.085   9.851  0.6010 -0.2544  0.7234
   19CHTO   H88 7912   7.781   6.988   9.802  1.7503  0.5044  0.5662
   19CHTO   C53 7913   7.627   7.070   9.931 -0.2413 -0.5012 -0.7916
   19CHTO   O72 7914   7.637   6.947  10.008  0.3301  0.1588 -0.3812
   19CHTO  H199 7915   7.589   6.959  10.084 -0.3433 -1.2414 -1.6689
   19CHTO   O22 7916   8.081   7.137  10.005 -0.1664  0.0363  0.1643
   19CHTO   C31 7917   8.110   7.012  10.075 -0.1622  0.2501  0.0631
   19CHTO   H59 7918   8.180   7.044  10.171  0.4983  0.3923 -0.1742
   19CHTO   C29 7919   7.986   6.933  10.135  0.3070 -0.3233  0.3493
   19CHTO   H57 7920   7.906   6.929  10.054  0.8987  0.4501 -2.6769
   19CHTO   O21 7921   7.933   7.026  10.237  0.1199 -0.6991 -0.2494
   19CHTO   H37 7922   7.894   7.097  10.191  1.4363 -1.8085  0.7998
   19CHTO   C27 7923   8.014   6.788  10.189 -0.5347  0.0493 -0.7484
   19CHTO   H55 7924   8.077   6.791  10.280  0.1243 -1.3673  0.0632
   19CHTO    N5 7925   7.888   6.717  10.217 -0.4508  0.5044 -0.1198
   19CHTO   H43 7926   7.808   6.775  10.192  0.1063 -1.3122 -1.9649
   19CHTO   H44 7927   7.893   6.678  10.318 -0.4605 -1.8598  1.0898
   19CHTO   C25 7928   8.100   6.710  10.077 -1.0844  0.3312  0.0014
   19CHTO   H53 7929   8.038   6.702   9.983 -1.0905 -0.0433  0.5994
   19CHTO   O17 7930   8.226   6.791  10.066  0.6042  0.1348 -0.2557
   19CHTO   C32 7931   8.204   6.913   9.997 -0.5124  0.2257  0.1566
   19CHTO   H60 7932   8.151   6.884   9.902 -1.6769 -0.3516  2.5541
   19CHTO   C36 7933   8.332   6.996   9.960  0.0376  0.2535 -0.7049
   19CHTO   O25 7934   8.414   7.040  10.069 -0.1334 -0.5509  0.1211
   19CHTO   H40 7935   8.466   7.115  10.047  1.1455 -0.9234 -2.6451
   19CHTO   O15 7936   8.149   6.545  10.126 -0.4042 -0.7238 -0.2179
   19CHTO   C19 7937   8.190   6.443  10.037  0.5753  1.1505  0.7157
   19CHTO   H47 7938   8.194   6.351  10.101  1.3529  2.1625  0.0835
   19CHTO   C20 7939   8.097   6.436   9.908  0.1811 -0.1917  0.0517
   19CHTO   H48 7940   8.104   6.532   9.845  1.6583 -2.6739  0.5094
   19CHTO   O19 7941   7.961   6.426   9.951 -0.2260  0.1422 -0.4173
   19CHTO   H35 7942   7.948   6.418  10.046  0.5187  0.9781 -0.8013
   19CHTO   C21 7943   8.142   6.320   9.819 -0.6841  0.9801  0.0087
   19CHTO   H49 7944   8.134   6.227   9.875 -1.0940 -0.8275 -0.8872
   19CHTO    N4 7945   8.061   6.307   9.689 -0.3092 -0.7614  0.1368
   19CHTO   H41 7946   8.034   6.405   9.650 -2.1223 -1.2944 -3.3365
   19CHTO   H42 7947   7.964   6.266   9.723 -3.7407  1.2866 -1.5256
   19CHTO   C22 7948   8.295   6.339   9.778 -0.3710 -0.6338 -0.3075
   19CHTO   H50 7949   8.305   6.418   9.713  2.2282 -2.8109 -0.0217
   19CHTO   O14 7950   8.374   6.363   9.893  0.0886  0.2744  0.0596
   19CHTO   C23 7951   8.334   6.467   9.983 -0.5435 -0.0074 -0.4011
   19CHTO   H51 7952   8.344   6.566   9.933  4.3510  0.5234 -0.0050
   19CHTO   C34 7953   8.435   6.458  10.098 -0.6414  0.1895 -0.3218
   19CHTO   O23 7954   8.558   6.522  10.057  0.5477  0.1489 -0.3160
   19CHTO   H38 7955   8.634   6.489  10.099  1.8507  1.6353  1.3921
   19CHTO   O16 7956   8.341   6.214   9.728  0.7029  0.2164  0.0135
   19CHTO   C24 7957   8.498   6.212   9.650  0.6096  1.1804 -0.5936
   19CHTO   H52 7958   8.558   6.305   9.676  0.2971  0.8721 -3.4254
   19CHTO   C26 7959   8.469   6.207   9.500 -0.0632 -0.1604  0.6412
   19CHTO   H54 7960   8.393   6.132   9.479  0.4434 -0.7809 -0.8671
   19CHTO   O20 7961   8.411   6.329   9.458 -0.2884 -0.3524 -0.2393
   19CHTO   H36 7962   8.346   6.317   9.398 -1.1950 -3.2261  0.9751
   19CHTO   C30 7963   8.602   6.177   9.424 -0.7757  0.3462  0.2465
   19CHTO   H58 7964   8.668   6.268   9.432 -0.3689 -0.2724 -0.7125
   19CHTO    N6 7965   8.580   6.153   9.273  0.3751 -0.4710  0.4942
   19CHTO   H45 7966   8.485   6.102   9.269 -2.2584  2.1102  0.2824
   19CHTO   H46 7967   8.641   6.100   9.218 -1.8189 -1.0710 -1.7082
   19CHTO   C33 7968   8.682   6.058   9.488  0.2817  0.2485  0.3231
   19CHTO   H61 7969   8.633   5.960   9.478 -0.4442 -1.1322  0.2282
   19CHTO   O18 7970   8.703   6.088   9.635  0.1291  0.0889  0.2884
   19CHTO   C28 7971   8.582   6.094   9.709 -0.3094 -0.8130  0.1128
   19CHTO   H56 7972   8.527   6.003   9.696  1.0222  1.5626 -1.1463
   19CHTO   C35 7973   8.635   6.106   9.854  0.4952  0.5588  1.1424
   19CHTO   O24 7974   8.532   6.114   9.961  0.0211  0.7556  0.1261
   19CHTO   H39 7975   8.501   6.026   9.983 -1.5724 -0.0388  0.9726
   19CHTO    O9 7976   8.806   6.042   9.416  0.2664 -0.3091  0.0341
   19CHTO   C13 7977   8.888   5.888   9.428 -0.0363  0.2419  1.2046
   19CHTO   H26 7978   8.814   5.812   9.397  1.2506 -1.1553 -0.2879
   19CHTO   C11 7979   8.939   5.857   9.574 -0.1414  0.9893  0.2054
   19CHTO   H24 7980   8.848   5.848   9.635 -1.3598  1.2243  0.1345
   19CHTO    O8 7981   9.008   5.967   9.634 -0.2617  0.1223  0.0636
   19CHTO    H3 7982   9.084   6.000   9.593 -1.0058 -1.9850  0.6383
   19CHTO    C9 7983   9.010   5.723   9.581  0.0837 -0.2053  0.4761
   19CHTO   H22 7984   8.923   5.649   9.556 -0.8821  0.9227 -1.5632
   19CHTO    N2 7985   9.044   5.675   9.718 -0.1864  0.4496  0.3026
   19CHTO   H10 7986   8.954   5.689   9.776 -1.4705 -1.4821 -2.0935
   19CHTO   H11 7987   9.078   5.572   9.726 -0.0680 -1.5361 -2.1794
   19CHTO    C7 7988   9.121   5.704   9.467 -0.1086 -0.2687  0.1364
   19CHTO   H20 7989   9.070   5.633   9.392 -0.5155 -2.6926 -1.3748
   19CHTO    O4 7990   9.132   5.829   9.395  0.0851  0.0891 -0.1577
   19CHTO   C14 7991   9.010   5.870   9.329  0.0970  0.3055  0.2871
   19CHTO   H27 7992   8.995   5.800   9.245 -0.0355  0.7377 -0.9118
   19CHTO   C18 7993   9.053   6.006   9.260  0.4156 -0.5538  0.2207
   19CHTO   O13 7994   9.154   5.981   9.156 -0.3094  0.7959  0.7499
   19CHTO    H7 7995   9.221   6.046   9.165  0.4893 -0.8852  0.0849
   19CHTO    O2 7996   9.276   5.657   9.520 -0.0153 -0.0866 -0.0351
   19CHTO    C1 7997   9.327   5.532   9.471  0.1012 -0.7129 -0.1423
   19CHTO   H14 7998   9.246   5.486   9.401 -0.2222 -1.4571  0.7439
   19CHTO    C2 7999   9.364   5.427   9.579 -0.6518 -0.6203  0.3638
   19CHTO   H15 8000   9.445   5.478   9.636 -1.9093 -2.0598  1.0344
   19CHTO    O6 8001   9.258   5.379   9.668 -0.2855 -0.0788 -0.4074
   19CHTO    H1 8002   9.210   5.446   9.715 -0.4976  1.1873 -1.1398
   19CHTO    C3 8003   9.430   5.292   9.500 -0.0592  0.3290 -0.1120
   19CHTO   H16 8004   9.352   5.262   9.430 -1.3253  3.6940  0.2064
   19CHTO    N1 8005   9.464   5.176   9.591  0.3189  0.6390 -0.2202
   19CHTO    H8 8006   9.569   5.163   9.615 -1.7954  0.5544  1.6714
   19CHTO    H9 8007   9.424   5.078   9.555 -1.9750  0.6439 -0.4057
   19CHTO    C4 8008   9.552   5.342   9.417 -0.6068 -0.3997  0.4146
   19CHTO   H17 8009   9.635   5.369   9.489  1.6853 -2.0650 -0.0868
   19CHTO    O1 8010   9.516   5.450   9.334  0.1823 -0.1552 -0.2255
   19CHTO    C5 8011   9.446   5.566   9.379 -0.4437 -0.1391  0.2400
   19CHTO   H18 8012   9.518   5.632   9.427  2.5726 -0.9247 -0.2338
   19CHTO   C16 8013   9.397   5.634   9.249  0.1919 -0.5880 -0.2278
   19CHTO   O11 8014   9.309   5.568   9.160  0.1394  0.1740  0.3345
   19CHTO    H5 8015   9.306   5.620   9.080  0.1153  0.7199 -0.1036
   19CHTO    O3 8016   9.600   5.245   9.330 -0.6170 -0.1849 -0.7016
   19CHTO    C6 8017   9.738   5.253   9.298  0.6751  0.3102  0.8327
   19CHTO   H19 8018   9.776   5.353   9.302  0.5968  0.2174  0.4297
   19CHTO    C8 8019   9.829   5.174   9.392 -0.5021  0.1296  0.0934
   19CHTO   H21 8020   9.777   5.074   9.406 -0.5005 -0.9821  0.2493
   19CHTO    O7 8021   9.836   5.248   9.515 -0.4344 -0.4385  0.1870
   19CHTO    H2 8022   9.894   5.320   9.505  0.1253 -0.9583  0.8105
   19CHTO   C12 8023   9.961   5.155   9.318 -0.0977  0.4622  1.5352
   19CHTO   H25 8024  10.008   5.256   9.309  0.6171  1.5824 -1.9334
   19CHTO    N3 8025  10.057   5.078   9.400 -0.4386 -0.2286 -0.0005
   19CHTO   H12 8026  10.022   4.988   9.437  4.4421 -0.3052  0.6116
   19CHTO   H13 8027  10.086   5.137   9.491 -0.2338  2.1537 -1.4802
   19CHTO   C15 8028   9.947   5.101   9.172  0.2107  0.4723  0.1161
   19CHTO   H28 8029   9.900   5.000   9.172 -1.7831 -1.0055  0.1420
   19CHTO   O10 8030  10.076   5.096   9.087  0.0522 -0.4462 -0.4674
   19CHTO    H4 8031  10.064   5.048   9.008 -2.0602 -0.3030  0.6703
   19CHTO    O5 8032   9.874   5.190   9.095  0.3161  0.3990  0.0566
   19CHTO   C10 8033   9.741   5.213   9.145 -0.8262  0.7019 -0.8540
   19CHTO   H23 8034   9.683   5.121   9.129  1.1754  0.3956 -0.3994
   19CHTO   C17 8035   9.663   5.319   9.064 -0.5432  0.3905 -0.1203
   19CHTO   O12 8036   9.573   5.265   8.969 -0.2263 -0.0549  0.4565
   19CHTO    H6 8037   9.544   5.339   8.911  1.9541 -0.5721  1.4035
   20CHTO  H203 8038   8.885   2.395   0.653  1.8521  0.6056 -0.7556
   20CHTO   O82 8039   8.912   2.304   0.660 -0.0803 -0.2085  0.4079
   20CHTO  C123 8040   8.997   2.278   0.555 -0.5162 -0.3100 -0.1987
   20CHTO  H227 8041   9.084   2.347   0.563 -0.3322 -1.0013 -2.0816
   20CHTO   O77 8042   9.036   2.138   0.580 -0.5632  0.1041 -0.0498
   20CHTO  C118 8043   9.140   2.092   0.490  0.4307  0.1043 -0.0679
   20CHTO  H222 8044   9.225   2.160   0.488  0.0389 -0.3987 -1.7782
   20CHTO  C125 8045   9.196   1.954   0.543  0.5683  0.2697 -0.0957
   20CHTO   O84 8046   9.098   1.851   0.556  0.1112 -0.2184  0.2516
   20CHTO  H205 8047   9.138   1.783   0.607 -1.9726 -2.3511  1.2189
   20CHTO  C114 8048   9.085   2.086   0.345 -0.1256  0.3449  0.1758
   20CHTO  H218 8049   9.005   2.009   0.346 -2.2915  0.1134  0.1809
   20CHTO  C116 8050   9.023   2.221   0.300  0.5601  0.1310  0.0386
   20CHTO  H220 8051   9.098   2.298   0.282  1.2494  0.6009 -1.1156
   20CHTO   O79 8052   8.959   2.205   0.167 -0.7027 -0.2976 -0.3711
   20CHTO  H201 8053   8.897   2.134   0.171  0.1032 -0.5972 -0.7909
   20CHTO  C120 8054   8.926   2.279   0.412  0.7003 -0.6976  0.8001
   20CHTO  H224 8055   8.837   2.230   0.404  1.8258 -1.4041 -1.5020
   20CHTO   N21 8056   8.887   2.419   0.381  0.3363 -0.6238 -0.4625
   20CHTO  H211 8057   8.869   2.439   0.272 -1.4388 -0.9969 -0.1396
   20CHTO  H212 8058   8.939   2.495   0.429 -1.7403  0.3445 -1.1450
   20CHTO   O75 8059   9.187   2.044   0.258 -0.2110  0.5012  0.1176
   20CHTO  C112 8060   9.137   1.925   0.138  0.0142  0.2238  0.4205
   20CHTO  H216 8061   9.037   1.959   0.110  0.0259  3.0036 -0.0623
   20CHTO   O73 8062   9.137   1.795   0.203  0.8446 -0.3783 -0.4613
   20CHTO  C113 8063   9.098   1.694   0.106 -0.7085  0.5692  0.0056
   20CHTO  H217 8064   9.005   1.723   0.058 -1.9117  0.3184 -0.4877
   20CHTO  C124 8065   9.057   1.560   0.173  0.6309  0.3188  0.3346
   20CHTO   O83 8066   8.986   1.481   0.075 -0.1254 -0.5812  0.4615
   20CHTO  H204 8067   9.037   1.408   0.049 -1.6261 -3.8611 -0.8064
   20CHTO  C109 8068   9.200   1.684  -0.011 -0.0451 -0.3935  0.7165
   20CHTO  H213 8069   9.297   1.663   0.029 -0.2528  0.8048  1.5344
   20CHTO  C110 8070   9.208   1.823  -0.091  0.4235 -0.5133 -0.7042
   20CHTO  H214 8071   9.118   1.837  -0.147 -1.2815 -2.0247 -0.4626
   20CHTO   O78 8072   9.315   1.816  -0.185 -0.6147 -0.3494  0.3947
   20CHTO  H200 8073   9.321   1.888  -0.242  2.0935 -0.0750  0.6977
   20CHTO  C111 8074   9.233   1.939   0.015  0.4316  0.4900 -0.3915
   20CHTO  H215 8075   9.329   1.927   0.060 -0.7734 -0.9441  2.2912
   20CHTO   N19 8076   9.225   2.079  -0.044 -0.4102  0.0563  0.2525
   20CHTO  H207 8077   9.130   2.087  -0.090  0.5003  0.0351  1.4960
   20CHTO  H208 8078   9.293   2.089  -0.125  2.0019  0.4147  0.2732
   20CHTO   O74 8079   9.173   1.587  -0.108  0.3714  0.4899 -0.4595
   20CHTO  C115 8080   9.311   1.519  -0.187  0.8317 -0.1479 -0.6615
   20CHTO  H219 8081   9.395   1.596  -0.189  2.5634  0.3107  1.2276
   20CHTO   O76 8082   9.362   1.397  -0.115 -0.8238  0.0536 -0.1550
   20CHTO  C122 8083   9.274   1.285  -0.092 -0.3083  0.0126 -0.5666
   20CHTO  H226 8084   9.221   1.292   0.001  0.4497 -0.2897  0.7349
   20CHTO  C126 8085   9.353   1.145  -0.092  0.0544  1.1600  0.0049
   20CHTO   O85 8086   9.425   1.119   0.030 -0.3189  0.6267  0.5001
   20CHTO  H206 8087   9.490   1.049   0.021 -1.6826 -1.0741 -0.4774
   20CHTO  C121 8088   9.169   1.278  -0.211 -0.5137  0.4047 -0.1637
   20CHTO  H225 8089   9.140   1.170  -0.231 -0.1921  0.6065 -1.8510
   20CHTO   O81 8090   9.046   1.339  -0.166  0.4491  0.1644 -0.3410
   20CHTO  H202 8091   9.002   1.275  -0.103  0.2116 -3.0553  2.0060
   20CHTO  C119 8092   9.226   1.336  -0.346 -0.3344  0.2001  0.9512
   20CHTO  H223 8093   9.311   1.271  -0.361  1.5283 -1.2605  1.0661
   20CHTO  C117 8094   9.270   1.486  -0.332  0.4774 -0.5584 -0.4527
   20CHTO  H221 8095   9.192   1.560  -0.358 -0.8384  0.8898  0.0669
   20CHTO   N20 8096   9.380   1.508  -0.429 -0.5881 -0.5736 -0.1956
   20CHTO  H209 8097   9.475   1.529  -0.380  2.5196  0.0309 -0.5007
   20CHTO  H210 8098   9.359   1.583  -0.500  4.1529  1.1714  1.4729
   20CHTO   O80 8099   9.137   1.307  -0.474 -0.5603 -0.1737 -0.3419
   20CHTO  C103 8100   8.975   1.310  -0.467  0.5474  0.0100 -0.0778
   20CHTO  H190 8101   8.934   1.257  -0.379 -0.3454 -0.5266  0.9280
   20CHTO  C101 8102   8.902   1.440  -0.503 -0.3893 -0.1781  0.7377
   20CHTO  H188 8103   8.943   1.490  -0.591  0.5386 -1.0130 -2.4456
   20CHTO   O68 8104   8.916   1.531  -0.381  0.2303  0.0881 -0.3713
   20CHTO  H168 8105   9.002   1.566  -0.374 -1.4613 -1.0642 -0.3242
   20CHTO   C99 8106   8.749   1.413  -0.522 -0.2068 -0.5156  0.6903
   20CHTO  H186 8107   8.717   1.357  -0.429  2.8166 -0.2311 -1.8805
   20CHTO   N17 8108   8.667   1.538  -0.541 -0.0758 -0.1642  0.3938
   20CHTO  H174 8109   8.684   1.601  -0.456  1.1620 -0.5055  1.0845
   20CHTO  H175 8110   8.689   1.599  -0.632  0.6391 -4.2309 -0.8066
   20CHTO   C97 8111   8.733   1.311  -0.642  0.0335  0.4248 -0.2817
   20CHTO  H184 8112   8.757   1.358  -0.742 -1.5084 -0.9623  0.0744
   20CHTO   O64 8113   8.814   1.189  -0.617 -0.2116  0.6204  0.3415
   20CHTO  C104 8114   8.951   1.214  -0.591 -0.6317  0.1080 -0.2164
   20CHTO  H191 8115   8.992   1.258  -0.677  1.8331  2.2045 -1.0762
   20CHTO  C108 8116   9.007   1.071  -0.579  0.0063  0.2178 -0.7038
   20CHTO   O71 8117   8.985   1.000  -0.699 -0.1717 -0.4716  0.8154
   20CHTO  H171 8118   8.940   0.924  -0.676 -0.8385  0.9497  0.2652
   20CHTO   O62 8119   8.596   1.258  -0.652  0.2241  0.2485 -0.0009
   20CHTO   C91 8120   8.540   1.234  -0.784  0.2241  0.7470 -0.7861
   20CHTO  H178 8121   8.623   1.199  -0.837 -0.3935 -0.5375  0.4523
   20CHTO   C92 8122   8.488   1.367  -0.858  0.5986  0.1556 -0.4580
   20CHTO  H179 8123   8.548   1.448  -0.818  0.5502  0.1672 -0.6449
   20CHTO   O66 8124   8.519   1.371  -0.999  0.4034  0.0680 -0.1340
   20CHTO  H166 8125   8.479   1.309  -1.058  1.6176  0.3860 -1.7396
   20CHTO   C93 8126   8.334   1.392  -0.841  0.0243  0.1413  0.2131
   20CHTO  H180 8127   8.315   1.473  -0.919  0.6966  1.4353 -1.4200
   20CHTO   N16 8128   8.304   1.448  -0.705 -0.1398 -1.2595 -0.3771
   20CHTO  H172 8129   8.375   1.529  -0.691  2.2051  1.4105 -1.1077
   20CHTO  H173 8130   8.320   1.381  -0.626 -0.2254 -2.2589 -1.3405
   20CHTO   C94 8131   8.261   1.259  -0.882  0.3346  0.5071  0.6147
   20CHTO  H181 8132   8.179   1.237  -0.814 -0.8478 -1.2883 -2.2279
   20CHTO   O61 8133   8.343   1.139  -0.886  0.0456 -0.0127  0.1669
   20CHTO   C95 8134   8.430   1.118  -0.783 -0.4626  0.6138 -0.2065
   20CHTO  H182 8135   8.384   1.126  -0.688  1.8827 -1.0739  0.5472
   20CHTO  C106 8136   8.483   0.966  -0.779 -0.8350 -0.0041 -0.5268
   20CHTO   O69 8137   8.544   0.937  -0.653  0.1663 -0.8597 -0.1261
   20CHTO  H169 8138   8.476   0.890  -0.609 -1.5707  0.8046 -2.6307
   20CHTO   O63 8139   8.219   1.286  -1.042 -0.4591  0.5491 -0.1405
   20CHTO   C96 8140   8.140   1.159  -1.117  0.2492 -0.7792  0.0769
   20CHTO  H183 8141   8.085   1.109  -1.034 -1.8060 -0.0771  1.0493
   20CHTO   C98 8142   8.244   1.064  -1.178 -0.2581  0.3332 -0.3144
   20CHTO  H185 8143   8.316   1.035  -1.100 -1.1166 -1.3903 -0.2594
   20CHTO   O67 8144   8.197   0.936  -1.221 -0.3852  0.3855  0.2324
   20CHTO  H167 8145   8.146   0.941  -1.301 -1.3694  2.1473 -2.7406
   20CHTO  C102 8146   8.314   1.134  -1.312 -0.6522  0.3718  0.4870
   20CHTO  H189 8147   8.337   1.048  -1.374  0.7097 -1.1034  1.3892
   20CHTO   N18 8148   8.449   1.198  -1.290  0.1534 -0.1403  0.0940
   20CHTO  H176 8149   8.514   1.119  -1.246 -1.1844 -0.9964 -0.0734
   20CHTO  H177 8150   8.453   1.283  -1.223  1.4227 -1.0308  0.2866
   20CHTO  C105 8151   8.226   1.241  -1.388  0.0070  0.5078  0.4262
   20CHTO  H192 8152   8.240   1.338  -1.343 -1.0746 -1.4571 -0.9578
   20CHTO   O65 8153   8.090   1.205  -1.375 -0.2619  0.3217  0.3285
   20CHTO  C100 8154   8.054   1.217  -1.234 -0.0252 -0.0481  0.4288
   20CHTO  H187 8155   8.041   1.319  -1.216  1.7231 -0.8698 -0.8074
   20CHTO  C107 8156   7.915   1.157  -1.223 -0.3781 -0.0637 -0.3565
   20CHTO   O70 8157   7.821   1.255  -1.261  0.1278 -0.1710  0.3597
   20CHTO  H170 8158   7.821   1.324  -1.198  0.5432 -1.4842  1.1853
   20CHTO   O57 8159   8.287   1.254  -1.543  0.1390  0.0892  0.7769
   20CHTO   C85 8160   8.343   1.373  -1.608  0.2903 -0.1400 -0.0785
   20CHTO  H157 8161   8.412   1.412  -1.537 -2.1574 -0.5559  2.2365
   20CHTO   C83 8162   8.224   1.469  -1.637 -0.4843  0.0229 -0.2081
   20CHTO  H155 8163   8.181   1.502  -1.545 -1.3813  2.5040  0.4059
   20CHTO   O56 8164   8.122   1.392  -1.704 -1.2203 -0.1242  0.3407
   20CHTO  H135 8165   8.091   1.430  -1.783  2.2222  1.8746 -2.1362
   20CHTO   C81 8166   8.270   1.594  -1.721  0.3394 -0.2875  0.5832
   20CHTO  H153 8167   8.338   1.656  -1.657 -2.3665  1.0816 -1.5435
   20CHTO   N14 8168   8.163   1.699  -1.742 -0.1020 -0.3595  0.3670
   20CHTO  H141 8169   8.096   1.719  -1.658 -0.6912  2.6015  0.3803
   20CHTO  H142 8170   8.106   1.656  -1.816 -1.8340 -1.3815  0.4403
   20CHTO   C79 8171   8.346   1.550  -1.852  0.2343 -0.3511  0.6197
   20CHTO  H151 8172   8.397   1.645  -1.886 -2.8768 -0.3600  0.4553
   20CHTO   O52 8173   8.453   1.458  -1.819 -0.1530  0.7054  0.4754
   20CHTO   C86 8174   8.415   1.336  -1.749  0.5721  0.3756 -0.1363
   20CHTO  H158 8175   8.355   1.284  -1.819 -0.3340  0.3922 -0.6211
   20CHTO   C90 8176   8.544   1.243  -1.721  0.5468  0.1139 -0.0449
   20CHTO   O60 8177   8.526   1.134  -1.628  0.6588 -0.1455 -0.5981
   20CHTO  H138 8178   8.451   1.082  -1.659 -5.5438 -0.8015 -1.9200
   20CHTO   O50 8179   8.254   1.501  -1.951  0.6327  0.1361 -0.1596
   20CHTO   C73 8180   8.269   1.479  -2.094 -0.1303  0.4589 -0.0454
   20CHTO  H145 8181   8.365   1.430  -2.105  0.5970 -3.1589  1.7905
   20CHTO   C74 8182   8.257   1.611  -2.172 -0.6231  1.0952 -0.1142
   20CHTO  H146 8183   8.336   1.684  -2.143 -0.9378  2.0796  1.9452
   20CHTO   O54 8184   8.275   1.581  -2.310  0.1361  0.1853  0.2927
   20CHTO  H133 8185   8.368   1.595  -2.334  0.4540  2.0816  2.7482
   20CHTO   C75 8186   8.108   1.666  -2.138  0.1419  0.2578  0.9824
   20CHTO  H147 8187   8.101   1.692  -2.034 -1.5300  1.0962  0.6657
   20CHTO   N13 8188   8.069   1.796  -2.197  0.1943 -0.4294  0.0931
   20CHTO  H139 8189   8.126   1.872  -2.156 -3.1509  1.8068 -0.0664
   20CHTO  H140 8190   8.067   1.798  -2.302  0.9376  1.6996  0.8707
   20CHTO   C76 8191   7.997   1.557  -2.176  0.1642  0.5020  0.0016
   20CHTO  H148 8192   8.014   1.544  -2.289  1.1040 -0.2663 -1.4040
   20CHTO   O49 8193   8.033   1.433  -2.097  0.1722  0.1889 -0.0334
   20CHTO   C77 8194   8.159   1.376  -2.140  0.2533 -0.4998 -0.2626
   20CHTO  H149 8195   8.167   1.345  -2.249 -0.1837 -2.9444  0.6385
   20CHTO   C88 8196   8.179   1.251  -2.053 -0.8010  0.0362 -0.3405
   20CHTO   O58 8197   8.289   1.162  -2.100  0.0740  0.2226  0.1450
   20CHTO  H136 8198   8.339   1.136  -2.026 -1.4562 -1.1503 -0.9803
   20CHTO   O51 8199   7.842   1.614  -2.123  0.1040 -0.2738  0.8101
   20CHTO   C78 8200   7.743   1.494  -2.089  0.8613 -0.2375 -0.2949
   20CHTO  H150 8201   7.798   1.399  -2.109  2.0374  0.0313 -0.1746
   20CHTO   C80 8202   7.625   1.504  -2.195 -0.0391 -0.2626  1.0054
   20CHTO  H152 8203   7.580   1.614  -2.189 -0.7442 -0.1643  2.0112
   20CHTO   O55 8204   7.684   1.496  -2.326 -0.2895 -0.3782 -0.0082
   20CHTO  H134 8205   7.622   1.483  -2.396  0.6425  1.8190 -1.3939
   20CHTO   C84 8206   7.521   1.389  -2.163  0.0504 -0.6531  0.7594
   20CHTO  H156 8207   7.575   1.297  -2.163 -1.3569 -0.3558 -0.3521
   20CHTO   N15 8208   7.410   1.373  -2.265 -0.3273 -0.2958  0.2956
   20CHTO  H143 8209   7.454   1.345  -2.352  0.2057  1.6292  2.2292
   20CHTO  H144 8210   7.334   1.300  -2.235 -1.0649  3.1134 -0.7199
   20CHTO   C87 8211   7.469   1.416  -2.020  0.0508  0.5722 -0.8377
   20CHTO  H159 8212   7.418   1.508  -2.015  1.1778  0.6594  2.0093
   20CHTO   O53 8213   7.584   1.406  -1.925 -0.1639 -0.3176 -0.3718
   20CHTO   C82 8214   7.691   1.502  -1.941  0.3613  0.4298  0.4844
   20CHTO  H154 8215   7.656   1.600  -1.915 -1.8419 -1.0345  1.7896
   20CHTO   C89 8216   7.807   1.471  -1.845  0.2516 -0.3712  0.7494
   20CHTO   O59 8217   7.760   1.448  -1.708  0.1206 -0.0328 -0.9215
   20CHTO  H137 8218   7.758   1.356  -1.692  0.4633 -3.2700  1.7369
   20CHTO   O45 8219   7.346   1.301  -1.982 -0.2875  0.2928 -0.3506
   20CHTO   C67 8220   7.355   1.231  -1.855  0.6762 -0.0463  0.5426
   20CHTO  H124 8221   7.458   1.203  -1.832 -0.2313 -1.2030  2.5083
   20CHTO   C65 8222   7.315   1.330  -1.736  0.3860 -0.4319  0.2266
   20CHTO  H122 8223   7.261   1.420  -1.771 -0.4764 -0.4801  0.0464
   20CHTO   O44 8224   7.438   1.367  -1.672 -0.0953 -0.9709 -0.2616
   20CHTO  H102 8225   7.433   1.364  -1.579 -0.1460  1.4044 -0.5559
   20CHTO   C63 8226   7.212   1.254  -1.639 -0.7181  0.0256 -0.1398
   20CHTO  H120 8227   7.126   1.237  -1.697  2.3787 -0.9588 -0.4560
   20CHTO   N11 8228   7.159   1.339  -1.522 -0.5819 -1.0462  0.7133
   20CHTO  H108 8229   7.112   1.429  -1.554  0.3976  0.3706  2.0514
   20CHTO  H109 8230   7.244   1.376  -1.463  1.5206 -3.0756  0.6501
   20CHTO   C61 8231   7.270   1.111  -1.605 -0.3758 -0.3337 -0.1603
   20CHTO  H118 8232   7.192   1.058  -1.550 -3.2169 -1.0304  0.4420
   20CHTO   O40 8233   7.300   1.035  -1.724 -0.6142 -0.7362  0.6857
   20CHTO   C68 8234   7.276   1.095  -1.859  0.2390 -0.1069 -0.9109
   20CHTO  H125 8235   7.169   1.119  -1.881 -2.8649  0.8974 -0.5104
   20CHTO   C72 8236   7.328   1.002  -1.974 -0.3108  0.2443 -0.7427
   20CHTO   O48 8237   7.273   0.866  -1.969  0.0618  0.4620  0.0972
   20CHTO  H105 8238   7.194   0.871  -1.918 -0.1728 -0.5098 -0.3674
   20CHTO   O38 8239   7.393   1.116  -1.524 -0.1544  0.4083  0.0843
   20CHTO   C55 8240   7.438   0.986  -1.481  0.3196  0.2053  0.3044
   20CHTO  H112 8241   7.419   0.911  -1.550  0.6017  0.9940  1.2980
   20CHTO   C56 8242   7.385   0.955  -1.334 -0.0658 -0.6737  0.6546
   20CHTO  H113 8243   7.389   1.046  -1.274 -0.1077  0.1568 -0.1463
   20CHTO   O42 8244   7.241   0.929  -1.336  0.1181 -0.4561  0.2164
   20CHTO  H100 8245   7.202   0.949  -1.253 -0.3978  0.1377 -2.6291
   20CHTO   C57 8246   7.464   0.830  -1.272  0.1553 -0.1467  0.7129
   20CHTO  H114 8247   7.434   0.739  -1.324  0.6706 -0.3290  0.9766
   20CHTO   N10 8248   7.437   0.812  -1.126  0.3721  0.1442 -0.2013
   20CHTO  H106 8249   7.421   0.910  -1.080  3.7709  2.3892  1.8964
   20CHTO  H107 8250   7.349   0.756  -1.114 -1.4629  1.1532 -1.4098
   20CHTO   C58 8251   7.616   0.843  -1.288  0.6951  0.4740  0.2733
   20CHTO  H115 8252   7.650   0.929  -1.237 -0.3324  1.3289 -2.0979
   20CHTO   O37 8253   7.649   0.865  -1.426 -0.2772 -0.2280 -0.1213
   20CHTO   C59 8254   7.594   0.995  -1.471  0.1556  0.6791 -0.1683
   20CHTO  H116 8255   7.623   1.076  -1.410 -0.6810 -0.8389 -0.1596
   20CHTO   C70 8256   7.658   1.021  -1.600 -0.0152  0.7226 -0.6102
   20CHTO   O46 8257   7.798   1.028  -1.583  0.1933  0.1832 -0.1483
   20CHTO  H103 8258   7.840   0.951  -1.552 -0.8627  1.7799 -0.2341
   20CHTO   O39 8259   7.687   0.703  -1.255  0.0505 -0.1757 -0.4001
   20CHTO   C60 8260   7.822   0.714  -1.211 -0.7580  0.7427 -0.0310
   20CHTO  H117 8261   7.860   0.811  -1.235  2.0242 -0.1955  1.2910
   20CHTO   C62 8262   7.839   0.703  -1.051 -0.4363 -0.2980 -0.2984
   20CHTO  H119 8263   7.779   0.798  -1.019  0.9717 -0.6784  0.7139
   20CHTO   O43 8264   7.809   0.571  -1.004 -0.0605 -0.1879  0.2336
   20CHTO  H101 8265   7.770   0.576  -0.918 -2.2020  1.8414  0.6936
   20CHTO   C66 8266   7.991   0.745  -1.008 -0.6804 -0.4223 -0.2923
   20CHTO  H123 8267   8.017   0.840  -1.053 -2.2439 -2.1856 -1.8723
   20CHTO   N12 8268   8.026   0.758  -0.865  0.0118 -0.1241  0.0663
   20CHTO  H110 8269   7.974   0.848  -0.829 -0.6799  1.7604  3.8351
   20CHTO  H111 8270   7.975   0.681  -0.814  0.9826 -0.2748  2.6019
   20CHTO   C69 8271   8.086   0.631  -1.072  0.4351 -0.0311 -0.2126
   20CHTO  H126 8272   8.055   0.531  -1.033  1.1197  0.7708 -2.8519
   20CHTO   O41 8273   8.069   0.625  -1.226 -0.2929 -0.3491 -0.0128
   20CHTO   C64 8274   7.923   0.613  -1.272 -0.2066 -0.6698  0.0129
   20CHTO  H121 8275   7.889   0.515  -1.245  2.1228  3.2677  2.2924
   20CHTO   C71 8276   7.928   0.624  -1.427  0.0185 -0.6106  0.3063
   20CHTO   O47 8277   7.949   0.760  -1.469  0.4080 -0.4397 -0.5585
   20CHTO  H104 8278   8.042   0.775  -1.470  0.4804  0.7220 -0.9645
   20CHTO   O34 8279   8.245   0.663  -1.043  0.1309 -0.4134 -0.0161
   20CHTO   C49 8280   8.358   0.555  -1.040 -0.1108 -0.3615  0.4536
   20CHTO   H91 8281   8.350   0.508  -0.940  2.1216 -1.5453  0.4264
   20CHTO   C47 8282   8.501   0.622  -1.059  0.1385  0.2053 -0.2367
   20CHTO   H89 8283   8.568   0.539  -1.053 -0.7410  0.8984  3.2958
   20CHTO   O33 8284   8.528   0.708  -0.950  0.1320  0.3133 -0.1431
   20CHTO   H70 8285   8.460   0.772  -0.947 -0.3200 -1.4545  1.8354
   20CHTO   C45 8286   8.512   0.690  -1.206 -0.3710 -0.6459 -0.2952
   20CHTO   H87 8287   8.477   0.798  -1.201  0.9081  2.2397 -1.0788
   20CHTO    N8 8288   8.655   0.691  -1.245 -0.6460 -0.3457  0.1753
   20CHTO   H75 8289   8.710   0.739  -1.162  1.0318 -1.3833  0.9989
   20CHTO   H76 8290   8.696   0.589  -1.257  0.9053 -0.3693 -1.4179
   20CHTO   C43 8291   8.410   0.635  -1.308  0.1300  0.4401  0.4289
   20CHTO   H85 8292   8.318   0.699  -1.295 -1.3916 -1.1772  0.9597
   20CHTO   O29 8293   8.376   0.494  -1.288 -0.2405 -0.0055  0.3724
   20CHTO   C50 8294   8.338   0.449  -1.152 -0.1085 -0.0613  0.0954
   20CHTO   H92 8295   8.236   0.429  -1.173 -1.2098  1.0908  0.9416
   20CHTO   C54 8296   8.395   0.308  -1.126  0.3725 -0.3934  0.0394
   20CHTO   O36 8297   8.363   0.227  -1.236  0.2159  0.2853 -0.6755
   20CHTO   H72 8298   8.312   0.155  -1.202 -0.6387 -0.4162  2.6979
   20CHTO   O27 8299   8.449   0.663  -1.443  0.4031  0.3928  0.4455
   20CHTO   C37 8300   8.358   0.645  -1.552 -0.1879 -0.3723  0.5764
   20CHTO   H79 8301   8.275   0.582  -1.518  0.0751  0.5803  0.5321
   20CHTO   C38 8302   8.301   0.775  -1.611  0.3401  0.7376 -0.5206
   20CHTO   H80 8303   8.383   0.840  -1.640  0.4124 -1.6908  0.0449
   20CHTO   O31 8304   8.234   0.846  -1.504  0.3230 -0.0239  0.0349
   20CHTO   H68 8305   8.193   0.923  -1.544 -2.6540  1.0077 -0.5413
   20CHTO   C39 8306   8.210   0.753  -1.739 -0.7987  0.8379  0.5495
   20CHTO   H81 8307   8.130   0.689  -1.709  0.2900 -0.1793  1.9049
   20CHTO    N7 8308   8.136   0.867  -1.800 -0.3638  0.6025 -0.2621
   20CHTO   H73 8309   8.043   0.880  -1.745 -0.7416  0.4070  1.4694
   20CHTO   H74 8310   8.127   0.844  -1.903 -1.5571 -0.8861 -0.9045
   20CHTO   C40 8311   8.296   0.670  -1.838 -0.0743  0.3937  0.0889
   20CHTO   H82 8312   8.373   0.733  -1.877  1.4454 -1.0032  1.9525
   20CHTO   O26 8313   8.349   0.548  -1.777 -0.5657 -0.1387  0.0742
   20CHTO   C41 8314   8.430   0.562  -1.664  0.2078 -0.8019 -0.4771
   20CHTO   H83 8315   8.519   0.624  -1.684 -2.1281 -4.2044 -1.5697
   20CHTO   C52 8316   8.465   0.415  -1.624 -0.1851 -0.3971 -0.2609
   20CHTO   O35 8317   8.539   0.395  -1.517  0.3743 -0.5774 -0.3009
   20CHTO   H71 8318   8.566   0.311  -1.489 -2.5831 -0.2046 -0.1691
   20CHTO   O28 8319   8.218   0.612  -1.951 -0.1475  0.2587  0.1163
   20CHTO   C42 8320   8.282   0.612  -2.084  0.2075  0.6088  0.2572
   20CHTO   H84 8321   8.215   0.541  -2.136  1.1593  0.6631 -2.0139
   20CHTO   C44 8322   8.428   0.549  -2.100 -0.6295 -0.4584  0.1864
   20CHTO   H86 8323   8.492   0.585  -2.015  0.4512 -1.4731  0.8874
   20CHTO   O32 8324   8.431   0.409  -2.073 -0.8870 -0.2009 -0.0273
   20CHTO   H69 8325   8.520   0.378  -2.089  1.2235 -1.3282 -1.1846
   20CHTO   C48 8326   8.504   0.585  -2.232  0.1909  0.1307 -0.2147
   20CHTO   H90 8327   8.449   0.524  -2.300 -0.4884  0.9889 -0.3217
   20CHTO    N9 8328   8.650   0.550  -2.237  0.1607 -0.8960  0.3620
   20CHTO   H77 8329   8.668   0.442  -2.234  1.2325 -1.3741  1.3109
   20CHTO   H78 8330   8.698   0.592  -2.328  0.2994 -0.2509  1.3236
   20CHTO   C51 8331   8.479   0.738  -2.273 -0.4317 -0.0969  0.8866
   20CHTO   H93 8332   8.522   0.797  -2.199 -0.6634  0.3999  0.2585
   20CHTO   O30 8333   8.338   0.750  -2.284  0.2439 -0.1581 -0.4480
   20CHTO   C46 8334   8.264   0.750  -2.157  0.4761  1.0023 -0.0082
   20CHTO   H88 8335   8.304   0.827  -2.091  1.1783  1.2433  3.8396
   20CHTO   C53 8336   8.114   0.777  -2.167 -0.3461  0.6280  0.1355
   20CHTO   O72 8337   8.091   0.902  -2.227  0.4830  1.0479  0.2981
   20CHTO  H199 8338   8.061   0.883  -2.311  2.1055 -1.0903  1.6111
   20CHTO   O22 8339   8.521   0.775  -2.405  0.2586  0.3352 -0.1239
   20CHTO   C31 8340   8.557   0.903  -2.453  0.8856 -0.0134  0.3679
   20CHTO   H59 8341   8.540   0.898  -2.555  0.1041 -0.3954 -1.0193
   20CHTO   C29 8342   8.476   1.021  -2.402 -0.6135 -1.0207  0.1019
   20CHTO   H57 8343   8.485   1.020  -2.286 -0.4154  1.6781  1.6410
   20CHTO   O21 8344   8.337   1.002  -2.427 -0.2555 -1.1536 -0.3174
   20CHTO   H37 8345   8.288   1.056  -2.364  2.7544  0.6930  0.3274
   20CHTO   C27 8346   8.543   1.155  -2.453  0.3837 -0.6642 -0.6891
   20CHTO   H55 8347   8.553   1.158  -2.565  0.5799 -0.4481  0.3596
   20CHTO    N5 8348   8.467   1.276  -2.408  0.2811 -0.2590 -0.3295
   20CHTO   H43 8349   8.460   1.284  -2.301  0.0838 -1.1904  0.7672
   20CHTO   H44 8350   8.504   1.357  -2.468  1.4710  0.3397 -0.9805
   20CHTO   C25 8351   8.697   1.162  -2.411 -0.2479  0.0743  0.3814
   20CHTO   H53 8352   8.725   1.168  -2.306  0.1978 -0.5117 -1.1643
   20CHTO   O17 8353   8.764   1.050  -2.468 -0.1955 -0.3647  0.2684
   20CHTO   C32 8354   8.713   0.921  -2.431 -0.3658 -0.6974  0.0727
   20CHTO   H60 8355   8.729   0.922  -2.318  0.6474  1.0885 -0.0595
   20CHTO   C36 8356   8.810   0.830  -2.503 -0.4108  0.1482 -0.0084
   20CHTO   O25 8357   8.952   0.854  -2.488 -0.2076  0.2924 -0.0488
   20CHTO   H40 8358   9.000   0.795  -2.545  0.5350 -1.0862  0.6516
   20CHTO   O15 8359   8.782   1.289  -2.477 -0.2317  0.1218  0.1517
   20CHTO   C19 8360   8.829   1.411  -2.408  0.0210  0.1063 -0.1929
   20CHTO   H47 8361   8.747   1.436  -2.346  2.8460  0.8637 -0.0290
   20CHTO   C20 8362   8.954   1.400  -2.321 -0.5968 -0.0928  0.4254
   20CHTO   H48 8363   9.041   1.354  -2.370  0.8208  2.7612 -0.2121
   20CHTO   O19 8364   8.924   1.308  -2.214  0.4289  0.3355  0.2039
   20CHTO   H35 8365   8.994   1.310  -2.156 -2.2184 -1.3149 -0.6818
   20CHTO   C21 8366   9.001   1.537  -2.262  0.7257  0.1609  0.3018
   20CHTO   H49 8367   8.936   1.555  -2.177  3.2096  0.2226  0.0944
   20CHTO    N4 8368   9.140   1.540  -2.206  0.2728  0.3008 -0.0932
   20CHTO   H41 8369   9.216   1.501  -2.270  0.3004 -1.0730 -0.2552
   20CHTO   H42 8370   9.146   1.485  -2.114  0.1878  0.9988 -2.1751
   20CHTO   C22 8371   8.985   1.661  -2.358  1.2264 -0.4955  0.0792
   20CHTO   H50 8372   9.074   1.654  -2.423  0.7048 -0.0861 -0.0890
   20CHTO   O14 8373   8.859   1.648  -2.429  0.2797 -0.0006 -0.1008
   20CHTO   C23 8374   8.850   1.528  -2.504 -0.0550 -0.3167  0.3175
   20CHTO   H51 8375   8.943   1.520  -2.562 -0.5243  1.0859  2.5526
   20CHTO   C34 8376   8.746   1.524  -2.617  0.3662 -0.3824 -0.0588
   20CHTO   O23 8377   8.616   1.548  -2.565 -0.2235  0.2372  0.1538
   20CHTO   H38 8378   8.598   1.497  -2.488  2.5056 -0.0406  2.0393
   20CHTO   O16 8379   8.971   1.779  -2.280  0.0937  0.3419 -0.1498
   20CHTO   C24 8380   9.008   1.919  -2.329 -0.3297  0.3910 -1.1153
   20CHTO   H52 8381   9.012   1.918  -2.435 -1.3027  0.5662  0.8810
   20CHTO   C26 8382   9.143   1.966  -2.262  0.1548 -0.1567 -0.1325
   20CHTO   H54 8383   9.137   1.961  -2.156 -1.0705  1.0098 -1.7073
   20CHTO   O20 8384   9.244   1.875  -2.299 -0.1818  0.4163  0.4813
   20CHTO   H36 8385   9.326   1.892  -2.248 -1.1361 -0.6126 -2.6575
   20CHTO   C30 8386   9.179   2.116  -2.296  0.1710  0.4451  0.7070
   20CHTO   H58 8387   9.215   2.120  -2.395 -0.6626 -0.4839  1.2503
   20CHTO    N6 8388   9.288   2.158  -2.209  0.3696 -0.1627 -0.1685
   20CHTO   H45 8389   9.374   2.114  -2.251  1.7978  1.2102 -1.2265
   20CHTO   H46 8390   9.274   2.119  -2.109 -1.0066  0.5441 -1.5768
   20CHTO   C33 8391   9.053   2.208  -2.286  0.0371  0.2927 -0.4014
   20CHTO   H61 8392   9.032   2.231  -2.183  2.7348  1.4635 -4.5671
   20CHTO   O18 8393   8.935   2.149  -2.353 -0.1523 -0.3338  0.0771
   20CHTO   C28 8394   8.897   2.021  -2.293  0.5079 -0.8070  0.4070
   20CHTO   H56 8395   8.895   2.033  -2.186 -0.3236  1.6564  2.0191
   20CHTO   C35 8396   8.762   1.964  -2.348 -0.3784  0.2845 -0.4794
   20CHTO   O24 8397   8.676   1.894  -2.255 -0.2573 -0.1712  0.1864
   20CHTO   H39 8398   8.616   1.840  -2.299  1.6654  2.9069 -1.4626
   20CHTO    O9 8399   9.084   2.340  -2.340  0.2237 -0.3173  0.2253
   20CHTO   C13 8400   8.982   2.466  -2.311 -0.4750 -0.3650 -0.4950
   20CHTO   H26 8401   8.928   2.435  -2.207  2.7209  0.0170  0.5593
   20CHTO   C11 8402   8.881   2.478  -2.436 -0.6673  0.0668 -0.6802
   20CHTO   H24 8403   8.808   2.391  -2.432  0.7753 -1.7879 -0.1728
   20CHTO    O8 8404   8.955   2.448  -2.556 -0.5574 -0.7419  0.0326
   20CHTO    H3 8405   8.948   2.356  -2.582  1.1489 -0.7136  1.0246
   20CHTO    C9 8406   8.812   2.618  -2.431 -0.0505 -0.1910  0.0020
   20CHTO   H22 8407   8.784   2.625  -2.331 -1.2977 -1.2480  0.0364
   20CHTO    N2 8408   8.687   2.622  -2.506  0.0569 -0.4320 -0.3525
   20CHTO   H10 8409   8.695   2.563  -2.597 -1.8081  0.2046  0.2052
   20CHTO   H11 8410   8.682   2.727  -2.538  3.3611 -0.0567 -2.7879
   20CHTO    C7 8411   8.929   2.727  -2.461  0.1119 -0.0287 -0.0077
   20CHTO   H20 8412   8.900   2.813  -2.399  1.2240  0.2378 -0.8563
   20CHTO    O4 8413   9.061   2.680  -2.423  0.1998  0.0296 -0.1803
   20CHTO   C14 8414   9.064   2.605  -2.301 -0.4906 -0.4133  0.0856
   20CHTO   H27 8415   9.014   2.652  -2.219  3.1849  1.8068  0.6346
   20CHTO   C18 8416   9.221   2.593  -2.261 -0.2429  0.7148  0.1338
   20CHTO   O13 8417   9.237   2.544  -2.128 -0.7221  0.1534 -0.0290
   20CHTO    H7 8418   9.227   2.449  -2.132  2.7373  0.0161  1.7597
   20CHTO    O2 8419   8.937   2.763  -2.623  0.4028  0.0031 -0.1113
   20CHTO    C1 8420   9.070   2.782  -2.678  0.0920  0.3808  0.6363
   20CHTO   H14 8421   9.149   2.710  -2.624 -0.3256 -0.7955 -0.4659
   20CHTO    C2 8422   9.121   2.941  -2.661  0.1640 -0.4015  0.1430
   20CHTO   H15 8423   9.033   3.001  -2.691 -0.5264  1.9211 -0.8907
   20CHTO    O6 8424   9.153   2.972  -2.521  0.2375  0.1064 -0.1790
   20CHTO    H1 8425   9.242   2.957  -2.494  0.4711 -0.5666  0.8860
   20CHTO    C3 8426   9.246   2.969  -2.758  0.5679  0.1810  0.7104
   20CHTO   H16 8427   9.342   2.947  -2.716 -0.0080 -1.3135 -1.0721
   20CHTO    N1 8428   9.252   3.114  -2.776 -0.3096 -0.2298  0.1179
   20CHTO    H8 8429   9.166   3.150  -2.831  1.3703 -1.9479  0.7331
   20CHTO    H9 8430   9.265   3.172  -2.686 -1.8062 -0.3153 -0.0677
   20CHTO    C4 8431   9.247   2.890  -2.901 -0.4907  0.0883 -0.3008
   20CHTO   H17 8432   9.189   2.953  -2.978 -3.6808  0.4401  0.4299
   20CHTO    O1 8433   9.194   2.757  -2.884  0.0992  0.1569  0.3486
   20CHTO    C5 8434   9.064   2.753  -2.828  0.1828  0.5600 -0.3207
   20CHTO   H18 8435   8.999   2.828  -2.876 -2.9894 -0.3192 -0.2216
   20CHTO   C16 8436   9.004   2.617  -2.846  0.3550 -0.1943  0.5573
   20CHTO   O11 8437   8.858   2.612  -2.858  0.3120 -0.0210 -0.0161
   20CHTO    H5 8438   8.830   2.651  -2.774  1.3793 -0.9088  2.5163
   20CHTO    O3 8439   9.386   2.869  -2.944 -0.4466  0.5354  0.0696
   20CHTO    C6 8440   9.409   2.866  -3.083 -0.3198 -0.4191  0.3445
   20CHTO   H19 8441   9.319   2.864  -3.146 -0.1147  0.5671 -1.4824
   20CHTO    C8 8442   9.474   3.004  -3.133  0.1946 -0.9864  0.2439
   20CHTO   H21 8443   9.564   3.033  -3.066  1.0203 -1.9229  1.6139
   20CHTO    O7 8444   9.372   3.105  -3.120  0.5166  0.8504 -0.1392
   20CHTO    H2 8445   9.383   3.131  -3.030 -0.4648 -1.3796 -0.6488
   20CHTO   C12 8446   9.523   2.981  -3.284  0.4777  0.8628 -0.4840
   20CHTO   H25 8447   9.426   2.960  -3.330  0.9342 -2.0342  1.0240
   20CHTO    N3 8448   9.589   3.099  -3.331 -0.3122 -0.7110  0.3045
   20CHTO   H12 8449   9.629   3.067  -3.429  1.4538  1.4507 -1.1134
   20CHTO   H13 8450   9.508   3.173  -3.348 -1.8940  0.1309  0.1643
   20CHTO   C15 8451   9.611   2.854  -3.300  0.2270  0.2493 -0.2544
   20CHTO   H28 8452   9.714   2.861  -3.258  1.9626 -0.5864 -1.0517
   20CHTO   O10 8453   9.633   2.832  -3.449  0.0074  0.3935 -0.2513
   20CHTO    H4 8454   9.580   2.764  -3.484 -0.1700  0.6439 -0.1601
   20CHTO    O5 8455   9.537   2.734  -3.263 -0.4618  0.3710 -0.3674
   20CHTO   C10 8456   9.491   2.746  -3.122  0.3324  0.1923  0.2099
   20CHTO   H23 8457   9.576   2.749  -3.056 -0.3265  2.8413  0.5636
   20CHTO   C17 8458   9.418   2.613  -3.093 -0.2730  0.0012 -0.4357
   20CHTO   O12 8459   9.499   2.493  -3.094 -0.2680  0.0335 -0.1420
   20CHTO    H6 8460   9.447   2.421  -3.117  0.3996 -1.1349 -0.4397
   21GLOH   H03 8461   9.862   3.570   8.108 -2.5421 -1.0295 -0.8321
   21GLOH    O1 8462   9.773   3.524   8.099 -0.3416  0.1509 -0.1945
   21GLOH    C1 8463   9.785   3.391   8.159  0.1816  0.2733  0.8293
   21GLOH   H02 8464   9.687   3.363   8.210  2.4909 -2.7393  0.8785
   21GLOH   H08 8465   9.851   3.396   8.244 -0.1904 -0.4362  0.2082
   21GLOH    C2 8466   9.828   3.285   8.058 -0.4118 -0.2234  0.0990
   21GLOH   H04 8467   9.742   3.264   7.993 -2.1979  1.1917  2.7525
   21GLOH    O2 8468   9.936   3.330   7.972 -0.0662  0.5454  0.1702
   21GLOH   H05 8469   9.924   3.422   7.948 -0.2315  1.4717  3.3633
   21GLOH    C3 8470   9.864   3.158   8.136  0.4584  0.5500  0.3418
   21GLOH   H06 8471   9.936   3.183   8.212 -2.2471 -1.8941 -1.6841
   21GLOH   H07 8472   9.926   3.101   8.062  1.4160 -0.4048 -0.0386
   21GLOH    O3 8473   9.756   3.088   8.181  0.5507  0.3746  0.2504
   21GLOH   H01 8474   9.771   3.052   8.272  0.2014 -0.3875  1.4445
   22GLOH   H03 8475   0.760   7.309   6.030 -3.0305 -0.4590  1.4454
   22GLOH    O1 8476   0.840   7.276   5.985  0.1765  0.3709  0.0279
   22GLOH    C1 8477   0.797   7.197   5.876 -0.5325  0.1165  0.2504
   22GLOH   H02 8478   0.730   7.236   5.805  1.6235 -1.8299 -1.2619
   22GLOH   H08 8479   0.754   7.104   5.916  1.2297 -0.8230 -0.2678
   22GLOH    C2 8480   0.917   7.146   5.797 -0.3116  0.3231  0.2337
   22GLOH   H04 8481   0.991   7.091   5.859  1.3232  1.2504 -0.0908
   22GLOH    O2 8482   0.870   7.064   5.684  0.4677 -0.1332 -0.4663
   22GLOH   H05 8483   0.831   6.976   5.717 -1.5349 -1.5728  1.0894
   22GLOH    C3 8484   0.982   7.268   5.735  0.1591  0.0314 -0.2467
   22GLOH   H06 8485   0.910   7.318   5.673  1.7325  2.4179  0.5932
   22GLOH   H07 8486   1.062   7.246   5.668  1.4262  1.8222 -0.1669
   22GLOH    O3 8487   1.032   7.362   5.832  0.1743  0.6361 -0.0103
   22GLOH   H01 8488   0.980   7.353   5.915  1.7577 -0.8854  0.0453
   23GLOH   H03 8489   9.048   0.152   0.815  0.5546  1.8462  1.2295
   23GLOH    O1 8490   9.003   0.140   0.725 -0.3813  0.6949  0.3528
   23GLOH    C1 8491   8.868   0.188   0.733  0.2598  0.2100  0.6436
   23GLOH   H02 8492   8.815   0.150   0.819  2.0202 -0.3252 -1.8014
   23GLOH   H08 8493   8.808   0.141   0.651 -1.0843 -0.2173 -0.3544
   23GLOH    C2 8494   8.863   0.336   0.716 -0.2674 -0.3653  0.2342
   23GLOH   H04 8495   8.873   0.357   0.610 -4.9819 -3.2092  0.7075
   23GLOH    O2 8496   8.728   0.381   0.773  0.1923 -0.2972 -0.1175
   23GLOH   H05 8497   8.651   0.352   0.714 -1.2009 -2.1428  0.3506
   23GLOH    C3 8498   8.977   0.398   0.800 -0.3355  0.2357  0.2218
   23GLOH   H06 8499   9.070   0.359   0.759 -0.3000 -4.4316 -0.4461
   23GLOH   H07 8500   8.976   0.381   0.910 -0.1137 -1.2451  0.2289
   23GLOH    O3 8501   8.983   0.542   0.773 -0.0833  0.1887 -0.4382
   23GLOH   H01 8502   9.027   0.560   0.687  1.8575 -2.0165  2.4943
   24GLOH   H03 8503   3.139   3.851   8.764  0.6355  1.6763 -0.4871
   24GLOH    O1 8504   3.053   3.862   8.811 -0.2148  0.2999  0.4160
   24GLOH    C1 8505   3.072   3.818   8.942 -0.6000  0.1950 -0.8193
   24GLOH   H02 8506   3.124   3.895   8.999 -0.0576 -0.7505  0.6990
   24GLOH   H08 8507   3.139   3.730   8.948  2.6748  1.6362 -0.1525
   24GLOH    C2 8508   2.948   3.780   9.017  0.2581  0.6750  0.3174
   24GLOH   H04 8509   2.879   3.698   8.978 -0.0735 -0.4027  1.8683
   24GLOH    O2 8510   2.990   3.738   9.152 -0.1632 -0.0007 -0.1576
   24GLOH   H05 8511   2.949   3.648   9.173 -0.4854  1.3226 -1.2673
   24GLOH    C3 8512   2.852   3.899   9.029  0.4390 -0.4452 -0.2672
   24GLOH   H06 8513   2.899   3.966   9.101  2.2234 -1.5182  0.2709
   24GLOH   H07 8514   2.762   3.868   9.078  2.1698 -0.6435 -0.3863
   24GLOH    O3 8515   2.821   3.964   8.908  0.2739  0.3748 -0.5248
   24GLOH   H01 8516   2.886   4.035   8.881  0.6577  0.1784 -1.8168
   25GLOH   H03 8517   6.304   1.869   9.433 -1.6243 -0.6125  0.1685
   25GLOH    O1 8518   6.374   1.940   9.417 -0.1578 -0.0046 -0.5076
   25GLOH    C1 8519   6.469   1.883   9.325 -0.1024  0.1473 -0.0714
   25GLOH   H02 8520   6.411   1.839   9.243  1.5834  1.9938 -0.1474
   25GLOH   H08 8521   6.509   1.788   9.367 -1.3460 -3.1029  2.0537
   25GLOH    C2 8522   6.585   1.974   9.281  0.1932 -0.3957 -0.4010
   25GLOH   H04 8523   6.635   2.008   9.382 -1.0869  1.6719  0.0245
   25GLOH    O2 8524   6.688   1.908   9.201 -0.0329  0.0632 -0.5827
   25GLOH   H05 8525   6.758   1.973   9.176 -0.0128  1.1897  1.6443
   25GLOH    C3 8526   6.534   2.095   9.209  1.0097 -0.5971 -0.1181
   25GLOH   H06 8527   6.623   2.160   9.186  0.2851  2.3098  1.4804
   25GLOH   H07 8528   6.469   2.150   9.281 -0.3200 -1.2289 -1.4957
   25GLOH    O3 8529   6.457   2.067   9.089  0.0214  0.0518  0.1446
   25GLOH   H01 8530   6.512   2.056   9.006  0.5544  1.8680  2.2283
   26GLOH   H03 8531   4.030   2.490   7.672 -1.2276 -0.7848  1.7894
   26GLOH    O1 8532   4.000   2.538   7.591 -0.1790  0.6556  0.6352
   26GLOH    C1 8533   3.860   2.516   7.598  0.5405 -0.1590 -0.3945
   26GLOH   H02 8534   3.813   2.547   7.691  0.1236  0.1007 -0.9848
   26GLOH   H08 8535   3.837   2.411   7.592 -0.8709  0.7063 -0.2001
   26GLOH    C2 8536   3.789   2.578   7.477  0.5076  0.8158  0.3888
   26GLOH   H04 8537   3.812   2.690   7.478  2.7238  0.5307 -0.6413
   26GLOH    O2 8538   3.826   2.526   7.351 -0.2751  0.2448  0.2134
   26GLOH   H05 8539   3.918   2.483   7.346 -1.1384 -2.2866  1.9237
   26GLOH    C3 8540   3.641   2.560   7.510  0.8035  0.3219  0.1562
   26GLOH   H06 8541   3.623   2.455   7.493  1.9608 -0.7687 -0.6312
   26GLOH   H07 8542   3.588   2.627   7.444  2.8989 -2.8854  1.7415
   26GLOH    O3 8543   3.597   2.603   7.646 -0.1577  0.0975 -0.7036
   26GLOH   H01 8544   3.580   2.523   7.704  2.4986 -1.3334  0.2742
   27GLOH   H03 8545   7.470   9.810   3.168 -0.0952 -2.0575 -1.1786
   27GLOH    O1 8546   7.417   9.892   3.154  0.0329 -0.9621  0.0229
   27GLOH    C1 8547   7.293   9.898   3.225 -0.6431  0.2187 -0.5702
   27GLOH   H02 8548   7.297   9.887   3.336  0.3482  0.2224  1.6428
   27GLOH   H08 8549   7.237   9.814   3.185  3.1037  1.0869  0.0032
   27GLOH    C2 8550   7.211  10.028   3.205 -1.0471  0.2285 -0.2558
   27GLOH   H04 8551   7.277  10.117   3.203  0.2038  0.7517  1.5491
   27GLOH    O2 8552   7.135  10.025   3.077 -0.3110 -0.5638 -0.8736
   27GLOH   H05 8553   7.185  10.071   3.005  0.8143 -0.9871  1.7565
   27GLOH    C3 8554   7.107  10.058   3.315 -0.0181  0.1016  0.4848
   27GLOH   H06 8555   7.049   9.978   3.339 -0.0844 -3.1084  2.5911
   27GLOH   H07 8556   7.052  10.132   3.261 -0.5616 -1.0988 -1.2492
   27GLOH    O3 8557   7.164  10.102   3.441 -0.2983  0.1991  0.0861
   27GLOH   H01 8558   7.182  10.018   3.495  1.2460 -0.2538  1.2537
   28GLOH   H03 8559   5.122   1.957   8.279 -0.0500  0.0800 -0.6285
   28GLOH    O1 8560   5.111   2.050   8.320 -0.8252 -0.4307 -0.3568
   28GLOH    C1 8561   5.148   2.025   8.454  0.3001 -0.1032 -0.4797
   28GLOH   H02 8562   5.067   1.957   8.500 -4.3395 -1.0023  0.5653
   28GLOH   H08 8563   5.152   2.117   8.512 -0.8694  2.3557 -1.7628
   28GLOH    C2 8564   5.287   1.963   8.441 -0.3825 -0.0048 -0.6480
   28GLOH   H04 8565   5.346   2.023   8.376 -2.3688 -0.0267  0.5298
   28GLOH    O2 8566   5.340   1.945   8.572 -0.6313  0.6111  0.2128
   28GLOH   H05 8567   5.371   2.039   8.597 -0.6591  1.4579 -1.7794
   28GLOH    C3 8568   5.266   1.821   8.380  0.5844 -0.3808  0.2259
   28GLOH   H06 8569   5.202   1.757   8.446  1.8416 -0.9470  1.1047
   28GLOH   H07 8570   5.364   1.765   8.378 -0.7814  0.0916 -0.6896
   28GLOH    O3 8571   5.197   1.823   8.253  0.4742 -0.1852 -0.1652
   28GLOH   H01 8572   5.231   1.749   8.199  0.5101 -2.9208 -1.6421
   29GLOH   H03 8573   2.186   3.049   3.052  0.0141  2.3329 -2.3991
   29GLOH    O1 8574   2.178   3.122   3.117  0.0479 -0.4456  0.6388
   29GLOH    C1 8575   2.292   3.208   3.099 -0.2218  0.8079  0.4235
   29GLOH   H02 8576   2.344   3.172   3.006  2.9201  0.0874  1.1898
   29GLOH   H08 8577   2.370   3.191   3.174  0.2121  2.4330 -1.6432
   29GLOH    C2 8578   2.261   3.354   3.099  0.5686 -0.6303  0.2285
   29GLOH   H04 8579   2.199   3.366   3.009 -0.2682  0.0048  2.2598
   29GLOH    O2 8580   2.170   3.392   3.205  0.1253  0.6832  0.1703
   29GLOH   H05 8581   2.107   3.447   3.152  0.0837  3.0347  1.2612
   29GLOH    C3 8582   2.385   3.443   3.093  0.1757 -0.7273 -0.5670
   29GLOH   H06 8583   2.429   3.445   3.192  0.0978 -0.4986 -0.2378
   29GLOH   H07 8584   2.363   3.548   3.069  0.1058 -0.1215 -2.3008
   29GLOH    O3 8585   2.479   3.397   2.995  0.2207 -0.3144  0.2959
   29GLOH   H01 8586   2.437   3.413   2.910 -1.6300 -0.4506 -0.3249
   30GLOH   H03 8587   0.632   4.197   4.292 -1.4324  1.6474  0.6112
   30GLOH    O1 8588   0.663   4.123   4.351  0.3451  0.4326 -0.2542
   30GLOH    C1 8589   0.666   4.167   4.489 -0.3070  0.5228 -0.3551
   30GLOH   H02 8590   0.675   4.278   4.496 -0.3417 -1.3197 -0.8361
   30GLOH   H08 8591   0.748   4.129   4.548  0.1900  3.7068  0.9972
   30GLOH    C2 8592   0.537   4.122   4.563  0.1770  0.6996  0.2986
   30GLOH   H04 8593   0.522   4.015   4.554 -2.0485 -2.8341  0.7232
   30GLOH    O2 8594   0.544   4.139   4.700  0.4649 -0.3740 -0.1387
   30GLOH   H05 8595   0.531   4.238   4.720  1.2911 -0.1941 -2.7882
   30GLOH    C3 8596   0.428   4.210   4.509  0.4260 -0.2706 -0.1172
   30GLOH   H06 8597   0.428   4.199   4.402 -2.1577 -1.5083  2.5340
   30GLOH   H07 8598   0.446   4.319   4.516  1.0320  0.9807 -1.3517
   30GLOH    O3 8599   0.302   4.184   4.569 -0.9642  0.4688  0.2906
   30GLOH   H01 8600   0.254   4.266   4.591 -0.3415 -0.9370 -1.6898
   31GLOH   H03 8601   8.771   4.257   1.866  1.3015  1.9139 -2.4725
   31GLOH    O1 8602   8.813   4.166   1.865  0.3615  0.2932  0.6086
   31GLOH    C1 8603   8.890   4.145   1.740  0.2478  0.3596 -1.0888
   31GLOH   H02 8604   8.931   4.043   1.741  1.1020 -1.3501 -3.0591
   31GLOH   H08 8605   8.968   4.218   1.736 -0.9379 -0.4021 -0.5633
   31GLOH    C2 8606   8.801   4.174   1.620 -0.0207 -0.8358 -0.6197
   31GLOH   H04 8607   8.794   4.283   1.605  3.6319 -0.0100  0.6332
   31GLOH    O2 8608   8.869   4.125   1.505 -0.1361 -0.4067 -0.0000
   31GLOH   H05 8609   8.963   4.101   1.531 -0.7628 -0.1342 -1.0730
   31GLOH    C3 8610   8.654   4.126   1.626  0.5785 -0.8149 -0.3380
   31GLOH   H06 8611   8.615   4.123   1.524  1.3674 -1.1958 -0.5599
   31GLOH   H07 8612   8.598   4.200   1.675  3.3372 -1.3797  0.3632
   31GLOH    O3 8613   8.646   3.998   1.686  0.0135  0.0389  0.9336
   31GLOH   H01 8614   8.657   3.927   1.617  0.8843  0.9824 -2.9148
   32GLOH   H03 8615   6.498   1.986   4.154  2.1639  1.4902  0.6467
   32GLOH    O1 8616   6.442   1.986   4.074 -0.3195 -0.1085 -0.1644
   32GLOH    C1 8617   6.392   2.117   4.051 -0.2745 -0.6506  0.0872
   32GLOH   H02 8618   6.338   2.116   3.949 -0.4127 -0.4657 -2.3659
   32GLOH   H08 8619   6.471   2.194   4.043 -2.0145 -0.5726 -0.3409
   32GLOH    C2 8620   6.284   2.161   4.148  0.4250  0.0565 -0.7295
   32GLOH   H04 8621   6.193   2.094   4.136 -1.7836  1.2585  0.6326
   32GLOH    O2 8622   6.329   2.171   4.287  0.2166  0.8508 -0.5593
   32GLOH   H05 8623   6.286   2.098   4.343 -1.6108 -1.3545 -1.2732
   32GLOH    C3 8624   6.216   2.298   4.129 -0.0050  1.0673  0.5621
   32GLOH   H06 8625   6.290   2.366   4.115 -2.0092 -6.2693 -3.8423
   32GLOH   H07 8626   6.168   2.328   4.219  0.9535 -1.7715 -0.7137
   32GLOH    O3 8627   6.135   2.292   4.008 -0.0792  0.1662 -0.8573
   32GLOH   H01 8628   6.201   2.313   3.938  0.5979  0.0018  1.6867
   33GLOH   H03 8629   4.963   2.279   8.480  1.3612 -0.6127 -0.5593
   33GLOH    O1 8630   5.031   2.334   8.439  0.4450  0.0766  0.0540
   33GLOH    C1 8631   4.957   2.440   8.378  0.4060  0.6777  0.5286
   33GLOH   H02 8632   5.036   2.508   8.340  1.7655  0.9255  0.0696
   33GLOH   H08 8633   4.899   2.496   8.454 -1.0634 -0.4704  0.6570
   33GLOH    C2 8634   4.868   2.387   8.264 -0.1316  0.2813 -0.1062
   33GLOH   H04 8635   4.807   2.312   8.305 -1.0690  1.7185 -1.6433
   33GLOH    O2 8636   4.782   2.496   8.226  0.1330  0.1489  0.2566
   33GLOH   H05 8637   4.713   2.466   8.161  0.1196  1.0011  0.4772
   33GLOH    C3 8638   4.953   2.327   8.152  0.4760 -0.1256  0.2968
   33GLOH   H06 8639   5.056   2.368   8.165  2.7364 -1.3242 -2.1066
   33GLOH   H07 8640   4.915   2.354   8.052 -1.2615  1.2075 -0.9041
   33GLOH    O3 8641   4.963   2.182   8.153 -0.4607  0.7517  0.4550
   33GLOH   H01 8642   5.029   2.153   8.223 -1.6226  3.3956 -0.8625
   34GLOH   H03 8643   7.260   5.387   5.373 -0.3239  0.4492 -1.1585
   34GLOH    O1 8644   7.252   5.371   5.275 -0.1250 -0.4098 -0.1467
   34GLOH    C1 8645   7.120   5.416   5.248  0.4282 -0.0351  0.4817
   34GLOH   H02 8646   7.054   5.330   5.258  0.1989  1.6249 -0.8967
   34GLOH   H08 8647   7.105   5.453   5.149 -0.9034 -1.3940  0.3673
   34GLOH    C2 8648   7.072   5.531   5.344 -0.4626 -0.0339  0.0249
   34GLOH   H04 8649   7.142   5.618   5.321  2.6348  1.4693 -2.0814
   34GLOH    O2 8650   6.936   5.571   5.320  0.1825 -0.2136 -0.1420
   34GLOH   H05 8651   6.888   5.499   5.282  0.2111  0.5743  1.2596
   34GLOH    C3 8652   7.091   5.483   5.490  0.1538  0.4392  0.5089
   34GLOH   H06 8653   7.031   5.398   5.511  1.1339 -1.4334  3.0349
   34GLOH   H07 8654   7.065   5.559   5.556  1.9710  3.2063 -1.3675
   34GLOH    O3 8655   7.230   5.444   5.517  0.1559 -0.3324 -0.2316
   34GLOH   H01 8656   7.280   5.529   5.533  2.2228 -0.1016  0.5789
   35GLOH   H03 8657   2.188   5.606   0.911 -0.7778  0.7408 -0.9987
   35GLOH    O1 8658   2.134   5.626   0.986 -0.1388  0.3192 -0.3328
   35GLOH    C1 8659   2.118   5.765   1.000  0.1311  0.0229  0.2679
   35GLOH   H02 8660   2.204   5.814   0.950 -0.8383  3.4109 -2.5756
   35GLOH   H08 8661   2.132   5.793   1.108  0.2366 -1.7809 -1.1520
   35GLOH    C2 8662   1.978   5.820   0.963 -0.1656 -0.2787  0.5228
   35GLOH   H04 8663   1.901   5.768   1.017 -1.2027  1.7498  1.1862
   35GLOH    O2 8664   1.965   5.958   0.998 -0.2245  0.5137 -0.3306
   35GLOH   H05 8665   1.988   6.012   0.922  1.1534  1.2718 -0.1873
   35GLOH    C3 8666   1.969   5.801   0.810 -0.5651 -0.6193 -0.5382
   35GLOH   H06 8667   1.875   5.843   0.784  0.1765 -0.9277 -0.6267
   35GLOH   H07 8668   1.966   5.691   0.794  1.5504 -0.0120 -0.2429
   35GLOH    O3 8669   2.077   5.857   0.725 -0.1208 -0.0481 -0.8233
   35GLOH   H01 8670   2.082   5.815   0.638 -0.6583  1.4070  0.4325
   36GLOH   H03 8671   2.134   5.244   3.868  1.6054  0.2093  3.6081
   36GLOH    O1 8672   2.097   5.236   3.775 -0.4705  0.5231  0.1597
   36GLOH    C1 8673   1.995   5.131   3.762 -0.6352  0.1654 -0.4026
   36GLOH   H02 8674   2.055   5.037   3.779  2.8711 -0.0504 -0.9364
   36GLOH   H08 8675   1.959   5.130   3.658  1.6627  0.0282  0.0740
   36GLOH    C2 8676   1.874   5.160   3.849 -0.0687  0.8499 -0.3901
   36GLOH   H04 8677   1.830   5.259   3.817  0.3488 -0.0567 -0.0819
   36GLOH    O2 8678   1.775   5.058   3.838 -0.0177 -0.4777 -0.0955
   36GLOH   H05 8679   1.713   5.097   3.769 -0.2915  0.7506 -2.2324
   36GLOH    C3 8680   1.910   5.175   3.998  0.1148 -0.9059 -0.5375
   36GLOH   H06 8681   1.936   5.078   4.039  1.1268  2.3538 -1.3056
   36GLOH   H07 8682   1.815   5.208   4.046  1.1400  1.8103  0.9490
   36GLOH    O3 8683   2.015   5.273   4.018  0.6003  0.1843  0.2481
   36GLOH   H01 8684   2.021   5.283   4.115 -0.8805 -0.6771  2.4675
   37GLOH   H03 8685   5.236   3.503   2.623 -0.1861  3.0322  0.3205
   37GLOH    O1 8686   5.233   3.402   2.625  0.7020 -0.4279  0.5004
   37GLOH    C1 8687   5.124   3.368   2.718  0.2473 -0.5872 -0.4897
   37GLOH   H02 8688   5.120   3.261   2.729 -0.3160  1.1404 -1.1353
   37GLOH   H08 8689   5.021   3.388   2.677 -0.3415 -0.9967 -0.2601
   37GLOH    C2 8690   5.140   3.433   2.854  0.0332 -0.2317  0.3642
   37GLOH   H04 8691   5.177   3.538   2.839  1.7916 -0.4789 -0.2429
   37GLOH    O2 8692   5.011   3.432   2.927 -0.0170  0.0379 -0.3866
   37GLOH   H05 8693   4.970   3.523   2.894 -3.2560  1.5560 -2.7676
   37GLOH    C3 8694   5.251   3.355   2.926  0.3713  1.0742  0.7003
   37GLOH   H06 8695   5.222   3.251   2.929 -1.9249  1.8235  1.6610
   37GLOH   H07 8696   5.250   3.395   3.026  1.2359  0.0461 -1.4580
   37GLOH    O3 8697   5.378   3.369   2.876  0.1051  0.1727  0.5426
   37GLOH   H01 8698   5.394   3.441   2.811  1.0368 -1.1821  0.7492
   38GLOH   H03 8699   1.910   6.326   5.647  0.1033  1.3429 -1.7973
   38GLOH    O1 8700   1.926   6.394   5.576  0.1214  0.3626  0.4307
   38GLOH    C1 8701   2.029   6.484   5.612 -0.3406 -0.1204 -0.1721
   38GLOH   H02 8702   2.038   6.477   5.714 -2.0557 -3.0350 -1.4316
   38GLOH   H08 8703   2.008   6.580   5.576  0.7285 -0.6854 -1.7605
   38GLOH    C2 8704   2.166   6.431   5.551  0.3636 -0.0475  0.2630
   38GLOH   H04 8705   2.159   6.386   5.452  1.2514  2.7093  1.5839
   38GLOH    O2 8706   2.259   6.544   5.558 -0.1495  0.1558 -0.3457
   38GLOH   H05 8707   2.248   6.595   5.474 -1.6885  0.4106 -0.2206
   38GLOH    C3 8708   2.224   6.321   5.643  0.5400  0.4389 -0.3353
   38GLOH   H06 8709   2.253   6.362   5.740 -1.0053  3.6970  1.3479
   38GLOH   H07 8710   2.316   6.292   5.591 -0.8086 -0.1311  0.2443
   38GLOH    O3 8711   2.146   6.203   5.670 -0.3472 -0.0035  0.1611
   38GLOH   H01 8712   2.192   6.145   5.736 -2.2120  0.3982  1.3562
   39GLOH   H03 8713   2.853   3.468   3.423 -0.2847 -2.6637 -0.1715
   39GLOH    O1 8714   2.850   3.464   3.325 -0.5191 -0.3034 -0.1044
   39GLOH    C1 8715   2.714   3.491   3.274 -0.2019 -0.0888 -0.3387
   39GLOH   H02 8716   2.634   3.514   3.343 -1.0197 -0.2099 -2.1636
   39GLOH   H08 8717   2.674   3.410   3.213 -0.8024  0.5622  0.1871
   39GLOH    C2 8718   2.722   3.606   3.169  0.0527 -0.0025  0.1572
   39GLOH   H04 8719   2.793   3.568   3.095 -1.6218  1.6755 -1.2504
   39GLOH    O2 8720   2.585   3.634   3.123 -0.3090  0.2085 -0.1675
   39GLOH   H05 8721   2.542   3.573   3.056 -0.0524 -2.8349  0.3528
   39GLOH    C3 8722   2.779   3.726   3.242 -0.0151  0.2019 -0.2702
   39GLOH   H06 8723   2.786   3.806   3.170 -0.9759 -0.0054  1.9916
   39GLOH   H07 8724   2.882   3.712   3.275 -3.1691 -0.7233 -0.0453
   39GLOH    O3 8725   2.698   3.768   3.354  0.1949 -0.5406 -0.4382
   39GLOH   H01 8726   2.749   3.834   3.404  0.4043 -1.2147 -0.2730
   40GLOH   H03 8727   7.383   8.365   1.266 -2.0184  0.8901 -1.1448
   40GLOH    O1 8728   7.452   8.395   1.331  0.2358  0.2159 -0.5488
   40GLOH    C1 8729   7.580   8.321   1.323 -0.4258 -0.3034 -1.0455
   40GLOH   H02 8730   7.560   8.226   1.370 -2.1763 -0.6067  0.8511
   40GLOH   H08 8731   7.645   8.373   1.393  1.8243 -1.8823 -0.2781
   40GLOH    C2 8732   7.657   8.303   1.192  0.7123  0.2280  0.3554
   40GLOH   H04 8733   7.576   8.266   1.121  0.3265 -0.5319  0.9880
   40GLOH    O2 8734   7.721   8.425   1.154 -0.0296 -0.4480  0.5688
   40GLOH   H05 8735   7.651   8.496   1.140 -0.7068 -0.8038  0.0501
   40GLOH    C3 8736   7.754   8.183   1.208 -0.5796  1.0855  0.6313
   40GLOH   H06 8737   7.809   8.186   1.303  0.3069 -1.5241  0.4714
   40GLOH   H07 8738   7.835   8.200   1.132 -0.9411 -0.6657 -2.3488
   40GLOH    O3 8739   7.686   8.060   1.196  0.1136 -0.0150  0.1505
   40GLOH   H01 8740   7.610   8.041   1.255  2.0116 -0.2164 -0.6388
   41GLOH   H03 8741   7.733   0.332   8.066  0.9009 -0.4224 -1.8526
   41GLOH    O1 8742   7.807   0.340   8.003  0.5825 -0.8946 -0.4782
   41GLOH    C1 8743   7.812   0.238   7.904 -0.2719 -0.8668 -0.0007
   41GLOH   H02 8744   7.887   0.166   7.927 -1.8153 -0.6870  2.8244
   41GLOH   H08 8745   7.843   0.294   7.813 -0.3181  1.5072  0.7834
   41GLOH    C2 8746   7.672   0.178   7.868  0.3753 -0.0896  0.5462
   41GLOH   H04 8747   7.607   0.262   7.832 -2.1007 -0.7781  2.8693
   41GLOH    O2 8748   7.683   0.077   7.768  0.3332 -0.4299  0.2840
   41GLOH   H05 8749   7.641   0.108   7.681  0.0839 -0.4240 -1.0683
   41GLOH    C3 8750   7.597   0.118   7.986 -0.3034  0.1357  0.2296
   41GLOH   H06 8751   7.665   0.057   8.042 -1.1864 -0.4419  0.6900
   41GLOH   H07 8752   7.518   0.048   7.956 -0.0310  1.4334  1.1736
   41GLOH    O3 8753   7.543   0.214   8.084  0.0713  0.0877 -0.1757
   41GLOH   H01 8754   7.471   0.273   8.048  2.7315  0.4537  0.8446
   42GLOH   H03 8755   1.839   8.736   2.045  0.6548  2.6248 -1.1505
   42GLOH    O1 8756   1.743   8.737   2.069  0.4571  0.2871  0.5014
   42GLOH    C1 8757   1.729   8.728   2.212  0.2598  0.3972  1.1341
   42GLOH   H02 8758   1.630   8.763   2.246 -2.1443 -0.8857  0.2356
   42GLOH   H08 8759   1.801   8.789   2.272 -2.1338  0.8462  2.1435
   42GLOH    C2 8760   1.755   8.586   2.266  0.3859 -0.1901 -0.0335
   42GLOH   H04 8761   1.856   8.560   2.215 -0.8255 -0.0104  1.4075
   42GLOH    O2 8762   1.756   8.584   2.407 -0.4414 -0.2431  0.1314
   42GLOH   H05 8763   1.668   8.615   2.442  1.2402  0.2675 -1.6530
   42GLOH    C3 8764   1.651   8.484   2.212  0.3299 -0.5085 -0.5029
   42GLOH   H06 8765   1.654   8.506   2.113  0.0231 -1.1653 -2.7169
   42GLOH   H07 8766   1.554   8.520   2.236  0.0977 -1.2917  1.2545
   42GLOH    O3 8767   1.655   8.347   2.244  0.1482 -0.2258  0.5818
   42GLOH   H01 8768   1.576   8.296   2.210  1.2688  0.5899 -1.0786
   43GLOH   H03 8769   0.046   1.831   7.745 -1.0730 -2.6509 -1.8003
   43GLOH    O1 8770   0.119   1.867   7.690 -0.0050 -0.2083 -0.5892
   43GLOH    C1 8771   0.141   2.012   7.691  0.1159  0.0537 -0.2473
   43GLOH   H02 8772   0.247   2.029   7.674  1.8367 -0.5407 -2.4886
   43GLOH   H08 8773   0.099   2.053   7.789 -2.3571 -0.3076 -1.0546
   43GLOH    C2 8774   0.062   2.078   7.572 -0.3451 -0.0427 -0.2792
   43GLOH   H04 8775  -0.046   2.066   7.599  1.5585  1.2023 -0.1311
   43GLOH    O2 8776   0.100   2.218   7.580  0.5610  0.7427 -0.2418
   43GLOH   H05 8777   0.060   2.256   7.502  1.7423  0.7787 -0.2428
   43GLOH    C3 8778   0.107   2.013   7.443 -0.0637  0.4205  0.0560
   43GLOH   H06 8779   0.093   1.905   7.457  0.4279  0.9211  0.4423
   43GLOH   H07 8780   0.212   2.021   7.424 -1.8446 -1.7950  1.7332
   43GLOH    O3 8781   0.032   2.072   7.329 -0.3988  0.3438  0.0405
   43GLOH   H01 8782   0.105   2.122   7.277 -3.9732 -0.8405 -2.8366
   44GLOH   H03 8783   7.321   1.876   5.213 -3.3955 -0.2876 -0.5113
   44GLOH    O1 8784   7.297   1.819   5.284  0.3590  0.5803 -0.3944
   44GLOH    C1 8785   7.159   1.832   5.327 -0.3051 -0.1690  0.5189
   44GLOH   H02 8786   7.090   1.819   5.244 -0.2995  0.5616 -2.0296
   44GLOH   H08 8787   7.149   1.935   5.364  2.0628  0.5598 -0.2134
   44GLOH    C2 8788   7.132   1.722   5.435 -0.2913  0.3842 -0.0879
   44GLOH   H04 8789   7.138   1.624   5.375 -0.2087 -1.9479  0.6960
   44GLOH    O2 8790   7.226   1.733   5.545  0.2744  0.0366  0.6638
   44GLOH   H05 8791   7.312   1.740   5.505 -1.1141 -1.4375  2.0009
   44GLOH    C3 8792   6.999   1.741   5.492  0.1716  0.6703  0.0858
   44GLOH   H06 8793   6.989   1.843   5.519 -1.8956 -0.1286 -1.5998
   44GLOH   H07 8794   6.988   1.684   5.583 -1.8880  2.3465 -1.9629
   44GLOH    O3 8795   6.895   1.694   5.401 -0.6486 -0.0274 -0.2156
   44GLOH   H01 8796   6.934   1.635   5.334 -1.1028  3.3895  0.4593
   45GLOH   H03 8797   6.384   4.887   1.140  2.8327 -0.4795 -1.9706
   45GLOH    O1 8798   6.291   4.847   1.137 -0.1074  0.2895 -1.0270
   45GLOH    C1 8799   6.186   4.932   1.084 -0.5706  0.2698 -0.3202
   45GLOH   H02 8800   6.198   5.028   1.125  0.4189  1.0900 -1.2528
   45GLOH   H08 8801   6.091   4.890   1.114  0.1602 -1.7159 -0.8782
   45GLOH    C2 8802   6.186   4.937   0.934 -0.5361  0.8897  0.0644
   45GLOH   H04 8803   6.182   4.838   0.888  1.2684 -0.8447  1.5712
   45GLOH    O2 8804   6.072   5.006   0.886 -0.2331  0.0776 -0.3815
   45GLOH   H05 8805   6.091   5.105   0.880 -0.1382 -2.9465 -1.8660
   45GLOH    C3 8806   6.322   4.997   0.887 -0.0758 -0.2071  0.0057
   45GLOH   H06 8807   6.360   5.078   0.951  2.8097  0.9719 -0.8121
   45GLOH   H07 8808   6.310   5.036   0.787 -1.6214  0.1839 -0.3194
   45GLOH    O3 8809   6.417   4.892   0.895  0.5278  0.0598 -0.2693
   45GLOH   H01 8810   6.507   4.929   0.907 -1.0156  1.5546  1.8961
   46GLOH   H03 8811   7.212   2.466   0.807 -1.6913 -0.8591  1.6498
   46GLOH    O1 8812   7.179   2.489   0.717 -0.3875 -0.5847 -0.0147
   46GLOH    C1 8813   7.219   2.621   0.681  0.6793  0.5479  0.2800
   46GLOH   H02 8814   7.202   2.634   0.575  1.1876  1.8155 -4.4252
   46GLOH   H08 8815   7.325   2.623   0.697  2.3855  0.6350  1.0653
   46GLOH    C2 8816   7.156   2.740   0.753 -0.1642 -0.4491  0.9953
   46GLOH   H04 8817   7.205   2.833   0.719  1.8778 -2.2902  4.4222
   46GLOH    O2 8818   7.010   2.740   0.721 -0.1685 -0.3037  0.0306
   46GLOH   H05 8819   6.964   2.668   0.780  0.7670  1.1802  2.5309
   46GLOH    C3 8820   7.167   2.724   0.903  0.5584  0.1361  0.3005
   46GLOH   H06 8821   7.130   2.625   0.931  0.2268 -0.3308  1.5042
   46GLOH   H07 8822   7.100   2.799   0.941 -1.7866  0.5193 -1.0638
   46GLOH    O3 8823   7.289   2.754   0.959  0.4261  0.0961  0.1036
   46GLOH   H01 8824   7.279   2.733   1.056 -2.9921  0.0241  0.0300
   47GLOH   H03 8825   1.759   5.452   2.940 -0.2218  2.0529  1.6448
   47GLOH    O1 8826   1.801   5.498   3.020 -0.4908 -0.1631 -0.0792
   47GLOH    C1 8827   1.885   5.604   2.982  0.0214  0.0513  0.8245
   47GLOH   H02 8828   1.924   5.593   2.881  0.2578  1.3730  0.4818
   47GLOH   H08 8829   1.973   5.604   3.043  0.0714  2.1484  0.9190
   47GLOH    C2 8830   1.821   5.739   2.999  0.0034  0.0387  0.9467
   47GLOH   H04 8831   1.789   5.758   3.103 -0.3703  3.3945 -2.0356
   47GLOH    O2 8832   1.895   5.855   2.959  0.2972 -0.2610 -0.0446
   47GLOH   H05 8833   1.863   5.936   2.997 -0.2603 -5.0259  0.5111
   47GLOH    C3 8834   1.693   5.725   2.918  0.1154  0.5666  0.0221
   47GLOH   H06 8835   1.641   5.821   2.924 -1.0273  0.4539 -1.0069
   47GLOH   H07 8836   1.634   5.651   2.976 -0.9979  1.7446 -1.1208
   47GLOH    O3 8837   1.725   5.694   2.780  0.9456  0.4149  0.4111
   47GLOH   H01 8838   1.651   5.652   2.735 -1.6742  1.6831  1.9357
   48GLOH   H03 8839   2.686   9.327   3.353  0.9716 -1.1894  0.8088
   48GLOH    O1 8840   2.658   9.353   3.444  0.4852 -0.1952  0.1002
   48GLOH    C1 8841   2.760   9.335   3.545 -0.0006  0.3198 -0.1699
   48GLOH   H02 8842   2.846   9.398   3.531  0.9504 -0.9793 -3.1527
   48GLOH   H08 8843   2.794   9.232   3.538  0.9446 -0.3127  0.4899
   48GLOH    C2 8844   2.702   9.364   3.689 -0.7114  0.3175  0.0529
   48GLOH   H04 8845   2.593   9.377   3.690  1.9938 -1.9240 -2.6071
   48GLOH    O2 8846   2.743   9.257   3.776  0.1822  0.1298  0.1254
   48GLOH   H05 8847   2.664   9.206   3.799  1.6053  2.3716  0.4460
   48GLOH    C3 8848   2.760   9.500   3.735  0.2839  0.3514 -0.1133
   48GLOH   H06 8849   2.760   9.566   3.644 -2.6923  0.9670  4.8747
   48GLOH   H07 8850   2.864   9.484   3.755  1.4267  0.3304  1.1065
   48GLOH    O3 8851   2.690   9.571   3.837 -0.1981  0.1029  0.5088
   48GLOH   H01 8852   2.730   9.664   3.837  2.0262 -2.0139 -0.8491
   49GLOH   H03 8853   7.413   8.885   9.869 -0.3182  0.7286  0.8931
   49GLOH    O1 8854   7.342   8.842   9.927 -0.0966 -0.8320 -0.1153
   49GLOH    C1 8855   7.357   8.707   9.957  0.6734  0.3772 -0.0770
   49GLOH   H02 8856   7.343   8.677  10.062  2.0404 -1.2980  0.0772
   49GLOH   H08 8857   7.463   8.694   9.953  0.3064 -0.2851  1.1324
   49GLOH    C2 8858   7.282   8.611   9.862 -0.5627  1.0743  0.3748
   49GLOH   H04 8859   7.322   8.628   9.762  1.9706 -1.3382  0.8510
   49GLOH    O2 8860   7.299   8.480   9.910  0.0112 -0.0143  0.7052
   49GLOH   H05 8861   7.228   8.465   9.980  1.3251 -0.4715 -1.7563
   49GLOH    C3 8862   7.132   8.640   9.872 -0.2084 -0.9732 -0.9175
   49GLOH   H06 8863   7.112   8.642   9.979  3.1445  0.8288  1.0373
   49GLOH   H07 8864   7.071   8.567   9.819 -3.6773 -0.5361 -0.4244
   49GLOH    O3 8865   7.098   8.772   9.839  0.3204 -0.1971  0.4701
   49GLOH   H01 8866   7.166   8.833   9.866 -2.1332 -0.2117  0.5374
   50GLOH   H03 8867   3.287   5.828   6.455 -1.2309  2.1468  1.1760
   50GLOH    O1 8868   3.374   5.812   6.500 -0.5982 -0.1467  0.1680
   50GLOH    C1 8869   3.417   5.676   6.490  0.2424  0.1601 -0.0530
   50GLOH   H02 8870   3.479   5.655   6.401 -0.9566  2.4238 -1.9370
   50GLOH   H08 8871   3.330   5.613   6.477 -3.3793  0.5120 -0.8356
   50GLOH    C2 8872   3.486   5.629   6.623 -0.7484  0.0258  0.2357
   50GLOH   H04 8873   3.419   5.650   6.707  0.2699  1.4747  0.5623
   50GLOH    O2 8874   3.514   5.487   6.639 -0.1880 -0.3535 -0.2580
   50GLOH   H05 8875   3.425   5.445   6.669  2.2458 -1.8459 -0.7401
   50GLOH    C3 8876   3.613   5.707   6.643 -1.0361 -0.1208  0.7749
   50GLOH   H06 8877   3.661   5.680   6.738  0.7649  0.1867 -1.9464
   50GLOH   H07 8878   3.586   5.812   6.641  0.4785  0.4092 -1.4747
   50GLOH    O3 8879   3.711   5.684   6.533 -0.6791  0.8492  0.2243
   50GLOH   H01 8880   3.765   5.605   6.552 -0.9152 -0.2903 -0.2415
   51GLOH   H03 8881   4.523   2.321   4.364 -2.3232  1.1416  0.0298
   51GLOH    O1 8882   4.461   2.319   4.285 -0.4745  0.6376  0.4696
   51GLOH    C1 8883   4.342   2.273   4.352  0.3071  0.3201 -0.1038
   51GLOH   H02 8884   4.361   2.207   4.435 -1.1930  2.3816 -1.2404
   51GLOH   H08 8885   4.281   2.216   4.276 -0.7861  1.1724 -2.0391
   51GLOH    C2 8886   4.263   2.395   4.407 -0.3072 -0.7241  0.2372
   51GLOH   H04 8887   4.179   2.359   4.472  0.1167 -1.0154  0.9132
   51GLOH    O2 8888   4.343   2.480   4.492  0.2274  0.6220 -0.1783
   51GLOH   H05 8889   4.303   2.574   4.492 -1.3588  2.3549  0.0966
   51GLOH    C3 8890   4.204   2.478   4.285 -0.5525  0.9792  0.2945
   51GLOH   H06 8891   4.296   2.499   4.223 -0.4610 -0.4858 -1.6484
   51GLOH   H07 8892   4.161   2.575   4.323 -0.6730 -1.7533 -0.1764
   51GLOH    O3 8893   4.111   2.396   4.211  0.1150 -0.2206 -0.1986
   51GLOH   H01 8894   4.032   2.395   4.271  0.8294 -1.8348  0.5028
   52GLOH   H03 8895   5.171   5.435   0.562  0.7770 -1.5571 -0.0932
   52GLOH    O1 8896   5.201   5.345   0.599 -0.2715 -0.5252  0.2435
   52GLOH    C1 8897   5.345   5.350   0.607  0.1885  0.4580 -0.4206
   52GLOH   H02 8898   5.379   5.272   0.683  4.3005 -2.6219 -0.5724
   52GLOH   H08 8899   5.375   5.441   0.654 -1.9882  1.2111 -0.2447
   52GLOH    C2 8900   5.424   5.336   0.474 -0.6471 -0.0215  0.2200
   52GLOH   H04 8901   5.531   5.346   0.497 -3.0871  0.6854 -0.4066
   52GLOH    O2 8902   5.406   5.209   0.413  0.0085 -0.4522 -0.3971
   52GLOH   H05 8903   5.483   5.155   0.452 -0.8379 -0.1025  1.5193
   52GLOH    C3 8904   5.383   5.443   0.376  0.4530 -0.1854 -0.1359
   52GLOH   H06 8905   5.280   5.419   0.333  1.3854 -0.4187 -2.8866
   52GLOH   H07 8906   5.456   5.436   0.297  1.7821  0.9054  0.7714
   52GLOH    O3 8907   5.391   5.578   0.418 -0.6263  0.5026  0.2709
   52GLOH   H01 8908   5.484   5.589   0.454  0.3461 -1.8686 -0.0296
   53GLOH   H03 8909   9.384   7.947   4.282  0.1576 -3.8568  0.0506
   53GLOH    O1 8910   9.458   7.901   4.326  0.0231 -0.2667 -0.0389
   53GLOH    C1 8911   9.436   7.920   4.468 -0.3251 -0.3295 -0.0632
   53GLOH   H02 8912   9.449   8.015   4.504 -0.9085 -0.0807 -3.8098
   53GLOH   H08 8913   9.523   7.869   4.516  1.1069  1.6022 -4.5712
   53GLOH    C2 8914   9.306   7.858   4.519  0.6318  0.6261  0.5203
   53GLOH   H04 8915   9.305   7.753   4.486  0.4355 -0.3161 -1.2700
   53GLOH    O2 8916   9.306   7.849   4.666  0.0392 -0.1692 -0.2864
   53GLOH   H05 8917   9.221   7.837   4.703  2.2389 -0.2249 -2.6014
   53GLOH    C3 8918   9.179   7.931   4.471 -0.2457  0.3078 -0.3394
   53GLOH   H06 8919   9.085   7.905   4.520 -2.0797 -1.0926  0.7009
   53GLOH   H07 8920   9.165   7.899   4.368 -0.7813 -1.3477  0.9563
   53GLOH    O3 8921   9.207   8.069   4.480 -0.5427  0.3450 -0.1891
   53GLOH   H01 8922   9.177   8.099   4.572 -0.1616 -1.8209  1.8011
   54GLOH   H03 8923   2.318   7.147   5.045 -2.2953 -0.5906 -1.1505
   54GLOH    O1 8924   2.272   7.125   5.130  0.2698  0.0238  0.2621
   54GLOH    C1 8925   2.321   7.212   5.239  0.1137 -0.1450 -0.5084
   54GLOH   H02 8926   2.268   7.193   5.330  0.8142  0.4336  0.8250
   54GLOH   H08 8927   2.292   7.310   5.204  1.3615 -0.7855 -2.2101
   54GLOH    C2 8928   2.474   7.217   5.252 -0.2616 -0.1963 -0.1754
   54GLOH   H04 8929   2.516   7.277   5.176 -1.3581 -0.2984  0.6803
   54GLOH    O2 8930   2.510   7.276   5.382 -0.5377  0.2060 -0.3757
   54GLOH   H05 8931   2.607   7.266   5.407  0.4773 -2.3331 -1.1085
   54GLOH    C3 8932   2.540   7.076   5.246  0.1453 -0.5547  0.2698
   54GLOH   H06 8933   2.643   7.095   5.270 -1.1678  1.3413 -0.8110
   54GLOH   H07 8934   2.537   7.045   5.143 -0.0587  0.8015  0.0948
   54GLOH    O3 8935   2.497   6.978   5.333  0.5450 -0.6100 -0.3780
   54GLOH   H01 8936   2.516   7.009   5.425  0.0540 -0.2173  0.2917
   55GLOH   H03 8937   1.448   8.845   0.075  2.4216 -2.3845 -0.9458
   55GLOH    O1 8938   1.537   8.892   0.076  0.2041  0.5627 -0.2891
   55GLOH    C1 8939   1.547   8.977  -0.037  0.1800  0.1139 -0.6224
   55GLOH   H02 8940   1.495   8.923  -0.116 -2.2526  0.3576  0.3236
   55GLOH   H08 8941   1.651   8.986  -0.054  0.1040  0.5474 -0.7335
   55GLOH    C2 8942   1.474   9.114  -0.009 -0.5863  0.6666 -0.0804
   55GLOH   H04 8943   1.502   9.180  -0.097 -0.8803 -1.2193  1.9277
   55GLOH    O2 8944   1.333   9.099  -0.013 -0.2105  0.2210  0.8589
   55GLOH   H05 8945   1.308   9.008   0.020  0.6036 -2.6850  0.1775
   55GLOH    C3 8946   1.514   9.182   0.120 -0.9558 -0.2568 -0.0892
   55GLOH   H06 8947   1.476   9.126   0.197 -0.3631  1.5875 -0.5395
   55GLOH   H07 8948   1.469   9.278   0.133 -1.5034  0.6544  0.0577
   55GLOH    O3 8949   1.653   9.199   0.136 -0.4004 -0.3755  0.4505
   55GLOH   H01 8950   1.671   9.279   0.076  1.3250  2.1653  3.5820
   56GLOH   H03 8951   6.523   4.210   3.916 -2.3781 -1.4543  0.4351
   56GLOH    O1 8952   6.520   4.280   3.991 -0.3794  0.1400 -0.3043
   56GLOH    C1 8953   6.390   4.321   4.037  0.8983  0.5962  0.7847
   56GLOH   H02 8954   6.390   4.385   4.121  1.5487  0.1398  0.1308
   56GLOH   H08 8955   6.338   4.233   4.079 -0.4398  1.5261  2.3976
   56GLOH    C2 8956   6.307   4.374   3.913  1.1212  0.3334 -0.3799
   56GLOH   H04 8957   6.325   4.300   3.834  0.4217  2.4085 -2.7028
   56GLOH    O2 8958   6.170   4.389   3.950  0.0545  0.1081  0.2636
   56GLOH   H05 8959   6.150   4.465   4.013 -0.9102  0.0396 -1.0721
   56GLOH    C3 8960   6.369   4.506   3.875  0.6692 -0.4609 -0.3966
   56GLOH   H06 8961   6.474   4.494   3.837  1.5421  0.8059 -0.1137
   56GLOH   H07 8962   6.369   4.571   3.964  2.7276  0.4005 -2.2081
   56GLOH    O3 8963   6.292   4.566   3.774  0.0981 -0.1127 -0.0038
   56GLOH   H01 8964   6.354   4.614   3.713 -0.2693 -0.4713  1.7099
   57GLOH   H03 8965   1.594   6.339   2.826 -2.4456  0.2376 -0.5914
   57GLOH    O1 8966   1.655   6.417   2.835 -0.1575  0.0574 -0.1976
   57GLOH    C1 8967   1.633   6.520   2.730 -0.5005 -0.2011 -0.1290
   57GLOH   H02 8968   1.681   6.617   2.742 -1.7761 -1.0158 -0.6180
   57GLOH   H08 8969   1.529   6.550   2.723  0.1306 -1.2227 -0.3971
   57GLOH    C2 8970   1.670   6.461   2.592 -0.0010  0.7988  0.1794
   57GLOH   H04 8971   1.600   6.375   2.568  0.8671 -1.4775 -2.3645
   57GLOH    O2 8972   1.654   6.557   2.485  0.0994  0.1783 -0.2315
   57GLOH   H05 8973   1.664   6.518   2.394 -0.3175 -0.6087  0.1027
   57GLOH    C3 8974   1.818   6.414   2.594 -0.3119 -0.0975  0.6032
   57GLOH   H06 8975   1.861   6.389   2.694 -0.4833  1.2345 -1.0470
   57GLOH   H07 8976   1.876   6.509   2.568 -0.3762  1.8788 -0.0182
   57GLOH    O3 8977   1.838   6.305   2.499 -0.2076  0.0388  0.0695
   57GLOH   H01 8978   1.923   6.332   2.453 -0.1040 -0.7243 -1.4036
   58GLOH   H03 8979   3.955   5.334   2.010 -3.2002  0.2722 -1.0429
   58GLOH    O1 8980   4.035   5.313   1.955 -0.0134 -0.0963 -0.8354
   58GLOH    C1 8981   4.147   5.338   2.040  0.5869  0.4664 -0.1048
   58GLOH   H02 8982   4.126   5.333   2.141 -0.2907  1.8134 -0.6549
   58GLOH   H08 8983   4.178   5.442   2.027 -0.5189 -2.2035  0.2859
   58GLOH    C2 8984   4.259   5.236   2.016  0.0390  0.3940  0.2952
   58GLOH   H04 8985   4.289   5.262   1.918 -3.2992  1.2123  0.1010
   58GLOH    O2 8986   4.373   5.243   2.107 -0.0681  0.1965  0.1802
   58GLOH   H05 8987   4.414   5.159   2.079  1.0008  1.8734  0.7334
   58GLOH    C3 8988   4.210   5.092   1.997  0.6877 -0.2526  0.2118
   58GLOH   H06 8989   4.125   5.097   1.930  0.3722 -0.5264  0.7234
   58GLOH   H07 8990   4.176   5.058   2.093 -0.1592  0.8772  0.2382
   58GLOH    O3 8991   4.291   4.988   1.958  0.4079  0.2616 -0.1925
   58GLOH   H01 8992   4.226   4.914   1.947 -0.4916  1.7814 -0.8146
   59GLOH   H03 8993   5.036   8.789   2.123 -2.0667 -1.2702 -1.1802
   59GLOH    O1 8994   5.043   8.765   2.028 -0.6002  0.3619 -0.3247
   59GLOH    C1 8995   5.139   8.846   1.952 -0.2555  0.0873 -0.6870
   59GLOH   H02 8996   5.099   8.933   1.911  0.3570 -0.3887  2.3282
   59GLOH   H08 8997   5.173   8.782   1.865 -0.1138  0.7051 -0.4037
   59GLOH    C2 8998   5.250   8.895   2.045 -0.1402 -0.2137 -0.2734
   59GLOH   H04 8999   5.277   8.809   2.104 -1.1553 -0.0876  1.8181
   59GLOH    O2 9000   5.367   8.929   1.970  0.2127 -0.6520 -0.3031
   59GLOH   H05 9001   5.369   8.885   1.880  1.5525  1.9329  2.6954
   59GLOH    C3 9002   5.216   9.017   2.129 -0.1562 -0.6512 -0.0602
   59GLOH   H06 9003   5.171   9.092   2.057 -0.8195  1.3092  0.8356
   59GLOH   H07 9004   5.306   9.066   2.167 -1.8416 -0.4719  0.0878
   59GLOH    O3 9005   5.134   8.986   2.243 -0.3264  0.1481 -0.2304
   59GLOH   H01 9006   5.168   9.036   2.322  2.4081  0.1836  0.3512
   60GLOH   H03 9007   0.567   3.368   3.866  3.7086 -0.2295 -0.0531
   60GLOH    O1 9008   0.575   3.455   3.912 -0.9557  0.1061  0.2385
   60GLOH    C1 9009   0.558   3.568   3.821  0.6343 -0.1254 -0.5451
   60GLOH   H02 9010   0.467   3.564   3.758 -1.7537  0.3302 -2.4835
   60GLOH   H08 9011   0.644   3.563   3.748  0.7620 -0.5172  0.4935
   60GLOH    C2 9012   0.566   3.703   3.895  0.1366  0.7536 -0.2371
   60GLOH   H04 9013   0.587   3.682   4.002 -0.5183 -1.5465  0.8067
   60GLOH    O2 9014   0.676   3.776   3.848 -0.4785  0.1008  0.1516
   60GLOH   H05 9015   0.694   3.774   3.749  2.0648  0.6173 -0.6799
   60GLOH    C3 9016   0.436   3.780   3.896 -0.4505  0.4316 -0.1209
   60GLOH   H06 9017   0.423   3.841   3.805  0.0393 -0.3435  0.6548
   60GLOH   H07 9018   0.452   3.857   3.973 -0.0566 -4.5213  2.1225
   60GLOH    O3 9019   0.315   3.714   3.928  0.2191 -0.1213  0.4427
   60GLOH   H01 9020   0.321   3.683   4.023  0.1783  0.9807 -0.0023
   61GLOH   H03 9021   3.902   2.487   0.956  0.0972  0.5343  0.7629
   61GLOH    O1 9022   3.878   2.577   0.991  0.0512 -0.0042 -0.4704
   61GLOH    C1 9023   3.739   2.596   0.959  0.2119  0.3472  0.9309
   61GLOH   H02 9024   3.704   2.525   0.883  0.9488  0.1057  0.8329
   61GLOH   H08 9025   3.728   2.696   0.921  1.4489 -0.5232 -1.3580
   61GLOH    C2 9026   3.655   2.583   1.089  0.0452 -0.4606  0.3985
   61GLOH   H04 9027   3.690   2.661   1.158  0.2957 -1.9448 -1.5736
   61GLOH    O2 9028   3.511   2.600   1.071 -0.8291 -0.1646 -0.3221
   61GLOH   H05 9029   3.462   2.555   1.142 -0.3038  0.1398  0.8923
   61GLOH    C3 9030   3.690   2.452   1.168 -0.1365 -0.1761  0.0109
   61GLOH   H06 9031   3.624   2.442   1.255  1.6351 -0.1068  0.8657
   61GLOH   H07 9032   3.787   2.460   1.216 -2.5487  1.9725  0.1037
   61GLOH    O3 9033   3.685   2.334   1.089  0.1054  0.0709 -0.4368
   61GLOH   H01 9034   3.776   2.329   1.048  1.0912  0.7806  0.8624
   62GLOH   H03 9035   5.124   3.679   7.231  2.2588 -2.5446  2.7124
   62GLOH    O1 9036   5.157   3.659   7.321  0.1790 -0.0039  0.0269
   62GLOH    C1 9037   5.136   3.513   7.333 -0.2438 -0.5787 -0.2063
   62GLOH   H02 9038   5.219   3.467   7.287 -0.6927  0.7424 -0.5142
   62GLOH   H08 9039   5.046   3.487   7.276 -0.5778 -1.1111 -1.3807
   62GLOH    C2 9040   5.108   3.470   7.483 -0.2672  0.2976  0.2684
   62GLOH   H04 9041   5.014   3.515   7.524 -1.4866  1.4470  1.0807
   62GLOH    O2 9042   5.099   3.327   7.493 -0.5833  0.2739  0.0067
   62GLOH   H05 9043   5.073   3.294   7.405  2.3033  1.1232  0.9367
   62GLOH    C3 9044   5.216   3.517   7.573  0.8370 -0.1074 -0.3969
   62GLOH   H06 9045   5.304   3.462   7.550  0.6532  2.9158  0.7141
   62GLOH   H07 9046   5.195   3.494   7.671 -1.0289  3.3797 -2.6249
   62GLOH    O3 9047   5.256   3.656   7.565 -0.3230  0.0535  0.5473
   62GLOH   H01 9048   5.252   3.671   7.467  0.6790 -2.0884 -0.7599
   63GLOH   H03 9049   0.539   7.037   6.302  0.5736 -0.9334  0.1351
   63GLOH    O1 9050   0.616   7.101   6.302 -0.3304 -0.2942 -0.3981
   63GLOH    C1 9051   0.730   7.024   6.339 -0.2958  0.3852  0.0374
   63GLOH   H02 9052   0.702   6.947   6.406  0.3444 -0.7889 -2.9313
   63GLOH   H08 9053   0.811   7.079   6.384 -1.9313  0.7646  0.4230
   63GLOH    C2 9054   0.782   6.949   6.212  0.0946 -0.5956 -0.5662
   63GLOH   H04 9055   0.787   7.025   6.133 -2.4368 -1.7479  2.1046
   63GLOH    O2 9056   0.906   6.883   6.236 -0.0382  0.2046 -0.6944
   63GLOH   H05 9057   0.890   6.814   6.303  1.4820  1.0038  1.5210
   63GLOH    C3 9058   0.682   6.838   6.154  0.1024 -0.6162 -0.1424
   63GLOH   H06 9059   0.734   6.791   6.077 -1.6431 -2.3110  2.5678
   63GLOH   H07 9060   0.594   6.892   6.112  2.0412 -1.3932  0.9698
   63GLOH    O3 9061   0.631   6.744   6.250  0.1148  0.2912  0.1498
   63GLOH   H01 9062   0.532   6.741   6.247  2.5271  1.4812 -2.2380
   64GLOH   H03 9063   9.211   9.003   6.064 -3.9608 -0.6209  1.0845
   64GLOH    O1 9064   9.272   9.077   6.023  0.3748  0.2815 -0.0230
   64GLOH    C1 9065   9.336   9.166   6.116  0.3633 -0.1616  0.8103
   64GLOH   H02 9066   9.265   9.244   6.141  1.4933 -0.1792 -1.2322
   64GLOH   H08 9067   9.416   9.221   6.061  1.5937  1.9650 -0.6471
   64GLOH    C2 9068   9.392   9.098   6.242 -0.0322  0.0291 -0.4462
   64GLOH   H04 9069   9.305   9.037   6.286  0.8543 -2.0643 -0.7720
   64GLOH    O2 9070   9.496   9.008   6.203 -0.1542  0.3369  0.1263
   64GLOH   H05 9071   9.454   8.923   6.197 -0.2854  2.2609  0.6865
   64GLOH    C3 9072   9.441   9.200   6.344 -0.0135  0.6667  1.0941
   64GLOH   H06 9073   9.529   9.250   6.314  0.0796  0.7071  2.4075
   64GLOH   H07 9074   9.465   9.152   6.435 -4.2258 -1.6522 -1.2169
   64GLOH    O3 9075   9.337   9.299   6.373 -0.0932 -0.1631 -0.4523
   64GLOH   H01 9076   9.332   9.363   6.298 -0.1948  0.8518 -0.5935
   65GLOH   H03 9077   6.767   2.470   0.169  0.0734  0.8284 -0.7210
   65GLOH    O1 9078   6.768   2.558   0.220 -0.3757  0.1392 -0.2863
   65GLOH    C1 9079   6.898   2.615   0.232 -0.2139  0.3076 -0.5542
   65GLOH   H02 9080   6.901   2.716   0.268 -1.4701 -2.8128  2.5605
   65GLOH   H08 9081   6.955   2.620   0.135  2.0313  2.4723  0.3992
   65GLOH    C2 9082   6.988   2.538   0.330  0.3373  0.2556  0.3453
   65GLOH   H04 9083   6.998   2.430   0.300 -0.3592  0.9725 -0.5313
   65GLOH    O2 9084   7.117   2.609   0.337 -0.2466  0.0956  0.2995
   65GLOH   H05 9085   7.180   2.542   0.357  0.1247 -0.8604  1.0695
   65GLOH    C3 9086   6.916   2.527   0.466 -0.0296 -1.0011 -0.3201
   65GLOH   H06 9087   6.976   2.462   0.526  0.8102  0.9063 -0.2441
   65GLOH   H07 9088   6.822   2.469   0.453 -0.7739  1.7281 -0.5945
   65GLOH    O3 9089   6.879   2.652   0.529 -0.9615 -0.0847  0.0888
   65GLOH   H01 9090   6.946   2.686   0.591 -2.1396 -1.2032 -1.4197
   66GLOH   H03 9091   8.855   8.877   9.091 -5.1495 -2.6897  4.2387
   66GLOH    O1 9092   8.897   8.856   9.175 -0.5599  0.7450 -0.5459
   66GLOH    C1 9093   9.028   8.916   9.191 -0.8190  0.1234  0.1334
   66GLOH   H02 9094   9.105   8.863   9.135  1.1432  0.0771  0.4751
   66GLOH   H08 9095   9.053   8.926   9.297  0.4573 -4.9222  0.9669
   66GLOH    C2 9096   9.034   9.067   9.147 -0.1250 -0.5701  0.6347
   66GLOH   H04 9097   8.943   9.119   9.190 -0.7071  1.6595 -0.9589
   66GLOH    O2 9098   9.156   9.134   9.179 -0.0009 -0.0320  0.2414
   66GLOH   H05 9099   9.198   9.165   9.092 -0.6501  2.1022 -0.0401
   66GLOH    C3 9100   9.018   9.072   8.990 -0.2160 -0.7140 -0.3243
   66GLOH   H06 9101   9.103   9.016   8.944 -0.4716 -1.4001 -1.9252
   66GLOH   H07 9102   9.021   9.176   8.951  0.5988  0.3891  0.7772
   66GLOH    O3 9103   8.894   9.007   8.948 -0.1626  0.2715 -0.1101
   66GLOH   H01 9104   8.822   9.067   8.915 -1.7936  1.1597  2.6440
   67GLOH   H03 9105   3.790   0.734   9.470 -0.7377 -2.3414 -2.0363
   67GLOH    O1 9106   3.822   0.645   9.488  0.6255  0.0630 -0.7281
   67GLOH    C1 9107   3.955   0.644   9.431 -0.2545 -0.2321 -0.0553
   67GLOH   H02 9108   4.001   0.748   9.425 -0.5623  2.6683  1.1758
   67GLOH   H08 9109   3.950   0.602   9.328 -0.6224 -2.0422  2.0037
   67GLOH    C2 9110   4.038   0.544   9.517  0.3732  0.4815  0.1814
   67GLOH   H04 9111   4.138   0.533   9.469  0.9272 -2.8621 -1.1190
   67GLOH    O2 9112   4.066   0.593   9.651 -0.2774 -0.1782  0.0107
   67GLOH   H05 9113   4.100   0.523   9.710 -3.3641 -0.8721 -1.2332
   67GLOH    C3 9114   3.977   0.406   9.504 -0.1670 -0.0837 -0.3153
   67GLOH   H06 9115   3.869   0.415   9.527 -0.0074 -0.1001  1.0764
   67GLOH   H07 9116   4.023   0.346   9.585 -3.9678 -1.8748  0.2603
   67GLOH    O3 9117   3.993   0.344   9.378 -0.0564  0.1862  0.5295
   67GLOH   H01 9118   4.052   0.264   9.396 -1.0104  0.7605 -0.0206
   68GLOH   H03 9119   9.731   0.342   1.708  1.5954  0.3640  1.4273
   68GLOH    O1 9120   9.653   0.279   1.706 -0.3468 -0.3570  0.2408
   68GLOH    C1 9121   9.573   0.285   1.585  0.3358  0.3303 -0.6103
   68GLOH   H02 9122   9.568   0.385   1.552 -1.1173 -0.5873 -1.3593
   68GLOH   H08 9123   9.474   0.243   1.611  3.3654 -1.6230 -0.7756
   68GLOH    C2 9124   9.635   0.197   1.474 -0.3162  0.0820  0.0848
   68GLOH   H04 9125   9.644   0.093   1.514 -2.2153  1.2311 -0.2345
   68GLOH    O2 9126   9.547   0.182   1.357 -0.8852 -0.3013 -0.1738
   68GLOH   H05 9127   9.554   0.249   1.287 -0.1772 -0.0703  2.2654
   68GLOH    C3 9128   9.775   0.245   1.435  0.2509 -0.6874 -0.2875
   68GLOH   H06 9129   9.812   0.173   1.377 -2.0406  1.3965 -0.0124
   68GLOH   H07 9130   9.832   0.239   1.526  1.1148  0.7096 -0.1356
   68GLOH    O3 9131   9.778   0.377   1.370 -0.3927  0.5489  0.3847
   68GLOH   H01 9132   9.853   0.377   1.306 -2.0313  1.7510 -0.2441
   69GLOH   H03 9133   0.013   4.286   5.280 -1.8407  1.0477  2.0313
   69GLOH    O1 9134   0.108   4.309   5.271 -0.1057  0.3539  0.7723
   69GLOH    C1 9135   0.105   4.445   5.227 -0.3682 -0.8750  0.9440
   69GLOH   H02 9136   0.038   4.506   5.282 -0.6143  2.2289  0.5198
   69GLOH   H08 9137   0.060   4.432   5.134 -0.3090  0.6042  1.6221
   69GLOH    C2 9138   0.250   4.506   5.211  0.0159 -0.3070 -0.8023
   69GLOH   H04 9139   0.308   4.442   5.146 -0.7797 -0.3038  0.5554
   69GLOH    O2 9140   0.240   4.645   5.158 -1.0428 -0.2927  0.0981
   69GLOH   H05 9141   0.325   4.671   5.126 -2.7996  0.6232 -0.2339
   69GLOH    C3 9142   0.326   4.505   5.349  0.4005 -0.1039  0.5676
   69GLOH   H06 9143   0.369   4.405   5.355 -0.1950 -0.4216 -0.2137
   69GLOH   H07 9144   0.260   4.512   5.431  1.6340  2.0392 -0.4541
   69GLOH    O3 9145   0.436   4.599   5.352  0.1967  0.0096  0.4876
   69GLOH   H01 9146   0.409   4.660   5.425 -0.8618 -1.0474  0.9051
   70GLOH   H03 9147   5.279   2.435   3.911 -1.4420  0.1351 -0.6599
   70GLOH    O1 9148   5.202   2.461   3.969 -0.4646  0.0596  0.0798
   70GLOH    C1 9149   5.197   2.603   3.978  0.3287 -0.4969  0.5096
   70GLOH   H02 9150   5.179   2.644   3.878  2.5651 -3.3773  0.6671
   70GLOH   H08 9151   5.297   2.642   4.013  0.8332  1.5909 -0.4871
   70GLOH    C2 9152   5.078   2.643   4.065  0.4703  0.2086  0.2598
   70GLOH   H04 9153   5.086   2.597   4.168 -0.0679  3.0144 -0.5977
   70GLOH    O2 9154   5.066   2.786   4.074 -0.6811  0.2642  0.2455
   70GLOH   H05 9155   5.008   2.800   4.152  3.0340  1.1609  1.8667
   70GLOH    C3 9156   4.948   2.579   4.001  0.3478 -0.1163  0.1359
   70GLOH   H06 9157   4.958   2.592   3.893  2.7423  1.0136 -2.1500
   70GLOH   H07 9158   4.862   2.629   4.043 -0.0369 -2.5141  1.1681
   70GLOH    O3 9159   4.941   2.436   4.034  0.1789  0.0682 -0.7001
   70GLOH   H01 9160   5.022   2.392   3.998 -1.8198 -0.1062  1.3985
   71GLOH   H03 9161   3.320   9.082   1.210  0.8686  0.7194  1.3898
   71GLOH    O1 9162   3.360   9.124   1.293 -0.7010  0.4851 -0.6973
   71GLOH    C1 9163   3.281   9.083   1.402 -0.2288 -0.6454 -0.7398
   71GLOH   H02 9164   3.175   9.114   1.391  0.6495 -0.1821 -0.1226
   71GLOH   H08 9165   3.321   9.144   1.480  3.0255  1.4411 -0.3287
   71GLOH    C2 9166   3.320   8.935   1.431 -0.7270 -0.5877 -0.1144
   71GLOH   H04 9167   3.337   8.887   1.327  0.6314  0.8684 -0.4279
   71GLOH    O2 9168   3.446   8.923   1.508  0.7468 -0.5892 -0.3134
   71GLOH   H05 9169   3.453   9.001   1.574  1.4702 -0.3561  2.4269
   71GLOH    C3 9170   3.213   8.856   1.512 -0.2040  0.5983 -0.1077
   71GLOH   H06 9171   3.201   8.913   1.604  0.4017  1.5426  0.2203
   71GLOH   H07 9172   3.248   8.759   1.540 -1.9940  1.1008 -0.0908
   71GLOH    O3 9173   3.094   8.852   1.443  0.0885  0.4038  0.3653
   71GLOH   H01 9174   3.078   8.756   1.411 -2.9205 -0.4326 -0.4880
   72GLOH   H03 9175   7.899   2.974   3.942  0.5781 -0.6896  1.3344
   72GLOH    O1 9176   7.798   2.971   3.959  0.0625 -0.6926  0.1692
   72GLOH    C1 9177   7.780   2.974   4.103  0.3906  0.3903 -0.0059
   72GLOH   H02 9178   7.844   2.900   4.148  0.8175 -1.1137 -2.0387
   72GLOH   H08 9179   7.678   2.945   4.127 -0.8196 -1.9803 -0.7587
   72GLOH    C2 9180   7.803   3.114   4.158  0.2907 -0.1785  0.9794
   72GLOH   H04 9181   7.790   3.101   4.270  1.1346 -1.2666  3.7925
   72GLOH    O2 9182   7.933   3.161   4.117 -0.7850 -0.1378 -0.4361
   72GLOH   H05 9183   7.995   3.097   4.160  1.2453  1.2661  0.4966
   72GLOH    C3 9184   7.684   3.213   4.124 -0.1004 -0.4422 -0.2842
   72GLOH   H06 9185   7.593   3.155   4.133 -1.1857 -2.6954  3.3553
   72GLOH   H07 9186   7.687   3.252   4.026 -1.6694 -0.6693  1.5353
   72GLOH    O3 9187   7.665   3.322   4.210  0.8628  0.3501  0.4316
   72GLOH   H01 9188   7.754   3.360   4.228 -1.7762 -0.0970  1.0206
   73GLOH   H03 9189   9.291   3.106   2.637 -1.1531 -0.0595  2.5981
   73GLOH    O1 9190   9.391   3.099   2.639 -0.8196 -0.5904  0.3083
   73GLOH    C1 9191   9.421   2.973   2.569  0.1572  0.2802  0.7501
   73GLOH   H02 9192   9.526   2.956   2.588 -1.1262 -0.2471  0.4270
   73GLOH   H08 9193   9.404   2.993   2.460  1.7494 -0.9656  1.9992
   73GLOH    C2 9194   9.336   2.855   2.619 -0.4128 -0.2906  0.2343
   73GLOH   H04 9195   9.238   2.880   2.649 -0.0982 -5.1466 -0.5072
   73GLOH    O2 9196   9.339   2.748   2.527 -0.6145  0.5428 -0.2054
   73GLOH   H05 9197   9.283   2.778   2.451  0.7460  1.2211 -2.8249
   73GLOH    C3 9198   9.417   2.817   2.749  0.4670 -0.8920 -0.3387
   73GLOH   H06 9199   9.403   2.919   2.798 -2.0921  0.5298  0.0610
   73GLOH   H07 9200   9.524   2.797   2.726  0.8741 -2.4685 -0.9424
   73GLOH    O3 9201   9.360   2.710   2.823 -0.0537 -0.1264  0.7488
   73GLOH   H01 9202   9.425   2.688   2.897  0.1465  1.5879  1.2436
   74GLOH   H03 9203   5.908   9.876   7.604 -0.0802 -0.6303  2.0471
   74GLOH    O1 9204   5.991   9.866   7.655 -0.2268  0.3090  0.3330
   74GLOH    C1 9205   5.984   9.899   7.792  0.0287  0.3570 -0.1137
   74GLOH   H02 9206   5.944   9.818   7.854  1.3319 -0.2766  1.0638
   74GLOH   H08 9207   5.916   9.976   7.804  0.2067 -1.0163 -2.6809
   74GLOH    C2 9208   6.122   9.921   7.851 -0.3657 -0.3576 -0.1634
   74GLOH   H04 9209   6.175   9.822   7.841 -1.6404  0.5917 -0.3836
   74GLOH    O2 9210   6.191  10.023   7.772  0.4374 -0.1774 -0.1768
   74GLOH   H05 9211   6.129  10.089   7.731  0.2996 -2.0842  0.0273
   74GLOH    C3 9212   6.118   9.958   7.999 -0.5344  0.8507 -0.2638
   74GLOH   H06 9213   6.093  10.062   8.021 -2.0298 -0.3876  1.9548
   74GLOH   H07 9214   6.217   9.954   8.032 -0.2582 -1.9904 -1.1706
   74GLOH    O3 9215   6.033   9.872   8.071 -0.3073  0.3076 -0.3778
   74GLOH   H01 9216   6.001   9.911   8.157 -1.0783 -2.4508  0.4581
   75GLOH   H03 9217   1.093   9.140   5.142  0.3647 -2.7177 -0.5619
   75GLOH    O1 9218   1.168   9.078   5.150  0.5423  0.1801  0.1636
   75GLOH    C1 9219   1.270   9.137   5.235 -0.6998 -0.4226 -0.4024
   75GLOH   H02 9220   1.299   9.234   5.192 -0.3552 -0.4015 -0.5760
   75GLOH   H08 9221   1.363   9.082   5.237  0.6954 -2.2114 -1.0188
   75GLOH    C2 9222   1.230   9.153   5.381 -0.3958  0.3985  0.1724
   75GLOH   H04 9223   1.317   9.184   5.444 -1.9274 -2.6682 -1.4080
   75GLOH    O2 9224   1.119   9.239   5.403 -0.4080  0.5315  0.8955
   75GLOH   H05 9225   1.037   9.195   5.361  2.5789  0.8444 -0.6472
   75GLOH    C3 9226   1.185   9.016   5.432 -0.1416 -0.5086  0.4396
   75GLOH   H06 9227   1.094   8.987   5.380  0.5614  0.8588 -1.9490
   75GLOH   H07 9228   1.167   9.029   5.540  0.8846 -0.6090  0.5804
   75GLOH    O3 9229   1.265   8.906   5.399 -0.6757 -0.3023 -0.2960
   75GLOH   H01 9230   1.309   8.900   5.488  1.8714  1.2761  0.9586
   76GLOH   H03 9231   8.083   8.488   7.799  1.2762 -0.3226  1.4433
   76GLOH    O1 9232   8.176   8.503   7.772  0.0842 -0.1353  0.1206
   76GLOH    C1 9233   8.262   8.394   7.813 -0.2688 -0.3384  0.6573
   76GLOH   H02 9234   8.349   8.397   7.755 -1.1789  0.0290 -2.2708
   76GLOH   H08 9235   8.210   8.304   7.793  2.0256  2.2435  2.3207
   76GLOH    C2 9236   8.293   8.393   7.961 -0.4331 -0.1733 -0.4226
   76GLOH   H04 9237   8.196   8.391   8.010 -0.0159  1.5987 -0.3955
   76GLOH    O2 9238   8.352   8.265   7.991  0.3046 -0.2413  0.0784
   76GLOH   H05 9239   8.402   8.265   8.068 -0.7033  0.2561  1.4312
   76GLOH    C3 9240   8.376   8.514   8.007  0.4888 -0.2174 -0.1866
   76GLOH   H06 9241   8.294   8.588   8.010  1.3545 -0.4698 -2.0128
   76GLOH   H07 9242   8.448   8.537   7.932 -1.2489  0.3870  0.3312
   76GLOH    O3 9243   8.428   8.510   8.135  0.1913  0.8005  0.2714
   76GLOH   H01 9244   8.439   8.600   8.160 -0.0001 -0.1465 -3.5305
   77GLOH   H03 9245   9.648   3.048   1.890  1.2785 -0.5057 -0.0815
   77GLOH    O1 9246   9.633   3.084   1.797 -0.4217 -0.2470  0.0619
   77GLOH    C1 9247   9.499   3.145   1.778 -0.2997 -0.5384 -0.2475
   77GLOH   H02 9248   9.509   3.251   1.806  0.1992  2.0062  0.2988
   77GLOH   H08 9249   9.426   3.100   1.836 -0.1281  1.3615 -0.9530
   77GLOH    C2 9250   9.448   3.135   1.630  0.8929 -0.1008  0.5203
   77GLOH   H04 9251   9.440   3.032   1.606 -1.0482  0.9084 -1.0471
   77GLOH    O2 9252   9.317   3.191   1.607 -0.6924  0.1994  0.4869
   77GLOH   H05 9253   9.250   3.118   1.629 -0.4785  0.1575  0.6797
   77GLOH    C3 9254   9.557   3.187   1.545 -0.4932  0.6904  0.3803
   77GLOH   H06 9255   9.653   3.162   1.588  1.0097  0.6794 -2.5376
   77GLOH   H07 9256   9.553   3.293   1.544 -0.1171 -1.7369 -0.4696
   77GLOH    O3 9257   9.557   3.147   1.410 -0.0154  0.3984  0.3193
   77GLOH   H01 9258   9.463   3.150   1.380  1.9742  0.8023 -0.0172
   78GLOH   H03 9259   7.933   3.233   3.497 -0.1125  1.8233  0.2852
   78GLOH    O1 9260   7.890   3.284   3.573 -0.2335 -0.2887 -0.3185
   78GLOH    C1 9261   7.749   3.280   3.560  1.6097  0.4448  0.2134
   78GLOH   H02 9262   7.729   3.211   3.478 -0.8807  1.5844 -1.2448
   78GLOH   H08 9263   7.719   3.384   3.526  1.3095 -2.1845 -1.4283
   78GLOH    C2 9264   7.668   3.224   3.674  0.1875 -0.5312 -0.2244
   78GLOH   H04 9265   7.729   3.241   3.770  0.2386 -2.8283 -1.6516
   78GLOH    O2 9266   7.543   3.297   3.695 -0.8621 -0.1073  0.2100
   78GLOH   H05 9267   7.492   3.284   3.608 -0.4445  1.8689  0.3263
   78GLOH    C3 9268   7.641   3.073   3.667 -0.6186  0.0012  0.0034
   78GLOH   H06 9269   7.586   3.053   3.580  0.3127 -3.3814  1.0937
   78GLOH   H07 9270   7.589   3.042   3.753 -0.8975 -1.5557 -1.6229
   78GLOH    O3 9271   7.755   2.986   3.671 -0.7332  0.2141 -0.5080
   78GLOH   H01 9272   7.756   2.954   3.767 -0.1496 -0.4014  1.0042
   79GLOH   H03 9273   6.180   1.092   7.201 -1.1989 -2.4572 -0.7240
   79GLOH    O1 9274   6.164   1.014   7.260 -0.0106 -0.0680 -0.7687
   79GLOH    C1 9275   6.269   1.012   7.361 -0.7043 -0.3935  1.0530
   79GLOH   H02 9276   6.323   0.919   7.337 -0.8464  0.0267  0.8024
   79GLOH   H08 9277   6.234   0.993   7.465  0.5763 -1.9300  1.8465
   79GLOH    C2 9278   6.362   1.133   7.357  0.6368  0.2981 -0.1803
   79GLOH   H04 9279   6.308   1.217   7.399  2.2877 -2.5346  1.0410
   79GLOH    O2 9280   6.472   1.117   7.445  0.2358  0.0286 -0.2823
   79GLOH   H05 9281   6.519   1.037   7.423 -1.7767 -0.7241  3.1407
   79GLOH    C3 9282   6.423   1.158   7.217 -0.1814 -0.0528  0.6162
   79GLOH   H06 9283   6.489   1.073   7.198 -2.4265 -1.1464  2.4259
   79GLOH   H07 9284   6.485   1.247   7.213  1.2656  2.3496 -0.1495
   79GLOH    O3 9285   6.314   1.163   7.126  0.3334 -0.2903  0.3047
   79GLOH   H01 9286   6.337   1.124   7.039  1.3680 -0.6842  0.2243
   80GLOH   H03 9287   1.123   3.008   7.137 -0.8986 -2.5615 -1.5020
   80GLOH    O1 9288   1.178   2.983   7.214 -0.2610  0.0231  0.1067
   80GLOH    C1 9289   1.105   2.971   7.338 -0.2076 -0.3464  0.0115
   80GLOH   H02 9290   1.100   2.863   7.372 -0.4666 -1.7496  3.0298
   80GLOH   H08 9291   1.006   3.010   7.327  1.5383 -1.6600  1.9754
   80GLOH    C2 9292   1.178   3.043   7.451  0.0593  0.2305 -1.1595
   80GLOH   H04 9293   1.286   3.021   7.433 -1.8301 -0.8361 -1.1028
   80GLOH    O2 9294   1.170   3.188   7.441 -0.3555 -0.4204 -0.0921
   80GLOH   H05 9295   1.203   3.242   7.524  2.2269  1.4569 -0.9682
   80GLOH    C3 9296   1.154   2.982   7.587  0.6573  0.1503  0.0595
   80GLOH   H06 9297   1.200   3.044   7.664  0.9448 -1.4643 -0.4291
   80GLOH   H07 9298   1.197   2.882   7.603 -0.9163  1.3820  0.0630
   80GLOH    O3 9299   1.006   2.978   7.609 -0.7100  0.3471 -0.6424
   80GLOH   H01 9300   0.982   3.066   7.646  0.3213 -0.4349 -1.4159
   81GLOH   H03 9301   7.655   0.505   7.007 -0.5501  0.5944  1.0361
   81GLOH    O1 9302   7.667   0.410   7.038  0.1396 -0.2554  0.2292
   81GLOH    C1 9303   7.696   0.428   7.181 -0.1298  0.0453  0.2349
   81GLOH   H02 9304   7.610   0.479   7.229  0.7207  2.0976  3.5019
   81GLOH   H08 9305   7.779   0.497   7.189 -0.3637  0.2204  0.3245
   81GLOH    C2 9306   7.732   0.297   7.253  0.3156 -0.2601 -0.0681
   81GLOH   H04 9307   7.833   0.266   7.230  1.0891  2.2792  1.1661
   81GLOH    O2 9308   7.730   0.320   7.397 -0.2461  0.6760 -0.3646
   81GLOH   H05 9309   7.807   0.274   7.437  0.8413  1.0322 -3.0749
   81GLOH    C3 9310   7.637   0.184   7.217  0.4495  0.3620  0.5461
   81GLOH   H06 9311   7.541   0.216   7.252  0.1359 -1.8261 -3.2688
   81GLOH   H07 9312   7.659   0.095   7.280 -2.2890  0.0565 -1.0752
   81GLOH    O3 9313   7.617   0.151   7.078  0.2794  0.3310 -0.8647
   81GLOH   H01 9314   7.637   0.237   7.032  1.1394  0.4575  0.9370
   82GLOH   H03 9315   2.390   9.892   3.437  0.8519  0.1950 -2.0329
   82GLOH    O1 9316   2.426   9.811   3.388  0.3409 -0.5276  0.6473
   82GLOH    C1 9317   2.406   9.690   3.464  0.4448  0.3556 -0.6743
   82GLOH   H02 9318   2.304   9.684   3.501  0.1379  2.0587 -1.6441
   82GLOH   H08 9319   2.462   9.694   3.551 -1.5843 -3.3162 -0.7427
   82GLOH    C2 9320   2.455   9.569   3.398  0.0193 -0.3100 -0.1454
   82GLOH   H04 9321   2.563   9.585   3.401 -0.9217  0.5140 -0.3589
   82GLOH    O2 9322   2.419   9.457   3.482 -0.5622 -0.2972 -0.4775
   82GLOH   H05 9323   2.499   9.393   3.489  1.1157 -1.2714 -1.1727
   82GLOH    C3 9324   2.396   9.552   3.256  0.4247  0.7462  0.1863
   82GLOH   H06 9325   2.285   9.528   3.266  0.0308 -0.4804  0.7527
   82GLOH   H07 9326   2.447   9.461   3.209 -0.4429 -0.4403 -1.3052
   82GLOH    O3 9327   2.418   9.671   3.179  0.2733  0.2750 -0.0326
   82GLOH   H01 9328   2.431   9.741   3.255 -1.3726  0.4097  3.6826
   83GLOH   H03 9329   5.989   8.752   4.297  4.4136 -1.2338  0.2436
   83GLOH    O1 9330   6.012   8.673   4.342  0.0715 -0.2882 -0.0862
   83GLOH    C1 9331   6.035   8.715   4.476 -0.0491 -0.3423  0.6033
   83GLOH   H02 9332   6.126   8.776   4.481 -2.1677  0.7546  0.2709
   83GLOH   H08 9333   6.059   8.630   4.538 -0.1678  1.1258  0.1595
   83GLOH    C2 9334   5.919   8.802   4.536  1.0351 -0.0224 -0.2008
   83GLOH   H04 9335   5.831   8.744   4.509  1.3132 -1.2180 -0.0769
   83GLOH    O2 9336   5.933   8.820   4.676  0.2700  0.1844  0.2990
   83GLOH   H05 9337   6.024   8.855   4.679 -1.9695 -1.8133  0.0195
   83GLOH    C3 9338   5.915   8.943   4.470  0.6759 -0.2240 -0.8121
   83GLOH   H06 9339   5.827   8.988   4.518 -0.9686  1.5945 -0.3450
   83GLOH   H07 9340   5.887   8.923   4.368 -1.3216  1.4832  1.3802
   83GLOH    O3 9341   6.029   9.025   4.487  0.1879  0.0845 -0.4758
   83GLOH   H01 9342   6.084   8.992   4.561  0.8938  2.0793 -2.6478
   84GLOH   H03 9343   6.730   2.942   9.885  2.9870  0.5738 -0.7761
   84GLOH    O1 9344   6.732   2.951   9.789  0.2230 -0.1646 -0.4448
   84GLOH    C1 9345   6.710   2.817   9.740 -0.1112 -0.2722 -0.2419
   84GLOH   H02 9346   6.732   2.814   9.630  2.3905 -0.2951 -2.2387
   84GLOH   H08 9347   6.605   2.788   9.755 -0.5589  2.0787 -1.4625
   84GLOH    C2 9348   6.803   2.708   9.804  0.9771 -0.2659 -0.4821
   84GLOH   H04 9349   6.775   2.703   9.915 -0.7768 -1.8303  1.7978
   84GLOH    O2 9350   6.784   2.578   9.738 -0.2580 -0.3585 -0.4412
   84GLOH   H05 9351   6.703   2.545   9.776  1.0883  1.1710  0.1508
   84GLOH    C3 9352   6.947   2.762   9.785  0.2519 -0.5284 -0.3287
   84GLOH   H06 9353   6.963   2.786   9.683  1.8887  1.8477  4.2112
   84GLOH   H07 9354   7.021   2.681   9.802  0.0163 -1.3653 -2.0012
   84GLOH    O3 9355   6.973   2.870   9.879  0.0803 -0.0173 -0.0711
   84GLOH   H01 9356   6.891   2.901   9.925 -1.7315  2.8776  1.6871
   85GLOH   H03 9357   1.482   0.010   3.066 -1.0311 -2.0969  3.6632
   85GLOH    O1 9358   1.415  -0.063   3.057 -0.4164 -0.0544 -0.2502
   85GLOH    C1 9359   1.287  -0.004   3.046  0.0800  0.1699  0.3164
   85GLOH   H02 9360   1.276   0.047   2.959 -1.1139  0.5227 -3.0530
   85GLOH   H08 9361   1.274   0.064   3.129 -2.3731  3.1368  1.7019
   85GLOH    C2 9362   1.168  -0.109   3.059 -0.2787 -1.1428  0.5976
   85GLOH   H04 9363   1.183  -0.179   3.140 -0.3130 -1.3207 -0.3330
   85GLOH    O2 9364   1.036  -0.058   3.072  0.1619  0.5240  0.1880
   85GLOH   H05 9365   1.032  -0.021   3.167  0.3001  0.9325  1.4369
   85GLOH    C3 9366   1.164  -0.187   2.927  0.7458 -0.2779  1.0077
   85GLOH   H06 9367   1.147  -0.122   2.841 -2.6087 -0.3775 -1.2730
   85GLOH   H07 9368   1.080  -0.259   2.930 -3.3069 -0.7370 -1.9045
   85GLOH    O3 9369   1.286  -0.260   2.903  0.0720  0.3429  0.5523
   85GLOH   H01 9370   1.351  -0.190   2.922  0.7699  2.6858 -0.7372
   86GLOH   H03 9371   1.352   4.710   9.938  0.2913  1.3113  0.6280
   86GLOH    O1 9372   1.393   4.706  10.032 -0.8360  0.4196  0.6077
   86GLOH    C1 9373   1.516   4.761  10.009 -0.1448 -0.3282  0.1419
   86GLOH   H02 9374   1.506   4.854   9.949  0.9667  0.6950 -2.8078
   86GLOH   H08 9375   1.581   4.693   9.955  1.6719  1.1398  0.4741
   86GLOH    C2 9376   1.578   4.814  10.140 -0.8503  0.8011 -0.1013
   86GLOH   H04 9377   1.498   4.857  10.189  3.3414 -0.3178 -5.8504
   86GLOH    O2 9378   1.627   4.702  10.222 -0.5171 -0.0062 -0.2425
   86GLOH   H05 9379   1.627   4.725  10.313  1.5505 -0.1179 -1.6151
   86GLOH    C3 9380   1.682   4.923  10.106 -0.3021 -0.7277 -0.2160
   86GLOH   H06 9381   1.749   4.891  10.024  1.8410  0.1206 -1.0266
   86GLOH   H07 9382   1.740   4.922  10.193  0.2371 -1.6318  1.3831
   86GLOH    O3 9383   1.619   5.052  10.081 -0.0700  0.1616 -0.3714
   86GLOH   H01 9384   1.674   5.098  10.011  0.3494  4.2028 -2.4926
   87GLOH   H03 9385   8.650   7.548   4.443 -1.7899 -0.8233 -0.4295
   87GLOH    O1 9386   8.662   7.616   4.514  0.0797  0.7820  0.1376
   87GLOH    C1 9387   8.796   7.611   4.562  0.4822  1.3817 -0.3400
   87GLOH   H02 9388   8.804   7.520   4.631  0.4095 -0.7635  0.2936
   87GLOH   H08 9389   8.802   7.693   4.624 -1.3235 -0.1778 -0.8610
   87GLOH    C2 9390   8.896   7.607   4.446  0.5933 -1.1027  0.3130
   87GLOH   H04 9391   8.854   7.531   4.383 -2.9444  3.3568  0.1293
   87GLOH    O2 9392   8.900   7.736   4.377  0.2968  0.0445  0.3218
   87GLOH   H05 9393   8.813   7.773   4.367  1.0718 -0.0599  3.6682
   87GLOH    C3 9394   9.030   7.554   4.497 -0.6025  0.0417  0.2639
   87GLOH   H06 9395   9.074   7.622   4.563  0.0762  0.2680  0.2873
   87GLOH   H07 9396   9.108   7.548   4.417  0.0870 -1.1138  1.1886
   87GLOH    O3 9397   9.013   7.423   4.559 -0.0671 -0.0225  0.6665
   87GLOH   H01 9398   9.101   7.380   4.560  1.1057  0.9197  1.5628
   88GLOH   H03 9399   3.183   5.698   9.330 -0.5199 -2.0903 -1.4886
   88GLOH    O1 9400   3.231   5.620   9.299 -0.4855  0.6935  0.0189
   88GLOH    C1 9401   3.297   5.658   9.175 -1.2147 -0.3239 -1.4336
   88GLOH   H02 9402   3.407   5.669   9.198 -0.5226 -0.0738  1.6166
   88GLOH   H08 9403   3.267   5.754   9.146 -1.3073  0.0393 -0.8724
   88GLOH    C2 9404   3.267   5.551   9.069 -0.7580  0.7558  0.2829
   88GLOH   H04 9405   3.168   5.503   9.084  0.8225  0.3997 -2.4992
   88GLOH    O2 9406   3.271   5.609   8.932 -0.2828  0.4851  0.0199
   88GLOH   H05 9407   3.360   5.648   8.909 -0.2468 -1.9931 -0.2634
   88GLOH    C3 9408   3.359   5.430   9.080 -0.6751 -0.1922  0.0134
   88GLOH   H06 9409   3.370   5.402   9.181 -1.1295  2.2853  0.5538
   88GLOH   H07 9410   3.462   5.461   9.047 -2.2204 -1.5968 -2.0332
   88GLOH    O3 9411   3.317   5.316   9.002 -0.3262  0.4017  0.6116
   88GLOH   H01 9412   3.240   5.331   8.943 -0.4414  0.7551  1.0102
   89GLOH   H03 9413   1.598   7.221   0.260 -1.4063  2.2059  1.7341
   89GLOH    O1 9414   1.620   7.184   0.168  0.5019 -0.6228 -0.2943
   89GLOH    C1 9415   1.769   7.173   0.148 -0.7684  0.2943 -0.0701
   89GLOH   H02 9416   1.812   7.118   0.230  1.0358  1.3443 -1.9745
   89GLOH   H08 9417   1.821   7.268   0.139 -0.8566  1.0975 -3.4243
   89GLOH    C2 9418   1.792   7.099   0.012  0.2657  0.2117 -0.1280
   89GLOH   H04 9419   1.746   7.155  -0.071  0.3488  0.8849 -2.0414
   89GLOH    O2 9420   1.934   7.099  -0.022  0.4019 -0.3640  0.4541
   89GLOH   H05 9421   1.937   7.101  -0.121 -0.1820  0.5609  1.1015
   89GLOH    C3 9422   1.738   6.956   0.014 -0.2732  0.6100 -0.1516
   89GLOH   H06 9423   1.824   6.891   0.051  2.4786  0.2624 -1.6800
   89GLOH   H07 9424   1.725   6.933  -0.089  1.2738  1.7986  1.7751
   89GLOH    O3 9425   1.617   6.939   0.089 -0.6638 -0.0185 -0.5385
   89GLOH   H01 9426   1.585   7.025   0.131 -2.5052  1.3697  1.1232
   90GLOH   H03 9427   8.308   7.082   4.818 -2.5019  3.7274  1.1826
   90GLOH    O1 9428   8.399   7.109   4.781  0.0255 -0.1342  0.2641
   90GLOH    C1 9429   8.421   7.235   4.840  0.3894 -0.3184 -0.2164
   90GLOH   H02 9430   8.418   7.236   4.951 -2.2115 -3.0061 -2.3399
   90GLOH   H08 9431   8.341   7.306   4.811  2.1712  1.5642 -3.2646
   90GLOH    C2 9432   8.558   7.290   4.790 -0.2800  0.0261 -0.9344
   90GLOH   H04 9433   8.562   7.275   4.683 -0.6335  1.6892  0.8096
   90GLOH    O2 9434   8.563   7.435   4.816  1.0279 -0.1642 -0.5855
   90GLOH   H05 9435   8.487   7.469   4.756 -0.1825  1.8151  2.1293
   90GLOH    C3 9436   8.664   7.204   4.861 -0.9259 -0.4149  0.1226
   90GLOH   H06 9437   8.650   7.100   4.831 -1.6572  1.4264  0.3429
   90GLOH   H07 9438   8.641   7.197   4.971 -1.9310 -1.6153 -1.3161
   90GLOH    O3 9439   8.800   7.243   4.835  0.9275 -0.2395 -0.4036
   90GLOH   H01 9440   8.807   7.267   4.738  0.0261  2.7361 -0.3572
   91GLOH   H03 9441   8.249   9.843   3.134  1.0472  1.5525 -0.8255
   91GLOH    O1 9442   8.255   9.939   3.160 -0.1859 -1.0373 -0.4994
   91GLOH    C1 9443   8.192  10.025   3.066  0.2579  0.7069  0.0768
   91GLOH   H02 9444   8.110   9.974   3.024  0.6403  0.7253 -1.3430
   91GLOH   H08 9445   8.256  10.055   2.979  0.7557  1.5710 -1.5473
   91GLOH    C2 9446   8.149  10.160   3.137  0.1982 -0.7460 -0.3158
   91GLOH   H04 9447   8.082  10.204   3.061 -1.7452  0.4498 -1.6015
   91GLOH    O2 9448   8.069  10.140   3.253 -0.6742 -0.3566  0.0441
   91GLOH   H05 9449   8.006  10.066   3.232 -0.7767  1.6493  0.5480
   91GLOH    C3 9450   8.267  10.259   3.140  0.3789  0.6645 -0.0057
   91GLOH   H06 9451   8.343  10.223   3.206  1.3916 -0.1546  2.2819
   91GLOH   H07 9452   8.223  10.354   3.180  0.4649  1.5533 -1.5423
   91GLOH    O3 9453   8.317  10.285   3.010 -0.3009  0.1894  0.6064
   91GLOH   H01 9454   8.412  10.303   3.009 -3.5781  0.2131 -1.3833
   92GLOH   H03 9455   0.747   5.251   5.542 -0.3270  2.3800 -1.1814
   92GLOH    O1 9456   0.696   5.169   5.567 -0.0735  0.3934 -0.2539
   92GLOH    C1 9457   0.779   5.061   5.531  0.3734  0.5748  1.1173
   92GLOH   H02 9458   0.761   5.053   5.423  1.8109 -0.9897  1.6246
   92GLOH   H08 9459   0.754   4.968   5.585  0.2430  3.9881 -0.8267
   92GLOH    C2 9460   0.929   5.084   5.542 -0.2026 -0.0667  0.0618
   92GLOH   H04 9461   0.948   5.107   5.653  1.1786 -1.0849  2.4022
   92GLOH    O2 9462   1.007   4.968   5.501 -0.2214 -0.2766  0.1204
   92GLOH   H05 9463   1.044   4.927   5.584  0.0330 -0.1749  1.6500
   92GLOH    C3 9464   0.967   5.204   5.459  0.0421  0.5520  0.2301
   92GLOH   H06 9465   0.951   5.180   5.352  0.9999  1.3490  1.0579
   92GLOH   H07 9466   1.073   5.213   5.458 -1.6556  0.8016 -1.9292
   92GLOH    O3 9467   0.903   5.317   5.507 -0.1213 -0.1586 -0.3169
   92GLOH   H01 9468   0.935   5.392   5.446 -1.2952 -0.9681 -1.4598
   93GLOH   H03 9469   2.789   0.013   8.019  0.0751 -0.9875  2.0735
   93GLOH    O1 9470   2.771  -0.081   8.043 -0.3358  0.6405 -0.2237
   93GLOH    C1 9471   2.645  -0.133   7.990  0.9912  0.4288 -0.3090
   93GLOH   H02 9472   2.649  -0.238   8.018 -0.9270  3.7262 -1.4689
   93GLOH   H08 9473   2.640  -0.115   7.880  0.9028  1.8937 -0.8186
   93GLOH    C2 9474   2.511  -0.087   8.048 -0.2658 -0.1952  0.1624
   93GLOH   H04 9475   2.517  -0.091   8.158 -1.6193 -3.0249 -2.4763
   93GLOH    O2 9476   2.493   0.049   7.998 -0.1598 -0.8615  0.0609
   93GLOH   H05 9477   2.460   0.040   7.900 -0.9520 -1.3077 -4.3085
   93GLOH    C3 9478   2.395  -0.172   7.988  0.1324 -1.1642  0.2355
   93GLOH   H06 9479   2.304  -0.120   8.007 -0.0589  2.0943  0.0882
   93GLOH   H07 9480   2.388  -0.264   8.048  0.5852 -0.9079  1.7549
   93GLOH    O3 9481   2.414  -0.201   7.849  0.1443 -0.2269 -0.2132
   93GLOH   H01 9482   2.370  -0.132   7.795 -0.0507  2.1893 -3.8408
   94GLOH   H03 9483   3.839   2.176   4.450  0.5848 -1.6401  0.3302
   94GLOH    O1 9484   3.752   2.157   4.413 -0.5180 -0.5071 -0.2280
   94GLOH    C1 9485   3.752   2.059   4.320 -0.5410  1.1562  0.2240
   94GLOH   H02 9486   3.812   1.971   4.355 -4.6904 -1.0951 -0.7541
   94GLOH   H08 9487   3.795   2.091   4.224  0.2702 -1.1603 -0.9862
   94GLOH    C2 9488   3.606   2.011   4.288  0.2648 -0.1090  0.0981
   94GLOH   H04 9489   3.612   1.950   4.197 -0.7992 -0.1573 -0.3882
   94GLOH    O2 9490   3.551   1.921   4.388 -0.1166 -0.0352  0.6328
   94GLOH   H05 9491   3.498   1.851   4.338 -1.5643 -0.2164 -0.6118
   94GLOH    C3 9492   3.511   2.124   4.259  0.2821 -0.3755  0.0560
   94GLOH   H06 9493   3.513   2.204   4.333  1.6894  0.8644 -3.6260
   94GLOH   H07 9494   3.406   2.096   4.259  2.2472  3.1632 -0.8762
   94GLOH    O3 9495   3.545   2.189   4.139 -0.0751 -0.5468  0.4436
   94GLOH   H01 9496   3.543   2.135   4.058 -0.8821 -2.6732 -0.0141
   95GLOH   H03 9497   3.755   1.532   1.513 -0.5831 -3.0049  0.9489
   95GLOH    O1 9498   3.789   1.617   1.553  0.3080  0.4656  0.5013
   95GLOH    C1 9499   3.894   1.658   1.473  0.2483 -1.0128  0.6939
   95GLOH   H02 9500   3.950   1.566   1.450 -0.1726 -0.8773 -1.9989
   95GLOH   H08 9501   3.963   1.721   1.529 -2.3722  0.1162  1.1234
   95GLOH    C2 9502   3.851   1.712   1.339 -0.3595 -0.7171 -0.5808
   95GLOH   H04 9503   3.766   1.653   1.314  1.2272  0.4705 -1.3363
   95GLOH    O2 9504   3.813   1.853   1.352 -0.4195 -0.0543  0.3606
   95GLOH   H05 9505   3.891   1.914   1.371 -0.9654 -0.6550 -0.4409
   95GLOH    C3 9506   3.957   1.680   1.230 -0.4600 -0.1450  0.0482
   95GLOH   H06 9507   4.053   1.715   1.272  0.4190 -0.7970  0.6537
   95GLOH   H07 9508   3.929   1.743   1.149  0.4746  3.1628  1.8577
   95GLOH    O3 9509   3.968   1.538   1.205 -0.0299 -0.0064 -0.0439
   95GLOH   H01 9510   3.897   1.513   1.138  2.5298  1.2407  0.4196
   96GLOH   H03 9511   4.669   5.217   9.068 -1.6408  0.2608  2.0162
   96GLOH    O1 9512   4.693   5.291   9.009 -0.2693 -0.1105 -0.0524
   96GLOH    C1 9513   4.705   5.256   8.872 -0.0429  0.3938 -0.5952
   96GLOH   H02 9514   4.611   5.203   8.840 -0.5258 -0.2003  0.3266
   96GLOH   H08 9515   4.792   5.197   8.860  2.4306 -0.1503  0.0709
   96GLOH    C2 9516   4.731   5.389   8.788 -0.5220  0.1078  0.0047
   96GLOH   H04 9517   4.821   5.439   8.839  0.8547  1.9664  3.1316
   96GLOH    O2 9518   4.761   5.354   8.650 -0.3880  0.1078  0.1574
   96GLOH   H05 9519   4.849   5.302   8.656  0.3032  1.3041  0.7086
   96GLOH    C3 9520   4.621   5.496   8.810 -0.0884 -0.2883  0.1263
   96GLOH   H06 9521   4.626   5.511   8.923 -1.3373  1.0215  1.5797
   96GLOH   H07 9522   4.526   5.463   8.777  0.8949  2.3319  0.7494
   96GLOH    O3 9523   4.649   5.630   8.760 -0.0123  0.0251  0.0284
   96GLOH   H01 9524   4.744   5.649   8.792 -0.0376  0.9292  3.8614
   97GLOH   H03 9525   1.501   8.727   8.989  2.1366  0.5395  0.5683
   97GLOH    O1 9526   1.500   8.668   8.914  0.2497 -0.0945  1.1311
   97GLOH    C1 9527   1.383   8.585   8.917  0.2823  0.4259 -0.2024
   97GLOH   H02 9528   1.299   8.635   8.875  0.5881  0.1306 -1.0857
   97GLOH   H08 9529   1.362   8.566   9.018 -0.9573  1.3287 -1.3129
   97GLOH    C2 9530   1.407   8.462   8.831 -0.2378 -0.1026  0.2423
   97GLOH   H04 9531   1.487   8.415   8.884  0.0801 -0.7803  1.1222
   97GLOH    O2 9532   1.287   8.385   8.826  0.0634  0.0327  0.6020
   97GLOH   H05 9533   1.300   8.323   8.759 -1.5229  0.5998  3.0193
   97GLOH    C3 9534   1.453   8.503   8.687 -0.0159 -0.4876 -0.0195
   97GLOH   H06 9535   1.538   8.567   8.701  0.4216  0.1963 -0.0126
   97GLOH   H07 9536   1.376   8.568   8.639 -2.2784  0.0308 -1.2340
   97GLOH    O3 9537   1.478   8.396   8.593 -0.1016  0.1956  0.1477
   97GLOH   H01 9538   1.565   8.360   8.626  2.3400 -0.7472  2.1897
   98GLOH   H03 9539   8.062   8.451   8.935 -0.2661 -2.0203 -2.3588
   98GLOH    O1 9540   7.971   8.482   8.959  0.3385  0.2224  0.7855
   98GLOH    C1 9541   7.889   8.381   8.898 -0.0864  0.1550 -0.1671
   98GLOH   H02 9542   7.954   8.322   8.824 -2.3356  0.0048  1.8628
   98GLOH   H08 9543   7.808   8.426   8.843  0.3168 -0.6628 -1.1372
   98GLOH    C2 9544   7.828   8.280   8.998 -0.3028  0.4381 -0.2097
   98GLOH   H04 9545   7.798   8.347   9.081  0.0560  2.3856  1.1595
   98GLOH    O2 9546   7.719   8.217   8.942 -0.3804 -0.0140 -0.4488
   98GLOH   H05 9547   7.651   8.279   8.914 -1.4980  0.3174 -0.6760
   98GLOH    C3 9548   7.936   8.177   9.041 -0.1437 -0.3136  0.0887
   98GLOH   H06 9549   8.010   8.222   9.106 -3.1550  2.0308 -1.0350
   98GLOH   H07 9550   7.978   8.130   8.951 -0.5167  0.0229  0.1094
   98GLOH    O3 9551   7.863   8.081   9.112 -0.1193 -0.2663  0.1215
   98GLOH   H01 9552   7.774   8.107   9.100  2.5567 -1.7585  0.7603
   99GLOH   H03 9553   6.948   4.994   6.418  0.3065  2.0541  0.5756
   99GLOH    O1 9554   6.944   4.945   6.504  0.9799 -0.4339 -0.0458
   99GLOH    C1 9555   7.017   5.028   6.588  0.5518  0.0385 -0.5456
   99GLOH   H02 9556   7.030   5.128   6.539 -2.4008  2.3169  1.5981
   99GLOH   H08 9557   7.122   4.990   6.607  1.0608 -2.8178 -1.6635
   99GLOH    C2 9558   6.953   5.053   6.727  0.4492 -0.0370 -0.2987
   99GLOH   H04 9559   6.948   4.955   6.771  2.0636  2.2329  0.7772
   99GLOH    O2 9560   7.028   5.148   6.803  0.0538  0.0699 -0.7500
   99GLOH   H05 9561   7.106   5.174   6.756 -1.2112 -1.2497  0.1704
   99GLOH    C3 9562   6.808   5.099   6.714 -0.3822  0.2473 -0.1294
   99GLOH   H06 9563   6.815   5.206   6.680  2.8569  2.2128 -1.2877
   99GLOH   H07 9564   6.763   5.103   6.806  0.9334 -1.1392 -1.2929
   99GLOH    O3 9565   6.734   5.021   6.624 -0.1662  0.7022 -0.0525
   99GLOH   H01 9566   6.793   4.957   6.571 -1.4689  1.0853 -2.4673
  100GLOH   H03 9567   7.931   6.327   4.136 -0.3059 -0.1149  2.9606
  100GLOH    O1 9568   7.970   6.329   4.040  0.5493  0.6479  0.6505
  100GLOH    C1 9569   8.052   6.441   4.010 -0.2357 -0.9108  0.8776
  100GLOH   H02 9570   8.038   6.517   4.087 -0.8018 -0.8043  0.5057
  100GLOH   H08 9571   8.025   6.482   3.908 -1.0746  0.7199  0.2785
  100GLOH    C2 9572   8.205   6.410   4.005 -0.4349  0.4778  0.3326
  100GLOH   H04 9573   8.234   6.356   4.101 -0.4132  0.4928  0.6749
  100GLOH    O2 9574   8.238   6.320   3.894 -0.3141  0.1593 -0.3446
  100GLOH   H05 9575   8.209   6.224   3.921 -2.1891 -1.6791 -0.9428
  100GLOH    C3 9576   8.290   6.535   3.986 -0.3966 -0.6488  0.1848
  100GLOH   H06 9577   8.249   6.578   3.902  1.4161  1.6959  0.8178
  100GLOH   H07 9578   8.391   6.516   3.963 -0.4150 -1.5502  2.8874
  100GLOH    O3 9579   8.293   6.623   4.102  0.2276 -0.2362 -0.3346
  100GLOH   H01 9580   8.198   6.638   4.119  1.3389 -1.0798  0.6829
  101GLOH   H03 9581   0.787   7.050   1.610  3.4954  1.8716  1.7581
  101GLOH    O1 9582   0.854   7.117   1.595 -0.1547 -0.5696  0.2145
  101GLOH    C1 9583   0.970   7.042   1.550  0.2589 -0.3786 -0.0921
  101GLOH   H02 9584   0.944   6.929   1.545 -0.5257 -3.3541  2.6450
  101GLOH   H08 9585   1.059   7.046   1.620  1.2846  0.2820  1.2714
  101GLOH    C2 9586   1.014   7.067   1.401 -0.2670  0.9343 -0.7076
  101GLOH   H04 9587   1.023   7.177   1.379 -1.4656  0.1741 -0.4898
  101GLOH    O2 9588   1.150   7.010   1.375 -0.0070 -0.2342 -0.1405
  101GLOH   H05 9589   1.157   6.938   1.308 -2.7652  2.0434  1.6891
  101GLOH    C3 9590   0.922   6.999   1.299  0.5685 -0.2015  0.7457
  101GLOH   H06 9591   0.899   6.903   1.333  2.0796 -2.3251  0.9184
  101GLOH   H07 9592   0.973   6.988   1.206  1.1645 -0.8414 -0.4177
  101GLOH    O3 9593   0.807   7.069   1.268 -0.0207 -0.3960 -0.4674
  101GLOH   H01 9594   0.731   7.030   1.317  1.2621  0.7997  2.2532
  102GLOH   H03 9595   2.118   8.586   3.173  4.8113  1.4448 -0.0838
  102GLOH    O1 9596   2.040   8.549   3.122 -0.6224  0.6678 -0.0215
  102GLOH    C1 9597   2.065   8.409   3.091 -0.1426 -0.4888 -0.0297
  102GLOH   H02 9598   2.162   8.383   3.061  0.2257  0.5376  2.0619
  102GLOH   H08 9599   1.997   8.380   3.010  2.0460  0.6145  0.0185
  102GLOH    C2 9600   2.032   8.319   3.213 -0.0297 -0.3047 -0.0248
  102GLOH   H04 9601   1.927   8.341   3.243 -1.8842 -2.4495 -1.2185
  102GLOH    O2 9602   2.036   8.182   3.165  0.0220 -0.2759  0.5406
  102GLOH   H05 9603   2.121   8.167   3.112 -1.9136  0.0985  0.9817
  102GLOH    C3 9604   2.143   8.330   3.326  0.0426 -0.0060  0.5419
  102GLOH   H06 9605   2.130   8.428   3.366  1.1545  0.1019 -1.7190
  102GLOH   H07 9606   2.245   8.334   3.286  1.4927  1.5841 -2.6170
  102GLOH    O3 9607   2.113   8.233   3.422  0.4614 -0.2377  0.0422
  102GLOH   H01 9608   2.071   8.158   3.377  0.8119  2.0963 -2.3154
  103GLOH   H03 9609   6.820   3.982   0.162 -0.7089 -0.5612 -1.1643
  103GLOH    O1 9610   6.803   4.063   0.216 -0.1536  0.2820  0.0546
  103GLOH    C1 9611   6.676   4.041   0.270  0.1365 -0.5165 -0.6907
  103GLOH   H02 9612   6.674   3.945   0.321 -0.1635 -0.3116 -0.7445
  103GLOH   H08 9613   6.607   4.040   0.181 -2.1562  1.2405  1.0590
  103GLOH    C2 9614   6.636   4.149   0.376  0.8209  0.9576  0.1907
  103GLOH   H04 9615   6.627   4.249   0.332 -1.5007 -0.6147 -0.5366
  103GLOH    O2 9616   6.499   4.121   0.422 -0.5657  0.0319  0.2592
  103GLOH   H05 9617   6.464   4.198   0.475  0.1548  0.5191  1.4101
  103GLOH    C3 9618   6.744   4.159   0.480 -0.4045 -0.1986 -1.0184
  103GLOH   H06 9619   6.847   4.174   0.442  0.7595  0.2116  0.4511
  103GLOH   H07 9620   6.754   4.062   0.528  1.1370 -0.4275  0.8225
  103GLOH    O3 9621   6.718   4.258   0.583  0.3645  0.0677 -0.0511
  103GLOH   H01 9622   6.791   4.276   0.646 -0.5235 -2.3632  0.9790
  104GLOH   H03 9623   6.928   1.640   7.942 -0.3690 -1.1701  1.9293
  104GLOH    O1 9624   6.972   1.671   7.862  0.0330 -0.8576  0.0818
  104GLOH    C1 9625   7.114   1.672   7.877 -0.2982 -0.5759  0.2045
  104GLOH   H02 9626   7.150   1.596   7.814  1.7764  0.8668  2.9278
  104GLOH   H08 9627   7.147   1.641   7.976 -0.4157 -2.8061  2.6756
  104GLOH    C2 9628   7.174   1.803   7.821  0.5660 -0.4639  0.2003
  104GLOH   H04 9629   7.146   1.884   7.890 -0.6076  1.2643  0.5676
  104GLOH    O2 9630   7.314   1.796   7.811  0.3032 -0.2100  0.6346
  104GLOH   H05 9631   7.352   1.815   7.901  1.0010  1.5228 -0.7797
  104GLOH    C3 9632   7.119   1.832   7.680 -0.1447  0.3247 -0.2204
  104GLOH   H06 9633   7.165   1.747   7.626 -0.1662 -1.6865  0.3234
  104GLOH   H07 9634   7.167   1.928   7.647  2.8656 -0.4963 -1.4366
  104GLOH    O3 9635   6.980   1.842   7.673 -0.2464  0.1740 -0.2690
  104GLOH   H01 9636   6.935   1.783   7.740 -1.4287  1.9168 -1.1182
  105GLOH   H03 9637   7.734   8.215   7.887  1.9721  1.5331  1.7454
  105GLOH    O1 9638   7.719   8.164   7.972  0.0580 -0.0305  0.0323
  105GLOH    C1 9639   7.580   8.153   8.003 -0.4573  0.7964  0.3398
  105GLOH   H02 9640   7.568   8.081   8.082 -0.2029  3.8875 -0.4196
  105GLOH   H08 9641   7.539   8.109   7.914  0.0549  1.0704  3.0912
  105GLOH    C2 9642   7.505   8.275   8.035 -0.4290  0.5803 -0.0383
  105GLOH   H04 9643   7.492   8.335   7.942 -0.0652 -2.5896 -1.8608
  105GLOH    O2 9644   7.384   8.222   8.086 -0.2930 -0.4667 -0.3949
  105GLOH   H05 9645   7.300   8.275   8.086  0.7447 -0.8215  0.1735
  105GLOH    C3 9646   7.572   8.363   8.140  0.5883 -0.3610 -0.2619
  105GLOH   H06 9647   7.599   8.295   8.223  1.2785  0.9404  1.4133
  105GLOH   H07 9648   7.489   8.419   8.178  0.6946 -0.4126  0.6661
  105GLOH    O3 9649   7.682   8.443   8.096  0.0372  0.0679 -0.3827
  105GLOH   H01 9650   7.644   8.528   8.068  1.2301 -2.2123 -2.4058
  106GLOH   H03 9651   0.886   0.473   2.945  3.1088 -0.2930 -1.8619
  106GLOH    O1 9652   0.889   0.505   3.038 -0.8881 -0.2189  0.3352
  106GLOH    C1 9653   0.811   0.423   3.138  0.2475 -0.6968  0.9785
  106GLOH   H02 9654   0.848   0.330   3.179 -1.4221 -0.5372  0.3079
  106GLOH   H08 9655   0.715   0.394   3.095  0.5787 -0.7130  0.2390
  106GLOH    C2 9656   0.788   0.504   3.265  0.1255 -0.3236  0.6732
  106GLOH   H04 9657   0.888   0.510   3.316  4.2295 -0.2504  0.4731
  106GLOH    O2 9658   0.740   0.636   3.240  0.6042  0.4942  0.6616
  106GLOH   H05 9659   0.757   0.651   3.146  2.9681 -0.7126 -0.7386
  106GLOH    C3 9660   0.691   0.431   3.359 -0.9674 -0.1906 -0.2576
  106GLOH   H06 9661   0.604   0.406   3.299 -1.5632  0.5838 -0.3160
  106GLOH   H07 9662   0.646   0.492   3.438  0.0011 -3.5863  2.8788
  106GLOH    O3 9663   0.746   0.312   3.418  0.2382 -0.0805  0.2205
  106GLOH   H01 9664   0.727   0.233   3.360  0.4482 -1.0565 -1.7668
  107GLOH   H03 9665   2.744   7.072   5.779 -2.1577  1.4367 -3.0412
  107GLOH    O1 9666   2.820   7.010   5.784  0.3547 -0.3554 -0.4041
  107GLOH    C1 9667   2.932   7.061   5.712 -0.1536  1.0416 -0.2338
  107GLOH   H02 9668   2.970   7.158   5.744 -1.1563  0.6272 -1.3604
  107GLOH   H08 9669   2.903   7.076   5.610 -1.3400 -1.1536  0.7930
  107GLOH    C2 9670   3.055   6.965   5.710  0.8718 -0.1625  0.1645
  107GLOH   H04 9671   3.049   6.895   5.628 -1.3002  0.3942 -2.7704
  107GLOH    O2 9672   3.168   7.044   5.672  0.1187 -0.0064  0.0795
  107GLOH   H05 9673   3.191   7.088   5.756  0.6994  1.3873  1.8085
  107GLOH    C3 9674   3.082   6.904   5.851 -0.0014  0.0633  0.0764
  107GLOH   H06 9675   3.166   6.845   5.838  1.8965  0.5522 -0.9628
  107GLOH   H07 9676   2.999   6.840   5.889 -2.1010 -0.8025  2.6218
  107GLOH    O3 9677   3.102   7.010   5.947 -0.4007  0.2231  0.4469
  107GLOH   H01 9678   3.199   7.014   5.973 -1.1778 -0.5959 -0.9338
  108GLOH   H03 9679   9.232   4.553   9.363  0.5560  1.3194 -0.2379
  108GLOH    O1 9680   9.234   4.609   9.283  0.1864 -0.3499  0.0709
  108GLOH    C1 9681   9.269   4.535   9.168  0.0534  0.8403 -0.6247
  108GLOH   H02 9682   9.182   4.480   9.135 -0.1162  0.9505  0.9357
  108GLOH   H08 9683   9.343   4.456   9.191  1.0449 -0.0786 -1.3960
  108GLOH    C2 9684   9.326   4.626   9.059  0.0483  0.3938 -1.0615
  108GLOH   H04 9685   9.404   4.688   9.115 -0.3296  0.5994 -0.4756
  108GLOH    O2 9686   9.394   4.564   8.951  0.3190  0.5007 -0.3298
  108GLOH   H05 9687   9.355   4.474   8.942  0.9590 -0.0534  1.3581
  108GLOH    C3 9688   9.210   4.719   9.007  0.0943 -0.0519 -0.3274
  108GLOH   H06 9689   9.256   4.794   8.941  1.3577  1.1270  3.1836
  108GLOH   H07 9690   9.169   4.783   9.084  3.4655 -0.4350 -0.0363
  108GLOH    O3 9691   9.100   4.642   8.944  0.4516  0.3949  0.2775
  108GLOH   H01 9692   9.139   4.622   8.855 -1.2706  1.5730 -0.0321
  109GLOH   H03 9693   8.382   6.956   7.837  2.6589 -1.0301  2.1838
  109GLOH    O1 9694   8.291   6.940   7.796 -0.2820 -0.2111 -0.3473
  109GLOH    C1 9695   8.213   6.837   7.867  0.9978 -0.5388 -0.0812
  109GLOH   H02 9696   8.264   6.810   7.963 -0.2050  0.2535 -0.0327
  109GLOH   H08 9697   8.208   6.743   7.807 -0.6827 -1.6854 -1.4617
  109GLOH    C2 9698   8.063   6.878   7.899 -0.1551  0.8579 -0.9168
  109GLOH   H04 9699   8.004   6.864   7.806 -1.8322 -0.4532 -0.9508
  109GLOH    O2 9700   8.016   6.788   7.993 -0.3332 -0.5146  0.3412
  109GLOH   H05 9701   7.920   6.801   8.019 -2.1247 -1.5452  1.0688
  109GLOH    C3 9702   8.054   7.025   7.939  0.1652 -0.0604 -0.4618
  109GLOH   H06 9703   8.104   7.080   7.859  3.8751 -1.5452 -1.2780
  109GLOH   H07 9704   8.114   7.045   8.031 -1.2808 -1.0152 -0.5345
  109GLOH    O3 9705   7.918   7.065   7.968  0.2660 -0.2153 -0.3507
  109GLOH   H01 9706   7.878   7.004   8.033  0.0049  0.3230 -1.1678
  110GLOH   H03 9707   9.294   3.714   6.209  0.4367 -3.8932  2.3407
  110GLOH    O1 9708   9.241   3.754   6.283 -0.0534  0.5067  0.3243
  110GLOH    C1 9709   9.114   3.781   6.228 -0.3792 -0.4521 -0.1962
  110GLOH   H02 9710   9.094   3.729   6.129  2.9140  1.9115  3.5897
  110GLOH   H08 9711   9.116   3.885   6.191  0.1671 -1.0026  2.3735
  110GLOH    C2 9712   8.998   3.759   6.327 -0.5595 -0.5442 -0.4778
  110GLOH   H04 9713   9.001   3.834   6.402  0.2419 -3.2780  1.0503
  110GLOH    O2 9714   8.872   3.755   6.258 -0.6805  0.3773 -0.1503
  110GLOH   H05 9715   8.873   3.821   6.190 -2.6208 -1.6861  1.5431
  110GLOH    C3 9716   9.015   3.631   6.412 -0.8051  0.1593 -0.0358
  110GLOH   H06 9717   9.118   3.630   6.452 -0.0312 -4.1545  1.1499
  110GLOH   H07 9718   9.013   3.547   6.339 -0.1698 -0.3491 -2.9500
  110GLOH    O3 9719   8.919   3.615   6.520  0.4445 -0.6514 -0.2144
  110GLOH   H01 9720   8.922   3.695   6.579  0.4726 -0.6282 -1.7748
  111GLOH   H03 9721   2.520   9.090   8.554 -0.4768  1.6865  1.3942
  111GLOH    O1 9722   2.571   9.137   8.622 -0.5761  0.0032 -0.3053
  111GLOH    C1 9723   2.677   9.050   8.670 -0.7588  0.4343 -0.5249
  111GLOH   H02 9724   2.765   9.102   8.664  0.0404 -1.3330 -1.1931
  111GLOH   H08 9725   2.689   8.952   8.614  1.3248 -0.4363 -0.1555
  111GLOH    C2 9726   2.653   9.004   8.819  0.6226  0.5743 -0.6976
  111GLOH   H04 9727   2.570   8.932   8.804 -0.3860  2.5547  1.4878
  111GLOH    O2 9728   2.765   8.934   8.869  0.5039  0.6783 -0.0364
  111GLOH   H05 9729   2.841   8.994   8.864  1.4027 -2.2126  1.2991
  111GLOH    C3 9730   2.616   9.115   8.917 -0.0821 -0.1417 -0.3123
  111GLOH   H06 9731   2.690   9.194   8.907  1.4261 -2.2935 -0.9778
  111GLOH   H07 9732   2.609   9.085   9.025 -1.4472 -1.3677  0.1997
  111GLOH    O3 9733   2.488   9.167   8.881 -0.0603 -0.2229  0.0028
  111GLOH   H01 9734   2.494   9.183   8.781 -0.7549  1.0860 -1.0141
  112GLOH   H03 9735   1.350   9.378   8.650 -1.8475 -1.7783 -0.3917
  112GLOH    O1 9736   1.414   9.415   8.709  0.1151 -0.5538  0.0757
  112GLOH    C1 9737   1.512   9.493   8.635 -0.5847  0.0222  0.6353
  112GLOH   H02 9738   1.489   9.590   8.630  0.0695 -1.6204  0.6367
  112GLOH   H08 9739   1.529   9.462   8.529  1.7675  1.8262 -2.5422
  112GLOH    C2 9740   1.646   9.478   8.705 -0.6840  0.4355 -0.1271
  112GLOH   H04 9741   1.676   9.375   8.698  1.3810 -0.9592 -0.6620
  112GLOH    O2 9742   1.739   9.568   8.643  0.6660 -0.3206 -0.1511
  112GLOH   H05 9743   1.732   9.553   8.542 -2.3402 -4.2265  1.1383
  112GLOH    C3 9744   1.633   9.515   8.858 -0.7707  0.1243  0.2020
  112GLOH   H06 9745   1.612   9.624   8.852  0.0050  1.2954 -1.0711
  112GLOH   H07 9746   1.732   9.513   8.902  1.4816 -0.7726  1.2125
  112GLOH    O3 9747   1.537   9.430   8.933 -0.1817  0.2601 -0.1968
  112GLOH   H01 9748   1.460   9.419   8.874  1.1272  1.1283  0.0840
  113GLOH   H03 9749   2.437   5.595   5.509 -0.1913 -0.7854 -0.4518
  113GLOH    O1 9750   2.414   5.682   5.553 -0.3753 -0.1804  0.5662
  113GLOH    C1 9751   2.525   5.768   5.523 -0.9744 -0.0080  0.1990
  113GLOH   H02 9752   2.593   5.723   5.455 -0.6537  0.3261  0.4894
  113GLOH   H08 9753   2.586   5.778   5.613 -0.6913 -1.4183 -1.1350
  113GLOH    C2 9754   2.499   5.900   5.457 -0.0034  0.4314  0.1242
  113GLOH   H04 9755   2.601   5.943   5.430  3.0689 -0.7489 -3.2458
  113GLOH    O2 9756   2.428   5.874   5.335 -0.4113  0.3834  0.1297
  113GLOH   H05 9757   2.406   5.769   5.323  1.8304 -4.7452  1.5420
  113GLOH    C3 9758   2.426   5.991   5.560  0.6979 -0.1794 -0.4311
  113GLOH   H06 9759   2.329   5.942   5.576  0.2435 -4.9344 -0.3878
  113GLOH   H07 9760   2.406   6.091   5.508 -5.1806 -2.5600 -3.9876
  113GLOH    O3 9761   2.502   6.012   5.678 -0.2219  0.2603  0.1255
  113GLOH   H01 9762   2.577   6.071   5.664 -1.9829 -0.7301 -0.1418
  114GLOH   H03 9763   3.531   7.315   5.846  0.8304  2.2594  1.0711
  114GLOH    O1 9764   3.536   7.305   5.944  0.5455 -0.3398  0.0201
  114GLOH    C1 9765   3.649   7.383   5.983 -0.2977  0.5224  0.7423
  114GLOH   H02 9766   3.622   7.470   6.038  2.3634  0.5942 -1.5641
  114GLOH   H08 9767   3.700   7.420   5.890  2.6858  0.2644 -3.1707
  114GLOH    C2 9768   3.765   7.311   6.054  0.1982  0.7308 -0.4396
  114GLOH   H04 9769   3.849   7.379   6.057  0.6494  2.3815 -1.9828
  114GLOH    O2 9770   3.726   7.250   6.184 -0.0234 -0.0498 -0.0240
  114GLOH   H05 9771   3.739   7.324   6.260  1.7419 -1.1708 -0.4100
  114GLOH    C3 9772   3.813   7.206   5.955 -0.4892 -0.2666 -0.2109
  114GLOH   H06 9773   3.730   7.163   5.900  2.3661  0.2758  2.8853
  114GLOH   H07 9774   3.859   7.123   6.009  0.7106  0.4310 -2.0821
  114GLOH    O3 9775   3.903   7.247   5.849 -0.3048  0.0157  0.4497
  114GLOH   H01 9776   3.962   7.169   5.816 -0.2265  1.4758 -0.5424
  115GLOH   H03 9777   0.097   4.291   6.673  2.2907  1.8302 -0.4163
  115GLOH    O1 9778   0.034   4.363   6.650  0.1787  0.3433  0.1451
  115GLOH    C1 9779   0.009   4.452   6.760 -0.1979  0.7085  0.3599
  115GLOH   H02 9780  -0.020   4.550   6.719  3.3744 -3.2483  2.7289
  115GLOH   H08 9781   0.109   4.460   6.809  1.5543  2.6148  1.4109
  115GLOH    C2 9782  -0.087   4.391   6.863  0.1862  0.1503  0.0991
  115GLOH   H04 9783  -0.191   4.383   6.821 -1.0531  2.1425  0.5702
  115GLOH    O2 9784  -0.053   4.264   6.923  0.1721 -0.0480  0.5162
  115GLOH   H05 9785  -0.088   4.194   6.856 -1.1772 -1.2568  2.5250
  115GLOH    C3 9786  -0.093   4.492   6.982  0.2546  1.1504 -0.0125
  115GLOH   H06 9787   0.009   4.504   7.026  0.6435  0.1079  1.3665
  115GLOH   H07 9788  -0.164   4.459   7.052  0.2789  2.5634 -3.7536
  115GLOH    O3 9789  -0.143   4.616   6.935  0.3178 -0.4877  0.3015
  115GLOH   H01 9790  -0.239   4.611   6.931  3.2200 -2.1353 -0.0547
  116GLOH   H03 9791   2.761   3.449   8.668 -0.7700 -1.3942  2.0751
  116GLOH    O1 9792   2.692   3.376   8.654  0.9001 -0.1198  0.5186
  116GLOH    C1 9793   2.731   3.290   8.541 -1.0067 -0.2900  0.2505
  116GLOH   H02 9794   2.809   3.224   8.578 -1.2376 -4.1436 -0.2119
  116GLOH   H08 9795   2.771   3.347   8.457  0.4026  0.6331  0.7966
  116GLOH    C2 9796   2.604   3.207   8.502 -0.0691 -0.1153 -0.2242
  116GLOH   H04 9797   2.523   3.273   8.482 -0.3044 -1.6610 -1.1608
  116GLOH    O2 9798   2.625   3.135   8.378  0.6639  0.5088 -0.1267
  116GLOH   H05 9799   2.596   3.040   8.382 -1.4722  0.1024 -0.6868
  116GLOH    C3 9800   2.561   3.116   8.618  0.4243 -0.4034 -0.0893
  116GLOH   H06 9801   2.642   3.056   8.640 -0.7170 -1.0756 -0.1500
  116GLOH   H07 9802   2.477   3.059   8.584 -0.3333  0.4188 -1.6408
  116GLOH    O3 9803   2.521   3.195   8.733  0.0163 -0.0438  0.0550
  116GLOH   H01 9804   2.582   3.270   8.729  0.5304  0.4676 -2.4102
  117GLOH   H03 9805   4.514   2.223   2.342 -0.6025  0.5924 -3.4093
  117GLOH    O1 9806   4.481   2.259   2.256 -0.5551 -0.6931 -1.0883
  117GLOH    C1 9807   4.488   2.401   2.253 -1.0632 -0.4646 -0.3511
  117GLOH   H02 9808   4.414   2.445   2.316  0.3336  1.7882 -3.0712
  117GLOH   H08 9809   4.482   2.434   2.152  1.1447 -0.5138 -1.0788
  117GLOH    C2 9810   4.621   2.462   2.305 -0.8203  1.1920  0.4383
  117GLOH   H04 9811   4.622   2.442   2.409 -0.4342 -0.0678  0.3949
  117GLOH    O2 9812   4.743   2.410   2.245 -0.1776  0.2484  0.7137
  117GLOH   H05 9813   4.773   2.328   2.297  0.8820 -0.3722  0.5540
  117GLOH    C3 9814   4.612   2.619   2.292 -0.0023  0.2123 -0.1054
  117GLOH   H06 9815   4.615   2.651   2.186  0.2642  1.1981 -0.8783
  117GLOH   H07 9816   4.691   2.667   2.346 -0.1793 -1.6455 -0.5127
  117GLOH    O3 9817   4.490   2.660   2.354 -0.4892  0.3122 -0.6174
  117GLOH   H01 9818   4.510   2.706   2.442  1.8539  1.5628 -1.2109
  118GLOH   H03 9819   4.156   7.600   3.209  3.0477  0.0217 -1.3996
  118GLOH    O1 9820   4.082   7.647   3.160  0.1627 -0.2216  0.5272
  118GLOH    C1 9821   4.063   7.786   3.191  0.0226 -0.7080  0.0180
  118GLOH   H02 9822   4.151   7.841   3.160  1.2132 -2.3647 -0.5725
  118GLOH   H08 9823   4.047   7.803   3.299 -0.3577  0.3817 -2.1734
  118GLOH    C2 9824   3.948   7.852   3.107  0.4062 -0.5330  0.5543
  118GLOH   H04 9825   3.849   7.817   3.149 -0.4198 -0.7755  1.3451
  118GLOH    O2 9826   3.964   7.994   3.119  0.2596 -0.7523 -0.4602
  118GLOH   H05 9827   3.910   8.033   3.191 -1.9034 -1.8516  2.5016
  118GLOH    C3 9828   3.974   7.830   2.959 -0.4657 -0.3144 -0.2280
  118GLOH   H06 9829   4.070   7.871   2.932  0.3894  0.1572  2.4217
  118GLOH   H07 9830   3.910   7.890   2.904  4.1094  2.1914  0.4693
  118GLOH    O3 9831   3.978   7.686   2.916  0.7468 -0.7288 -0.3475
  118GLOH   H01 9832   4.007   7.633   2.993 -1.7743 -1.3949 -2.1278
  119GLOH   H03 9833   5.485   9.438   5.356 -0.9290 -1.7420  0.6826
  119GLOH    O1 9834   5.562   9.388   5.320  0.0739  0.0308  0.0071
  119GLOH    C1 9835   5.545   9.367   5.177 -0.4061 -0.0809  0.4865
  119GLOH   H02 9836   5.548   9.466   5.122  0.1860  1.5852 -0.1187
  119GLOH   H08 9837   5.460   9.308   5.153  2.6962  0.1719  0.5896
  119GLOH    C2 9838   5.669   9.298   5.111  0.0682  0.3052  0.2656
  119GLOH   H04 9839   5.637   9.262   5.018  1.6153 -4.4263  0.9973
  119GLOH    O2 9840   5.782   9.387   5.096 -0.2712  1.0885 -0.4956
  119GLOH   H05 9841   5.836   9.351   5.018 -0.8334 -0.1621 -0.5678
  119GLOH    C3 9842   5.728   9.174   5.196  0.1876  0.2082 -0.5864
  119GLOH   H06 9843   5.793   9.125   5.124 -0.4121 -0.9662  1.0995
  119GLOH   H07 9844   5.649   9.108   5.215  0.6084  2.1382 -0.7284
  119GLOH    O3 9845   5.778   9.216   5.323 -0.1088  0.3976  0.0415
  119GLOH   H01 9846   5.740   9.308   5.323  0.4196  0.9103  0.9024
  120GLOH   H03 9847   6.780   3.544   0.907 -2.7015  1.5958  3.5054
  120GLOH    O1 9848   6.818   3.637   0.920  0.1174 -0.1653  0.0189
  120GLOH    C1 9849   6.910   3.651   0.803 -0.3020  0.0641  1.3474
  120GLOH   H02 9850   6.977   3.739   0.815 -0.7333 -3.3817 -0.2685
  120GLOH   H08 9851   6.861   3.657   0.704  0.9377 -4.0472 -2.8301
  120GLOH    C2 9852   7.009   3.533   0.806 -0.3001 -0.1209 -0.3144
  120GLOH   H04 9853   7.059   3.530   0.899  3.1476 -2.4525 -2.3306
  120GLOH    O2 9854   6.932   3.410   0.786  0.2793  0.1568  0.0567
  120GLOH   H05 9855   6.829   3.422   0.784  2.0050  1.1810 -1.2295
  120GLOH    C3 9856   7.124   3.534   0.708 -0.2075 -0.0297 -0.8823
  120GLOH   H06 9857   7.173   3.431   0.718  1.6323 -1.5030  2.0121
  120GLOH   H07 9858   7.193   3.608   0.751 -0.0623  1.2305  0.7177
  120GLOH    O3 9859   7.091   3.574   0.580 -0.1249  0.1246 -0.0252
  120GLOH   H01 9860   7.111   3.503   0.516 -1.1913 -2.0872 -1.6665
  121ACOH    H4 9861   0.889   0.062   2.563  0.2965  1.2936  1.3763
  121ACOH    O2 9862   0.862  -0.029   2.584  0.0715  0.7468  0.1686
  121ACOH    C2 9863   0.849  -0.031   2.718  0.1001  0.3750 -0.5781
  121ACOH    O1 9864   0.818   0.065   2.785 -0.3306 -0.5381  0.0225
  121ACOH    C1 9865   0.845  -0.168   2.772  0.0373 -0.1715  0.3095
  121ACOH    H1 9866   0.797  -0.163   2.869 -0.3402  2.6927  0.2582
  121ACOH    H2 9867   0.948  -0.198   2.783 -1.0318 -2.3330 -2.1515
  121ACOH    H3 9868   0.797  -0.241   2.708  1.0646  0.2026  1.2727
  122ACOH    H4 9869   2.924   2.586   2.353  2.0481 -1.6824 -2.2266
  122ACOH    O2 9870   2.917   2.635   2.266 -0.1411 -0.0765 -0.3070
  122ACOH    C2 9871   2.970   2.545   2.181  0.0063 -0.3008  0.0874
  122ACOH    O1 9872   3.010   2.428   2.198 -0.1769 -0.0508  0.0294
  122ACOH    C1 9873   2.976   2.610   2.052  0.0666  0.0155 -0.1067
  122ACOH    H1 9874   2.870   2.615   2.017 -0.1414  0.3092  1.2415
  122ACOH    H2 9875   3.035   2.546   1.984  0.3804 -0.8936  0.2105
  122ACOH    H3 9876   3.014   2.714   2.051 -0.0359  3.0840  1.2013
  123ACOH    H4 9877   0.358   7.217   1.772 -0.5795 -0.8614 -0.4663
  123ACOH    O2 9878   0.313   7.283   1.838  0.3668  0.2775 -0.7091
  123ACOH    C2 9879   0.186   7.238   1.849 -0.6321 -0.1938 -0.2790
  123ACOH    O1 9880   0.134   7.154   1.778 -0.1085 -0.0095  0.6448
  123ACOH    C1 9881   0.103   7.310   1.945  0.3186 -0.3766 -0.0845
  123ACOH    H1 9882   0.006   7.273   1.958 -1.1543  0.4758 -0.1422
  123ACOH    H2 9883   0.107   7.422   1.924  0.8195  0.9487  2.0110
  123ACOH    H3 9884   0.149   7.276   2.037  2.2356 -0.5200  1.0373
  124ACOH    H4 9885   1.430   3.671   2.264  0.6878 -0.9459  1.4875
  124ACOH    O2 9886   1.353   3.733   2.258  0.6473 -0.9934  0.3413
  124ACOH    C2 9887   1.270   3.681   2.159  0.2783  0.3062  0.2477
  124ACOH    O1 9888   1.273   3.562   2.121  0.2128 -0.3244  0.1916
  124ACOH    C1 9889   1.153   3.775   2.139 -0.4986  0.2427 -0.4838
  124ACOH    H1 9890   1.137   3.823   2.238 -0.8139  1.9942 -0.8519
  124ACOH    H2 9891   1.063   3.728   2.106  0.6031 -2.5714  1.0339
  124ACOH    H3 9892   1.183   3.851   2.064  1.1196  1.0173 -1.8291
  125ACOH    H4 9893   4.357   9.516   1.347  2.8618  0.3529  1.5681
  125ACOH    O2 9894   4.275   9.539   1.292  0.2872 -0.8266 -0.1245
  125ACOH    C2 9895   4.168   9.462   1.333  0.1109 -0.0750  0.0831
  125ACOH    O1 9896   4.165   9.376   1.416  0.6612  0.5716 -0.3067
  125ACOH    C1 9897   4.039   9.502   1.276  0.1547  0.7579  0.6047
  125ACOH    H1 9898   4.005   9.426   1.196 -0.8384 -1.9840 -1.9765
  125ACOH    H2 9899   4.055   9.598   1.232 -2.4679  2.2963  0.4815
  125ACOH    H3 9900   3.967   9.511   1.358 -0.0282  0.7785  0.9752
  126ACOH    H4 9901   1.935   6.790   4.563  0.4340 -0.7449  1.3464
  126ACOH    O2 9902   1.863   6.725   4.593  0.0820  0.2449 -0.4588
  126ACOH    C2 9903   1.756   6.793   4.636 -0.1310 -0.1198 -0.2698
  126ACOH    O1 9904   1.759   6.909   4.662 -0.1423 -0.3665 -0.1737
  126ACOH    C1 9905   1.634   6.712   4.662  0.9184  0.1379  0.0772
  126ACOH    H1 9906   1.541   6.759   4.621  0.7074  1.9265  0.9415
  126ACOH    H2 9907   1.636   6.690   4.767  2.0011  0.1586 -0.8154
  126ACOH    H3 9908   1.645   6.616   4.608 -2.3708 -0.8601 -2.0063
  127ACOH    H4 9909   9.512   0.053   1.284 -1.0850  1.0304 -1.4639
  127ACOH    O2 9910   9.470  -0.015   1.222  0.4986  0.0860 -0.6276
  127ACOH    C2 9911   9.419  -0.118   1.286 -0.0846  0.3921 -0.3941
  127ACOH    O1 9912   9.433  -0.156   1.401  0.2176  0.4810 -0.1475
  127ACOH    C1 9913   9.340  -0.203   1.199 -0.2773  0.2612  0.1843
  127ACOH    H1 9914   9.313  -0.147   1.109  0.2958  1.5878 -1.8877
  127ACOH    H2 9915   9.249  -0.249   1.241  1.7330  0.6237 -0.5595
  127ACOH    H3 9916   9.412  -0.277   1.166 -0.6805  0.0579  1.0747
  128ACOH    H4 9917   0.992   8.646   1.351 -1.7579  2.4241  1.2356
  128ACOH    O2 9918   1.018   8.655   1.448  0.4992 -0.4031 -0.2972
  128ACOH    C2 9919   1.059   8.534   1.475 -0.6456  0.3943  0.4953
  128ACOH    O1 9920   1.037   8.429   1.415  0.7376  0.2301 -0.1803
  128ACOH    C1 9921   1.139   8.541   1.601 -0.2252  0.4560  0.2994
  128ACOH    H1 9922   1.236   8.579   1.580  0.4136  0.9760 -2.3506
  128ACOH    H2 9923   1.158   8.442   1.640  4.3462 -2.9952  0.1234
  128ACOH    H3 9924   1.095   8.608   1.671 -0.2253 -0.3659 -1.6823
  129ACOH    H4 9925   2.232   3.433   8.081  2.4884  1.6570 -0.3686
  129ACOH    O2 9926   2.266   3.344   8.053  0.0575  0.0525  0.7754
  129ACOH    C2 9927   2.288   3.274   8.165 -0.5043  0.1348  0.4553
  129ACOH    O1 9928   2.267   3.308   8.281 -0.4414  0.6341  0.0399
  129ACOH    C1 9929   2.353   3.151   8.133 -0.1223  0.0242  1.0271
  129ACOH    H1 9930   2.297   3.069   8.165 -0.6718  1.8001 -1.3899
  129ACOH    H2 9931   2.450   3.146   8.183 -2.3658  2.0773 -1.4454
  129ACOH    H3 9932   2.375   3.144   8.022  0.8154 -2.5155 -0.2376
  130ACOH    H4 9933   8.893   0.834   7.927 -0.3736  0.7033  0.9188
  130ACOH    O2 9934   8.794   0.809   7.958  0.0312 -0.3432 -0.0496
  130ACOH    C2 9935   8.722   0.921   7.968 -0.6971  0.5764  0.6663
  130ACOH    O1 9936   8.751   1.031   7.927  0.5126  0.1116  0.1576
  130ACOH    C1 9937   8.608   0.888   8.059  0.0900 -0.6408 -0.0921
  130ACOH    H1 9938   8.613   0.783   8.100  2.4452 -2.5459 -1.3582
  130ACOH    H2 9939   8.514   0.906   8.002  0.7117  1.3899  0.7459
  130ACOH    H3 9940   8.608   0.958   8.142 -0.1151  0.2086 -2.5358
  131ACOH    H4 9941   0.168   8.260   2.141  0.5734 -2.6980  0.8141
  131ACOH    O2 9942   0.175   8.293   2.045 -0.8307  0.4749  0.1839
  131ACOH    C2 9943   0.259   8.402   2.034 -0.7675 -0.7920 -1.0376
  131ACOH    O1 9944   0.309   8.456   2.130 -0.6807  0.3231 -0.5269
  131ACOH    C1 9945   0.273   8.449   1.895  0.2755  0.3580 -0.3529
  131ACOH    H1 9946   0.276   8.557   1.895  2.0765  0.4600  2.0605
  131ACOH    H2 9947   0.196   8.414   1.834  0.8751 -0.0017  1.8070
  131ACOH    H3 9948   0.369   8.408   1.861 -1.1419 -0.3775 -0.3868
  132ACOH    H4 9949   9.060   0.039   3.398  2.1387  2.2368  1.1968
  132ACOH    O2 9950   9.063  -0.042   3.334  0.4273  0.0013 -0.2773
  132ACOH    C2 9951   9.123   0.005   3.219 -0.0937 -0.4406  0.6531
  132ACOH    O1 9952   9.131   0.117   3.192 -0.0577  0.0290  0.1327
  132ACOH    C1 9953   9.179  -0.095   3.125  0.3443 -0.6872 -0.3751
  132ACOH    H1 9954   9.275  -0.071   3.079  2.0569 -1.1711 -2.1778
  132ACOH    H2 9955   9.112  -0.126   3.039  0.8124  0.5213 -1.4012
  132ACOH    H3 9956   9.196  -0.189   3.179 -0.2348 -1.0279 -2.9487
  133ACOH    H4 9957   0.465   3.727   5.172  1.5781 -1.5249  0.8504
  133ACOH    O2 9958   0.503   3.668   5.238 -0.0764  0.0445  0.4782
  133ACOH    C2 9959   0.448   3.694   5.356 -0.2265 -0.2996  0.0329
  133ACOH    O1 9960   0.398   3.800   5.389 -0.6114  0.3740 -0.3801
  133ACOH    C1 9961   0.520   3.607   5.452 -0.0190  0.3186 -0.7462
  133ACOH    H1 9962   0.539   3.502   5.412 -1.6745 -1.0045 -1.5311
  133ACOH    H2 9963   0.461   3.601   5.542  0.3019  3.2796 -0.2001
  133ACOH    H3 9964   0.608   3.658   5.489 -1.4912  1.1041  0.1881
  134ACOH    H4 9965   1.972   9.913   8.638 -0.9819 -0.8685 -1.6603
  134ACOH    O2 9966   2.049   9.974   8.623  0.7518  0.0743 -0.4237
  134ACOH    C2 9967   1.997  10.073   8.544  0.8621 -0.0376 -0.2489
  134ACOH    O1 9968   2.060  10.163   8.492 -0.1544  0.0291 -0.2923
  134ACOH    C1 9969   1.849  10.074   8.523 -0.2518 -0.2008  0.4432
  134ACOH    H1 9970   1.819   9.976   8.488 -0.6422 -0.9093  0.6135
  134ACOH    H2 9971   1.821  10.137   8.446 -0.7208  0.1356 -0.0041
  134ACOH    H3 9972   1.795  10.111   8.609 -1.7480  0.5945 -0.2247
  135ACOH    H4 9973   1.393   7.552   3.913  0.7150  1.9066 -1.5541
  135ACOH    O2 9974   1.413   7.584   4.009  0.6713 -0.0290  0.4103
  135ACOH    C2 9975   1.481   7.695   3.986 -0.1684  0.7680  0.0180
  135ACOH    O1 9976   1.551   7.719   3.889  0.2704  0.6328  0.2211
  135ACOH    C1 9977   1.493   7.778   4.109  0.0013  0.2705  0.5256
  135ACOH    H1 9978   1.586   7.833   4.111 -1.2561  0.4249  1.2830
  135ACOH    H2 9979   1.490   7.708   4.193 -0.0985 -0.0616  0.3736
  135ACOH    H3 9980   1.406   7.838   4.122 -0.3003  0.5180 -1.4650
  136ACOH    H4 9981   7.963   0.323   8.048 -0.6112 -4.1335  0.3526
  136ACOH    O2 9982   8.052   0.347   8.080  0.9194  0.1079 -0.4049
  136ACOH    C2 9983   8.089   0.236   8.138 -0.0543  0.6395  0.4526
  136ACOH    O1 9984   8.025   0.131   8.131 -0.0951  0.0609  0.3010
  136ACOH    C1 9985   8.221   0.243   8.209 -0.0848 -0.7236  0.0877
  136ACOH    H1 9986   8.299   0.301   8.154 -2.0695  0.9882  0.3741
  136ACOH    H2 9987   8.258   0.144   8.227  3.6338 -1.4391 -1.7578
  136ACOH    H3 9988   8.194   0.295   8.305  0.7286  0.2464 -1.3264
  137ACOH    H4 9989   3.226   4.703   0.903  1.9410 -0.4005 -0.9354
  137ACOH    O2 9990   3.297   4.671   0.850  0.2376  0.3461 -0.4187
  137ACOH    C2 9991   3.313   4.737   0.736 -0.2778  0.1505 -0.1103
  137ACOH    O1 9992   3.244   4.834   0.697  0.1600 -0.0452 -0.2824
  137ACOH    C1 9993   3.426   4.685   0.662  0.5141 -0.1061  0.2377
  137ACOH    H1 9994   3.478   4.603   0.720  2.4530 -3.6185 -0.6325
  137ACOH    H2 9995   3.491   4.768   0.646  1.0466 -1.1520  0.6395
  137ACOH    H3 9996   3.390   4.639   0.569  1.1293 -1.3365  0.6464
  138ACOH    H4 9997   9.473   0.172   0.269  2.2930 -0.5187  0.3725
  138ACOH    O2 9998   9.482   0.242   0.338 -0.1479  0.0570  0.0484
  138ACOH    C2 9999   9.438   0.191   0.451 -0.0334 -0.1000  0.2188
  138ACOH    O110000   9.402   0.077   0.474  0.4596 -0.1098 -0.3515
  138ACOH    C110001   9.396   0.308   0.536  0.2969 -1.3758  0.2319
  138ACOH    H110002   9.322   0.364   0.476  1.4534  2.6582 -0.9891
  138ACOH    H210003   9.486   0.369   0.566  2.6250 -2.7856 -0.6457
  138ACOH    H310004   9.351   0.272   0.629  0.4077  5.0443  0.0678
  139ACOH    H410005   2.239   7.915   7.583  1.4445 -0.1436  0.3657
  139ACOH    O210006   2.285   7.987   7.534 -0.2207  0.4495  0.7879
  139ACOH    C210007   2.367   8.042   7.625 -0.0712 -0.0305  0.2452
  139ACOH    O110008   2.348   8.040   7.748 -0.0200  0.2188 -0.0950
  139ACOH    C110009   2.445   8.146   7.559 -0.4260 -0.3275  0.3020
  139ACOH    H110010   2.546   8.155   7.610  0.9867 -3.0985 -0.3025
  139ACOH    H210011   2.399   8.246   7.556  0.7500  0.0923 -2.0981
  139ACOH    H310012   2.456   8.114   7.454 -1.7905  1.1365 -1.4399
  140ACOH    H410013   9.398   3.761   7.100  3.5805  0.0065  2.1475
  140ACOH    O210014   9.382   3.666   7.084  0.6297  0.4452  0.6136
  140ACOH    C210015   9.496   3.598   7.087 -0.1020  0.7502  0.1870
  140ACOH    O110016   9.605   3.638   7.129 -0.1740  0.1296  0.3729
  140ACOH    C110017   9.471   3.451   7.067 -0.5847 -0.3167  0.4709
  140ACOH    H110018   9.558   3.395   7.075  0.2552  2.1185  0.4160
  140ACOH    H210019   9.429   3.440   6.965 -2.1201  1.1814 -0.6302
  140ACOH    H310020   9.402   3.407   7.130  2.6239  2.4603  0.8252
  141ACOH    H410021   8.641   2.078   0.255  0.0173 -1.6157 -0.5998
  141ACOH    O210022   8.698   2.000   0.233  0.1862  0.2890  0.4106
  141ACOH    C210023   8.706   1.979   0.099 -0.6071  0.3041 -0.5725
  141ACOH    O110024   8.687   2.069   0.021 -0.6525 -0.3985  0.3633
  141ACOH    C110025   8.754   1.838   0.079  0.6142 -0.4805  0.3052
  141ACOH    H110026   8.849   1.816   0.131 -0.1006 -1.3117  1.9279
  141ACOH    H210027   8.775   1.828  -0.024 -0.4786  0.8206 -0.8889
  141ACOH    H310028   8.681   1.766   0.108 -0.3260  2.7499  1.4348
  142ACOH    H410029   2.971   3.478   3.245 -0.5821 -0.6739 -2.4493
  142ACOH    O210030   3.049   3.526   3.206  0.2493 -0.7605 -0.4647
  142ACOH    C210031   3.123   3.572   3.311  0.4470 -0.9122  0.2638
  142ACOH    O110032   3.093   3.567   3.429 -0.2455  0.1875  0.2799
  142ACOH    C110033   3.246   3.640   3.262  0.7454 -0.0355  0.3301
  142ACOH    H110034   3.327   3.571   3.254 -0.3323  0.8794 -0.8441
  142ACOH    H210035   3.263   3.711   3.339 -2.8995 -4.7601 -0.2874
  142ACOH    H310036   3.243   3.694   3.167  0.9036  2.0872 -2.4074
  143ACOH    H410037   8.772   9.438   9.563  0.7240 -0.0911  0.8249
  143ACOH    O210038   8.703   9.373   9.568  0.4276 -0.3034 -0.1637
  143ACOH    C210039   8.639   9.354   9.450  0.6844  0.1694  0.3668
  143ACOH    O110040   8.670   9.409   9.347 -0.4741  0.5586 -0.2524
  143ACOH    C110041   8.538   9.249   9.466  0.8652 -0.2526  0.3065
  143ACOH    H110042   8.524   9.199   9.371 -0.6186  1.7119 -0.4558
  143ACOH    H210043   8.442   9.296   9.495 -0.1597  0.3267  0.5079
  143ACOH    H310044   8.566   9.178   9.545 -1.1933 -0.8503  1.8042
  144ACOH    H410045   4.057   4.440   0.237 -0.3515 -1.8306 -0.4882
  144ACOH    O210046   3.988   4.510   0.233  0.2521 -0.4958  0.0386
  144ACOH    C210047   4.037   4.609   0.158 -0.4873  0.4417 -0.2763
  144ACOH    O110048   4.150   4.616   0.115 -0.6853 -0.1555  0.2005
  144ACOH    C110049   3.945   4.722   0.138 -0.5582 -0.2197  0.6824
  144ACOH    H110050   3.848   4.696   0.177 -3.5448  1.0961 -0.8258
  144ACOH    H210051   3.939   4.742   0.033  2.6508 -0.3193 -0.1123
  144ACOH    H310052   3.978   4.817   0.190  0.1431 -0.2526  0.6976
  145ACOH    H410053   3.427   5.160   2.387 -1.3399  0.0564  4.0621
  145ACOH    O210054   3.425   5.247   2.338 -0.6477 -0.1603 -0.0807
  145ACOH    C210055   3.296   5.258   2.305 -0.4581  0.0524  0.4500
  145ACOH    O110056   3.209   5.174   2.314 -0.4012  0.0657  0.0912
  145ACOH    C110057   3.264   5.383   2.228 -0.6565  0.3492  0.3218
  145ACOH    H110058   3.168   5.371   2.185  2.9916  3.0867 -0.5195
  145ACOH    H210059   3.330   5.401   2.146 -1.5141 -0.4862 -2.0029
  145ACOH    H310060   3.267   5.460   2.300 -1.8635 -2.8818 -0.0931
  146ACOH    H410061   9.606   2.534   2.940  1.0423  2.2705  0.0148
  146ACOH    O210062   9.643   2.505   2.855 -0.0926 -0.0966  0.2611
  146ACOH    C210063   9.684   2.378   2.873  0.5132 -0.1349  0.0006
  146ACOH    O110064   9.685   2.323   2.981 -0.1662 -0.4901  0.1762
  146ACOH    C110065   9.729   2.312   2.743  0.0729 -0.0089  0.4000
  146ACOH    H110066   9.659   2.317   2.656 -1.8188 -2.4884 -1.2488
  146ACOH    H210067   9.741   2.208   2.765 -1.2438  1.9853  0.2752
  146ACOH    H310068   9.820   2.346   2.704 -2.2312 -1.2288  1.1779
  147ACOH    H410069   9.732   2.021   6.282  2.0657 -1.9523  1.4320
  147ACOH    O210070   9.796   1.949   6.298  0.1599 -0.3830 -0.0574
  147ACOH    C210071   9.733   1.838   6.253 -0.1553 -0.5804 -0.0705
  147ACOH    O110072   9.613   1.827   6.238 -0.8903  0.3510  0.5801
  147ACOH    C110073   9.833   1.725   6.249  0.0225  0.5135  0.7038
  147ACOH    H110074   9.824   1.666   6.340 -1.5922 -1.6805  0.9261
  147ACOH    H210075   9.932   1.772   6.239 -1.1662  1.0696  2.8796
  147ACOH    H310076   9.814   1.664   6.159  0.6576 -2.5796 -1.6355
  148ACOH    H410077   8.560   4.052   1.814 -1.8879 -0.9099 -0.2611
  148ACOH    O210078   8.486   4.067   1.877 -0.5773 -0.0231  0.1141
  148ACOH    C210079   8.409   3.957   1.875  0.0756  0.2378  0.1673
  148ACOH    O110080   8.433   3.848   1.822  0.5490 -0.5033 -0.5792
  148ACOH    C110081   8.281   3.992   1.944 -0.4848  0.7666  0.1883
  148ACOH    H110082   8.204   4.012   1.876  2.2099 -0.8759  1.9752
  148ACOH    H210083   8.286   4.084   2.005 -0.0126  2.8269 -1.7144
  148ACOH    H310084   8.251   3.910   2.013 -2.4261 -0.5302  2.0227
  149ACOH    H410085   8.338   3.824   6.004 -1.7052 -0.6516 -1.2391
  149ACOH    O210086   8.393   3.810   5.922 -0.1293  0.6262 -0.6158
  149ACOH    C210087   8.522   3.826   5.952 -0.5045  0.4704  0.2159
  149ACOH    O110088   8.571   3.906   6.027  0.0231 -0.1684 -0.0852
  149ACOH    C110089   8.600   3.760   5.846 -0.0809  0.3786 -0.2021
  149ACOH    H110090   8.648   3.829   5.783  0.0388 -0.8580 -1.8165
  149ACOH    H210091   8.540   3.701   5.773 -0.7051  1.6036 -2.5369
  149ACOH    H310092   8.678   3.696   5.889 -2.5668  0.4589  0.5180
  150ACOH    H410093   0.008   1.937   4.853  0.3233 -0.9485 -1.9997
  150ACOH    O210094   0.070   1.922   4.782 -0.3206  0.2300 -1.1038
  150ACOH    C210095   0.031   1.989   4.673  0.4335 -0.1094  0.3625
  150ACOH    O110096  -0.064   2.066   4.666  0.7477  0.2185  0.2902
  150ACOH    C110097   0.099   1.929   4.558  0.4790  0.5068  0.2788
  150ACOH    H110098   0.089   1.823   4.580  0.2392 -3.9567  1.0162
  150ACOH    H210099   0.207   1.959   4.557  0.7703  0.8724 -0.5768
  150ACOH    H310100   0.049   1.957   4.466  0.3332 -1.5386  2.1208
  151ACOH    H410101   0.780   3.534   8.334  1.9162  1.8888  1.5195
  151ACOH    O210102   0.787   3.441   8.366 -0.4006 -0.1409 -0.4768
  151ACOH    C210103   0.894   3.381   8.313 -0.4438  0.4161 -0.3160
  151ACOH    O110104   0.932   3.387   8.199 -0.1761 -0.7622  0.2573
  151ACOH    C110105   0.913   3.264   8.401  0.5004  0.3882 -0.1846
  151ACOH    H110106   0.891   3.280   8.512 -1.7341  0.3107  0.9215
  151ACOH    H210107   1.014   3.223   8.384 -0.3795  0.6446 -0.4463
  151ACOH    H310108   0.847   3.188   8.378 -1.8536  2.8204 -2.6553
  152ACOH    H410109   0.218   5.906   8.598  0.0893  1.3843 -0.2225
  152ACOH    O210110   0.187   5.951   8.515 -0.0627  0.0018 -0.1602
  152ACOH    C210111   0.292   6.028   8.479 -0.5734 -0.3899 -0.0646
  152ACOH    O110112   0.389   6.058   8.551  0.1963  0.2317 -0.1607
  152ACOH    C110113   0.279   6.108   8.354 -0.3459  0.2691 -0.1194
  152ACOH    H110114   0.244   6.043   8.275  0.0238 -2.8549 -0.3891
  152ACOH    H210115   0.360   6.167   8.317 -3.8207 -0.5147 -1.6303
  152ACOH    H310116   0.186   6.174   8.373 -2.0801 -0.1536 -0.0841
  153ACOH    H410117   7.822   0.460   9.398  0.2217 -0.4774  0.1018
  153ACOH    O210118   7.793   0.548   9.353 -0.1818  0.4177 -0.4485
  153ACOH    C210119   7.656   0.541   9.357  0.0895  0.5129  0.0805
  153ACOH    O110120   7.583   0.472   9.426 -0.3197  0.4105  0.3342
  153ACOH    C110121   7.602   0.652   9.277  0.0143  0.6660  0.6179
  153ACOH    H110122   7.556   0.723   9.342  0.0963  2.2455 -0.8368
  153ACOH    H210123   7.534   0.616   9.208  0.5303 -1.1868 -0.0143
  153ACOH    H310124   7.683   0.701   9.232 -3.1181  1.7672  3.8971
  154ACOH    H410125   8.748   3.682   7.923 -1.2390  0.7518 -0.7926
  154ACOH    O210126   8.739   3.775   7.945  0.3480 -0.0708  0.0522
  154ACOH    C210127   8.849   3.799   8.016 -0.3940  0.6205 -0.4646
  154ACOH    O110128   8.947   3.725   8.024  0.4918 -0.0910 -0.5208
  154ACOH    C110129   8.849   3.933   8.076  0.3836  0.5140  0.8382
  154ACOH    H110130   8.924   3.990   8.018 -1.6470 -0.7941  2.7372
  154ACOH    H210131   8.889   3.927   8.180 -0.4470 -0.2602 -1.4503
  154ACOH    H310132   8.754   3.980   8.068  0.6537 -1.6737 -1.3028
  155ACOH    H410133   8.369   3.259   0.637 -0.1103  0.0775 -0.9643
  155ACOH    O210134   8.313   3.247   0.720 -0.5456  0.0167  0.5761
  155ACOH    C210135   8.216   3.337   0.715  0.4909 -0.0325  0.2024
  155ACOH    O110136   8.185   3.407   0.622  0.8196 -0.1135 -0.1343
  155ACOH    C110137   8.125   3.326   0.830 -0.2182 -0.5018 -0.4443
  155ACOH    H110138   8.027   3.300   0.798  1.2561  1.9696 -1.1817
  155ACOH    H210139   8.109   3.420   0.886  0.8960  0.5937  1.2248
  155ACOH    H310140   8.161   3.263   0.913  1.8060  1.7057 -0.8452
  156ACOH    H410141   2.576   1.556   3.974  1.9897 -0.8904 -0.5884
  156ACOH    O210142   2.496   1.504   3.989 -0.0980 -0.2276  0.3518
  156ACOH    C210143   2.503   1.480   4.123 -0.0030 -0.3626 -0.3169
  156ACOH    O110144   2.598   1.504   4.195 -0.1292  0.1413 -0.0013
  156ACOH    C110145   2.380   1.417   4.179  0.2723 -0.2987 -0.9467
  156ACOH    H110146   2.297   1.491   4.185  1.3493  0.1438 -0.8475
  156ACOH    H210147   2.398   1.376   4.274  0.3098 -1.0891  2.1543
  156ACOH    H310148   2.344   1.343   4.108 -2.1300  0.7822  0.8642
  157ACOH    H410149   3.077   4.016   0.507 -0.1041  1.9749  3.8802
  157ACOH    O210150   3.002   3.976   0.557  0.0660 -0.6433 -0.2205
  157ACOH    C210151   3.014   4.020   0.686  0.1356  0.8317 -0.8977
  157ACOH    O110152   3.042   4.137   0.706  0.0813  0.0754 -0.5175
  157ACOH    C110153   2.934   3.946   0.788  0.7758  0.1075 -0.0252
  157ACOH    H110154   2.992   3.918   0.875  0.7837  3.9126  0.6720
  157ACOH    H210155   2.894   3.857   0.736  0.5645  0.4659 -2.9062
  157ACOH    H310156   2.853   4.010   0.822 -1.9167 -0.7435 -0.8406
  158ACOH    H410157   1.913   5.973   1.159 -0.6554  1.0251 -0.7765
  158ACOH    O210158   1.865   6.009   1.234  0.0850  0.2461  0.4680
  158ACOH    C210159   1.940   6.100   1.293 -0.3205 -0.2903  0.3444
  158ACOH    O110160   2.059   6.115   1.280  0.1874 -0.4966 -0.5759
  158ACOH    C110161   1.864   6.175   1.395  1.2106 -0.6190 -0.9545
  158ACOH    H110162   1.769   6.126   1.412  1.7946  0.5346 -2.4147
  158ACOH    H210163   1.859   6.279   1.364 -0.1201 -0.3263  2.6616
  158ACOH    H310164   1.918   6.178   1.483  3.6034 -0.0770  0.6116
  159ACOH    H410165   7.570   6.534   1.576 -1.2490  0.3038 -0.2014
  159ACOH    O210166   7.625   6.497   1.503 -0.0471  0.5340  0.1222
  159ACOH    C210167   7.690   6.385   1.544 -0.1833  0.4239 -0.1038
  159ACOH    O110168   7.702   6.343   1.659  0.3597 -0.4050  0.2919
  159ACOH    C110169   7.777   6.329   1.437 -0.1977 -0.1703 -0.2008
  159ACOH    H110170   7.863   6.393   1.417  0.9658  1.3704 -2.3176
  159ACOH    H210171   7.717   6.316   1.349 -0.4924  0.1404 -0.1769
  159ACOH    H310172   7.816   6.238   1.468  1.5009  0.5186 -3.1460
  160ACOH    H410173   0.711   4.380   2.109 -1.5654  1.2222  2.5330
  160ACOH    O210174   0.722   4.460   2.163 -0.5277 -0.6063  0.5351
  160ACOH    C210175   0.728   4.561   2.079 -0.3941 -0.2959 -0.4103
  160ACOH    O110176   0.680   4.551   1.967 -0.3702  0.2720 -0.3725
  160ACOH    C110177   0.746   4.689   2.148 -0.6325  0.6752  0.0224
  160ACOH    H110178   0.648   4.724   2.170  0.3967 -0.8305  0.8805
  160ACOH    H210179   0.800   4.765   2.105  1.5465 -1.5506  2.1207
  160ACOH    H310180   0.805   4.654   2.238 -0.3358 -0.8545  0.9881
  161ACOH    H410181   2.311   4.467   2.050 -2.0030 -0.0901 -0.7917
  161ACOH    O210182   2.404   4.481   2.020 -0.3978 -0.0694 -0.5391
  161ACOH    C210183   2.485   4.381   2.058 -0.9002  0.3676  0.4733
  161ACOH    O110184   2.452   4.273   2.101 -0.2307  0.3690 -0.2605
  161ACOH    C110185   2.622   4.413   2.028  0.4483 -0.2745  0.7063
  161ACOH    H110186   2.636   4.509   2.067 -1.0450 -2.2422 -0.7710
  161ACOH    H210187   2.638   4.402   1.923 -2.7514  0.4616  1.0240
  161ACOH    H310188   2.685   4.336   2.074 -1.5748  0.6125 -2.6071
  162ACOH    H410189   0.940   5.745   4.998 -0.8253 -2.6579 -0.0382
  162ACOH    O210190   0.848   5.726   4.964 -0.2752 -0.4663 -0.0251
  162ACOH    C210191   0.843   5.595   4.947  0.1876  0.2170  0.0968
  162ACOH    O110192   0.924   5.513   4.992 -0.1998 -0.1671  0.1714
  162ACOH    C110193   0.720   5.540   4.884  0.2046 -0.4361 -0.0641
  162ACOH    H110194   0.677   5.462   4.950  1.0594 -0.1174 -0.9521
  162ACOH    H210195   0.754   5.506   4.792  1.9623  1.8044  1.2637
  162ACOH    H310196   0.645   5.619   4.865 -1.0548 -0.4855  1.2826
  163ACOH    H410197   3.134   8.766   0.952 -0.7740  0.4502 -3.2553
  163ACOH    O210198   3.191   8.713   0.884 -0.5394 -0.2959 -0.2753
  163ACOH    C210199   3.217   8.807   0.788  0.0666  0.5395 -0.3796
  163ACOH    O110200   3.179   8.925   0.791  0.7848  0.1423  0.0998
  163ACOH    C110201   3.313   8.763   0.685  0.8512 -0.1344 -0.0866
  163ACOH    H110202   3.395   8.826   0.688 -0.9221 -1.1418  0.9147
  163ACOH    H210203   3.255   8.768   0.599 -0.6863 -1.0566  1.9926
  163ACOH    H310204   3.349   8.659   0.712 -1.4504 -0.9146  1.0682
  164ACOH    H410205   8.432   5.378   3.408  0.3165 -2.1660 -2.5299
  164ACOH    O210206   8.340   5.407   3.376  0.0637 -0.5601 -0.2000
  164ACOH    C210207   8.250   5.346   3.460  0.0007  0.5239 -0.0129
  164ACOH    O110208   8.264   5.233   3.504 -0.3582  0.1509 -0.2103
  164ACOH    C110209   8.118   5.411   3.463  0.2643 -0.2512 -0.2269
  164ACOH    H110210   8.111   5.491   3.539 -1.4418  1.3199 -1.4787
  164ACOH    H210211   8.031   5.342   3.483 -1.7918  2.3240 -0.7133
  164ACOH    H310212   8.105   5.470   3.376 -1.3964  0.9100  0.5506
  165ACOH    H410213   2.301   5.435   3.169 -0.9492 -1.7232 -1.2616
  165ACOH    O210214   2.386   5.463   3.126  0.0986 -0.0875 -0.1140
  165ACOH    C210215   2.339   5.566   3.046 -0.4429  1.0307  0.5114
  165ACOH    O110216   2.227   5.607   3.046 -0.3585  0.9746 -0.4619
  165ACOH    C110217   2.447   5.630   2.967  0.9229  0.4359  0.2161
  165ACOH    H110218   2.475   5.724   3.015 -0.2530  0.7742  0.2956
  165ACOH    H210219   2.402   5.652   2.869  2.7656 -2.5136 -0.8529
  165ACOH    H310220   2.530   5.561   2.950  1.3540 -1.3840  1.5032
  166ACOH    H410221   9.658   2.607   3.762 -0.2733  0.4055  0.6775
  166ACOH    O210222   9.583   2.635   3.819  0.1553 -0.4695 -0.4659
  166ACOH    C210223   9.567   2.770   3.825 -0.3117 -0.7525  0.6824
  166ACOH    O110224   9.630   2.851   3.756 -0.1286  0.9227  0.3330
  166ACOH    C110225   9.468   2.815   3.922 -0.2465  0.1973  0.2899
  166ACOH    H110226   9.500   2.820   4.025  3.2709  1.0022 -1.4412
  166ACOH    H210227   9.393   2.739   3.929  0.8416  4.1905  0.0014
  166ACOH    H310228   9.427   2.904   3.878  2.5799  1.7060 -1.1509
  167ACOH    H410229   2.651   6.426   5.480 -1.7139  2.2299 -4.1389
  167ACOH    O210230   2.749   6.410   5.485  0.0795  0.0040 -0.1259
  167ACOH    C210231   2.776   6.281   5.506  0.4151 -0.1261 -0.4776
  167ACOH    O110232   2.691   6.207   5.554  0.0945  0.5331 -0.5157
  167ACOH    C110233   2.923   6.256   5.512 -0.2292 -0.0262  0.5356
  167ACOH    H110234   2.950   6.150   5.516  0.4706  1.5658  0.8026
  167ACOH    H210235   2.983   6.310   5.584  0.5328  0.0186  0.5581
  167ACOH    H310236   2.957   6.290   5.413  0.8774 -0.2144  1.2726
  168ACOH    H410237   2.131   3.081   7.514 -0.0349 -0.5950 -0.3306
  168ACOH    O210238   2.121   3.092   7.611  0.5202  0.3433  0.0427
  168ACOH    C210239   2.206   3.022   7.681  0.4754  0.1532  0.4572
  168ACOH    O110240   2.292   2.947   7.634 -0.0654 -0.6933  0.5914
  168ACOH    C110241   2.174   3.032   7.831  0.0291 -1.1275  0.7727
  168ACOH    H110242   2.108   2.953   7.858  1.0262 -2.3162 -1.6118
  168ACOH    H210243   2.125   3.124   7.854  2.6324 -1.8935  0.4865
  168ACOH    H310244   2.266   3.024   7.887 -0.5165 -0.3912 -1.6907
  169ACOH    H410245   9.836   3.513   6.049  0.1265 -0.8698 -2.4926
  169ACOH    O210246   9.882   3.562   6.123 -0.0814  0.3103  0.1796
  169ACOH    C210247   9.883   3.685   6.083  0.5534  0.2851  0.7451
  169ACOH    O110248   9.877   3.709   5.961 -0.4481  0.2137 -0.1218
  169ACOH    C110249   9.943   3.775   6.181  0.4328 -0.5768 -0.9067
  169ACOH    H110250   9.928   3.727   6.275  1.1506  1.0848 -1.1557
  169ACOH    H210251   9.883   3.863   6.179 -0.1535  0.0157 -2.0683
  169ACOH    H310252  10.046   3.800   6.160  0.0122 -2.9170  1.1334
  170ACOH    H410253   8.885   5.260   5.320 -0.2229 -0.5364 -0.3833
  170ACOH    O210254   8.930   5.320   5.386  0.1176  0.1459  0.4520
  170ACOH    C210255   9.063   5.302   5.377  0.3375 -0.8652 -0.7473
  170ACOH    O110256   9.117   5.211   5.312 -0.1317  0.0654  0.5522
  170ACOH    C110257   9.142   5.388   5.466 -0.4432 -0.5563  0.7206
  170ACOH    H110258   9.085   5.469   5.514  2.7957 -2.2555 -0.1540
  170ACOH    H210259   9.225   5.433   5.416  1.2718 -0.4175  2.6753
  170ACOH    H310260   9.185   5.327   5.549  0.8152  2.9973  0.6373
  171ACOH    H410261   8.955   6.039   4.999  4.9359  0.4038 -1.7093
  171ACOH    O210262   8.877   6.013   4.942  0.1496  0.0669  0.0477
  171ACOH    C210263   8.853   5.886   4.975  0.7564  0.0588 -0.0543
  171ACOH    O110264   8.925   5.815   5.040 -0.4773  0.1618 -0.1607
  171ACOH    C110265   8.724   5.849   4.909  0.4951  0.4320  0.4245
  171ACOH    H110266   8.756   5.765   4.840  0.1682  3.5942 -0.2619
  171ACOH    H210267   8.697   5.932   4.850  0.8302  1.2297  0.2252
  171ACOH    H310268   8.653   5.829   4.981 -0.8894  2.4390  2.9596
  172ACOH    H410269   9.959   4.734   6.935 -2.6963 -2.5794 -0.6807
  172ACOH    O210270  10.001   4.827   6.920 -0.0217  0.4744 -0.0897
  172ACOH    C210271  10.111   4.800   6.849  0.1103  0.9141  0.4708
  172ACOH    O110272  10.172   4.700   6.841 -0.5776  0.7668 -0.1656
  172ACOH    C110273  10.180   4.921   6.792 -0.2594  0.3090  0.3374
  172ACOH    H110274  10.273   4.891   6.731 -1.5527 -0.3789 -3.6306
  172ACOH    H210275  10.208   4.982   6.876  1.5671 -1.3930  1.5167
  172ACOH    H310276  10.119   4.987   6.730  1.4680  0.4715 -0.6719
  173ACOH    H410277   0.796   2.850   0.209 -1.6144 -2.1130 -0.3708
  173ACOH    O210278   0.867   2.818   0.146 -0.2062  0.2987  0.4476
  173ACOH    C210279   0.909   2.929   0.083 -0.8508 -0.2870  0.7223
  173ACOH    O110280   0.902   3.039   0.132 -0.5454 -0.0127  0.0832
  173ACOH    C110281   0.991   2.890  -0.035 -0.5441  0.1023 -0.6325
  173ACOH    H110282   1.065   2.804  -0.018  2.1036 -1.4785 -0.1271
  173ACOH    H210283   1.038   2.984  -0.071  0.7589  1.2483  1.9802
  173ACOH    H310284   0.920   2.853  -0.109 -0.2372  0.4755 -2.4315
  174ACOH    H410285   9.313   4.735   9.283  0.0643 -1.5503 -0.5554
  174ACOH    O210286   9.363   4.813   9.294  0.4207  0.4152  0.0889
  174ACOH    C210287   9.489   4.786   9.305 -0.2770  0.1399 -0.4123
  174ACOH    O110288   9.535   4.672   9.323 -0.3115 -0.5221  0.5655
  174ACOH    C110289   9.589   4.894   9.320 -0.0335  0.1348  0.3877
  174ACOH    H110290   9.647   4.873   9.412  2.1516  0.2765  0.8730
  174ACOH    H210291   9.538   4.989   9.322  2.9975 -0.8246 -3.2212
  174ACOH    H310292   9.651   4.890   9.235 -1.9459  2.1459  2.7642
  175ACOH    H410293   9.924   2.015   9.724 -0.9129  2.3555  0.3438
  175ACOH    O210294   9.952   1.930   9.683  0.1387  0.0650 -0.1614
  175ACOH    C210295   9.835   1.894   9.629  0.2729  0.3288  0.5544
  175ACOH    O110296   9.731   1.958   9.637 -0.7475 -0.5046  0.0111
  175ACOH    C110297   9.861   1.762   9.571  0.4684 -0.1164 -0.1760
  175ACOH    H110298   9.893   1.675   9.632  1.1649 -2.8953 -0.8858
  175ACOH    H210299   9.941   1.780   9.503 -1.5454 -1.7818  1.9901
  175ACOH    H310300   9.765   1.728   9.525  0.9265 -0.5795  1.5239
  176ACOH    H410301   2.706   4.161   3.421  2.7964  2.0600  0.3319
  176ACOH    O210302   2.635   4.158   3.353  0.5696  0.0665 -0.1357
  176ACOH    C210303   2.687   4.100   3.245 -0.2674  1.1066  0.0248
  176ACOH    O110304   2.805   4.080   3.222 -0.2328 -0.2844 -0.1762
  176ACOH    C110305   2.586   4.081   3.139 -0.6550 -0.5959  0.3564
  176ACOH    H110306   2.491   4.086   3.177  0.4552  1.6328 -1.4002
  176ACOH    H210307   2.589   3.982   3.099 -2.2378 -0.5482  3.5326
  176ACOH    H310308   2.585   4.155   3.055  1.2669  1.5542  0.8873
  177ACOH    H410309   9.502   5.031   0.076 -0.1727  0.3745  0.8933
  177ACOH    O210310   9.444   5.069   0.006 -0.2620 -0.3656 -0.0348
  177ACOH    C210311   9.321   5.064   0.058  0.0115 -0.4936 -0.1288
  177ACOH    O110312   9.286   4.995   0.154 -0.1065 -0.3806 -0.3491
  177ACOH    C110313   9.232   5.126  -0.039  0.5105 -0.3562  0.5949
  177ACOH    H110314   9.233   5.066  -0.128 -1.2426 -1.0229  2.2270
  177ACOH    H210315   9.267   5.226  -0.051  0.8413 -3.9380 -0.5952
  177ACOH    H310316   9.124   5.128  -0.008  0.6291 -0.7376  0.0284
  178ACOH    H410317   1.598   7.144   9.235  1.2991  4.5503  0.5558
  178ACOH    O210318   1.527   7.173   9.290 -0.4877  0.3254  0.0470
  178ACOH    C210319   1.422   7.100   9.248  0.4336 -0.9167 -0.5882
  178ACOH    O110320   1.410   7.040   9.140  0.0179  0.4996  0.4256
  178ACOH    C110321   1.305   7.135   9.332  0.0442  0.1898  0.3598
  178ACOH    H110322   1.341   7.185   9.426 -0.2009 -3.4209  0.7468
  178ACOH    H210323   1.261   7.040   9.359  2.9777 -1.9650 -0.8100
  178ACOH    H310324   1.238   7.183   9.271  0.5850 -2.4365 -0.1470
  179ACOH    H410325   8.801   6.123   0.832 -3.7640 -1.6488 -1.3337
  179ACOH    O210326   8.712   6.119   0.797 -0.1645  0.9773 -0.3819
  179ACOH    C210327   8.719   6.207   0.697 -0.4773 -0.3003 -0.5568
  179ACOH    O110328   8.816   6.231   0.632  0.1801  0.3183 -0.3581
  179ACOH    C110329   8.592   6.236   0.632  0.2661 -1.0519  0.1272
  179ACOH    H110330   8.545   6.321   0.679 -1.6269  0.0627  0.5638
  179ACOH    H210331   8.522   6.161   0.642 -0.4968  4.5136  2.9624
  179ACOH    H310332   8.601   6.259   0.526  0.3972 -2.9719 -1.5646
  180ACOH    H410333   8.827   5.095   0.191 -1.0704 -1.0523 -0.4975
  180ACOH    O210334   8.771   5.149   0.129  0.0748  0.4039 -0.0160
  180ACOH    C210335   8.798   5.275   0.159 -0.1401  0.6362 -0.1161
  180ACOH    O110336   8.865   5.315   0.254  0.1121 -0.0506 -0.0310
  180ACOH    C110337   8.740   5.359   0.053 -0.2031  0.3086  0.1298
  180ACOH    H110338   8.742   5.313  -0.047 -1.0750  0.0405  0.1935
  180ACOH    H210339   8.805   5.442   0.048 -2.6729  1.1103 -2.8022
  180ACOH    H310340   8.639   5.378   0.075 -0.7142 -1.6139  1.1915
  181ACOH    H410341   9.030   9.664   2.304 -1.4659 -3.3202  1.2630
  181ACOH    O210342   9.031   9.567   2.299 -0.5758  0.0093 -0.0186
  181ACOH    C210343   9.109   9.521   2.198  0.1770 -0.5908 -0.0927
  181ACOH    O110344   9.178   9.588   2.124  0.1509  0.7675  0.2976
  181ACOH    C110345   9.112   9.375   2.201  0.5077 -0.0511 -0.0202
  181ACOH    H110346   9.208   9.334   2.236 -0.1680  3.2837 -0.3895
  181ACOH    H210347   9.085   9.336   2.105 -1.2791  0.9515  2.0612
  181ACOH    H310348   9.035   9.331   2.267 -2.0982  0.0705 -1.8579
  182ACOH    H410349   0.817   6.578   5.025  1.8276  2.2854 -1.1506
  182ACOH    O210350   0.835   6.650   4.965 -0.0021  0.1669 -0.2118
  182ACOH    C210351   0.780   6.622   4.843 -0.8433 -0.2880 -0.1295
  182ACOH    O110352   0.766   6.512   4.796 -0.0920 -0.0670  0.1401
  182ACOH    C110353   0.755   6.738   4.754  0.3129  0.0372  0.4867
  182ACOH    H110354   0.706   6.819   4.796  1.7560 -1.7630 -1.5653
  182ACOH    H210355   0.684   6.710   4.675  0.4705  1.3887 -0.3977
  182ACOH    H310356   0.845   6.768   4.704 -0.7584 -0.1647  3.3727
  183ACOH    H410357   0.785   7.745   6.948 -1.2742  1.9769 -0.9065
  183ACOH    O210358   0.764   7.645   6.936  0.4715  0.0321 -0.9390
  183ACOH    C210359   0.884   7.571   6.955  0.6639 -0.0880 -0.0216
  183ACOH    O110360   0.999   7.618   6.968  0.5763 -0.6693  0.2057
  183ACOH    C110361   0.875   7.427   6.930  0.0043  0.1277  0.3599
  183ACOH    H110362   0.778   7.402   6.971 -2.1019 -1.0920  0.7458
  183ACOH    H210363   0.954   7.381   6.987 -1.0681  1.0455 -1.8786
  183ACOH    H310364   0.882   7.391   6.825  3.4359 -0.9124  1.6167
  184ACOH    H410365   0.427   8.162   5.236  0.3934 -2.2958  0.3816
  184ACOH    O210366   0.473   8.179   5.325 -0.1301  0.0587 -0.1113
  184ACOH    C210367   0.517   8.302   5.333 -0.1721  0.0923 -0.3714
  184ACOH    O110368   0.597   8.331   5.419  0.1687  0.0143 -0.5625
  184ACOH    C110369   0.449   8.394   5.238  0.1624 -0.7784 -0.1355
  184ACOH    H110370   0.486   8.495   5.265  1.4271 -1.6408  1.6639
  184ACOH    H210371   0.336   8.392   5.249 -3.4672 -0.7747 -2.3540
  184ACOH    H310372   0.468   8.373   5.134  0.6794  0.7947  1.5550
  185ACOH    H410373   9.252   6.639   1.765 -1.1843 -0.0282 -1.0815
  185ACOH    O210374   9.155   6.652   1.741  0.4218  0.3002  0.0543
  185ACOH    C210375   9.083   6.710   1.840 -0.8215 -0.3656  0.0913
  185ACOH    O110376   9.129   6.770   1.939 -0.5332  0.4188  0.1876
  185ACOH    C110377   8.947   6.735   1.787  1.1193 -0.1442  0.2226
  185ACOH    H110378   8.911   6.651   1.723 -0.8596  1.3492 -0.0769
  185ACOH    H210379   8.945   6.831   1.730  0.0209 -2.5511 -0.5730
  185ACOH    H310380   8.886   6.741   1.878 -0.5141  3.7853 -0.0569
  186ACOH    H410381   2.342   8.891   9.275 -0.1834  2.6267  0.1872
  186ACOH    O210382   2.302   8.920   9.189  0.1108 -0.6837 -0.4305
  186ACOH    C210383   2.229   8.812   9.155 -0.1589  0.2686  0.1860
  186ACOH    O110384   2.258   8.695   9.167  0.2222  0.3573 -0.0097
  186ACOH    C110385   2.130   8.849   9.049 -0.2599 -0.0547 -0.3771
  186ACOH    H110386   2.166   8.919   8.975 -3.7221 -0.2276  0.5377
  186ACOH    H210387   2.045   8.889   9.085  2.7158 -1.6312  1.7363
  186ACOH    H310388   2.099   8.762   8.999  3.2957 -0.9270  2.8220
  187ACOH    H410389   9.070   7.822   9.132 -2.2171  0.5795  0.8098
  187ACOH    O210390   9.118   7.843   9.216  0.6731 -0.3981 -0.0946
  187ACOH    C210391   9.178   7.734   9.248  0.1935  0.5056  0.1804
  187ACOH    O110392   9.171   7.618   9.204  0.3410 -0.6635  0.0691
  187ACOH    C110393   9.269   7.761   9.358 -1.1449 -0.0300  0.3296
  187ACOH    H110394   9.227   7.773   9.454 -0.0906  1.2255 -2.4287
  187ACOH    H210395   9.305   7.858   9.333 -1.9330 -1.7242 -0.3863
  187ACOH    H310396   9.348   7.687   9.361  0.6950 -0.2238 -0.2382
  188ACOH    H410397   1.358   4.749   8.679  0.3486 -2.5474  1.2361
  188ACOH    O210398   1.454   4.736   8.706  0.6417  0.3244  0.1155
  188ACOH    C210399   1.503   4.656   8.607 -0.3784 -0.5244  0.6839
  188ACOH    O110400   1.455   4.641   8.501  0.5418  0.2572  0.1328
  188ACOH    C110401   1.638   4.610   8.637  0.6550  0.4960 -0.0369
  188ACOH    H110402   1.697   4.690   8.683  2.4738  0.1181  1.3048
  188ACOH    H210403   1.684   4.579   8.542 -0.1834 -0.5260 -0.6198
  188ACOH    H310404   1.614   4.532   8.712  1.0150  0.2335  0.9622
  189ACOH    H410405   4.040   5.686   0.769  0.5872  1.9180  2.3998
  189ACOH    O210406   3.997   5.700   0.679 -0.5022 -0.1208  0.2039
  189ACOH    C210407   4.095   5.703   0.587  0.0913  0.3274  0.3607
  189ACOH    O110408   4.204   5.645   0.589 -0.2153  1.2471 -0.0501
  189ACOH    C110409   4.049   5.772   0.463  0.0934  0.1517 -0.3470
  189ACOH    H110410   3.955   5.824   0.476  1.6086  1.1227 -3.1682
  189ACOH    H210411   4.033   5.694   0.388  0.8261  0.1566  2.2498
  189ACOH    H310412   4.130   5.833   0.423 -0.2899  1.4447  0.5700
  190ACOH    H410413   2.011   7.139   0.095  1.4013 -1.2924 -1.6978
  190ACOH    O210414   2.051   7.162   0.189  0.1931  0.1003 -0.0637
  190ACOH    C210415   2.179   7.192   0.158 -0.1334 -0.7945  0.1077
  190ACOH    O110416   2.221   7.213   0.044  0.1665  0.4601 -0.3723
  190ACOH    C110417   2.258   7.203   0.281  0.5895  0.1567  0.1830
  190ACOH    H110418   2.356   7.241   0.252  1.6215  0.3549  1.9782
  190ACOH    H210419   2.264   7.104   0.327  2.6225  0.2850 -0.6104
  190ACOH    H310420   2.205   7.272   0.350 -0.0547 -1.2352  0.2201
  191ACOH    H410421   5.204   4.124   8.089  3.2839  0.6057 -1.3677
  191ACOH    O210422   5.192   4.070   8.007  0.0681  0.1744 -0.6244
  191ACOH    C210423   5.111   3.965   8.030 -0.4820 -0.4001 -0.2700
  191ACOH    O110424   5.075   3.931   8.138  0.2346  0.3894  0.1983
  191ACOH    C110425   5.097   3.887   7.905 -0.2235  0.3467 -0.5332
  191ACOH    H110426   4.997   3.846   7.890 -2.5367  2.1256 -0.4182
  191ACOH    H210427   5.152   3.797   7.910  1.6010  1.0478  1.2048
  191ACOH    H310428   5.131   3.941   7.823  1.2510  3.8811  0.8231
  192ACOH    H410429   0.133   8.158   1.341  1.4720  1.5448  0.1083
  192ACOH    O210430   0.096   8.200   1.418  0.4517  0.6179 -0.0181
  192ACOH    C210431   0.125   8.327   1.415  0.1192 -0.1969  0.0386
  192ACOH    O110432   0.150   8.390   1.314  0.7038 -0.2142  0.2217
  192ACOH    C110433   0.109   8.405   1.544 -0.7437 -0.3657 -0.3187
  192ACOH    H110434   0.085   8.334   1.628  1.4277 -3.2156 -2.6838
  192ACOH    H210435   0.032   8.481   1.541 -0.6301 -1.6213 -0.6754
  192ACOH    H310436   0.208   8.447   1.573 -0.8298  1.5087 -1.2105
  193ACOH    H410437   2.376   6.641   0.424  1.0012  2.0615  0.7760
  193ACOH    O210438   2.413   6.695   0.348 -0.1863  0.1678 -0.1682
  193ACOH    C210439   2.327   6.794   0.322 -0.0762  0.0098  0.6514
  193ACOH    O110440   2.226   6.825   0.386  0.5122 -0.1844 -0.0348
  193ACOH    C110441   2.364   6.866   0.203 -0.5979 -0.7224  1.3634
  193ACOH    H110442   2.385   6.799   0.125  0.1436 -1.1886  0.1204
  193ACOH    H210443   2.459   6.917   0.227  0.0852 -0.8513 -0.2970
  193ACOH    H310444   2.304   6.946   0.166  1.2625  1.8163  0.4545
  194ACOH    H410445   1.284   5.925   1.141 -0.7042 -0.0983 -2.1060
  194ACOH    O210446   1.256   5.835   1.172 -0.0731  0.3237 -0.1457
  194ACOH    C210447   1.140   5.820   1.100 -0.1625 -0.0621  0.3453
  194ACOH    O110448   1.080   5.913   1.038 -0.2433 -0.1107 -0.1093
  194ACOH    C110449   1.079   5.688   1.090  0.1938 -0.1445  0.2058
  194ACOH    H110450   1.125   5.631   1.171 -0.0761  2.7147  0.7589
  194ACOH    H210451   1.102   5.646   0.994 -2.1964 -3.3504  1.8348
  194ACOH    H310452   0.971   5.682   1.122 -0.7553 -0.2249  1.8064
  195ACOH    H410453   2.001   7.521   0.121  2.1908  0.1067 -0.8021
  195ACOH    O210454   1.902   7.550   0.132  0.2452  0.3459  0.0523
  195ACOH    C210455   1.813   7.495   0.042  0.1146 -0.1516  0.0981
  195ACOH    O110456   1.828   7.489  -0.081  0.5217  0.4384 -0.2531
  195ACOH    C110457   1.676   7.500   0.103 -0.4177 -0.8238 -0.6058
  195ACOH    H110458   1.593   7.509   0.036  0.6212  0.2634 -0.3529
  195ACOH    H210459   1.670   7.588   0.164 -1.0548  2.0400 -1.2603
  195ACOH    H310460   1.656   7.412   0.151 -0.5805  2.2827 -2.9197
  196ACOH    H410461   1.686   6.350   1.030  2.6419  0.6225 -0.2351
  196ACOH    O210462   1.590   6.372   1.030 -0.1005  0.2330 -0.4303
  196ACOH    C210463   1.565   6.456   1.128  0.1426  0.9340 -0.3232
  196ACOH    O110464   1.646   6.509   1.201  0.6216  0.0939 -0.4694
  196ACOH    C110465   1.423   6.482   1.143 -0.6840 -0.7848 -0.3749
  196ACOH    H110466   1.407   6.455   1.248  2.6486 -1.1215  1.5082
  196ACOH    H210467   1.365   6.415   1.088 -1.3270 -0.4580  0.0611
  196ACOH    H310468   1.402   6.590   1.116  3.2362  0.6857 -0.3099
  197ACOH    H410469   0.287   9.119   2.496 -1.2236  0.6399  2.7685
  197ACOH    O210470   0.343   9.199   2.494  0.3782  0.1213  0.0415
  197ACOH    C210471   0.454   9.174   2.430 -0.3930 -0.7813  0.2868
  197ACOH    O110472   0.496   9.067   2.391 -0.0292  0.6062 -0.4699
  197ACOH    C110473   0.543   9.292   2.418  0.1491  0.4067 -0.4500
  197ACOH    H110474   0.541   9.342   2.514  1.6469  0.6936  0.9391
  197ACOH    H210475   0.509   9.358   2.339  0.0440  0.3849  0.9659
  197ACOH    H310476   0.642   9.268   2.393  0.1928  2.1918 -2.5206
  198ACOH    H410477   9.432   7.516   2.153 -1.0827  0.9582  0.8465
  198ACOH    O210478   9.405   7.571   2.231  0.5232  0.5567 -0.4510
  198ACOH    C210479   9.300   7.646   2.194 -1.0166  0.1483 -0.8472
  198ACOH    O110480   9.249   7.658   2.085 -0.1409  0.1308  0.4037
  198ACOH    C110481   9.261   7.740   2.302  0.7355 -0.7733 -0.4612
  198ACOH    H110482   9.155   7.722   2.318  1.8878 -4.4371  1.5622
  198ACOH    H210483   9.276   7.842   2.274 -1.1724  1.3885  0.4671
  198ACOH    H310484   9.312   7.708   2.397 -0.3318 -1.9965 -1.0081
  199ACOH    H410485   9.564   7.872   0.662  2.3101 -1.0663 -2.4659
  199ACOH    O210486   9.563   7.812   0.743 -0.4355  0.1493 -0.0240
  199ACOH    C210487   9.439   7.788   0.773  0.5123 -0.7447 -0.0277
  199ACOH    O110488   9.344   7.837   0.713 -0.6399  0.2777  0.2213
  199ACOH    C110489   9.419   7.712   0.897  0.2024 -0.3874 -0.1153
  199ACOH    H110490   9.312   7.690   0.909 -1.5556  1.3882 -0.5653
  199ACOH    H210491   9.461   7.774   0.973 -3.8503  0.2433 -1.3896
  199ACOH    H310492   9.480   7.624   0.903 -0.5207 -0.8102  0.4540
  200ACOH    H410493   2.157   9.387   2.222  2.3388  1.1261 -0.1379
  200ACOH    O210494   2.138   9.341   2.310 -0.4152  0.2952  0.1317
  200ACOH    C210495   2.242   9.259   2.332 -0.6419 -0.3335 -0.2129
  200ACOH    O110496   2.322   9.220   2.246 -0.8670  0.4929 -0.0645
  200ACOH    C110497   2.232   9.190   2.462  0.6719  0.6175  0.6355
  200ACOH    H110498   2.320   9.214   2.515 -0.4725  1.9030  0.7207
  200ACOH    H210499   2.214   9.078   2.452 -0.9847 -2.7034 -0.4293
  200ACOH    H310500   2.147   9.230   2.516 -0.3681  1.1023 -0.1087
  201ACOH    H410501   3.440   9.297   8.125 -0.0889  1.3660  1.2443
  201ACOH    O210502   3.473   9.328   8.035 -0.2693 -0.1649 -0.0467
  201ACOH    C210503   3.591   9.388   8.058  0.1665 -0.2717  0.2288
  201ACOH    O110504   3.658   9.398   8.162  0.1459 -0.5622 -0.5406
  201ACOH    C110505   3.631   9.444   7.924 -0.5867 -0.4205  0.5245
  201ACOH    H110506   3.553   9.515   7.890  0.0514  0.1155 -1.6770
  201ACOH    H210507   3.652   9.369   7.846  1.3898  1.4400  1.5686
  201ACOH    H310508   3.725   9.497   7.929  1.2312  0.5321 -1.1166
  202ACOH    H410509   0.970   9.642   2.562 -0.7695 -2.6663  2.0487
  202ACOH    O210510   0.972   9.547   2.599  0.0809  0.3049  0.2100
  202ACOH    C210511   0.881   9.466   2.537 -0.3405  0.2758 -0.9974
  202ACOH    O110512   0.800   9.503   2.458  0.7707 -0.0949  0.0377
  202ACOH    C110513   0.887   9.322   2.584 -0.0648  0.4920 -0.4778
  202ACOH    H110514   0.889   9.327   2.698 -0.0427  0.1074  2.2538
  202ACOH    H210515   0.980   9.271   2.556  0.1079 -0.4940  1.0619
  202ACOH    H310516   0.810   9.267   2.549  0.4784 -1.5030  2.5635
  203ACOH    H410517   4.045   9.222   3.772 -0.4096 -2.2333  0.4947
  203ACOH    O210518   4.129   9.214   3.819  0.5119  0.0173  0.0175
  203ACOH    C210519   4.228   9.291   3.765 -1.1361 -0.0723 -0.3200
  203ACOH    O110520   4.208   9.391   3.697 -0.4674 -0.5876  0.3231
  203ACOH    C110521   4.350   9.263   3.835  0.1367 -0.3222 -0.2075
  203ACOH    H110522   4.350   9.165   3.879  1.3559 -2.3263  0.4303
  203ACOH    H210523   4.353   9.338   3.914  2.6549 -0.1162 -2.1771
  203ACOH    H310524   4.436   9.275   3.758  2.5631  0.5307  0.9504
  204ACOH    H410525   1.260   6.463   5.820  0.3648 -4.2885  0.1635
  204ACOH    O210526   1.302   6.461   5.738  0.0323  0.1813 -0.2061
  204ACOH    C210527   1.204   6.502   5.650 -0.5560  0.4400  0.0674
  204ACOH    O110528   1.102   6.561   5.679  0.3312 -0.4292 -0.5786
  204ACOH    C110529   1.238   6.473   5.508 -0.4965  0.1499  0.3683
  204ACOH    H110530   1.149   6.420   5.476 -0.3068  0.9374 -1.2637
  204ACOH    H210531   1.321   6.404   5.498  0.0801  0.9203  1.1627
  204ACOH    H310532   1.248   6.561   5.449 -1.8649  0.1457 -0.8228
  205ACOH    H410533   2.490   9.036   8.291  0.3177  0.3007  2.2463
  205ACOH    O210534   2.532   9.040   8.202 -0.0788 -0.0887 -0.2454
  205ACOH    C210535   2.475   8.942   8.128 -0.2119  0.1466  0.6508
  205ACOH    O110536   2.423   8.841   8.168  0.2898  0.9475 -0.4821
  205ACOH    C110537   2.520   8.959   7.985 -0.1688 -0.2836 -0.9387
  205ACOH    H110538   2.465   8.888   7.920 -1.0188  0.9190  0.4971
  205ACOH    H210539   2.626   8.954   7.982 -0.8155  0.8271  1.2571
  205ACOH    H310540   2.495   9.065   7.951 -0.5073  0.6786  0.5702
  206ACOH    H410541   8.740   9.968   9.510 -0.3546  0.2561 -1.2362
  206ACOH    O210542   8.681   9.925   9.580 -0.2606  0.3904 -0.1360
  206ACOH    C210543   8.701   9.798   9.568 -0.5156 -0.2632  0.7387
  206ACOH    O110544   8.763   9.738   9.480 -0.1342 -0.1594 -0.3513
  206ACOH    C110545   8.663   9.724   9.693 -0.0364 -0.0537 -0.1651
  206ACOH    H110546   8.711   9.630   9.713 -0.8510  1.3979  1.9898
  206ACOH    H210547   8.557   9.707   9.695  2.3277 -0.3902 -0.0891
  206ACOH    H310548   8.686   9.783   9.777 -0.6088  0.3482  1.7928
  207ACOH    H410549   2.606   8.562   9.236 -0.0910 -1.5868 -2.0361
  207ACOH    O210550   2.560   8.571   9.151 -0.1867 -0.2815 -0.6391
  207ACOH    C210551   2.553   8.700   9.114 -0.6819 -0.3212 -0.0536
  207ACOH    O110552   2.586   8.800   9.174 -0.1705  0.1917 -0.2233
  207ACOH    C110553   2.522   8.702   8.966 -0.5262  0.6355 -0.3000
  207ACOH    H110554   2.612   8.740   8.912  0.1929 -1.3165 -2.1284
  207ACOH    H210555   2.431   8.764   8.948 -1.0501 -0.5746  1.0856
  207ACOH    H310556   2.493   8.600   8.933 -0.4318  0.8654 -1.6939
  208ACOH    H410557   0.072   6.807   2.456  2.1441  0.1882 -0.1225
  208ACOH    O210558   0.040   6.797   2.365 -0.2510 -0.1798  0.5344
  208ACOH    C210559  -0.027   6.679   2.356  0.0426 -0.0259  0.2012
  208ACOH    O110560  -0.013   6.580   2.431  0.3899  0.2589  0.0544
  208ACOH    C110561  -0.084   6.653   2.228  0.1317  0.0295  0.0996
  208ACOH    H110562  -0.037   6.694   2.134  1.3627 -0.9813 -1.6116
  208ACOH    H210563  -0.185   6.697   2.217 -0.1481  0.1943 -1.8457
  208ACOH    H310564  -0.090   6.547   2.212 -1.3140  1.7614  2.4869
  209ACOH    H410565   0.473   6.392   8.213  2.4850 -1.6403  0.3828
  209ACOH    O210566   0.400   6.359   8.146 -0.3344  0.3956  0.2125
  209ACOH    C210567   0.280   6.411   8.179  0.3535 -0.3229  0.1574
  209ACOH    O110568   0.254   6.495   8.264 -0.3872  0.4369 -0.5098
  209ACOH    C110569   0.176   6.359   8.087 -0.0619 -0.4241 -0.1008
  209ACOH    H110570   0.088   6.431   8.075 -0.2287  0.4359 -0.7250
  209ACOH    H210571   0.145   6.257   8.124 -0.6992 -0.7732 -0.9051
  209ACOH    H310572   0.230   6.334   7.995  1.4020  0.7645  2.3573
  210ACOH    H410573   2.619   0.176   8.824 -0.8083  1.9004 -0.0051
  210ACOH    O210574   2.535   0.160   8.780 -0.3126 -0.3513  0.4752
  210ACOH    C210575   2.531   0.037   8.723 -0.1185 -0.2979 -1.5954
  210ACOH    O110576   2.623  -0.041   8.726  0.2760  0.4570  0.5184
  210ACOH    C110577   2.402   0.013   8.646 -0.0446 -0.1230 -0.5303
  210ACOH    H110578   2.380  -0.093   8.623 -1.4938 -0.6969 -2.3901
  210ACOH    H210579   2.406   0.069   8.560  1.8690 -0.0779  1.1295
  210ACOH    H310580   2.322   0.047   8.701  0.3530 -4.2063  1.6969
  211ACOH    H410581   0.541   6.864   1.515  2.4168 -0.0262 -0.8884
  211ACOH    O210582   0.499   6.827   1.596  0.0287  0.3290 -0.0786
  211ACOH    C210583   0.559   6.883   1.700  0.0427 -0.9305  0.1148
  211ACOH    O110584   0.651   6.966   1.690 -0.2608 -0.4383  0.0719
  211ACOH    C110585   0.482   6.857   1.818  0.2400  0.0665 -0.1867
  211ACOH    H110586   0.425   6.951   1.830 -0.4988 -0.2275  1.9113
  211ACOH    H210587   0.537   6.834   1.907  0.8702  3.4081 -0.0790
  211ACOH    H310588   0.404   6.774   1.806 -0.7279 -1.2533  1.7158
  212ACOH    H410589   9.212   9.016   0.087  0.9564  2.6953 -1.3756
  212ACOH    O210590   9.118   8.993   0.061 -0.4344  0.2028  0.0579
  212ACOH    C210591   9.116   8.872   0.011 -0.1256 -0.2576 -0.0561
  212ACOH    O110592   9.212   8.795  -0.022  0.8552  0.0933 -0.6785
  212ACOH    C110593   8.982   8.822   0.014 -0.2397  0.6622  0.0932
  212ACOH    H110594   8.941   8.863   0.099  1.6524 -1.9820  0.6933
  212ACOH    H210595   8.976   8.713   0.024 -2.1637  0.8101 -1.0111
  212ACOH    H310596   8.936   8.844  -0.079 -0.2501  0.4196  1.8291
  213ACOH    H410597   9.270   9.633   8.097  0.5323  0.4593 -2.0265
  213ACOH    O210598   9.176   9.613   8.106  0.1285  0.4115  0.7539
  213ACOH    C210599   9.106   9.657   8.000 -0.2827 -0.2308  0.0476
  213ACOH    O110600   9.127   9.744   7.918  0.5349  0.1087  0.1641
  213ACOH    C110601   8.973   9.595   8.005  0.7094 -0.1468 -0.7851
  213ACOH    H110602   8.960   9.528   8.083 -1.1325 -1.2105 -2.2166
  213ACOH    H210603   8.945   9.537   7.913 -0.3494  3.0222  1.8933
  213ACOH    H310604   8.908   9.674   8.040  2.9106  1.6623  1.4153
  214ACOH    H410605   2.623   0.691   6.287  0.3798  1.1645  0.0759
  214ACOH    O210606   2.698   0.634   6.311 -0.3130 -0.7794 -0.3266
  214ACOH    C210607   2.751   0.582   6.197 -0.2135 -0.4821  0.1337
  214ACOH    O110608   2.713   0.603   6.084  0.2360  0.1007  0.2684
  214ACOH    C110609   2.869   0.499   6.232 -0.6415 -0.6401 -0.0627
  214ACOH    H110610   2.904   0.445   6.142 -0.0511 -0.6913 -1.7653
  214ACOH    H210611   2.839   0.434   6.315 -1.2361  1.9517 -1.4881
  214ACOH    H310612   2.942   0.566   6.272 -1.7940  0.4900  0.8332
  215ACOH    H410613   9.068   9.560   8.873 -1.4364  0.6101 -0.5401
  215ACOH    O210614   8.989   9.620   8.857  0.2826  0.0790  0.3588
  215ACOH    C210615   8.966   9.622   8.720 -0.3620  0.0658 -0.7006
  215ACOH    O110616   9.054   9.621   8.640 -0.3205 -0.0289  0.5133
  215ACOH    C110617   8.839   9.683   8.686  1.2164  0.1196  0.9745
  215ACOH    H110618   8.771   9.657   8.772  2.7879 -0.6271 -0.3125
  215ACOH    H210619   8.793   9.640   8.592 -1.4756 -0.3988 -0.7264
  215ACOH    H310620   8.851   9.790   8.679  0.6102 -2.5658  1.1772
  216ACOH    H410621   4.355   2.659   2.267  4.3922  2.1724  3.5145
  216ACOH    O210622   4.276   2.658   2.202  0.0617  0.2589  0.1657
  216ACOH    C210623   4.292   2.747   2.106 -1.1775 -0.4805 -0.7918
  216ACOH    O110624   4.355   2.846   2.131 -0.5144 -0.1722  0.0415
  216ACOH    C110625   4.193   2.731   1.998 -0.1610 -0.6933 -0.3564
  216ACOH    H110626   4.103   2.793   2.018  0.1855 -2.2001 -1.3280
  216ACOH    H210627   4.163   2.626   2.002  0.3105 -2.4940  2.6028
  216ACOH    H310628   4.225   2.761   1.902 -0.4339 -2.1168 -0.2399
  217ACOH    H410629   6.057   1.029   3.177  1.5328 -1.9428 -1.1427
  217ACOH    O210630   6.003   1.105   3.216  0.0087 -0.4578  0.0241
  217ACOH    C210631   5.875   1.083   3.182  0.6234  0.0331 -0.0827
  217ACOH    O110632   5.846   1.040   3.072  0.2331  0.1242 -0.6427
  217ACOH    C110633   5.788   1.140   3.284 -0.1429 -0.2380 -0.2987
  217ACOH    H110634   5.849   1.213   3.340  2.9956  1.0155  1.3954
  217ACOH    H210635   5.744   1.066   3.351  1.6516 -1.3911 -0.6491
  217ACOH    H310636   5.704   1.189   3.233 -1.4714  1.1181 -0.9640
  218ACOH    H410637   3.155   2.614   1.668 -0.3062  0.4008 -0.7322
  218ACOH    O210638   3.159   2.526   1.717 -0.0216  0.4141 -0.4405
  218ACOH    C210639   3.244   2.447   1.646 -0.1221 -0.2217  0.9456
  218ACOH    O110640   3.315   2.480   1.555 -0.1702  0.8008  0.3346
  218ACOH    C110641   3.265   2.318   1.709  0.0145 -0.4868  0.2088
  218ACOH    H110642   3.275   2.241   1.634  0.7941  2.6483 -2.2947
  218ACOH    H210643   3.198   2.289   1.787 -2.0305  0.6784  1.0443
  218ACOH    H310644   3.361   2.323   1.750 -0.4695  3.1602  0.7181
  219ACOH    H410645   1.695   7.125   9.593 -1.2124  0.4867  1.6227
  219ACOH    O210646   1.748   7.182   9.530  0.0162  0.1163 -0.2508
  219ACOH    C210647   1.870   7.204   9.582 -0.4323  0.4677 -0.1304
  219ACOH    O110648   1.899   7.164   9.691 -0.6549 -0.1460  0.1553
  219ACOH    C110649   1.956   7.288   9.499 -0.0815 -0.2511  0.7448
  219ACOH    H110650   2.034   7.223   9.470  1.1164 -0.4537  2.4099
  219ACOH    H210651   1.986   7.367   9.565 -0.8172 -1.5784  0.1207
  219ACOH    H310652   1.893   7.317   9.417 -2.0991  0.1779  0.0105
  220ACOH    H410653   4.355   8.735   1.800 -0.0032 -1.4645  0.3781
  220ACOH    O210654   4.266   8.765   1.773  0.1799 -0.0060 -0.1450
  220ACOH    C210655   4.292   8.892   1.729 -0.1844 -0.6326 -0.8668
  220ACOH    O110656   4.395   8.957   1.749 -0.4278  0.1729  0.1959
  220ACOH    C110657   4.181   8.940   1.643  0.5262 -0.7321 -0.6826
  220ACOH    H110658   4.175   9.051   1.636 -1.4547  1.4668 -0.8575
  220ACOH    H210659   4.085   8.899   1.687  1.0468  0.1818 -0.1559
  220ACOH    H310660   4.200   8.897   1.541  1.5389 -2.7853  0.4323
  221ACOH    H410661   2.169   7.164   4.669  2.5130  0.3566 -2.5553
  221ACOH    O210662   2.134   7.072   4.687 -0.4840 -0.7807 -0.5249
  221ACOH    C210663   2.103   7.066   4.815 -0.4324  0.1727 -0.2575
  221ACOH    O110664   2.106   7.155   4.898 -0.1061  0.2665 -0.0117
  221ACOH    C110665   2.071   6.925   4.848 -0.2285  0.2466  0.6485
  221ACOH    H110666   2.164   6.867   4.844 -2.0410 -2.4935  0.1362
  221ACOH    H210667   2.006   6.873   4.781  0.4718  0.1339 -1.0072
  221ACOH    H310668   2.034   6.916   4.943  0.7120  2.7150  2.0266
  222ACOH    H410669   9.922   8.828   2.280  0.5553 -0.7117 -1.1426
  222ACOH    O210670   9.991   8.856   2.225  0.1781 -0.4933  0.7361
  222ACOH    C210671  10.106   8.805   2.270  0.2039  0.1801 -0.1157
  222ACOH    O110672  10.103   8.691   2.313 -0.0454 -0.0379 -0.0128
  222ACOH    C110673  10.227   8.868   2.220 -0.2255  0.5510  0.1271
  222ACOH    H110674  10.276   8.939   2.286 -1.0955 -2.4323 -1.9831
  222ACOH    H210675  10.202   8.928   2.129 -1.2813  0.0362 -1.5724
  222ACOH    H310676  10.298   8.787   2.200 -1.8587 -0.6851  0.0295
  223ACOH    H410677   4.177   1.143   3.821  1.7577 -2.7558  0.8421
  223ACOH    O210678   4.273   1.152   3.807  0.1602  0.0084 -0.1583
  223ACOH    C210679   4.333   1.130   3.927 -0.2186  0.6480 -0.6596
  223ACOH    O110680   4.283   1.079   4.024 -0.1605 -0.3746  0.6320
  223ACOH    C110681   4.479   1.134   3.902 -0.2851 -0.1336 -0.1838
  223ACOH    H110682   4.508   1.196   3.822 -1.5913  0.3971 -1.3018
  223ACOH    H210683   4.510   1.031   3.880  3.2690 -1.7901 -2.2955
  223ACOH    H310684   4.529   1.171   3.993 -1.8436  0.7314  1.8064
  224ACOH    H410685   2.808   1.280   3.560  2.0258  0.2887  1.3612
  224ACOH    O210686   2.724   1.334   3.546  0.6091 -0.0906  0.0599
  224ACOH    C210687   2.627   1.267   3.615  0.2520 -0.0699 -0.0365
  224ACOH    O110688   2.648   1.164   3.677 -0.0374  0.0204 -0.1691
  224ACOH    C110689   2.492   1.324   3.590  0.4540 -0.4096  0.4350
  224ACOH    H110690   2.481   1.356   3.483 -0.1466 -1.1577  0.5042
  224ACOH    H210691   2.484   1.416   3.652 -1.7057 -1.9099 -2.2889
  224ACOH    H310692   2.416   1.250   3.620 -3.2968 -3.9727  1.2845
  225ACOH    H410693   5.576   0.582   4.892 -0.6635  1.3166  0.2122
  225ACOH    O210694   5.569   0.542   4.985 -0.2256 -0.4271 -0.9347
  225ACOH    C210695   5.699   0.522   5.018 -0.2337  0.2837 -1.4714
  225ACOH    O110696   5.792   0.549   4.943  0.9463  0.1858 -0.5511
  225ACOH    C110697   5.717   0.433   5.133  0.1127 -0.2216  0.0829
  225ACOH    H110698   5.643   0.459   5.201 -2.2465  2.4748  0.0467
  225ACOH    H210699   5.816   0.446   5.179 -1.5483 -0.4698 -0.2557
  225ACOH    H310700   5.698   0.332   5.106  1.3451 -2.0659  2.0494
  226ACOH    H410701   3.183   0.557   5.240  1.8613  3.1482 -1.5808
  226ACOH    O210702   3.158   0.634   5.297 -0.2604 -0.6264 -0.7405
  226ACOH    C210703   3.136   0.598   5.430 -0.2214 -0.0258 -0.6786
  226ACOH    O110704   3.178   0.492   5.476 -0.4329  0.0745  0.1028
  226ACOH    C110705   3.083   0.712   5.515 -0.4942  0.3778 -0.0264
  226ACOH    H110706   2.982   0.733   5.498  0.1034 -0.0947 -0.9770
  226ACOH    H210707   3.140   0.802   5.504  3.3127 -2.3106 -1.1619
  226ACOH    H310708   3.100   0.688   5.617  0.3895  1.9309 -2.9581
  227ACOH    H410709   1.588   0.158   6.158 -0.2207 -1.0573 -0.8096
  227ACOH    O210710   1.552   0.168   6.068 -0.3354  0.0270  0.2003
  227ACOH    C210711   1.653   0.192   5.978 -0.0855  0.7426  0.2374
  227ACOH    O110712   1.772   0.204   6.002  0.8165 -0.6948 -0.4789
  227ACOH    C110713   1.587   0.233   5.855 -0.1101 -0.4029 -0.5130
  227ACOH    H110714   1.650   0.297   5.788 -2.1495 -0.2575  2.7445
  227ACOH    H210715   1.486   0.272   5.870 -2.3397 -2.0649  0.1376
  227ACOH    H310716   1.578   0.132   5.807  0.5200 -2.6083  0.9115
  228ACOH    H410717   5.536   9.863   6.733 -3.2017 -1.4552  0.4246
  228ACOH    O210718   5.546   9.956   6.775 -0.3390 -0.4744  0.0958
  228ACOH    C210719   5.660   9.963   6.840 -0.1352  0.3735  0.1383
  228ACOH    O110720   5.730   9.868   6.855  0.4629  0.1373  0.1878
  228ACOH    C110721   5.682  10.092   6.912  0.2854 -0.6721  0.0330
  228ACOH    H110722   5.652  10.075   7.016  0.0301  0.3674  1.6417
  228ACOH    H210723   5.627  10.171   6.866 -1.0518 -0.4078  1.5760
  228ACOH    H310724   5.778  10.133   6.911 -1.2251 -0.8312  0.3323
  229ACOH    H410725   9.377   9.806   8.005 -1.2969  1.2262  2.9819
  229ACOH    O210726   9.407   9.720   8.051  0.0635 -0.0673  0.4136
  229ACOH    C210727   9.483   9.672   7.955 -0.5968  0.3283  0.1114
  229ACOH    O110728   9.490   9.690   7.836  0.0905  0.1313  0.5061
  229ACOH    C110729   9.588   9.588   8.006 -0.1085  0.0817 -0.3198
  229ACOH    H110730   9.623   9.523   7.935 -3.8848  0.3480 -1.7026
  229ACOH    H210731   9.547   9.529   8.086  0.2112  2.3528  0.4258
  229ACOH    H310732   9.667   9.646   8.051 -2.6144  0.7577  1.7180
  230ACOH    H410733   5.816   0.227   4.864 -1.9809 -0.1032  1.4833
  230ACOH    O210734   5.720   0.235   4.849  0.2199 -0.0922 -0.0803
  230ACOH    C210735   5.703   0.263   4.717  0.6652  0.1132  0.3189
  230ACOH    O110736   5.789   0.280   4.632  0.3355 -0.2248 -0.6665
  230ACOH    C110737   5.558   0.265   4.679  0.2938  0.6885  0.0413
  230ACOH    H110738   5.499   0.317   4.751 -3.9094 -0.9237  0.8842
  230ACOH    H210739   5.526   0.165   4.669  1.4524  1.9000 -0.8187
  230ACOH    H310740   5.541   0.327   4.592  0.0125  1.7001 -0.0528
  231ACOH    H410741   4.088   6.058   9.139 -1.2754 -0.7764  1.5403
  231ACOH    O210742   4.029   5.994   9.087  0.1735  0.3678  0.1353
  231ACOH    C210743   3.965   6.062   8.990 -0.0328 -0.5394 -0.5924
  231ACOH    O110744   3.962   6.178   8.996 -0.5515 -0.0008  0.4472
  231ACOH    C110745   3.898   5.981   8.887  0.1285  1.0153 -0.1119
  231ACOH    H110746   3.867   6.051   8.811  1.1107 -3.0882  1.2691
  231ACOH    H210747   3.813   5.920   8.929  0.2011  0.1932 -2.4699
  231ACOH    H310748   3.976   5.913   8.854 -1.6761  2.1572 -1.8486
  232ACOH    H410749   4.384   2.270   2.140 -1.8877 -0.8176  1.8173
  232ACOH    O210750   4.317   2.254   2.074 -0.1016  0.1231  0.4725
  232ACOH    C210751   4.381   2.233   1.958  0.6499  0.3123  0.4468
  232ACOH    O110752   4.495   2.269   1.935  0.0859 -0.2614 -0.5997
  232ACOH    C110753   4.311   2.161   1.846 -0.4982 -0.1280 -0.0502
  232ACOH    H110754   4.278   2.243   1.783 -0.3634  0.5826  4.0474
  232ACOH    H210755   4.224   2.113   1.891 -0.4334 -2.2563  0.8941
  232ACOH    H310756   4.376   2.088   1.789 -0.3152  0.8577 -2.3796
  233ACOH    H410757   1.548   9.810   8.267  0.4074  0.0795  3.0452
  233ACOH    O210758   1.459   9.761   8.279 -0.9581 -0.2058 -0.0879
  233ACOH    C210759   1.392   9.855   8.346  0.0797 -0.5678  0.2587
  233ACOH    O110760   1.429   9.925   8.438 -0.2605 -0.0652 -0.3824
  233ACOH    C110761   1.246   9.820   8.334 -0.4438 -0.2498  0.2308
  233ACOH    H110762   1.192   9.914   8.353  1.4764  0.1275  0.1927
  233ACOH    H210763   1.204   9.742   8.395  2.9162  2.7217  2.6232
  233ACOH    H310764   1.216   9.800   8.232  0.9814  0.7101  0.5314
  234ACOH    H410765   3.784   1.017   0.624  1.7224 -0.8653 -1.1129
  234ACOH    O210766   3.705   1.036   0.567 -0.4215 -0.0965 -0.4149
  234ACOH    C210767   3.685   1.168   0.582  0.3342 -0.0051 -0.7008
  234ACOH    O110768   3.737   1.241   0.661 -0.0827 -0.0876  0.0584
  234ACOH    C110769   3.592   1.219   0.476 -0.3510 -0.6910 -0.2505
  234ACOH    H110770   3.555   1.138   0.422 -1.0115 -1.1384  1.5712
  234ACOH    H210771   3.645   1.282   0.407 -0.7546  0.4139 -1.8150
  234ACOH    H310772   3.514   1.269   0.529  1.4148 -2.8657 -0.8547
  235ACOH    H410773   3.417   0.967   8.086 -3.0472 -0.7625 -1.3468
  235ACOH    O210774   3.483   0.892   8.057 -0.0639 -0.2865  0.1071
  235ACOH    C210775   3.529   0.842   8.174  0.2511 -0.1903  0.9810
  235ACOH    O110776   3.597   0.913   8.249 -0.2737  0.5212  0.0870
  235ACOH    C110777   3.557   0.699   8.152 -0.0928 -0.0311  0.0550
  235ACOH    H110778   3.664   0.686   8.109  3.1477 -1.2434  1.3663
  235ACOH    H210779   3.486   0.659   8.081 -0.7677  1.0575  0.0698
  235ACOH    H310780   3.550   0.646   8.243  0.5079 -2.7201 -0.3570
  236ACOH    H410781   9.089   2.037   9.569  0.6944 -0.2051  0.4429
  236ACOH    O210782   9.048   1.947   9.567  0.3635  0.0098  0.3483
  236ACOH    C210783   8.922   1.960   9.614 -0.1109  0.1780  0.6864
  236ACOH    O110784   8.864   2.063   9.648  0.6238  0.0354 -0.1243
  236ACOH    C110785   8.853   1.829   9.608 -0.1250  0.2432 -0.6829
  236ACOH    H110786   8.877   1.762   9.694  0.3774  0.5367 -1.1966
  236ACOH    H210787   8.882   1.778   9.516  1.2007 -1.9856 -0.1223
  236ACOH    H310788   8.747   1.845   9.602  1.0042 -2.2062  1.7067
  237ACOH    H410789   1.824   8.281   0.536  0.4539  0.7310 -2.1853
  237ACOH    O210790   1.906   8.326   0.576  0.0081 -0.0071 -0.3608
  237ACOH    C210791   1.887   8.309   0.708 -0.0934 -0.3677  0.2341
  237ACOH    O110792   1.834   8.216   0.768 -0.3873 -0.4478  0.3579
  237ACOH    C110793   1.983   8.395   0.783 -0.4055 -0.0347  0.5160
  237ACOH    H110794   2.081   8.346   0.781  3.2351 -3.9343 -2.0499
  237ACOH    H210795   1.951   8.409   0.888 -0.8421  0.7643 -0.5274
  237ACOH    H310796   1.997   8.489   0.735  1.1449 -2.3143 -0.5298
  238ACOH    H410797   3.951   1.164   0.126  0.2472 -1.4435  3.0772
  238ACOH    O210798   3.996   1.160   0.212 -0.8242  0.5107  0.5186
  238ACOH    C210799   3.986   1.275   0.284 -0.1241  1.3653  0.0159
  238ACOH    O110800   3.926   1.378   0.248  0.2864 -0.1439 -0.2890
  238ACOH    C110801   4.035   1.259   0.425  0.3221 -0.6764  1.0713
  238ACOH    H110802   4.141   1.265   0.433  0.7455  1.2313  0.8338
  238ACOH    H210803   4.012   1.159   0.457 -0.0055 -1.1939  1.6528
  238ACOH    H310804   3.982   1.330   0.484  1.5228 -0.3044  4.6363
  239ACOH    H410805   4.502   2.111   2.913 -2.9677 -0.2111  3.7251
  239ACOH    O210806   4.463   2.029   2.948 -0.5417  0.3986 -0.1792
  239ACOH    C210807   4.488   1.927   2.860 -0.1766 -1.2878 -0.4962
  239ACOH    O110808   4.497   1.944   2.736  0.0437 -0.3013  0.2741
  239ACOH    C110809   4.439   1.798   2.914  0.0563  0.3839 -0.0879
  239ACOH    H110810   4.458   1.798   3.021 -2.8211  1.8173 -0.9410
  239ACOH    H210811   4.496   1.708   2.881 -1.2239  1.9045  1.4299
  239ACOH    H310812   4.329   1.792   2.894 -1.7780  1.2489  0.0357
  240ACOH    H410813   9.918   2.824   8.914  1.7498  0.8541  2.2740
  240ACOH    O210814   9.988   2.818   8.986  0.0054 -0.1141 -0.1891
  240ACOH    C210815   9.942   2.752   9.091 -0.6317 -0.1876 -0.0577
  240ACOH    O110816   9.835   2.690   9.101 -0.1929  0.3561 -0.6442
  240ACOH    C110817  10.035   2.769   9.208 -0.5293 -0.5051  0.1039
  240ACOH    H110818  10.136   2.778   9.167 -1.7387 -0.9424 -1.0955
  240ACOH    H210819  10.026   2.685   9.277 -1.1403  0.5571 -2.5812
  240ACOH    H310820  10.015   2.868   9.259  1.4349 -0.6048  1.3280
  241ACOH    H410821   9.636   0.240   0.744 -0.1704 -1.3015  2.9227
  241ACOH    O210822   9.633   0.172   0.675 -0.3881 -0.2577  0.1543
  241ACOH    C210823   9.760   0.128   0.662 -0.1315 -0.2616  0.5416
  241ACOH    O110824   9.859   0.177   0.714  0.1397 -0.7346  0.0911
  241ACOH    C110825   9.761   0.026   0.552  0.0081 -0.6257  0.1071
  241ACOH    H110826   9.689  -0.061   0.571 -0.3154  0.2551 -1.6267
  241ACOH    H210827   9.857  -0.024   0.551  0.4738  0.4078 -1.8355
  241ACOH    H310828   9.755   0.085   0.458 -0.6910 -1.6616  0.0480
  242ACOH    H410829   4.087   2.550   3.881 -2.4859 -1.9006  1.5173
  242ACOH    O210830   4.180   2.556   3.844  0.1010 -0.5764  0.4327
  242ACOH    C210831   4.245   2.656   3.901 -0.1490  0.9113  0.4742
  242ACOH    O110832   4.194   2.743   3.966 -0.0646  0.5894  0.0327
  242ACOH    C110833   4.391   2.650   3.868 -0.2306  0.2213 -0.4034
  242ACOH    H110834   4.437   2.744   3.898 -2.4100 -1.4277  0.7540
  242ACOH    H210835   4.412   2.625   3.764 -0.1478 -3.1347  0.3977
  242ACOH    H310836   4.432   2.577   3.929  2.6717  3.6321 -1.3656
  243ACOH    H410837   6.305   9.572   2.647 -0.1912 -4.1298  0.8656
  243ACOH    O210838   6.224   9.606   2.693  0.1460  0.3039 -0.2646
  243ACOH    C210839   6.233   9.738   2.727  0.1501 -0.1198 -0.2468
  243ACOH    O110840   6.320   9.814   2.691  0.2979 -0.3347  0.0193
  243ACOH    C110841   6.133   9.758   2.838 -0.1253 -0.7677 -0.3736
  243ACOH    H110842   6.180   9.769   2.932 -0.3623 -1.0510  1.7044
  243ACOH    H210843   6.066   9.673   2.832 -0.7730  1.3243 -2.6862
  243ACOH    H310844   6.070   9.847   2.818 -2.6880  1.8575  0.7219
  244ACOH    H410845   1.437   8.129   2.152 -0.6545 -2.4392 -1.0468
  244ACOH    O210846   1.437   8.220   2.188 -0.3443 -0.4859  0.3673
  244ACOH    C210847   1.314   8.259   2.190  0.4879 -0.2190  0.5496
  244ACOH    O110848   1.217   8.190   2.171  0.6132  0.2355 -0.2331
  244ACOH    C110849   1.298   8.398   2.239 -0.0858 -0.1027  0.0525
  244ACOH    H110850   1.195   8.432   2.238 -0.4559  2.5992  3.8415
  244ACOH    H210851   1.350   8.458   2.170  0.2330 -0.5843  3.5750
  244ACOH    H310852   1.333   8.422   2.342 -1.0245 -2.0121 -2.6336
  245ACOH    H410853   3.870   1.660   4.106 -0.1716 -0.6622  0.8230
  245ACOH    O210854   3.926   1.681   4.029 -0.2425  0.5541  0.1208
  245ACOH    C210855   3.846   1.743   3.943 -0.2977  1.0393  0.0983
  245ACOH    O110856   3.734   1.781   3.979 -0.9492  0.0020  0.4423
  245ACOH    C110857   3.897   1.767   3.808  0.1447 -0.2822 -0.0197
  245ACOH    H110858   3.846   1.853   3.758  1.4463  0.6962 -0.0960
  245ACOH    H210859   3.908   1.677   3.742  1.5100 -1.3585 -0.1010
  245ACOH    H310860   4.004   1.799   3.814 -0.0183  1.1977 -1.5364
  246ACOH    H410861   1.816   2.352   4.082  1.7338 -1.0922 -0.8561
  246ACOH    O210862   1.718   2.364   4.068 -0.0017  0.1830 -0.0920
  246ACOH    C210863   1.691   2.340   3.938 -0.2324  0.6049  0.0414
  246ACOH    O110864   1.775   2.315   3.854 -0.3497 -0.1566 -0.8111
  246ACOH    C110865   1.549   2.332   3.914 -0.3194  0.4921 -0.4117
  246ACOH    H110866   1.500   2.429   3.908  1.9841 -2.5337  0.9193
  246ACOH    H210867   1.497   2.264   3.983  1.5149  0.3869  1.2752
  246ACOH    H310868   1.541   2.285   3.815  2.8798 -1.5923 -1.2993
  247ACOH    H410869   9.842   4.591   4.284  0.0346  1.9273 -1.0088
  247ACOH    O210870   9.867   4.663   4.343 -0.4176  0.3590  0.1876
  247ACOH    C210871   9.893   4.609   4.466  0.2207 -0.2937  0.2702
  247ACOH    O110872   9.903   4.494   4.500 -0.5371  0.6055  0.1174
  247ACOH    C110873   9.941   4.719   4.554 -0.3670 -0.0008 -0.1445
  247ACOH    H110874  10.020   4.765   4.503  0.3972 -0.7162  0.9462
  247ACOH    H210875   9.993   4.673   4.636  1.0602  2.5931 -1.5188
  247ACOH    H310876   9.867   4.795   4.585 -0.0840 -0.2484  0.5771
  248ACOH    H410877   5.603   2.435   7.142  0.4814  2.0428  0.1801
  248ACOH    O210878   5.514   2.418   7.183  0.0283  0.4771  0.5150
  248ACOH    C210879   5.498   2.491   7.296 -0.1949  0.2996  0.4330
  248ACOH    O110880   5.582   2.562   7.350  0.3166  0.0918  0.0584
  248ACOH    C110881   5.361   2.476   7.355  1.6387 -0.3730 -0.3427
  248ACOH    H110882   5.351   2.371   7.377 -1.0834  0.0478  1.2449
  248ACOH    H210883   5.282   2.509   7.294 -0.5942 -1.5406  1.5964
  248ACOH    H310884   5.353   2.523   7.450  2.2958 -2.7180 -1.5560
  249ACOH    H410885   4.508   4.880   3.808 -0.3091  2.0427 -1.3310
  249ACOH    O210886   4.477   4.821   3.881 -0.2742 -0.1024  0.4090
  249ACOH    C210887   4.470   4.882   3.997 -0.4774  0.2487  0.5781
  249ACOH    O110888   4.456   5.001   4.015 -0.2410 -0.0364  0.3927
  249ACOH    C110889   4.426   4.792   4.103 -0.9934  0.7469  0.1343
  249ACOH    H110890   4.480   4.806   4.198  0.2701  1.3306  0.5866
  249ACOH    H210891   4.432   4.692   4.070  0.5093 -1.5591 -0.0834
  249ACOH    H310892   4.321   4.802   4.124 -1.1335  0.2514  0.3650
  250ACOH    H410893   4.627   2.788   8.032 -3.2327  2.8320 -3.3788
  250ACOH    O210894   4.544   2.802   7.978  0.3320 -0.1764 -0.4937
  250ACOH    C210895   4.569   2.787   7.847 -1.0323  0.4145  0.4829
  250ACOH    O110896   4.511   2.859   7.770 -1.0286  0.6228 -0.5011
  250ACOH    C110897   4.683   2.695   7.812  0.1345 -0.7056 -0.6783
  250ACOH    H110898   4.667   2.596   7.852 -2.2997 -2.8588  0.8912
  250ACOH    H210899   4.772   2.740   7.854 -2.8047 -1.2977  0.4532
  250ACOH    H310900   4.700   2.688   7.709  1.9123 -1.2231  0.2212
  251ACOH    H410901   1.613   3.419   4.556 -2.3954  0.0052 -0.2303
  251ACOH    O210902   1.683   3.452   4.616  0.0134  0.0513 -0.1428
  251ACOH    C210903   1.688   3.586   4.627  0.9329  0.0590  0.2003
  251ACOH    O110904   1.603   3.661   4.581 -0.4417 -0.2210  0.0382
  251ACOH    C110905   1.779   3.640   4.729 -0.7494 -0.1583  0.6416
  251ACOH    H110906   1.833   3.558   4.777 -0.6996  0.9755 -0.3563
  251ACOH    H210907   1.714   3.680   4.809 -0.9355  0.4572  4.0970
  251ACOH    H310908   1.850   3.716   4.695  1.4598 -1.4483  2.0234
  252ACOH    H410909   5.239   3.250   5.443  0.4556  1.8670  1.4278
  252ACOH    O210910   5.321   3.221   5.393  0.3686  0.6798 -0.0852
  252ACOH    C210911   5.301   3.260   5.267  0.0422  0.7875 -0.1565
  252ACOH    O110912   5.201   3.306   5.215  0.3928 -0.5879 -0.1032
  252ACOH    C110913   5.424   3.235   5.184 -1.6707 -0.7748 -0.3046
  252ACOH    H110914   5.499   3.192   5.248 -4.6682  1.6684  0.8697
  252ACOH    H210915   5.466   3.330   5.148  1.8100 -1.0957 -0.3141
  252ACOH    H310916   5.405   3.171   5.102 -1.3401  2.9427  0.4847
  253ACOH    H410917   6.026   3.610   8.478  2.1664 -0.0148  2.0373
  253ACOH    O210918   6.030   3.699   8.429 -0.3156  0.3649 -0.2606
  253ACOH    C210919   5.910   3.760   8.412  0.0808  0.3970  0.4356
  253ACOH    O110920   5.806   3.720   8.461  0.4691  0.4938  0.3166
  253ACOH    C110921   5.916   3.886   8.338 -0.0219  0.7161  0.1048
  253ACOH    H110922   5.959   3.967   8.395 -1.8561 -1.4813 -0.8105
  253ACOH    H210923   5.822   3.925   8.317  0.1870  0.8256  1.6268
  253ACOH    H310924   5.987   3.873   8.259 -2.3859  2.2512 -0.0834
  254ACOH    H410925   2.685   3.430   7.466 -3.6530 -1.3560  2.4269
  254ACOH    O210926   2.621   3.385   7.519  0.4437  0.0706  0.3495
  254ACOH    C210927   2.594   3.267   7.460 -0.2187  0.1657  0.6188
  254ACOH    O110928   2.638   3.231   7.354  0.5892  0.1695  0.5934
  254ACOH    C110929   2.497   3.182   7.538 -0.5465 -0.2389 -0.3134
  254ACOH    H110930   2.483   3.234   7.634  0.7749 -1.0508 -0.9478
  254ACOH    H210931   2.535   3.081   7.551 -1.0440 -0.3181 -1.9104
  254ACOH    H310932   2.401   3.176   7.496  1.4396 -0.9218 -1.8963
  255ACOH    H410933   2.256   5.668   8.838 -1.1424 -3.0338  1.8295
  255ACOH    O210934   2.269   5.662   8.935 -0.0931  0.0128 -0.2970
  255ACOH    C210935   2.166   5.610   8.991 -0.2386  0.3298 -0.0011
  255ACOH    O110936   2.073   5.557   8.936  0.3817 -0.2525 -0.3122
  255ACOH    C110937   2.173   5.623   9.137  1.1186  0.1597  0.3052
  255ACOH    H110938   2.079   5.578   9.180  1.0965 -0.1005  1.2848
  255ACOH    H210939   2.193   5.720   9.168  1.8811 -3.9723  2.3601
  255ACOH    H310940   2.257   5.563   9.163  0.5166 -0.1460  1.1924
  256ACOH    H410941   6.096   2.777   7.413 -0.4526  1.9831 -0.6341
  256ACOH    O210942   6.003   2.731   7.409 -0.0824 -0.0106 -0.1922
  256ACOH    C210943   6.013   2.633   7.500 -0.7426  0.6206 -0.3735
  256ACOH    O110944   6.096   2.622   7.586 -0.2597  0.4749 -0.6080
  256ACOH    C110945   5.891   2.556   7.505  0.4552 -0.1021  0.5598
  256ACOH    H110946   5.906   2.491   7.425 -1.2656  1.5987  0.3574
  256ACOH    H210947   5.801   2.610   7.492  0.3535  0.0187  0.7878
  256ACOH    H310948   5.882   2.499   7.594  1.8282  0.2681 -1.4526
  257ACOH    H410949   5.016   1.937   7.461  2.0714  0.1147  0.3635
  257ACOH    O210950   5.053   1.920   7.368  0.2048  0.8250 -0.1766
  257ACOH    C210951   5.028   1.787   7.347 -0.4462  0.0062 -0.0185
  257ACOH    O110952   4.966   1.713   7.421 -0.4687 -0.2138 -0.2881
  257ACOH    C110953   5.086   1.754   7.214 -0.2892  0.0259  0.4813
  257ACOH    H110954   5.003   1.763   7.143 -0.1567  1.8538 -2.3019
  257ACOH    H210955   5.119   1.649   7.206  0.1524 -0.2101 -0.1488
  257ACOH    H310956   5.163   1.819   7.179 -2.2502  0.0125 -2.3114
  258ACOH    H410957   2.574   6.767   3.752 -0.8744  1.3141  0.0971
  258ACOH    O210958   2.572   6.768   3.854  0.1034  0.8382  0.5544
  258ACOH    C210959   2.445   6.798   3.893 -0.5824 -0.2372 -0.3081
  258ACOH    O110960   2.356   6.843   3.814  0.3369  0.1073 -0.0466
  258ACOH    C110961   2.412   6.750   4.029  0.4124 -0.5255  0.4145
  258ACOH    H110962   2.444   6.650   4.040  1.1370  0.5154 -2.0088
  258ACOH    H210963   2.302   6.763   4.051  0.1734 -0.4216  0.0250
  258ACOH    H310964   2.465   6.813   4.105 -0.9167 -3.1405 -0.1887
  259ACOH    H410965   5.540   4.019   0.142 -1.6089 -1.0648 -3.2144
  259ACOH    O210966   5.443   4.002   0.148 -0.6906 -0.6993 -0.0534
  259ACOH    C210967   5.422   3.880   0.090 -0.0182 -0.6550  0.0418
  259ACOH    O110968   5.512   3.806   0.067  0.2991  0.5083  0.4575
  259ACOH    C110969   5.279   3.858   0.052  0.4697 -0.0970  0.1785
  259ACOH    H110970   5.265   3.773  -0.012 -0.7349 -0.1800 -0.8474
  259ACOH    H210971   5.232   3.942   0.006 -0.6808 -1.7220 -0.0621
  259ACOH    H310972   5.219   3.833   0.145  0.1459  1.0884 -0.3995
  260ACOH    H410973   3.382   2.798   9.413  1.7942 -2.9843  2.5532
  260ACOH    O210974   3.284   2.777   9.393 -0.5495  0.0979 -0.1402
  260ACOH    C210975   3.254   2.654   9.437  0.4190 -0.6029  0.5833
  260ACOH    O110976   3.342   2.581   9.482 -0.4215 -0.2621 -0.3484
  260ACOH    C110977   3.109   2.624   9.404  0.0018  0.3391 -0.0223
  260ACOH    H110978   3.083   2.537   9.457 -0.7236  1.5698  2.0800
  260ACOH    H210979   3.110   2.627   9.296  0.9072  1.8244  0.5401
  260ACOH    H310980   3.044   2.705   9.431 -1.6798  0.2871 -1.4291
  261ACOH    H410981   2.761   5.863   3.744 -1.7698 -1.6287  0.6484
  261ACOH    O210982   2.698   5.803   3.787  0.0094 -0.2960  0.0803
  261ACOH    C210983   2.618   5.885   3.853  0.0663  0.9697  1.6670
  261ACOH    O110984   2.639   5.993   3.894  0.2840  0.3134  0.3473
  261ACOH    C110985   2.497   5.806   3.881 -0.5004  0.6816 -0.2320
  261ACOH    H110986   2.433   5.847   3.956 -2.3986  0.9468 -1.5282
  261ACOH    H210987   2.523   5.704   3.912 -1.6032  0.0769  3.0530
  261ACOH    H310988   2.437   5.793   3.790 -1.9031 -0.9099 -1.9355
  262ACOH    H410989   1.443   7.542   2.092  1.6507  0.2125  0.8999
  262ACOH    O210990   1.340   7.544   2.090 -0.8913 -0.7553  0.4060
  262ACOH    C210991   1.286   7.548   1.964 -0.0003  0.4551  0.1668
  262ACOH    O110992   1.349   7.560   1.861 -0.1830  0.5777  0.5625
  262ACOH    C110993   1.144   7.585   1.984  0.1851 -0.7035  0.2666
  262ACOH    H110994   1.136   7.665   2.052 -0.1172 -0.6627 -3.1967
  262ACOH    H210995   1.099   7.497   2.009 -0.8221  0.1876  3.0834
  262ACOH    H310996   1.106   7.613   1.884  2.4171 -0.2407  1.4802
  263ACOH    H410997   3.198   3.925   4.466 -2.7218 -0.0843  0.4959
  263ACOH    O210998   3.292   3.961   4.443 -0.0054 -0.0480 -0.3596
  263ACOH    C210999   3.301   3.995   4.313  0.1935 -0.0010  0.7018
  263ACOH    O111000   3.210   3.987   4.228 -0.2433  0.0836  0.0207
  263ACOH    C111001   3.430   4.064   4.296  0.4285 -0.1950  1.0308
  263ACOH    H111002   3.440   4.123   4.206  0.5024 -1.0861  1.2455
  263ACOH    H211003   3.503   3.987   4.278  2.1240 -0.3702 -1.5518
  263ACOH    H311004   3.462   4.125   4.378  1.2665  0.9314 -1.1886
  264ACOH    H411005   3.236   2.604   3.084 -1.7583  2.1763 -0.9306
  264ACOH    O211006   3.285   2.552   3.157  0.3305  0.1159 -0.2674
  264ACOH    C211007   3.291   2.422   3.116  0.2241  0.1156 -0.2493
  264ACOH    O111008   3.259   2.377   3.010 -0.4342  0.4050  0.2566
  264ACOH    C111009   3.337   2.333   3.225  0.1930 -0.0482 -0.5280
  264ACOH    H111010   3.263   2.253   3.232  1.6438  0.9350 -0.7454
  264ACOH    H211011   3.346   2.377   3.327  0.5922 -0.5969  1.5778
  264ACOH    H311012   3.436   2.297   3.198 -0.1023  3.1972 -2.2584
  265ACOH    H411013   2.997   4.910   3.395 -0.4901 -0.9519  1.7268
  265ACOH    O211014   2.989   4.840   3.320  0.1488  0.3480  0.1713
  265ACOH    C211015   2.889   4.760   3.358  0.4635 -0.1795 -0.3715
  265ACOH    O111016   2.814   4.767   3.452 -0.7527 -0.8874 -0.1018
  265ACOH    C111017   2.865   4.662   3.249  0.4504 -0.2595  0.3853
  265ACOH    H111018   2.768   4.683   3.214  2.3899 -1.9607 -0.5895
  265ACOH    H211019   2.893   4.563   3.275  2.7467  1.9316 -0.3221
  265ACOH    H311020   2.937   4.676   3.168 -0.9204  0.0926 -2.6151
  266ACOH    H411021   5.245   3.982   4.502 -0.4931 -1.5311  1.3627
  266ACOH    O211022   5.314   3.923   4.468  0.6903 -0.5799 -0.0981
  266ACOH    C211023   5.278   3.871   4.348  0.4398 -0.5556  0.7790
  266ACOH    O111024   5.214   3.937   4.275  0.4465 -0.0831  0.6137
  266ACOH    C111025   5.389   3.784   4.299  0.7333 -0.1711  0.3313
  266ACOH    H111026   5.420   3.803   4.195  1.9836  0.6041  1.4696
  266ACOH    H211027   5.356   3.682   4.303  1.9792 -0.9594  1.2227
  266ACOH    H311028   5.474   3.774   4.365  0.5287  1.6702  0.8971
  267ACOH    H411029   9.685   3.008   8.077  0.5100  0.2339 -0.1992
  267ACOH    O211030   9.637   2.942   8.020 -0.1448 -0.2791 -0.5349
  267ACOH    C211031   9.516   2.999   7.990 -0.0938  0.1303  0.1834
  267ACOH    O111032   9.474   3.098   8.044 -0.1665  0.4582  0.6199
  267ACOH    C111033   9.423   2.895   7.930  0.3160  0.5179  0.3717
  267ACOH    H111034   9.365   2.932   7.835 -2.2745  0.1957 -2.7295
  267ACOH    H211035   9.356   2.858   8.000  2.8710  1.9514  0.1357
  267ACOH    H311036   9.495   2.816   7.894  1.0013 -2.9870  0.5191
  268ACOH    H411037   3.081   4.235   4.398  0.6119 -0.0440 -0.2085
  268ACOH    O211038   3.162   4.290   4.373  0.9959 -0.6762 -0.1337
  268ACOH    C211039   3.167   4.289   4.235  0.5708 -0.1219  0.3682
  268ACOH    O111040   3.077   4.270   4.155  0.1212 -0.0092 -0.5957
  268ACOH    C111041   3.290   4.353   4.184  0.0122  0.0338 -0.1677
  268ACOH    H111042   3.339   4.291   4.111 -2.7206 -1.1735  1.6459
  268ACOH    H211043   3.353   4.378   4.269  2.4196 -1.2091  1.1009
  268ACOH    H311044   3.262   4.435   4.128 -2.6139 -2.8845  3.0464
  269ACOH    H411045   6.919   5.620   3.016 -2.7347  0.9498  0.8851
  269ACOH    O211046   6.968   5.640   3.101  0.2577  0.1906 -0.3651
  269ACOH    C211047   6.881   5.689   3.192  0.5993 -0.8886 -0.1536
  269ACOH    O111048   6.763   5.682   3.171 -0.5044 -0.8437 -0.4393
  269ACOH    C111049   6.945   5.726   3.319  0.2975  0.1249  0.7841
  269ACOH    H111050   7.024   5.796   3.294 -1.3416 -0.6271 -1.5284
  269ACOH    H211051   6.984   5.638   3.359 -1.5472 -2.2519  1.2440
  269ACOH    H311052   6.871   5.771   3.386  1.1506  1.3469  2.1156
  270ACOH    H411053   2.690   5.856   6.198 -0.9185  2.6678 -1.0507
  270ACOH    O211054   2.668   5.906   6.115 -0.0365  0.3232 -0.7179
  270ACOH    C211055   2.769   5.896   6.027  0.1746  0.0322 -0.1630
  270ACOH    O111056   2.875   5.834   6.047  0.0597  0.6802  0.0857
  270ACOH    C111057   2.732   5.970   5.900 -0.6724  0.1396  0.3833
  270ACOH    H111058   2.811   5.945   5.838 -2.3182  1.1542  1.1917
  270ACOH    H211059   2.738   6.077   5.900  0.3832  0.2947  0.5892
  270ACOH    H311060   2.634   5.940   5.863  2.1137  0.9056 -2.0106
  271ACOH    H411061   1.173   3.817   5.718 -0.1285 -2.5507  2.5487
  271ACOH    O211062   1.243   3.785   5.648 -0.5771 -0.2660 -0.7556
  271ACOH    C211063   1.318   3.683   5.691 -0.3100  0.0527 -0.3953
  271ACOH    O111064   1.330   3.646   5.807  0.1423  0.5539  0.3217
  271ACOH    C111065   1.404   3.625   5.589 -0.2769 -0.2564 -0.5714
  271ACOH    H111066   1.384   3.523   5.552 -2.1887 -0.7942 -3.4509
  271ACOH    H211067   1.505   3.620   5.629  3.9609 -0.3724 -0.2310
  271ACOH    H311068   1.416   3.688   5.503 -0.3215 -0.5457  1.1609
  272ACOH    H411069   4.346   8.336   1.816  1.0000  1.0655 -1.8229
  272ACOH    O211070   4.429   8.387   1.806  0.2986 -0.1741 -0.1389
  272ACOH    C211071   4.513   8.369   1.914  0.3706 -0.1783  0.1411
  272ACOH    O111072   4.509   8.277   1.991  0.4681 -0.0762 -0.0831
  272ACOH    C111073   4.626   8.468   1.907  0.8142  0.4238 -0.8481
  272ACOH    H111074   4.599   8.558   1.859  2.9404 -0.8345 -0.0491
  272ACOH    H211075   4.702   8.426   1.845 -2.4204  1.5020  1.2075
  272ACOH    H311076   4.661   8.483   2.009  0.3813  3.1821 -0.6046
  273ACOH    H411077   5.312   3.710   7.694  3.0966  1.6235 -2.1255
  273ACOH    O211078   5.337   3.749   7.783  0.7342  0.8650  0.1179
  273ACOH    C211079   5.425   3.847   7.753 -0.1404  0.2771 -0.3844
  273ACOH    O111080   5.451   3.883   7.641  0.1126 -0.1045  0.4680
  273ACOH    C111081   5.489   3.904   7.870  0.1649  0.4400 -0.6323
  273ACOH    H111082   5.542   3.994   7.849 -0.1410 -3.1510  0.4260
  273ACOH    H211083   5.562   3.835   7.897 -2.0708  1.7883  0.2271
  273ACOH    H311084   5.417   3.923   7.947 -0.3334  0.3736 -1.8145
  274ACOH    H411085   5.031   7.030   0.408 -0.4254 -0.4279  1.3253
  274ACOH    O211086   5.005   7.107   0.461  0.0476 -0.6016  0.3739
  274ACOH    C211087   5.021   7.073   0.586 -0.7309 -0.2724 -0.2697
  274ACOH    O111088   5.060   6.966   0.625 -0.2729 -0.4753  0.1373
  274ACOH    C111089   5.022   7.189   0.678 -0.2370  0.1150 -0.4685
  274ACOH    H111090   4.924   7.242   0.664 -0.9421  0.6465  1.6591
  274ACOH    H211091   5.113   7.251   0.674  1.5295 -2.1431  1.0665
  274ACOH    H311092   5.020   7.150   0.783  0.8331  0.2098  1.3668
  275ACOH    H411093   6.093   4.308   6.487 -1.0512 -2.6527 -1.3206
  275ACOH    O211094   6.111   4.226   6.437  0.3122 -0.1580 -0.0553
  275ACOH    C211095   6.199   4.154   6.507 -0.5636  1.0027  0.4620
  275ACOH    O111096   6.258   4.181   6.609 -0.1722 -0.3096 -0.2419
  275ACOH    C111097   6.232   4.029   6.437  0.4033  0.2913  0.0273
  275ACOH    H111098   6.191   4.020   6.339  3.2275  0.0560  0.5140
  275ACOH    H211099   6.215   3.943   6.497 -0.0616  1.9037 -1.5187
  275ACOH    H311100   6.340   4.025   6.418  2.0049 -2.4151  2.2912
  276ACOH    H411101   2.069   4.878   3.199 -0.5315 -1.3728  2.6980
  276ACOH    O211102   2.155   4.875   3.250  0.2916  0.0638  0.4904
  276ACOH    C211103   2.205   4.752   3.258 -0.1736  0.0998  0.2474
  276ACOH    O111104   2.155   4.647   3.218 -0.7520 -0.2900  0.4725
  276ACOH    C111105   2.333   4.757   3.333 -0.4724  0.4707 -0.1784
  276ACOH    H111106   2.367   4.659   3.332 -3.1120  0.0768  0.0281
  276ACOH    H211107   2.315   4.788   3.430  1.7204  0.1078 -0.0136
  276ACOH    H311108   2.397   4.831   3.283 -0.6305  1.1863  2.0581
  277ACOH    H411109   4.163   6.920   0.402 -0.1673 -1.7471  2.3652
  277ACOH    O211110   4.228   6.996   0.392  0.3925 -0.3099 -0.6456
  277ACOH    C211111   4.353   6.948   0.400  0.6102 -0.5431 -0.3298
  277ACOH    O111112   4.385   6.831   0.399 -0.4639  0.0440  0.0685
  277ACOH    C111113   4.448   7.059   0.396 -0.3272  0.0679 -1.3510
  277ACOH    H111114   4.449   7.095   0.293 -0.0814  0.3824 -5.8390
  277ACOH    H211115   4.550   7.034   0.418 -0.4687  0.0239 -2.1292
  277ACOH    H311116   4.411   7.143   0.466 -3.9576 -1.9586  2.5878
  278ACOH    H411117   1.916   7.158   0.487 -2.2192 -1.8059  3.8365
  278ACOH    O211118   1.930   7.064   0.480  0.5942 -0.1516  0.1596
  278ACOH    C211119   1.819   7.007   0.525  0.4864  0.4166 -0.3240
  278ACOH    O111120   1.705   7.047   0.520  0.4126  0.0761 -0.9254
  278ACOH    C111121   1.834   6.862   0.535  0.8178 -0.4324  0.1046
  278ACOH    H111122   1.760   6.823   0.602  0.0167 -1.1471  2.7139
  278ACOH    H211123   1.933   6.847   0.575 -1.3986  0.7860 -0.7945
  278ACOH    H311124   1.820   6.820   0.437 -1.0190  0.4684  1.6417
  279ACOH    H411125   8.605   8.229   8.526 -0.1165 -0.8568 -0.7039
  279ACOH    O211126   8.666   8.152   8.523 -0.1199  0.1085  0.3351
  279ACOH    C211127   8.610   8.033   8.542 -0.0292 -0.2684 -0.0619
  279ACOH    O111128   8.506   8.011   8.604  0.1701  0.1983  0.1350
  279ACOH    C111129   8.712   7.923   8.534  0.6732 -1.0143  0.1600
  279ACOH    H111130   8.763   7.936   8.632 -1.2605  3.0978  3.1873
  279ACOH    H211131   8.778   7.952   8.454  0.5165 -1.2238  0.4042
  279ACOH    H311132   8.667   7.828   8.528  2.0632  0.1864 -3.3527
  280ACOH    H411133   2.819   5.792   2.211  0.2049 -1.4022  0.6303
  280ACOH    O211134   2.809   5.697   2.207  0.1293  0.0785  0.0352
  280ACOH    C211135   2.908   5.649   2.286  0.0758  0.5338  0.2287
  280ACOH    O111136   3.011   5.702   2.321  0.2764 -0.4614  0.3950
  280ACOH    C111137   2.903   5.501   2.283  1.1050  0.0403 -0.0950
  280ACOH    H111138   2.982   5.455   2.345 -0.4795 -0.5840 -0.4741
  280ACOH    H211139   2.929   5.466   2.184  0.8387  1.0557  0.6818
  280ACOH    H311140   2.802   5.462   2.312 -0.7987 -0.2352 -2.1545
  281ACOH    H411141   3.918   2.791   9.314  1.5745  0.5176  0.7756
  281ACOH    O211142   3.969   2.864   9.350  0.7148  0.3780  0.2519
  281ACOH    C211143   3.881   2.948   9.404  0.9321  0.4045  0.1955
  281ACOH    O111144   3.763   2.970   9.377 -0.2709  0.1231  0.0526
  281ACOH    C111145   3.947   3.052   9.479  0.0995  0.0873  0.9197
  281ACOH    H111146   3.926   3.148   9.446 -0.9865 -1.8816  1.3442
  281ACOH    H211147   4.055   3.033   9.486 -0.4345  1.1357 -3.4877
  281ACOH    H311148   3.915   3.056   9.583  2.2434 -0.2772 -0.6196
  282ACOH    H411149   4.007   8.432   0.914  1.0727 -1.1141  2.5432
  282ACOH    O211150   4.028   8.497   0.837 -0.6197 -0.5075  0.2231
  282ACOH    C211151   4.043   8.622   0.883 -0.0253 -0.0971  0.4478
  282ACOH    O111152   4.005   8.659   0.992  0.5304  0.4345 -0.0472
  282ACOH    C111153   4.101   8.719   0.781  0.0525 -0.5392  0.1008
  282ACOH    H111154   4.104   8.820   0.821 -1.9471  2.6160 -2.4786
  282ACOH    H211155   4.035   8.724   0.695 -0.7498  1.4406  0.6171
  282ACOH    H311156   4.204   8.679   0.754  1.1469  2.4811  0.7854
  283ACOH    H411157   2.207   6.134   1.788 -1.3054  0.1123 -0.1305
  283ACOH    O211158   2.133   6.198   1.773  0.3518 -0.0430  0.2344
  283ACOH    C211159   2.050   6.192   1.881  0.8125  0.3938 -0.0057
  283ACOH    O111160   2.076   6.136   1.984 -0.2773  0.2568  0.0966
  283ACOH    C111161   1.932   6.279   1.867  0.5060 -0.0879  0.8793
  283ACOH    H111162   1.953   6.370   1.922  0.7626 -1.1602  0.5947
  283ACOH    H211163   1.854   6.222   1.905 -0.1340 -2.1636 -1.8186
  283ACOH    H311164   1.913   6.302   1.759 -1.4658 -0.4373 -2.1311
  284ACOH    H411165   5.680   5.334   2.856  0.9836 -0.1265 -1.2847
  284ACOH    O211166   5.651   5.270   2.933  0.4903 -0.3831  0.0071
  284ACOH    C211167   5.579   5.331   3.030 -0.8113  0.0658 -1.1722
  284ACOH    O111168   5.563   5.451   3.048 -0.6080  0.2861  0.2971
  284ACOH    C111169   5.529   5.235   3.129 -0.4642  0.3549 -0.2422
  284ACOH    H111170   5.490   5.287   3.214  0.0232  0.7433  1.6589
  284ACOH    H211171   5.611   5.169   3.157 -2.3912 -0.3360  0.1687
  284ACOH    H311172   5.460   5.165   3.093 -0.6636 -1.4411  1.4648
  285ACOH    H411173   0.453   6.798   4.842 -1.0658 -2.7208 -1.3135
  285ACOH    O211174   0.500   6.750   4.919  0.1735  0.4138  0.1471
  285ACOH    C211175   0.509   6.822   5.025  0.7396 -0.1087 -0.9806
  285ACOH    O111176   0.509   6.944   5.030  0.0655 -0.2365  0.8538
  285ACOH    C111177   0.530   6.745   5.151 -0.3687 -0.4000  0.2229
  285ACOH    H111178   0.510   6.649   5.115 -0.8614 -2.4801 -1.0519
  285ACOH    H211179   0.468   6.772   5.233 -0.6078 -0.6538  1.0065
  285ACOH    H311180   0.631   6.753   5.194 -2.4060 -0.1121  1.3339
  286ACOH    H411181   4.341   1.120   5.272 -1.0648 -0.9204  0.2010
  286ACOH    O211182   4.420   1.136   5.214  0.0378  0.2797  0.2394
  286ACOH    C211183   4.389   1.235   5.128  0.1840  0.2159 -0.1011
  286ACOH    O111184   4.311   1.329   5.147 -0.3587  0.8863 -0.1687
  286ACOH    C111185   4.505   1.254   5.035  0.2595 -0.7930 -0.0356
  286ACOH    H111186   4.567   1.331   5.082 -2.3119  1.0725 -0.1875
  286ACOH    H211187   4.464   1.301   4.946  0.4909 -0.3419  1.0880
  286ACOH    H311188   4.568   1.164   5.012  0.6114  3.3156  1.1309
  287ACOH    H411189   2.797   6.905   5.893 -3.0269  0.9935 -1.5122
  287ACOH    O211190   2.783   6.844   5.971  0.4955  0.8775  0.0228
  287ACOH    C211191   2.708   6.893   6.071  0.2688  0.2097  0.7132
  287ACOH    O111192   2.634   6.991   6.057  0.1273 -0.1638  0.0779
  287ACOH    C111193   2.694   6.787   6.173  0.5872 -0.4702 -0.1258
  287ACOH    H111194   2.789   6.741   6.189  1.0043  0.6632  0.6697
  287ACOH    H211195   2.619   6.715   6.151 -1.7858  0.6816  0.1021
  287ACOH    H311196   2.667   6.832   6.273  1.0332  2.2820 -1.0634
  288ACOH    H411197   4.225   6.569   6.651 -0.3339 -0.3412 -1.9656
  288ACOH    O211198   4.194   6.614   6.567 -0.1028 -0.2032 -0.2344
  288ACOH    C211199   4.088   6.558   6.514 -0.2747 -0.3419  0.1025
  288ACOH    O111200   4.007   6.486   6.566 -0.2169  0.7645 -0.2680
  288ACOH    C111201   4.076   6.582   6.369 -0.1556 -0.2911  0.9730
  288ACOH    H111202   3.972   6.621   6.357 -0.1317  0.4479 -3.0881
  288ACOH    H211203   4.091   6.490   6.308 -0.8099 -1.1910  1.1627
  288ACOH    H311204   4.137   6.659   6.325  0.4465 -0.5300 -1.6094
  289ACOH    H411205   1.469   6.488   6.245 -0.8948 -0.1335 -0.7682
  289ACOH    O211206   1.392   6.541   6.278  0.1229 -0.0727  0.2323
  289ACOH    C211207   1.309   6.525   6.171 -0.1189 -0.4968  0.0395
  289ACOH    O111208   1.319   6.461   6.066  0.3924 -0.4790 -0.7004
  289ACOH    C111209   1.184   6.596   6.212  0.1149 -0.5570  1.0906
  289ACOH    H111210   1.145   6.562   6.311 -1.9658  2.0027 -0.8244
  289ACOH    H211211   1.104   6.578   6.137  0.6046  1.4772 -3.8689
  289ACOH    H311212   1.202   6.701   6.214 -1.8100 -0.0860 -1.2807
  290ACOH    H411213   1.400   6.508   5.055 -1.3511 -2.9631  0.1361
  290ACOH    O211214   1.344   6.455   5.116  0.2458 -0.1019  0.1481
  290ACOH    C211215   1.233   6.424   5.044 -0.1000  1.1069  0.2534
  290ACOH    O111216   1.198   6.463   4.933  0.0665  0.6460  0.6741
  290ACOH    C111217   1.151   6.323   5.117 -0.0197  0.5603  0.0683
  290ACOH    H111218   1.177   6.311   5.222 -1.3974 -0.2894 -0.5838
  290ACOH    H211219   1.149   6.223   5.066  0.6743 -1.1050  0.7403
  290ACOH    H311220   1.052   6.357   5.120  0.1911  1.1763 -1.9573
  291ACOH    H411221   3.404   7.200   6.515 -1.0784 -0.1639 -0.7904
  291ACOH    O211222   3.334   7.131   6.525 -0.1638 -0.1465  0.3157
  291ACOH    C211223   3.236   7.156   6.434 -0.1472 -0.3550  0.1503
  291ACOH    O111224   3.241   7.240   6.350 -0.1019 -0.2396  0.1788
  291ACOH    C111225   3.108   7.079   6.459 -0.2964 -0.2974 -0.3428
  291ACOH    H111226   3.080   7.028   6.369  0.7967 -0.5039 -2.3171
  291ACOH    H211227   3.022   7.145   6.483 -2.8463  0.8703 -0.8750
  291ACOH    H311228   3.124   7.005   6.537  0.5057  1.5394  1.1488
  292ACOH    H411229   2.189   9.030   8.080 -1.9267 -0.3019  2.8092
  292ACOH    O211230   2.229   9.124   8.099 -0.3529 -0.1444 -0.6408
  292ACOH    C211231   2.157   9.171   8.201 -0.1646  0.0438 -0.6776
  292ACOH    O111232   2.044   9.150   8.245 -0.1254  0.3380 -0.6013
  292ACOH    C111233   2.227   9.293   8.253 -0.2662  0.1187 -0.6167
  292ACOH    H111234   2.274   9.353   8.173  2.1292  0.9791 -0.3763
  292ACOH    H211235   2.309   9.254   8.315  0.1745 -1.7060 -0.5042
  292ACOH    H311236   2.163   9.357   8.318  0.7501 -1.1696  2.7812
  293ACOH    H411237   4.549   6.142   7.958 -0.7636 -0.6264 -0.2381
  293ACOH    O211238   4.568   6.145   7.863  0.1134 -0.2656  0.2017
  293ACOH    C211239   4.650   6.247   7.833  0.3462  0.1802 -0.0446
  293ACOH    O111240   4.733   6.292   7.912 -0.4203  0.1294 -0.1149
  293ACOH    C111241   4.669   6.269   7.688  0.5878 -0.0188  0.2321
  293ACOH    H111242   4.770   6.303   7.667 -1.5072 -1.6814  1.1437
  293ACOH    H211243   4.601   6.347   7.659  0.2980  0.5384  3.3597
  293ACOH    H311244   4.659   6.174   7.639  1.4716 -0.7525  2.5391
  294ACOH    H411245   3.322   9.198   8.673 -1.0099  0.8697  0.1448
  294ACOH    O211246   3.290   9.106   8.653 -0.1529  0.0554 -0.0422
  294ACOH    C211247   3.166   9.115   8.606 -0.4482 -0.3256  0.2299
  294ACOH    O111248   3.126   9.219   8.559  0.0158  0.2272 -0.2202
  294ACOH    C111249   3.103   8.980   8.591 -0.1264 -0.0520  0.2696
  294ACOH    H111250   3.180   8.911   8.585 -3.0931 -0.9659 -0.2724
  294ACOH    H211251   3.067   8.980   8.489  0.3760  2.3777 -1.0602
  294ACOH    H311252   3.024   8.954   8.659  0.0462  1.6999  0.6200
  295ACOH    H411253   5.066   2.493   7.197 -1.3952 -1.0237  2.2079
  295ACOH    O211254   5.056   2.394   7.217 -0.0607 -0.0618 -0.0720
  295ACOH    C211255   5.139   2.330   7.140  0.3432  0.0999  0.7501
  295ACOH    O111256   5.199   2.369   7.042 -0.5241  0.2423  0.0022
  295ACOH    C111257   5.144   2.192   7.190 -0.0869  0.2274 -0.5601
  295ACOH    H111258   5.225   2.186   7.264 -3.0669  0.3748  0.1419
  295ACOH    H211259   5.160   2.122   7.108  2.4445 -1.4633 -0.6351
  295ACOH    H311260   5.063   2.156   7.247 -0.2265  0.2831 -0.0248
  296ACOH    H411261   3.888   7.562   6.876  0.0835  2.1811 -0.9017
  296ACOH    O211262   3.969   7.509   6.886 -0.1734 -0.6561 -0.8288
  296ACOH    C211263   3.970   7.423   6.786 -0.0894  0.2796  0.6725
  296ACOH    O111264   3.919   7.430   6.677 -0.4570  0.4234  0.2933
  296ACOH    C111265   4.083   7.325   6.786 -0.2414 -0.9551 -0.4892
  296ACOH    H111266   4.046   7.225   6.785  0.2919  2.1182  0.7438
  296ACOH    H211267   4.142   7.342   6.873  0.4774 -0.5064 -0.1817
  296ACOH    H311268   4.154   7.335   6.705  0.2963 -0.8048  0.2766
  297ACOH    H411269   5.314   4.985   5.594 -1.4887 -2.0098  2.4291
  297ACOH    O211270   5.322   5.047   5.513  0.2496 -0.3842 -0.0477
  297ACOH    C211271   5.280   5.166   5.567  0.2413 -0.6095 -0.1911
  297ACOH    O111272   5.234   5.188   5.682 -0.2938 -0.2825  0.1204
  297ACOH    C111273   5.261   5.272   5.464 -0.9877  0.5692  0.4908
  297ACOH    H111274   5.158   5.289   5.433  1.1827 -2.5352  1.5894
  297ACOH    H211275   5.322   5.247   5.384 -1.1463 -0.5886  4.3761
  297ACOH    H311276   5.300   5.364   5.514 -1.1757  1.0169  1.4636
  298ACOH    H411277   2.119   5.563   6.163  1.2343 -1.7173  0.9845
  298ACOH    O211278   2.145   5.520   6.246  0.3648  0.5715 -0.1876
  298ACOH    C211279   2.239   5.599   6.305  0.2167  0.4741 -0.0361
  298ACOH    O111280   2.224   5.720   6.293 -0.3275 -0.0247 -0.5286
  298ACOH    C111281   2.294   5.530   6.421  0.2454 -0.5660  0.1894
  298ACOH    H111282   2.291   5.589   6.516 -0.6352 -0.0746  1.8064
  298ACOH    H211283   2.403   5.502   6.389  2.5007 -2.7077  1.2528
  298ACOH    H311284   2.252   5.432   6.449 -0.5722 -0.6419  1.7235
  299ACOH    H411285   9.693   9.800   0.864 -0.7328  2.1111  0.8705
  299ACOH    O211286   9.698   9.742   0.778  0.4504 -0.4922 -0.3161
  299ACOH    C211287   9.667   9.618   0.817  0.0928 -0.3445 -0.7752
  299ACOH    O111288   9.658   9.577   0.932 -0.1704  0.0568  0.0801
  299ACOH    C111289   9.660   9.529   0.700  0.0913  0.1320  0.0451
  299ACOH    H111290   9.746   9.550   0.630  0.7367 -0.1222  0.6544
  299ACOH    H211291   9.567   9.545   0.646 -1.3769 -1.0689 -3.3590
  299ACOH    H311292   9.666   9.428   0.731  1.6436 -0.0623  1.1946
  300ACOH    H411293   1.923   5.606   2.314 -2.6686  1.4994  2.1436
  300ACOH    O211294   2.003   5.576   2.257  0.6715 -0.3310  0.3249
  300ACOH    C211295   1.974   5.452   2.213  0.0802  0.0687 -0.2560
  300ACOH    O111296   1.864   5.396   2.228 -0.2917 -0.1508  0.4172
  300ACOH    C111297   2.078   5.401   2.120 -0.3316  0.2907  0.0398
  300ACOH    H111298   2.159   5.347   2.178  0.5363 -0.0921 -2.0687
  300ACOH    H211299   2.119   5.486   2.065 -0.5232  1.2930  1.0437
  300ACOH    H311300   2.032   5.329   2.051 -1.2684 -0.4100  1.6973
  301ACOH    H411301   0.986   9.587   1.928 -0.2904  1.4494 -0.0678
  301ACOH    O211302   0.902   9.577   1.988  0.3993  0.2565 -0.0520
  301ACOH    C211303   0.854   9.454   1.965 -0.4886 -0.3732 -0.5921
  301ACOH    O111304   0.906   9.357   1.912 -1.0239 -0.1225  0.4582
  301ACOH    C111305   0.721   9.451   2.018  0.0873  0.0535  0.1652
  301ACOH    H111306   0.721   9.479   2.127  1.3869  0.3055  0.3946
  301ACOH    H211307   0.671   9.358   2.005  0.4230 -1.8988  0.7562
  301ACOH    H311308   0.667   9.530   1.966 -0.4686  1.8266 -0.5888
  302ACOH    H411309   0.387   7.810   0.906 -4.0921 -0.2323  2.1758
  302ACOH    O211310   0.473   7.844   0.937 -0.2240 -0.5413 -0.0976
  302ACOH    C211311   0.544   7.739   0.982  0.8518  0.1063 -0.3542
  302ACOH    O111312   0.503   7.623   0.991 -0.6024  0.1396  0.3684
  302ACOH    C111313   0.670   7.789   1.033 -0.0543 -0.1026 -0.1241
  302ACOH    H111314   0.723   7.711   1.085 -0.5004 -0.0301  1.8825
  302ACOH    H211315   0.646   7.869   1.098  1.6563 -0.0508 -2.8204
  302ACOH    H311316   0.737   7.826   0.956  1.6294 -0.4382 -0.3384
  303ACOH    H411317   2.834   6.163   5.075  1.0349 -0.2204  0.7566
  303ACOH    O211318   2.747   6.116   5.079  0.0160  0.2520  0.7267
  303ACOH    C211319   2.661   6.203   5.134 -0.3530  0.4547  0.2578
  303ACOH    O111320   2.698   6.302   5.195  0.1847  0.4827 -0.1724
  303ACOH    C111321   2.520   6.157   5.136 -0.8172 -0.1740  0.8881
  303ACOH    H111322   2.464   6.233   5.098  3.0394 -3.4966  0.5626
  303ACOH    H211323   2.482   6.121   5.232  3.5366 -0.6834 -0.9157
  303ACOH    H311324   2.511   6.069   5.073 -0.8493  3.0615  1.9741
  304ACOH    H411325   0.766   8.097   1.905 -0.8023 -0.7804  1.8604
  304ACOH    O211326   0.829   8.060   1.972  0.3489 -0.3879 -0.5819
  304ACOH    C211327   0.790   7.933   2.008 -0.2452 -0.3829  0.0942
  304ACOH    O111328   0.714   7.859   1.951  0.3578  0.0611  0.0264
  304ACOH    C111329   0.876   7.884   2.122 -0.0668 -0.7844 -0.3057
  304ACOH    H111330   0.960   7.837   2.082 -1.5857  1.1267 -0.2529
  304ACOH    H211331   0.817   7.834   2.189  1.8254  2.7200 -0.1554
  304ACOH    H311332   0.923   7.973   2.167 -1.2542  1.4390  1.7536
  305ACOH    H411333   2.419   8.458   3.734  0.5596  0.4742 -0.6356
  305ACOH    O211334   2.493   8.490   3.681 -0.2572 -0.4113 -0.1470
  305ACOH    C211335   2.447   8.507   3.556  1.0907 -0.1417  0.4299
  305ACOH    O111336   2.329   8.530   3.533  0.7164 -0.2645  0.0660
  305ACOH    C111337   2.558   8.534   3.460  0.0692 -0.2242 -0.0378
  305ACOH    H111338   2.623   8.444   3.445  0.6864  1.6731 -0.1711
  305ACOH    H211339   2.621   8.614   3.501  2.5075  1.1456 -1.7844
  305ACOH    H311340   2.526   8.566   3.364 -0.0241  2.3790 -0.3247
  306ACOH    H411341   1.096   8.175   1.790  1.6563  1.3647 -1.6507
  306ACOH    O211342   1.041   8.117   1.737  0.1364 -0.0984  0.4399
  306ACOH    C211343   1.082   7.992   1.780 -0.2508 -0.0451  0.4686
  306ACOH    O111344   1.147   7.964   1.877 -0.2916 -0.3269  0.6104
  306ACOH    C111345   1.051   7.884   1.683  0.2598 -0.3401  0.4329
  306ACOH    H111346   0.966   7.917   1.627 -3.3056 -1.5871  0.0409
  306ACOH    H211347   1.035   7.784   1.731  1.1106  0.3858 -0.0467
  306ACOH    H311348   1.129   7.887   1.614  0.1434  0.3357 -1.2276
  307ACOH    H411349   4.246   6.383   6.162  1.6686 -0.5799  2.9492
  307ACOH    O211350   4.317   6.440   6.196  0.5350  0.1376  0.4348
  307ACOH    C211351   4.360   6.369   6.307 -0.1333  0.4103 -0.3986
  307ACOH    O111352   4.286   6.299   6.371 -0.5923  0.0237  0.4048
  307ACOH    C111353   4.497   6.421   6.348 -0.0447  1.2820 -0.1559
  307ACOH    H111354   4.530   6.499   6.280 -1.5828 -0.2938  0.4880
  307ACOH    H211355   4.566   6.341   6.336 -1.3530 -0.7061  1.8085
  307ACOH    H311356   4.487   6.452   6.455  0.8682  1.2844  2.3722
  308ACOH    H411357   4.613   7.832   5.822 -2.6018  0.0782  2.5061
  308ACOH    O211358   4.675   7.871   5.896  0.2264  0.1988 -0.6336
  308ACOH    C211359   4.676   8.007   5.885  0.4291 -0.3614 -0.1350
  308ACOH    O111360   4.615   8.074   5.805  0.2266 -0.9862  0.0108
  308ACOH    C111361   4.770   8.055   5.988 -0.2215 -0.3964 -0.4979
  308ACOH    H111362   4.851   8.100   5.933 -1.1967  0.2196 -0.7111
  308ACOH    H211363   4.805   7.971   6.047 -0.6281  0.5966 -2.7660
  308ACOH    H311364   4.713   8.124   6.048 -2.7677  1.6774  0.1532
  309ACOH    H411365   3.305   8.532   1.812  2.4292  0.8715  0.4050
  309ACOH    O211366   3.380   8.596   1.828 -0.1527 -0.2428  0.0207
  309ACOH    C211367   3.338   8.720   1.872  0.2045  0.3017  0.3961
  309ACOH    O111368   3.235   8.738   1.938 -0.0154  0.7768  0.0098
  309ACOH    C111369   3.448   8.822   1.869  0.3518 -0.3279  0.0646
  309ACOH    H111370   3.483   8.837   1.973 -0.3581  1.0902 -0.0128
  309ACOH    H211371   3.412   8.908   1.826 -1.8397  2.1611 -2.0067
  309ACOH    H311372   3.528   8.783   1.814 -1.6199 -0.7574 -0.0072
  310ACOH    H411373   3.237   6.646   5.533 -3.3128 -2.0277  0.7608
  310ACOH    O211374   3.280   6.651   5.623 -0.1938 -0.2206  0.3378
  310ACOH    C211375   3.338   6.532   5.644  0.2103  0.0737 -0.5871
  310ACOH    O111376   3.333   6.432   5.574  0.9597 -0.1275 -0.5566
  310ACOH    C111377   3.398   6.529   5.780 -0.2251 -0.1755  0.4972
  310ACOH    H111378   3.339   6.572   5.859 -1.1750 -1.3562 -1.4062
  310ACOH    H211379   3.503   6.573   5.779  0.6471 -2.6300 -0.1387
  310ACOH    H311380   3.409   6.424   5.817 -1.0353  0.8961  2.6370
  311ACOH    H411381   2.449   9.658   7.821  1.4173  2.0755  0.0081
  311ACOH    O211382   2.454   9.565   7.790 -0.8192  0.0663  0.0040
  311ACOH    C211383   2.367   9.479   7.848 -0.5222  0.0543 -0.2988
  311ACOH    O111384   2.269   9.515   7.915  0.2341  0.2346 -0.0149
  311ACOH    C111385   2.382   9.334   7.813 -0.2846 -0.3434  0.0162
  311ACOH    H111386   2.425   9.325   7.710 -1.0156 -0.8898 -0.7546
  311ACOH    H211387   2.285   9.283   7.825  0.8050 -0.5195 -1.8391
  311ACOH    H311388   2.455   9.286   7.888  0.3158  1.4684  0.2648
  312ACOH    H411389   3.616   5.664   5.039 -0.3392  1.4445 -0.1098
  312ACOH    O211390   3.597   5.756   5.067 -0.3996 -0.2210  0.4417
  312ACOH    C211391   3.592   5.765   5.199 -0.4981 -0.4630 -0.7371
  312ACOH    O111392   3.578   5.670   5.275 -0.2218  0.1524  0.1001
  312ACOH    C111393   3.599   5.911   5.242  0.2476  0.0729 -0.5508
  312ACOH    H111394   3.636   5.979   5.164 -0.8173 -2.1823  1.8683
  312ACOH    H211395   3.668   5.923   5.330  0.6774 -3.0499  0.7770
  312ACOH    H311396   3.504   5.956   5.261  0.5036  0.2575 -3.7221
  313ACOH    H411397   9.680   0.553   2.827 -1.0008  1.3788  3.6178
  313ACOH    O211398   9.690   0.646   2.789 -0.0716  0.2940  0.2927
  313ACOH    C211399   9.659   0.736   2.884  0.1090  0.9867  0.8875
  313ACOH    O111400   9.632   0.706   3.000 -0.8596 -0.1858  0.1310
  313ACOH    C111401   9.678   0.876   2.837  0.5062  0.4843 -0.1568
  313ACOH    H111402   9.782   0.908   2.864  0.2165 -1.2067  0.6583
  313ACOH    H211403   9.610   0.944   2.893 -0.4240  0.3855 -2.3765
  313ACOH    H311404   9.661   0.877   2.731 -0.1632 -2.0756  0.2055
  314ACOH    H411405   0.749   9.268   1.525  0.1311  1.2929 -1.2834
  314ACOH    O211406   0.694   9.213   1.463  0.6336  0.1852 -0.2282
  314ACOH    C211407   0.728   9.085   1.481 -0.1129 -0.1352 -0.7287
  314ACOH    O111408   0.780   9.040   1.579  0.5277  0.2028 -0.0649
  314ACOH    C111409   0.684   8.998   1.366  0.2094  0.1871 -0.6378
  314ACOH    H111410   0.662   8.894   1.396 -0.5163  0.5258  0.9225
  314ACOH    H211411   0.746   8.996   1.274  4.0814 -2.1356 -0.0835
  314ACOH    H311412   0.584   9.036   1.347 -1.6953 -0.1498  0.0683
  315ACOH    H411413   1.001   4.204   9.672  3.7007 -1.1999  0.6624
  315ACOH    O211414   1.065   4.197   9.591 -0.7387 -0.5421 -0.3436
  315ACOH    C211415   1.085   4.078   9.542 -0.6292  0.4954  0.4556
  315ACOH    O111416   1.040   3.974   9.580 -0.5350 -0.3986 -0.2813
  315ACOH    C111417   1.167   4.074   9.421  0.1847  0.0218  0.1634
  315ACOH    H111418   1.244   3.991   9.422 -2.0449 -2.9182 -0.8809
  315ACOH    H211419   1.207   4.179   9.401  1.9427 -2.8022 -0.1597
  315ACOH    H311420   1.100   4.050   9.343 -1.0862  0.1866  1.6335
  316ACOH    H411421   2.426   1.253   7.805 -0.1572 -0.3256 -2.3287
  316ACOH    O211422   2.491   1.258   7.877 -0.2935  0.0412  0.0224
  316ACOH    C211423   2.552   1.379   7.879  0.9442  0.1999 -0.3129
  316ACOH    O111424   2.524   1.472   7.809 -0.2012 -0.2817  0.4125
  316ACOH    C111425   2.659   1.389   7.983  0.2533  0.2707  0.0913
  316ACOH    H111426   2.751   1.329   7.963  0.1821 -0.5834 -0.6742
  316ACOH    H211427   2.614   1.348   8.070  2.0526 -0.1582 -0.2390
  316ACOH    H311428   2.687   1.486   8.006 -2.1158 -2.9125  1.9690
  317ACOH    H411429   4.692   9.935   9.838 -3.6047  0.7681 -2.4028
  317ACOH    O211430   4.780   9.913   9.873  0.3209  0.5203  0.5877
  317ACOH    C211431   4.857  10.023   9.870  0.2858  0.1917 -0.0932
  317ACOH    O111432   4.823  10.134   9.834 -0.4633 -0.0593 -0.1789
  317ACOH    C111433   5.000   9.997   9.901 -0.0124 -0.1858  0.3746
  317ACOH    H111434   5.027   9.897   9.855 -0.1579 -0.0410 -1.6706
  317ACOH    H211435   5.027   9.990  10.009  1.4395  1.3420  1.0286
  317ACOH    H311436   5.072  10.075   9.862  0.5790 -1.6573 -1.0322
  318ACOH    H411437   3.049   0.574   8.477 -1.4465  2.5886  1.9698
  318ACOH    O211438   3.135   0.627   8.446  0.6806  0.1068  0.8082
  318ACOH    C211439   3.104   0.689   8.327 -1.1742  0.4023 -0.5729
  318ACOH    O111440   2.987   0.708   8.293 -0.3155 -0.0057 -0.1478
  318ACOH    C111441   3.217   0.741   8.248  0.5436  0.3948  0.3627
  318ACOH    H111442   3.192   0.837   8.217 -1.5727 -0.7854 -1.5678
  318ACOH    H211443   3.221   0.690   8.154 -2.0577  0.6433 -0.7107
  318ACOH    H311444   3.311   0.726   8.297 -0.6544  0.2182 -3.0023
  319ACOH    H411445   9.674   6.932   1.096 -3.2579  1.5833  0.4947
  319ACOH    O211446   9.608   6.995   1.103  0.2215 -0.8068  0.0119
  319ACOH    C211447   9.655   7.063   1.208  0.6941  0.0091  0.6908
  319ACOH    O111448   9.748   7.047   1.283 -0.5845  0.5492 -0.4281
  319ACOH    C111449   9.585   7.194   1.215  0.0834 -0.0383  0.5958
  319ACOH    H111450   9.537   7.216   1.119  1.8865 -0.1230  0.4899
  319ACOH    H211451   9.655   7.266   1.236  2.6354 -0.4735  1.8886
  319ACOH    H311452   9.504   7.197   1.293 -1.6985  0.5668 -1.3510
  320ACOH    H411453   4.163   8.913   6.907  1.1476 -1.5080 -0.3069
  320ACOH    O211454   4.149   8.809   6.912  0.0834 -0.8031 -0.0574
  320ACOH    C211455   4.184   8.753   6.789 -0.5769 -0.2632  0.8327
  320ACOH    O111456   4.213   8.818   6.697  0.3970  0.2496 -0.9341
  320ACOH    C111457   4.171   8.608   6.806  0.0738  0.2495  0.2283
  320ACOH    H111458   4.232   8.566   6.884  1.6141  0.3675 -1.2789
  320ACOH    H211459   4.191   8.552   6.715  0.1296 -0.1559 -2.0708
  320ACOH    H311460   4.068   8.584   6.835  2.7266  1.5152  2.2244
  321ACOH    H411461   2.880   1.094   3.012  0.7111  1.0406  0.5831
  321ACOH    O211462   2.889   1.128   3.101  0.6685  0.0276 -0.5241
  321ACOH    C211463   2.871   1.023   3.183 -0.2866  0.0244 -0.4119
  321ACOH    O111464   2.820   0.915   3.155 -0.8280 -0.0524  0.5039
  321ACOH    C111465   2.913   1.050   3.323  0.3739  0.1111  0.5434
  321ACOH    H111466   2.938   1.155   3.340 -0.1678  1.4531 -1.4030
  321ACOH    H211467   2.991   0.982   3.363  2.3800 -3.2582  0.0282
  321ACOH    H311468   2.828   1.031   3.380  1.7094 -1.4163  1.1068
  322ACOH    H411469   1.374   1.475   7.294  0.6217  3.4655 -0.0671
  322ACOH    O211470   1.463   1.469   7.323 -0.3135  0.1058 -0.3898
  322ACOH    C211471   1.538   1.395   7.239  0.0040  0.3277  0.4381
  322ACOH    O111472   1.492   1.292   7.188 -0.0426 -0.9186 -0.3365
  322ACOH    C111473   1.681   1.418   7.278  0.4340  0.2802 -0.1689
  322ACOH    H111474   1.690   1.415   7.387  0.2632 -1.9343  1.9338
  322ACOH    H211475   1.712   1.508   7.233  0.3162 -1.8115 -1.6534
  322ACOH    H311476   1.751   1.343   7.241 -0.7265 -0.7635  0.1999
  323ACOH    H411477   2.190   9.753   9.301 -3.3580 -0.8604  0.0190
  323ACOH    O211478   2.161   9.827   9.243 -0.6734  0.1429  0.2276
  323ACOH    C211479   2.048   9.861   9.298 -0.8222 -0.5842  0.3421
  323ACOH    O111480   2.015   9.845   9.412  0.6497  0.0778  0.0164
  323ACOH    C111481   1.970   9.942   9.202  1.1208 -0.6518 -0.4362
  323ACOH    H111482   2.037  10.017   9.151 -1.3318  0.5129  0.2985
  323ACOH    H211483   1.884   9.986   9.249 -0.3816 -2.8043 -0.2180
  323ACOH    H311484   1.928   9.876   9.135 -1.2328 -0.8710 -0.5097
  324ACOH    H411485   4.874   1.994   8.615  2.1683 -0.9141 -1.2374
  324ACOH    O211486   4.795   1.981   8.552 -0.5325 -0.0607  0.2664
  324ACOH    C211487   4.741   2.098   8.532  0.2579 -0.1092 -0.3827
  324ACOH    O111488   4.802   2.202   8.540  0.1887 -0.0938 -0.0541
  324ACOH    C111489   4.596   2.089   8.494 -0.4416  0.0064 -0.1605
  324ACOH    H111490   4.593   2.125   8.392 -1.7224 -0.4264 -1.9505
  324ACOH    H211491   4.530   2.152   8.557 -0.4680 -0.9607 -1.0007
  324ACOH    H311492   4.559   1.988   8.506 -1.1923 -0.4425 -1.3355
  325ACOH    H411493   5.185   1.970   2.322  3.4150 -0.2816  0.7954
  325ACOH    O211494   5.227   2.028   2.393 -0.0090  0.0552 -0.1129
  325ACOH    C211495   5.229   2.155   2.342  0.0494 -0.0307 -0.1247
  325ACOH    O111496   5.181   2.196   2.240 -0.4556 -0.6115  0.1613
  325ACOH    C111497   5.281   2.255   2.438 -0.1105  0.2662  0.7020
  325ACOH    H111498   5.195   2.302   2.482 -1.1398 -1.9709 -1.2830
  325ACOH    H211499   5.327   2.328   2.369 -0.6964 -0.5963  0.0159
  325ACOH    H311500   5.349   2.207   2.502 -4.0329 -0.8167 -0.9723
  326ACOH    H411501   4.634   7.262   0.600 -0.3713 -1.3151  0.5215
  326ACOH    O211502   4.713   7.255   0.535 -0.0130 -0.3080 -0.6638
  326ACOH    C211503   4.668   7.330   0.429  0.6235  0.7016 -0.2433
  326ACOH    O111504   4.575   7.407   0.427  0.2712  0.1900  0.5283
  326ACOH    C111505   4.742   7.298   0.309  0.5448  0.3078 -0.2278
  326ACOH    H111506   4.716   7.357   0.220  1.4976  0.2457  0.8133
  326ACOH    H211507   4.725   7.197   0.285 -2.1710  1.1595  0.6971
  326ACOH    H311508   4.847   7.318   0.327 -0.8002  0.4983  1.6116
  327ACOH    H411509   3.679   1.876   1.426  1.5715 -2.1444 -1.2735
  327ACOH    O211510   3.588   1.901   1.453 -0.2838 -0.1110  0.4491
  327ACOH    C211511   3.587   1.907   1.586  0.2689 -0.1559 -0.8878
  327ACOH    O111512   3.671   1.887   1.674 -0.3596  0.1060  0.3827
  327ACOH    C111513   3.441   1.937   1.609  0.1604  0.6517 -0.3081
  327ACOH    H111514   3.419   1.924   1.714 -0.9308 -1.2733  0.0806
  327ACOH    H211515   3.379   1.868   1.544 -0.1826 -0.9662 -3.6963
  327ACOH    H311516   3.407   2.031   1.591 -0.1024 -2.4670 -1.4131
  328ACOH    H411517   5.956   0.580   4.563  0.7404  0.9307  2.3412
  328ACOH    O211518   5.868   0.610   4.521 -0.8760  0.5102 -0.4339
  328ACOH    C211519   5.898   0.694   4.417  0.4524  0.1047  0.1111
  328ACOH    O111520   6.010   0.732   4.387 -0.1722 -0.1935  0.5100
  328ACOH    C111521   5.779   0.710   4.328  0.1355  0.4515 -0.3161
  328ACOH    H111522   5.782   0.637   4.249 -1.1683 -1.9146  1.9144
  328ACOH    H211523   5.769   0.812   4.289  1.0897  0.5668  1.2904
  328ACOH    H311524   5.692   0.698   4.389  3.0291 -1.9504  0.4639
  329ACOH    H411525   3.573   1.498   3.687  1.3503 -0.4195  1.0905
  329ACOH    O211526   3.586   1.471   3.590  0.5545  0.1344  0.8099
  329ACOH    C211527   3.513   1.557   3.518  0.9859 -0.1214 -0.3252
  329ACOH    O111528   3.457   1.657   3.567  0.2925 -0.0003  0.2444
  329ACOH    C111529   3.492   1.516   3.379 -0.2331  0.1594 -0.1012
  329ACOH    H111530   3.389   1.479   3.366 -0.4429 -2.0191  2.0058
  329ACOH    H211531   3.553   1.430   3.364  1.8586 -0.7424 -0.4676
  329ACOH    H311532   3.506   1.608   3.319  0.4067  0.7106 -0.7368
  330ACOH    H411533   4.705   0.640   4.021 -0.5289 -1.1080  0.7528
  330ACOH    O211534   4.646   0.669   4.096  0.5540 -0.6403  0.9646
  330ACOH    C211535   4.549   0.746   4.045 -0.4919 -0.1486  0.6489
  330ACOH    O111536   4.545   0.788   3.933  0.1492 -1.0041  0.8192
  330ACOH    C111537   4.453   0.794   4.148 -0.4286  0.5124  0.8047
  330ACOH    H111538   4.409   0.704   4.184  1.4970 -0.1413 -2.4503
  330ACOH    H211539   4.377   0.865   4.117 -1.2358 -2.4768 -0.8000
  330ACOH    H311540   4.507   0.839   4.230  2.2386 -0.2911 -0.3659
  331ACOH    H411541   4.994   9.392   5.197 -0.1045 -1.9907 -2.9153
  331ACOH    O211542   5.020   9.488   5.211 -0.1715 -0.2095  0.1077
  331ACOH    C211543   4.908   9.557   5.196  0.1264  0.0794 -0.2337
  331ACOH    O111544   4.795   9.515   5.183  0.8950  0.0237 -0.9518
  331ACOH    C111545   4.935   9.697   5.164 -0.5646 -0.4032 -0.0487
  331ACOH    H111546   4.895   9.717   5.060  0.6805  2.1174  3.7990
  331ACOH    H211547   5.039   9.733   5.169 -0.5321  2.6074 -1.6783
  331ACOH    H311548   4.881   9.750   5.241  0.2977  3.7012  0.5661
  332ACOH    H411549   4.230   1.324   4.775  1.2373  1.6604 -0.0315
  332ACOH    O211550   4.189   1.267   4.706  0.2462 -0.2194 -0.8563
  332ACOH    C211551   4.166   1.141   4.753  0.1520  0.2504  0.4611
  332ACOH    O111552   4.234   1.100   4.848 -0.0828  0.4792  0.5329
  332ACOH    C111553   4.067   1.069   4.663  0.2259 -0.6429  0.4004
  332ACOH    H111554   3.969   1.083   4.716 -0.8202 -0.6108 -0.0198
  332ACOH    H211555   4.087   0.965   4.662  1.3811  1.8539 -1.5828
  332ACOH    H311556   4.059   1.115   4.567 -1.7333 -1.5271  2.3625
  333ACOH    H411557   5.261   0.544   4.589  1.3596 -0.1647 -1.6534
  333ACOH    O211558   5.251   0.456   4.628  0.5423 -0.0693  0.3016
  333ACOH    C211559   5.227   0.378   4.524  0.3146 -0.3019 -0.0160
  333ACOH    O111560   5.219   0.401   4.405  0.5048 -0.0797  0.3776
  333ACOH    C111561   5.199   0.247   4.583 -0.2517  0.1275  0.4165
  333ACOH    H111562   5.256   0.175   4.533 -1.0851 -1.8120 -4.4419
  333ACOH    H211563   5.093   0.222   4.569 -2.3563 -0.7110 -2.9419
  333ACOH    H311564   5.224   0.241   4.691  0.2619  4.1139 -1.6071
  334ACOH    H411565   5.057   1.002   3.905  1.8404 -0.6830  2.0081
  334ACOH    O211566   4.965   1.032   3.924 -0.3843  0.1314 -0.0465
  334ACOH    C211567   4.928   0.965   4.035  0.0504 -0.0778 -0.3778
  334ACOH    O111568   4.955   0.852   4.047  1.3567 -0.1441 -0.3979
  334ACOH    C111569   4.810   1.035   4.094  0.4689 -1.4510  0.5074
  334ACOH    H111570   4.771   1.098   4.010  0.2248  1.5093 -0.8180
  334ACOH    H211571   4.839   1.108   4.167 -0.9515 -0.0059  0.5359
  334ACOH    H311572   4.723   0.977   4.130 -0.7934  2.2436 -1.1802
  335ACOH    H411573   5.812   0.342   4.214  0.5277  3.8426 -0.8141
  335ACOH    O211574   5.721   0.365   4.174 -0.3166  0.2368  0.0100
  335ACOH    C211575   5.709   0.320   4.045  0.3948 -0.4529 -0.7321
  335ACOH    O111576   5.797   0.272   3.982  0.5058  0.4572  0.3520
  335ACOH    C111577   5.578   0.357   3.992  0.0299 -0.0066  0.0091
  335ACOH    H111578   5.521   0.404   4.072 -3.3042 -1.1361  2.1201
  335ACOH    H211579   5.516   0.278   3.945  0.8558  0.1783  0.3530
  335ACOH    H311580   5.602   0.436   3.919  0.7129 -1.3012 -0.7348
  336ACOH    H411581   5.240   9.841   5.384 -1.1539  1.2446 -2.1191
  336ACOH    O211582   5.182   9.914   5.416  0.0994  0.5315 -0.2493
  336ACOH    C211583   5.236  10.018   5.348  0.3796  0.0527 -0.5006
  336ACOH    O111584   5.331  10.026   5.269  0.1392 -0.5419 -0.0125
  336ACOH    C111585   5.154  10.141   5.353  0.8519  0.0380 -0.6289
  336ACOH    H111586   5.191  10.208   5.271 -1.1239  0.6790  1.0430
  336ACOH    H211587   5.179  10.172   5.453 -2.3835 -1.7613  2.2789
  336ACOH    H311588   5.046  10.117   5.343 -1.0283  1.4768  0.4290
  337ACOH    H411589   4.608   1.774   5.354  0.6490  0.8708  0.3917
  337ACOH    O211590   4.616   1.872   5.382  0.1783  0.7092  0.0247
  337ACOH    C211591   4.746   1.906   5.371 -0.2340 -0.5640 -0.2787
  337ACOH    O111592   4.834   1.824   5.342  0.2300  0.0757  0.0574
  337ACOH    C111593   4.777   2.039   5.422  0.4586 -0.0954  0.7012
  337ACOH    H111594   4.736   2.041   5.522 -0.9333  0.3284 -1.4044
  337ACOH    H211595   4.726   2.119   5.358  2.3630  0.8583  0.6754
  337ACOH    H311596   4.884   2.059   5.430  0.0099 -2.1599 -0.8254
  338ACOH    H411597   3.205   0.992   8.493 -2.7146 -1.4417  3.2450
  338ACOH    O211598   3.199   1.048   8.413  0.1094 -0.4268  0.3011
  338ACOH    C211599   3.070   1.069   8.379 -0.4357 -0.1323  0.6372
  338ACOH    O111600   3.018   1.091   8.272  0.1714 -0.5969 -0.0103
  338ACOH    C111601   2.979   1.054   8.502  0.2231 -0.1265  0.4893
  338ACOH    H111602   3.028   1.104   8.589  0.1888  2.0778  0.9404
  338ACOH    H211603   2.952   0.948   8.527 -1.7938  2.3737  0.8847
  338ACOH    H311604   2.890   1.115   8.486 -1.8547  1.5175  1.4983
  339ACOH    H411605   3.889   2.781   1.346 -1.6396 -2.2293  0.8958
  339ACOH    O211606   3.815   2.722   1.367  0.2241  0.6243 -0.4061
  339ACOH    C211607   3.706   2.795   1.387  0.0956  0.0005  0.2572
  339ACOH    O111608   3.707   2.918   1.382 -0.0198  0.4489  0.0580
  339ACOH    C111609   3.585   2.713   1.409  0.0453 -0.7239  0.2066
  339ACOH    H111610   3.512   2.730   1.323 -0.9915  1.8094  0.3921
  339ACOH    H211611   3.535   2.749   1.495 -2.4724 -0.0508  3.5286
  339ACOH    H311612   3.613   2.605   1.425  1.4316  0.0664 -1.3000
  340ACOH    H411613   4.795   3.204   6.129  1.0197 -1.2640  1.9930
  340ACOH    O211614   4.806   3.215   6.032  0.2339 -0.3220  0.6276
  340ACOH    C211615   4.883   3.113   5.984 -0.6792 -0.8450  0.1206
  340ACOH    O111616   4.898   3.012   6.050  0.0039 -0.7078  0.0220
  340ACOH    C111617   4.955   3.150   5.857 -0.1762 -0.0057  0.1675
  340ACOH    H111618   5.055   3.178   5.877 -1.6565 -0.2964  0.3507
  340ACOH    H211619   4.908   3.240   5.807  0.7998  1.1245 -0.0035
  340ACOH    H311620   4.963   3.074   5.790  1.5453 -0.7389 -0.8959
  341ACOH    H411621   4.054   9.140   7.249 -3.3424 -1.8228 -0.9129
  341ACOH    O211622   4.070   9.231   7.216 -0.2507 -0.0140  0.0956
  341ACOH    C211623   4.104   9.306   7.323  0.4339  0.4565  0.0125
  341ACOH    O111624   4.111   9.272   7.441  0.5369 -0.1009 -0.2799
  341ACOH    C111625   4.135   9.444   7.279 -0.1635 -0.0895 -0.3018
  341ACOH    H111626   4.048   9.500   7.303 -1.4227 -0.8100 -1.1509
  341ACOH    H211627   4.166   9.450   7.177 -0.2452 -0.8983  1.8893
  341ACOH    H311628   4.226   9.472   7.336  2.1196 -1.3420 -1.7358
  342ACOH    H411629   3.001   1.930   0.726  0.6015 -3.2043 -2.4552
  342ACOH    O211630   2.955   1.964   0.808 -0.2758  0.4102  0.3132
  342ACOH    C211631   2.944   2.099   0.813  0.2776  0.5727 -0.2841
  342ACOH    O111632   3.003   2.172   0.738  0.0298 -0.3057  0.1625
  342ACOH    C111633   2.875   2.144   0.934 -0.0443  0.0796 -0.2542
  342ACOH    H111634   2.807   2.235   0.918 -3.0450  0.8268  2.5513
  342ACOH    H211635   2.947   2.166   1.010 -0.7995 -1.7685 -1.5487
  342ACOH    H311636   2.806   2.066   0.964 -0.8018  1.9496 -0.9546
  343ACOH    H411637   5.784   1.974   7.922 -0.1437 -2.6238 -1.4280
  343ACOH    O211638   5.736   2.036   7.862 -0.1842  0.2850  0.1281
  343ACOH    C211639   5.784   2.159   7.876  0.4699 -0.3209  0.3568
  343ACOH    O111640   5.853   2.205   7.966  0.0064 -0.7570 -0.0687
  343ACOH    C111641   5.743   2.242   7.759 -0.0769 -0.3345  0.0360
  343ACOH    H111642   5.629   2.242   7.745 -1.0702 -1.6386 -2.8663
  343ACOH    H211643   5.793   2.199   7.673  0.1378  1.5219  2.3701
  343ACOH    H311644   5.777   2.342   7.780 -0.9107  0.2702  1.2646
  344ACOH    H411645   6.110   2.982   9.577  0.0409 -0.2194  1.9295
  344ACOH    O211646   6.098   3.041   9.658 -0.2794 -0.8785  0.6359
  344ACOH    C211647   5.990   3.115   9.634  0.6369  0.4796  0.2596
  344ACOH    O111648   5.942   3.133   9.524  0.0612 -0.3536 -0.1008
  344ACOH    C111649   5.949   3.193   9.752  0.3835  0.0552 -0.2048
  344ACOH    H111650   5.994   3.144   9.844 -0.1476  0.2304  0.0937
  344ACOH    H211651   5.838   3.205   9.757 -0.8596  0.1709 -3.0504
  344ACOH    H311652   6.003   3.285   9.745  1.2105 -1.0819  1.6852
  345ACOH    H411653   6.124   3.263   1.432  0.2128  1.6951 -3.0196
  345ACOH    O211654   6.197   3.188   1.431  0.0915 -0.1223  0.2631
  345ACOH    C211655   6.261   3.204   1.317  0.3948  0.4656 -0.2024
  345ACOH    O111656   6.238   3.287   1.237 -0.0767 -0.1884 -0.4269
  345ACOH    C111657   6.344   3.085   1.289  0.7969  0.1436  0.5971
  345ACOH    H111658   6.393   3.098   1.192 -0.4988  2.1573  2.4332
  345ACOH    H211659   6.278   3.001   1.281  1.8416 -0.0622 -0.4814
  345ACOH    H311660   6.418   3.082   1.363  1.6038  1.0986  0.9463
  346ACOH    H411661   3.772   3.152   2.504 -0.9627 -0.9170  0.2283
  346ACOH    O211662   3.768   3.128   2.600 -0.2064 -0.2235 -0.0481
  346ACOH    C211663   3.875   3.048   2.610 -0.2989  0.2218 -0.4800
  346ACOH    O111664   3.950   3.016   2.521 -0.5783 -0.1513 -0.0238
  346ACOH    C111665   3.881   2.991   2.743  0.6809  1.2025  0.7078
  346ACOH    H111666   3.942   2.903   2.743  0.5322 -0.1302  1.0881
  346ACOH    H211667   3.780   2.958   2.770  3.8883 -0.6719 -0.5840
  346ACOH    H311668   3.921   3.067   2.813 -0.0619 -0.1289  0.3825
  347ACOH    H411669   4.220   3.183   1.589  2.1171  0.2831  1.7678
  347ACOH    O211670   4.163   3.114   1.639 -0.4335  0.1720 -0.7886
  347ACOH    C211671   4.179   2.997   1.573  0.7742  0.7682  0.7720
  347ACOH    O111672   4.248   2.978   1.473  0.7322 -0.0338  0.6052
  347ACOH    C111673   4.104   2.878   1.637 -0.2531  0.0783 -0.4585
  347ACOH    H111674   4.059   2.898   1.734 -1.4263 -0.5340  0.6990
  347ACOH    H211675   4.172   2.803   1.660 -0.1255  0.9942  1.6928
  347ACOH    H311676   4.029   2.841   1.589  0.4394 -1.9410  0.6782
  348ACOH    H411677   1.964   0.127   2.295  1.6110 -2.1428 -0.1821
  348ACOH    O211678   2.000   0.098   2.385 -0.0461  0.0916 -0.1424
  348ACOH    C211679   2.032  -0.034   2.384 -0.1103 -0.5506 -1.0486
  348ACOH    O111680   1.976  -0.106   2.300  0.2144 -0.3387  0.0113
  348ACOH    C111681   2.089  -0.080   2.513  0.1618 -0.0852 -0.0623
  348ACOH    H111682   2.052  -0.012   2.591  2.4398 -2.3330  0.9292
  348ACOH    H211683   2.199  -0.075   2.505  3.8702  0.4216 -0.8599
  348ACOH    H311684   2.055  -0.182   2.538  0.0081  1.8945 -1.0414
  349ACOH    H411685   2.155   5.679   2.612  1.5181 -0.2750  1.0962
  349ACOH    O211686   2.197   5.600   2.652 -0.4590 -0.0213  0.0134
  349ACOH    C211687   2.100   5.517   2.678  1.1184  0.8926 -0.5960
  349ACOH    O111688   1.980   5.521   2.659  0.4111 -0.4675 -0.0031
  349ACOH    C111689   2.149   5.401   2.754 -0.5505 -0.6292 -0.0051
  349ACOH    H111690   2.255   5.386   2.742  1.9659 -1.6482  1.3722
  349ACOH    H211691   2.104   5.307   2.736  1.5268  0.1996 -1.0452
  349ACOH    H311692   2.127   5.429   2.857  0.1869 -0.6840 -0.5604
  350ACOH    H411693   6.297   1.591   3.403 -1.0954 -0.5198  1.7040
  350ACOH    O211694   6.215   1.566   3.358  0.5870 -0.2185 -0.3105
  350ACOH    C211695   6.229   1.614   3.230 -0.5802 -0.1146 -0.5668
  350ACOH    O111696   6.295   1.717   3.209  0.2076  0.3663  0.2109
  350ACOH    C111697   6.121   1.579   3.140  0.2013  0.3489  0.0602
  350ACOH    H111698   6.085   1.479   3.156  1.2292  0.0680 -0.1743
  350ACOH    H211699   6.144   1.590   3.029 -1.3718  2.1100  0.1728
  350ACOH    H311700   6.041   1.645   3.159  0.6711 -0.5768 -0.2082
  351ACOH    H411701   6.316   3.599   5.347  1.1142 -2.0956  2.4906
  351ACOH    O211702   6.246   3.661   5.309 -0.1830 -0.5188  0.3071
  351ACOH    C211703   6.285   3.733   5.207 -0.5964  0.6057 -0.2961
  351ACOH    O111704   6.202   3.808   5.149 -0.1326 -0.1214  0.1161
  351ACOH    C111705   6.430   3.734   5.162  0.1500 -0.2841  0.1222
  351ACOH    H111706   6.490   3.641   5.174 -1.5344 -1.7901 -1.3426
  351ACOH    H211707   6.475   3.800   5.226 -2.0942 -1.2598  2.1219
  351ACOH    H311708   6.428   3.759   5.052  0.0519  1.0049 -2.3706
  352ACOH    H411709   6.340   0.307   4.546  2.7139 -0.7271  0.1921
  352ACOH    O211710   6.338   0.281   4.646  0.1959 -0.4032 -0.6414
  352ACOH    C211711   6.356   0.150   4.659 -0.5417 -0.1130 -0.1134
  352ACOH    O111712   6.359   0.087   4.763  0.7229 -0.4934 -0.2084
  352ACOH    C111713   6.393   0.085   4.535 -0.1589  0.5316 -0.2141
  352ACOH    H111714   6.331   0.000   4.513  0.6837 -1.0269 -2.4042
  352ACOH    H211715   6.492   0.054   4.522 -1.1742  0.2644  0.8364
  352ACOH    H311716   6.379   0.151   4.457  4.0377  0.7058 -0.9116
  353ACOH    H411717   7.511   1.643   6.359 -0.7951  0.7199 -0.9246
  353ACOH    O211718   7.511   1.726   6.417  0.0910  0.2888  0.2408
  353ACOH    C211719   7.475   1.688   6.542 -0.0511 -0.2807 -0.2763
  353ACOH    O111720   7.439   1.575   6.580 -0.1119  0.4434 -0.0757
  353ACOH    C111721   7.452   1.800   6.631 -0.7331 -0.3707 -0.2957
  353ACOH    H111722   7.543   1.862   6.640  3.0005  1.4801  0.6594
  353ACOH    H211723   7.414   1.772   6.729  3.9206  0.3009  0.4188
  353ACOH    H311724   7.369   1.852   6.582 -2.7721 -1.4802  1.8333
  354ACOH    H411725   5.550   2.949   3.998  0.7968  2.9341 -1.7909
  354ACOH    O211726   5.610   2.868   4.022  0.3646  0.1354  0.0660
  354ACOH    C211727   5.729   2.913   4.056  0.4928 -0.3883 -0.4137
  354ACOH    O111728   5.756   3.028   4.079 -0.1933  0.2505 -0.3351
  354ACOH    C111729   5.824   2.805   4.061  0.1051 -0.4519  0.2947
  354ACOH    H111730   5.929   2.839   4.091  1.8428  1.7623  2.1058
  354ACOH    H211731   5.816   2.749   3.969  0.2750 -2.9187  0.5613
  354ACOH    H311732   5.781   2.747   4.137 -1.1445  2.0005 -1.0590
  355ACOH    H411733   5.167   1.684   4.565  0.1394  0.5250 -0.6758
  355ACOH    O211734   5.232   1.753   4.550  0.3048 -0.5929  0.2287
  355ACOH    C211735   5.194   1.831   4.451  0.2343 -0.1538  0.0947
  355ACOH    O111736   5.086   1.839   4.401  0.9235 -0.2165 -0.4750
  355ACOH    C111737   5.314   1.912   4.420  0.4880  0.3076  0.7807
  355ACOH    H111738   5.362   1.952   4.507 -1.7948  0.8743  0.7967
  355ACOH    H211739   5.289   1.980   4.337  0.0123  0.7304 -0.3317
  355ACOH    H311740   5.381   1.841   4.377 -1.7072  0.9521  1.3470
  356ACOH    H411741   5.385   0.607   5.479  0.0418 -1.0278  0.2651
  356ACOH    O211742   5.450   0.533   5.465  0.1445  0.1437  0.3885
  356ACOH    C211743   5.392   0.433   5.393 -0.1165 -0.5533 -0.3745
  356ACOH    O111744   5.272   0.433   5.380 -0.0248 -0.0521  0.0520
  356ACOH    C111745   5.476   0.315   5.370  0.3003 -0.8207  0.3345
  356ACOH    H111746   5.456   0.236   5.437 -1.9455  3.6877 -0.9116
  356ACOH    H211747   5.577   0.349   5.381  0.6610  2.4340  1.5285
  356ACOH    H311748   5.463   0.272   5.268  4.0868 -3.0903 -0.8484
  357ACOH    H411749   6.137   1.144   5.101  0.4745 -1.6126  0.0340
  357ACOH    O211750   6.083   1.160   5.185 -0.3835 -0.0701 -0.0093
  357ACOH    C211751   6.167   1.212   5.278  0.6426 -0.2766 -0.3078
  357ACOH    O111752   6.280   1.260   5.257 -0.1820  0.1185 -0.3815
  357ACOH    C111753   6.109   1.225   5.415 -0.0160  0.2248 -0.6131
  357ACOH    H111754   6.180   1.194   5.488  1.3373  4.9839  0.5644
  357ACOH    H211755   6.026   1.154   5.418  0.4852  0.0072 -0.5824
  357ACOH    H311756   6.070   1.324   5.436  0.8915  3.2318  1.2130
  358ACOH    H411757   5.562   3.827   8.241 -0.0020  1.8249  0.8806
  358ACOH    O211758   5.558   3.741   8.185 -0.1380 -0.1573 -0.5034
  358ACOH    C211759   5.462   3.658   8.223 -0.5564  0.6059 -0.4283
  358ACOH    O111760   5.354   3.692   8.268  0.0735  0.4298 -0.1442
  358ACOH    C111761   5.506   3.516   8.190 -0.9269 -0.2011  0.8933
  358ACOH    H111762   5.427   3.449   8.185  1.9941  0.1103 -2.4880
  358ACOH    H211763   5.557   3.483   8.279  1.0416  0.2595 -4.7026
  358ACOH    H311764   5.586   3.501   8.116  1.1474  0.1337 -1.1809
  359ACOH    H411765   7.864   1.243   9.128  1.6025 -1.2481 -0.7946
  359ACOH    O211766   7.834   1.146   9.146 -0.7650  0.4645  0.0811
  359ACOH    C211767   7.703   1.139   9.123 -0.0159  0.4701 -0.1201
  359ACOH    O111768   7.626   1.227   9.089 -0.3300  0.0714 -1.2319
  359ACOH    C111769   7.657   0.997   9.139 -0.2694  0.0349  0.5264
  359ACOH    H111770   7.637   0.953   9.039  0.2607  0.5352  0.5975
  359ACOH    H211771   7.562   0.992   9.200 -0.0826 -1.3814 -3.0563
  359ACOH    H311772   7.731   0.941   9.197 -0.6861 -0.5563  0.2046
  360ACOH    H411773   4.944   2.769   6.598  1.3712 -1.7895  3.0854
  360ACOH    O211774   4.991   2.856   6.591 -0.1836  0.1894  0.0202
  360ACOH    C211775   5.023   2.897   6.716 -0.1034 -0.8846  0.6090
  360ACOH    O111776   4.949   2.881   6.812 -0.3695 -0.2976  0.6178
  360ACOH    C111777   5.152   2.968   6.709 -0.1297  0.3223  0.0569
  360ACOH    H111778   5.143   3.056   6.764  0.8031  0.4325 -0.0791
  360ACOH    H211779   5.180   2.997   6.611  1.3054 -0.9936  1.6482
  360ACOH    H311780   5.222   2.906   6.749 -3.3547 -2.9017  2.3670
  361ACOH    H411781   4.236   1.684   0.689 -0.5990 -1.1023  3.9116
  361ACOH    O211782   4.298   1.638   0.752  0.0428  0.1281 -0.5448
  361ACOH    C211783   4.235   1.571   0.847  0.6448 -1.3476 -0.3743
  361ACOH    O111784   4.115   1.591   0.862  0.0400 -0.1269 -0.3322
  361ACOH    C111785   4.324   1.511   0.949  0.3521 -0.1079 -0.1533
  361ACOH    H111786   4.410   1.573   0.946  0.0336 -0.8300  1.0624
  361ACOH    H211787   4.353   1.408   0.935 -0.8955  0.6625 -2.5914
  361ACOH    H311788   4.280   1.512   1.051  1.1095  0.3422  0.0186
  362ACOH    H411789   5.197   2.569   6.400 -0.0478 -0.9518  0.9599
  362ACOH    O211790   5.288   2.533   6.406  0.8110 -0.7283  0.4915
  362ACOH    C211791   5.346   2.601   6.511  0.1834  0.0478  0.2090
  362ACOH    O111792   5.287   2.668   6.591  0.2395 -0.4339  0.2969
  362ACOH    C111793   5.490   2.570   6.515 -0.3747 -0.2050 -0.4597
  362ACOH    H111794   5.541   2.632   6.592  1.8682  1.6174 -0.5099
  362ACOH    H211795   5.534   2.590   6.421  0.2361 -2.3705  0.3584
  362ACOH    H311796   5.505   2.461   6.534  1.9751  0.6511  1.1354
  363ACOH    H411797   2.557   5.575   0.668  1.4700  1.2267  0.4923
  363ACOH    O211798   2.575   5.649   0.728 -0.4155 -0.1214  0.1367
  363ACOH    C211799   2.454   5.682   0.792  0.7833  1.0442 -0.4326
  363ACOH    O111800   2.365   5.600   0.804 -0.2648 -0.4209 -0.5771
  363ACOH    C111801   2.453   5.801   0.877  0.0208 -0.0100  0.3963
  363ACOH    H111802   2.401   5.780   0.971 -0.6793  1.9772 -0.3999
  363ACOH    H211803   2.385   5.874   0.830 -2.5583  1.9124  1.2463
  363ACOH    H311804   2.553   5.837   0.902  1.4812  0.4050 -2.6050
  364ACOH    H411805   5.470   5.116   8.753 -2.9906 -0.0467 -0.0271
  364ACOH    O211806   5.471   5.112   8.849  0.1498  0.4331  0.4720
  364ACOH    C211807   5.468   5.236   8.892 -0.0473 -0.1461  0.1197
  364ACOH    O111808   5.499   5.335   8.831 -0.7513 -0.0534 -0.2120
  364ACOH    C111809   5.431   5.244   9.041  0.6811  0.5156 -0.0823
  364ACOH    H111810   5.326   5.263   9.048  0.7837  1.4935 -1.6583
  364ACOH    H211811   5.470   5.318   9.110 -0.4697  0.5102 -1.8130
  364ACOH    H311812   5.452   5.142   9.083  1.0702  1.7863  4.1184
  365ACOH    H411813   6.411   6.311   8.534  0.7960  1.2958 -0.4136
  365ACOH    O211814   6.432   6.327   8.629  0.3509 -0.0180  0.4166
  365ACOH    C211815   6.323   6.374   8.695  0.1300 -0.4804  1.0749
  365ACOH    O111816   6.211   6.386   8.651  0.4147  0.1998 -0.3967
  365ACOH    C111817   6.350   6.396   8.842 -0.0312 -0.6112  0.6274
  365ACOH    H111818   6.458   6.434   8.839  0.2636  2.2747 -1.4044
  365ACOH    H211819   6.341   6.302   8.901  1.7837 -1.5041 -1.3343
  365ACOH    H311820   6.285   6.470   8.878  2.1651 -1.4591 -0.0461
  366ACOH    H411821   2.582   5.814   0.131 -0.1087  1.6440 -1.1645
  366ACOH    O211822   2.497   5.835   0.078 -0.0480  0.4971  0.5403
  366ACOH    C211823   2.526   5.866  -0.052 -0.1330 -0.2360  0.8593
  366ACOH    O111824   2.614   5.805  -0.117  0.0048 -0.1245 -0.5441
  366ACOH    C111825   2.407   5.914  -0.125 -0.0653  0.5629  0.3072
  366ACOH    H111826   2.316   5.861  -0.089  0.3875 -0.1389  0.7457
  366ACOH    H211827   2.430   5.902  -0.232  0.1790 -1.3714  3.9848
  366ACOH    H311828   2.399   6.025  -0.110 -0.3178  1.2183  2.2912
  367ACOH    H411829   5.282   3.718   3.705  0.2788  3.7967  1.3005
  367ACOH    O211830   5.207   3.733   3.756  0.3865 -0.0800 -0.5955
  367ACOH    C211831   5.249   3.774   3.875  0.0400 -0.0238 -0.6636
  367ACOH    O111832   5.366   3.780   3.914 -0.3476 -0.3342  0.3231
  367ACOH    C111833   5.135   3.790   3.969  0.4540 -0.2122  0.3555
  367ACOH    H111834   5.138   3.709   4.040 -1.9261  1.1202 -3.5570
  367ACOH    H211835   5.033   3.795   3.923 -2.9806 -1.9501 -1.0987
  367ACOH    H311836   5.152   3.889   4.019 -0.0602  1.6490  2.3255
  368ACOH    H411837   6.650   6.227   3.746 -2.5833 -0.3099 -0.3892
  368ACOH    O211838   6.580   6.172   3.720  0.3466 -0.0405 -0.1173
  368ACOH    C211839   6.629   6.055   3.663  0.3508 -0.0448  0.6903
  368ACOH    O111840   6.740   6.017   3.636  0.3435 -0.5594  0.3056
  368ACOH    C111841   6.521   5.958   3.640 -0.2793 -0.4659 -0.9385
  368ACOH    H111842   6.481   5.907   3.729 -4.2891  0.7188  0.6711
  368ACOH    H211843   6.556   5.884   3.572 -0.4674  0.2171 -0.8486
  368ACOH    H311844   6.440   6.011   3.592 -0.6858  0.6934  2.9480
  369ACOH    H411845   4.824   3.224   3.831 -0.4682 -3.0541 -1.5721
  369ACOH    O211846   4.791   3.132   3.847  0.4199  0.2834 -0.2973
  369ACOH    C211847   4.869   3.050   3.768  0.9442  0.6430 -0.2131
  369ACOH    O111848   4.964   3.087   3.701  0.3667  0.0289 -0.1323
  369ACOH    C111849   4.831   2.908   3.802  0.0559  0.6182 -0.4259
  369ACOH    H111850   4.859   2.844   3.719 -0.7744  1.5604  3.7030
  369ACOH    H211851   4.723   2.905   3.807 -1.3852 -0.6063 -0.3945
  369ACOH    H311852   4.864   2.875   3.899  0.0710  1.9380 -1.3299
  370ACOH    H411853   5.711   6.344   9.539  2.4851  0.6541 -2.0577
  370ACOH    O211854   5.750   6.364   9.450 -0.5295  0.0686 -0.0756
  370ACOH    C211855   5.664   6.426   9.373 -0.7518  0.3981  0.0448
  370ACOH    O111856   5.568   6.491   9.411 -0.2168 -0.3215 -0.1851
  370ACOH    C111857   5.715   6.426   9.232  0.5073  0.0497 -0.1304
  370ACOH    H111858   5.772   6.337   9.216  0.1776 -1.9626  0.1467
  370ACOH    H211859   5.774   6.515   9.228  2.2952 -1.4763  1.1352
  370ACOH    H311860   5.635   6.424   9.165  2.2078 -2.8338 -0.6059
  371ACOH    H411861   2.762   4.653   4.046  0.4746 -0.4600  0.1880
  371ACOH    O211862   2.787   4.666   4.144  0.3089  0.3898 -0.4666
  371ACOH    C211863   2.912   4.609   4.143 -0.2056 -0.1877 -1.0387
  371ACOH    O111864   2.970   4.566   4.045 -0.5785 -0.1726  0.1481
  371ACOH    C111865   2.984   4.627   4.274 -0.0815 -0.2593  0.8496
  371ACOH    H111866   2.996   4.740   4.290 -0.5152  1.6877 -1.1452
  371ACOH    H211867   3.088   4.589   4.273  1.1943  2.4516 -0.0893
  371ACOH    H311868   2.919   4.595   4.353 -0.5063  1.4718 -1.4377
  372ACOH    H411869   6.033   3.383   5.212  0.4940  3.2705  1.2869
  372ACOH    O211870   6.058   3.283   5.201  0.1277 -0.0520 -0.2370
  372ACOH    C211871   6.176   3.253   5.247  0.3749  0.0785 -0.0828
  372ACOH    O111872   6.277   3.324   5.245 -0.2499  0.3067 -0.1308
  372ACOH    C111873   6.195   3.115   5.284  0.5844 -0.1587  0.4081
  372ACOH    H111874   6.103   3.059   5.267  0.9269 -1.5742 -0.7160
  372ACOH    H211875   6.220   3.099   5.390  1.4005 -0.6572  1.0882
  372ACOH    H311876   6.279   3.073   5.236  0.1405 -0.8312 -1.6995
  373ACOH    H411877   5.232   6.956   4.107  0.7630 -1.7902  1.4055
  373ACOH    O211878   5.163   7.022   4.070  0.1445  0.3726  0.0571
  373ACOH    C211879   5.130   6.982   3.944 -0.4031 -0.6830 -0.8958
  373ACOH    O111880   5.168   6.879   3.897 -0.5369 -0.5601  0.6204
  373ACOH    C111881   5.009   7.059   3.902 -0.1849 -0.0998  0.1066
  373ACOH    H111882   4.928   6.984   3.907 -0.7920 -0.6516 -2.3841
  373ACOH    H211883   5.019   7.091   3.796 -1.7953  2.4343 -1.8614
  373ACOH    H311884   4.992   7.138   3.965 -0.0938 -1.4824  2.3231
  374ACOH    H411885   3.768   6.407   5.949 -2.7020 -1.5798 -1.5108
  374ACOH    O211886   3.835   6.469   5.973 -0.4174  0.1150 -0.0606
  374ACOH    C211887   3.764   6.582   5.988  0.1883 -0.0703  0.4325
  374ACOH    O111888   3.643   6.600   5.974 -0.8747  0.3280  0.3441
  374ACOH    C111889   3.869   6.692   6.006 -0.3283  0.0206 -0.1227
  374ACOH    H111890   3.816   6.785   6.032 -1.0976  0.4410 -0.1535
  374ACOH    H211891   3.929   6.705   5.915  0.6303 -2.3263  1.3778
  374ACOH    H311892   3.926   6.660   6.096 -2.9222 -0.6921  1.2282
  375ACOH    H411893   6.746   4.789   5.773 -1.1964  0.3754 -1.0629
  375ACOH    O211894   6.688   4.750   5.703  0.0970 -0.2089 -0.2049
  375ACOH    C211895   6.730   4.794   5.583  0.2457  0.3348  0.3906
  375ACOH    O111896   6.839   4.838   5.557  0.1323  0.2628  0.1035
  375ACOH    C111897   6.641   4.730   5.480 -0.3376  0.8297 -0.0007
  375ACOH    H111898   6.593   4.636   5.504  1.9681  2.0199 -0.8303
  375ACOH    H211899   6.702   4.708   5.391 -0.6398  0.4720 -0.2708
  375ACOH    H311900   6.562   4.805   5.454  0.3476  1.8040  0.3285
  376ACOH    H411901   5.335   3.681   4.765  1.2673 -0.6816  1.5785
  376ACOH    O211902   5.271   3.611   4.792  0.2222  0.2725 -0.0415
  376ACOH    C211903   5.352   3.507   4.831  0.1062  0.3534 -0.2515
  376ACOH    O111904   5.473   3.512   4.824  0.5013  0.6238  0.9435
  376ACOH    C111905   5.275   3.405   4.906 -0.1590  0.6204 -0.2087
  376ACOH    H111906   5.173   3.410   4.877 -0.9904  1.8621  1.9444
  376ACOH    H211907   5.280   3.433   5.015 -1.1146  2.1634 -1.6441
  376ACOH    H311908   5.323   3.303   4.901  0.9511 -2.7492 -0.1687
  377ACOH    H411909   7.275   4.534   5.327  1.1838 -0.5875  1.6758
  377ACOH    O211910   7.220   4.602   5.381 -0.4049  0.4972  0.2709
  377ACOH    C211911   7.232   4.563   5.510 -0.0808  0.0376  0.5031
  377ACOH    O111912   7.251   4.449   5.552  0.0904  0.3506  0.2104
  377ACOH    C111913   7.187   4.675   5.593 -0.0465  0.3348 -0.1295
  377ACOH    H111914   7.212   4.773   5.561 -0.6104  2.1320 -0.1659
  377ACOH    H211915   7.234   4.658   5.687 -3.9228 -0.2936 -2.0989
  377ACOH    H311916   7.086   4.672   5.605  1.7225 -3.3462 -0.7159
  378ACOH    H411917   5.151   3.963   9.291  3.1617  2.3851 -2.0285
  378ACOH    O211918   5.150   4.065   9.295 -0.4909 -0.0753 -0.1371
  378ACOH    C211919   5.212   4.097   9.180 -1.0427 -0.0233 -0.5124
  378ACOH    O111920   5.265   4.019   9.099 -0.0893  0.7661 -0.1955
  378ACOH    C111921   5.226   4.246   9.173 -0.0214  0.1855 -0.2095
  378ACOH    H111922   5.326   4.271   9.185  1.3947  0.5726  1.7634
  378ACOH    H211923   5.166   4.286   9.254  0.1457 -2.7091 -0.1354
  378ACOH    H311924   5.192   4.285   9.077 -1.9961 -0.3656 -0.2727
  379ACOH    H411925   5.307   2.520   7.043 -0.1901 -0.4591 -4.2718
  379ACOH    O211926   5.344   2.614   7.026 -0.4676 -0.0216  0.0600
  379ACOH    C211927   5.415   2.596   6.913  0.2040 -0.0497  0.5325
  379ACOH    O111928   5.433   2.488   6.858  0.2882  0.4721  0.0607
  379ACOH    C111929   5.484   2.722   6.869 -0.0165 -1.0342  0.6493
  379ACOH    H111930   5.587   2.728   6.909  1.1389  1.4172  1.7165
  379ACOH    H211931   5.431   2.812   6.894 -1.7014 -3.1045 -0.2928
  379ACOH    H311932   5.497   2.726   6.763 -1.3696  1.2839  0.4200
  380ACOH    H411933   5.980   2.828   6.735  2.9125  0.7227 -1.7635
  380ACOH    O211934   5.968   2.847   6.635 -0.1089 -0.4123  0.1551
  380ACOH    C211935   5.848   2.796   6.608  1.1925  0.2620 -0.2724
  380ACOH    O111936   5.765   2.737   6.683 -0.2662 -0.2349 -0.1281
  380ACOH    C111937   5.821   2.823   6.466  0.2273 -0.1232  0.3144
  380ACOH    H111938   5.714   2.804   6.436  1.9320 -0.6134 -2.0090
  380ACOH    H211939   5.882   2.760   6.405 -2.4602 -0.2171  0.5354
  380ACOH    H311940   5.846   2.925   6.438 -1.1860  1.3225 -2.1415
  381ACOH    H411941   3.727   3.494   2.098 -0.8980  0.6182 -1.3358
  381ACOH    O211942   3.644   3.531   2.135  0.5848 -0.9654 -1.0975
  381ACOH    C211943   3.587   3.611   2.053  0.2564  0.0172  0.9063
  381ACOH    O111944   3.618   3.646   1.939 -0.3983 -0.1910 -0.1707
  381ACOH    C111945   3.449   3.646   2.102  0.0913  0.0861  0.1700
  381ACOH    H111946   3.452   3.753   2.100 -2.4879 -0.2139 -2.0020
  381ACOH    H211947   3.436   3.607   2.204  1.0183  2.7637 -1.1367
  381ACOH    H311948   3.370   3.593   2.040  0.1133  1.5476  1.0418
  382ACOH    H411949   5.212   6.635   0.216 -1.5190  3.0533  0.7711
  382ACOH    O211950   5.190   6.664   0.309  0.5559  0.4087  0.4591
  382ACOH    C211951   5.220   6.558   0.386  0.4395  0.5089 -1.2649
  382ACOH    O111952   5.258   6.444   0.350  0.0383  0.5326 -0.1946
  382ACOH    C111953   5.202   6.598   0.528  0.1362  0.1291  0.7006
  382ACOH    H111954   5.289   6.579   0.586  0.7426 -1.5976 -0.6593
  382ACOH    H211955   5.119   6.538   0.567 -1.7560 -2.7002 -2.6209
  382ACOH    H311956   5.179   6.700   0.531  0.2842 -2.0738  0.6567
  383ACOH    H411957   7.683   7.801   1.480 -0.2629  1.5126  0.0915
  383ACOH    O211958   7.718   7.775   1.389 -0.5299  0.1708 -0.4503
  383ACOH    C211959   7.609   7.751   1.319 -0.2705 -0.0594 -0.1373
  383ACOH    O111960   7.513   7.687   1.359 -0.1652  0.0127  0.2812
  383ACOH    C111961   7.651   7.743   1.176 -0.6944  0.0652 -0.6000
  383ACOH    H111962   7.719   7.826   1.153  1.3106 -1.6820  0.6525
  383ACOH    H211963   7.559   7.745   1.113 -1.7506  0.2578  1.1244
  383ACOH    H311964   7.693   7.649   1.158 -3.0725  0.5071  3.2753
  384ACOH    H411965   5.197   4.763   2.397  0.3126 -1.5335 -2.7562
  384ACOH    O211966   5.201   4.785   2.302 -0.0380  0.1255  0.1555
  384ACOH    C211967   5.095   4.724   2.251  0.1578 -0.2998  0.6019
  384ACOH    O111968   5.021   4.644   2.308 -0.4222  0.6539  0.2222
  384ACOH    C111969   5.087   4.740   2.099  0.0097 -0.9277  0.0482
  384ACOH    H111970   5.036   4.831   2.071 -0.3356 -0.5991  2.6716
  384ACOH    H211971   5.025   4.658   2.059  0.3102  0.6398  1.3912
  384ACOH    H311972   5.181   4.746   2.052 -0.0730  0.1970  0.5983
  385ACOH    H411973   4.821   8.834   0.307  0.1558 -0.9466 -3.1083
  385ACOH    O211974   4.738   8.790   0.330 -0.4693  0.3636  0.3269
  385ACOH    C211975   4.765   8.682   0.404  1.2642 -0.1479  0.0931
  385ACOH    O111976   4.875   8.632   0.426  0.1282 -0.1851 -0.2416
  385ACOH    C111977   4.640   8.603   0.435  0.1456  0.0070  0.0881
  385ACOH    H111978   4.657   8.506   0.478 -2.2700  2.2928  3.3337
  385ACOH    H211979   4.577   8.602   0.353  1.2913  3.3249  0.2613
  385ACOH    H311980   4.586   8.664   0.505  0.5991 -0.8106  1.0776
  386ACOH    H411981   6.221   4.559   4.357  2.4492 -0.5087  1.0915
  386ACOH    O211982   6.235   4.654   4.334  0.1220 -0.1108  0.5402
  386ACOH    C211983   6.217   4.664   4.210  0.4322 -0.4653  0.6682
  386ACOH    O111984   6.145   4.594   4.143  0.0609  0.3668  0.0367
  386ACOH    C111985   6.265   4.793   4.166 -0.4592 -0.2197 -0.5787
  386ACOH    H111986   6.228   4.809   4.066 -2.8127 -1.2581 -0.1280
  386ACOH    H211987   6.371   4.794   4.175 -1.7741 -3.2863  1.1679
  386ACOH    H311988   6.222   4.869   4.227  2.0385 -0.0787 -0.5893
  387ACOH    H411989   3.856   3.782   4.372  2.8941  2.8333  1.1722
  387ACOH    O211990   3.887   3.736   4.286  0.5389 -0.1246  0.1492
  387ACOH    C211991   3.841   3.813   4.186  0.1136  0.3527  0.2499
  387ACOH    O111992   3.777   3.919   4.185 -0.4453 -0.1115 -0.0749
  387ACOH    C111993   3.879   3.755   4.053 -0.2599  0.2047  0.0652
  387ACOH    H111994   3.934   3.818   3.988  0.0129  0.4801  1.3617
  387ACOH    H211995   3.794   3.725   4.004 -0.6636 -0.3956  0.7311
  387ACOH    H311996   3.940   3.667   4.070 -1.8102 -0.6071 -1.8149
  388ACOH    H411997   3.416   4.254   3.500  2.3204  1.1376  2.0671
  388ACOH    O211998   3.494   4.319   3.493  0.8426 -0.5184  0.6905
  388ACOH    C211999   3.572   4.304   3.603  0.0730  0.1237 -0.0568
  388ACOH    O112000   3.572   4.210   3.676  0.6930 -0.1934 -0.0405
  388ACOH    C112001   3.692   4.388   3.603 -0.0486  0.0570  0.5903
  388ACOH    H112002   3.707   4.424   3.705 -1.8825  2.8721  0.0621
  388ACOH    H212003   3.677   4.474   3.545  0.3775 -1.3957 -1.2580
  388ACOH    H312004   3.785   4.338   3.572  1.3150 -0.0336 -1.1968
  389ACOH    H412005   7.867   5.799   4.616  0.2851 -0.3112 -1.9105
  389ACOH    O212006   7.797   5.738   4.607 -0.7647  0.5450  0.4879
  389ACOH    C212007   7.716   5.778   4.510  0.3246 -0.1115 -0.4293
  389ACOH    O112008   7.674   5.888   4.491 -0.2053 -0.4386  0.3076
  389ACOH    C112009   7.639   5.662   4.472 -0.3272 -0.1099 -0.0578
  389ACOH    H112010   7.615   5.601   4.564  0.3732 -1.0785  1.5559
  389ACOH    H212011   7.695   5.596   4.395  3.0786 -0.3504 -1.2564
  389ACOH    H312012   7.544   5.691   4.422  1.2880 -0.1107  1.1650
  390ACOH    H412013   5.373   6.563   6.362 -4.7557  0.5019  0.2211
  390ACOH    O212014   5.376   6.524   6.267  0.6395 -0.5627 -0.3874
  390ACOH    C212015   5.271   6.448   6.246  0.4662 -0.2756  0.5026
  390ACOH    O112016   5.176   6.457   6.322 -0.5380  0.5930 -0.1089
  390ACOH    C112017   5.253   6.390   6.109 -0.4567  0.2819  0.3792
  390ACOH    H112018   5.290   6.283   6.105  2.0086 -1.1478 -0.7161
  390ACOH    H212019   5.302   6.450   6.031 -0.1657  1.5461  1.0326
  390ACOH    H312020   5.151   6.393   6.098 -0.4066 -2.0933  0.3431
  391ACOH    H412021   4.702   4.388   3.891  1.5570  0.3706 -0.1463
  391ACOH    O212022   4.746   4.330   3.949  0.0348  0.2632 -0.5299
  391ACOH    C212023   4.812   4.239   3.876 -0.2671  0.2391  0.4625
  391ACOH    O112024   4.789   4.217   3.757 -0.4481 -0.7453  0.2111
  391ACOH    C112025   4.903   4.153   3.952 -0.1416 -0.5557 -0.2002
  391ACOH    H112026   4.869   4.053   3.951 -0.0011 -0.0761  0.7890
  391ACOH    H212027   4.905   4.181   4.054 -1.7389 -1.1300  1.3970
  391ACOH    H312028   5.000   4.167   3.911  1.6474 -1.2966  2.2494
  392ACOH    H412029   5.597   4.581   6.929  1.7721 -0.4122  0.1694
  392ACOH    O212030   5.598   4.539   6.834 -0.2465 -0.2203 -0.1592
  392ACOH    C212031   5.722   4.525   6.802  0.0670  0.0959 -0.1149
  392ACOH    O112032   5.824   4.547   6.865 -0.6263 -0.4289  0.7927
  392ACOH    C112033   5.730   4.469   6.668 -0.2989  0.3313  0.0554
  392ACOH    H112034   5.677   4.527   6.592  3.1106 -0.6389  0.1812
  392ACOH    H212035   5.695   4.375   6.663  0.9119  2.1496 -1.7052
  392ACOH    H312036   5.836   4.464   6.634 -0.4914 -1.7226 -1.4655
  393ACOH    H412037   5.832   6.965   8.345  0.9916 -2.2887  0.5848
  393ACOH    O212038   5.930   6.934   8.336  0.2775  0.0347  0.3035
  393ACOH    C212039   5.984   7.012   8.238  0.3624 -0.1438  0.7939
  393ACOH    O112040   5.928   7.088   8.156 -0.3000  0.1825 -0.5665
  393ACOH    C112041   6.128   7.014   8.249 -0.2481 -0.4469  0.4373
  393ACOH    H112042   6.178   7.099   8.188 -0.2473 -1.0581  1.4144
  393ACOH    H212043   6.154   6.921   8.204  1.9668 -1.0681 -1.5505
  393ACOH    H312044   6.159   7.014   8.350 -2.8845  2.2682 -3.1213
  394ACOH    H412045   2.634   8.518   7.624  1.0832 -2.0574 -1.1071
  394ACOH    O212046   2.732   8.508   7.620 -0.1227 -0.2218  0.1104
  394ACOH    C212047   2.757   8.468   7.494  0.3487  0.7895 -0.3052
  394ACOH    O112048   2.672   8.426   7.411 -0.2098  0.0977  0.7885
  394ACOH    C112049   2.901   8.465   7.466  0.1062 -0.7639  0.4710
  394ACOH    H112050   2.934   8.368   7.425  2.8221  0.2223 -0.8562
  394ACOH    H212051   2.959   8.497   7.552 -0.8672 -1.1987 -0.8864
  394ACOH    H312052   2.906   8.534   7.392 -2.6681 -1.9327  1.8047
  395ACOH    H412053   8.126   9.042   2.168  2.8680  1.0659 -1.1713
  395ACOH    O212054   8.066   9.092   2.111 -0.1932  0.5526  0.0473
  395ACOH    C212055   8.076   9.077   1.974  0.4288 -0.1268 -0.7793
  395ACOH    O112056   8.144   8.998   1.909 -0.5044 -0.7197  0.3584
  395ACOH    C112057   7.977   9.162   1.907 -0.3571  0.2621 -0.3539
  395ACOH    H112058   7.878   9.139   1.944 -1.8933 -0.3679  0.4929
  395ACOH    H212059   7.961   9.149   1.803 -1.2098  4.8267 -0.6906
  395ACOH    H312060   7.985   9.267   1.943 -1.1205  1.4754  1.4411
  396ACOH    H412061   5.155   7.168   7.029  2.3775 -0.7928 -1.1043
  396ACOH    O212062   5.146   7.099   7.098 -0.8262  0.0373 -0.4865
  396ACOH    C212063   5.025   7.050   7.119 -0.0926  0.4305 -1.2067
  396ACOH    O112064   4.954   7.033   7.024 -0.4688 -0.4137  0.0233
  396ACOH    C112065   5.021   6.965   7.246  0.1511 -0.2821  0.1117
  396ACOH    H112066   4.946   7.001   7.312  2.2234 -1.6039  1.8924
  396ACOH    H212067   5.104   6.943   7.303 -0.6033  0.1742  0.6226
  396ACOH    H312068   4.990   6.868   7.209 -0.5635  2.2561  0.0563
  397ACOH    H412069   4.820   7.778   0.263 -1.6558 -0.1064 -0.1532
  397ACOH    O212070   4.873   7.865   0.278 -0.0496  0.1551 -0.3963
  397ACOH    C212071   4.787   7.957   0.318  0.7932 -0.0105  0.1371
  397ACOH    O112072   4.675   7.939   0.362  0.2447  0.2457  0.2616
  397ACOH    C112073   4.847   8.093   0.312 -0.8430 -0.0428 -0.4725
  397ACOH    H112074   4.780   8.173   0.354  0.8137  2.2142 -0.2662
  397ACOH    H212075   4.878   8.116   0.212  2.0049  0.1737 -2.5263
  397ACOH    H312076   4.941   8.086   0.373  0.5678 -2.2748 -4.2688
  398ACOH    H412077   5.608   8.769   4.494  0.6547  0.3298  1.1459
  398ACOH    O212078   5.634   8.803   4.411 -0.5230  0.1383 -0.5232
  398ACOH    C212079   5.566   8.733   4.317  0.2875 -0.0392 -0.1925
  398ACOH    O112080   5.481   8.647   4.340 -0.0506 -0.2683  0.2049
  398ACOH    C112081   5.590   8.776   4.177 -0.1443 -0.5693 -0.0866
  398ACOH    H112082   5.505   8.734   4.123 -0.4770 -0.3436 -0.1185
  398ACOH    H212083   5.677   8.727   4.143  0.3905  0.0615  1.6214
  398ACOH    H312084   5.596   8.880   4.165  2.9325  1.3123 -0.9579
  399ACOH    H412085   7.230   8.459   6.613  0.1402 -1.8747  0.8100
  399ACOH    O212086   7.160   8.399   6.591  0.1390  0.2649  0.7251
  399ACOH    C212087   7.058   8.476   6.564  0.1430 -0.5256  0.3423
  399ACOH    O112088   7.040   8.592   6.598 -0.2110 -0.0695 -0.1340
  399ACOH    C112089   6.948   8.396   6.515  0.1089 -0.6640  0.1921
  399ACOH    H112090   6.987   8.299   6.474  1.1487  1.3890  0.4519
  399ACOH    H212091   6.896   8.446   6.434 -0.6747 -1.4840  0.0497
  399ACOH    H312092   6.885   8.385   6.600 -2.6256  0.5813  0.6054
  400ACOH    H412093   3.924   5.573   7.669  0.2095 -0.2605 -0.7261
  400ACOH    O212094   3.861   5.582   7.592  0.9493  0.1858 -0.3368
  400ACOH    C212095   3.770   5.678   7.622  0.6335  0.5460  0.4157
  400ACOH    O112096   3.735   5.716   7.731 -0.2112  0.0359 -0.7744
  400ACOH    C112097   3.684   5.706   7.504 -0.4252  0.2135 -0.0229
  400ACOH    H112098   3.607   5.632   7.493 -0.5040  0.2278 -0.1562
  400ACOH    H212099   3.756   5.706   7.420 -2.6589  0.4582 -1.9521
  400ACOH    H312100   3.638   5.803   7.516 -1.7869  1.7094 -1.9812
  401ACOH    H412101   4.194   9.012   3.090 -0.6912 -2.7012 -0.7368
  401ACOH    O212102   4.219   8.919   3.118  1.4008 -0.0151  0.2597
  401ACOH    C212103   4.351   8.928   3.121  0.2541  0.3892  1.0063
  401ACOH    O112104   4.409   9.029   3.163 -0.4796 -0.1268  0.0594
  401ACOH    C112105   4.407   8.802   3.147 -0.1098  0.8295 -0.3576
  401ACOH    H112106   4.497   8.817   3.216  3.6642  0.3611  1.5264
  401ACOH    H212107   4.435   8.760   3.053  3.9123 -0.3818 -0.2002
  401ACOH    H312108   4.338   8.735   3.200 -3.7250  2.2190  3.1922
  402ACOH    H412109   4.188   0.126   1.160 -0.1604 -3.1283  0.7453
  402ACOH    O212110   4.257   0.054   1.179 -0.2012 -0.4437 -0.0347
  402ACOH    C212111   4.203  -0.063   1.135 -0.4213  0.4635 -0.2845
  402ACOH    O112112   4.088  -0.075   1.100 -0.1613  0.2431  0.7449
  402ACOH    C112113   4.298  -0.177   1.164 -0.3457  0.0851 -0.4929
  402ACOH    H112114   4.372  -0.163   1.085 -0.3620  1.1070 -3.4305
  402ACOH    H212115   4.253  -0.274   1.160  0.1816  0.3482  1.3610
  402ACOH    H312116   4.333  -0.165   1.266 -1.0883 -0.6346  3.0736
  403ACOH    H412117   1.736   6.163   9.480 -0.3070 -0.1841 -1.4763
  403ACOH    O212118   1.645   6.195   9.493 -0.3674 -0.0495 -0.7069
  403ACOH    C212119   1.590   6.139   9.604 -0.2920  0.1075  0.1700
  403ACOH    O112120   1.655   6.062   9.678 -0.2438 -0.7727 -0.0177
  403ACOH    C112121   1.462   6.200   9.646  0.3419  0.0922  0.6680
  403ACOH    H112122   1.421   6.258   9.561 -0.1776  2.3340 -3.1082
  403ACOH    H212123   1.483   6.265   9.723  2.1881 -1.3166 -0.3304
  403ACOH    H312124   1.395   6.114   9.675 -0.1902 -0.6971  0.6113
  404ACOH    H412125   4.993   0.058   2.408 -0.4599  1.6079 -1.7371
  404ACOH    O212126   4.960  -0.005   2.479  0.6454  0.1984 -0.7087
  404ACOH    C212127   4.848  -0.061   2.440  0.0483 -0.4151 -0.7998
  404ACOH    O112128   4.804  -0.050   2.328 -0.2550 -0.3936  0.6843
  404ACOH    C112129   4.799  -0.153   2.543 -0.1424 -0.1192 -0.1692
  404ACOH    H112130   4.703  -0.175   2.506  1.5095  1.9705  0.0079
  404ACOH    H212131   4.801  -0.108   2.639  0.3966 -2.2766 -1.7433
  404ACOH    H312132   4.844  -0.247   2.545 -1.1716  1.4664 -1.2392
  405ACOH    H412133   7.072   0.350   2.990  1.2498  0.8112  1.3903
  405ACOH    O212134   7.169   0.346   2.981  0.2675  0.8843  0.4155
  405ACOH    C212135   7.224   0.469   2.977  0.0630 -1.0569 -0.9226
  405ACOH    O112136   7.171   0.566   2.928 -0.0390  0.0757 -0.3723
  405ACOH    C112137   7.363   0.472   3.017  0.5442  0.2184 -0.0390
  405ACOH    H112138   7.406   0.373   3.013 -2.2520  0.2415  1.8391
  405ACOH    H212139   7.376   0.521   3.116 -0.6555  1.9571 -1.9441
  405ACOH    H312140   7.418   0.520   2.940  0.0221  0.5313  0.2511
  406ACOH    H412141   3.554   6.416   4.514  0.8779  2.2120  0.4541
  406ACOH    O212142   3.614   6.495   4.534  0.5433 -0.9144 -0.7187
  406ACOH    C212143   3.743   6.462   4.538  0.0078  0.4810  0.2445
  406ACOH    O112144   3.789   6.371   4.467 -0.4444  0.2980 -0.2535
  406ACOH    C112145   3.813   6.562   4.617 -0.1772  0.6658  0.5624
  406ACOH    H112146   3.753   6.644   4.651  2.9841 -1.6222 -3.0400
  406ACOH    H212147   3.899   6.604   4.560 -0.0037  0.7840  0.0543
  406ACOH    H312148   3.838   6.521   4.713  0.2562  1.1793  2.1109
  407ACOH    H412149   6.092   9.093   4.366 -2.1139  0.5432  1.6563
  407ACOH    O212150   6.150   9.119   4.288 -1.0925  0.1889 -0.1000
  407ACOH    C212151   6.119   9.047   4.178  0.6310  0.5874 -0.3483
  407ACOH    O112152   6.061   8.942   4.171 -0.1930 -0.2284 -0.0605
  407ACOH    C112153   6.170   9.105   4.049 -0.0121 -0.3764  0.4271
  407ACOH    H112154   6.238   9.041   3.996 -0.3200  0.9172  1.9226
  407ACOH    H212155   6.226   9.191   4.070 -1.5508 -1.6191  0.9032
  407ACOH    H312156   6.079   9.133   3.984 -2.3009  0.8717 -0.6691
  408ACOH    H412157   4.782   5.848   2.864 -1.8638  0.7836 -0.9793
  408ACOH    O212158   4.761   5.878   2.954 -0.4180 -0.3014  0.3257
  408ACOH    C212159   4.682   5.986   2.956 -0.6521  0.2116  0.1702
  408ACOH    O112160   4.629   6.031   2.861 -0.2122 -0.4575 -0.4108
  408ACOH    C112161   4.668   6.035   3.094  0.3414 -0.3018 -0.5133
  408ACOH    H112162   4.766   6.083   3.108 -2.3657  0.1663  1.3872
  408ACOH    H212163   4.657   5.958   3.162  0.5777 -0.9902 -3.5703
  408ACOH    H312164   4.594   6.115   3.094  1.2379  2.9432  0.6851
  409ACOH    H412165   5.845   8.017   4.252 -0.9771  0.6250 -1.4840
  409ACOH    O212166   5.840   8.108   4.285  0.2678 -0.0160  0.4108
  409ACOH    C212167   5.802   8.191   4.187  0.6676 -0.4477  0.9685
  409ACOH    O112168   5.756   8.153   4.077 -0.0635  0.3532 -0.2038
  409ACOH    C112169   5.820   8.327   4.231 -0.0462 -0.3939  0.8919
  409ACOH    H112170   5.788   8.394   4.151  1.2003 -4.1202  0.0055
  409ACOH    H212171   5.927   8.342   4.255  0.6092  0.4218  1.3978
  409ACOH    H312172   5.760   8.342   4.315 -0.0544 -2.2482 -0.7154
  410ACOH    H412173   5.731   7.864   8.221 -2.0475  1.8754 -1.4455
  410ACOH    O212174   5.808   7.856   8.285  0.1610  0.0683 -0.0115
  410ACOH    C212175   5.776   7.926   8.398  0.6004  0.0989 -0.1382
  410ACOH    O112176   5.666   7.969   8.426  0.3052 -0.1092  0.1057
  410ACOH    C112177   5.900   7.975   8.462  0.6522 -0.6502 -0.3922
  410ACOH    H112178   5.966   7.906   8.513  0.2775  0.6360 -1.9710
  410ACOH    H212179   5.881   8.061   8.529  1.9403  1.4211 -0.4749
  410ACOH    H312180   5.956   8.012   8.384 -1.1124  1.0426  3.4681
  411ACOH    H412181   3.671   9.843   7.645  0.3176 -0.6090 -0.1431
  411ACOH    O212182   3.750   9.787   7.659 -0.0951 -0.3753 -0.0323
  411ACOH    C212183   3.758   9.730   7.779 -0.3874  0.5926 -0.6991
  411ACOH    O112184   3.687   9.756   7.875 -0.3237  0.1125  1.0131
  411ACOH    C112185   3.877   9.639   7.788 -0.2175  0.1898  0.2122
  411ACOH    H112186   3.892   9.594   7.890  1.3869  0.3526  2.8894
  411ACOH    H212187   3.969   9.690   7.746 -0.0343 -1.9750 -4.1056
  411ACOH    H312188   3.850   9.563   7.717 -0.5149  3.1771 -0.8341
  412ACOH    H412189   5.322   7.015   9.396  0.1066  0.8131  0.2300
  412ACOH    O212190   5.281   7.106   9.378  0.3327 -0.4913  0.4951
  412ACOH    C212191   5.319   7.130   9.250 -0.2348 -0.3823  1.1509
  412ACOH    O112192   5.419   7.082   9.201  0.2187 -0.7640  0.1755
  412ACOH    C112193   5.252   7.248   9.184 -0.2622  0.1222 -0.5175
  412ACOH    H112194   5.169   7.290   9.241 -0.9594  2.3378  1.0847
  412ACOH    H212195   5.218   7.224   9.084 -1.5764 -2.3994  0.3634
  412ACOH    H312196   5.317   7.322   9.182  0.6442  0.4258  0.5536
  413ACOH    H412197   5.200   7.705   6.763  1.4294 -2.2355 -0.6786
  413ACOH    O212198   5.164   7.685   6.673  0.1924  0.3412  0.0182
  413ACOH    C212199   5.223   7.577   6.622  0.3036  0.0952  0.2271
  413ACOH    O112200   5.255   7.480   6.687  0.1307 -0.0069  0.8806
  413ACOH    C112201   5.225   7.572   6.474  0.3706 -0.4939  0.2422
  413ACOH    H112202   5.255   7.674   6.448  2.3383 -1.1635  0.4619
  413ACOH    H212203   5.130   7.545   6.431  0.8840 -0.4121  1.1000
  413ACOH    H312204   5.302   7.506   6.437  0.2873  1.8805  1.5408
  414ACOH    H412205   3.880   0.707   0.503  2.3116  1.9927  0.4128
  414ACOH    O212206   3.883   0.789   0.448 -0.6184 -0.1431  0.5713
  414ACOH    C212207   3.835   0.760   0.329  0.1663 -0.0615  0.1256
  414ACOH    O112208   3.827   0.645   0.287 -0.7017  1.5245 -0.1336
  414ACOH    C112209   3.801   0.877   0.246 -0.5410  0.5333 -0.3653
  414ACOH    H112210   3.794   0.975   0.298  1.9823  0.9074  2.0829
  414ACOH    H212211   3.707   0.857   0.192 -2.0462  0.8660 -1.6811
  414ACOH    H312212   3.890   0.887   0.179  1.3439  1.3212 -1.7335
  415ACOH    H412213   4.439   1.191   1.071 -0.1462  0.4114  2.4058
  415ACOH    O212214   4.345   1.160   1.039 -0.2859 -0.3098 -0.0795
  415ACOH    C212215   4.360   1.024   1.044  0.7845  0.0658  0.2112
  415ACOH    O112216   4.459   0.961   1.072  0.2230 -0.1092 -0.5229
  415ACOH    C112217   4.235   0.955   0.985 -0.5593 -0.0605  0.8346
  415ACOH    H112218   4.195   1.042   0.930  3.0873 -0.2433  1.0081
  415ACOH    H212219   4.173   0.916   1.058 -2.4955  1.6123 -0.6976
  415ACOH    H312220   4.270   0.884   0.917  2.3049  2.3302  0.5400
  416ACOH    H412221   5.459   0.138   3.738 -1.5572 -0.1615  0.0141
  416ACOH    O212222   5.399   0.088   3.800  0.2731  0.3615  0.2084
  416ACOH    C212223   5.287   0.158   3.811 -0.8622 -0.2086  0.4548
  416ACOH    O112224   5.249   0.243   3.728 -0.2123 -0.5248  0.1903
  416ACOH    C112225   5.207   0.109   3.923 -0.0796  0.1475 -0.6517
  416ACOH    H112226   5.221   0.007   3.943 -2.2356  1.5164  1.0237
  416ACOH    H212227   5.104   0.133   3.911  1.1196 -0.9237  1.8546
  416ACOH    H312228   5.242   0.161   4.007 -1.0923 -0.9019 -1.2033
  417ACOH    H412229   3.433   1.694   8.675 -0.6601  0.0641 -0.6839
  417ACOH    O212230   3.523   1.732   8.658 -0.2175 -0.2105 -0.3348
  417ACOH    C212231   3.483   1.855   8.609 -0.0624 -0.0035  0.3858
  417ACOH    O112232   3.366   1.890   8.585 -0.2715 -0.1436  0.2612
  417ACOH    C112233   3.595   1.932   8.555  0.2609 -0.3189 -0.2421
  417ACOH    H112234   3.685   1.901   8.604  2.3115 -2.6503 -0.4772
  417ACOH    H212235   3.576   2.042   8.575 -2.9959 -0.9455  0.2285
  417ACOH    H312236   3.593   1.920   8.450  0.6302 -3.2255  1.1464
  418ACOH    H412237   6.652   1.904   7.466 -0.4741 -1.5924 -0.7297
  418ACOH    O212238   6.580   1.894   7.395 -0.2305 -0.3196  0.0273
  418ACOH    C212239   6.565   2.007   7.319 -0.8422  0.0345 -0.2738
  418ACOH    O112240   6.585   2.118   7.357 -0.4678 -0.7396  0.2491
  418ACOH    C112241   6.477   1.983   7.197 -0.5229  0.0547  0.1314
  418ACOH    H112242   6.544   1.984   7.112  1.4676  1.5734  0.7571
  418ACOH    H212243   6.394   2.062   7.191  0.1945  0.4232 -0.0756
  418ACOH    H312244   6.444   1.884   7.213 -1.3398  1.9669  0.6140
  419ACOH    H412245   7.991   9.552   2.442  0.3019  1.9587  1.2559
  419ACOH    O212246   8.040   9.466   2.431 -0.1647 -0.1280 -0.3352
  419ACOH    C212247   8.151   9.488   2.499  0.1898 -0.1002  0.2578
  419ACOH    O112248   8.191   9.593   2.545 -0.0159  0.0041  0.2830
  419ACOH    C112249   8.220   9.363   2.528  0.1456  0.0810  0.4242
  419ACOH    H112250   8.212   9.362   2.637 -2.5617  0.3937 -2.0623
  419ACOH    H212251   8.325   9.366   2.494  0.9785 -0.6536  4.9227
  419ACOH    H312252   8.169   9.279   2.486  0.3780 -0.8449  4.6231
  420ACOH    H412253   8.245   0.723   1.622  0.8984  0.0232 -2.1847
  420ACOH    O212254   8.267   0.809   1.571 -0.1731 -0.1945  0.4439
  420ACOH    C212255   8.153   0.883   1.556 -0.4301 -0.1925 -0.1871
  420ACOH    O112256   8.041   0.827   1.564  0.0832  0.0310  0.2861
  420ACOH    C112257   8.165   1.024   1.515 -0.3693  0.1175  0.1508
  420ACOH    H112258   8.112   1.035   1.417  1.2055  0.1840 -0.9737
  420ACOH    H212259   8.272   1.048   1.510 -2.7339 -1.1539 -3.0176
  420ACOH    H312260   8.122   1.097   1.583 -0.3099  0.7351 -2.7345
  421ACOH    H412261   6.516   1.275   7.442  0.2945 -2.9617 -1.8661
  421ACOH    O212262   6.526   1.376   7.434  0.0076  0.0243 -0.0744
  421ACOH    C212263   6.624   1.411   7.514 -0.2651  0.3150 -0.2191
  421ACOH    O112264   6.703   1.339   7.571  0.6146  0.0545  0.8807
  421ACOH    C112265   6.632   1.559   7.505 -0.4208  0.7537  0.0441
  421ACOH    H112266   6.642   1.585   7.402  0.0383  1.2571 -0.3366
  421ACOH    H212267   6.712   1.592   7.567  1.7825  1.1766 -0.1027
  421ACOH    H312268   6.543   1.597   7.541 -0.5718  0.1724 -0.5771
  422ACOH    H412269   8.281   0.412   1.216 -3.5579 -1.0981 -0.2285
  422ACOH    O212270   8.219   0.404   1.298 -0.0372 -0.4747  0.1017
  422ACOH    C212271   8.228   0.273   1.328  0.0618  0.1259 -0.2504
  422ACOH    O112272   8.305   0.189   1.290 -0.1642  0.1157  0.7980
  422ACOH    C112273   8.110   0.229   1.410 -0.0172  0.2908 -0.1539
  422ACOH    H112274   8.015   0.242   1.358 -0.9237 -0.6396  2.3538
  422ACOH    H212275   8.094   0.287   1.498 -1.5100  1.8888  1.1295
  422ACOH    H312276   8.125   0.129   1.444 -1.8601 -1.8706 -0.4199
  423ACOH    H412277   8.270   9.976   3.309  2.9363  2.3781  0.1905
  423ACOH    O212278   8.278   9.995   3.406 -0.0326 -0.3770  0.7907
  423ACOH    C212279   8.231   9.890   3.484  0.8267  0.4399 -0.2349
  423ACOH    O112280   8.180   9.782   3.454  0.4238 -0.1093  0.7190
  423ACOH    C112281   8.247   9.930   3.625 -0.0962  0.6470 -0.2167
  423ACOH    H112282   8.209   9.855   3.688 -0.4354  0.2413 -1.7233
  423ACOH    H212283   8.192  10.032   3.644 -2.4414  2.7189  4.2776
  423ACOH    H312284   8.351   9.950   3.649  1.8798  1.6825  0.1338
  424ACOH    H412285   5.403   9.119   5.756 -0.9297 -1.0428 -1.8878
  424ACOH    O212286   5.456   9.140   5.678 -0.0301  0.2730 -0.5031
  424ACOH    C212287   5.518   9.036   5.623  0.1799  0.1502 -0.0815
  424ACOH    O112288   5.470   8.926   5.622 -0.6173 -0.1489 -0.6999
  424ACOH    C112289   5.633   9.080   5.547 -0.4835 -0.3712 -0.5923
  424ACOH    H112290   5.608   9.075   5.444 -0.8016 -1.4449  3.2265
  424ACOH    H212291   5.723   9.014   5.557  1.9601  0.3338  0.9971
  424ACOH    H312292   5.675   9.180   5.568  1.0993  0.7809 -0.5745
  425ACOH    H412293   3.411   1.459   8.513  0.0775  2.1574 -0.2335
  425ACOH    O212294   3.383   1.552   8.494 -0.2214 -0.0798 -0.3930
  425ACOH    C212295   3.368   1.550   8.361 -0.0465  0.4453 -0.4215
  425ACOH    O112296   3.339   1.450   8.299  0.0195  0.0438 -0.3649
  425ACOH    C112297   3.347   1.680   8.301  0.2513 -0.1710 -0.0149
  425ACOH    H112298   3.275   1.740   8.357 -0.5252 -2.5233 -0.7607
  425ACOH    H212299   3.319   1.667   8.199 -0.0501 -0.9496  0.4714
  425ACOH    H312300   3.438   1.736   8.303 -1.9733  0.7761  1.7954
  426ACOH    H412301   7.343   3.040   3.742  0.1425 -0.6609  1.7842
  426ACOH    O212302   7.354   3.008   3.836  0.6122 -0.5626 -0.2585
  426ACOH    C212303   7.396   2.882   3.837  0.1021 -0.7524 -0.5361
  426ACOH    O112304   7.422   2.819   3.739 -0.0206 -0.0052  0.7925
  426ACOH    C112305   7.427   2.845   3.973  1.2620 -0.5082 -0.7387
  426ACOH    H112306   7.340   2.838   4.042  0.8283  0.6484 -2.7179
  426ACOH    H212307   7.492   2.928   3.999  0.9627 -3.1171 -2.7589
  426ACOH    H312308   7.484   2.751   3.980  1.5336  1.5744  0.3376
  427ACOH    H412309   0.337   8.311   7.400 -1.6842 -1.1656 -4.4849
  427ACOH    O212310   0.281   8.386   7.372 -0.3878  0.3167  0.3139
  427ACOH    C212311   0.304   8.487   7.458 -0.2977  0.6696 -0.3496
  427ACOH    O112312   0.382   8.478   7.548  0.2072 -0.3864 -0.5974
  427ACOH    C112313   0.256   8.612   7.401 -0.1341 -0.8178 -0.5429
  427ACOH    H112314   0.307   8.638   7.303  3.2380 -0.0574 -0.4246
  427ACOH    H212315   0.274   8.686   7.477  0.0044 -0.8879  2.9605
  427ACOH    H312316   0.146   8.602   7.393 -3.5786 -0.4144  0.5017
  428ACOH    H412317   6.791   2.298   2.896  2.1083 -0.6054 -3.1449
  428ACOH    O212318   6.856   2.241   2.846 -0.0177 -0.1178  0.2316
  428ACOH    C212319   6.864   2.281   2.715  0.8391  0.4172  0.2525
  428ACOH    O112320   6.805   2.373   2.666  0.4243 -0.2170 -0.8123
  428ACOH    C112321   6.942   2.184   2.639 -0.7749 -0.6426 -0.1706
  428ACOH    H112322   6.895   2.087   2.656 -0.8155 -0.2384 -0.0951
  428ACOH    H212323   7.047   2.199   2.662  1.0134  0.8377 -0.6261
  428ACOH    H312324   6.925   2.205   2.536  2.1078 -0.7926 -0.9742
  429ACOH    H412325   7.021   1.115   6.706  0.9695  2.2288 -0.4610
  429ACOH    O212326   6.973   1.201   6.688  0.1080  0.2965 -0.5223
  429ACOH    C212327   6.963   1.210   6.555 -0.2287  0.1931  0.3575
  429ACOH    O112328   7.010   1.136   6.472 -0.6232 -0.2376 -0.6734
  429ACOH    C112329   6.856   1.307   6.528 -0.5741 -0.0761 -0.4338
  429ACOH    H112330   6.897   1.396   6.491 -0.9532  1.2647  1.1280
  429ACOH    H212331   6.807   1.322   6.622 -0.1247 -0.1464  1.2789
  429ACOH    H312332   6.787   1.269   6.458  0.8072 -1.1500  0.9557
  430ACOH    H412333   7.926   1.170   6.477 -1.8522 -1.5730  2.6041
  430ACOH    O212334   7.834   1.188   6.510  0.7733  0.2281 -0.5719
  430ACOH    C212335   7.851   1.310   6.558 -0.1112 -0.0937 -0.1697
  430ACOH    O112336   7.956   1.377   6.561 -0.2093  0.0201 -0.2264
  430ACOH    C112337   7.729   1.359   6.614 -0.4213  0.1926 -0.2978
  430ACOH    H112338   7.699   1.294   6.697 -0.3713 -1.9441  1.0902
  430ACOH    H212339   7.653   1.372   6.535 -1.8107 -1.6818  0.5479
  430ACOH    H312340   7.749   1.461   6.651 -3.0506  2.9736  1.9935
  431ACOH    H412341   5.875   9.793   3.060  1.2034  2.1130 -0.0126
  431ACOH    O212342   5.827   9.709   3.045 -0.4927 -0.2145 -0.1953
  431ACOH    C212343   5.702   9.747   3.032 -0.7370  0.0346 -0.5529
  431ACOH    O112344   5.654   9.857   3.026 -0.4061  0.1733 -0.0834
  431ACOH    C112345   5.627   9.626   2.993  0.2782 -0.4618 -0.8919
  431ACOH    H112346   5.516   9.629   3.009 -2.6173 -2.1942 -1.2171
  431ACOH    H212347   5.655   9.541   3.049 -1.8954  2.6981  0.2697
  431ACOH    H312348   5.638   9.598   2.890 -1.7234  0.1706  1.5694
  432ACOH    H412349   6.713   2.333   7.025  0.8441 -0.2509  2.0948
  432ACOH    O212350   6.699   2.354   6.928 -0.1452  0.0645 -0.0851
  432ACOH    C212351   6.616   2.267   6.869 -0.3475  0.6510  0.4250
  432ACOH    O112352   6.575   2.162   6.915 -0.3273 -0.0368 -0.2240
  432ACOH    C112353   6.589   2.303   6.731  0.6267 -0.2103 -0.0610
  432ACOH    H112354   6.515   2.386   6.721  1.4695  1.8044 -2.1822
  432ACOH    H212355   6.537   2.219   6.678 -0.7479 -1.4301  0.3938
  432ACOH    H312356   6.685   2.327   6.674  2.7432  0.7870  1.5041
  433ACOH    H412357   5.826   2.607   7.047 -0.7991 -0.1598  1.2384
  433ACOH    O212358   5.830   2.590   6.950 -0.2447  0.5037 -0.3851
  433ACOH    C212359   5.765   2.473   6.933 -0.4039 -0.8520  0.4451
  433ACOH    O112360   5.726   2.392   7.011 -0.4097 -0.2538  0.1126
  433ACOH    C112361   5.769   2.413   6.798 -0.3645 -0.0161  0.0909
  433ACOH    H112362   5.821   2.317   6.807 -1.4134  1.7339 -0.3111
  433ACOH    H212363   5.808   2.476   6.722 -2.6558  0.7747  1.6570
  433ACOH    H312364   5.664   2.387   6.765 -2.3469  2.0350  0.1550
  434ACOH    H412365   7.995   0.205   1.762  0.0483 -0.7513  0.1108
  434ACOH    O212366   8.078   0.173   1.717  0.4173 -0.3408  0.3478
  434ACOH    C212367   8.184   0.189   1.803  0.3562 -0.4763 -0.1037
  434ACOH    O112368   8.192   0.200   1.922 -0.2692  0.4388 -0.8204
  434ACOH    C112369   8.305   0.168   1.719  0.3512 -0.0166  0.7401
  434ACOH    H112370   8.331   0.251   1.648  0.9670  2.3015  1.5567
  434ACOH    H212371   8.295   0.079   1.666  0.4488 -1.4210 -0.4924
  434ACOH    H312372   8.396   0.163   1.782 -1.8409  1.4112  1.0985
  435ACOH    H412373   5.800   1.402   7.895  3.5516  1.0592 -0.7035
  435ACOH    O212374   5.842   1.484   7.858  0.4097  0.2906  0.3164
  435ACOH    C212375   5.754   1.543   7.775  0.0395  0.0545  0.6289
  435ACOH    O112376   5.662   1.482   7.723 -0.3556 -0.4380 -0.1866
  435ACOH    C112377   5.792   1.685   7.748  0.7313  0.1215  0.5281
  435ACOH    H112378   5.709   1.752   7.777  0.9953 -0.5914 -2.0428
  435ACOH    H212379   5.786   1.700   7.640 -1.1112 -0.5013  0.2153
  435ACOH    H312380   5.885   1.716   7.782 -3.6587 -1.1711 -0.1516
  436ACOH    H412381   7.482   3.770   1.809 -0.9225  3.0344  0.8118
  436ACOH    O212382   7.412   3.829   1.768  0.8209 -0.2045  0.8407
  436ACOH    C212383   7.478   3.935   1.724  0.2160 -0.1275 -0.2078
  436ACOH    O112384   7.591   3.963   1.758  0.1371  0.6522  0.0067
  436ACOH    C112385   7.415   4.013   1.620  0.3746  0.0343  0.1737
  436ACOH    H112386   7.312   3.978   1.605 -0.8604  1.2992 -3.5869
  436ACOH    H212387   7.472   4.002   1.531 -1.7263 -0.8640  0.8621
  436ACOH    H312388   7.418   4.114   1.644 -0.6749  3.6330 -1.1292
  437ACOH    H412389   7.254   1.995   1.344  0.9532 -2.9213  0.2371
  437ACOH    O212390   7.313   1.981   1.426  0.0718 -0.0053 -0.4732
  437ACOH    C212391   7.345   2.109   1.467  0.2822  0.1561 -0.7954
  437ACOH    O112392   7.389   2.204   1.399  0.1089 -0.2777 -0.2934
  437ACOH    C112393   7.378   2.107   1.616  0.0120 -0.4235  0.5111
  437ACOH    H112394   7.488   2.094   1.630  0.4103  1.2084 -0.0504
  437ACOH    H212395   7.330   2.014   1.664  0.6524 -2.6096  1.4754
  437ACOH    H312396   7.346   2.196   1.665 -1.5422  0.9283  0.2492
  438ACOH    H412397   0.298   7.545   4.545  1.4127  0.2119 -0.5182
  438ACOH    O212398   0.367   7.619   4.534 -0.1338 -0.3531  0.5392
  438ACOH    C212399   0.362   7.683   4.418  0.1540 -0.3370  0.2286
  438ACOH    O112400   0.277   7.667   4.330  0.5991  0.3565  0.0505
  438ACOH    C112401   0.478   7.770   4.408  0.5743  0.9203 -0.4824
  438ACOH    H112402   0.444   7.860   4.360  1.4036  1.4685  1.4122
  438ACOH    H212403   0.534   7.705   4.344 -1.9911 -0.9066  2.8023
  438ACOH    H312404   0.527   7.777   4.510  2.7551  0.4786  1.7305
  439ACOH    H412405   6.527   2.728   8.247 -1.4986  2.7499  0.4627
  439ACOH    O212406   6.591   2.702   8.176 -0.1159  0.5031  0.3780
  439ACOH    C212407   6.608   2.811   8.107  0.2121  0.6911  0.6741
  439ACOH    O112408   6.659   2.912   8.158  0.0786 -0.2680  0.0583
  439ACOH    C112409   6.644   2.780   7.971  0.1151 -0.5468  0.1207
  439ACOH    H112410   6.604   2.689   7.940  0.2168  0.9110 -1.5457
  439ACOH    H212411   6.750   2.786   7.946 -0.7219  2.2519 -0.0499
  439ACOH    H312412   6.589   2.853   7.909  0.2460 -3.1906 -2.0171
  440ACOH    H412413   7.010   3.080   4.797  0.3447 -0.2849 -1.5733
  440ACOH    O212414   6.928   3.131   4.832 -0.2436  0.0838  0.7600
  440ACOH    C212415   6.980   3.249   4.873  0.1701  0.0038  0.0152
  440ACOH    O112416   7.098   3.273   4.874  0.7612 -0.0313 -0.0787
  440ACOH    C112417   6.874   3.325   4.949 -0.1692 -0.3389  0.4430
  440ACOH    H112418   6.777   3.311   4.899 -0.0004 -0.4334 -0.8782
  440ACOH    H212419   6.889   3.431   4.957 -1.1108  2.0436  1.1636
  440ACOH    H312420   6.862   3.279   5.044 -0.6963 -0.0702  0.0921
  441ACOH    H412421   6.471   9.741   5.999 -2.1873 -1.7741  1.1665
  441ACOH    O212422   6.437   9.814   5.937 -0.3239 -0.4441  0.0194
  441ACOH    C212423   6.540   9.899   5.919  0.1954  0.6449  0.2120
  441ACOH    O112424   6.634   9.910   5.990  0.6066 -0.2790 -0.1284
  441ACOH    C112425   6.486  10.015   5.846  1.2127 -0.3971 -0.1576
  441ACOH    H112426   6.433   9.986   5.754  0.6855  0.5935 -0.2257
  441ACOH    H212427   6.568  10.079   5.825  1.6041  0.0033 -1.6491
  441ACOH    H312428   6.416  10.068   5.915  0.3697 -1.3282 -0.2816
  442ACOH    H412429   6.690   9.238   4.628 -0.6800 -0.4270  0.6897
  442ACOH    O212430   6.726   9.179   4.565 -0.5220 -0.1098  0.6121
  442ACOH    C212431   6.819   9.109   4.632  0.9783  0.1583  0.1576
  442ACOH    O112432   6.873   9.157   4.733  0.0219 -0.4756  0.2343
  442ACOH    C112433   6.856   8.986   4.562  0.3401  0.6574  0.3938
  442ACOH    H112434   6.964   8.987   4.550  0.2723 -2.0910 -0.7725
  442ACOH    H212435   6.817   8.995   4.459  0.5227 -1.0428 -4.2374
  442ACOH    H312436   6.830   8.892   4.618 -0.2218 -1.5356  0.1295
  443ACOH    H412437   6.271   2.405   1.501 -0.2864 -2.1438  2.7657
  443ACOH    O212438   6.270   2.503   1.489  0.3939  0.4425  0.7669
  443ACOH    C212439   6.142   2.542   1.486 -0.1404 -0.4873 -0.3146
  443ACOH    O112440   6.046   2.467   1.492 -0.0980  0.2358  0.3335
  443ACOH    C112441   6.122   2.686   1.476  0.3386  0.5472  0.4739
  443ACOH    H112442   6.035   2.712   1.419  3.3398  1.5367 -2.3695
  443ACOH    H212443   6.204   2.733   1.424 -1.7788 -0.9194 -0.0872
  443ACOH    H312444   6.115   2.742   1.575 -0.6262 -0.9719  2.3516
  444ACOH    H412445   6.221   2.828   6.204 -0.9069  0.1026 -0.6269
  444ACOH    O212446   6.218   2.889   6.125 -0.1278  0.1478 -0.1006
  444ACOH    C212447   6.098   2.955   6.132 -0.1576  0.2067  0.4624
  444ACOH    O112448   6.001   2.935   6.203  0.5869  0.0364 -0.1610
  444ACOH    C112449   6.101   3.075   6.041  0.0871  0.3217  0.2677
  444ACOH    H112450   6.046   3.047   5.957 -1.2376 -2.1371  1.5802
  444ACOH    H212451   6.208   3.084   6.015  0.7778 -0.1747  2.9138
  444ACOH    H312452   6.062   3.158   6.095 -2.2309 -2.0966 -0.2896
  445ACOH    H412453   6.508   1.116   6.667  2.3122  3.8719 -0.5601
  445ACOH    O212454   6.501   1.209   6.687 -0.4221 -0.4577  0.3125
  445ACOH    C212455   6.449   1.268   6.580 -0.3948 -0.3750  0.7376
  445ACOH    O112456   6.456   1.223   6.467 -0.2190 -0.2045 -0.7005
  445ACOH    C112457   6.429   1.411   6.616  0.5803 -0.1328  0.3193
  445ACOH    H112458   6.510   1.468   6.563 -0.1965 -1.6789 -0.0685
  445ACOH    H212459   6.435   1.426   6.720 -1.6711  0.9561  0.0030
  445ACOH    H312460   6.333   1.442   6.570  1.5346 -2.4745 -2.0401
  446ACOH    H412461   7.553   1.997   6.975 -0.3322  0.5465 -0.7135
  446ACOH    O212462   7.589   1.917   6.918 -0.5681  0.6057 -0.2201
  446ACOH    C212463   7.697   1.862   6.971  0.2802  0.4298  0.4644
  446ACOH    O112464   7.752   1.905   7.070 -0.3785  0.1104 -0.3759
  446ACOH    C112465   7.752   1.758   6.887  0.6544 -0.5930  0.5899
  446ACOH    H112466   7.794   1.806   6.796 -0.6293 -1.1060 -1.3941
  446ACOH    H212467   7.667   1.701   6.857  0.0834  2.3161 -0.4431
  446ACOH    H312468   7.809   1.691   6.943  0.0517  3.8943  1.6260
  447ACOH    H412469   6.298   1.724   4.749 -2.4388  1.0141  0.3145
  447ACOH    O212470   6.343   1.767   4.831 -0.1427 -0.0687 -0.3868
  447ACOH    C212471   6.329   1.683   4.930  0.0661 -0.9864 -0.1799
  447ACOH    O112472   6.261   1.582   4.937 -0.3452 -0.3076 -0.3162
  447ACOH    C112473   6.396   1.731   5.050 -0.3415 -0.2196 -0.1634
  447ACOH    H112474   6.497   1.779   5.032  1.3038  1.8807  1.4068
  447ACOH    H212475   6.409   1.642   5.115 -0.2351 -0.4003  0.7395
  447ACOH    H312476   6.332   1.799   5.108  0.3195 -0.8743  0.2409
  448ACOH    H412477   8.404   2.638   7.077 -0.1111 -1.7678 -1.2666
  448ACOH    O212478   8.460   2.679   7.151 -0.2563  0.2243 -0.0499
  448ACOH    C212479   8.563   2.744   7.095  0.3147  0.7361 -0.0565
  448ACOH    O112480   8.619   2.725   6.985  0.6015 -0.0548 -0.2683
  448ACOH    C112481   8.626   2.843   7.187 -0.2441  0.2589 -0.3989
  448ACOH    H112482   8.729   2.817   7.201  2.9475  0.6397 -1.4924
  448ACOH    H212483   8.581   2.831   7.288  3.9808 -1.6231  0.2065
  448ACOH    H312484   8.617   2.941   7.152  1.4412  0.7075  1.8218
  449ACOH    H412485   5.160   1.911   6.957 -2.2586 -1.6268 -1.3929
  449ACOH    O212486   5.256   1.873   6.957  0.2463  0.1997  0.3398
  449ACOH    C212487   5.288   1.847   6.828  0.1906 -0.5044 -0.5599
  449ACOH    O112488   5.218   1.881   6.734 -0.0885 -0.0591 -0.1588
  449ACOH    C112489   5.401   1.751   6.811 -0.0495 -0.0259 -0.6124
  449ACOH    H112490   5.356   1.659   6.776 -1.7578  2.7783  1.6213
  449ACOH    H212491   5.457   1.730   6.903  0.4797  2.3420  2.8075
  449ACOH    H312492   5.470   1.777   6.723  0.8956 -2.3312  2.0809
  450ACOH    H412493   7.421   1.879   8.554 -2.2416 -0.0293  1.2323
  450ACOH    O212494   7.415   1.786   8.517 -0.2862 -0.7553 -0.0503
  450ACOH    C212495   7.331   1.803   8.416  0.8617  0.3883 -0.3569
  450ACOH    O112496   7.238   1.884   8.419 -0.6833  0.1060  0.4623
  450ACOH    C112497   7.326   1.694   8.319  0.3495  0.2849 -0.3045
  450ACOH    H112498   7.334   1.733   8.224 -1.1972  1.2778  4.1996
  450ACOH    H212499   7.231   1.640   8.327 -1.0578 -0.2553  1.4465
  450ACOH    H312500   7.400   1.619   8.339  0.3436  0.6261  0.9155
  451ACOH    H412501   6.639   3.566   5.760  1.3786  1.4676 -1.8312
  451ACOH    O212502   6.565   3.627   5.727 -0.3856 -0.2869 -0.1750
  451ACOH    C212503   6.636   3.715   5.662 -0.0990 -0.0321 -0.6581
  451ACOH    O112504   6.757   3.723   5.644  0.1019  0.0436  0.1968
  451ACOH    C112505   6.554   3.838   5.636  0.4581  0.2518 -0.2927
  451ACOH    H112506   6.480   3.858   5.710  1.6147 -2.3675 -1.9660
  451ACOH    H212507   6.499   3.827   5.542  0.5308 -1.6967  2.8247
  451ACOH    H312508   6.620   3.920   5.621  0.3919  1.8785  1.2638
  452ACOH    H412509   5.068   3.209   8.122 -2.3169  0.4410 -0.2261
  452ACOH    O212510   5.145   3.231   8.177  0.5326  0.1601  0.8081
  452ACOH    C212511   5.085   3.240   8.297  0.0192  1.1347  0.3773
  452ACOH    O112512   4.983   3.186   8.345 -0.5716  0.1048 -0.0846
  452ACOH    C112513   5.175   3.312   8.390  0.3605  0.1915  0.2519
  452ACOH    H112514   5.161   3.424   8.380  1.6628  2.6592  0.9152
  452ACOH    H212515   5.275   3.278   8.370  1.0299 -0.1922  1.8224
  452ACOH    H312516   5.159   3.280   8.490  0.9030 -1.7938  1.1934
  453ACOH    H412517   7.280   1.166   1.633  1.2236 -1.3297  1.2516
  453ACOH    O212518   7.237   1.210   1.715  0.0718  0.8877  0.0642
  453ACOH    C212519   7.338   1.214   1.804  0.0525  0.4938 -0.0695
  453ACOH    O112520   7.452   1.236   1.767 -0.2390  0.8274  0.1764
  453ACOH    C112521   7.289   1.249   1.939  1.0940  0.7219 -0.4692
  453ACOH    H112522   7.184   1.214   1.951 -0.3886  1.5197 -0.6334
  453ACOH    H212523   7.309   1.355   1.962 -2.0115  0.6549  0.7219
  453ACOH    H312524   7.345   1.187   2.006 -0.2022 -1.1373 -0.5157
  454ACOH    H412525   5.951   6.609   9.465  3.0854 -0.9937 -0.2359
  454ACOH    O212526   5.858   6.631   9.492  0.2355 -0.1149 -0.0245
  454ACOH    C212527   5.858   6.691   9.614  0.0776 -0.9552 -0.5440
  454ACOH    O112528   5.954   6.715   9.681  0.4032  0.2191 -0.0936
  454ACOH    C112529   5.721   6.719   9.657 -0.1348 -0.1386  0.1104
  454ACOH    H112530   5.666   6.636   9.622  3.8583 -0.7354  1.4647
  454ACOH    H212531   5.678   6.807   9.610  0.0146 -0.0869  2.1732
  454ACOH    H312532   5.721   6.731   9.763 -2.9328 -0.5118 -1.4943
  455ACOH    H412533   4.741   4.088   8.016  0.5526  0.9982  0.4522
  455ACOH    O212534   4.738   3.995   7.979 -0.2686 -0.1660 -0.4345
  455ACOH    C212535   4.781   4.014   7.849 -0.2194 -0.0744 -0.0237
  455ACOH    O112536   4.813   4.111   7.792  0.4471  0.1961 -0.0692
  455ACOH    C112537   4.759   3.892   7.770 -0.1829  0.2773  0.3712
  455ACOH    H112538   4.649   3.891   7.745  1.1137  1.5568 -0.4638
  455ACOH    H212539   4.786   3.806   7.837  2.1960  0.1060  3.2661
  455ACOH    H312540   4.816   3.881   7.675 -0.7215  0.3208 -0.2476
  456ACOH    H412541   7.883   4.463   9.510 -1.7728  2.0842 -0.3751
  456ACOH    O212542   7.968   4.515   9.497  0.2718  0.2743  0.2998
  456ACOH    C212543   8.026   4.545   9.613 -0.1666  0.1553 -0.3132
  456ACOH    O112544   7.974   4.524   9.722  0.1222 -0.0743 -0.1302
  456ACOH    C112545   8.158   4.607   9.601 -0.7482 -0.3867  0.2399
  456ACOH    H112546   8.150   4.694   9.532 -1.8340  0.2007 -1.9485
  456ACOH    H212547   8.235   4.538   9.561 -0.7642  0.2205 -3.0052
  456ACOH    H312548   8.199   4.634   9.702  3.2931  1.7236  0.6705
  457ACOH    H412549   7.026   2.727   1.179  1.6224 -1.1394  2.6168
  457ACOH    O212550   7.080   2.812   1.188 -0.1842  0.3123  0.6714
  457ACOH    C212551   7.056   2.863   1.311 -0.7219  0.3161 -0.0689
  457ACOH    O112552   7.017   2.796   1.407 -0.0678  0.3796  0.3015
  457ACOH    C112553   7.104   3.006   1.323  0.5896 -0.7359  0.7108
  457ACOH    H112554   7.063   3.061   1.237 -0.8949  0.1723 -1.7358
  457ACOH    H212555   7.208   3.005   1.319 -0.9115  1.2886  0.2130
  457ACOH    H312556   7.074   3.048   1.415 -2.3106 -1.3510 -0.7151
  458ACOH    H412557   7.339   4.085   0.887 -0.6236 -0.5462  0.4105
  458ACOH    O212558   7.384   4.081   0.802 -0.0593 -0.5065 -0.6334
  458ACOH    C212559   7.328   3.973   0.742 -0.0900  0.4453  0.5117
  458ACOH    O112560   7.213   3.939   0.747  0.3917  0.1228 -0.3398
  458ACOH    C112561   7.417   3.913   0.630 -0.0123  0.4577  0.0378
  458ACOH    H112562   7.400   3.954   0.533  0.5103 -0.9576 -0.7416
  458ACOH    H212563   7.385   3.806   0.625  1.1051  0.1769  2.7673
  458ACOH    H312564   7.526   3.914   0.663 -1.5984  1.4222  0.4948
  459ACOH    H412565   5.345   5.023   2.967  0.5873 -0.5671  1.3555
  459ACOH    O212566   5.341   5.096   2.898 -0.4904  0.3057  0.0225
  459ACOH    C212567   5.229   5.087   2.828  1.2614 -0.4369 -0.3114
  459ACOH    O112568   5.128   5.022   2.851  0.1462  0.0847  0.2951
  459ACOH    C112569   5.238   5.177   2.707 -0.0510  0.2092 -0.4106
  459ACOH    H112570   5.339   5.183   2.672  2.0004 -2.2483 -0.4624
  459ACOH    H212571   5.195   5.269   2.718  1.9264  0.6168 -2.0584
  459ACOH    H312572   5.187   5.138   2.624  0.3102  0.1174  2.2933
  460ACOH    H412573   4.873   3.195   4.989  1.2243  2.9639 -0.6771
  460ACOH    O212574   4.871   3.180   4.886 -0.2237 -0.1273 -0.5633
  460ACOH    C212575   4.944   3.077   4.852 -0.1812  0.0919 -0.6922
  460ACOH    O112576   4.960   2.974   4.919  0.5690 -0.3814 -0.0269
  460ACOH    C112577   4.968   3.084   4.708  0.4109 -0.5333 -0.3350
  460ACOH    H112578   5.033   3.161   4.672  0.9245 -0.6748  0.4686
  460ACOH    H212579   4.876   3.077   4.657  0.6264  0.6253  1.1046
  460ACOH    H312580   5.027   2.997   4.677  0.2465  0.3068 -0.4738
  461ACOH    H412581   6.019   5.573   4.954 -1.1343  0.1250  1.3243
  461ACOH    O212582   6.036   5.475   4.930 -0.1920  0.5482 -0.8042
  461ACOH    C212583   5.916   5.415   4.917  0.1285  0.8436  0.0480
  461ACOH    O112584   5.813   5.476   4.912  0.3452  0.2988 -0.6371
  461ACOH    C112585   5.919   5.272   4.885 -0.4508  0.5964  0.9272
  461ACOH    H112586   5.867   5.255   4.798  1.3056  0.1238 -0.4884
  461ACOH    H212587   5.863   5.219   4.969 -2.1307  2.4422  0.1644
  461ACOH    H312588   6.016   5.233   4.868  1.5157 -1.2857 -3.1386
  462ACOH    H412589   6.232   4.273   6.139  0.4437  1.2896 -0.5076
  462ACOH    O212590   6.237   4.183   6.102  0.0551  0.1056  0.5937
  462ACOH    C212591   6.309   4.194   5.986  0.9947  0.1209  0.4401
  462ACOH    O112592   6.345   4.300   5.938 -0.0981 -0.3405  0.1620
  462ACOH    C112593   6.340   4.063   5.928 -0.4263 -0.3171  0.4963
  462ACOH    H112594   6.429   4.081   5.863  0.8753  2.2292  2.2174
  462ACOH    H212595   6.253   4.041   5.868 -1.7543  0.4173  2.2254
  462ACOH    H312596   6.366   3.978   5.993  1.9995 -0.1411  1.8737
  463ACOH    H412597   6.583   4.057   6.165 -0.1675  0.4605  0.1367
  463ACOH    O212598   6.539   3.969   6.165  0.2466  0.5215 -0.0022
  463ACOH    C212599   6.608   3.898   6.072  0.8539  0.0550 -0.3637
  463ACOH    O112600   6.682   3.939   5.990  0.5658  0.4930 -0.0853
  463ACOH    C112601   6.589   3.751   6.094 -0.0587 -0.1307 -0.3395
  463ACOH    H112602   6.528   3.732   6.179 -0.8352  0.7919  2.5950
  463ACOH    H212603   6.683   3.706   6.105  1.9348 -0.9795 -0.6381
  463ACOH    H312604   6.546   3.704   6.010  0.6537  1.4821 -1.8241
  464ACOH    H412605   6.654   3.448   5.105 -0.7835 -2.8621  0.1640
  464ACOH    O212606   6.716   3.532   5.131  0.5575  0.0502  0.3722
  464ACOH    C212607   6.756   3.501   5.253  0.0391 -0.2883 -0.0744
  464ACOH    O112608   6.716   3.410   5.323  0.0002  0.2069  0.0324
  464ACOH    C112609   6.859   3.598   5.299  0.3550 -0.9813  0.1144
  464ACOH    H112610   6.935   3.535   5.351 -1.1011 -3.1859 -1.3819
  464ACOH    H212611   6.816   3.667   5.373  0.5512  0.9023  3.2320
  464ACOH    H312612   6.911   3.654   5.220 -1.6706  0.4501  2.3928
  465ACOH    H412613   8.260   5.899   7.592  0.3054 -1.7513 -2.1825
  465ACOH    O212614   8.216   5.891   7.510  0.0674  0.3296  0.0721
  465ACOH    C212615   8.139   5.784   7.525  0.0022  0.2767 -0.0923
  465ACOH    O112616   8.168   5.692   7.596 -0.2566  0.5612 -0.2091
  465ACOH    C112617   8.041   5.776   7.416 -0.1254 -0.8872 -0.1522
  465ACOH    H112618   7.977   5.865   7.414  1.1625  0.5441 -2.1488
  465ACOH    H212619   7.983   5.690   7.427 -1.2221  0.6924 -0.8292
  465ACOH    H312620   8.092   5.776   7.324  1.8622 -3.1746  1.1330
  466ACOH    H412621   7.099   6.313   0.671 -1.2464 -1.1696 -0.7310
  466ACOH    O212622   7.165   6.384   0.643  0.1803 -0.4977 -0.0320
  466ACOH    C212623   7.260   6.318   0.571 -0.3172 -0.6553 -0.3638
  466ACOH    O112624   7.282   6.198   0.587  0.4972  0.0894 -0.5230
  466ACOH    C112625   7.340   6.419   0.498  0.1094 -0.0973 -0.3022
  466ACOH    H112626   7.387   6.481   0.577 -1.4443 -0.0787  0.5250
  466ACOH    H212627   7.290   6.481   0.430  2.6804 -2.0737  1.5292
  466ACOH    H312628   7.415   6.371   0.440 -0.5477  1.4058  0.5217
  467ACOH    H412629   5.169   5.656   7.409 -2.9706  1.6890  1.9970
  467ACOH    O212630   5.133   5.702   7.483  0.3484 -0.0485 -0.2906
  467ACOH    C212631   5.042   5.627   7.546 -0.6550 -0.7575  0.2641
  467ACOH    O112632   5.015   5.510   7.526  0.2712 -0.6420 -0.3370
  467ACOH    C112633   4.998   5.710   7.660 -0.3210  0.6723  0.4201
  467ACOH    H112634   4.963   5.635   7.734  0.8892 -0.2294 -0.2225
  467ACOH    H212635   4.923   5.785   7.642  0.1055 -1.2043 -1.2371
  467ACOH    H312636   5.083   5.759   7.704 -0.4003 -1.3740 -1.9783
  468ACOH    H412637   7.790   3.869   5.502 -1.2748 -0.1719 -0.4688
  468ACOH    O212638   7.818   3.958   5.542  0.3205 -0.5069 -0.0394
  468ACOH    C212639   7.774   4.067   5.472 -0.0938  0.4912  0.9771
  468ACOH    O112640   7.735   4.062   5.356  0.1510 -0.3818 -0.4089
  468ACOH    C112641   7.830   4.193   5.529 -1.3155  0.0847 -0.4819
  468ACOH    H112642   7.937   4.195   5.538  1.1984  0.4237 -0.4211
  468ACOH    H212643   7.780   4.225   5.626 -2.6863 -1.8691  2.2022
  468ACOH    H312644   7.817   4.268   5.443  0.2910  0.0380  0.1536
  469ACOH    H412645   7.084   6.443   1.321 -1.0179  0.3037  2.4066
  469ACOH    O212646   7.151   6.382   1.270  0.7668 -0.3267  0.6328
  469ACOH    C212647   7.091   6.300   1.182 -0.1161  0.6553  0.0195
  469ACOH    O112648   6.973   6.283   1.162 -0.6790 -0.1939 -0.8043
  469ACOH    C112649   7.189   6.218   1.109  0.4650  0.1797  0.7534
  469ACOH    H112650   7.231   6.277   1.031  2.5529  0.6539 -0.7219
  469ACOH    H212651   7.138   6.128   1.075  2.9711 -0.1051 -1.7905
  469ACOH    H312652   7.262   6.191   1.172 -2.2116 -2.3232 -0.2216
  470ACOH    H412653   5.790   6.969   8.802 -0.2493  1.4486 -0.3262
  470ACOH    O212654   5.789   7.051   8.744 -0.3383  0.1744  0.5560
  470ACOH    C212655   5.911   7.068   8.697  0.0092 -0.0722  0.1250
  470ACOH    O112656   6.010   7.012   8.746  0.0586 -0.1036  0.2282
  470ACOH    C112657   5.903   7.171   8.588  0.3129 -0.2311 -0.8297
  470ACOH    H112658   5.867   7.260   8.633  0.5772  2.1530 -1.2889
  470ACOH    H212659   5.829   7.140   8.515  0.7337  0.8015  0.7705
  470ACOH    H312660   6.004   7.178   8.537  0.4026  0.5865 -0.6711
  471ACOH    H412661   7.638   6.855   0.388  0.1477  2.1657  0.1001
  471ACOH    O212662   7.708   6.919   0.418 -0.4796  0.4121 -0.2997
  471ACOH    C212663   7.647   7.026   0.477 -0.3140 -1.3556 -0.6355
  471ACOH    O112664   7.525   7.046   0.482  0.5835  0.1110 -0.2732
  471ACOH    C112665   7.736   7.145   0.478 -0.1182 -0.4487  1.1433
  471ACOH    H112666   7.836   7.115   0.495  0.6128  0.2270  0.7902
  471ACOH    H212667   7.709   7.212   0.564  1.0567 -1.7470  1.5863
  471ACOH    H312668   7.724   7.205   0.385 -0.4707  2.6277 -2.9439
  472ACOH    H412669   7.275   5.581   1.198 -2.4439  0.6217  0.7819
  472ACOH    O212670   7.305   5.593   1.291  0.0632  0.5980 -0.1954
  472ACOH    C212671   7.308   5.467   1.339  0.9712 -0.0722 -0.1205
  472ACOH    O112672   7.298   5.364   1.273  0.2300  0.6561 -0.2969
  472ACOH    C112673   7.347   5.463   1.482 -0.4052  0.1448  0.2821
  472ACOH    H112674   7.362   5.558   1.525  0.0540 -2.8318 -0.0863
  472ACOH    H212675   7.441   5.409   1.477 -2.1264 -0.5732  0.7334
  472ACOH    H312676   7.277   5.394   1.533 -1.5777 -0.6765 -0.2606
  473ACOH    H412677   4.677   7.409   2.059 -0.6000 -0.4929  0.9024
  473ACOH    O212678   4.671   7.505   2.033  0.1355  0.0711 -0.9052
  473ACOH    C212679   4.784   7.543   1.967 -0.3341  1.0277  0.0819
  473ACOH    O112680   4.882   7.470   1.956  0.1705 -0.4194 -0.2852
  473ACOH    C112681   4.805   7.689   1.940 -0.2749  0.6162  0.1589
  473ACOH    H112682   4.722   7.732   1.883 -4.4905  0.7665 -1.0861
  473ACOH    H212683   4.890   7.698   1.876 -0.6883  2.6114 -1.0971
  473ACOH    H312684   4.835   7.745   2.025 -3.4310 -0.2542  1.2646
  474ACOH    H412685   7.989   5.160   2.753 -1.1278  1.7180 -1.0343
  474ACOH    O212686   7.899   5.190   2.783  0.3537 -0.2559 -0.3914
  474ACOH    C212687   7.817   5.175   2.676 -0.5217  0.8733 -0.1397
  474ACOH    O112688   7.862   5.137   2.570  0.2038  0.4457 -0.5293
  474ACOH    C112689   7.677   5.192   2.713  0.1352 -0.4037  0.7917
  474ACOH    H112690   7.642   5.105   2.762  0.4518  0.7819  0.3338
  474ACOH    H212691   7.612   5.209   2.629 -2.9555  0.1093 -0.1643
  474ACOH    H312692   7.661   5.275   2.783 -2.4547 -1.3568 -0.6047
  475ACOH    H412693   5.535   7.089   2.401 -2.2469  1.1488  1.7843
  475ACOH    O212694   5.581   7.159   2.451 -0.4601 -1.1062 -0.0266
  475ACOH    C212695   5.484   7.247   2.486  0.2928 -0.3864  0.1173
  475ACOH    O112696   5.363   7.237   2.473 -0.1622  0.8667  0.2155
  475ACOH    C112697   5.551   7.357   2.561 -0.2297  0.0329  0.1834
  475ACOH    H112698   5.630   7.404   2.499  2.3579  0.2913  0.3948
  475ACOH    H212699   5.600   7.338   2.652  1.1377  0.8595  0.3187
  475ACOH    H312700   5.484   7.436   2.598  0.1451 -1.1596 -0.5231
  476ACOH    H412701   4.879   2.070   3.581 -1.1256 -0.3101  3.9505
  476ACOH    O212702   4.900   2.133   3.653  0.3905  0.2099  0.6981
  476ACOH    C212703   4.875   2.253   3.599  0.0924  0.2498  0.5468
  476ACOH    O112704   4.841   2.281   3.486 -0.2729  0.3541 -0.0621
  476ACOH    C112705   4.903   2.358   3.698 -0.2701  0.0366  0.2433
  476ACOH    H112706   4.865   2.454   3.670  0.7320  1.1850 -0.2596
  476ACOH    H212707   5.010   2.362   3.720  0.5080  0.2340 -0.0770
  476ACOH    H312708   4.852   2.328   3.784  0.7183  1.3548  1.6961
  477ACOH    H412709   7.850   8.424   1.056 -1.1950 -1.3622  0.8125
  477ACOH    O212710   7.929   8.431   1.001 -0.5624 -0.9295 -0.3411
  477ACOH    C212711   7.910   8.545   0.926  0.4970 -0.7171  0.2821
  477ACOH    O112712   7.842   8.639   0.962  0.2028 -0.5157  0.2236
  477ACOH    C112713   7.996   8.565   0.803 -1.0876 -0.0838 -0.0853
  477ACOH    H112714   8.004   8.664   0.777  2.0222 -1.2737  0.7770
  477ACOH    H212715   7.972   8.502   0.716  2.7402 -1.0643  1.0671
  477ACOH    H312716   8.099   8.538   0.820 -1.4368 -3.0081 -2.7158
  478ACOH    H412717   0.947   6.320   2.802 -2.3060 -0.2678  0.5458
  478ACOH    O212718   0.905   6.239   2.848  0.2941  0.3645 -0.2726
  478ACOH    C212719   0.816   6.189   2.757  0.0106 -0.7593 -0.4421
  478ACOH    O112720   0.824   6.217   2.640  0.0909  0.1925 -0.3379
  478ACOH    C112721   0.755   6.058   2.798 -0.2938  0.2617 -0.2575
  478ACOH    H112722   0.696   6.071   2.888  1.1363  0.3470 -1.0426
  478ACOH    H212723   0.837   5.989   2.823 -1.0507 -1.3233 -3.5839
  478ACOH    H312724   0.695   6.021   2.712  1.6163 -1.6634  1.4442
  479ACOH    H412725   8.368   3.748   2.922  1.8729  1.1692  0.6576
  479ACOH    O212726   8.452   3.764   2.875  0.1181  0.4206 -0.1514
  479ACOH    C212727   8.490   3.645   2.831 -1.3529  0.0474  0.4178
  479ACOH    O112728   8.434   3.540   2.855 -0.4771 -0.3830  0.3204
  479ACOH    C112729   8.612   3.657   2.752 -0.0065 -0.1456  0.6421
  479ACOH    H112730   8.591   3.703   2.659 -1.8259  1.1353  1.8756
  479ACOH    H212731   8.655   3.562   2.739 -0.9696  2.0328  1.3612
  479ACOH    H312732   8.692   3.707   2.794  0.4734  0.0687 -0.8352
  480ACOH    H412733   4.551   7.645   1.704  4.3116 -1.0000 -0.8819
  480ACOH    O212734   4.504   7.736   1.721  0.3217 -0.1031  1.0176
  480ACOH    C212735   4.388   7.745   1.659 -0.1772  0.6904 -0.3372
  480ACOH    O112736   4.329   7.657   1.606 -0.6731  0.7945 -0.7061
  480ACOH    C112737   4.319   7.873   1.694  0.3659  0.3464 -0.5474
  480ACOH    H112738   4.385   7.946   1.733 -2.4833  4.2441 -2.2017
  480ACOH    H212739   4.239   7.850   1.770 -0.8468  1.5808  1.8659
  480ACOH    H312740   4.274   7.908   1.602 -1.6322 -2.3779 -1.6064
  481ACOH    H412741   7.347   4.097   5.313 -0.6554  1.2260 -2.7346
  481ACOH    O212742   7.337   4.042   5.236 -0.4025  0.6223  0.4475
  481ACOH    C212743   7.356   4.101   5.115  0.8755  0.4464 -0.1131
  481ACOH    O112744   7.418   4.204   5.095 -0.1820  0.3051  0.0143
  481ACOH    C112745   7.317   4.003   5.007  0.1132 -0.1361 -1.2862
  481ACOH    H112746   7.408   3.968   4.956 -1.0362  1.9050 -1.1436
  481ACOH    H212747   7.259   4.059   4.941 -1.8292 -1.0754  0.7788
  481ACOH    H312748   7.264   3.921   5.056  2.5199  0.5933  2.1421
  482ACOH    H412749   7.401   0.009   8.829  1.5730  1.4212  1.2855
  482ACOH    O212750   7.481  -0.004   8.769 -0.2155 -0.5707 -0.3604
  482ACOH    C212751   7.542  -0.119   8.805 -0.0085  0.0063 -0.4601
  482ACOH    O112752   7.519  -0.180   8.903 -0.4964  0.4429  0.4145
  482ACOH    C112753   7.643  -0.157   8.706 -0.3075 -0.6344 -0.3798
  482ACOH    H112754   7.667  -0.080   8.638  1.6437 -0.5000 -1.5678
  482ACOH    H212755   7.608  -0.246   8.652  0.9517 -0.8489 -1.5995
  482ACOH    H312756   7.735  -0.189   8.754  0.6208 -1.0294  2.3385
  483ACOH    H412757   5.395   3.471   5.641  0.9104  2.1571 -0.6529
  483ACOH    O212758   5.434   3.385   5.673 -0.2408  0.4229  0.1001
  483ACOH    C212759   5.335   3.329   5.754 -0.2425  0.7670  0.1170
  483ACOH    O112760   5.238   3.389   5.792  0.4539  0.1312  0.4855
  483ACOH    C112761   5.365   3.183   5.781 -0.1749 -0.5559 -0.7138
  483ACOH    H112762   5.471   3.167   5.777 -0.9696  3.2644  0.4019
  483ACOH    H212763   5.328   3.121   5.696  2.8906  1.7005 -1.5781
  483ACOH    H312764   5.334   3.154   5.883  0.8826  3.5376  0.3824
  484ACOH    H412765   4.908   3.599   3.773  1.9095  2.2028  0.5092
  484ACOH    O212766   4.843   3.621   3.848 -0.7748  0.0274  0.2372
  484ACOH    C212767   4.823   3.501   3.917 -0.2094  0.1940  0.7424
  484ACOH    O112768   4.847   3.390   3.873 -0.0485 -0.5584  0.6239
  484ACOH    C112769   4.742   3.532   4.043 -0.4277  0.0860  0.9780
  484ACOH    H112770   4.639   3.494   4.037 -1.5949  0.2334 -2.3848
  484ACOH    H212771   4.743   3.634   4.066  0.9080 -0.2897 -0.8572
  484ACOH    H312772   4.797   3.480   4.125  0.6014 -2.7085  1.5529
  485ACOH    H412773   8.137   5.316   8.325 -3.7699  3.4692 -0.3089
  485ACOH    O212774   8.237   5.325   8.348  0.7330 -0.5589  0.1280
  485ACOH    C212775   8.247   5.444   8.401  0.5547  0.2179  0.1675
  485ACOH    O112776   8.166   5.490   8.483 -1.3717  0.9816  0.2308
  485ACOH    C112777   8.390   5.481   8.395  0.1603 -0.1618  0.1886
  485ACOH    H112778   8.426   5.544   8.476  1.7992 -1.2152 -1.2215
  485ACOH    H212779   8.403   5.543   8.313  1.7460 -1.9981  2.0410
  485ACOH    H312780   8.457   5.396   8.389  0.1116 -0.6095  4.2028
  486ACOH    H412781   8.746   5.842   1.504 -0.0653  1.0554 -0.2084
  486ACOH    O212782   8.658   5.882   1.490  1.0165 -0.2224  0.5535
  486ACOH    C212783   8.587   5.775   1.459 -0.1505  0.0546  0.6159
  486ACOH    O112784   8.618   5.677   1.390  0.3416 -0.3579 -0.5150
  486ACOH    C112785   8.447   5.820   1.483 -0.2940  0.2680  0.4149
  486ACOH    H112786   8.450   5.861   1.589 -2.4444  1.7531  1.4991
  486ACOH    H212787   8.371   5.744   1.482 -0.2366 -1.3148  1.3332
  486ACOH    H312788   8.421   5.905   1.412  0.9199  2.8607 -0.2106
  487ACOH    H412789   0.389   9.282   5.438 -1.4580 -3.2112  1.7801
  487ACOH    O212790   0.335   9.202   5.454  0.0395  0.1550  0.1573
  487ACOH    C212791   0.412   9.101   5.500 -0.2519 -0.5781  0.7912
  487ACOH    O112792   0.533   9.094   5.504 -0.0269  0.2605 -0.0134
  487ACOH    C112793   0.335   8.986   5.541 -0.2075 -0.4373 -0.6321
  487ACOH    H112794   0.314   9.003   5.647 -0.0369  0.1275 -1.0314
  487ACOH    H212795   0.372   8.882   5.529  0.0336  2.9151  1.2251
  487ACOH    H312796   0.239   8.987   5.486  0.1571  1.3106  0.6736
  488ACOH    H412797   6.777   4.200   1.195 -1.9834  1.1428 -0.8332
  488ACOH    O212798   6.758   4.260   1.117  0.4156 -0.0377  0.1275
  488ACOH    C212799   6.654   4.203   1.046 -0.0864 -0.8471  0.0204
  488ACOH    O112800   6.561   4.139   1.093  0.5763 -0.7978 -0.3910
  488ACOH    C112801   6.646   4.265   0.911 -0.3811  0.3873  0.0807
  488ACOH    H112802   6.724   4.344   0.912 -0.3122  1.0954  0.2465
  488ACOH    H212803   6.550   4.314   0.896 -0.1935  0.7730  0.9937
  488ACOH    H312804   6.677   4.200   0.833  2.1415  0.0787 -1.9441
  489ACOH    H412805   7.234   7.317   8.462  1.3462 -0.8847 -1.3649
  489ACOH    O212806   7.184   7.376   8.525  0.4628  0.3671  0.4003
  489ACOH    C212807   7.086   7.300   8.574  0.3129 -0.0265 -0.0265
  489ACOH    O112808   7.068   7.177   8.570  0.1309 -0.1555  0.0610
  489ACOH    C112809   6.992   7.385   8.653 -0.4978 -0.3182  0.2165
  489ACOH    H112810   6.926   7.439   8.589  1.0420  0.7119  2.0615
  489ACOH    H212811   7.056   7.459   8.706  1.9474  0.4397 -0.0085
  489ACOH    H312812   6.925   7.330   8.723 -1.5659  0.8595  1.6292
  490ACOH    H412813   7.156   7.232   0.835 -1.9433 -2.2592 -1.9220
  490ACOH    O212814   7.155   7.307   0.904  0.1495  0.2693 -0.1301
  490ACOH    C212815   7.112   7.246   1.016 -0.1024  0.2248  0.1631
  490ACOH    O112816   7.079   7.133   1.041  0.4906 -0.3925 -0.0598
  490ACOH    C112817   7.106   7.340   1.133  0.1118 -0.6036 -0.1856
  490ACOH    H112818   7.199   7.375   1.176 -0.1239 -0.7069  1.2191
  490ACOH    H212819   7.034   7.296   1.204 -1.5421 -3.5182  0.4324
  490ACOH    H312820   7.054   7.430   1.106  0.8321  1.7099  1.1813
  491ACOH    H412821   7.888   7.690   2.551 -1.8613 -1.1411 -0.6090
  491ACOH    O212822   7.956   7.635   2.603 -0.3737 -0.1969  0.1052
  491ACOH    C212823   7.954   7.689   2.733 -1.0601 -0.3486  0.2494
  491ACOH    O112824   7.889   7.782   2.773 -0.4314  0.3495  0.3858
  491ACOH    C112825   8.043   7.605   2.823  0.2758 -0.4135 -0.0140
  491ACOH    H112826   8.147   7.623   2.807 -2.8749  2.1283 -0.2115
  491ACOH    H212827   8.028   7.496   2.804 -1.6226  2.3533 -2.6272
  491ACOH    H312828   8.028   7.617   2.931  0.2532  1.0301  0.8289
  492ACOH    H412829   5.928   8.367   2.562  4.3611  2.4507 -2.2536
  492ACOH    O212830   5.842   8.418   2.553 -0.9839  0.1352  0.4046
  492ACOH    C212831   5.814   8.434   2.423  0.3025  0.2718 -0.2872
  492ACOH    O112832   5.877   8.380   2.334  0.0436  0.6085 -0.2400
  492ACOH    C112833   5.710   8.537   2.393 -1.0914  0.5883  0.1333
  492ACOH    H112834   5.764   8.608   2.331  0.0912  1.9329 -0.9407
  492ACOH    H212835   5.682   8.577   2.491  0.7241  1.6845  0.2964
  492ACOH    H312836   5.631   8.494   2.338  0.2145 -1.6052 -1.4708
  493ACOH    H412837   4.059   9.587   9.204 -2.4980  0.7777 -2.9821
  493ACOH    O212838   4.156   9.582   9.218 -0.0771 -0.0902  0.1381
  493ACOH    C212839   4.228   9.670   9.152 -0.7487  0.3303  0.7266
  493ACOH    O112840   4.188   9.771   9.102  0.4178 -0.6644 -0.1237
  493ACOH    C112841   4.372   9.641   9.170  1.1756 -0.1488  0.5376
  493ACOH    H112842   4.391   9.550   9.224  1.5965 -1.0885 -3.0066
  493ACOH    H212843   4.429   9.727   9.220 -0.4134  1.5651  3.3740
  493ACOH    H312844   4.407   9.628   9.072  0.4478  0.9069  2.2370
  494ACOH    H412845   7.330   9.734   0.991 -2.8784  1.7897  0.7013
  494ACOH    O212846   7.396   9.772   1.057  0.7412  0.2037  0.0821
  494ACOH    C212847   7.423   9.673   1.149 -0.7169 -0.4939 -0.0437
  494ACOH    O112848   7.358   9.575   1.176 -0.2604 -0.1685 -0.1228
  494ACOH    C112849   7.508   9.732   1.256  0.6797  0.0573  0.6119
  494ACOH    H112850   7.465   9.825   1.295 -1.2812  1.0442  0.4146
  494ACOH    H212851   7.604   9.764   1.209 -0.0658 -0.0710 -2.1487
  494ACOH    H312852   7.539   9.670   1.334  1.3673  0.5560 -0.6548
  495ACOH    H412853   7.991   8.257   1.737 -2.8593 -3.0218 -2.5757
  495ACOH    O212854   7.952   8.313   1.665 -0.3337 -0.2738  0.2299
  495ACOH    C212855   7.904   8.423   1.723 -0.5891 -0.4334  0.5701
  495ACOH    O112856   7.884   8.443   1.840  0.0253  0.0538  0.8721
  495ACOH    C112857   7.859   8.527   1.625 -0.2866 -0.2441  0.1445
  495ACOH    H112858   7.822   8.610   1.681 -2.8305  0.1876 -1.4681
  495ACOH    H212859   7.780   8.490   1.573 -0.4666  1.3560  0.8566
  495ACOH    H312860   7.943   8.558   1.571  3.1604  0.9751 -1.0388
  496ACOH    H412861   5.495   8.493   1.795 -0.5015 -2.6129 -0.0681
  496ACOH    O212862   5.399   8.479   1.800 -0.9114 -0.0690 -0.2808
  496ACOH    C212863   5.369   8.510   1.931  0.4119 -0.2658  0.2026
  496ACOH    O112864   5.444   8.557   2.012  0.0833 -0.2860  0.1740
  496ACOH    C112865   5.226   8.483   1.975  0.1302  0.2742 -0.6650
  496ACOH    H112866   5.200   8.517   2.074  0.1994 -0.1803 -2.4802
  496ACOH    H212867   5.208   8.376   1.980  0.5733  0.4520  3.4189
  496ACOH    H312868   5.157   8.527   1.901  0.2300 -0.9166 -1.2993
  497ACOH    H412869   8.696   8.762   2.454  0.1747 -0.1416  0.6306
  497ACOH    O212870   8.712   8.747   2.356  0.2964 -0.2375 -0.2390
  497ACOH    C212871   8.603   8.781   2.284  0.2389 -0.0484 -0.9324
  497ACOH    O112872   8.505   8.827   2.336 -0.0565  0.3286  0.3080
  497ACOH    C112873   8.640   8.757   2.139 -0.2171 -0.5020  0.0015
  497ACOH    H112874   8.676   8.657   2.120  2.2219 -2.5086 -1.2644
  497ACOH    H212875   8.730   8.818   2.112 -2.8994  1.0201  1.1190
  497ACOH    H312876   8.557   8.772   2.073  1.6029  0.6080 -0.2728
  498ACOH    H412877   4.645   9.103   3.359 -0.4022  0.8226  1.3658
  498ACOH    O212878   4.678   9.143   3.278 -0.5642  0.4191 -0.3356
  498ACOH    C212879   4.719   9.038   3.196  0.4104 -0.8935  0.2450
  498ACOH    O112880   4.752   8.928   3.233 -0.3311 -0.2216 -0.6642
  498ACOH    C112881   4.745   9.090   3.056  0.0369  0.3593 -0.7817
  498ACOH    H112882   4.836   9.144   3.048 -2.2961  1.8879  0.6366
  498ACOH    H212883   4.663   9.150   3.022 -0.9263 -1.5829 -2.4670
  498ACOH    H312884   4.751   9.008   2.992  0.5982  1.4049  0.1342
  499ACOH    H412885   7.398   9.764   8.418  2.1494 -1.1818  0.5230
  499ACOH    O212886   7.399   9.720   8.507 -0.1406 -0.4961  0.0678
  499ACOH    C212887   7.279   9.732   8.568  0.2289 -0.0931  0.2595
  499ACOH    O112888   7.189   9.803   8.529 -0.6175  0.5139  0.1049
  499ACOH    C112889   7.260   9.647   8.691  0.0894 -0.3964 -0.1494
  499ACOH    H112890   7.150   9.639   8.730 -2.1175  0.0997  2.2645
  499ACOH    H212891   7.324   9.689   8.768 -2.1998  0.2179  2.3685
  499ACOH    H312892   7.288   9.546   8.665 -0.3225  1.6910  2.1672
  500ACOH    H412893   8.718   5.482   3.938  1.8330 -1.1785  3.0755
  500ACOH    O212894   8.779   5.552   3.911 -0.1358 -0.5090  0.1399
  500ACOH    C212895   8.902   5.500   3.935  0.2540  0.1807 -0.3894
  500ACOH    O112896   8.929   5.390   3.978  0.1808  0.2126  0.3858
  500ACOH    C112897   9.010   5.581   3.890 -0.6004  0.1078 -0.2410
  500ACOH    H112898   9.102   5.531   3.872 -1.0496 -1.8556 -0.9720
  500ACOH    H212899   9.018   5.659   3.959 -1.4002  3.0610 -1.6666
  500ACOH    H312900   8.986   5.623   3.794  0.1201  1.8183 -0.8687
  501ACOH    H412901   5.734   8.807   3.870 -0.1624 -0.0741 -0.8810
  501ACOH    O212902   5.634   8.803   3.845  0.0413  0.1238  0.1252
  501ACOH    C212903   5.628   8.736   3.731 -0.1693 -0.1354  0.4032
  501ACOH    O112904   5.722   8.702   3.664  0.5579  0.4461  0.2296
  501ACOH    C112905   5.490   8.692   3.695 -0.1083 -0.5650  0.0240
  501ACOH    H112906   5.495   8.636   3.603 -1.8408 -1.6546  0.6446
  501ACOH    H212907   5.440   8.780   3.678  1.1413  0.3877  2.4866
  501ACOH    H312908   5.443   8.620   3.765  2.3542 -3.3335  1.2635
  502ACOH    H412909   7.202   7.728   8.575 -1.2236  1.1998 -0.1928
  502ACOH    O212910   7.297   7.707   8.539 -0.0491 -0.5950  0.7191
  502ACOH    C212911   7.371   7.651   8.634  0.1503  0.4864 -0.7058
  502ACOH    O112912   7.348   7.653   8.749  0.1813  0.7676 -0.2456
  502ACOH    C112913   7.512   7.628   8.592  0.0967 -0.5932 -0.5134
  502ACOH    H112914   7.515   7.542   8.535  3.3342 -3.2963 -0.5877
  502ACOH    H212915   7.575   7.622   8.678  3.2974 -0.4056  0.0730
  502ACOH    H312916   7.539   7.714   8.528  0.0698  1.8275 -1.3291
  503ACOH    H412917   7.013   7.337   8.040 -1.0068 -0.6714  0.7400
  503ACOH    O212918   7.086   7.410   8.049 -0.0452 -0.7814 -0.7064
  503ACOH    C212919   7.056   7.469   8.168 -0.3566  0.2787  0.4643
  503ACOH    O112920   6.996   7.411   8.258  0.9250  0.2727  0.2974
  503ACOH    C112921   7.150   7.581   8.182 -0.4659  0.3236 -0.2163
  503ACOH    H112922   7.243   7.556   8.136  0.1760  0.7319 -0.6456
  503ACOH    H212923   7.163   7.614   8.288 -1.4669  0.0622 -1.1578
  503ACOH    H312924   7.126   7.667   8.121  1.4248 -1.1081  1.8562
  504ACOH    H412925   1.281   5.978   2.127  1.1955 -2.2901  1.4816
  504ACOH    O212926   1.358   6.006   2.182  0.4205  0.2822  0.1108
  504ACOH    C212927   1.339   6.132   2.219 -0.2514 -0.0777 -1.1502
  504ACOH    O112928   1.243   6.198   2.190 -0.2595  0.4311 -0.5743
  504ACOH    C112929   1.445   6.176   2.314 -0.0302  0.6002  0.8307
  504ACOH    H112930   1.433   6.277   2.341 -0.6748 -0.9514  0.9442
  504ACOH    H212931   1.542   6.157   2.276 -0.2246  0.2363 -0.6369
  504ACOH    H312932   1.436   6.108   2.398 -2.0445  0.1454  2.8499
  505ACOH    H412933   9.274   1.666   7.159  0.1860  1.0837  1.7100
  505ACOH    O212934   9.319   1.649   7.251  0.0411 -0.0363  0.0366
  505ACOH    C212935   9.261   1.539   7.307  0.0272 -0.6228  0.1027
  505ACOH    O112936   9.193   1.458   7.246  0.3843  0.0247 -0.7917
  505ACOH    C112937   9.335   1.502   7.425 -0.0083  0.1820  0.0429
  505ACOH    H112938   9.331   1.586   7.493 -2.1131 -3.0638  1.8916
  505ACOH    H212939   9.437   1.474   7.393 -0.7431 -0.7450 -1.1266
  505ACOH    H312940   9.290   1.421   7.483  1.2454 -1.5984  1.7552
  506ACOH    H412941   7.647   0.244   0.911  0.8684 -0.3542  1.2228
  506ACOH    O212942   7.635   0.169   0.849  0.1584  0.0349 -0.0859
  506ACOH    C212943   7.629   0.225   0.724 -0.1373  0.3239  0.1025
  506ACOH    O112944   7.626   0.349   0.704 -0.1836  0.5753 -0.2841
  506ACOH    C112945   7.625   0.126   0.612  0.7662 -0.1803  0.2057
  506ACOH    H112946   7.631   0.031   0.659  3.1442 -1.0370  1.8619
  506ACOH    H212947   7.706   0.152   0.547 -0.1229 -3.3732 -1.1627
  506ACOH    H312948   7.524   0.142   0.562 -0.9480  1.0575 -0.0982
  507ACOH    H412949   6.249   7.783   9.676 -2.3213 -1.5570  0.1030
  507ACOH    O212950   6.201   7.715   9.622 -0.4423  0.6364  0.5479
  507ACOH    C212951   6.141   7.755   9.512 -0.6045  0.6855 -0.0085
  507ACOH    O112952   6.127   7.868   9.477 -0.7456 -0.0181  0.4642
  507ACOH    C112953   6.074   7.639   9.449 -0.6250  0.0077 -0.0273
  507ACOH    H112954   6.091   7.641   9.345  1.0785 -1.5147  3.7223
  507ACOH    H212955   5.968   7.634   9.466 -0.1071  0.7451 -0.8503
  507ACOH    H312956   6.109   7.541   9.479 -0.1227  3.0678 -2.8575
  508ACOH    H412957   8.311   5.877   9.220  1.2882  1.5973  1.8906
  508ACOH    O212958   8.277   5.841   9.308 -0.1621  0.3038 -0.2991
  508ACOH    C212959   8.186   5.927   9.346  0.3235 -0.3416  0.4938
  508ACOH    O112960   8.164   6.034   9.301  0.0536 -0.3340 -0.2412
  508ACOH    C112961   8.112   5.872   9.464  0.8391 -0.2404  0.2969
  508ACOH    H112962   8.183   5.848   9.546 -1.1137 -0.3707 -2.7264
  508ACOH    H212963   8.062   5.780   9.433  0.8101  0.4872 -0.0545
  508ACOH    H312964   8.033   5.940   9.499  0.6784 -0.3377  3.5716
  509ACOH    H412965   6.503   7.905   8.946  2.4807  0.7864  2.8104
  509ACOH    O212966   6.407   7.922   8.936  0.4248 -0.9295 -0.2050
  509ACOH    C212967   6.367   7.946   9.060  0.5226 -0.8176 -0.0591
  509ACOH    O112968   6.434   7.942   9.161  0.2612 -0.9134 -0.5353
  509ACOH    C112969   6.219   7.963   9.057  0.4193 -0.5172 -0.0850
  509ACOH    H112970   6.191   8.045   9.125  0.4668 -0.0691  0.9016
  509ACOH    H212971   6.167   7.873   9.084 -2.0889 -0.2064 -1.1744
  509ACOH    H312972   6.189   7.990   8.957 -0.8013  1.1281 -2.4392
  510ACOH    H412973   6.019   9.724   8.022 -1.4778 -0.1715  0.4022
  510ACOH    O212974   6.005   9.630   8.003 -0.1596 -0.1281 -0.0747
  510ACOH    C212975   6.131   9.571   8.004  0.6885  0.1625  1.2908
  510ACOH    O112976   6.239   9.615   8.037  0.1149 -0.0859 -0.4480
  510ACOH    C112977   6.115   9.425   8.001 -0.0878 -0.3829 -0.1714
  510ACOH    H112978   6.041   9.388   8.073 -1.1024 -0.6095 -0.5821
  510ACOH    H212979   6.209   9.382   8.029  1.4789  1.9327 -2.9870
  510ACOH    H312980   6.083   9.390   7.897 -0.3661 -0.7005 -0.5332
  511ACOH    H412981   4.747   9.611   1.337  0.6938 -0.3400  1.7127
  511ACOH    O212982   4.819   9.557   1.295 -0.1285  0.3296  0.0151
  511ACOH    C212983   4.828   9.437   1.360  0.3681  0.1035 -0.2295
  511ACOH    O112984   4.759   9.395   1.456  0.1083 -0.2969  0.0017
  511ACOH    C112985   4.941   9.356   1.318  0.7227 -0.4046 -0.4189
  511ACOH    H112986   5.018   9.372   1.392  0.5845 -0.1526  0.9206
  511ACOH    H212987   4.970   9.397   1.221  0.3214  0.0481  0.4953
  511ACOH    H312988   4.929   9.248   1.326  1.8975  2.0746  2.5941
  512ACOH    H412989   9.595   7.875   4.263 -1.2322  1.1758 -1.3543
  512ACOH    O212990   9.683   7.829   4.251  0.0250  0.1971  0.3379
  512ACOH    C212991   9.717   7.855   4.118 -0.1554 -0.6354  0.0831
  512ACOH    O112992   9.657   7.915   4.028 -0.7252  0.2856 -0.2380
  512ACOH    C112993   9.850   7.799   4.097  0.0271  0.2367 -1.0272
  512ACOH    H112994   9.837   7.705   4.062  0.3284 -0.6413  1.4602
  512ACOH    H212995   9.907   7.802   4.191  0.7498 -0.3354 -0.9728
  512ACOH    H312996   9.900   7.864   4.026 -0.0286 -0.7045 -2.9429
  513ACOH    H412997   5.539   7.602   9.013  0.0052  0.8206 -0.9549
  513ACOH    O212998   5.607   7.530   9.007  0.5412 -0.6350  0.3084
  513ACOH    C212999   5.532   7.423   8.972  0.3010 -0.9468  0.4951
  513ACOH    O113000   5.416   7.426   8.933 -0.4217 -0.0836 -0.2625
  513ACOH    C113001   5.620   7.308   8.990  0.0286 -0.3836 -0.2666
  513ACOH    H113002   5.679   7.307   8.907 -1.4798  0.2609  3.0104
  513ACOH    H213003   5.568   7.216   8.999 -0.1559  1.8972 -0.3992
  513ACOH    H313004   5.686   7.330   9.074 -0.6988  0.4000 -0.2304
  514ACOH    H413005   5.733   7.637   9.012 -0.3208 -1.0029  1.8387
  514ACOH    O213006   5.780   7.726   9.020  0.2154  0.0295  0.2860
  514ACOH    C213007   5.814   7.752   9.145 -0.1932 -0.3763 -0.0218
  514ACOH    O113008   5.813   7.667   9.234 -0.3105 -0.0631 -0.2361
  514ACOH    C113009   5.861   7.894   9.170 -0.7435 -0.2419  0.6062
  514ACOH    H113010   5.882   7.915   9.271  0.2963  1.6830  1.1796
  514ACOH    H213011   5.784   7.962   9.141  1.4045 -1.9539 -1.7146
  514ACOH    H313012   5.955   7.906   9.118  0.2487 -0.9016  0.0239
  515ACOH    H413013   7.355   1.740   9.245  2.0076 -2.0334  1.3709
  515ACOH    O213014   7.409   1.663   9.260 -0.4810 -0.1197  0.5227
  515ACOH    C213015   7.350   1.585   9.353 -0.0274 -0.0290 -0.6599
  515ACOH    O113016   7.256   1.608   9.427  0.1130 -0.0048 -0.0274
  515ACOH    C113017   7.439   1.467   9.375 -0.2183  0.3351  0.0627
  515ACOH    H113018   7.402   1.380   9.332  2.0531  2.0899  0.4840
  515ACOH    H213019   7.458   1.434   9.480  1.0780 -0.5094 -0.0464
  515ACOH    H313020   7.538   1.488   9.333 -0.2942 -0.4903 -0.5360
  516ACOH    H413021   7.421   9.056   2.206  1.4988 -1.2932 -1.2520
  516ACOH    O213022   7.415   8.960   2.242 -0.2689 -0.7044  0.3839
  516ACOH    C213023   7.302   8.955   2.314  0.2719  0.7930 -0.5552
  516ACOH    O113024   7.206   9.024   2.296  0.2279  0.4573  0.1872
  516ACOH    C113025   7.292   8.843   2.402 -0.3061  0.1636 -0.0189
  516ACOH    H113026   7.241   8.756   2.353 -1.3621 -2.2328 -0.3264
  516ACOH    H213027   7.234   8.866   2.492 -3.7308 -0.9327  1.3004
  516ACOH    H313028   7.389   8.805   2.431  0.4879  1.9031  1.6350
  517ACOH    H413029   9.116   9.072   9.763  2.0908 -0.5013  0.5415
  517ACOH    O213030   9.020   9.048   9.776 -0.0094 -0.2307  0.6164
  517ACOH    C213031   8.949   9.163   9.800  0.0618  0.4411 -0.4503
  517ACOH    O113032   8.993   9.264   9.848  0.0230 -0.1481  1.2563
  517ACOH    C113033   8.809   9.149   9.832 -0.1138  0.8083  1.5389
  517ACOH    H113034   8.790   9.167   9.933 -1.3109  0.1777 -0.7963
  517ACOH    H213035   8.761   9.052   9.793 -1.2409 -0.9499 -1.3938
  517ACOH    H313036   8.757   9.235   9.782 -1.8686  2.6114 -0.8653
  518ACOH    H413037   5.769   2.409   4.137  0.3598 -0.6132  3.1287
  518ACOH    O213038   5.715   2.450   4.211  0.3276 -0.7985  0.1908
  518ACOH    C213039   5.613   2.513   4.145  0.6288  0.0035  0.1661
  518ACOH    O113040   5.600   2.518   4.022 -0.3317  0.7555 -0.1826
  518ACOH    C113041   5.504   2.559   4.237  0.3351 -0.2482 -0.1736
  518ACOH    H113042   5.524   2.548   4.341 -1.2127 -0.3264 -1.7842
  518ACOH    H213043   5.418   2.491   4.223 -1.5570  1.6339  2.7046
  518ACOH    H313044   5.465   2.661   4.218 -2.0262  0.0408  2.0684
  519ACOH    H413045   7.551   9.671   2.057  1.3021 -0.3670 -0.1487
  519ACOH    O213046   7.585   9.582   2.048 -0.0539  0.5872  0.0906
  519ACOH    C213047   7.631   9.553   2.175 -0.1106  0.0639  0.0542
  519ACOH    O113048   7.613   9.615   2.279  0.1597  0.7216  0.1501
  519ACOH    C113049   7.679   9.415   2.188 -0.0844  0.1459  0.3431
  519ACOH    H113050   7.775   9.404   2.245  1.0099  1.4459  1.1741
  519ACOH    H213051   7.689   9.380   2.091  1.9725  2.7433  0.5370
  519ACOH    H313052   7.603   9.356   2.235  1.2680  2.0625  0.0755
  520ACOH    H413053   7.250   1.990   5.649 -1.2482 -1.5542 -1.4364
  520ACOH    O213054   7.204   1.952   5.727  0.3523  0.4507 -0.2743
  520ACOH    C213055   7.299   1.908   5.805 -0.4483 -0.4320 -0.4956
  520ACOH    O113056   7.414   1.882   5.776 -0.5472  0.2750  0.2583
  520ACOH    C113057   7.260   1.892   5.946  0.4110  0.1620 -0.0925
  520ACOH    H113058   7.258   1.790   5.970  1.8161 -0.9673 -0.6521
  520ACOH    H213059   7.162   1.932   5.964 -0.6359 -0.9636  1.5888
  520ACOH    H313060   7.327   1.946   6.010 -0.4119 -1.6209  3.3959
  521ACOH    H413061   8.744   0.951   7.218  1.1216  2.7713  0.3020
  521ACOH    O213062   8.657   0.979   7.231 -0.5004  0.2097 -0.2152
  521ACOH    C213063   8.613   1.007   7.105 -0.4574  0.3391  0.0383
  521ACOH    O113064   8.681   1.032   7.010  0.3651  0.2017  0.1401
  521ACOH    C113065   8.471   1.041   7.114 -0.1957 -0.5563 -0.1714
  521ACOH    H113066   8.404   1.009   7.034  0.6476  0.5078  0.3769
  521ACOH    H213067   8.461   1.145   7.115 -1.1543 -0.0985  1.0848
  521ACOH    H313068   8.432   1.001   7.201 -0.9671  1.5403 -0.4872
  522ACOH    H413069   8.219   6.926   4.149 -0.5424 -1.7002  1.9853
  522ACOH    O213070   8.133   6.964   4.180 -0.3079 -0.2683  0.2751
  522ACOH    C213071   8.043   6.868   4.192 -0.0309 -0.4942 -0.6763
  522ACOH    O113072   8.041   6.756   4.149 -0.1565  0.3124  0.4518
  522ACOH    C113073   7.922   6.928   4.254  0.3872 -0.1475 -0.2685
  522ACOH    H113074   7.913   6.908   4.362 -0.1597  0.6444  3.9922
  522ACOH    H213075   7.834   6.886   4.215  0.6634 -0.0363  1.0491
  522ACOH    H313076   7.923   7.035   4.225  0.3928 -1.8856 -0.1657
  523ACOH    H413077   8.498   1.427   0.058 -0.1321 -1.3864  0.2098
  523ACOH    O213078   8.555   1.407   0.129 -0.1981 -0.0052 -0.3361
  523ACOH    C213079   8.529   1.483   0.239 -0.7846  0.5483  0.0496
  523ACOH    O113080   8.489   1.596   0.237  0.2663 -0.5406  0.5183
  523ACOH    C113081   8.573   1.405   0.358 -0.7834 -0.5229  0.3226
  523ACOH    H113082   8.672   1.375   0.361  1.1281  0.0604 -0.2599
  523ACOH    H213083   8.519   1.317   0.354  0.8349  0.1099  1.9441
  523ACOH    H313084   8.549   1.468   0.448 -1.2295  1.7486  2.9165
  524ACOH    H413085   8.324   0.778   6.890 -1.1245  0.3502 -1.6423
  524ACOH    O213086   8.246   0.747   6.942  0.6460 -0.0320 -0.2976
  524ACOH    C213087   8.153   0.837   6.959  0.6283  0.1170  1.3273
  524ACOH    O113088   8.150   0.937   6.894  0.2488  0.2708  0.0090
  524ACOH    C113089   8.033   0.771   7.019 -0.7163  0.4543  0.5137
  524ACOH    H113090   7.968   0.741   6.935 -2.5382  0.0294  0.8409
  524ACOH    H213091   7.983   0.840   7.084 -0.5616  0.5695 -0.4603
  524ACOH    H313092   8.058   0.681   7.074  0.1817  1.9697  0.5463
  525ACOH    H413093   8.839   3.489   6.556  0.8785  0.1658  0.4532
  525ACOH    O213094   8.793   3.401   6.562  0.0589 -0.6140 -0.4072
  525ACOH    C213095   8.742   3.369   6.443 -0.0380 -0.2990  0.8094
  525ACOH    O113096   8.746   3.433   6.341  0.1042  0.2582 -0.3349
  525ACOH    C113097   8.653   3.252   6.468  0.6062 -0.0810 -0.0742
  525ACOH    H113098   8.692   3.162   6.429 -0.3922 -1.0193  1.4067
  525ACOH    H213099   8.557   3.272   6.429  0.5082 -1.1468  0.8669
  525ACOH    H313100   8.635   3.236   6.576 -0.2546  2.7738 -2.8897
  526ACOH    H413101   7.348   1.938   8.087 -1.1131 -0.4471 -0.9706
  526ACOH    O213102   7.414   1.892   8.031 -0.6932  0.6190 -0.2569
  526ACOH    C213103   7.521   1.981   8.020  0.6253  0.4823 -0.0941
  526ACOH    O113104   7.509   2.100   8.021  0.1187  0.7902 -0.3692
  526ACOH    C113105   7.632   1.905   7.957 -0.1868  0.1122 -0.1399
  526ACOH    H113106   7.731   1.953   7.978 -0.7659  1.5093  0.4051
  526ACOH    H213107   7.620   1.905   7.853  0.4378 -5.0323  2.5184
  526ACOH    H313108   7.634   1.796   7.985  3.3374 -2.8787 -1.0515
  527ACOH    H413109   8.290   0.953   9.658 -3.6834  3.2383  0.5451
  527ACOH    O213110   8.383   0.990   9.643  0.0935 -0.5768  0.3919
  527ACOH    C213111   8.368   1.119   9.603 -0.1549 -0.3519  0.6391
  527ACOH    O113112   8.261   1.177   9.575 -0.3276  0.4304 -0.2760
  527ACOH    C113113   8.496   1.188   9.623  0.6541 -0.0049 -0.3998
  527ACOH    H113114   8.514   1.198   9.728  1.8281  1.1787 -0.4435
  527ACOH    H213115   8.498   1.285   9.572  1.3305 -2.9080 -0.7231
  527ACOH    H313116   8.583   1.136   9.578 -0.0055  0.3136 -1.4055
  528ACOH    H413117   9.264   2.645   1.634  2.4264 -1.3762 -0.2480
  528ACOH    O213118   9.304   2.718   1.695  0.2814  0.3070  0.5449
  528ACOH    C213119   9.391   2.642   1.770  0.1720 -0.4901 -0.2040
  528ACOH    O113120   9.382   2.526   1.795 -0.5747 -0.0482 -0.0215
  528ACOH    C113121   9.469   2.740   1.851  0.3863  0.5697 -0.3846
  528ACOH    H113122   9.403   2.799   1.915  1.2377  0.3063 -0.5544
  528ACOH    H213123   9.531   2.805   1.795 -2.0318  2.9404 -0.7151
  528ACOH    H313124   9.544   2.691   1.912  1.2783  1.8234 -0.5834
  529ACOH    H413125   8.578   3.328   6.851 -0.0598 -0.5769 -2.6997
  529ACOH    O213126   8.612   3.243   6.886  0.0605 -0.5078 -0.1245
  529ACOH    C213127   8.530   3.159   6.828 -0.1073  0.0512 -0.7790
  529ACOH    O113128   8.429   3.187   6.766 -0.0751 -0.2910  0.2840
  529ACOH    C113129   8.564   3.022   6.863 -0.1093 -0.3081  0.0745
  529ACOH    H113130   8.542   2.958   6.778 -1.8467  4.9158  0.6377
  529ACOH    H213131   8.505   2.986   6.944 -0.3994 -3.0622 -0.5074
  529ACOH    H313132   8.672   3.003   6.886  1.5696  0.3711 -2.1566
  530ACOH    H413133   8.945   1.555   9.104 -2.4777  0.5398 -1.1026
  530ACOH    O213134   8.975   1.621   9.173  0.5488  0.3997 -0.1047
  530ACOH    C213135   9.089   1.578   9.224  0.1876 -0.0733 -0.1660
  530ACOH    O113136   9.129   1.461   9.223 -0.4113 -0.0500 -0.2030
  530ACOH    C113137   9.161   1.688   9.303 -0.0075  0.8689  0.5727
  530ACOH    H113138   9.235   1.635   9.365 -0.1133 -0.5501 -1.7938
  530ACOH    H213139   9.086   1.731   9.374 -2.0826  0.7090  2.4242
  530ACOH    H313140   9.208   1.768   9.248  0.1906 -0.7975  2.8742
  531ACOH    H413141   9.166   1.764   0.992 -0.1281  0.5691  0.8894
  531ACOH    O213142   9.241   1.715   1.024  0.1037 -0.0447  0.0424
  531ACOH    C213143   9.187   1.618   1.109  0.2201 -0.7082 -0.2783
  531ACOH    O113144   9.073   1.583   1.105  0.2404  0.2914 -0.0319
  531ACOH    C113145   9.282   1.537   1.182 -0.4450 -0.0955  0.3284
  531ACOH    H113146   9.379   1.587   1.180  1.5344 -2.9813 -1.6057
  531ACOH    H213147   9.288   1.439   1.138  0.5088  1.2590 -0.6650
  531ACOH    H313148   9.239   1.527   1.282  3.3293 -2.3677 -1.8952
  532ACOH    H413149   8.404   3.189   1.162 -0.7523  0.1577  1.5588
  532ACOH    O213150   8.315   3.152   1.146  0.3356  0.2343  0.8790
  532ACOH    C213151   8.334   3.019   1.170 -0.6676  0.2406 -0.3809
  532ACOH    O113152   8.438   2.958   1.175  0.2166 -0.7527  0.9785
  532ACOH    C113153   8.203   2.945   1.164  0.1720 -0.4058 -0.0499
  532ACOH    H113154   8.178   2.896   1.261 -3.5938  1.8522 -1.3812
  532ACOH    H213155   8.206   2.872   1.083 -0.3866 -1.6175 -0.8653
  532ACOH    H313156   8.125   3.020   1.134 -0.2887  0.7306 -0.2889
  533ACOH    H413157   5.858   2.307   3.125  2.2510  0.3473  0.8483
  533ACOH    O213158   5.816   2.380   3.174 -0.0607  0.1836  0.0619
  533ACOH    C213159   5.907   2.389   3.281  0.0992 -0.3852  0.2859
  533ACOH    O113160   6.016   2.339   3.280 -0.2911  0.1299 -0.0018
  533ACOH    C113161   5.872   2.498   3.370  0.1078  0.1273  0.4038
  533ACOH    H113162   5.929   2.503   3.461  1.5040  0.8894 -1.0330
  533ACOH    H213163   5.771   2.477   3.393 -2.9516 -2.3915 -2.1488
  533ACOH    H313164   5.879   2.587   3.308  2.1204 -0.9513  1.3766
  534ACOH    H413165   7.720   3.127   1.356 -0.8334 -0.1246 -1.5855
  534ACOH    O213166   7.625   3.116   1.327  0.0553 -0.1724  0.0540
  534ACOH    C213167   7.618   3.074   1.198  0.2479 -0.3820 -0.0886
  534ACOH    O113168   7.717   3.047   1.129  0.5817  0.4754  0.1117
  534ACOH    C113169   7.474   3.039   1.172 -0.3213  0.1412  0.1564
  534ACOH    H113170   7.427   3.137   1.187 -0.7317  1.4787 -1.3530
  534ACOH    H213171   7.444   2.951   1.234 -2.2995  1.0554  2.8894
  534ACOH    H313172   7.463   3.020   1.067 -2.1047 -1.0534  0.8122
  535ACOH    H413173   8.515   4.364   8.638 -1.7500 -0.0022  0.8193
  535ACOH    O213174   8.425   4.397   8.630  0.3820  0.1860 -0.3795
  535ACOH    C213175   8.345   4.299   8.676  0.6419  0.2318 -0.8079
  535ACOH    O113176   8.369   4.179   8.680 -0.1247 -0.7171  0.2032
  535ACOH    C113177   8.203   4.348   8.699 -0.0671  0.2173 -0.5124
  535ACOH    H113178   8.200   4.456   8.714 -0.4575  1.0307  1.5720
  535ACOH    H213179   8.163   4.312   8.794 -0.8755 -0.9680 -1.0845
  535ACOH    H313180   8.149   4.320   8.605 -0.8361 -2.6411 -0.1629
  536ACOH    H413181   4.583   2.311   2.837 -1.1289  0.7436 -0.4368
  536ACOH    O213182   4.546   2.285   2.924  0.2829 -0.3043  0.4732
  536ACOH    C213183   4.565   2.391   3.004  0.0640  0.0572 -0.0050
  536ACOH    O113184   4.591   2.503   2.964 -0.2960  0.1356 -0.0407
  536ACOH    C113185   4.495   2.374   3.139 -0.8317  0.6128 -0.5896
  536ACOH    H113186   4.479   2.264   3.169  1.2083 -4.5628  0.2528
  536ACOH    H213187   4.407   2.422   3.136  0.8841  0.0870  0.2608
  536ACOH    H313188   4.558   2.426   3.212  1.7977 -1.0570 -0.2863
  537ACOH    H413189   8.904   7.607   3.976  2.7447  0.8528 -2.6516
  537ACOH    O213190   8.915   7.532   3.921  0.2335 -0.0877  0.1109
  537ACOH    C213191   8.858   7.427   3.982 -0.2521  0.6744  0.7125
  537ACOH    O113192   8.818   7.425   4.096 -0.0748  0.1236 -0.3536
  537ACOH    C113193   8.866   7.304   3.894  0.8987  0.1337 -0.4998
  537ACOH    H113194   8.789   7.318   3.822  1.7915  0.3268 -0.5821
  537ACOH    H213195   8.836   7.222   3.954 -0.6853  0.1980 -2.5317
  537ACOH    H313196   8.963   7.277   3.857  0.1895 -0.3738 -1.8655
  538ACOH    H413197   6.130   4.802   4.651 -0.4424  0.7947 -4.6764
  538ACOH    O213198   6.143   4.711   4.627 -0.1196  0.2742  0.2478
  538ACOH    C213199   6.265   4.674   4.665 -0.3383 -0.2691  0.1744
  538ACOH    O113200   6.362   4.751   4.688 -0.1668  0.2578 -0.9146
  538ACOH    C113201   6.295   4.535   4.636 -0.4786 -0.1833  0.1073
  538ACOH    H113202   6.214   4.493   4.577 -2.3498 -0.8168 -2.1698
  538ACOH    H213203   6.302   4.466   4.725  1.2655  0.4240  2.1792
  538ACOH    H313204   6.383   4.525   4.580 -0.1472  0.4309 -1.3090
  539ACOH    H413205   8.734   1.336   8.005  2.5740 -0.0471 -0.1534
  539ACOH    O213206   8.673   1.389   7.947  0.1791  0.3428 -0.1796
  539ACOH    C213207   8.694   1.515   7.975  0.9864 -0.4104 -1.1936
  539ACOH    O113208   8.769   1.556   8.067  0.4901  0.7249  0.4825
  539ACOH    C113209   8.626   1.595   7.869 -0.3999  0.1291  0.1473
  539ACOH    H113210   8.698   1.623   7.788  1.2547 -2.2255  0.3221
  539ACOH    H213211   8.580   1.684   7.902 -1.9652 -0.2006  0.3223
  539ACOH    H313212   8.544   1.539   7.822  2.7276 -0.6429 -0.6628
  540ACOH    H413213   9.304   5.109   5.296 -0.1157  1.9398 -3.6283
  540ACOH    O213214   9.377   5.052   5.281  0.0442 -0.1048  0.2758
  540ACOH    C213215   9.331   4.930   5.310  0.3934 -0.1427  0.7496
  540ACOH    O113216   9.214   4.899   5.331 -0.3391  0.0766 -0.0504
  540ACOH    C113217   9.438   4.829   5.299  0.5315  0.3343  0.1176
  540ACOH    H113218   9.535   4.868   5.272  2.0978  0.0855  0.4049
  540ACOH    H213219   9.414   4.744   5.239 -0.6059 -0.4659  1.2714
  540ACOH    H313220   9.451   4.793   5.402  0.7762 -0.0565  2.9468
  541ACOH    H413221   8.107   3.405   1.401  1.0331 -0.6396 -1.1134
  541ACOH    O213222   8.104   3.503   1.433 -0.2523 -0.3306 -0.1328
  541ACOH    C213223   8.239   3.525   1.473  0.2233 -0.2490  0.1360
  541ACOH    O113224   8.317   3.434   1.499  0.6657 -0.0794  0.1733
  541ACOH    C113225   8.257   3.671   1.511  0.3645  0.4629  0.4080
  541ACOH    H113226   8.197   3.693   1.595  1.2100  2.4667 -2.8349
  541ACOH    H213227   8.219   3.733   1.431 -0.3597 -1.5088  0.9009
  541ACOH    H313228   8.360   3.698   1.536  2.3187  0.9135 -0.8026
  542ACOH    H413229   8.794   3.395   8.089 -0.4933  0.4834 -2.3521
  542ACOH    O213230   8.729   3.448   8.137  0.0268 -0.2210 -0.3388
  542ACOH    C213231   8.607   3.390   8.118  0.3835  0.2628  0.2614
  542ACOH    O113232   8.563   3.362   8.005  0.3774 -0.3788 -0.4071
  542ACOH    C113233   8.521   3.441   8.221  0.1131  0.8131 -0.7040
  542ACOH    H113234   8.436   3.376   8.215 -2.2416 -0.4896  1.2219
  542ACOH    H213235   8.486   3.537   8.206  0.4968 -0.1478 -3.9166
  542ACOH    H313236   8.576   3.431   8.312  1.3662 -1.0536  0.9875
  543ACOH    H413237   9.896   2.368   7.861  0.4054 -1.6870 -2.3733
  543ACOH    O213238   9.799   2.367   7.898 -0.0670 -0.3683 -0.3366
  543ACOH    C213239   9.748   2.484   7.875  1.1106  0.9387 -0.4991
  543ACOH    O113240   9.795   2.585   7.819 -0.6578  0.6386  0.8654
  543ACOH    C113241   9.608   2.493   7.917  0.0828 -0.0758 -0.9047
  543ACOH    H113242   9.596   2.546   8.009 -2.9347 -2.1970  2.9513
  543ACOH    H213243   9.561   2.395   7.933  2.0244 -0.9516  1.2123
  543ACOH    H313244   9.547   2.548   7.843  0.2412  2.4570  0.9976
  544ACOH    H413245   8.862   5.698   0.468 -0.1072  1.4062 -0.6551
  544ACOH    O213246   8.838   5.789   0.493 -0.0885  0.1592 -0.2572
  544ACOH    C213247   8.742   5.826   0.401 -0.4960  0.0943  0.1802
  544ACOH    O113248   8.739   5.790   0.286  0.4289 -0.0231  0.0129
  544ACOH    C113249   8.694   5.959   0.450 -0.2628  0.0439  0.1220
  544ACOH    H113250   8.776   6.025   0.421 -1.5029 -0.1549  1.5959
  544ACOH    H213251   8.670   5.959   0.555 -2.9718 -2.0351 -3.2596
  544ACOH    H313252   8.597   5.986   0.396 -1.8012 -0.1083 -1.1054
  545ACOH    H413253   7.537   2.010   8.346  0.9615  1.2181 -0.2555
  545ACOH    O213254   7.563   1.927   8.307 -0.1722  0.6158 -0.0758
  545ACOH    C213255   7.697   1.918   8.300 -0.1489  0.0592 -0.1420
  545ACOH    O113256   7.769   2.000   8.351 -0.1781  0.6962  0.0382
  545ACOH    C113257   7.748   1.789   8.252  0.5223  0.3975 -0.2517
  545ACOH    H113258   7.794   1.737   8.331  0.9389  2.3167  0.0763
  545ACOH    H213259   7.811   1.796   8.169 -0.2598 -0.0560 -0.7256
  545ACOH    H313260   7.670   1.731   8.213 -2.0186  1.1859  1.9037
  546ACOH    H413261   9.003   4.542   8.979  1.1821  1.4182  0.4703
  546ACOH    O213262   8.969   4.463   9.020  0.1766 -0.2530  0.2576
  546ACOH    C213263   8.869   4.409   8.949  0.8916  0.2449 -0.1346
  546ACOH    O113264   8.825   4.442   8.840 -0.1182  1.0141  0.2638
  546ACOH    C113265   8.801   4.298   9.020  0.3048 -0.4088  0.2580
  546ACOH    H113266   8.786   4.320   9.125  1.5238 -0.2290  2.7022
  546ACOH    H213267   8.856   4.204   9.010 -0.2990 -3.1494 -0.5297
  546ACOH    H313268   8.703   4.287   8.976 -1.2529 -2.1204 -0.1697
  547ACOH    H413269   8.133   9.549   8.912  1.2444  0.3592 -0.4909
  547ACOH    O213270   8.070   9.622   8.891 -0.4104  0.2686 -0.2659
  547ACOH    C213271   8.137   9.739   8.875 -0.3938  0.4819  0.5730
  547ACOH    O113272   8.252   9.768   8.881 -0.6296 -0.1695  0.4513
  547ACOH    C113273   8.030   9.834   8.845  0.2628  0.1948  0.3063
  547ACOH    H113274   7.960   9.830   8.928 -0.7652  1.1842 -0.9179
  547ACOH    H213275   7.984   9.802   8.748  0.6423 -1.8824 -0.7969
  547ACOH    H313276   8.059   9.931   8.834 -2.9678  0.3182 -1.1487
  548ACOH    H413277   8.271   3.608   1.025 -0.8083  0.7383  1.7981
  548ACOH    O213278   8.212   3.631   0.946 -0.5110 -0.2372  0.1883
  548ACOH    C213279   8.277   3.708   0.857 -0.5984  0.9392  0.1317
  548ACOH    O113280   8.397   3.729   0.849 -0.5217 -0.2874  0.2558
  548ACOH    C113281   8.180   3.767   0.764  0.0960  0.1798 -1.2880
  548ACOH    H113282   8.085   3.717   0.776 -0.0055  1.8229  1.7627
  548ACOH    H213283   8.203   3.756   0.664 -3.4966 -1.3121  0.9218
  548ACOH    H313284   8.169   3.868   0.794  0.9758 -4.4611  0.2485
  549ACOH    H413285   7.604   4.505   1.158  0.6542 -2.4008  0.9982
  549ACOH    O213286   7.620   4.537   1.062 -0.4064 -0.4430 -0.1524
  549ACOH    C213287   7.530   4.479   0.986 -1.6516  0.0867 -0.3596
  549ACOH    O113288   7.440   4.414   1.035  0.5254 -0.1413 -0.7338
  549ACOH    C113289   7.546   4.519   0.845  0.6657 -0.7161 -0.5653
  549ACOH    H113290   7.560   4.629   0.841 -2.0600  0.0126 -1.6109
  549ACOH    H213291   7.454   4.496   0.795 -1.9233  1.0564  0.6685
  549ACOH    H313292   7.637   4.473   0.808 -0.0311 -0.6676  1.9690
  550ACOH    H413293   8.404   4.235   0.587  1.3506 -1.9102 -2.3220
  550ACOH    O213294   8.307   4.260   0.594 -0.1259  0.5000 -0.0453
  550ACOH    C213295   8.253   4.206   0.703  0.0882 -0.1533  0.2282
  550ACOH    O113296   8.134   4.173   0.718 -0.2842  0.4079 -0.4104
  550ACOH    C113297   8.358   4.165   0.798 -0.1989  0.4214 -0.4162
  550ACOH    H113298   8.317   4.110   0.880  1.9432  0.5693 -1.3160
  550ACOH    H213299   8.420   4.245   0.829 -0.8395 -0.9813 -0.5384
  550ACOH    H313300   8.426   4.096   0.740 -1.0773 -0.7399 -0.6726
  551ACOH    H413301   7.119   3.646   4.994  0.7769 -1.5558 -1.1863
  551ACOH    O213302   7.117   3.708   5.072  0.0001 -0.2082 -0.5779
  551ACOH    C213303   7.186   3.657   5.176 -0.1390 -0.5925 -0.2493
  551ACOH    O113304   7.245   3.551   5.173 -0.2427 -0.4037 -0.7699
  551ACOH    C113305   7.174   3.751   5.288 -0.0868  0.2776 -0.4536
  551ACOH    H113306   7.278   3.785   5.318 -3.4535  2.8587  0.8637
  551ACOH    H213307   7.121   3.712   5.372 -0.5737  0.2015 -0.3675
  551ACOH    H313308   7.122   3.842   5.262 -0.2063 -1.9516  1.3190
  552ACOH    H413309   7.775   3.569   1.999  1.4764 -1.5263  0.1622
  552ACOH    O213310   7.725   3.487   1.989  0.1090  0.7230 -0.2278
  552ACOH    C213311   7.612   3.522   1.923  0.2963 -0.3342  0.4633
  552ACOH    O113312   7.590   3.628   1.868  0.4409 -0.1734 -0.1180
  552ACOH    C113313   7.507   3.421   1.948  0.3886 -0.3048  0.5314
  552ACOH    H113314   7.515   3.330   1.883  1.6553  0.0122  0.6195
  552ACOH    H213315   7.415   3.474   1.935  1.4434 -2.7370 -0.5926
  552ACOH    H313316   7.502   3.391   2.051 -2.3566  1.8501  0.4348
  553ACOH    H413317   8.877   5.828   1.142  0.2740 -1.2833  0.0796
  553ACOH    O213318   8.779   5.845   1.135 -0.1543  0.2142  0.6430
  553ACOH    C213319   8.760   5.974   1.167  0.2601 -0.2402  0.2106
  553ACOH    O113320   8.836   6.049   1.225  0.3130  0.3696 -0.5425
  553ACOH    C113321   8.636   6.024   1.109  0.0353 -0.3809 -0.5933
  553ACOH    H113322   8.651   6.116   1.064  1.8765 -1.4485  0.2630
  553ACOH    H213323   8.573   6.036   1.194  0.7098 -0.0863 -2.0373
  553ACOH    H313324   8.588   5.950   1.044 -0.8467  0.7966 -3.3126
  554ACOH    H413325   7.006   6.268   0.308 -2.3577  3.0591 -1.0226
  554ACOH    O213326   7.058   6.184   0.290  0.2567 -0.4043 -0.5848
  554ACOH    C213327   7.178   6.203   0.247  0.6285  0.0917  0.2705
  554ACOH    O113328   7.220   6.307   0.207 -0.6970 -0.4855 -0.5682
  554ACOH    C113329   7.241   6.073   0.229 -0.8477  0.9390  0.7298
  554ACOH    H113330   7.262   6.055   0.124 -2.1167 -3.2441 -1.4421
  554ACOH    H213331   7.187   5.988   0.263 -0.8078 -2.5766 -0.1596
  554ACOH    H313332   7.335   6.080   0.284  0.9270  1.1164 -0.4572
  555ACOH    H413333   9.973   3.303   3.362  0.3385 -0.9240  0.2981
  555ACOH    O213334   9.958   3.380   3.423 -0.1915  0.0455 -0.5899
  555ACOH    C213335   9.824   3.389   3.444 -0.0292  0.1045  0.2790
  555ACOH    O113336   9.737   3.304   3.439  0.2910  0.4375 -0.2996
  555ACOH    C113337   9.784   3.523   3.486 -0.4242 -0.2874 -0.3125
  555ACOH    H113338   9.872   3.581   3.496  1.2060  1.9938  0.2776
  555ACOH    H213339   9.715   3.513   3.567  1.3047 -1.5562 -2.0549
  555ACOH    H313340   9.728   3.564   3.408  0.0872  1.5129  3.3015
  556ACOH    H413341   6.439   3.152   4.809  2.7011  1.8204 -1.9935
  556ACOH    O213342   6.362   3.124   4.871 -0.2058 -0.0583  0.5003
  556ACOH    C213343   6.290   3.032   4.803 -0.6097 -0.3550 -0.5447
  556ACOH    O113344   6.320   2.972   4.705  0.0724 -0.0058 -0.4434
  556ACOH    C113345   6.156   3.015   4.868  0.1746 -0.1422  0.4762
  556ACOH    H113346   6.164   3.015   4.982 -1.7133 -1.5142  3.7213
  556ACOH    H213347   6.118   2.918   4.833  0.5251  1.2555 -0.1642
  556ACOH    H313348   6.085   3.097   4.837 -0.4494 -0.1976 -0.2600
  557ACOH    H413349   7.688   6.082   3.806 -0.3846 -0.8567 -1.0388
  557ACOH    O213350   7.621   6.018   3.769 -0.0177 -0.0614 -0.3303
  557ACOH    C213351   7.693   5.947   3.684  0.2441  0.5501  0.1379
  557ACOH    O113352   7.806   5.964   3.647  0.3830 -0.2934  0.0626
  557ACOH    C113353   7.602   5.840   3.628  0.8662  0.2919 -0.9622
  557ACOH    H113354   7.507   5.886   3.598  1.6213 -0.5282  1.3752
  557ACOH    H213355   7.573   5.760   3.701  0.2688 -1.5792  2.3188
  557ACOH    H313356   7.646   5.788   3.543  0.0423  1.9555  2.0416
  558ACOH    H413357   0.510   3.260   6.516  1.8295  0.0698 -3.5853
  558ACOH    O213358   0.443   3.272   6.451 -0.1370 -0.3368 -0.1499
  558ACOH    C213359   0.442   3.159   6.377  0.3431  0.0299 -0.5337
  558ACOH    O113360   0.505   3.058   6.404 -0.3994 -0.3334  0.5352
  558ACOH    C113361   0.349   3.166   6.261 -0.3263 -0.1817 -0.0023
  558ACOH    H113362   0.254   3.145   6.299  0.2686 -0.1393 -1.3810
  558ACOH    H213363   0.380   3.109   6.173  0.9311  3.0605 -2.1092
  558ACOH    H313364   0.351   3.269   6.227  0.9044 -0.3184 -0.3209
  559ACOH    H413365   8.004   4.067   8.675 -0.5635  0.5043  0.0571
  559ACOH    O213366   7.996   4.100   8.770 -0.2294  0.2992  0.1540
  559ACOH    C213367   7.866   4.138   8.784 -0.3751  0.3183 -0.3187
  559ACOH    O113368   7.783   4.121   8.694  0.1053 -0.0366 -0.0455
  559ACOH    C113369   7.854   4.205   8.914 -0.3950 -0.2069  0.3327
  559ACOH    H113370   7.756   4.250   8.916 -0.4408  1.4624 -2.1696
  559ACOH    H213371   7.938   4.266   8.932 -0.6654  0.5680  0.0268
  559ACOH    H313372   7.854   4.127   8.988 -3.0213  0.4089 -0.0262
  560ACOH    H413373   7.375   5.751   8.221 -0.4069  0.1596  0.7680
  560ACOH    O213374   7.409   5.827   8.270  0.5981  0.1556 -0.0048
  560ACOH    C213375   7.528   5.850   8.229 -0.1289  0.3667  0.3962
  560ACOH    O113376   7.596   5.800   8.139  0.1413  0.5085 -0.1536
  560ACOH    C113377   7.570   5.966   8.316  0.3031 -0.1353 -0.8561
  560ACOH    H113378   7.624   6.035   8.253  0.3144  1.2088 -2.7531
  560ACOH    H213379   7.640   5.938   8.392 -1.1823  1.0673 -2.8779
  560ACOH    H313380   7.492   6.030   8.361  1.7782  2.2153  1.8853
  561ACOH    H413381   8.219   5.449   0.320 -2.0851 -0.2737  3.5615
  561ACOH    O213382   8.158   5.514   0.358  0.2433 -0.5266 -0.0681
  561ACOH    C213383   8.131   5.491   0.484 -0.3926  0.2943 -0.1682
  561ACOH    O113384   8.191   5.412   0.556 -0.3270 -0.4476  0.2749
  561ACOH    C113385   8.020   5.578   0.528 -0.3360 -0.0153 -0.4316
  561ACOH    H113386   8.021   5.580   0.640  0.5235 -0.1638  0.7303
  561ACOH    H213387   7.921   5.536   0.503  0.3518 -0.7736  2.8630
  561ACOH    H313388   8.029   5.678   0.488  0.8676 -1.2712 -0.4826
  562ACOH    H413389   8.336   5.125   2.223  0.9282 -0.9560  2.3105
  562ACOH    O213390   8.306   5.222   2.247 -0.0749 -0.2135 -0.1598
  562ACOH    C213391   8.175   5.225   2.230 -0.1961 -0.4368 -0.0926
  562ACOH    O113392   8.105   5.129   2.256  0.2256 -0.5861 -0.9852
  562ACOH    C113393   8.138   5.366   2.226 -0.5772  0.3094  0.3457
  562ACOH    H113394   8.126   5.406   2.329 -0.4329 -0.5569 -0.3245
  562ACOH    H213395   8.045   5.377   2.173  2.0885 -1.0051 -1.5423
  562ACOH    H313396   8.219   5.415   2.173  0.8719  0.7773  1.1786
  563ACOH    H413397   8.545   5.754   0.711 -2.8909 -0.5706  1.3372
  563ACOH    O213398   8.458   5.770   0.667 -0.1562  0.6726  0.2621
  563ACOH    C213399   8.457   5.681   0.559 -0.1472 -0.3620  0.0928
  563ACOH    O113400   8.547   5.603   0.530 -0.1191 -0.1628  0.6584
  563ACOH    C113401   8.337   5.716   0.475  1.0087  0.2375 -0.7573
  563ACOH    H113402   8.350   5.668   0.378  0.5068  0.6403 -0.0259
  563ACOH    H213403   8.335   5.822   0.455 -1.2920  0.0241  0.5144
  563ACOH    H313404   8.251   5.688   0.535  0.8349  0.3493  1.7557
  564ACOH    H413405   7.591   5.556   1.105 -0.6304 -2.6196 -1.9352
  564ACOH    O213406   7.623   5.504   1.183  0.0896  0.2645  0.4632
  564ACOH    C213407   7.574   5.378   1.156 -0.4868 -0.4261 -0.1048
  564ACOH    O113408   7.526   5.342   1.051 -0.0902 -0.1272  0.5979
  564ACOH    C113409   7.622   5.275   1.257 -0.1394 -0.4771  0.4458
  564ACOH    H113410   7.683   5.195   1.214 -0.1990  0.3118 -0.2552
  564ACOH    H213411   7.533   5.232   1.305 -2.3414  2.0513 -1.7870
  564ACOH    H313412   7.672   5.318   1.334 -1.1746 -1.5396  0.2438
  565ACOH    H413413   7.737   3.003   4.704 -1.2419 -1.8902 -0.0983
  565ACOH    O213414   7.726   3.089   4.657 -0.1113 -0.4646 -0.1069
  565ACOH    C213415   7.827   3.076   4.567 -0.0426  0.7901 -0.2870
  565ACOH    O113416   7.827   2.979   4.491  0.1679 -0.5792  0.2450
  565ACOH    C113417   7.882   3.206   4.536 -0.4322  0.1995 -0.3833
  565ACOH    H113418   7.957   3.228   4.615  1.2150  2.1180  4.0174
  565ACOH    H213419   7.811   3.286   4.545  1.0908 -0.5934  0.7691
  565ACOH    H313420   7.933   3.202   4.444  0.9227  0.3236  0.7120
  566ACOH    H413421   7.581   2.848   1.683 -3.5997  2.2500  1.5689
  566ACOH    O213422   7.524   2.925   1.689 -0.1970 -0.2925  0.2186
  566ACOH    C213423   7.411   2.911   1.621  0.2329 -0.2782 -0.0843
  566ACOH    O113424   7.389   2.828   1.537 -0.6138 -0.8203 -0.1286
  566ACOH    C113425   7.327   3.035   1.636  0.5077 -0.5451 -0.4863
  566ACOH    H113426   7.355   3.107   1.557  0.5768  2.5648  1.2630
  566ACOH    H213427   7.336   3.085   1.729  2.6552  3.2170 -0.7025
  566ACOH    H313428   7.220   3.010   1.619  0.7208 -0.7410  0.7364
  567ACOH    H413429   7.711   7.422   1.588 -1.4463 -1.2389  0.9262
  567ACOH    O213430   7.802   7.377   1.583  1.1926 -0.0245  0.2188
  567ACOH    C213431   7.824   7.300   1.684  0.2662 -0.1328  0.2811
  567ACOH    O113432   7.737   7.260   1.760  0.0934 -0.3369 -0.5479
  567ACOH    C113433   7.962   7.247   1.680 -0.2756 -0.2398 -0.2555
  567ACOH    H113434   7.991   7.204   1.588  2.4041 -1.8913  0.2605
  567ACOH    H213435   7.981   7.167   1.749  0.6463 -2.0925  0.0647
  567ACOH    H313436   8.023   7.330   1.699 -1.7158  0.7539  2.1166
  568ACOH    H413437   9.279   6.762   0.992 -2.7061 -1.0828  0.6148
  568ACOH    O213438   9.304   6.820   1.071  0.5681 -0.1485 -0.1469
  568ACOH    C213439   9.353   6.745   1.170 -0.0277  0.7099 -0.4306
  568ACOH    O113440   9.363   6.623   1.171 -0.6921 -0.2233  0.0205
  568ACOH    C113441   9.407   6.831   1.281 -0.4206 -0.2808  0.2119
  568ACOH    H113442   9.506   6.823   1.302  0.2357  2.9751 -0.0245
  568ACOH    H213443   9.354   6.808   1.375 -1.4937  1.7087  1.5619
  568ACOH    H313444   9.396   6.939   1.256 -0.5660 -0.8451 -1.7003
  569ACOH    H413445   6.026   6.096   6.099  1.6098 -1.6636 -1.3242
  569ACOH    O213446   6.052   6.034   6.030 -0.1924  0.2389 -0.5371
  569ACOH    C213447   5.944   5.952   6.002 -0.0980 -0.5863 -0.1322
  569ACOH    O113448   5.829   5.974   6.038  0.2500  0.2408 -0.0499
  569ACOH    C113449   5.975   5.847   5.904 -0.2075 -0.1246  0.7304
  569ACOH    H113450   5.890   5.805   5.852 -1.1642  2.0006 -3.5041
  569ACOH    H213451   6.039   5.772   5.961  1.4137 -0.9608  1.0314
  569ACOH    H313452   6.035   5.884   5.826  0.9654 -0.7867 -1.1785
  570ACOH    H413453   9.736   7.921   5.441 -1.6016  0.0781 -2.2373
  570ACOH    O213454   9.789   8.001   5.413 -0.0570  0.3184 -0.3284
  570ACOH    C213455   9.758   8.033   5.290 -0.7415  0.2460  0.5689
  570ACOH    O113456   9.654   8.006   5.237 -0.3100 -0.6058  0.3882
  570ACOH    C113457   9.858   8.130   5.242  0.1683 -0.5275  0.3056
  570ACOH    H113458   9.929   8.155   5.313  0.7257 -0.4715  0.1932
  570ACOH    H213459   9.803   8.217   5.215 -1.0947  0.3842 -0.1544
  570ACOH    H313460   9.900   8.096   5.155 -0.8600 -1.2425 -1.1630
  571ACOH    H413461   1.306   4.453   4.565 -0.1960  0.0018  1.4421
  571ACOH    O213462   1.239   4.522   4.597 -0.0219 -0.1349  0.0331
  571ACOH    C213463   1.232   4.502   4.725 -0.1948  0.1525 -0.7021
  571ACOH    O113464   1.311   4.431   4.785  0.2511 -0.8346 -0.2635
  571ACOH    C113465   1.128   4.581   4.805  0.5878 -0.1752  0.2308
  571ACOH    H113466   1.052   4.516   4.844  1.4351 -2.0753  0.1158
  571ACOH    H213467   1.081   4.657   4.733  1.1888  2.9036  1.1208
  571ACOH    H313468   1.171   4.638   4.885  0.4122 -0.7191 -0.9163
  572ACOH    H413469   8.265   8.040   6.421 -0.5763  0.3875  0.9994
  572ACOH    O213470   8.235   7.974   6.350 -0.0248  0.5812 -0.0734
  572ACOH    C213471   8.271   7.856   6.412 -1.1348  0.0478 -0.2016
  572ACOH    O113472   8.298   7.844   6.528 -0.7923  0.9391 -0.6063
  572ACOH    C113473   8.256   7.742   6.319 -0.9417  0.4255 -0.2410
  572ACOH    H113474   8.199   7.775   6.240  0.8604 -1.0820 -0.6554
  572ACOH    H213475   8.224   7.651   6.370  4.2586 -2.4470 -2.3390
  572ACOH    H313476   8.354   7.719   6.283  1.7256 -0.2273  2.8236
  573ACOH    H413477   9.852   4.392   7.372  1.2368 -0.2037  1.1096
  573ACOH    O213478   9.829   4.345   7.285  0.4443 -0.6006 -0.0491
  573ACOH    C213479   9.699   4.326   7.254 -0.3985  0.7178 -0.1455
  573ACOH    O113480   9.600   4.341   7.326 -0.4724 -0.3220 -0.1780
  573ACOH    C113481   9.701   4.243   7.128 -0.4211 -0.0037  0.6245
  573ACOH    H113482   9.680   4.308   7.040  0.3894 -1.3273  0.1181
  573ACOH    H213483   9.635   4.166   7.131  1.4589 -0.2944  1.3084
  573ACOH    H313484   9.794   4.195   7.109  0.6568  1.0619 -2.6175
  574ACOH    H413485   9.999   5.514   9.539 -0.3685  0.6992 -0.7728
  574ACOH    O213486   9.986   5.524   9.441  0.6354  0.0517 -0.5189
  574ACOH    C213487   9.874   5.598   9.429  0.0620 -0.3707 -0.2016
  574ACOH    O113488   9.816   5.658   9.516 -0.2972  0.5648 -0.6861
  574ACOH    C113489   9.825   5.609   9.288  0.1435 -0.4644 -0.0265
  574ACOH    H113490   9.905   5.587   9.221 -0.1459  2.3081  2.4467
  574ACOH    H213491   9.788   5.709   9.275 -2.3452 -1.2412  1.7358
  574ACOH    H313492   9.741   5.545   9.265  2.6207 -1.5205  0.1642
  575ACOH    H413493   7.988   0.241   9.712  0.2511  1.0453  0.2326
  575ACOH    O213494   8.047   0.303   9.665 -0.1435  0.8245 -0.2019
  575ACOH    C213495   7.988   0.354   9.560  0.8071  0.8169  0.3403
  575ACOH    O113496   7.873   0.339   9.526  0.5578 -0.7096  0.0627
  575ACOH    C113497   8.079   0.444   9.492 -0.2872 -0.0653  0.0476
  575ACOH    H113498   8.116   0.513   9.566 -0.5310  0.4221  2.5671
  575ACOH    H213499   8.042   0.498   9.405 -0.3461  2.9374 -2.2412
  575ACOH    H313500   8.169   0.391   9.468 -0.6489 -0.9171  0.4392
  576ACOH    H413501   7.712   7.754   0.749  1.7798 -1.8911 -0.1448
  576ACOH    O213502   7.786   7.798   0.809 -0.5151  0.4757  0.3007
  576ACOH    C213503   7.722   7.912   0.846 -0.8957  0.0065 -0.2242
  576ACOH    O113504   7.601   7.924   0.871  0.2310  0.1886  0.5271
  576ACOH    C113505   7.819   8.011   0.897  0.0066 -0.1620  0.3781
  576ACOH    H113506   7.835   7.990   1.006  0.1112  0.1597  1.8468
  576ACOH    H213507   7.780   8.110   0.876 -4.7200 -0.2112 -1.1321
  576ACOH    H313508   7.908   7.990   0.845  1.2758 -1.8098  0.4057
  577ACOH    H413509   8.792   5.853   8.998 -0.5892  0.6613 -0.5535
  577ACOH    O213510   8.879   5.812   9.012 -0.0992 -0.1211 -1.1275
  577ACOH    C213511   8.934   5.792   8.893 -0.5277  0.4000  0.2460
  577ACOH    O113512   8.886   5.821   8.782  0.2471  0.1558 -0.6672
  577ACOH    C113513   9.071   5.733   8.900 -0.1395 -0.4555 -0.8309
  577ACOH    H113514   9.137   5.781   8.970 -1.3906  0.7597 -0.0247
  577ACOH    H213515   9.111   5.744   8.802 -4.2793  1.3420 -0.8307
  577ACOH    H313516   9.064   5.630   8.931 -1.1993 -0.1073 -0.7057
  578ACOH    H413517   9.072   6.359   0.230  2.8084 -1.6170 -2.1681
  578ACOH    O213518   8.976   6.338   0.270 -0.3331 -0.1879 -0.5145
  578ACOH    C213519   8.890   6.338   0.165  0.3199  0.1586  0.2645
  578ACOH    O113520   8.885   6.433   0.089 -0.3234  0.5136 -0.0297
  578ACOH    C113521   8.777   6.239   0.199 -1.0258  0.9118 -0.0188
  578ACOH    H113522   8.772   6.241   0.305  1.3033  0.1061 -1.4015
  578ACOH    H213523   8.811   6.136   0.175  1.5212  2.1052  1.8783
  578ACOH    H313524   8.681   6.255   0.154 -0.0433 -0.9321 -1.4585
  579ACOH    H413525   6.532   7.224   8.153  1.9289 -0.0607 -0.4150
  579ACOH    O213526   6.572   7.219   8.248  0.8492 -0.4274  0.3508
  579ACOH    C213527   6.621   7.090   8.252  0.1323 -0.4956  0.0675
  579ACOH    O113528   6.582   6.996   8.186 -0.0926  0.4399  0.0533
  579ACOH    C113529   6.702   7.069   8.379  0.1458  0.7302  0.3146
  579ACOH    H113530   6.770   7.000   8.340 -1.2321 -0.1120 -4.2582
  579ACOH    H213531   6.643   7.023   8.454  2.3421 -0.3655 -0.3500
  579ACOH    H313532   6.747   7.168   8.400  0.2926  1.4325 -0.9450
  580ACOH    H413533   8.577   8.665   0.184  0.5847 -2.4577  2.0827
  580ACOH    O213534   8.597   8.722   0.258  0.4832  0.1845  0.0656
  580ACOH    C213535   8.633   8.640   0.355 -0.4432 -0.5575 -1.0088
  580ACOH    O113536   8.655   8.523   0.348  0.4176 -0.4117 -0.4388
  580ACOH    C113537   8.657   8.719   0.477 -0.0228 -0.0581  0.0613
  580ACOH    H113538   8.567   8.760   0.515  1.7342  1.5838 -0.9593
  580ACOH    H213539   8.726   8.800   0.457 -0.8802 -1.2765 -2.9398
  580ACOH    H313540   8.694   8.650   0.551 -1.6054 -0.0443 -2.5876
  581ACOH    H413541   7.120   0.720   7.388 -1.1338 -0.5030  0.0605
  581ACOH    O213542   7.135   0.778   7.466 -0.2518 -1.3090  0.0347
  581ACOH    C213543   7.210   0.715   7.551  0.5410  0.1326 -0.0530
  581ACOH    O113544   7.249   0.598   7.539  0.3643  0.1759 -0.1091
  581ACOH    C113545   7.224   0.802   7.678  0.0897 -0.3027 -0.2667
  581ACOH    H113546   7.127   0.807   7.725 -1.5535 -0.0065 -0.8653
  581ACOH    H213547   7.249   0.905   7.646  1.4632 -0.0440 -3.2186
  581ACOH    H313548   7.299   0.761   7.736 -1.4368 -0.1112 -2.9575
  582ACOH    H413549   9.184   7.378   0.793 -0.3550  2.3897  1.0482
  582ACOH    O213550   9.143   7.316   0.854 -0.5191 -0.4508  0.4860
  582ACOH    C213551   9.254   7.247   0.896 -0.5050 -0.1742 -0.1266
  582ACOH    O113552   9.370   7.275   0.864 -0.1587  0.5128  0.5471
  582ACOH    C113553   9.223   7.136   0.985  0.3717  0.4135  0.2585
  582ACOH    H113554   9.311   7.075   1.004 -0.5808 -0.5024 -0.2044
  582ACOH    H213555   9.145   7.073   0.951  1.7776 -1.1116 -0.2506
  582ACOH    H313556   9.188   7.176   1.080  2.0885 -1.6099  0.8529
  583ACOH    H413557   0.431   0.669   3.498 -1.5106  0.7113 -1.6493
  583ACOH    O213558   0.342   0.620   3.491  0.2896  0.0280  0.2931
  583ACOH    C213559   0.363   0.518   3.584  0.4856 -0.2791  0.0160
  583ACOH    O113560   0.468   0.474   3.625 -0.1210  0.4291  0.4361
  583ACOH    C113561   0.243   0.431   3.590 -0.3670  0.4531  0.5068
  583ACOH    H113562   0.236   0.391   3.697 -0.5869  1.5758  2.2961
  583ACOH    H213563   0.250   0.348   3.522  1.5494 -1.6093  1.0490
  583ACOH    H313564   0.157   0.486   3.573 -0.9875  0.1721  2.5036
  584ACOH    H413565   1.157   6.881   1.748  1.8357  1.3947 -0.1433
  584ACOH    O213566   1.083   6.811   1.763 -0.0869 -0.5085  0.5075
  584ACOH    C213567   0.985   6.864   1.841 -0.1883 -0.0654 -0.4453
  584ACOH    O113568   0.966   6.981   1.855  0.0512 -0.3898  0.4020
  584ACOH    C113569   0.889   6.754   1.881 -0.2223 -0.5626 -0.2576
  584ACOH    H113570   0.874   6.771   1.986 -0.1457  1.7228  0.7640
  584ACOH    H213571   0.939   6.660   1.856 -0.5112 -1.1965 -0.6150
  584ACOH    H313572   0.800   6.776   1.820 -0.3636 -0.4791 -1.4184
  585ACOH    H413573   0.326   8.837   1.020 -0.5998  0.4127  0.3596
  585ACOH    O213574   0.290   8.897   1.090 -0.6880 -0.2365  0.2329
  585ACOH    C213575   0.160   8.903   1.074  1.2266  0.9946  0.0386
  585ACOH    O113576   0.089   8.849   0.995 -0.5111  0.0921  0.0292
  585ACOH    C113577   0.103   8.975   1.192  0.1928 -0.5395 -0.1429
  585ACOH    H113578   0.166   8.968   1.281 -0.2309  1.7382 -0.5193
  585ACOH    H213579   0.008   8.940   1.224  2.0370  0.4217 -2.4494
  585ACOH    H313580   0.096   9.071   1.150  0.1884 -3.5858 -3.4952
  586ACOH    H413581   7.317   6.606   3.410  2.3822 -1.1238 -1.9080
  586ACOH    O213582   7.338   6.657   3.500 -0.3201 -0.5912 -0.2654
  586ACOH    C213583   7.380   6.784   3.481  0.3632  0.0554 -0.3733
  586ACOH    O113584   7.368   6.846   3.376  0.0136 -0.2203  0.3161
  586ACOH    C113585   7.444   6.832   3.598  0.1071 -0.5347  0.1788
  586ACOH    H113586   7.547   6.808   3.598 -0.9609  0.1030  1.8151
  586ACOH    H213587   7.389   6.789   3.683  1.4142 -1.1846 -1.0036
  586ACOH    H313588   7.429   6.941   3.598 -0.6083 -2.1194  0.1683
  587ACOH    H413589   8.030   8.471   0.344 -1.4329 -0.1576 -2.5965
  587ACOH    O213590   8.117   8.435   0.384 -0.2050 -0.2271  0.6793
  587ACOH    C213591   8.202   8.428   0.282 -0.0082  0.6113  0.3983
  587ACOH    O113592   8.190   8.477   0.171  0.6586 -0.9657 -0.2216
  587ACOH    C113593   8.328   8.365   0.332  0.1755  0.1275 -0.5577
  587ACOH    H113594   8.352   8.419   0.429 -3.2948 -0.7416 -1.2898
  587ACOH    H213595   8.406   8.381   0.256 -0.0021 -1.6475  0.7934
  587ACOH    H313596   8.324   8.257   0.351  1.0862 -0.5263 -3.0844
  588ACOH    H413597   0.344   9.713   3.528  2.4936 -0.1958  0.9615
  588ACOH    O213598   0.408   9.773   3.573 -0.1138  0.1221 -0.0388
  588ACOH    C213599   0.425   9.740   3.699 -0.3177  0.0722 -0.6744
  588ACOH    O113600   0.349   9.670   3.758 -0.3770  0.1086 -0.0229
  588ACOH    C113601   0.522   9.817   3.776  0.3965 -0.0751 -0.7062
  588ACOH    H113602   0.613   9.835   3.720  1.0159 -0.3199  0.9027
  588ACOH    H213603   0.540   9.761   3.869 -2.0556  0.6013  0.5699
  588ACOH    H313604   0.465   9.904   3.801 -1.2319 -1.6119 -1.9337
  589ACOH    H413605   0.835   7.971   4.652  0.5255 -0.6937  0.1270
  589ACOH    O213606   0.779   7.896   4.632  0.1563 -0.2418 -0.5240
  589ACOH    C213607   0.793   7.814   4.737  0.3261 -0.0321 -0.0311
  589ACOH    O113608   0.847   7.843   4.842 -0.1057 -0.0567  0.4353
  589ACOH    C113609   0.718   7.685   4.724 -0.1478 -0.7595 -0.1633
  589ACOH    H113610   0.626   7.696   4.774 -0.8038  1.8944  0.5932
  589ACOH    H213611   0.771   7.606   4.774  0.2917  0.0731 -0.5904
  589ACOH    H313612   0.692   7.670   4.616  1.5574  0.7170 -4.2464
  590ACOH    H413613   0.409   6.305   6.368  0.2840 -1.0318  0.8207
  590ACOH    O213614   0.465   6.359   6.433  0.7315 -0.2762 -0.3639
  590ACOH    C213615   0.418   6.488   6.428 -0.4538  0.0359 -0.0653
  590ACOH    O113616   0.338   6.531   6.347 -0.1996 -0.2825 -0.1968
  590ACOH    C113617   0.473   6.567   6.536 -0.0178  0.4055 -0.1113
  590ACOH    H113618   0.576   6.525   6.540 -1.9861 -0.2365 -2.0666
  590ACOH    H213619   0.410   6.545   6.631 -2.1837 -0.6572  3.3600
  590ACOH    H313620   0.479   6.679   6.517 -0.3443  3.3423  0.0303
  591ACOH    H413621   9.061   0.054   2.541  1.0467 -0.4220 -1.3805
  591ACOH    O213622   8.969   0.024   2.568 -0.3592  0.7246 -0.5483
  591ACOH    C213623   8.882   0.115   2.522  0.2740 -0.1103 -0.5321
  591ACOH    O113624   8.904   0.205   2.439  0.5881 -0.0668  0.5121
  591ACOH    C113625   8.743   0.086   2.556 -0.1275  0.1321  0.4925
  591ACOH    H113626   8.674   0.133   2.484 -0.5123  1.7454  0.8113
  591ACOH    H213627   8.741   0.134   2.654 -0.9416  0.9854 -0.5434
  591ACOH    H313628   8.729  -0.020   2.569 -2.5826 -0.7778  1.5086
  592ACOH    H413629   9.592   8.294   2.319 -0.2525 -0.5703  0.8337
  592ACOH    O213630   9.681   8.279   2.278 -0.6794 -0.1258  0.3887
  592ACOH    C213631   9.739   8.398   2.275  0.0682  0.0749  1.2703
  592ACOH    O113632   9.686   8.502   2.306 -0.4601  0.1523 -0.6107
  592ACOH    C113633   9.864   8.398   2.194 -0.9192  0.5700 -0.6199
  592ACOH    H113634   9.845   8.432   2.094  2.9914  0.3290 -1.8101
  592ACOH    H213635   9.909   8.296   2.195 -2.1431 -0.5113  4.6787
  592ACOH    H313636   9.937   8.458   2.240  2.3893 -0.6385 -0.1948
  593ACOH    H413637   8.278   6.636   9.179 -0.8099  0.5712  0.4097
  593ACOH    O213638   8.213   6.679   9.240  0.2493 -0.0355  0.1345
  593ACOH    C213639   8.236   6.812   9.231  0.3748  0.2994 -0.3301
  593ACOH    O113640   8.317   6.866   9.158  0.1246 -0.5155  0.1357
  593ACOH    C113641   8.125   6.884   9.302 -0.4059  0.6175 -0.3434
  593ACOH    H113642   8.041   6.810   9.315 -1.3505 -1.9035  0.0369
  593ACOH    H213643   8.099   6.971   9.252 -1.8159  0.4537  0.8520
  593ACOH    H313644   8.167   6.901   9.404  1.4499 -0.1910  1.4937
  594ACOH    H413645   6.421   6.695   8.718  1.9245 -2.5844 -0.5467
  594ACOH    O213646   6.357   6.713   8.646 -0.1074 -0.1406 -0.2580
  594ACOH    C213647   6.431   6.729   8.533  0.9319 -0.0171  0.9299
  594ACOH    O113648   6.545   6.686   8.515 -0.3233 -1.0746 -0.1759
  594ACOH    C113649   6.342   6.747   8.417  0.1459  0.2384 -0.3194
  594ACOH    H113650   6.250   6.800   8.444  1.0377 -0.1556 -0.9585
  594ACOH    H213651   6.307   6.655   8.375  0.2331  1.6506  0.4729
  594ACOH    H313652   6.394   6.807   8.346  2.7131 -2.8373  1.2052
  595ACOH    H413653   8.196   7.539   2.305 -2.5713  0.7333  0.7476
  595ACOH    O213654   8.202   7.485   2.223  0.8510  0.1872  0.1595
  595ACOH    C213655   8.102   7.389   2.222  0.1541 -0.3862  0.0475
  595ACOH    O113656   8.023   7.363   2.310 -0.2357 -0.2565  0.1418
  595ACOH    C113657   8.076   7.340   2.088 -0.1871  0.8278  0.0400
  595ACOH    H113658   8.024   7.418   2.032 -0.8972  3.0642  1.4282
  595ACOH    H213659   8.017   7.252   2.088  2.1817 -0.7141 -0.1188
  595ACOH    H313660   8.172   7.308   2.042  2.3565  1.3511 -0.4810
  596ACOH    H413661   0.518   9.645   5.413 -2.7545 -2.3212  1.7903
  596ACOH    O213662   0.594   9.607   5.363  0.7238  0.0662 -0.3532
  596ACOH    C213663   0.568   9.474   5.351  0.3817 -0.2578 -0.3075
  596ACOH    O113664   0.490   9.415   5.423 -0.8351 -0.2787 -0.2049
  596ACOH    C113665   0.671   9.399   5.269  0.1923  0.7370  0.0255
  596ACOH    H113666   0.654   9.290   5.277 -1.8302  1.3039 -0.7879
  596ACOH    H213667   0.774   9.422   5.293 -1.8364  1.5818  2.4088
  596ACOH    H313668   0.650   9.442   5.173  1.3461  0.8698  3.4067
  597ACOH    H413669   7.481   9.045   0.349 -1.5259  0.5558  2.2624
  597ACOH    O213670   7.463   8.997   0.439 -0.6988  0.1413 -0.7171
  597ACOH    C213671   7.586   8.966   0.481 -0.5324 -1.2638  1.0021
  597ACOH    O113672   7.679   8.930   0.414 -0.3226  0.0062 -0.0615
  597ACOH    C113673   7.588   8.958   0.623 -0.7494 -0.4003  0.1644
  597ACOH    H113674   7.584   9.056   0.664 -2.5284 -0.9999  0.5868
  597ACOH    H213675   7.679   8.909   0.661  3.8632 -0.2987 -0.5974
  597ACOH    H313676   7.514   8.891   0.668  0.0585 -1.1402  0.1732
  598ACOH    H413677   5.285   8.530   8.405  3.6283  0.6549  0.4188
  598ACOH    O213678   5.255   8.441   8.360  0.1352 -0.2962 -0.1709
  598ACOH    C213679   5.121   8.442   8.347 -0.0886 -0.2844 -0.2402
  598ACOH    O113680   5.049   8.532   8.380  0.3151 -0.2881 -0.2458
  598ACOH    C113681   5.067   8.303   8.323 -0.1381 -0.8120 -1.2490
  598ACOH    H113682   4.954   8.309   8.320 -2.3618 -0.7610 -1.3171
  598ACOH    H213683   5.093   8.237   8.411  0.4581  0.5089  2.3448
  598ACOH    H313684   5.109   8.267   8.224 -0.9941  1.2773 -3.2109
  599ACOH    H413685   8.255   0.178   7.515  1.6546  0.8288  0.9824
  599ACOH    O213686   8.188   0.183   7.586 -0.3350 -0.2863  0.1049
  599ACOH    C213687   8.253   0.135   7.697 -0.0712  0.1392  0.1408
  599ACOH    O113688   8.370   0.100   7.694 -0.3809 -0.6048 -0.0849
  599ACOH    C113689   8.171   0.155   7.817 -0.3124  0.4647 -0.4401
  599ACOH    H113690   8.067   0.126   7.795  0.0464 -2.3884 -0.2752
  599ACOH    H213691   8.165   0.258   7.842 -3.0714 -0.3798 -3.0826
  599ACOH    H313692   8.202   0.093   7.903 -1.4043 -2.0628  1.0464
  600ACOH    H413693   8.856   9.160   8.270 -2.0503 -1.7906  3.3073
  600ACOH    O213694   8.865   9.060   8.276 -0.1304  0.3178  0.0599
  600ACOH    C213695   8.989   9.025   8.302  0.3539 -0.8543  0.2655
  600ACOH    O113696   9.013   8.943   8.389 -0.0923 -0.5037  0.4578
  600ACOH    C113697   9.101   9.115   8.268 -0.0523  0.1184 -0.7845
  600ACOH    H113698   9.075   9.180   8.185  0.7387 -2.4059 -2.4570
  600ACOH    H213699   9.199   9.070   8.245 -0.2798  0.3075 -0.8649
  600ACOH    H313700   9.113   9.188   8.356 -1.1334  0.6565 -0.6190
  601ACOH    H413701   9.899   7.187   7.595 -0.8465  1.5234 -2.9320
  601ACOH    O213702   9.861   7.178   7.504 -0.1661  0.2018 -1.4602
  601ACOH    C213703   9.846   7.046   7.482 -0.8654  0.1675  0.2278
  601ACOH    O113704   9.896   6.962   7.552  0.0385 -0.6601  0.0421
  601ACOH    C113705   9.788   7.009   7.354  0.5556  0.6263  0.0336
  601ACOH    H113706   9.677   7.019   7.371 -0.1373 -2.0854 -1.7966
  601ACOH    H213707   9.810   6.910   7.330 -0.9571  0.7738  1.6218
  601ACOH    H313708   9.808   7.077   7.272  2.2224  0.3459  1.1334
  602ACOH    H413709   9.260   9.199   1.707 -0.2456  1.1352 -0.2552
  602ACOH    O213710   9.241   9.110   1.691 -0.2063  0.2442 -0.2735
  602ACOH    C213711   9.359   9.057   1.668 -0.2315  0.3001 -0.4296
  602ACOH    O113712   9.466   9.114   1.664  0.2210  0.0279  0.2648
  602ACOH    C113713   9.336   8.910   1.646  0.0309 -0.6845 -0.1949
  602ACOH    H113714   9.233   8.882   1.658 -0.1166  1.8102 -0.0492
  602ACOH    H213715   9.387   8.841   1.715 -1.5302  0.3960  0.4863
  602ACOH    H313716   9.358   8.885   1.549  2.0273 -0.6180 -0.3779
  603ACOH    H413717   7.531   7.526   3.259 -1.5699 -3.7513  0.9098
  603ACOH    O213718   7.546   7.563   3.355 -0.4936  0.1332  0.2030
  603ACOH    C213719   7.658   7.636   3.337 -0.3210 -0.0790  0.0756
  603ACOH    O113720   7.730   7.650   3.239  0.0494  0.1928  0.0579
  603ACOH    C113721   7.692   7.720   3.446  0.0483 -0.5620 -0.1366
  603ACOH    H113722   7.628   7.696   3.525 -0.5200  0.0585 -4.3837
  603ACOH    H213723   7.669   7.822   3.422 -3.5236 -0.6135  1.0655
  603ACOH    H313724   7.800   7.713   3.476  3.7318 -0.4785 -2.2703
  604ACOH    H413725   7.493   5.337   2.378  1.3290  2.3227 -1.4881
  604ACOH    O213726   7.581   5.370   2.352  0.2844  0.0253  0.1161
  604ACOH    C213727   7.616   5.289   2.250 -0.2639 -0.0189  0.4451
  604ACOH    O113728   7.565   5.186   2.209  0.7902 -0.0656 -0.3231
  604ACOH    C113729   7.753   5.334   2.204 -0.3346  0.0162  0.4453
  604ACOH    H113730   7.739   5.434   2.160  0.4955  0.6147  0.8308
  604ACOH    H213731   7.784   5.273   2.122 -0.5611  1.1924 -0.6154
  604ACOH    H313732   7.811   5.334   2.295 -1.8978  1.8374  5.1118
  605ACOH    H413733   4.489   9.088   6.549 -0.6266 -1.2756  3.6466
  605ACOH    O213734   4.570   9.091   6.490 -0.2739 -0.6883  0.1438
  605ACOH    C213735   4.644   8.987   6.537 -0.3730  0.8205  0.0312
  605ACOH    O113736   4.625   8.913   6.636 -0.0012 -0.5113 -0.3203
  605ACOH    C113737   4.761   8.965   6.451  0.0677  0.0994  0.3171
  605ACOH    H113738   4.767   9.032   6.365 -0.4850  0.2882  0.1342
  605ACOH    H213739   4.755   8.867   6.420  0.4845 -0.3002 -1.3204
  605ACOH    H313740   4.847   8.982   6.511 -0.4505 -0.6790 -0.5115
  606ACOH    H413741   6.873   9.442   7.644  0.4671 -2.0458  0.9158
  606ACOH    O213742   6.785   9.425   7.682 -0.3181 -0.5551 -0.0991
  606ACOH    C213743   6.683   9.432   7.594  0.7352  0.0139  0.1356
  606ACOH    O113744   6.674   9.505   7.493  0.3052  0.3188  0.0757
  606ACOH    C113745   6.563   9.368   7.652 -0.1418  0.4996  0.5731
  606ACOH    H113746   6.499   9.341   7.567 -1.5545  3.9753 -0.5865
  606ACOH    H213747   6.517   9.431   7.726  1.1509 -2.0260 -1.3500
  606ACOH    H313748   6.600   9.276   7.688 -3.0382 -1.4141 -2.3479
  607ACOH    H413749   6.896   0.170   1.868 -1.8521 -0.8056 -3.0780
  607ACOH    O213750   6.978   0.164   1.929  0.1758  0.4491 -0.5161
  607ACOH    C213751   7.035   0.284   1.916 -0.0500 -0.0209 -0.4022
  607ACOH    O113752   6.997   0.379   1.850  0.6629  0.5695  0.7810
  607ACOH    C113753   7.159   0.284   1.995  0.7208  0.2947 -0.9913
  607ACOH    H113754   7.198   0.182   2.027  0.2071 -2.2778  1.7231
  607ACOH    H213755   7.147   0.334   2.087 -0.9147 -0.0553 -0.9353
  607ACOH    H313756   7.248   0.331   1.952  2.6712  0.7134 -0.4127
  608ACOH    H413757   9.264   9.361   6.491 -0.6028  2.9508  1.6482
  608ACOH    O213758   9.210   9.414   6.547  0.3995 -0.3930 -0.1937
  608ACOH    C213759   9.307   9.490   6.605  0.1566  0.6725  0.1043
  608ACOH    O113760   9.416   9.448   6.641 -0.4338 -0.1914 -0.2802
  608ACOH    C113761   9.260   9.617   6.667  0.3834 -0.1143  0.5625
  608ACOH    H113762   9.331   9.689   6.654  0.6473 -0.6197 -0.6593
  608ACOH    H213763   9.239   9.601   6.772  0.6396  1.5859  0.9512
  608ACOH    H313764   9.164   9.642   6.617 -0.6836 -0.1737 -0.0467
  609ACOH    H413765   7.784   1.823   8.591 -0.6471  3.9171  1.9851
  609ACOH    O213766   7.780   1.728   8.581  0.0108  1.4001 -0.5791
  609ACOH    C213767   7.904   1.683   8.599 -0.5795  0.0536 -0.1782
  609ACOH    O113768   8.007   1.746   8.580 -0.0187 -0.1297 -0.2517
  609ACOH    C113769   7.898   1.535   8.600 -0.1480  0.2017  0.5240
  609ACOH    H113770   7.792   1.495   8.614 -0.7186 -1.5704  2.5067
  609ACOH    H213771   7.962   1.500   8.687  1.7372 -1.7412  1.0073
  609ACOH    H313772   7.934   1.494   8.507  1.8394  2.7435  0.8540
  610ACOH    H413773   9.935   2.357   9.083  1.7218 -1.0806 -1.9282
  610ACOH    O213774   9.945   2.376   9.178 -0.3232 -0.0246  0.6501
  610ACOH    C213775   9.833   2.334   9.248 -0.1744 -0.9116  0.4013
  610ACOH    O113776   9.762   2.239   9.217  0.3640 -0.8978  0.3623
  610ACOH    C113777   9.834   2.380   9.388 -0.0938 -0.0569 -0.0375
  610ACOH    H113778   9.920   2.347   9.434  0.4533  0.7106 -1.0365
  610ACOH    H213779   9.740   2.345   9.431  2.8965  0.5700 -1.8734
  610ACOH    H313780   9.833   2.491   9.390  0.6990  1.6001  0.7530
  611ACOH    H413781   8.701   0.400   0.938 -2.9099 -0.4118  1.1489
  611ACOH    O213782   8.646   0.390   1.023  0.9153 -0.0512 -0.0756
  611ACOH    C213783   8.714   0.323   1.116 -0.0798 -0.7353 -0.0228
  611ACOH    O113784   8.837   0.305   1.118  0.3545 -0.3485  0.3311
  611ACOH    C113785   8.628   0.288   1.229  0.0399  0.0541  0.2992
  611ACOH    H113786   8.550   0.224   1.180  1.1503 -1.7517 -1.9778
  611ACOH    H213787   8.586   0.390   1.261  1.2916  0.9449  1.3381
  611ACOH    H313788   8.675   0.242   1.319  0.4071 -2.8895 -3.9572
  612ACOH    H413789   7.314   5.998   3.121  0.4179 -0.8992 -0.3027
  612ACOH    O213790   7.331   6.053   3.203 -0.8004  0.0372 -0.0521
  612ACOH    C213791   7.288   5.971   3.298  0.0829 -0.0972 -0.5981
  612ACOH    O113792   7.310   5.852   3.294  0.4896  0.8267  0.0362
  612ACOH    C113793   7.271   6.041   3.428  0.5569  0.4426 -0.4951
  612ACOH    H113794   7.285   6.148   3.417 -0.7986  1.8351  0.5335
  612ACOH    H213795   7.341   6.001   3.501 -1.1328 -1.1853 -0.2835
  612ACOH    H313796   7.163   6.014   3.466 -0.3827  1.0389  2.8405
  613ACOH    H413797   0.277   2.691   7.392 -2.8382  1.0271  1.3174
  613ACOH    O213798   0.341   2.683   7.311 -0.4773 -0.3045  0.0107
  613ACOH    C213799   0.285   2.585   7.236 -0.4574 -0.7841 -0.4488
  613ACOH    O113800   0.193   2.511   7.255 -0.1157 -0.0121 -0.1702
  613ACOH    C113801   0.365   2.573   7.112  0.1299  0.5158  0.5323
  613ACOH    H113802   0.315   2.583   7.020 -0.7009 -1.2952 -1.5938
  613ACOH    H213803   0.411   2.478   7.119 -1.3518  1.5142  0.4708
  613ACOH    H313804   0.445   2.646   7.099  0.6481 -1.8146 -0.1458
  614ACOH    H413805   8.600   2.279   0.666 -1.6939  1.5202  2.2209
  614ACOH    O213806   8.636   2.201   0.622 -0.3237  0.3820  0.5890
  614ACOH    C213807   8.695   2.122   0.710 -0.1102  0.1726 -0.3441
  614ACOH    O113808   8.689   2.136   0.831  0.2846 -0.3596  0.3167
  614ACOH    C113809   8.736   1.991   0.648  0.1106 -0.6744  0.3776
  614ACOH    H113810   8.761   1.930   0.729 -1.0811  0.3718 -1.5129
  614ACOH    H213811   8.820   2.006   0.583 -2.1724 -0.7572 -0.9854
  614ACOH    H313812   8.656   1.940   0.592  0.6207 -1.2882 -0.7894
  615ACOH    H413813   9.050   3.312   1.352  1.0706 -0.2942 -2.5335
  615ACOH    O213814   9.041   3.241   1.287  0.2202 -0.1397 -0.4238
  615ACOH    C213815   8.944   3.166   1.344 -0.1725  0.2239 -0.6010
  615ACOH    O113816   8.929   3.137   1.461  0.8075 -0.2440  0.1722
  615ACOH    C113817   8.877   3.092   1.238 -0.4382 -0.0317  0.0350
  615ACOH    H113818   8.812   3.152   1.177  2.0596  0.6523  0.3907
  615ACOH    H213819   8.824   3.008   1.287 -0.6020 -0.8741  0.0380
  615ACOH    H313820   8.952   3.040   1.177 -0.4977 -1.8864  0.6296
  616ACOH    H413821   8.895   3.632   3.142  2.5909 -3.0934 -3.3571
  616ACOH    O213822   8.953   3.706   3.181 -0.1997  0.8395 -0.1250
  616ACOH    C213823   8.887   3.781   3.264 -0.9381  0.5827 -0.1380
  616ACOH    O113824   8.780   3.743   3.313  0.0539  0.1533 -0.2221
  616ACOH    C113825   8.970   3.894   3.314 -0.4346 -0.1666 -0.4430
  616ACOH    H113826   8.905   3.976   3.315  1.4788 -2.4197  0.6852
  616ACOH    H213827   9.053   3.918   3.246 -0.6052 -2.8451  0.9335
  616ACOH    H313828   9.001   3.873   3.415  0.6837  1.3415 -0.6113
  617ACOH    H413829   6.334   4.940   3.723  2.4522 -1.4663  0.2519
  617ACOH    O213830   6.375   4.948   3.813 -0.4549 -0.0111  0.1781
  617ACOH    C213831   6.307   5.045   3.879 -0.5809 -0.3035  0.0998
  617ACOH    O113832   6.208   5.103   3.840 -0.1200  0.1281 -0.0243
  617ACOH    C113833   6.373   5.088   4.003  0.4706 -0.7313  0.2739
  617ACOH    H113834   6.419   5.187   3.995  0.0178  0.5692  1.3719
  617ACOH    H213835   6.451   5.018   4.023  0.4625  1.8646  4.0607
  617ACOH    H313836   6.305   5.080   4.086  1.3491 -1.3629 -1.0802
  618ACOH    H413837   9.445   3.863   7.632 -1.0680 -2.5623 -0.0132
  618ACOH    O213838   9.364   3.815   7.663 -0.0926 -0.1624  0.1370
  618ACOH    C213839   9.277   3.912   7.701 -0.7494  0.1192  0.5135
  618ACOH    O113840   9.282   4.026   7.655  0.2910  0.3235 -0.2756
  618ACOH    C113841   9.147   3.857   7.754 -0.9743 -0.5131 -0.6209
  618ACOH    H113842   9.061   3.879   7.691 -2.0521  1.5916 -0.1639
  618ACOH    H213843   9.126   3.895   7.854 -1.6421  1.6239 -2.3832
  618ACOH    H313844   9.154   3.743   7.761 -1.2884 -2.0358  2.1751
  619ACOH    H413845   7.915   6.590   9.415  1.1970 -0.0242 -1.9365
  619ACOH    O213846   7.970   6.642   9.475  0.1588  0.2650  0.1469
  619ACOH    C213847   7.902   6.676   9.589  0.0881 -0.1578  0.0515
  619ACOH    O113848   7.806   6.613   9.629  0.1798 -0.7494  0.3538
  619ACOH    C113849   7.977   6.771   9.671  0.5339  0.2008  0.1316
  619ACOH    H113850   8.021   6.720   9.755  1.8502  1.5454  1.0279
  619ACOH    H213851   7.920   6.858   9.698 -2.0521 -0.6554 -0.1746
  619ACOH    H313852   8.056   6.803   9.606 -0.9542 -1.6309 -0.7410
  620ACOH    H413853   7.825   5.798   0.457  1.0976 -0.2639 -2.0167
  620ACOH    O213854   7.869   5.862   0.519  0.5134 -0.0353  0.1494
  620ACOH    C213855   7.842   5.825   0.651  0.2394  0.7803  0.4447
  620ACOH    O113856   7.737   5.774   0.690 -0.3874  0.6742  0.0170
  620ACOH    C113857   7.935   5.890   0.747  0.2307 -0.6727  0.1445
  620ACOH    H113858   8.003   5.945   0.680 -0.5787  2.0230  0.4946
  620ACOH    H213859   7.988   5.823   0.805 -1.5526  1.0996  0.6943
  620ACOH    H313860   7.881   5.966   0.806  0.4302 -0.4599 -0.0903
  621ACOH    H413861   9.504   4.377   4.584  1.6551  1.4326 -1.0017
  621ACOH    O213862   9.550   4.452   4.539 -0.0070  0.1145  0.1889
  621ACOH    C213863   9.489   4.568   4.569 -0.3240  0.7835  0.4035
  621ACOH    O113864   9.376   4.581   4.612 -0.6929  0.3817  0.0350
  621ACOH    C113865   9.571   4.681   4.527 -0.6121 -0.5707  0.3721
  621ACOH    H113866   9.667   4.695   4.581 -0.7592 -2.8299 -0.6169
  621ACOH    H213867   9.512   4.777   4.539  1.2309  0.2825  1.4617
  621ACOH    H313868   9.586   4.671   4.421 -0.7287  0.5713 -1.3942
  622ACOH    H413869   2.080   8.158   4.224 -1.4545 -2.2158  0.7417
  622ACOH    O213870   2.008   8.154   4.161 -0.0688 -0.2760 -0.1942
  622ACOH    C213871   1.908   8.087   4.224  0.6827 -0.4252 -0.1679
  622ACOH    O113872   1.919   7.979   4.281 -0.3894 -0.1393  0.4029
  622ACOH    C113873   1.788   8.098   4.133  1.0195  0.2544  0.0036
  622ACOH    H113874   1.704   8.073   4.194  0.6129 -1.9174  1.9234
  622ACOH    H213875   1.807   8.027   4.058 -0.7926  1.0201 -1.1648
  622ACOH    H313876   1.779   8.196   4.088 -2.2670 -0.1435 -0.1885
  623ACOH    H413877   2.886   7.047   6.874 -1.1582  0.5631  1.0765
  623ACOH    O213878   2.970   7.089   6.864 -0.4031 -0.5214 -0.8768
  623ACOH    C213879   2.967   7.190   6.776 -0.1050  0.3768  0.7850
  623ACOH    O113880   2.876   7.208   6.695  0.3132 -0.2594 -0.2745
  623ACOH    C113881   3.097   7.253   6.762  0.2832  0.8419 -0.1539
  623ACOH    H113882   3.162   7.205   6.686 -0.1575  0.5043 -0.0020
  623ACOH    H213883   3.146   7.247   6.851 -1.7397 -2.7730 -0.7212
  623ACOH    H313884   3.078   7.360   6.739  1.5647  3.7761  0.8082
  624ACOH    H413885   9.038   6.259   9.791 -0.1805  0.2547  0.6933
  624ACOH    O213886   8.979   6.312   9.737 -0.0550  0.0523  0.3030
  624ACOH    C213887   9.023   6.311   9.613  0.7078 -0.0006 -0.5612
  624ACOH    O113888   9.137   6.302   9.576 -0.3649 -0.3145 -0.1138
  624ACOH    C113889   8.920   6.363   9.520 -0.1014 -0.6219 -0.1157
  624ACOH    H113890   8.923   6.473   9.506 -1.7740  0.2327 -2.2919
  624ACOH    H213891   8.821   6.348   9.549 -1.8601 -0.0870 -2.4609
  624ACOH    H313892   8.938   6.321   9.420  1.1198 -1.3566  0.7210
  625ACOH    H413893   0.802   7.053   5.560  3.9319  2.3850  3.2679
  625ACOH    O213894   0.765   7.058   5.466 -0.3600  0.2958 -0.4439
  625ACOH    C213895   0.641   7.089   5.460 -0.0307 -0.4415  0.7501
  625ACOH    O113896   0.573   7.144   5.547  0.7233 -0.1864  0.2366
  625ACOH    C113897   0.584   7.059   5.323  0.2417  0.0833  0.3791
  625ACOH    H113898   0.480   7.033   5.321  0.2974  3.8031 -1.8563
  625ACOH    H213899   0.644   6.980   5.280 -1.6707 -1.1195 -0.5364
  625ACOH    H313900   0.581   7.157   5.272 -0.2445  2.0830  0.8249
  626ACOH    H413901   9.745   7.754   1.656  0.1361  2.8356 -0.6333
  626ACOH    O213902   9.653   7.767   1.688  0.9126  0.5795 -0.0110
  626ACOH    C213903   9.606   7.643   1.730  0.0526 -0.2579 -0.2353
  626ACOH    O113904   9.665   7.539   1.758  0.4450 -0.0767  0.1847
  626ACOH    C113905   9.459   7.651   1.753  0.2451  0.4806 -0.8613
  626ACOH    H113906   9.410   7.669   1.659  0.2458 -1.1476  2.1054
  626ACOH    H213907   9.440   7.744   1.809  0.9247  1.0276 -1.4356
  626ACOH    H313908   9.429   7.553   1.798 -0.5912 -1.2679 -1.4805
  627ACOH    H413909   0.999   7.463   4.797 -1.0366  2.2656 -0.0028
  627ACOH    O213910   1.013   7.422   4.707 -0.6591 -0.4204 -0.3122
  627ACOH    C213911   1.092   7.315   4.710 -1.3126  0.3569 -0.1464
  627ACOH    O113912   1.093   7.236   4.616  0.0011 -0.4413  0.3726
  627ACOH    C113913   1.189   7.298   4.825 -0.4543  0.2559  0.3101
  627ACOH    H113914   1.126   7.289   4.914  0.5232  1.7266  0.6515
  627ACOH    H213915   1.256   7.388   4.826 -2.0850 -0.6138 -2.5499
  627ACOH    H313916   1.260   7.213   4.823  0.0261 -2.0386 -0.3222
  628ACOH    H413917   7.965   7.801   9.296  1.9658  1.2363  0.3499
  628ACOH    O213918   7.953   7.704   9.258  0.4033 -0.5616  0.1523
  628ACOH    C213919   8.008   7.623   9.358  0.1661  0.4789  0.0250
  628ACOH    O113920   8.009   7.644   9.478 -1.0044 -0.2719  0.0886
  628ACOH    C113921   8.030   7.489   9.310 -0.1949 -0.4274  0.2759
  628ACOH    H113922   8.109   7.494   9.234 -0.6375  1.4877 -2.5727
  628ACOH    H213923   7.944   7.439   9.274 -2.2173  0.0130 -0.0489
  628ACOH    H313924   8.070   7.430   9.393 -0.2348  1.0213  3.9566
  629ACOH    H413925   4.304   8.589   2.476  1.4620 -1.1539 -0.2930
  629ACOH    O213926   4.285   8.502   2.436  0.1745  0.0032 -0.0762
  629ACOH    C213927   4.281   8.413   2.539 -0.4137 -1.0303  0.3324
  629ACOH    O113928   4.233   8.440   2.650  0.3669 -0.1232 -0.2536
  629ACOH    C113929   4.299   8.280   2.483  0.1208 -0.1827 -0.4450
  629ACOH    H113930   4.395   8.255   2.449 -2.7999  0.6592  0.3139
  629ACOH    H213931   4.224   8.265   2.409  1.7227 -2.6957 -0.1251
  629ACOH    H313932   4.269   8.216   2.571 -3.3397  0.7781  1.0568
  630ACOH    H413933   9.026   8.740   2.139 -1.1977  3.1226 -0.1507
  630ACOH    O213934   9.040   8.789   2.052 -0.2497  0.2082  0.2094
  630ACOH    C213935   9.109   8.899   2.073 -0.2237 -0.3599 -0.0803
  630ACOH    O113936   9.126   8.955   2.180  0.0411 -0.5886  0.3163
  630ACOH    C113937   9.123   8.969   1.942 -0.5521 -0.4494  0.1934
  630ACOH    H113938   9.077   9.068   1.949 -3.0638  2.3611  1.1362
  630ACOH    H213939   9.064   8.925   1.863 -0.1142  0.3349 -0.4849
  630ACOH    H313940   9.230   8.974   1.910  0.7045  2.2600  0.4088
  631ACOH    H413941   0.490   8.057   3.939  0.7039  0.1639  0.6420
  631ACOH    O213942   0.400   8.079   3.946  0.9706  0.1230  0.1120
  631ACOH    C213943   0.346   7.969   4.002  0.1794  0.3146 -0.6704
  631ACOH    O113944   0.384   7.853   3.990  1.0563 -0.3513  0.0881
  631ACOH    C113945   0.203   7.989   4.025 -0.5706 -0.2232  0.9545
  631ACOH    H113946   0.160   8.085   4.009  0.4146  0.2337  0.5513
  631ACOH    H213947   0.181   7.956   4.127  3.7246  2.3247  2.5651
  631ACOH    H313948   0.144   7.926   3.957  1.1998  0.7276 -0.1008
  632ACOH    H413949   3.598   6.702   7.263 -3.3904  1.3169  1.9911
  632ACOH    O213950   3.547   6.665   7.190 -0.1085 -0.3227 -0.2341
  632ACOH    C213951   3.498   6.549   7.229  0.1410  0.1277  0.5442
  632ACOH    O113952   3.471   6.517   7.341 -0.2098  0.4950  0.6564
  632ACOH    C113953   3.468   6.464   7.107 -0.0303  0.3376 -0.5667
  632ACOH    H113954   3.396   6.520   7.045  1.8830  0.2451  1.5318
  632ACOH    H213955   3.417   6.367   7.130 -1.3258 -1.0355  1.9452
  632ACOH    H313956   3.553   6.449   7.047 -0.0591 -0.5723  1.1048
  633SOL     OW13957   0.128   7.472   9.747 -0.4701 -0.7608  0.8574
  633SOL    HW113958   0.188   7.395   9.727 -0.4588 -0.3324 -0.7945
  633SOL    HW213959   0.053   7.474   9.682  0.0211  1.1368  0.3150
  634SOL     OW13960   4.355   5.466   2.257  0.1759  0.3292  0.7297
  634SOL    HW113961   4.379   5.378   2.216  0.8712  0.7397  0.2457
  634SOL    HW213962   4.361   5.538   2.188 -3.7085  0.2939  0.2187
  635SOL     OW13963   8.792   3.883   3.947 -0.1431 -0.0006 -0.3827
  635SOL    HW113964   8.883   3.925   3.948  0.0071 -0.3289 -0.1873
  635SOL    HW213965   8.729   3.939   4.000  0.6493 -1.3445  2.0646
  636SOL     OW13966   1.802   3.191   8.884  0.6750 -0.1852 -0.1961
  636SOL    HW113967   1.897   3.173   8.910  0.0538 -0.9921  1.5995
  636SOL    HW213968   1.793   3.286   8.856  1.2307  1.0379  3.5122
  637SOL     OW13969   9.981   4.038   3.773 -0.0435 -0.9023  0.1359
  637SOL    HW113970   9.940   4.129   3.771  0.1859 -0.7397  1.8942
  637SOL    HW213971  10.076   4.044   3.742 -0.2797 -0.6936 -0.5571
  638SOL     OW13972   3.395   0.586   1.564 -0.1850 -0.4428  0.2354
  638SOL    HW113973   3.364   0.527   1.639  0.8094  0.6099  1.5008
  638SOL    HW213974   3.356   0.677   1.576 -1.0388 -0.5988 -1.2496
  639SOL     OW13975   8.321   1.929   0.302  0.0951  0.1098 -0.0407
  639SOL    HW113976   8.376   1.890   0.228 -0.2803  2.4253 -1.5972
  639SOL    HW213977   8.247   1.866   0.326  0.1072 -0.5888 -1.7979
  640SOL     OW13978   4.248   4.938   8.825 -0.3235 -0.2253 -0.1939
  640SOL    HW113979   4.223   4.941   8.921 -1.4132  1.2522 -0.5038
  640SOL    HW213980   4.179   4.885   8.774 -0.4271  0.0713 -0.3599
  641SOL     OW13981   6.247   0.550   9.002 -0.0431  0.3839  0.1138
  641SOL    HW113982   6.234   0.584   8.909 -1.8224  0.7693  0.4829
  641SOL    HW213983   6.158   0.538   9.045  0.7575 -0.2156  1.6239
  642SOL     OW13984   0.124   3.430   9.123 -0.0984  0.8823 -0.1030
  642SOL    HW113985   0.195   3.379   9.170 -0.0387  1.5845  0.5812
  642SOL    HW213986   0.044   3.372   9.109  0.3836  0.2764 -0.3237
  643SOL     OW13987   0.850   0.976   5.162  0.1018 -0.8916 -0.4507
  643SOL    HW113988   0.852   1.073   5.189  1.5880 -0.7776 -0.9232
  643SOL    HW213989   0.805   0.923   5.234  2.8810 -0.3962  1.7605
  644SOL     OW13990   4.204   4.084   9.618  0.0457 -0.0650  0.1366
  644SOL    HW113991   4.125   4.025   9.635  0.6907 -0.4558  1.9063
  644SOL    HW213992   4.177   4.180   9.625 -0.5883 -0.1741 -0.7802
  645SOL     OW13993   0.299   0.247   1.799  0.2428 -0.5625  0.5813
  645SOL    HW113994   0.271   0.159   1.836 -0.6665 -0.1736  0.8334
  645SOL    HW213995   0.305   0.315   1.872 -2.7736  0.5158 -0.0724
  646SOL     OW13996   0.839   0.775   0.697 -0.6034 -0.0703 -0.3336
  646SOL    HW113997   0.794   0.843   0.639 -1.3828 -1.3868 -1.2915
  646SOL    HW213998   0.776   0.746   0.769 -1.1044 -1.4153 -1.2751
  647SOL     OW13999   7.397   4.201   6.618  1.0776  0.4448 -0.4062
  647SOL    HW114000   7.473   4.237   6.672  1.8822  1.1372 -1.9417
  647SOL    HW214001   7.428   4.124   6.563  0.7323  0.8648 -1.2031
  648SOL     OW14002   1.875   0.447   9.273 -0.5343  0.2600  0.1951
  648SOL    HW114003   1.903   0.519   9.336  0.7526 -0.0536  0.0054
  648SOL    HW214004   1.849   0.366   9.325  3.6856 -1.1364  0.3351
  649SOL     OW14005   1.951   0.855   2.765  0.2458  0.2863  0.0634
  649SOL    HW114006   1.991   0.873   2.855 -2.0599 -1.0672  1.4320
  649SOL    HW214007   2.012   0.797   2.712  0.4049 -1.2649  1.8736
  650SOL     OW14008   5.706   2.462   3.628  0.2179  0.0052  0.4853
  650SOL    HW114009   5.654   2.531   3.677 -0.1745 -0.1937  0.3505
  650SOL    HW214010   5.645   2.411   3.567  0.9835  1.2475 -1.3277
  651SOL     OW14011   9.313   9.179   8.968  0.4935 -0.3099 -0.0751
  651SOL    HW114012   9.402   9.148   9.001  0.5062  1.5032  1.7239
  651SOL    HW214013   9.327   9.253   8.901  0.3448  1.5188  1.8645
  652SOL     OW14014   1.321   2.345   0.150 -0.2184 -0.3471  0.0526
  652SOL    HW114015   1.364   2.283   0.217  0.5880 -1.9673 -1.8950
  652SOL    HW214016   1.387   2.414   0.121 -0.6054  0.4297  0.9942
  653SOL     OW14017   3.793   5.411   9.514 -0.3378  0.5156 -0.0561
  653SOL    HW114018   3.700   5.427   9.547 -0.7508 -3.9116  1.3048
  653SOL    HW214019   3.789   5.365   9.425  0.5268 -0.1611  0.2497
  654SOL     OW14020   8.320   0.411   3.953  0.0131 -0.3731  0.3820
  654SOL    HW114021   8.266   0.328   3.966 -0.4834  0.1941  2.0554
  654SOL    HW214022   8.259   0.488   3.931  0.2588  0.0206  1.0688
  655SOL     OW14023   9.403   0.948   2.014  0.2238 -0.0705 -0.1811
  655SOL    HW114024   9.398   1.042   2.047 -0.6498  0.2129 -1.0657
  655SOL    HW214025   9.311   0.909   2.013  0.7041 -1.2640  1.0923
  656SOL     OW14026   7.102   2.081   0.355 -0.3384 -0.0508  0.3470
  656SOL    HW114027   7.144   2.076   0.446 -0.5318  1.3525  0.5322
  656SOL    HW214028   7.122   2.171   0.315  0.6427 -1.0520 -1.4380
  657SOL     OW14029   3.570   8.232   6.880  0.0632  0.4137 -0.5149
  657SOL    HW114030   3.567   8.302   6.809 -1.0652  0.8201 -0.0707
  657SOL    HW214031   3.562   8.275   6.970 -3.5236 -0.4854 -0.3461
  658SOL     OW14032   3.224   8.472   0.434  0.5817  0.3115 -0.1926
  658SOL    HW114033   3.311   8.423   0.444 -0.1101 -1.3826 -2.0431
  658SOL    HW214034   3.169   8.458   0.516  1.5305  0.3284  0.4583
  659SOL     OW14035   2.818   0.862   5.019 -0.0385  0.0135 -0.0044
  659SOL    HW114036   2.907   0.840   5.060  0.1076 -1.2642 -0.9770
  659SOL    HW214037   2.746   0.817   5.072 -0.1463  1.3465  1.0018
  660SOL     OW14038   8.367   7.338   8.747  0.2605 -0.1959 -0.2946
  660SOL    HW114039   8.401   7.382   8.830  1.0109 -1.0084 -0.1632
  660SOL    HW214040   8.429   7.264   8.720 -2.6688 -3.3832  1.3478
  661SOL     OW14041   7.810   7.877   7.933 -0.0685  0.0301  0.2410
  661SOL    HW114042   7.795   7.975   7.928  0.9762  0.1064 -3.0183
  661SOL    HW214043   7.774   7.833   7.850  1.5822 -1.9934  0.5358
  662SOL     OW14044   9.582   6.125   9.197  0.0349  0.1710 -0.3211
  662SOL    HW114045   9.502   6.136   9.256  0.2513  0.4906 -0.0929
  662SOL    HW214046   9.560   6.159   9.105 -0.4407 -0.7233 -0.5475
  663SOL     OW14047   8.568   0.505   0.195  0.0013  0.1537  0.0444
  663SOL    HW114048   8.499   0.433   0.204 -0.1609  0.0899 -1.5280
  663SOL    HW214049   8.522   0.593   0.186  0.1924  0.4229  1.5153
  664SOL     OW14050   3.193   9.657   4.291 -0.2882  0.0621  0.6184
  664SOL    HW114051   3.229   9.577   4.339 -0.3984 -0.2906  0.1221
  664SOL    HW214052   3.256   9.683   4.218  0.3404  1.1642  1.5374
  665SOL     OW14053   6.583   9.240   0.526  0.3236  0.7731 -0.1890
  665SOL    HW114054   6.526   9.186   0.588  0.2023 -0.8655 -1.6890
  665SOL    HW214055   6.672   9.257   0.568  0.2603 -0.3613  0.4023
  666SOL     OW14056   4.788   9.375   7.224 -0.1854 -0.2264  0.5155
  666SOL    HW114057   4.821   9.295   7.275 -0.9098  0.7014  2.5131
  666SOL    HW214058   4.718   9.346   7.159  1.7046 -1.6358 -0.9806
  667SOL     OW14059   4.894   8.915   5.684 -0.3222  0.3950  0.2774
  667SOL    HW114060   4.803   8.924   5.642 -0.3714  0.9258  0.4853
  667SOL    HW214061   4.964   8.918   5.613 -0.4849 -0.3822  0.0820
  668SOL     OW14062   4.829   1.947   2.321 -0.4290  0.6630  0.2928
  668SOL    HW114063   4.791   1.915   2.408 -1.3879  3.2564  0.8897
  668SOL    HW214064   4.776   1.908   2.245 -1.4914  0.7371  0.9863
  669SOL     OW14065   4.624   9.417   3.020  0.6791 -0.4714 -0.1387
  669SOL    HW114066   4.691   9.395   3.092  0.6494 -0.4269 -0.0973
  669SOL    HW214067   4.640   9.511   2.988 -0.2422  0.0441  0.8550
  670SOL     OW14068   0.704   1.574   3.746  0.2183  0.5684 -0.5710
  670SOL    HW114069   0.718   1.664   3.703  1.0320 -0.4300 -2.4300
  670SOL    HW214070   0.781   1.553   3.805 -1.2713  2.2972  2.0979
  671SOL     OW14071   8.715   0.778   1.579 -0.1592 -0.1380  0.1247
  671SOL    HW114072   8.727   0.818   1.488  0.8884 -2.9369 -1.0406
  671SOL    HW214073   8.786   0.813   1.640 -1.4601  2.5145  0.1937
  672SOL     OW14074   5.344   8.701   9.787  0.3626  0.3908  0.2655
  672SOL    HW114075   5.422   8.715   9.727  0.7294 -1.1074  0.3915
  672SOL    HW214076   5.371   8.719   9.882  0.0946  1.5561  0.1359
  673SOL     OW14077   0.399   1.227   3.651 -0.3891  0.4483 -0.1902
  673SOL    HW114078   0.347   1.312   3.647 -0.8464  0.2228  0.7684
  673SOL    HW214079   0.495   1.247   3.672 -0.9782  0.5942  2.6381
  674SOL     OW14080   8.360   0.439   6.918 -0.2544 -0.2879 -0.0566
  674SOL    HW114081   8.350   0.538   6.912  0.2475 -0.1139  1.8354
  674SOL    HW214082   8.271   0.397   6.934 -0.4630 -0.1513 -0.8362
  675SOL     OW14083   9.627   4.213   5.388  0.0401 -0.2590 -0.1276
  675SOL    HW114084   9.628   4.221   5.488  0.5889  0.2202 -0.1700
  675SOL    HW214085   9.533   4.222   5.355 -0.2564 -1.3345  0.4154
  676SOL     OW14086   6.961   1.364   3.189 -0.4144 -1.4019 -0.2581
  676SOL    HW114087   6.896   1.320   3.251  0.3765 -1.2869  0.6626
  676SOL    HW214088   6.988   1.299   3.118 -0.2072 -2.0194  0.3738
  677SOL     OW14089   0.936   2.083   8.863  0.1195  0.5148 -0.1939
  677SOL    HW114090   0.981   2.075   8.952 -1.1641 -0.6676  0.3635
  677SOL    HW214091   1.005   2.078   8.790  1.2381  2.0255  0.7284
  678SOL     OW14092   0.284   5.543   0.774  0.1560  0.0539 -0.2982
  678SOL    HW114093   0.302   5.471   0.841 -1.7489 -0.8422 -0.7181
  678SOL    HW214094   0.354   5.541   0.703  0.4843 -0.9525  0.0499
  679SOL     OW14095   1.318   4.053   3.041  0.1596 -0.0320  0.0408
  679SOL    HW114096   1.407   4.095   3.024  0.0864 -0.2645 -1.0180
  679SOL    HW214097   1.264   4.111   3.100  0.1211  1.2834 -1.2605
  680SOL     OW14098   1.884   2.797   3.281 -0.1314  0.1526 -0.5924
  680SOL    HW114099   1.798   2.777   3.234 -0.0653 -1.4482 -0.0637
  680SOL    HW214100   1.937   2.713   3.290  0.7011  0.7951  0.6572
  681SOL     OW14101   1.173   5.120   2.119 -0.2817 -0.5084 -0.5343
  681SOL    HW114102   1.220   5.086   2.038  0.8158  1.5593 -0.7932
  681SOL    HW214103   1.217   5.205   2.150 -1.4199 -0.6357  1.5212
  682SOL     OW14104   7.495   9.625   6.147  0.0148 -0.1262  0.4129
  682SOL    HW114105   7.556   9.567   6.200 -0.2655  0.7515  1.7377
  682SOL    HW214106   7.480   9.711   6.196 -2.1402 -0.2474  0.0407
  683SOL     OW14107   3.869   3.440   2.071  0.1237 -0.6197  0.2620
  683SOL    HW114108   3.879   3.341   2.084  1.8745 -0.3470  1.1013
  683SOL    HW214109   3.918   3.467   1.988  0.2719 -0.3509  0.4361
  684SOL     OW14110   8.374   2.287   1.605 -0.1201 -0.1664  0.5861
  684SOL    HW114111   8.293   2.344   1.624 -0.4379 -0.5980  0.5373
  684SOL    HW214112   8.357   2.232   1.524  0.2889 -0.1417  0.4861
  685SOL     OW14113   9.104   0.877   9.045 -0.2020  0.5755  0.0283
  685SOL    HW114114   9.031   0.837   9.101  0.6397 -1.9982 -0.6634
  685SOL    HW214115   9.191   0.867   9.093  0.3740 -0.7085 -1.2704
  686SOL     OW14116   4.002   7.957   1.945 -0.1758  0.5193 -0.2685
  686SOL    HW114117   3.941   7.968   2.024  0.8146  0.3801  0.5195
  686SOL    HW214118   4.025   7.861   1.934 -0.0770  0.5751 -0.5578
  687SOL     OW14119   0.166   3.627   3.725 -0.1245 -0.5198 -0.1204
  687SOL    HW114120   0.176   3.530   3.700 -0.1322 -0.6320  0.3172
  687SOL    HW214121   0.214   3.645   3.810 -1.4593 -0.4970  0.6347
  688SOL     OW14122   2.891   3.076   1.484  0.3634 -0.2799 -0.2317
  688SOL    HW114123   2.975   3.041   1.525 -0.7815 -2.7523  0.0451
  688SOL    HW214124   2.906   3.171   1.454  2.1334  0.6021  3.1724
  689SOL     OW14125   2.128   9.593   9.740 -0.6262 -0.5122  0.1014
  689SOL    HW114126   2.218   9.628   9.711 -0.1187 -0.2347  1.9051
  689SOL    HW214127   2.061   9.667   9.737 -0.2379 -0.1131  1.0301
  690SOL     OW14128   1.390   8.823   9.582 -0.1568  0.1931 -0.2282
  690SOL    HW114129   1.307   8.876   9.562  0.1114  0.0002 -1.9845
  690SOL    HW214130   1.461   8.883   9.618 -0.6121  0.6091 -0.0267
  691SOL     OW14131   7.763   7.662   7.249  0.2847  0.3469 -0.2867
  691SOL    HW114132   7.806   7.593   7.308 -2.7479 -0.3955  1.1420
  691SOL    HW214133   7.797   7.651   7.156  0.4340 -2.5982  0.0626
  692SOL     OW14134   2.191   2.141   5.280 -0.7594  0.0524  0.5927
  692SOL    HW114135   2.171   2.223   5.335 -1.3783  0.6442 -0.5051
  692SOL    HW214136   2.167   2.060   5.333 -0.2975  0.5808  1.6326
  693SOL     OW14137   2.659   0.130   2.013  0.0722  0.5451 -0.1749
  693SOL    HW114138   2.733   0.144   1.947  0.4199  0.0162  0.0971
  693SOL    HW214139   2.587   0.073   1.971 -0.2213  1.1353 -0.4694
  694SOL     OW14140   9.615   4.031   8.038 -0.1844 -0.0107  0.4828
  694SOL    HW114141   9.682   3.957   8.051 -0.2805  0.1126  1.7313
  694SOL    HW214142   9.531   4.008   8.085 -0.2132  0.9044  0.8774
  695SOL     OW14143   0.187   2.738   7.505  0.1177  0.4403 -0.2378
  695SOL    HW114144   0.212   2.786   7.589  1.3759  1.1981 -1.0309
  695SOL    HW214145   0.103   2.686   7.520  0.5947  0.1839  1.6262
  696SOL     OW14146   3.530   8.508   3.347 -0.0612  0.2704 -0.0671
  696SOL    HW114147   3.505   8.516   3.251 -0.5432  1.2424  0.1334
  696SOL    HW214148   3.511   8.594   3.394 -1.5315 -0.7681  1.2950
  697SOL     OW14149   8.405   3.265   2.360  0.2693  0.3540  0.5967
  697SOL    HW114150   8.375   3.253   2.265  0.8564  0.6711  0.3623
  697SOL    HW214151   8.468   3.343   2.365 -0.0897  0.6046  1.3223
  698SOL     OW14152   2.795   1.881   1.790 -0.0513  0.1924 -0.6326
  698SOL    HW114153   2.845   1.967   1.781  0.3194  0.0063 -0.3558
  698SOL    HW214154   2.857   1.809   1.819 -0.1342 -0.4206 -1.9110
  699SOL     OW14155   1.656   3.339   2.112  0.1680 -0.1409 -0.2247
  699SOL    HW114156   1.622   3.273   2.045 -1.2269 -0.1458  0.4696
  699SOL    HW214157   1.751   3.316   2.135 -0.1112 -1.5679 -0.4183
  700SOL     OW14158   2.869   0.163   7.738  0.6716 -0.4412  0.2605
  700SOL    HW114159   2.810   0.167   7.818  2.5028 -0.2708  1.6281
  700SOL    HW214160   2.916   0.075   7.735  0.9427 -0.2807 -0.3766
  701SOL     OW14161   3.196   3.241   1.479 -0.5058  0.2917 -0.2903
  701SOL    HW114162   3.186   3.190   1.394 -0.6399 -0.8839  0.4269
  701SOL    HW214163   3.283   3.291   1.478  0.1589 -0.8468 -0.5225
  702SOL     OW14164   7.088   2.223   7.649  0.5223 -0.1616  0.3970
  702SOL    HW114165   7.058   2.309   7.690  1.0156  0.0881  0.2280
  702SOL    HW214166   7.177   2.198   7.685  0.5045 -0.4620  0.2346
  703SOL     OW14167   8.589   2.782   0.041  0.0496  0.1361  0.1069
  703SOL    HW114168   8.646   2.810   0.119 -0.2602 -2.8762  1.5072
  703SOL    HW214169   8.493   2.799   0.062  0.0577  0.5601 -0.1875
  704SOL     OW14170   0.674   1.867   2.082 -0.2224  0.7112  0.3756
  704SOL    HW114171   0.659   1.907   2.172 -0.0737  0.4044  0.5343
  704SOL    HW214172   0.585   1.852   2.038 -0.3470 -0.1758  0.9183
  705SOL     OW14173   1.988   4.775   0.183 -0.1289 -0.1261 -0.2058
  705SOL    HW114174   1.998   4.772   0.084 -0.5822  1.0933 -0.2930
  705SOL    HW214175   2.043   4.849   0.220 -0.5407 -0.1113  0.3809
  706SOL     OW14176   8.434   4.017   8.249  0.1285 -1.0344  0.0868
  706SOL    HW114177   8.395   4.035   8.340 -0.3666  0.1749 -0.3436
  706SOL    HW214178   8.473   3.925   8.246  0.3813 -0.9837  1.6020
  707SOL     OW14179   9.204   0.037   2.754  0.0091 -0.1951  0.0843
  707SOL    HW114180   9.256   0.094   2.817  0.6177 -1.0262  0.3491
  707SOL    HW214181   9.106   0.047   2.770  0.1490  0.0433  0.7645
  708SOL     OW14182   5.569   8.811   2.138 -0.3278 -0.3884 -0.4064
  708SOL    HW114183   5.527   8.875   2.073  0.3362 -0.3281 -0.7799
  708SOL    HW214184   5.522   8.723   2.132  0.3008 -0.6570 -1.6268
  709SOL     OW14185   6.453   5.522   9.067  0.1221 -0.4478  0.3134
  709SOL    HW114186   6.424   5.433   9.102  1.2784 -0.6675  0.7238
  709SOL    HW214187   6.444   5.590   9.140 -1.3202 -0.0991 -0.1710
  710SOL     OW14188   0.232   2.740   1.028  0.0357 -0.5044  0.6944
  710SOL    HW114189   0.315   2.727   0.972 -0.3896  0.1894 -0.1051
  710SOL    HW214190   0.241   2.688   1.113  0.4700 -2.0448 -0.2574
  711SOL     OW14191   0.392   8.987   9.126 -0.0247  0.5364  0.6599
  711SOL    HW114192   0.301   8.955   9.153  1.1088 -0.3383  3.6393
  711SOL    HW214193   0.445   8.909   9.092  0.1600  0.7182  0.5343
  712SOL     OW14194   0.642   1.927   0.212  0.0106  0.1669 -0.2321
  712SOL    HW114195   0.664   1.984   0.133 -0.0958  0.4988 -0.0245
  712SOL    HW214196   0.608   1.985   0.286  2.4249  0.1817  0.9214
  713SOL     OW14197   8.079   2.844   8.383  0.1290 -0.0817  0.3199
  713SOL    HW114198   8.134   2.766   8.356 -0.7271 -0.0603 -1.5505
  713SOL    HW214199   8.051   2.895   8.302  0.4822  2.0409  1.5073
  714SOL     OW14200   1.604   3.245   2.611  0.0511  0.0634  0.1294
  714SOL    HW114201   1.678   3.312   2.616  0.8400 -0.5611 -2.3608
  714SOL    HW214202   1.634   3.159   2.650  0.2789  0.1338  0.1088
  715SOL     OW14203   2.033   8.792   8.749  0.6253 -0.6239  0.1297
  715SOL    HW114204   2.062   8.723   8.815 -0.5109 -2.5385 -1.3523
  715SOL    HW214205   1.933   8.802   8.752  0.6607  0.0303 -0.5675
  716SOL     OW14206   0.457   3.502   9.950  0.0566 -0.0413  0.8216
  716SOL    HW114207   0.486   3.412   9.981 -0.2042  0.2039  1.7730
  716SOL    HW214208   0.527   3.540   9.890 -0.5734 -1.5689 -0.9351
  717SOL     OW14209   7.960   7.271   8.130  0.1904  0.1727  0.4184
  717SOL    HW114210   7.899   7.310   8.199 -1.5809 -0.6807 -0.6235
  717SOL    HW214211   7.922   7.184   8.098 -0.4489  1.8041 -3.5266
  718SOL     OW14212   9.831   1.150   7.623 -0.2382 -0.0816  0.2735
  718SOL    HW114213   9.847   1.118   7.717 -0.2927  1.5939  0.8701
  718SOL    HW214214   9.837   1.250   7.620  5.3976 -0.3258 -2.5858
  719SOL     OW14215   0.986   9.016   8.876 -0.6344 -0.1538  0.1062
  719SOL    HW114216   1.024   8.943   8.933 -0.6073 -0.6779 -0.5753
  719SOL    HW214217   0.889   8.999   8.859 -0.7214  0.1751  0.2635
  720SOL     OW14218   2.971   6.723   9.066  0.0451 -0.0675  0.3234
  720SOL    HW114219   2.931   6.811   9.090 -1.8561 -0.9456  0.4347
  720SOL    HW214220   2.925   6.650   9.117  1.7786 -1.1140  0.4350
  721SOL     OW14221   9.959   0.381   6.631 -0.1429  0.2153  0.0036
  721SOL    HW114222  10.033   0.314   6.633 -1.4485 -1.2917 -0.6870
  721SOL    HW214223   9.997   0.473   6.616  1.6905 -0.3190  1.2919
  722SOL     OW14224   7.355   1.266   6.421 -0.3294  0.1277  0.6469
  722SOL    HW114225   7.348   1.295   6.325 -1.2321  0.3988  0.7850
  722SOL    HW214226   7.401   1.337   6.474 -0.2796  0.2013  0.5047
  723SOL     OW14227   2.816   8.088   0.536  0.2195  0.2000 -0.0337
  723SOL    HW114228   2.717   8.076   0.527  0.3074  0.4033 -1.3376
  723SOL    HW214229   2.854   8.010   0.586 -0.4714 -0.3520 -0.3533
  724SOL     OW14230   1.138   1.220   7.412  0.0042 -0.0689 -0.2934
  724SOL    HW114231   1.081   1.282   7.467 -0.7446  0.5532 -1.7312
  724SOL    HW214232   1.190   1.274   7.346  0.9169 -0.8019 -0.1694
  725SOL     OW14233   0.102   9.897   7.411 -0.1241 -0.6302  0.4001
  725SOL    HW114234   0.104   9.936   7.319 -2.1906  0.0327  0.6063
  725SOL    HW214235   0.158   9.814   7.413 -0.9434 -1.2794 -1.7480
  726SOL     OW14236   2.429   8.185   0.689 -0.1674  0.0990 -0.1124
  726SOL    HW114237   2.422   8.120   0.765  1.3303 -0.7958 -0.7196
  726SOL    HW214238   2.339   8.198   0.647 -0.9074  0.1801  1.4539
  727SOL     OW14239   0.281   0.202   2.641 -0.5754 -0.2295 -0.2335
  727SOL    HW114240   0.213   0.159   2.581 -1.0422 -0.3636  0.3905
  727SOL    HW214241   0.363   0.146   2.645 -0.3675 -0.0031 -1.0972
  728SOL     OW14242   7.078   0.761   0.196 -0.2300 -0.4587 -0.1580
  728SOL    HW114243   7.047   0.852   0.167 -1.4897 -0.7291  0.3023
  728SOL    HW214244   7.172   0.767   0.229 -0.8984  1.0255  1.5594
  729SOL     OW14245   1.287   1.870   5.560 -0.4962  0.7858  0.3710
  729SOL    HW114246   1.213   1.821   5.513 -1.1907  0.8084  1.4245
  729SOL    HW214247   1.374   1.847   5.517 -0.7751 -1.6528  1.0694
  730SOL     OW14248   9.674   0.941   1.321  0.6673 -0.0434 -0.0261
  730SOL    HW114249   9.582   0.965   1.354  1.8523 -0.0413  3.5532
  730SOL    HW214250   9.676   0.845   1.295 -0.3257 -0.0704 -0.0391
  731SOL     OW14251   2.527   3.964   0.274  0.1222 -0.5893  0.3184
  731SOL    HW114252   2.496   3.905   0.349  0.7744  1.1496  2.0145
  731SOL    HW214253   2.462   4.039   0.262  2.0036  1.4065  1.9113
  732SOL     OW14254   1.253   1.250   0.244  0.0614  0.3064 -0.2641
  732SOL    HW114255   1.222   1.345   0.239  1.1729  0.6645 -0.4667
  732SOL    HW214256   1.250   1.219   0.339  1.5577  1.1884  0.0929
  733SOL     OW14257   5.483   8.239   1.578 -0.0924  1.0459 -0.0261
  733SOL    HW114258   5.491   8.255   1.480 -1.1828  1.7968 -0.0037
  733SOL    HW214259   5.472   8.327   1.625 -1.2317  0.5818  0.6011
  734SOL     OW14260   1.617   8.497   9.248 -0.1784 -0.2033  0.4562
  734SOL    HW114261   1.567   8.424   9.202  1.1659  0.6274 -2.4616
  734SOL    HW214262   1.711   8.499   9.214  0.2238  1.9157  1.6131
  735SOL     OW14263   0.510   7.345   8.224 -0.4500 -1.2628 -0.2851
  735SOL    HW114264   0.525   7.249   8.202 -0.3338 -0.9727 -1.5182
  735SOL    HW214265   0.567   7.371   8.302  1.6570 -1.4875 -1.7085
  736SOL     OW14266   2.016   0.922   8.131  0.0275 -0.1995 -0.5173
  736SOL    HW114267   2.111   0.913   8.160  0.1465 -0.5214 -1.0046
  736SOL    HW214268   1.967   0.837   8.149  0.2259 -0.5801 -1.6946
  737SOL     OW14269   3.978   0.649   9.044  0.0533 -0.5996  0.3556
  737SOL    HW114270   4.025   0.592   9.111  2.1888  2.1912  1.3157
  737SOL    HW214271   3.879   0.647   9.062  0.4335 -1.1840  2.5487
  738SOL     OW14272   9.596   1.974   9.893 -0.4891 -0.0321  0.3919
  738SOL    HW114273   9.589   1.954   9.795  1.1478  0.1539  0.2244
  738SOL    HW214274   9.652   2.056   9.906 -2.1041  0.9459  1.4126
  739SOL     OW14275   3.228   7.914   4.785  0.0188 -0.1327  0.1334
  739SOL    HW114276   3.259   7.874   4.699  1.9212 -0.2979  0.8624
  739SOL    HW214277   3.274   8.002   4.799 -1.6037  0.7266  0.1521
  740SOL     OW14278   2.196   2.279   4.181  0.1059  0.2886  0.5403
  740SOL    HW114279   2.122   2.340   4.153 -1.0682 -0.8033  1.2462
  740SOL    HW214280   2.283   2.314   4.145 -0.6204  2.0524  0.4310
  741SOL     OW14281   2.120   0.791   7.225 -0.1537  0.2029  0.1216
  741SOL    HW114282   2.065   0.713   7.195  2.1427 -1.1650 -0.6881
  741SOL    HW214283   2.142   0.848   7.146  3.1060 -1.5934 -0.3653
  742SOL     OW14284   9.473   2.722   4.552  0.0930 -0.0960 -0.1282
  742SOL    HW114285   9.394   2.692   4.605  0.9609 -1.2102  0.5405
  742SOL    HW214286   9.463   2.692   4.457  0.0438 -0.8390  0.1106
  743SOL     OW14287   6.352   0.388   2.347  0.4366  0.2821  0.1374
  743SOL    HW114288   6.356   0.466   2.285 -0.0811  1.1754  1.2160
  743SOL    HW214289   6.290   0.408   2.423 -0.2803 -1.4548  0.0438
  744SOL     OW14290   1.492   1.558   6.966 -0.1698  0.5888  0.0667
  744SOL    HW114291   1.547   1.603   6.896  0.8827 -0.3534  0.2851
  744SOL    HW214292   1.507   1.603   7.054  0.1563  0.4221  0.0990
  745SOL     OW14293   3.984   8.958   7.569  0.1944  0.0945 -0.6440
  745SOL    HW114294   4.019   8.922   7.656  0.7295  2.7240  0.2594
  745SOL    HW214295   3.943   9.048   7.584  0.5830  0.7266 -3.1775
  746SOL     OW14296   1.662   0.267   3.683  0.1834 -0.0586 -0.0533
  746SOL    HW114297   1.565   0.246   3.670 -0.3076  2.0395  0.1288
  746SOL    HW214298   1.703   0.292   3.596 -0.0262  1.4541  0.2817
  747SOL     OW14299   5.827   8.772   2.061 -0.0341 -0.2615 -0.2855
  747SOL    HW114300   5.881   8.840   2.111 -0.6965 -0.2541  0.4441
  747SOL    HW214301   5.731   8.781   2.088 -0.3986 -0.2780 -1.5567
  748SOL     OW14302   1.293   1.432   8.365  0.0159 -0.1791  0.1665
  748SOL    HW114303   1.242   1.399   8.444 -1.0042  1.0867  0.0546
  748SOL    HW214304   1.382   1.388   8.363 -0.6835 -1.6778  0.9268
  749SOL     OW14305   1.699   1.336   0.248  0.9576  0.3430  0.5739
  749SOL    HW114306   1.661   1.269   0.183 -0.1218  0.1679  1.3628
  749SOL    HW214307   1.718   1.291   0.335 -2.3693  1.5590  2.0250
  750SOL     OW14308   9.461   1.693   0.263 -0.2899  0.3211  0.0892
  750SOL    HW114309   9.488   1.606   0.304 -1.4716  0.2648  0.7576
  750SOL    HW214310   9.465   1.685   0.163 -0.1713 -0.4258  0.1492
  751SOL     OW14311   7.502   0.882   1.279  0.0130  0.1498 -0.3093
  751SOL    HW114312   7.417   0.830   1.287 -1.5367  2.8320  1.3881
  751SOL    HW214313   7.569   0.846   1.344 -1.0466  0.2451  0.8595
  752SOL     OW14314   9.092   0.124   0.452 -0.2797 -0.0249 -0.8616
  752SOL    HW114315   9.181   0.079   0.455 -0.2010 -0.0067 -2.5774
  752SOL    HW214316   9.048   0.116   0.541  2.7547  2.6616  0.9628
  753SOL     OW14317   0.659   3.981   6.468 -0.1111  0.1361  0.1809
  753SOL    HW114318   0.724   3.937   6.406 -1.1415 -1.7937  0.4489
  753SOL    HW214319   0.705   4.056   6.516  1.9046 -1.1331  0.2815
  754SOL     OW14320   1.638   0.911   6.061 -0.4413 -0.0715 -0.4550
  754SOL    HW114321   1.611   1.000   6.097 -0.4082 -0.9731  1.8980
  754SOL    HW214322   1.558   0.852   6.051 -0.2192 -0.4868  0.1046
  755SOL     OW14323   0.192   4.853   4.257  0.1459  0.0431 -0.3265
  755SOL    HW114324   0.207   4.754   4.249  0.7150  0.1282 -0.3313
  755SOL    HW214325   0.158   4.874   4.348  0.3616 -0.1219 -0.2052
  756SOL     OW14326   2.016   2.584   9.017 -0.0092  0.1195  0.3174
  756SOL    HW114327   2.072   2.666   9.027  0.3082  0.0735 -0.9888
  756SOL    HW214328   2.005   2.563   8.920  0.0089 -1.4512  0.6391
  757SOL     OW14329   2.937   2.583   0.708 -0.1464 -0.5453  0.2074
  757SOL    HW114330   2.985   2.644   0.644 -0.9523  1.0457  1.0765
  757SOL    HW214331   2.845   2.618   0.724  0.7701  0.3465  3.9480
  758SOL     OW14332   6.654   9.212   9.470  0.1772  0.1901 -0.2277
  758SOL    HW114333   6.582   9.263   9.516 -1.3641 -0.5218 -1.7984
  758SOL    HW214334   6.719   9.276   9.428  0.6804  0.8339  1.5072
  759SOL     OW14335   4.389   2.906   5.643 -0.2241  0.3818  0.3785
  759SOL    HW114336   4.453   2.983   5.635  0.6700 -0.1540  2.0377
  759SOL    HW214337   4.332   2.902   5.562  0.6786  1.9432 -0.3673
  760SOL     OW14338   1.447   3.853   7.175 -0.5023 -0.0764 -0.5647
  760SOL    HW114339   1.375   3.915   7.206 -0.0886 -0.1034  0.4677
  760SOL    HW214340   1.535   3.901   7.174  0.1466 -1.1098  2.0223
  761SOL     OW14341   2.815   3.355   1.389  0.0551  0.1408 -0.0700
  761SOL    HW114342   2.742   3.313   1.335 -0.3158  2.7895 -1.7083
  761SOL    HW214343   2.833   3.447   1.355  2.6949  0.3348  1.7004
  762SOL     OW14344   8.219   2.094   0.079 -0.6686 -0.5986 -0.3400
  762SOL    HW114345   8.169   2.118   0.162 -0.7495  0.4204 -0.6770
  762SOL    HW214346   8.281   2.018   0.098  1.2301  1.3263  1.3175
  763SOL     OW14347   7.918   2.193   4.194  0.8608  0.0570 -0.0660
  763SOL    HW114348   7.954   2.236   4.277  0.2578  2.4641 -1.0083
  763SOL    HW214349   7.982   2.208   4.118 -0.1185  0.7228 -0.7797
  764SOL     OW14350   7.000   2.533   9.227  0.1287 -0.2996  0.9539
  764SOL    HW114351   7.039   2.623   9.206 -1.2010  0.0939  0.1555
  764SOL    HW214352   6.906   2.544   9.260  0.0420 -1.3872  1.0767
  765SOL     OW14353   0.451   8.009   2.039 -0.3199  0.1914 -0.0879
  765SOL    HW114354   0.509   8.062   1.977  0.2960 -0.7596 -0.3395
  765SOL    HW214355   0.372   8.064   2.065  0.2200  1.1718 -0.4719
  766SOL     OW14356   2.962   0.049   1.401  0.3306  0.3377  0.0491
  766SOL    HW114357   2.870   0.082   1.378  0.2376  0.6796  0.9111
  766SOL    HW214358   2.957  -0.045   1.432  0.2509  0.4182  0.2804
  767SOL     OW14359   0.200   1.024   8.474 -0.1953  0.3637  0.7050
  767SOL    HW114360   0.245   0.962   8.539  0.3894  0.0878  0.0490
  767SOL    HW214361   0.192   1.115   8.515  2.1269  0.7478  0.3674
  768SOL     OW14362   4.526   1.809   6.299 -0.1002 -0.7874 -0.9302
  768SOL    HW114363   4.548   1.712   6.309  1.4503 -0.1697  1.9317
  768SOL    HW214364   4.551   1.859   6.382  0.8161  2.3939 -2.9939
  769SOL     OW14365   5.483   0.631   7.480  0.4865 -0.1148  0.1016
  769SOL    HW114366   5.431   0.554   7.517 -1.1664  1.6278  1.4933
  769SOL    HW214367   5.481   0.627   7.380 -0.1819 -1.4978  0.1581
  770SOL     OW14368   0.888   9.558   8.817  0.2112 -0.1784 -0.0869
  770SOL    HW114369   0.988   9.556   8.825  0.1737 -0.6780  0.2807
  770SOL    HW214370   0.862   9.571   8.721  0.6468  2.9720  0.1674
  771SOL     OW14371   0.355   0.733   9.956 -0.1857 -0.2363  0.2045
  771SOL    HW114372   0.401   0.650   9.925 -0.4188 -0.4951  0.5532
  771SOL    HW214373   0.320   0.719  10.049  0.2401  0.4280  0.4670
  772SOL     OW14374   5.482   0.099   9.229 -0.2827  0.2613 -0.1828
  772SOL    HW114375   5.418   0.022   9.233  0.2755 -0.1328  1.3216
  772SOL    HW214376   5.557   0.076   9.166 -0.1406 -0.4070  0.2231
  773SOL     OW14377   1.197   1.039   1.301  0.1004 -0.0288 -0.2002
  773SOL    HW114378   1.194   1.139   1.305 -0.8969 -0.0579  0.1793
  773SOL    HW214379   1.168   1.009   1.211 -1.4575 -0.0145  0.2769
  774SOL     OW14380   9.220   0.089   2.472  0.2654  0.7255 -0.3042
  774SOL    HW114381   9.260   0.064   2.560 -0.8691 -1.5492 -0.4075
  774SOL    HW214382   9.292   0.090   2.402  0.6008 -0.7268  0.0138
  775SOL     OW14383   9.369   4.218   1.993 -0.2189 -0.1324 -0.3280
  775SOL    HW114384   9.355   4.241   2.089  0.1607 -1.0969 -0.0328
  775SOL    HW214385   9.467   4.209   1.974 -0.2007  1.7857 -1.2302
  776SOL     OW14386   8.246   7.651   3.967 -0.2618 -0.0880 -0.0735
  776SOL    HW114387   8.235   7.552   3.974 -1.7697 -0.0744 -2.0262
  776SOL    HW214388   8.168   7.690   3.918  1.4287  1.7764 -1.3555
  777SOL     OW14389   2.818   0.227   1.817 -0.0296  0.2836  0.7918
  777SOL    HW114390   2.766   0.159   1.767  1.6783  1.5525 -2.9661
  777SOL    HW214391   2.899   0.185   1.857  1.1848  0.0963 -1.7800
  778SOL     OW14392   2.510   8.538   4.333  0.0108 -0.5480 -0.0517
  778SOL    HW114393   2.420   8.513   4.297  0.1554  0.4529 -1.1124
  778SOL    HW214394   2.530   8.633   4.310  0.6850 -0.2976  1.5133
  779SOL     OW14395   2.099   6.611   1.921 -0.1910 -0.7177  0.0207
  779SOL    HW114396   2.149   6.524   1.927  0.1188 -0.5322  0.1452
  779SOL    HW214397   2.110   6.649   1.830 -0.7012 -1.0338 -0.1705
  780SOL     OW14398   0.674   3.392   5.712 -0.3757 -0.2344  0.5089
  780SOL    HW114399   0.581   3.360   5.732 -0.4533  0.5397  1.4012
  780SOL    HW214400   0.735   3.363   5.786 -0.2196  0.6391  0.7250
  781SOL     OW14401   8.537   8.218   9.388 -0.0003  0.2556  0.1521
  781SOL    HW114402   8.525   8.220   9.487  0.0323  1.0851  0.1445
  781SOL    HW214403   8.574   8.305   9.357 -0.3050  0.1140 -0.6302
  782SOL     OW14404   7.956   9.996   4.188  0.0906 -0.3501  0.0770
  782SOL    HW114405   8.033  10.014   4.249 -0.0690  0.8886 -0.0691
  782SOL    HW214406   7.982   9.927   4.120  0.4088 -1.4059  1.2611
  783SOL     OW14407   2.178   9.090   4.131  0.2221 -0.5219  0.5720
  783SOL    HW114408   2.163   9.036   4.049  1.3879 -1.1313  0.7364
  783SOL    HW214409   2.091   9.110   4.175 -0.3102 -1.2431 -0.1429
  784SOL     OW14410   9.569   6.719   2.010  0.5846  0.3076  0.1473
  784SOL    HW114411   9.578   6.700   2.108 -0.1941 -0.7123  0.0233
  784SOL    HW214412   9.657   6.702   1.965  0.1871 -2.1647  0.1963
  785SOL     OW14413   0.293   7.593   7.263 -0.5052 -0.0998 -0.5274
  785SOL    HW114414   0.251   7.549   7.342 -1.0219  0.2720 -0.5939
  785SOL    HW214415   0.286   7.693   7.272  1.9806  0.0471  0.3556
  786SOL     OW14416   8.446   3.002   0.695  0.0639  0.4120 -0.1654
  786SOL    HW114417   8.375   3.017   0.763 -0.5836 -0.8589 -0.5515
  786SOL    HW214418   8.425   3.054   0.612 -0.7781 -0.4883 -0.5259
  787SOL     OW14419   1.467   9.771   3.284  0.1921 -0.2656  0.2763
  787SOL    HW114420   1.434   9.816   3.367 -0.7268 -1.0650  0.3536
  787SOL    HW214421   1.456   9.832   3.206  0.0614  0.0881  0.5693
  788SOL     OW14422   4.955   9.213   6.940  0.1740  0.0372 -0.6698
  788SOL    HW114423   4.928   9.300   6.900  0.3172  1.6594  2.6007
  788SOL    HW214424   4.878   9.174   6.990  0.6385 -0.8648 -0.6525
  789SOL     OW14425   9.117   7.081   9.467 -0.1455  0.3532  0.3747
  789SOL    HW114426   9.061   7.163   9.480  0.6374  1.0002 -0.2951
  789SOL    HW214427   9.109   7.051   9.373  0.5532  0.3869  0.3049
  790SOL     OW14428   0.664   0.961   5.555 -0.5779 -0.5421  0.1436
  790SOL    HW114429   0.682   1.033   5.622 -0.7333 -0.2814 -0.0940
  790SOL    HW214430   0.568   0.964   5.529 -0.7628 -1.3530  0.7356
  791SOL     OW14431   7.482   4.215   2.564 -0.2426  0.2464  0.4296
  791SOL    HW114432   7.423   4.259   2.632  1.2021 -0.3443  2.1299
  791SOL    HW214433   7.451   4.120   2.551 -0.6824  0.4385  0.0707
  792SOL     OW14434   0.599   0.556   9.337 -0.0006 -0.2913  0.7587
  792SOL    HW114435   0.519   0.518   9.292 -0.1979 -0.9890  1.6926
  792SOL    HW214436   0.682   0.513   9.301 -0.0428  0.4181 -0.1929
  793SOL     OW14437   0.274   2.587   1.255 -0.4566 -0.1776 -0.4850
  793SOL    HW114438   0.298   2.625   1.344 -0.9378  0.5003 -0.6355
  793SOL    HW214439   0.297   2.490   1.252  2.3198  0.4393 -0.6410
  794SOL     OW14440   8.755   4.091   1.033 -0.3457  0.4247  0.2983
  794SOL    HW114441   8.716   4.010   0.988 -2.3948  1.2590  0.4847
  794SOL    HW214442   8.709   4.105   1.121 -0.7646  2.3972 -0.2178
  795SOL     OW14443   9.410   1.576   3.410 -0.2251 -0.5109  0.3865
  795SOL    HW114444   9.485   1.524   3.369 -1.4431 -0.0639 -2.5958
  795SOL    HW214445   9.395   1.660   3.357 -1.0860  0.7424  2.5488
  796SOL     OW14446   8.326   0.232   0.478 -0.1801 -0.4102 -0.2742
  796SOL    HW114447   8.284   0.307   0.530 -1.0617 -1.6097  0.7612
  796SOL    HW214448   8.284   0.145   0.504  2.9687 -1.6769  0.8209
  797SOL     OW14449   1.426   3.150   7.029  0.4924  0.1887  0.1857
  797SOL    HW114450   1.399   3.160   6.934 -0.5905 -0.4693  0.4075
  797SOL    HW214451   1.520   3.180   7.041  0.2148  1.4915 -0.8363
  798SOL     OW14452   8.715   7.595   3.079 -0.2375 -0.0129  0.3720
  798SOL    HW114453   8.658   7.619   3.158 -0.5184 -2.3435  0.9030
  798SOL    HW214454   8.664   7.613   2.995 -0.3976  1.3247  0.7422
  799SOL     OW14455   1.171   9.269   4.057  0.0699  0.6059  0.0103
  799SOL    HW114456   1.120   9.190   4.091  1.7650 -0.6559 -0.3403
  799SOL    HW214457   1.150   9.282   3.960  0.8832 -0.3028 -0.2963
  800SOL     OW14458   1.887   2.648   8.304 -0.0390  0.0012  0.1646
  800SOL    HW114459   1.928   2.720   8.247 -0.2338  0.2506  0.3364
  800SOL    HW214460   1.805   2.614   8.260  0.0947 -0.1697  0.0455
  801SOL     OW14461   1.512   9.318   0.417  0.1185  0.1280 -0.0901
  801SOL    HW114462   1.537   9.223   0.396 -1.8705 -0.9057  1.9258
  801SOL    HW214463   1.585   9.379   0.388  2.2090 -2.1770  0.1607
  802SOL     OW14464   1.338   4.095   2.671 -0.5005 -0.0842  0.2912
  802SOL    HW114465   1.371   4.135   2.586 -0.5853  1.7034  1.0935
  802SOL    HW214466   1.318   3.998   2.655 -1.0608  0.3443 -1.8714
  803SOL     OW14467   9.978   0.328   3.964  0.2269  0.0190  0.3493
  803SOL    HW114468   9.962   0.370   4.053  1.2283 -2.4137  1.7305
  803SOL    HW214469  10.075   0.304   3.956  0.0152 -0.4097 -1.1205
  804SOL     OW14470   9.666   7.460   3.927 -0.2979 -0.2563 -0.5490
  804SOL    HW114471   9.704   7.379   3.972  0.5122  0.1587 -0.4777
  804SOL    HW214472   9.617   7.515   3.995  0.1613 -0.0860 -0.3535
  805SOL     OW14473   9.551   7.753   2.972  0.0660  0.0416  0.4683
  805SOL    HW114474   9.590   7.661   2.984  1.4003  0.4275 -0.8104
  805SOL    HW214475   9.517   7.762   2.879  0.7055  1.1276  0.3391
  806SOL     OW14476   0.068   3.454   0.080  0.1323 -0.0616 -0.0296
  806SOL    HW114477   0.144   3.406   0.125 -0.4079 -0.4302  0.4952
  806SOL    HW214478  -0.004   3.389   0.056  0.1828  0.2159 -0.9613
  807SOL     OW14479   2.390   1.428   9.282 -0.2862  0.2999 -0.4554
  807SOL    HW114480   2.358   1.362   9.350  0.2265 -0.8719 -1.3315
  807SOL    HW214481   2.400   1.518   9.324 -0.4861 -0.3019  0.8851
  808SOL     OW14482   7.924   2.069   2.385 -0.6096 -0.0113  0.2662
  808SOL    HW114483   8.019   2.052   2.412 -0.1841  0.7963 -0.6874
  808SOL    HW214484   7.894   1.996   2.323 -0.7483 -0.4830  0.8838
  809SOL     OW14485   1.369   1.249   4.975 -0.3744 -0.2388  0.0882
  809SOL    HW114486   1.463   1.282   4.971 -0.6511  0.4184 -1.6464
  809SOL    HW214487   1.315   1.309   5.034 -0.5309  1.6496 -1.8871
  810SOL     OW14488   8.731   1.444   1.352 -0.2163 -0.5587 -0.2044
  810SOL    HW114489   8.632   1.446   1.367  0.1447 -0.3176  2.2680
  810SOL    HW214490   8.761   1.534   1.321 -0.5355 -0.1258  0.7118
  811SOL     OW14491   9.349   0.739   0.329 -0.2185  0.0682 -0.7309
  811SOL    HW114492   9.375   0.790   0.411 -0.5905 -1.0029  0.0699
  811SOL    HW214493   9.387   0.646   0.334 -2.8063 -0.9854 -0.3213
  812SOL     OW14494   9.191   3.160   1.027  0.3954  0.5909  0.3894
  812SOL    HW114495   9.140   3.144   0.943  1.2565  0.2432 -0.0743
  812SOL    HW214496   9.128   3.190   1.099 -0.3253  1.0325 -0.4094
  813SOL     OW14497   0.524   5.991   2.138 -0.0215  0.1101 -0.4953
  813SOL    HW114498   0.600   6.020   2.195  0.4213  1.2296 -1.6316
  813SOL    HW214499   0.442   5.982   2.195  0.7089 -0.1082  0.5453
  814SOL     OW14500   2.812   7.241   2.691 -0.6330 -0.3450  0.1307
  814SOL    HW114501   2.822   7.280   2.599 -0.0233 -1.2933 -0.2167
  814SOL    HW214502   2.901   7.213   2.725 -0.9805 -0.8338  0.6476
  815SOL     OW14503   8.048   1.354   4.242  0.7472  0.0589  0.3785
  815SOL    HW114504   8.110   1.350   4.164 -0.0116  0.7513 -0.2597
  815SOL    HW214505   7.969   1.411   4.220 -0.3798 -1.2340  1.0054
  816SOL     OW14506   2.300   2.453   2.360 -0.1328 -0.2594  0.0431
  816SOL    HW114507   2.250   2.511   2.424  0.3300  1.2011 -0.8954
  816SOL    HW214508   2.321   2.505   2.277  0.7728 -1.6068 -0.5929
  817SOL     OW14509   5.575   4.987   4.353 -0.4827  0.7736  0.3054
  817SOL    HW114510   5.610   4.987   4.447  0.4617  0.4501 -0.0363
  817SOL    HW214511   5.628   5.052   4.298  0.3702 -0.5740 -0.5002
  818SOL     OW14512   0.145   3.353   3.605  0.1336 -0.1602  0.2239
  818SOL    HW114513   0.207   3.281   3.572 -1.1174 -1.9355  1.6527
  818SOL    HW214514   0.082   3.378   3.532  0.0924 -1.0723 -0.0644
  819SOL     OW14515   3.409   9.061   3.799 -0.6561 -0.2137  0.7289
  819SOL    HW114516   3.427   9.135   3.863 -0.8249 -0.6790  1.3230
  819SOL    HW214517   3.459   8.979   3.828 -0.0220 -0.1673 -0.2366
  820SOL     OW14518   9.949   8.512   8.929 -0.0140  0.2974  0.5040
  820SOL    HW114519  10.026   8.459   8.966  0.0223 -0.8425 -1.1700
  820SOL    HW214520   9.939   8.597   8.981  3.3651  1.2153 -0.2082
  821SOL     OW14521   8.544   1.394   3.722  0.1391  0.5013  0.0208
  821SOL    HW114522   8.461   1.443   3.694 -1.1216 -0.4182  1.9972
  821SOL    HW214523   8.528   1.295   3.713  2.2763  0.3875 -2.9188
  822SOL     OW14524   0.374   0.202   4.657  0.1109  0.7284  0.1472
  822SOL    HW114525   0.366   0.138   4.581 -0.9588  1.7921 -0.6497
  822SOL    HW214526   0.302   0.183   4.724  1.6091 -0.7971  1.3589
  823SOL     OW14527   2.460   1.662   5.355  0.4655  0.1705 -0.5076
  823SOL    HW114528   2.426   1.713   5.276 -1.1565 -0.1969 -0.0601
  823SOL    HW214529   2.460   1.721   5.436  1.2922  0.2889 -0.5907
  824SOL     OW14530   0.148   9.120   0.585 -0.1520  0.2542 -0.2375
  824SOL    HW114531   0.052   9.103   0.609 -0.4406  0.8650 -0.9434
  824SOL    HW214532   0.192   9.033   0.563 -0.4519 -0.0687  0.4199
  825SOL     OW14533   2.966   9.244   5.445  0.5482  0.2667  0.0252
  825SOL    HW114534   2.994   9.149   5.459  0.5543  0.3179  0.3656
  825SOL    HW214535   2.867   9.252   5.461  0.6122  0.3893  0.3566
  826SOL     OW14536   9.386   9.889   2.626  0.0434  0.0020 -0.1710
  826SOL    HW114537   9.337   9.824   2.569 -0.6351 -0.3127  0.7588
  826SOL    HW214538   9.323   9.932   2.691  0.5851  1.1716 -0.3946
  827SOL     OW14539   7.785   0.730   2.273 -0.0320  0.0673 -0.9808
  827SOL    HW114540   7.694   0.695   2.251  1.0942 -3.0097 -0.8703
  827SOL    HW214541   7.846   0.716   2.196  0.8302  0.4079 -0.3658
  828SOL     OW14542   7.170   2.010   1.223 -0.2833  0.3948 -0.4866
  828SOL    HW114543   7.180   1.938   1.155 -0.1794 -0.1561  0.1121
  828SOL    HW214544   7.074   2.015   1.253 -0.1816  0.1287 -0.1148
  829SOL     OW14545   0.399   8.720   0.896  0.0645 -0.2732 -0.0921
  829SOL    HW114546   0.476   8.702   0.835 -1.2419 -2.3212 -1.2098
  829SOL    HW214547   0.315   8.686   0.854 -1.1742  0.2115  1.9306
  830SOL     OW14548   9.591   1.429   5.898  0.0788 -0.4130  0.3295
  830SOL    HW114549   9.682   1.460   5.927 -0.4711  1.5968 -0.0788
  830SOL    HW214550   9.525   1.503   5.910 -0.6591 -0.3249 -3.6529
  831SOL     OW14551   3.171   0.161   1.569 -0.3519 -0.4165  0.0492
  831SOL    HW114552   3.092   0.136   1.514  0.0462 -0.0152 -0.7180
  831SOL    HW214553   3.232   0.220   1.516  0.6593 -1.0445  0.4826
  832SOL     OW14554   9.996   0.122   1.720 -0.3549  0.3717 -0.3072
  832SOL    HW114555   9.962   0.081   1.635  0.3412 -0.4836 -0.1771
  832SOL    HW214556  10.081   0.077   1.748 -0.4597  0.7897  0.7294
  833SOL     OW14557   5.355   3.262   8.720 -0.1445  0.2841  0.0625
  833SOL    HW114558   5.328   3.305   8.806  0.5592  0.8882 -0.0185
  833SOL    HW214559   5.416   3.185   8.740 -0.9578 -0.3433  0.1710
  834SOL     OW14560   9.637   0.221   3.488 -0.1416 -0.2394 -1.1487
  834SOL    HW114561   9.634   0.318   3.464 -0.6178  0.5636  1.8651
  834SOL    HW214562   9.624   0.211   3.587 -2.8788 -3.5282 -1.7187
  835SOL     OW14563   6.148   3.510   1.506  0.1060  0.2491 -0.5925
  835SOL    HW114564   6.154   3.558   1.594  1.3897 -0.9576 -0.0118
  835SOL    HW214565   6.063   3.457   1.503  0.1532  0.1332  0.0030
  836SOL     OW14566   3.390   4.239   0.854 -0.1138 -0.7894  0.3359
  836SOL    HW114567   3.306   4.277   0.894  0.9463 -0.2832  2.1426
  836SOL    HW214568   3.378   4.229   0.756 -1.8804  0.4208  0.3973
  837SOL     OW14569   9.118   0.543   3.995  0.6822 -0.3787  0.0441
  837SOL    HW114570   9.113   0.617   4.063 -0.4047  0.5099 -0.9807
  837SOL    HW214571   9.147   0.581   3.907 -0.0106 -1.1552 -0.5257
  838SOL     OW14572   9.541   8.488   4.918  0.0899  0.1558  0.3972
  838SOL    HW114573   9.457   8.455   4.876 -0.6608  2.4549  0.0070
  838SOL    HW214574   9.591   8.546   4.853  1.5742 -0.5186  0.8999
  839SOL     OW14575   4.160   5.074   4.857  0.0716 -0.0217  0.1673
  839SOL    HW114576   4.258   5.089   4.842  0.2736  0.2171  1.6375
  839SOL    HW214577   4.125   5.013   4.786  1.1901  0.2206 -0.6185
  840SOL     OW14578   0.660   9.489   3.185  0.8204  0.1426 -0.6469
  840SOL    HW114579   0.685   9.431   3.262 -1.8252  2.6213  2.2024
  840SOL    HW214580   0.708   9.577   3.192 -0.1979  0.7655 -1.2734
  841SOL     OW14581   2.873   7.983   2.428 -0.1288 -0.2372  0.0150
  841SOL    HW114582   2.816   8.063   2.449  0.4417  0.3372 -0.6146
  841SOL    HW214583   2.918   7.996   2.340 -2.0817 -2.3903 -1.3518
  842SOL     OW14584   1.958   8.941   0.286  0.3370 -0.1464 -0.0307
  842SOL    HW114585   2.017   8.939   0.205  1.6686 -0.6825  0.9369
  842SOL    HW214586   1.884   8.874   0.275  1.3823 -1.2895 -0.1584
  843SOL     OW14587   2.253   1.195   1.947  0.7013 -0.2492  0.0382
  843SOL    HW114588   2.199   1.148   2.017  1.6456 -1.6204 -0.1452
  843SOL    HW214589   2.239   1.150   1.858  2.4786 -0.8978  0.0700
  844SOL     OW14590   1.665   0.692   9.525  0.0163 -0.0306 -0.1764
  844SOL    HW114591   1.630   0.669   9.615  0.8789  0.6114  0.3333
  844SOL    HW214592   1.647   0.788   9.505  0.4747  0.0141 -0.3853
  845SOL     OW14593   9.251   4.961   4.342 -0.0552 -0.7464 -0.5605
  845SOL    HW114594   9.269   4.999   4.433 -1.5215 -0.9939 -0.1550
  845SOL    HW214595   9.158   4.985   4.314  0.2667 -0.9735 -1.8522
  846SOL     OW14596   3.456   8.954   0.943 -0.0558  0.4781  0.7770
  846SOL    HW114597   3.502   8.903   0.870 -0.7293  0.5518  0.2975
  846SOL    HW214598   3.453   8.897   1.025 -0.6467 -0.1998  0.2996
  847SOL     OW14599   1.000   6.356   8.635  0.6782  0.0825  0.0299
  847SOL    HW114600   0.995   6.438   8.692  2.2270 -1.1029  1.9101
  847SOL    HW214601   0.984   6.275   8.691  2.2347 -1.1115 -1.1945
  848SOL     OW14602   2.865   0.155   8.339  0.2732  0.3640 -0.0665
  848SOL    HW114603   2.909   0.170   8.427 -0.8026 -1.0486  0.7356
  848SOL    HW214604   2.833   0.243   8.303 -0.6289  0.7855  1.6850
  849SOL     OW14605   9.777   6.661   4.490 -0.4691 -0.3645  0.1494
  849SOL    HW114606   9.795   6.662   4.392 -0.8446  0.5111  0.0874
  849SOL    HW214607   9.706   6.728   4.512 -1.2836 -1.4494  0.8486
  850SOL     OW14608   8.819   7.545   3.647  0.3686 -0.3505 -0.1696
  850SOL    HW114609   8.736   7.559   3.701  0.5002  0.7664 -0.2465
  850SOL    HW214610   8.878   7.479   3.694 -0.3384 -0.7741  0.1341
  851SOL     OW14611   1.402   4.680   0.494 -0.0355 -0.6245 -0.5878
  851SOL    HW114612   1.354   4.694   0.581 -0.1974  0.9389 -0.9134
  851SOL    HW214613   1.475   4.747   0.485 -1.5603  0.7993 -2.7213
  852SOL     OW14614   2.118   9.474   0.672  0.1085 -0.0051 -0.1261
  852SOL    HW114615   2.154   9.381   0.663  0.8903  0.2415  0.4015
  852SOL    HW214616   2.174   9.525   0.737  0.1839  1.1074 -1.0564
  853SOL     OW14617   8.990   0.485   0.308  0.0641  0.5344 -0.2748
  853SOL    HW114618   8.995   0.544   0.228 -3.8223  1.2648 -0.0671
  853SOL    HW214619   8.968   0.392   0.280 -1.3667  0.8042 -0.1188
  854SOL     OW14620   7.403   6.776   5.264 -0.2641  0.3135  0.0425
  854SOL    HW114621   7.451   6.695   5.232 -2.7850 -1.9365  1.6846
  854SOL    HW214622   7.461   6.827   5.328  0.2504 -1.8782  1.3580
  855SOL     OW14623   9.330   9.801   2.284 -0.3149  0.3059  0.0848
  855SOL    HW114624   9.361   9.895   2.268  0.0437  0.4170  1.3737
  855SOL    HW214625   9.358   9.743   2.208  0.5649  0.9814 -0.1151
  856SOL     OW14626   8.541   8.856   9.984 -0.4179 -0.1508  0.0851
  856SOL    HW114627   8.525   8.760  10.008  0.4082 -0.4562 -0.5813
  856SOL    HW214628   8.560   8.908  10.067 -1.4711 -0.4425  0.5197
  857SOL     OW14629   2.348   3.680   7.915 -0.4088  0.2539 -0.4743
  857SOL    HW114630   2.374   3.757   7.856  0.4121  0.8042  0.5863
  857SOL    HW214631   2.409   3.603   7.899 -0.6298  0.1548 -0.8474
  858SOL     OW14632   8.418   6.747   6.439 -0.0492 -0.1361  0.2438
  858SOL    HW114633   8.455   6.816   6.501  1.0690 -2.4431  2.2463
  858SOL    HW214634   8.456   6.760   6.348 -0.7561  2.5733  0.3106
  859SOL     OW14635   7.862   3.244   2.054 -0.2017 -0.0205  0.1565
  859SOL    HW114636   7.945   3.284   2.092 -0.8097 -0.5526  2.0774
  859SOL    HW214637   7.801   3.316   2.022 -0.5413  0.5170  2.0022
  860SOL     OW14638   9.789   9.486   3.144 -0.3737 -0.0929  0.5889
  860SOL    HW114639   9.832   9.514   3.230 -0.4327 -2.8520  1.5548
  860SOL    HW214640   9.853   9.504   3.068  0.5331  0.3649  1.4435
  861SOL     OW14641   4.914   8.171   9.015 -0.2290 -0.3679  0.4090
  861SOL    HW114642   4.838   8.225   8.977  0.2194  0.2271  0.3476
  861SOL    HW214643   4.983   8.233   9.051 -0.5359 -0.9084  1.9882
  862SOL     OW14644   0.484   0.948   2.952 -0.0710  0.2530  0.4445
  862SOL    HW114645   0.505   0.982   3.044 -1.6779  0.2130  0.8504
  862SOL    HW214646   0.419   0.872   2.960  0.1446 -0.0514 -0.7013
  863SOL     OW14647   8.818   2.811   2.739 -0.2427 -0.0555  0.7036
  863SOL    HW114648   8.773   2.752   2.806 -1.6435 -1.7287 -1.6283
  863SOL    HW214649   8.901   2.766   2.705 -1.0984 -0.5487 -0.7866
  864SOL     OW14650   8.848   4.030   7.756  0.1699 -0.2212 -0.2403
  864SOL    HW114651   8.836   3.932   7.747 -1.9995 -0.3070  2.8335
  864SOL    HW214652   8.782   4.078   7.698 -0.8357 -0.5969  0.5955
  865SOL     OW14653   1.998   1.559   2.563  0.1810  0.6281  0.1154
  865SOL    HW114654   2.077   1.605   2.522 -0.0112 -0.0482 -1.0385
  865SOL    HW214655   1.914   1.603   2.530 -0.0188 -0.8794 -1.4063
  866SOL     OW14656   5.766   5.453   2.325 -0.6350 -0.9618 -0.5586
  866SOL    HW114657   5.810   5.413   2.245  0.6705 -2.0850  0.7027
  866SOL    HW214658   5.817   5.533   2.355  1.7720 -3.3816  2.0707
  867SOL     OW14659   0.492   9.211   3.264 -0.2544  0.5925 -0.0755
  867SOL    HW114660   0.422   9.278   3.290 -0.0325  0.5011  0.7767
  867SOL    HW214661   0.542   9.182   3.345 -0.2854 -0.5417 -0.4566
  868SOL     OW14662   3.329   1.426   1.722 -0.2774 -0.4329 -0.9945
  868SOL    HW114663   3.381   1.510   1.728 -0.5494 -0.2673 -0.9521
  868SOL    HW214664   3.247   1.433   1.779 -0.3923 -0.6563 -1.1307
  869SOL     OW14665   3.888   1.150   9.980  0.0801  0.1571  0.8549
  869SOL    HW114666   3.866   1.200   9.897  1.5916  0.2554  0.5089
  869SOL    HW214667   3.884   1.051   9.961 -1.1969  0.1453  1.1045
  870SOL     OW14668   6.968   3.479   8.294 -0.2042  0.3137 -0.0873
  870SOL    HW114669   7.036   3.437   8.234  0.0046 -0.4370  0.6654
  870SOL    HW214670   7.004   3.483   8.387 -0.2608  2.0948 -0.1284
  871SOL     OW14671   0.981   9.155   6.602 -0.5251  0.2307 -0.2776
  871SOL    HW114672   0.888   9.188   6.613 -0.0141  0.5689  3.4880
  871SOL    HW214673   0.987   9.060   6.633  0.4882  0.3760 -0.0106
  872SOL     OW14674   8.486   4.174   3.812 -0.6472  0.3562  0.6980
  872SOL    HW114675   8.462   4.263   3.776 -1.7179 -0.0806  0.3125
  872SOL    HW214676   8.538   4.122   3.744 -2.7005 -0.4829 -0.2563
  873SOL     OW14677   9.525   1.824   4.689 -0.2079  0.1160 -0.2962
  873SOL    HW114678   9.588   1.855   4.618 -0.9174  1.2438 -0.4451
  873SOL    HW214679   9.431   1.842   4.661 -0.5425 -0.3777  0.4844
  874SOL     OW14680   3.799   1.515   7.639  0.6227 -0.4051 -0.1277
  874SOL    HW114681   3.752   1.428   7.622  1.0844 -0.3403 -1.8807
  874SOL    HW214682   3.893   1.509   7.604  0.7397  0.6983 -0.0075
  875SOL     OW14683   4.641   4.884   6.180  0.4857  0.3237 -0.0188
  875SOL    HW114684   4.699   4.946   6.233 -1.3875  0.2648  2.1816
  875SOL    HW214685   4.546   4.893   6.210 -0.2359 -1.6036 -1.6046
  876SOL     OW14686   0.425   0.261   9.560 -0.0159  0.6203 -0.7324
  876SOL    HW114687   0.383   0.211   9.636  0.5203  0.9532 -0.2135
  876SOL    HW214688   0.490   0.202   9.513 -0.4981  0.3488 -1.0589
  877SOL     OW14689   9.865   3.109   0.707  0.2963  0.2718  0.7383
  877SOL    HW114690   9.889   3.195   0.661 -0.5261  0.4749  0.6825
  877SOL    HW214691   9.799   3.128   0.780  0.0242 -0.3273  0.6486
  878SOL     OW14692   1.992   2.981   3.517  0.5448  0.3583  0.2281
  878SOL    HW114693   2.056   3.059   3.512  2.1969 -0.9619  0.2385
  878SOL    HW214694   1.978   2.944   3.425 -1.3705  1.5258  0.0203
  879SOL     OW14695   3.943   5.407   2.766 -0.0279 -0.2342 -0.0909
  879SOL    HW114696   3.892   5.373   2.845 -0.9964  3.5844  1.0694
  879SOL    HW214697   4.038   5.377   2.771 -0.6253 -1.9736  1.2700
  880SOL     OW14698   5.457   1.756   0.518  0.0330 -0.4511 -0.5276
  880SOL    HW114699   5.494   1.754   0.425  0.9359 -0.6004 -0.1716
  880SOL    HW214700   5.357   1.749   0.514  0.2196 -3.3607 -1.3719
  881SOL     OW14701   1.381   0.929   4.108  0.6483  0.6411  0.3333
  881SOL    HW114702   1.334   0.865   4.168  0.9302 -0.3788 -0.5121
  881SOL    HW214703   1.385   0.891   4.015  2.4148  1.0617  0.2165
  882SOL     OW14704   7.070   9.232   3.040 -0.0655 -0.3700 -0.4031
  882SOL    HW114705   7.165   9.241   3.071 -0.0407 -1.8993  0.0359
  882SOL    HW214706   7.011   9.291   3.096  0.3557 -0.9994  0.7120
  883SOL     OW14707   0.495   9.512   9.062 -0.3028  0.1414  0.1047
  883SOL    HW114708   0.407   9.465   9.064 -0.1556 -0.1292  0.1511
  883SOL    HW214709   0.564   9.452   9.021  0.3074 -0.3895  1.8868
  884SOL     OW14710   9.100   3.772   2.819  0.3141 -0.6206  0.4629
  884SOL    HW114711   9.149   3.806   2.739 -0.2331 -1.2916 -0.1720
  884SOL    HW214712   9.163   3.723   2.879  0.4963 -1.1263 -0.1406
  885SOL     OW14713   8.686   3.196   0.893 -0.3488  0.1032  0.1703
  885SOL    HW114714   8.762   3.261   0.888  0.4135 -0.4545  3.3212
  885SOL    HW214715   8.647   3.183   0.802  2.5558  1.3056 -1.3072
  886SOL     OW14716   9.138   7.908   3.339 -0.0512 -0.3682 -0.2116
  886SOL    HW114717   9.059   7.966   3.360 -0.6631 -1.8513  1.8328
  886SOL    HW214718   9.222   7.957   3.361 -0.5102  0.2488  0.2035
  887SOL     OW14719   8.769   6.447   9.831  0.7079  0.3339  0.0869
  887SOL    HW114720   8.790   6.424   9.926  2.6815  2.7447  0.2872
  887SOL    HW214721   8.821   6.388   9.770 -1.0274 -1.6363  0.4501
  888SOL     OW14722   3.815   1.679   2.228  0.3912 -0.3682  0.4062
  888SOL    HW114723   3.767   1.594   2.206 -0.4865 -0.3479  2.1540
  888SOL    HW214724   3.805   1.744   2.153 -0.7317 -1.0294 -0.0309
  889SOL     OW14725   1.363   7.396   1.299  0.2003 -0.1335 -0.2519
  889SOL    HW114726   1.422   7.426   1.224  0.2514  1.5847  0.4641
  889SOL    HW214727   1.267   7.407   1.272  0.2001 -1.5638 -0.8702
  890SOL     OW14728   0.386   2.425   2.767  0.4295 -0.1449 -0.4089
  890SOL    HW114729   0.397   2.438   2.865  0.8386 -1.9843 -0.2002
  890SOL    HW214730   0.338   2.504   2.728 -0.1972  0.3611  1.3506
  891SOL     OW14731   9.482   9.085   9.847 -0.4007  0.3704 -0.2674
  891SOL    HW114732   9.517   9.172   9.811  0.1488  0.2162 -0.1243
  891SOL    HW214733   9.557   9.018   9.850 -0.4579  0.3450  1.0360
  892SOL     OW14734   8.774   4.978   6.016  0.0834 -0.5588 -0.8567
  892SOL    HW114735   8.746   5.002   5.922 -0.5735 -0.1699 -0.5657
  892SOL    HW214736   8.694   4.980   6.075  0.5108 -0.7604 -0.2740
  893SOL     OW14737   9.524   5.050   8.473  0.1724 -0.2418 -0.3773
  893SOL    HW114738   9.572   5.030   8.558 -1.4520  0.9730  0.8521
  893SOL    HW214739   9.477   4.967   8.441 -0.2956 -0.3693  0.6217
  894SOL     OW14740   0.605   4.822   4.124 -0.2441 -0.2911  0.0185
  894SOL    HW114741   0.533   4.891   4.131 -1.7119 -1.7274 -0.5272
  894SOL    HW214742   0.607   4.785   4.031  0.2988 -1.2237  0.3914
  895SOL     OW14743   9.566   9.989   8.095 -0.1397  0.1831  0.0341
  895SOL    HW114744   9.639   9.978   8.027 -1.3273 -0.5769 -1.1353
  895SOL    HW214745   9.478   9.967   8.054 -0.9198 -0.0046  1.7467
  896SOL     OW14746   7.602   0.172   3.534 -0.1459  0.2688  0.2209
  896SOL    HW114747   7.584   0.217   3.446  0.2646  0.3416  0.1709
  896SOL    HW214748   7.689   0.205   3.570  1.2636 -2.1134 -0.8729
  897SOL     OW14749   0.753   4.933   0.615  0.2069 -0.1895 -0.1354
  897SOL    HW114750   0.698   4.882   0.549  0.0203  1.0461 -0.9470
  897SOL    HW214751   0.719   4.915   0.707  0.4209 -1.8697 -0.3641
  898SOL     OW14752   0.953   4.478   4.205 -0.4791  0.3859  0.4187
  898SOL    HW114753   1.012   4.541   4.254  2.1988 -0.9672 -0.9432
  898SOL    HW214754   0.919   4.408   4.268  0.5692  0.3511  0.9636
  899SOL     OW14755   0.409   7.415   1.535 -0.2201 -0.1402 -0.8085
  899SOL    HW114756   0.310   7.427   1.527 -0.6623 -1.2344  2.2562
  899SOL    HW214757   0.450   7.500   1.569 -0.2508 -0.0367 -1.0292
  900SOL     OW14758   0.246   0.474   0.379 -0.0370  0.0665 -0.2795
  900SOL    HW114759   0.220   0.435   0.468 -0.3885  0.8009 -0.0616
  900SOL    HW214760   0.328   0.427   0.346  0.0793 -0.2367  0.4177
  901SOL     OW14761   4.292   5.448   2.521 -0.3471 -0.6926  0.6541
  901SOL    HW114762   4.297   5.465   2.423  0.1013  0.8895  0.9498
  901SOL    HW214763   4.209   5.489   2.559  0.1462 -0.1641  1.1673
  902SOL     OW14764   3.574   8.714   2.881  0.2860 -0.3073 -0.0744
  902SOL    HW114765   3.547   8.673   2.794  3.3364 -1.9607 -0.3286
  902SOL    HW214766   3.556   8.650   2.956 -0.4728  0.3056  0.2753
  903SOL     OW14767   3.429   4.104   3.885 -0.3538  0.0657  0.8038
  903SOL    HW114768   3.485   4.143   3.811 -0.9361 -2.0768 -0.8143
  903SOL    HW214769   3.486   4.044   3.941 -0.4217 -0.0506  0.7481
  904SOL     OW14770   8.555   4.661   5.733  0.4202 -0.2320 -0.0051
  904SOL    HW114771   8.569   4.759   5.716  0.2781  0.3956  3.2834
  904SOL    HW214772   8.640   4.611   5.713  2.2203  1.3046  3.4109
  905SOL     OW14773   0.592   0.396   4.309 -0.2620 -0.1054 -0.1180
  905SOL    HW114774   0.494   0.374   4.314 -0.6408  0.5119 -3.5246
  905SOL    HW214775   0.643   0.314   4.283 -0.3753  0.4646 -2.2059
  906SOL     OW14776   1.525   1.868   5.176  0.0318 -0.5080 -0.1434
  906SOL    HW114777   1.522   1.968   5.175 -1.1991 -0.5419 -0.1968
  906SOL    HW214778   1.612   1.837   5.139  0.0070  0.5252 -1.0868
  907SOL     OW14779   9.876   1.338   5.224 -0.2971  0.4418 -0.0709
  907SOL    HW114780   9.892   1.241   5.205  2.0839  0.6824  0.5723
  907SOL    HW214781   9.875   1.389   5.138 -0.7337 -0.0383 -0.3539
  908SOL     OW14782   9.557   3.101   3.045 -0.4387  0.4492 -0.0873
  908SOL    HW114783   9.564   3.112   2.945  0.9726 -1.3971 -0.2207
  908SOL    HW214784   9.649   3.093   3.084 -1.0248  0.0306  1.2320
  909SOL     OW14785   9.518   4.846   4.180  0.1941  0.0345  0.6746
  909SOL    HW114786   9.480   4.914   4.117 -0.6231  0.6527  1.7942
  909SOL    HW214787   9.445   4.783   4.209  0.6107 -0.3815  0.8217
  910SOL     OW14788   6.725   1.199   4.225  0.2772  0.1959  0.9053
  910SOL    HW114789   6.802   1.250   4.188 -0.5062  0.1108 -0.8777
  910SOL    HW214790   6.714   1.113   4.175 -0.5566 -0.1158  1.5962
  911SOL     OW14791   3.652   6.851   5.357 -0.4792 -0.3030  0.1574
  911SOL    HW114792   3.694   6.865   5.267 -0.8166  1.3029  0.2369
  911SOL    HW214793   3.581   6.920   5.372 -1.1487 -1.2124  1.2200
  912SOL     OW14794   0.820   9.035   0.314  0.3644  0.0934  0.0070
  912SOL    HW114795   0.876   8.991   0.384 -0.8290  0.4552  1.2195
  912SOL    HW214796   0.846   9.131   0.306  2.5047 -0.6318 -2.1560
  913SOL     OW14797   1.937   1.937   8.073 -0.2164 -0.0431  0.1399
  913SOL    HW114798   1.888   1.960   8.157  0.7610 -0.5662  0.8642
  913SOL    HW214799   1.985   1.851   8.085  1.0641  0.5678 -0.4771
  914SOL     OW14800   8.413   1.351   9.916  0.2913 -0.3321  0.0838
  914SOL    HW114801   8.373   1.393   9.835 -0.7309  0.0752  0.7835
  914SOL    HW214802   8.340   1.326   9.980  1.1209 -0.1265  1.1257
  915SOL     OW14803   7.835   2.565   2.007 -0.2856  0.3540  0.0073
  915SOL    HW114804   7.908   2.500   2.028  1.0635  0.8892 -2.8176
  915SOL    HW214805   7.748   2.517   2.002 -0.0004 -0.4637  2.3771
  916SOL     OW14806   3.499   0.158   2.024  0.6605  0.1188 -0.0037
  916SOL    HW114807   3.483   0.171   1.926  0.0169 -0.2722  0.0499
  916SOL    HW214808   3.413   0.134   2.069  1.0799 -0.3548  0.5526
  917SOL     OW14809   1.123   8.724   3.216  0.8837 -0.4072  0.9120
  917SOL    HW114810   1.188   8.655   3.185  0.2910 -1.0977  1.1730
  917SOL    HW214811   1.155   8.763   3.303  1.0623 -0.5775  0.9223
  918SOL     OW14812   3.165   7.859   0.644  0.3042 -0.3743 -0.5718
  918SOL    HW114813   3.066   7.844   0.649  0.2295 -0.2159 -1.5442
  918SOL    HW214814   3.205   7.795   0.579  0.8058 -0.2472 -0.3909
  919SOL     OW14815   1.710   0.680   5.382 -0.0018  0.4463  0.1195
  919SOL    HW114816   1.715   0.775   5.412 -2.0168  1.2404 -1.9215
  919SOL    HW214817   1.688   0.621   5.459 -0.1424  1.7975  1.1271
  920SOL     OW14818   0.899   0.774   2.953 -0.2609  0.1855 -0.2036
  920SOL    HW114819   0.917   0.688   3.002  1.5897 -0.4820 -1.9550
  920SOL    HW214820   0.841   0.755   2.874  3.2125 -0.1914 -2.7697
  921SOL     OW14821   0.219   7.773   0.877  0.1883 -0.0494 -0.1927
  921SOL    HW114822   0.158   7.781   0.956  0.3242  0.3601 -0.1255
  921SOL    HW214823   0.178   7.714   0.808  0.1067 -0.4771  0.2251
  922SOL     OW14824   1.174   2.766   2.943 -0.0355 -0.2993  0.2977
  922SOL    HW114825   1.192   2.819   2.860  2.2494 -0.4613  0.6774
  922SOL    HW214826   1.084   2.724   2.935 -0.7063  1.3190 -1.2271
  923SOL     OW14827   1.909   1.018   2.555 -0.2136 -0.2273 -0.5770
  923SOL    HW114828   1.994   1.040   2.507 -0.7027  0.2370 -1.2573
  923SOL    HW214829   1.928   1.000   2.651  0.5370  0.8020 -0.5216
  924SOL     OW14830   0.502   9.978   8.725 -0.1071 -0.0281  0.1736
  924SOL    HW114831   0.575   9.913   8.744 -1.3395 -1.1652  1.1210
  924SOL    HW214832   0.419   9.949   8.772 -0.7013  2.1827  0.5537
  925SOL     OW14833   1.356   3.256   5.547  0.2361  0.1515 -0.1817
  925SOL    HW114834   1.449   3.232   5.574 -0.2115 -0.9342  0.4280
  925SOL    HW214835   1.358   3.335   5.485  1.6942 -1.1158 -1.7643
  926SOL     OW14836   0.808   9.724   3.156  0.2085 -0.1661  0.2813
  926SOL    HW114837   0.847   9.778   3.232 -1.2876 -0.9209  1.6139
  926SOL    HW214838   0.741   9.779   3.107  1.9298  0.6862 -1.1987
  927SOL     OW14839   0.111   5.061   4.439 -0.6714  0.2490  0.6788
  927SOL    HW114840   0.206   5.073   4.412 -1.3127  1.1837 -1.2645
  927SOL    HW214841   0.089   5.122   4.515 -0.2246  1.4348 -0.1386
  928SOL     OW14842   2.073   6.880   3.378  0.2261 -0.4157  0.8839
  928SOL    HW114843   1.984   6.920   3.356  0.2875 -0.0739  1.2688
  928SOL    HW214844   2.091   6.888   3.476  0.5136 -0.8230  0.8672
  929SOL     OW14845   1.591   7.396   4.759 -0.1059  0.1876  0.0494
  929SOL    HW114846   1.659   7.324   4.743 -0.0665  0.3749 -0.6838
  929SOL    HW214847   1.624   7.481   4.717  0.9001  1.2200  2.8041
  930SOL     OW14848   6.504   3.231   2.400  0.0548  0.1729 -0.2270
  930SOL    HW114849   6.481   3.313   2.452  1.3553  0.3195  0.1474
  930SOL    HW214850   6.475   3.150   2.451  0.1070  0.3599  0.1018
  931SOL     OW14851   1.348   5.378   2.163 -0.2208 -0.0651 -0.1830
  931SOL    HW114852   1.423   5.442   2.180 -0.0367 -0.4414  0.4646
  931SOL    HW214853   1.335   5.321   2.244 -1.2028 -0.0042 -0.2969
  932SOL     OW14854   3.194   1.391   7.744 -0.0319  0.0227  0.0986
  932SOL    HW114855   3.277   1.441   7.767 -0.7170  1.2981 -0.1830
  932SOL    HW214856   3.122   1.455   7.718 -0.7715 -1.1411 -0.7577
  933SOL     OW14857   0.685   0.565   5.055  0.3642  0.3415 -0.4869
  933SOL    HW114858   0.779   0.549   5.023  0.4221  1.1331 -0.7215
  933SOL    HW214859   0.688   0.619   5.139  0.1026  0.7835 -0.7610
  934SOL     OW14860   8.193   4.223   7.643 -0.0345 -0.6515  0.3515
  934SOL    HW114861   8.196   4.124   7.654 -0.2616 -0.8431 -1.1446
  934SOL    HW214862   8.132   4.246   7.566 -0.3792  0.6700  1.0006
  935SOL     OW14863   2.529   7.041   2.603 -0.3752  0.3939 -0.0969
  935SOL    HW114864   2.555   7.064   2.696  1.1119  1.5834 -0.7905
  935SOL    HW214865   2.434   7.069   2.587  0.2426  2.7264  0.2169
  936SOL     OW14866   3.153   0.794   7.576  0.5660  0.1446 -0.1039
  936SOL    HW114867   3.072   0.845   7.548  0.5882 -0.0034 -0.4386
  936SOL    HW214868   3.202   0.762   7.495 -1.0612 -2.9670  0.0587
  937SOL     OW14869   3.271   7.916   8.294 -0.3618  0.7119 -0.0584
  937SOL    HW114870   3.365   7.951   8.289  0.8495 -2.1450  1.7415
  937SOL    HW214871   3.227   7.952   8.377 -0.7061  1.6245 -0.6251
  938SOL     OW14872   6.521   1.446   3.988  0.0895  0.3091 -0.3614
  938SOL    HW114873   6.468   1.402   3.915  0.8361 -0.8487 -0.2228
  938SOL    HW214874   6.527   1.544   3.971 -0.3699  0.1509 -1.4655
  939SOL     OW14875   3.871   0.400   0.998  0.4988  0.6672  0.2254
  939SOL    HW114876   3.771   0.404   1.008  0.4696  0.6472 -0.0460
  939SOL    HW214877   3.894   0.347   0.917  0.7435  0.2878  0.5453
  940SOL     OW14878   1.592   8.697   2.795 -0.3376  0.4716  0.0869
  940SOL    HW114879   1.667   8.750   2.833  1.5682  0.2228 -3.1374
  940SOL    HW214880   1.520   8.759   2.762 -0.5668  0.7959  1.1872
  941SOL     OW14881   1.107   7.447   3.473 -0.0489  0.2305 -0.1393
  941SOL    HW114882   1.055   7.426   3.556 -0.6130  0.3337 -0.4644
  941SOL    HW214883   1.170   7.523   3.491  1.2774 -1.0642  0.7615
  942SOL     OW14884   1.017   0.839   7.119  0.3686  0.6226  0.0515
  942SOL    HW114885   0.977   0.824   7.209  1.7538 -0.6751  0.4778
  942SOL    HW214886   1.023   0.937   7.100 -0.5734  0.8805  1.0780
  943SOL     OW14887   9.699   3.561   1.749  0.0267 -0.5044 -0.0332
  943SOL    HW114888   9.689   3.570   1.650  0.8383 -1.3424 -0.2040
  943SOL    HW214889   9.720   3.465   1.771 -0.9525 -0.4765  1.0170
  944SOL     OW14890   2.103   0.986   0.027 -0.3323 -0.0627  0.2312
  944SOL    HW114891   2.079   1.055  -0.040 -0.7097 -0.6146 -0.2045
  944SOL    HW214892   2.054   1.004   0.113 -2.5290 -1.3033 -0.7170
  945SOL     OW14893   5.689   0.866   4.592 -0.2115 -0.5387 -0.1323
  945SOL    HW114894   5.664   0.886   4.687  1.2161  0.3359  0.0798
  945SOL    HW214895   5.750   0.787   4.589  1.1330  0.4700 -0.1288
  946SOL     OW14896   1.360   8.090   4.600  0.0213 -0.4965 -0.4298
  946SOL    HW114897   1.300   8.144   4.658 -0.4229 -0.7317 -0.6644
  946SOL    HW214898   1.432   8.148   4.563 -0.9362  0.1260 -1.3523
  947SOL     OW14899   8.131   1.263   2.225  0.1398  0.6641 -0.1681
  947SOL    HW114900   8.195   1.196   2.262  1.4835  1.5337 -0.8682
  947SOL    HW214901   8.038   1.239   2.252  0.9889  0.7473  2.9428
  948SOL     OW14902   3.549   8.628   6.246 -0.1917 -0.0123 -0.0041
  948SOL    HW114903   3.502   8.551   6.203 -2.2351  2.0700 -1.6120
  948SOL    HW214904   3.502   8.652   6.331 -0.3551  0.3274 -0.1927
  949SOL     OW14905   0.312   9.330   0.644 -0.4845  0.1817 -0.4664
  949SOL    HW114906   0.410   9.308   0.639 -0.5851 -0.5169  0.4433
  949SOL    HW214907   0.259   9.253   0.608 -0.7097  0.5280 -0.8837
  950SOL     OW14908   7.633   1.163   3.417 -0.1822  0.0610  0.0986
  950SOL    HW114909   7.554   1.213   3.451 -0.5350 -0.5332  0.1612
  950SOL    HW214910   7.615   1.131   3.324 -0.2840 -0.6495  0.3550
  951SOL     OW14911   9.541   7.239   3.167  0.1426 -0.0344  0.5817
  951SOL    HW114912   9.460   7.262   3.222 -0.3293 -1.1858  0.3800
  951SOL    HW214913   9.513   7.211   3.075  0.7915 -0.1914  0.4267
  952SOL     OW14914   1.556   6.349   8.087 -0.4463  0.1580  0.0018
  952SOL    HW114915   1.592   6.267   8.133 -0.0501  0.8803  1.0001
  952SOL    HW214916   1.456   6.345   8.087 -0.4669 -2.7082 -4.3255
  953SOL     OW14917   1.534   2.042   2.475 -0.4861  0.0134 -0.3959
  953SOL    HW114918   1.522   1.950   2.438  0.1001 -0.0002 -0.5571
  953SOL    HW214919   1.482   2.051   2.560  0.8066 -1.0199  0.5317
  954SOL     OW14920   1.006   0.117   6.975  0.7251 -0.1752 -0.1652
  954SOL    HW114921   0.954   0.075   6.901  0.9019 -0.4164 -0.1495
  954SOL    HW214922   1.027   0.048   7.045 -1.5795  0.5323  1.3085
  955SOL     OW14923   2.237   0.258   3.432 -0.4102 -0.4033 -0.4445
  955SOL    HW114924   2.154   0.309   3.456 -1.5044 -2.1433 -0.4560
  955SOL    HW214925   2.308   0.322   3.401 -1.1470  1.2662  1.2323
  956SOL     OW14926   9.076   9.430   6.022 -0.6245 -0.4635 -0.0286
  956SOL    HW114927   9.150   9.387   5.971  0.9113  1.1113  0.7943
  956SOL    HW214928   9.034   9.363   6.083  1.6275 -0.8726  1.1298
  957SOL     OW14929   0.886   9.177   5.592  0.3994 -0.4023 -0.5309
  957SOL    HW114930   0.927   9.238   5.659  0.4833  0.2321 -1.1551
  957SOL    HW214931   0.837   9.103   5.639  1.3206 -0.5437  0.2176
  958SOL     OW14932   3.321   5.155   3.183  0.1347  0.1995 -0.4398
  958SOL    HW114933   3.228   5.176   3.211  0.7381  0.8154  1.1909
  958SOL    HW214934   3.331   5.056   3.173 -0.3185  0.0159  0.8131
  959SOL     OW14935   9.587   0.152   6.798  0.0858  0.6428  0.1687
  959SOL    HW114936   9.634   0.072   6.761  0.8636  0.7950  0.8305
  959SOL    HW214937   9.649   0.230   6.799  0.1413  0.5838  2.0027
  960SOL     OW14938   6.687   0.370   2.364 -0.3735  1.0306  0.1479
  960SOL    HW114939   6.676   0.413   2.274 -0.2784  1.6144  0.4124
  960SOL    HW214940   6.611   0.308   2.381 -1.5655  2.5699  0.5825
  961SOL     OW14941   9.419   1.851   3.569  0.1237  0.5700 -0.2222
  961SOL    HW114942   9.493   1.796   3.531  0.9922  1.0495  0.7465
  961SOL    HW214943   9.406   1.934   3.514  0.4435  0.5876 -0.2684
  962SOL     OW14944   9.709   9.043   6.051 -0.7648  0.3611  0.3678
  962SOL    HW114945   9.627   9.039   6.109 -1.0392  0.4860 -0.0103
  962SOL    HW214946   9.717   9.134   6.011 -0.5820  0.2719  0.2013
  963SOL     OW14947   2.286   0.663   8.264  0.0855  0.3133 -0.4568
  963SOL    HW114948   2.306   0.609   8.345 -1.2877  1.3422  0.5884
  963SOL    HW214949   2.216   0.617   8.210 -0.7014  0.7836  0.1607
  964SOL     OW14950   1.032   6.410   3.645  0.0110 -0.1934 -0.4943
  964SOL    HW114951   0.981   6.461   3.714 -0.5974  1.9222 -2.4510
  964SOL    HW214952   1.086   6.474   3.590 -0.0054 -1.7575 -2.3764
  965SOL     OW14953   7.115   8.408   9.442 -0.1792 -0.0960  0.7580
  965SOL    HW114954   7.051   8.454   9.504 -2.2512 -0.2760 -1.1827
  965SOL    HW214955   7.097   8.310   9.443  0.0274 -0.1396  0.1547
  966SOL     OW14956   0.886   8.129   5.014 -0.1580 -0.0587  0.0888
  966SOL    HW114957   0.843   8.041   5.034 -1.1724  0.1933 -0.9517
  966SOL    HW214958   0.815   8.198   4.999  0.6255  0.7072 -0.0960
  967SOL     OW14959   7.158   2.728   3.193 -0.2611 -0.3335 -0.0180
  967SOL    HW114960   7.178   2.642   3.146 -0.9958 -0.2158 -0.5556
  967SOL    HW214961   7.205   2.729   3.282  0.1380 -1.0804 -0.2142
  968SOL     OW14962   5.192   9.993   6.434  0.1130 -0.1855  0.4191
  968SOL    HW114963   5.115   9.969   6.493  1.8620 -0.7407  2.5739
  968SOL    HW214964   5.199   9.926   6.360 -1.9439  0.3542 -0.3072
  969SOL     OW14965   7.695   1.315   9.851 -0.2480 -0.4006  0.3125
  969SOL    HW114966   7.775   1.341   9.795 -0.1861 -0.0602  0.5549
  969SOL    HW214967   7.623   1.383   9.838 -0.0916 -0.1127  0.9400
  970SOL     OW14968   1.966   2.406   5.787  0.5173 -0.2514  0.0407
  970SOL    HW114969   1.930   2.488   5.743 -1.9880 -1.6988 -0.7121
  970SOL    HW214970   2.057   2.387   5.751  0.1008  0.7988 -1.6638
  971SOL     OW14971   7.022   4.705   6.860 -0.4757 -0.1118 -0.0698
  971SOL    HW114972   6.946   4.711   6.924 -1.6573  0.4513 -1.5085
  971SOL    HW214973   7.026   4.613   6.821 -1.0044  0.1229 -0.6895
  972SOL     OW14974   0.689   2.940   9.107 -0.2324 -0.7527  0.3425
  972SOL    HW114975   0.615   2.876   9.086 -0.3175 -0.5256 -0.0738
  972SOL    HW214976   0.679   3.022   9.049  1.7159 -1.7424 -1.4725
  973SOL     OW14977   6.590   1.395   1.214 -0.5087  0.2267 -0.0991
  973SOL    HW114978   6.553   1.468   1.156 -0.5884  0.5437  0.3492
  973SOL    HW214979   6.688   1.386   1.199 -0.3774  0.8883  0.3418
  974SOL     OW14980   2.119   0.938   5.315 -0.1266 -0.3756 -0.2526
  974SOL    HW114981   2.062   0.858   5.333 -1.8475  0.7219 -0.6618
  974SOL    HW214982   2.113   1.001   5.393  0.0762  0.0167 -0.5524
  975SOL     OW14983   9.814   4.501   5.072  0.3932 -0.2965  0.3617
  975SOL    HW114984   9.719   4.487   5.042  0.0118  0.8893  0.9782
  975SOL    HW214985   9.845   4.591   5.041  1.1332 -0.4613  0.6302
  976SOL     OW14986   7.521   5.786   9.088 -0.2571 -0.4804  0.2167
  976SOL    HW114987   7.556   5.753   9.175 -1.3067  0.9892  1.2381
  976SOL    HW214988   7.462   5.717   9.047 -1.4021 -0.3944  1.6845
  977SOL     OW14989   4.727   5.593   5.782 -0.4047 -0.2182  0.0556
  977SOL    HW114990   4.696   5.505   5.820  0.1005 -1.3274 -2.0610
  977SOL    HW214991   4.820   5.611   5.813 -0.6792 -0.1689  0.8893
  978SOL     OW14992   3.499   4.467   7.233 -0.0260 -0.2517  0.2938
  978SOL    HW114993   3.511   4.391   7.170 -0.1019  0.6854 -0.8688
  978SOL    HW214994   3.416   4.452   7.287 -0.7364 -0.3770 -0.8200
  979SOL     OW14995   0.694   1.690   0.669 -0.4242 -0.1526  0.3184
  979SOL    HW114996   0.758   1.615   0.685 -0.1075  0.1143  0.3022
  979SOL    HW214997   0.660   1.724   0.756 -0.0445  0.1387  0.3513
  980SOL     OW14998   0.111   3.677   0.611  0.0976 -0.3644 -0.2804
  980SOL    HW114999   0.112   3.621   0.528 -0.1759 -1.1899  0.2691
  980SOL    HW215000   0.021   3.672   0.654  0.0994  0.4293 -0.1762
  981SOL     OW15001   9.826   5.631   5.230  0.0655 -0.5932 -0.7052
  981SOL    HW115002   9.769   5.568   5.177  2.6737 -1.4260 -2.5577
  981SOL    HW215003   9.903   5.581   5.269  1.7745  1.2992 -1.5991
  982SOL     OW15004   1.909   3.373   3.846  0.4563 -0.5035  0.3377
  982SOL    HW115005   1.825   3.369   3.791  0.7046 -1.3473  0.0102
  982SOL    HW215006   1.969   3.443   3.809 -0.0393 -0.0052  0.4729
  983SOL     OW15007   3.288   1.394   3.772  0.1680  0.4015 -0.1239
  983SOL    HW115008   3.355   1.339   3.822 -1.3202 -0.6158  0.7865
  983SOL    HW215009   3.274   1.354   3.681 -0.3336 -0.2993  0.2509
  984SOL     OW15010   1.610   7.180   2.452 -0.7288 -0.6522 -0.0373
  984SOL    HW115011   1.572   7.099   2.407 -1.3038 -0.2432 -0.2996
  984SOL    HW215012   1.611   7.256   2.388 -0.3536 -0.4026  0.2619
  985SOL     OW15013   3.023   7.813   9.657  0.0458 -0.2592 -0.1132
  985SOL    HW115014   2.938   7.858   9.630  0.3298 -0.3672 -1.2154
  985SOL    HW215015   3.008   7.760   9.740 -0.3144  1.7876  1.1555
  986SOL     OW15016   2.416   2.984   3.659  0.2357 -0.1040 -0.5156
  986SOL    HW115017   2.404   3.019   3.752  0.8093 -0.3486 -0.3511
  986SOL    HW215018   2.463   2.896   3.661  0.5077  0.0235 -1.0532
  987SOL     OW15019   0.049   8.198   9.103 -0.3614  0.1629 -0.2792
  987SOL    HW115020  -0.022   8.156   9.159  1.5349 -0.3878  1.7945
  987SOL    HW215021   0.066   8.292   9.134  0.8487 -0.2194  0.2693
  988SOL     OW15022   7.289   0.663   1.992  0.4709  0.2068  0.1991
  988SOL    HW115023   7.265   0.591   1.927  2.1441 -0.0434 -0.1769
  988SOL    HW215024   7.319   0.622   2.078  1.0861  0.4481  0.1041
  989SOL     OW15025   2.320   6.451   4.538  0.2133  0.6679 -0.9263
  989SOL    HW115026   2.286   6.542   4.516  1.0462  0.3702 -3.5874
  989SOL    HW215027   2.258   6.407   4.602  1.4454  4.2886  2.9817
  990SOL     OW15028   8.269   9.319   6.025  0.1992 -0.3243  0.1593
  990SOL    HW115029   8.181   9.334   5.981 -0.2596 -1.5265  0.6590
  990SOL    HW215030   8.330   9.396   6.004  0.5227 -1.5151 -3.8435
  991SOL     OW15031   4.915   8.302   7.647  0.3186 -0.2703 -0.2671
  991SOL    HW115032   4.942   8.348   7.562  0.0112 -0.1164 -0.2833
  991SOL    HW215033   4.989   8.312   7.714  0.2112  0.3402 -0.2377
  992SOL     OW15034   3.184   6.672   2.833  0.1902 -0.7740 -0.0185
  992SOL    HW115035   3.087   6.684   2.854  0.9244  2.1434  2.1202
  992SOL    HW215036   3.232   6.643   2.916  1.7825  2.1175  0.1393
  993SOL     OW15037   9.102   4.335   3.701  0.3147  0.1385 -0.1205
  993SOL    HW115038   9.184   4.281   3.684 -0.0232 -0.3871 -0.0836
  993SOL    HW215039   9.063   4.310   3.790 -0.2667 -0.1058 -0.4389
  994SOL     OW15040   9.778   9.951   5.931 -1.0259 -0.1787 -0.2828
  994SOL    HW115041   9.804   9.912   6.020 -0.5316  2.1237  0.6134
  994SOL    HW215042   9.685   9.987   5.936 -0.3174  1.6885 -0.0807
  995SOL     OW15043   1.180   3.914   5.028 -0.2847  0.3494  0.0852
  995SOL    HW115044   1.254   3.891   4.965  0.4164  1.0402  0.6389
  995SOL    HW215045   1.203   3.882   5.120 -0.8066  0.3050  0.2014
  996SOL     OW15046   9.086   1.452   8.312 -0.2950  0.1231 -0.2267
  996SOL    HW115047   8.996   1.453   8.354 -0.9427  0.3963 -1.6006
  996SOL    HW215048   9.153   1.416   8.378 -1.2730  0.5402  1.0179
  997SOL     OW15049   9.953   7.104   2.298 -0.0522  0.9957 -0.1800
  997SOL    HW115050   9.952   7.006   2.320  0.7101  0.1765 -3.5888
  997SOL    HW215051  10.043   7.142   2.320  0.2694  0.4854 -0.5938
  998SOL     OW15052   2.525   3.445   5.965 -0.4481  0.0882 -0.3195
  998SOL    HW115053   2.474   3.423   6.048 -0.0224 -0.1252 -0.1098
  998SOL    HW215054   2.476   3.409   5.885 -0.3343 -0.6359 -0.0739
  999SOL     OW15055   7.162   1.163   4.428 -0.8837 -0.0190  0.0411
  999SOL    HW115056   7.081   1.221   4.432 -1.1510 -0.3819 -0.0498
  999SOL    HW215057   7.135   1.068   4.444 -0.1606  0.1378  2.3964
 1000SOL     OW15058   7.138   1.094   4.081 -0.1137 -0.0093  0.2056
 1000SOL    HW115059   7.226   1.057   4.108  0.8566  2.3959  0.4364
 1000SOL    HW215060   7.149   1.188   4.049 -2.3850 -0.1308 -1.0969
 1001SOL     OW15061   4.478   6.096   6.584 -0.1649  0.5388  0.1605
 1001SOL    HW115062   4.558   6.067   6.531 -0.4525  0.4421 -0.2283
 1001SOL    HW215063   4.507   6.135   6.671  0.2176 -1.0068  0.7423
 1002SOL     OW15064   3.222   4.110   9.563 -0.7120  0.4502  0.5295
 1002SOL    HW115065   3.160   4.186   9.547  2.0681  2.9688  1.2722
 1002SOL    HW215066   3.290   4.105   9.489  2.0427  1.7896  2.8475
 1003SOL     OW15067   1.600   3.238   4.086  0.5319 -0.8468  0.1086
 1003SOL    HW115068   1.582   3.336   4.085 -1.1598 -1.1432 -0.4249
 1003SOL    HW215069   1.664   3.216   4.160  0.1293  0.5230  0.8688
 1004SOL     OW15070   1.072   1.978   6.562 -0.4121  0.0664  0.1072
 1004SOL    HW115071   0.991   1.939   6.604 -0.9274  0.0156 -0.9191
 1004SOL    HW215072   1.115   2.042   6.626 -0.1916 -1.3119  1.3668
 1005SOL     OW15073   2.631   3.340   6.367 -0.4487  0.7025  0.0315
 1005SOL    HW115074   2.599   3.420   6.417  0.3208  0.3795  1.0632
 1005SOL    HW215075   2.727   3.353   6.341  0.1562 -0.5312  1.5938
 1006SOL     OW15076   3.433   2.856   5.849  0.5052  0.6043 -0.5757
 1006SOL    HW115077   3.379   2.877   5.767  1.1891  2.2065 -0.6508
 1006SOL    HW215078   3.490   2.935   5.872  0.4739  0.1036  1.3418
 1007SOL     OW15079   9.302   7.332   7.312 -0.3819  0.5832  0.0677
 1007SOL    HW115080   9.344   7.386   7.240 -0.4712  1.1612  0.4496
 1007SOL    HW215081   9.255   7.254   7.272 -1.5879  1.6523 -0.6243
 1008SOL     OW15082   4.347   9.864   5.446  0.2961 -0.2473 -0.0748
 1008SOL    HW115083   4.284   9.809   5.392 -0.7467 -0.3267  1.1809
 1008SOL    HW215084   4.435   9.816   5.454 -0.2467 -1.2225  0.1022
 1009SOL     OW15085   9.114   1.773   3.516 -0.3099 -0.2696  0.1934
 1009SOL    HW115086   9.185   1.759   3.585  0.5559  0.5850 -0.5135
 1009SOL    HW215087   9.121   1.701   3.447  0.4912  0.3400 -0.3790
 1010SOL     OW15088   0.129   6.840   2.602  0.0523  0.7333  0.1007
 1010SOL    HW115089   0.221   6.879   2.596  0.4772  0.0515  2.0118
 1010SOL    HW215090   0.118   6.793   2.690 -1.0853 -1.8417 -1.3608
 1011SOL     OW15091   2.751   9.371   6.939  0.0715 -0.6362 -0.2142
 1011SOL    HW115092   2.814   9.379   7.016 -0.3229  0.4271  0.0104
 1011SOL    HW215093   2.788   9.307   6.872  0.3467 -1.6873  0.9181
 1012SOL     OW15094   0.262   4.539   1.669 -0.2039  0.1691 -0.7350
 1012SOL    HW115095   0.284   4.492   1.583 -0.9818 -0.4634 -0.5857
 1012SOL    HW215096   0.180   4.594   1.657  0.1737  0.7687 -0.6325
 1013SOL     OW15097   0.910   1.531   4.674 -0.5432  0.0558  0.7072
 1013SOL    HW115098   0.960   1.449   4.645  0.1273  0.5604  0.4384
 1013SOL    HW215099   0.919   1.542   4.773  0.7859  0.7470  0.5132
 1014SOL     OW15100   3.110   1.927   4.876  0.0070 -0.2738 -0.2735
 1014SOL    HW115101   3.190   1.910   4.934 -0.4948 -1.4884  0.0849
 1014SOL    HW215102   3.071   2.016   4.899  1.1072  0.2188 -0.2821
 1015SOL     OW15103   4.613   5.771   6.079  0.1095  0.2305  0.7824
 1015SOL    HW115104   4.600   5.727   5.991  1.2718 -0.0216  0.7263
 1015SOL    HW215105   4.524   5.797   6.117 -0.3272  1.3066 -0.9456
 1016SOL     OW15106   9.767   0.176   3.991 -0.0755  0.2912  0.2625
 1016SOL    HW115107   9.860   0.212   3.987  0.4717 -1.0843  0.1488
 1016SOL    HW215108   9.716   0.223   4.063  0.6591  1.1543  0.2331
 1017SOL     OW15109   5.006   9.547   1.708  0.1777 -0.3872 -0.7513
 1017SOL    HW115110   4.966   9.459   1.682 -2.2910 -0.3239  2.5258
 1017SOL    HW215111   5.040   9.541   1.802 -1.0497  2.4489 -0.0705
 1018SOL     OW15112   9.073   2.088   2.935  0.1065  0.2464  0.1561
 1018SOL    HW115113   8.984   2.134   2.946 -0.0560  0.2736 -1.2370
 1018SOL    HW215114   9.069   2.026   2.857  1.9285  1.7099 -1.1137
 1019SOL     OW15115   8.850   3.516   3.062  0.2454  0.3422  0.3106
 1019SOL    HW115116   8.849   3.437   3.124  1.3117  0.5008  0.5410
 1019SOL    HW215117   8.880   3.486   2.971  0.3605  0.4278  0.3204
 1020SOL     OW15118   2.669   7.924   6.524 -0.0846  0.5142 -0.1007
 1020SOL    HW115119   2.662   7.951   6.620 -0.1475 -0.1053  0.0679
 1020SOL    HW215120   2.583   7.946   6.477 -0.4404 -0.1630  0.2325
 1021SOL     OW15121   8.537   1.677   5.705 -0.1677 -0.0985  0.7666
 1021SOL    HW115122   8.602   1.643   5.637 -0.0091  0.6189  0.5458
 1021SOL    HW215123   8.495   1.601   5.753 -0.0013 -0.6028  0.1194
 1022SOL     OW15124   5.179   5.100   2.278  0.1255  0.3459 -0.6473
 1022SOL    HW115125   5.133   5.156   2.210  0.6763 -1.1246 -2.2540
 1022SOL    HW215126   5.118   5.025   2.307  0.9601 -0.7847 -1.7551
 1023SOL     OW15127   1.039   0.004   4.187 -0.5750  0.3679 -0.6726
 1023SOL    HW115128   0.981   0.000   4.269  3.2096 -0.3870  2.1004
 1023SOL    HW215129   1.080   0.095   4.180 -0.8924  0.4317 -1.7826
 1024SOL     OW15130   6.636   0.462   7.436  0.1011  0.3314 -0.2971
 1024SOL    HW115131   6.673   0.494   7.349  1.4280  1.8381  0.7824
 1024SOL    HW215132   6.615   0.541   7.494 -1.0332 -0.6490  0.6490
 1025SOL     OW15133   0.257   3.544   8.902 -0.0295 -0.0150 -0.2125
 1025SOL    HW115134   0.190   3.543   8.827  0.4355  0.6348 -0.6369
 1025SOL    HW215135   0.209   3.533   8.989 -0.5257 -1.2739 -0.6359
 1026SOL     OW15136   2.778   1.185   6.312  0.2985 -0.2386  0.1675
 1026SOL    HW115137   2.679   1.183   6.325  0.3418  2.1335  1.0644
 1026SOL    HW215138   2.820   1.111   6.365 -0.8806 -0.5230  0.7307
 1027SOL     OW15139   8.565   1.771   6.313 -0.3148  0.1320  0.5395
 1027SOL    HW115140   8.602   1.808   6.228 -1.3869 -0.2049 -0.0703
 1027SOL    HW215141   8.609   1.817   6.391  2.6702 -1.4464 -0.1178
 1028SOL     OW15142   0.587   9.667   8.331 -0.0369 -0.7674 -0.3604
 1028SOL    HW115143   0.540   9.755   8.340  1.4649 -0.1841  1.9421
 1028SOL    HW215144   0.520   9.597   8.305 -1.2398  1.0207 -2.2747
 1029SOL     OW15145   3.016   9.752   6.449  0.1813 -0.2047 -0.0772
 1029SOL    HW115146   3.089   9.745   6.380  1.2758 -1.1507  1.1418
 1029SOL    HW215147   2.997   9.661   6.487 -0.5926  0.2658  0.6765
 1030SOL     OW15148   0.597   3.527   6.787 -0.5223  0.4311 -0.4221
 1030SOL    HW115149   0.564   3.511   6.880 -1.0109  0.5022 -0.5808
 1030SOL    HW215150   0.682   3.580   6.791 -0.6942  0.6813 -0.0289
 1031SOL     OW15151   9.764   1.473   8.835  0.0060 -0.1576 -0.2596
 1031SOL    HW115152   9.798   1.464   8.741  0.9971 -0.1045  0.0899
 1031SOL    HW215153   9.839   1.503   8.895 -0.3305 -1.3364  0.7631
 1032SOL     OW15154   3.804   4.420   6.691 -0.6552  0.1386  0.3500
 1032SOL    HW115155   3.751   4.426   6.607  0.5692  0.1479 -0.4432
 1032SOL    HW215156   3.835   4.325   6.703  0.5165  0.4539 -0.0746
 1033SOL     OW15157   3.250   0.061   1.804  0.0621 -0.0179  0.3159
 1033SOL    HW115158   3.225   0.105   1.718 -0.8582 -0.2253  0.4661
 1033SOL    HW215159   3.285  -0.031   1.786  0.5200  0.1961  0.1133
 1034SOL     OW15160   0.661   4.474   6.555  0.2846 -0.0580  0.0066
 1034SOL    HW115161   0.632   4.473   6.459  1.1518  1.0322 -0.2839
 1034SOL    HW215162   0.595   4.524   6.610  1.2989  1.9659 -0.5598
 1035SOL     OW15163   1.208   8.127   7.202  0.0017  0.0824  0.4825
 1035SOL    HW115164   1.306   8.121   7.219 -0.2587 -2.4029  1.3945
 1035SOL    HW215165   1.160   8.140   7.289 -0.5265  0.5675  0.1227
 1036SOL     OW15166   2.301   1.605   4.439 -0.6573  0.0971  0.1928
 1036SOL    HW115167   2.392   1.586   4.476 -0.8441 -3.0942 -0.8307
 1036SOL    HW215168   2.232   1.560   4.495 -1.3947  0.1523 -0.6595
 1037SOL     OW15169   5.773   1.430   3.038  0.5335 -0.3333  0.1257
 1037SOL    HW115170   5.847   1.363   3.045  1.6088  0.6424 -1.5143
 1037SOL    HW215171   5.764   1.480   3.125  3.1298  0.8760 -0.2478
 1038SOL     OW15172   1.612   8.864   6.880  0.0931 -0.3112 -0.3106
 1038SOL    HW115173   1.698   8.914   6.873  0.6912 -1.1457  0.9302
 1038SOL    HW215174   1.571   8.881   6.970 -0.6885 -0.4601 -0.6408
 1039SOL     OW15175   1.219   4.583   2.626  0.2487 -0.3598  0.1755
 1039SOL    HW115176   1.147   4.553   2.689  1.6698 -1.6918  1.2227
 1039SOL    HW215177   1.301   4.605   2.678  1.2515 -0.8777 -1.1682
 1040SOL     OW15178   0.617   6.144   3.613 -0.2005  0.5244 -0.0372
 1040SOL    HW115179   0.572   6.086   3.545 -0.0439  0.2293  0.1125
 1040SOL    HW215180   0.699   6.098   3.647 -0.3151  0.6433  0.4011
 1041SOL     OW15181   2.756   0.298   5.407 -0.1230 -0.4941  0.3394
 1041SOL    HW115182   2.740   0.358   5.485 -1.0422 -0.3266  0.0318
 1041SOL    HW215183   2.672   0.250   5.385  0.4658 -1.4849  0.2322
 1042SOL     OW15184   6.033   9.100   8.114  0.1233  0.1846  0.1508
 1042SOL    HW115185   5.945   9.098   8.067 -0.9599  0.0227  2.0909
 1042SOL    HW215186   6.055   9.007   8.145  0.2000  0.4753  0.9972
 1043SOL     OW15187   2.930   6.237   8.860  0.0949 -0.2049 -0.0944
 1043SOL    HW115188   2.994   6.201   8.793 -0.0888  0.0760 -0.4204
 1043SOL    HW215189   2.964   6.324   8.896  0.9285 -1.0752  1.2713
 1044SOL     OW15190   0.721   1.190   7.064 -0.5025 -0.2176 -0.1080
 1044SOL    HW115191   0.780   1.170   7.142 -1.0667 -1.2184  0.0778
 1044SOL    HW215192   0.673   1.106   7.037  0.5605 -0.1591 -2.2732
 1045SOL     OW15193   4.653   8.676   3.997  0.3414 -0.1634  0.3892
 1045SOL    HW115194   4.702   8.752   4.040  1.9995 -0.2632 -1.3040
 1045SOL    HW215195   4.677   8.590   4.044  1.5884 -0.1752 -0.2648
 1046SOL     OW15196   3.226   5.029   2.818  0.5234 -0.1382  0.2199
 1046SOL    HW115197   3.269   5.091   2.753 -1.0173 -0.9489 -1.6379
 1046SOL    HW215198   3.249   4.934   2.793  0.3090 -0.4355  1.1435
 1047SOL     OW15199   9.996   6.038   6.350  0.2923  0.4921  0.5924
 1047SOL    HW115200  10.053   6.114   6.318  0.0526  0.6002  0.4210
 1047SOL    HW215201   9.999   5.964   6.283 -1.2400  1.2354 -0.3072
 1048SOL     OW15202   1.087   1.600   6.258 -0.3884  0.0665 -0.3785
 1048SOL    HW115203   1.027   1.607   6.338  2.2424 -0.1847  1.6965
 1048SOL    HW215204   1.092   1.504   6.228 -1.3407  0.1526 -0.8171
 1049SOL     OW15205   7.951   9.862   8.140 -0.5397  0.0173 -0.0991
 1049SOL    HW115206   7.964   9.838   8.044  3.6061  0.6787  0.1839
 1049SOL    HW215207   7.957   9.961   8.152 -1.1873 -0.0458  0.8043
 1050SOL     OW15208   4.196   9.209   9.989 -0.1754 -0.3861 -0.4659
 1050SOL    HW115209   4.174   9.158  10.072 -0.7397  0.6288  0.0183
 1050SOL    HW215210   4.190   9.147   9.910 -0.6604 -1.1194  0.1289
 1051SOL     OW15211   6.685   3.909   3.193  0.0407  0.0286 -0.1230
 1051SOL    HW115212   6.652   3.884   3.102  1.8281  0.9148 -1.0249
 1051SOL    HW215213   6.610   3.949   3.246 -1.3364 -1.6524 -0.7306
 1052SOL     OW15214   0.070   1.799   2.501  0.0327  0.0213  0.0609
 1052SOL    HW115215   0.136   1.864   2.540  0.3151 -0.4666  0.4085
 1052SOL    HW215216   0.067   1.810   2.402  1.6012 -0.8236 -0.1057
 1053SOL     OW15217   2.164   9.264   6.374  0.1501 -0.1165 -0.2974
 1053SOL    HW115218   2.194   9.274   6.468  2.4324 -1.7558 -0.8097
 1053SOL    HW215219   2.075   9.219   6.372 -0.1083  0.3146  1.0800
 1054SOL     OW15220   0.757   7.783   3.740  0.1765 -0.4115  0.2093
 1054SOL    HW115221   0.830   7.770   3.673  0.6363 -0.3299  0.6839
 1054SOL    HW215222   0.739   7.880   3.752  0.4369 -0.4022  0.5553
 1055SOL     OW15223   0.694   4.575   9.432 -0.0425 -0.0936 -0.5289
 1055SOL    HW115224   0.698   4.588   9.333 -1.2975 -2.4109 -0.9077
 1055SOL    HW215225   0.738   4.488   9.456 -0.8819 -0.1724  0.7871
 1056SOL     OW15226   6.958   3.931   5.967  0.3274  0.0199 -0.2062
 1056SOL    HW115227   7.001   4.021   5.971 -0.0749  0.2518 -0.9766
 1056SOL    HW215228   6.861   3.940   5.985  0.4158 -0.3681  0.4853
 1057SOL     OW15229   3.096   0.550   7.639 -0.1338 -0.4179  0.1551
 1057SOL    HW115230   3.088   0.642   7.599  0.1890 -0.9818 -1.2567
 1057SOL    HW215231   3.005   0.513   7.658 -0.2527  0.3422  1.0839
 1058SOL     OW15232   2.749   3.939   0.490  0.0328 -0.2532 -0.3711
 1058SOL    HW115233   2.733   3.956   0.393 -1.1224  4.4583  0.5229
 1058SOL    HW215234   2.845   3.954   0.512 -0.1633  1.0216 -0.3707
 1059SOL     OW15235   9.401   6.224   5.190  0.0381 -0.3339  0.2101
 1059SOL    HW115236   9.364   6.223   5.283  0.0607 -2.5395  0.2017
 1059SOL    HW215237   9.499   6.208   5.193  0.0647 -0.2557 -0.2014
 1060SOL     OW15238   0.291   8.079   8.703 -0.3021  0.0450  0.5229
 1060SOL    HW115239   0.383   8.093   8.665  0.0053 -3.3623 -0.2492
 1060SOL    HW215240   0.293   8.091   8.802  1.0123 -0.0344  0.5126
 1061SOL     OW15241   6.293   9.203   5.601  0.6944 -0.1893 -0.1802
 1061SOL    HW115242   6.379   9.156   5.580  0.4617 -1.7012  2.1049
 1061SOL    HW215243   6.301   9.247   5.690 -0.6130  0.4155 -0.3627
 1062SOL     OW15244   4.744   2.962   5.242 -0.8536  0.0803  0.1231
 1062SOL    HW115245   4.801   3.043   5.249  0.3712 -0.8080  0.7013
 1062SOL    HW215246   4.801   2.882   5.222 -1.8128 -0.9076  1.1537
 1063SOL     OW15247   5.711   7.658   4.405 -0.1922  0.8721 -0.4019
 1063SOL    HW115248   5.611   7.658   4.405 -0.1967 -0.0075  0.3818
 1063SOL    HW215249   5.745   7.670   4.312 -1.0279  0.2932 -0.7815
 1064SOL     OW15250   7.981   5.919   6.216  0.0446  0.0241  0.2746
 1064SOL    HW115251   7.958   5.859   6.140 -1.0079 -1.5272  1.7703
 1064SOL    HW215252   8.078   5.944   6.211  0.1780 -0.7233 -1.0986
 1065SOL     OW15253   1.211   0.276   2.443 -0.1069 -0.0087  0.5754
 1065SOL    HW115254   1.229   0.189   2.397 -1.0586 -0.2779  0.7096
 1065SOL    HW215255   1.266   0.281   2.526  0.4168 -0.2125  0.2472
 1066SOL     OW15256   1.313   9.875   1.185 -0.4714  0.1752  0.1577
 1066SOL    HW115257   1.304   9.957   1.128 -0.6678  1.0295  1.3874
 1066SOL    HW215258   1.304   9.901   1.282  0.4124 -1.1698  0.6065
 1067SOL     OW15259   6.796   6.285   6.790 -0.0170 -0.2015 -0.1733
 1067SOL    HW115260   6.700   6.271   6.768  0.0864 -0.8123 -0.2616
 1067SOL    HW215261   6.804   6.350   6.865 -0.6881 -2.7456  2.2029
 1068SOL     OW15262   2.065   2.904   1.141 -0.5714  0.0541  0.4260
 1068SOL    HW115263   2.164   2.916   1.135 -0.7968  1.1665 -1.2820
 1068SOL    HW215264   2.026   2.974   1.201 -0.4705  0.4261  0.0596
 1069SOL     OW15265   1.591   9.242   9.123  0.0613 -0.1974 -0.6931
 1069SOL    HW115266   1.582   9.319   9.060 -2.0008 -1.4710 -2.0121
 1069SOL    HW215267   1.687   9.212   9.126  0.6633  1.6287 -1.0792
 1070SOL     OW15268   1.458   7.876   2.314 -0.4590 -0.4673 -0.1231
 1070SOL    HW115269   1.381   7.892   2.377 -1.5928  0.0106 -1.5945
 1070SOL    HW215270   1.517   7.804   2.351  0.0453  1.2253  2.4844
 1071SOL     OW15271   2.909   8.098   7.223 -0.3415  0.0829  0.2371
 1071SOL    HW115272   2.828   8.041   7.236 -0.3955 -0.0847 -0.8264
 1071SOL    HW215273   2.991   8.040   7.217 -0.1043  0.2671  1.5825
 1072SOL     OW15274   3.076   4.686   8.522  0.3878  0.4664 -0.1503
 1072SOL    HW115275   3.062   4.777   8.484 -1.8360 -0.1238 -0.8723
 1072SOL    HW215276   3.000   4.663   8.583  2.1606  0.0268  1.9385
 1073SOL     OW15277   1.895   4.742   6.293  0.3954  0.2843  0.0584
 1073SOL    HW115278   1.965   4.679   6.326 -0.3321  0.0578  1.1946
 1073SOL    HW215279   1.925   4.836   6.308  0.9683  0.1965 -0.5450
 1074SOL     OW15280   0.396   9.596   2.584 -0.1219 -0.0296 -0.0472
 1074SOL    HW115281   0.451   9.616   2.503 -0.3491 -0.6611 -0.3624
 1074SOL    HW215282   0.437   9.520   2.635 -0.3794 -0.1148  0.0359
 1075SOL     OW15283   2.854   0.082   3.761  0.0538  0.6924 -0.0124
 1075SOL    HW115284   2.797   0.162   3.777 -0.6972  0.5719 -2.0015
 1075SOL    HW215285   2.881   0.079   3.665  0.3658 -1.2579  0.1240
 1076SOL     OW15286   1.517   3.976   0.989  0.3337 -0.1761 -0.4382
 1076SOL    HW115287   1.539   3.931   0.903  2.0018 -1.4575  0.6302
 1076SOL    HW215288   1.535   3.914   1.065 -0.2017  1.2706  0.8975
 1077SOL     OW15289   8.556   7.112   6.938 -0.1869 -0.4404  0.7870
 1077SOL    HW115290   8.608   7.176   6.881  0.2306 -0.0393  1.6113
 1077SOL    HW215291   8.567   7.019   6.902  0.6547 -0.2883  0.6299
 1078SOL     OW15292   9.447   9.112   2.398  0.0435  0.4626 -0.2212
 1078SOL    HW115293   9.511   9.135   2.471 -0.6923 -0.4342  0.7177
 1078SOL    HW215294   9.369   9.063   2.436 -0.9897  1.1485 -1.4178
 1079SOL     OW15295   4.048   1.738   7.721 -0.0276 -0.7520 -0.6086
 1079SOL    HW115296   3.950   1.757   7.727  0.1875  0.9293 -1.9908
 1079SOL    HW215297   4.076   1.740   7.625  1.2940 -1.6155 -0.2514
 1080SOL     OW15298   0.384   8.791   5.882  0.2449 -0.1562 -0.1644
 1080SOL    HW115299   0.369   8.717   5.817 -0.3401 -0.3949  0.2403
 1080SOL    HW215300   0.309   8.856   5.876  1.8057  1.5463 -2.0407
 1081SOL     OW15301   0.118   0.633   4.674  0.0163  1.1508 -0.0072
 1081SOL    HW115302   0.206   0.595   4.645 -0.8028 -1.9992  1.4279
 1081SOL    HW215303   0.133   0.702   4.745  1.3848  1.6210 -0.7363
 1082SOL     OW15304   9.339   9.962   7.978  0.0399  0.1723 -0.4923
 1082SOL    HW115305   9.269  10.002   8.036 -2.0267 -2.5614 -0.9851
 1082SOL    HW215306   9.336  10.004   7.887  0.3402  1.3722  0.0421
 1083SOL     OW15307   1.293   1.741   6.127 -0.4286  0.2251 -0.7182
 1083SOL    HW115308   1.208   1.759   6.175  0.4611  1.2568  0.5164
 1083SOL    HW215309   1.278   1.749   6.028 -1.5963  1.1004 -0.4835
 1084SOL     OW15310   3.706   9.619   3.333  0.1609  0.2346 -0.3064
 1084SOL    HW115311   3.610   9.608   3.309  0.1631 -0.4421 -0.0170
 1084SOL    HW215312   3.719   9.707   3.379 -0.2283  0.5479 -0.7877
 1085SOL     OW15313   1.426   1.595   5.695 -0.3773  0.0379 -0.3541
 1085SOL    HW115314   1.475   1.603   5.782 -1.5546  0.2845  0.2901
 1085SOL    HW215315   1.476   1.646   5.625 -0.1143  0.9594  0.4804
 1086SOL     OW15316   7.661   2.311   4.148  0.3990 -0.0584 -0.4540
 1086SOL    HW115317   7.748   2.272   4.179 -0.7710 -1.9583  0.5588
 1086SOL    HW215318   7.643   2.283   4.054  0.5914 -0.1548 -0.4608
 1087SOL     OW15319   0.018   1.865   3.689 -0.2833  0.3252  0.1549
 1087SOL    HW115320   0.078   1.908   3.756 -1.3067  2.2002 -0.1103
 1087SOL    HW215321  -0.076   1.862   3.724 -0.6714  0.5284 -0.8278
 1088SOL     OW15322   7.230   3.189   6.381  0.3959 -0.0420  0.1011
 1088SOL    HW115323   7.257   3.240   6.463 -2.2512 -0.5864  1.3641
 1088SOL    HW215324   7.247   3.092   6.395 -0.5908 -0.1990  0.2369
 1089SOL     OW15325   9.667   8.815   9.458  0.0826 -0.7381 -0.0293
 1089SOL    HW115326   9.628   8.754   9.526 -0.4687  0.8836  1.1590
 1089SOL    HW215327   9.609   8.816   9.377 -0.3650 -1.1430  0.2845
 1090SOL     OW15328   9.697   4.257   4.108  0.2498 -0.0382 -0.6624
 1090SOL    HW115329   9.697   4.157   4.106  1.1899 -0.0306 -1.5869
 1090SOL    HW215330   9.606   4.291   4.085 -0.2876 -0.6942  0.4956
 1091SOL     OW15331   2.007   2.308   7.164  0.0198 -0.3229  0.4057
 1091SOL    HW115332   1.934   2.374   7.145  0.1912 -0.9293 -2.5467
 1091SOL    HW215333   2.096   2.351   7.147  0.1084 -1.4966 -2.2194
 1092SOL     OW15334   4.468   2.521   5.398  0.2597 -0.2633  0.1522
 1092SOL    HW115335   4.390   2.462   5.380  1.4923 -2.2479  1.1985
 1092SOL    HW215336   4.466   2.550   5.494  0.6796 -0.1140  0.1175
 1093SOL     OW15337   2.108   6.477   4.202  0.4671  0.0533 -0.0285
 1093SOL    HW115338   2.036   6.426   4.248 -0.2461  1.9984  1.0612
 1093SOL    HW215339   2.096   6.471   4.103 -1.2492  0.4438  0.1489
 1094SOL     OW15340   5.899   7.573   5.684  0.3381  0.6217 -0.2460
 1094SOL    HW115341   5.969   7.584   5.754 -0.0059  0.5581  0.1105
 1094SOL    HW215342   5.940   7.537   5.600  0.4905 -0.8379  0.4334
 1095SOL     OW15343   1.820   2.717   1.109  0.0453 -0.8308 -0.0526
 1095SOL    HW115344   1.736   2.752   1.149  0.8917  0.2568  0.8260
 1095SOL    HW215345   1.895   2.781   1.128  1.1151 -1.8946 -0.6019
 1096SOL     OW15346   0.320   4.134   6.247  0.2049 -0.2135 -0.2572
 1096SOL    HW115347   0.384   4.192   6.195 -0.7432  0.6065 -0.5439
 1096SOL    HW215348   0.354   4.040   6.249  0.0734 -0.3717 -2.7733
 1097SOL     OW15349   8.039   8.308   4.583  0.1130  0.9141 -0.3571
 1097SOL    HW115350   7.984   8.264   4.654  0.6252  0.2070 -0.3962
 1097SOL    HW215351   8.126   8.261   4.574 -0.0344  0.8465 -1.6259
 1098SOL     OW15352   4.459   3.949   5.640  0.0490  0.0537  0.1306
 1098SOL    HW115353   4.474   3.850   5.639 -2.7009 -0.3993 -0.5880
 1098SOL    HW215354   4.362   3.968   5.651  0.4316  2.6707 -0.6116
 1099SOL     OW15355   7.983   3.711   3.992 -0.1301  0.0539  0.3503
 1099SOL    HW115356   7.939   3.762   3.919 -0.0846 -0.0598  0.2440
 1099SOL    HW215357   8.049   3.646   3.954 -1.0622 -0.9498  0.3899
 1100SOL     OW15358   8.799   7.297   4.563  0.6907  0.3271 -0.4738
 1100SOL    HW115359   8.877   7.357   4.548  0.7181 -0.1960 -2.5418
 1100SOL    HW215360   8.716   7.340   4.528  0.6666 -0.7056 -1.7124
 1101SOL     OW15361   9.998   3.511   4.471  0.3329 -0.4595  0.1158
 1101SOL    HW115362  10.082   3.539   4.425 -0.6136 -0.0058 -1.4025
 1101SOL    HW215363   9.925   3.577   4.449 -0.2819 -0.5121  1.8792
 1102SOL     OW15364   0.957   0.332   4.071 -0.2145  0.0283 -0.1843
 1102SOL    HW115365   0.961   0.432   4.065 -1.1334  0.0630 -0.2028
 1102SOL    HW215366   1.045   0.298   4.105 -0.8619  1.0357  2.5818
 1103SOL     OW15367   8.164   9.403   6.258  0.6833 -0.0717 -0.4670
 1103SOL    HW115368   8.129   9.325   6.310  1.1345  0.8950  1.2942
 1103SOL    HW215369   8.185   9.373   6.165  1.5818 -2.2342  0.3992
 1104SOL     OW15370   0.084   7.908   1.502  0.0326  0.1757 -0.3366
 1104SOL    HW115371   0.043   7.990   1.461 -1.5372  0.3783  1.5450
 1104SOL    HW215372   0.131   7.934   1.587 -0.3168 -0.8416  0.1768
 1105SOL     OW15373   6.224   2.587   3.235 -0.3407 -0.5008  0.3047
 1105SOL    HW115374   6.136   2.621   3.201 -0.1579 -0.3104  0.0162
 1105SOL    HW215375   6.229   2.488   3.223 -0.5465 -0.5227  0.3948
 1106SOL     OW15376   8.174   2.231   1.878 -0.0790  0.9142  0.1534
 1106SOL    HW115377   8.145   2.323   1.852  0.9953  1.1741 -0.1715
 1106SOL    HW215378   8.182   2.225   1.977 -0.7244  0.9945  0.2101
 1107SOL     OW15379   4.116   1.005   6.982 -0.1884  0.7634 -0.2789
 1107SOL    HW115380   4.109   0.931   7.049  2.2452  0.6128 -0.1205
 1107SOL    HW215381   4.029   1.054   6.976 -0.3951  0.9698  3.2190
 1108SOL     OW15382   2.113   7.237   8.050 -0.5039  0.4680  0.1674
 1108SOL    HW115383   2.092   7.325   8.006  0.7305  0.9867  0.5952
 1108SOL    HW215384   2.212   7.228   8.060 -0.5443 -1.6136 -1.1586
 1109SOL     OW15385   0.424   2.084   5.721  0.1920 -0.0477  0.2083
 1109SOL    HW115386   0.392   2.047   5.808  0.0240  0.2606  0.2801
 1109SOL    HW215387   0.444   2.181   5.732 -1.2958  0.3591 -0.4679
 1110SOL     OW15388   6.961   2.570   9.547  0.1148  0.2180 -0.3101
 1110SOL    HW115389   6.938   2.499   9.480 -1.1840  0.3136  0.0275
 1110SOL    HW215390   6.887   2.578   9.614  0.5049  1.5184 -0.0290
 1111SOL     OW15391   8.826   1.743   5.069 -0.6703  0.3492  0.5896
 1111SOL    HW115392   8.915   1.758   5.026 -0.9114 -0.6664 -0.2712
 1111SOL    HW215393   8.818   1.647   5.095 -0.8828  0.7611  2.1155
 1112SOL     OW15394   2.084   0.017   9.772 -0.2411 -0.6608  0.0555
 1112SOL    HW115395   2.169   0.061   9.744  0.7103 -2.9934 -0.9225
 1112SOL    HW215396   2.037   0.074   9.839  1.3118  1.3964 -0.5582
 1113SOL     OW15397   3.430   1.468   6.521  0.1763  0.0283  0.0210
 1113SOL    HW115398   3.408   1.416   6.439 -2.8338 -0.7196  1.2439
 1113SOL    HW215399   3.443   1.406   6.598  0.6009  0.8476  0.6204
 1114SOL     OW15400   3.592   9.978   4.220  0.4121 -0.5374  0.7218
 1114SOL    HW115401   3.497   9.983   4.189  0.5368  1.0000  0.5420
 1114SOL    HW215402   3.603   9.902   4.284 -1.2083  0.0217  1.6860
 1115SOL     OW15403   0.107   3.927   5.551 -0.3436  0.0417  0.1646
 1115SOL    HW115404   0.037   3.993   5.522 -0.1197 -0.6592 -2.0891
 1115SOL    HW215405   0.064   3.852   5.601 -1.2039 -0.2912 -1.0574
 1116SOL     OW15406   5.015   7.895   7.061 -0.1530 -0.4186 -0.6235
 1116SOL    HW115407   4.921   7.920   7.037 -0.4232 -0.8887 -0.0638
 1116SOL    HW215408   5.034   7.923   7.155  0.3361 -0.1400 -0.8061
 1117SOL     OW15409   6.780   0.945   6.474 -0.0060 -0.2393 -0.2065
 1117SOL    HW115410   6.836   1.016   6.431 -1.7028  1.5567  0.4850
 1117SOL    HW215411   6.832   0.860   6.479  2.9501  1.5820  1.1262
 1118SOL     OW15412   9.158   1.005   8.355  0.7564 -0.0330  0.3633
 1118SOL    HW115413   9.235   1.050   8.402 -1.8722  4.1715  0.9186
 1118SOL    HW215414   9.090   0.977   8.422 -0.7981  1.5866 -0.4942
 1119SOL     OW15415   0.797   3.681   7.018  0.2469  0.3435 -0.1774
 1119SOL    HW115416   0.703   3.715   7.015  0.3992  0.7322 -0.6117
 1119SOL    HW215417   0.825   3.650   6.928  1.0857  1.7608 -0.4304
 1120SOL     OW15418   1.280   6.036   3.810  1.0074  0.4195 -0.0205
 1120SOL    HW115419   1.203   6.100   3.813  0.4613 -0.1481 -1.3084
 1120SOL    HW215420   1.255   5.951   3.855  1.2189  0.5814  0.4037
 1121SOL     OW15421   3.195   1.487   4.036 -0.3026 -0.1101 -0.9247
 1121SOL    HW115422   3.236   1.472   4.126  1.0045 -1.2676 -1.6836
 1121SOL    HW215423   3.217   1.410   3.976 -0.4798  1.0183 -2.4797
 1122SOL     OW15424   8.931   8.198   4.943  0.2974 -0.6104  0.2787
 1122SOL    HW115425   8.833   8.204   4.925  0.0399 -0.4794  1.6684
 1122SOL    HW215426   8.947   8.144   5.026  1.4257 -1.0059 -0.1866
 1123SOL     OW15427   0.336   1.358   4.300  0.5571 -0.1274  0.8469
 1123SOL    HW115428   0.411   1.296   4.323  1.1253  0.1534 -0.1978
 1123SOL    HW215429   0.311   1.412   4.381  0.1864 -1.5666  1.7039
 1124SOL     OW15430   8.014   8.065   2.674 -0.5759 -0.5183  0.2237
 1124SOL    HW115431   7.979   8.087   2.583 -0.3506  0.3768  0.3553
 1124SOL    HW215432   7.952   8.000   2.719 -1.3166 -0.0279 -0.0960
 1125SOL     OW15433   1.894   0.502   1.248 -0.3599  0.3863  0.3409
 1125SOL    HW115434   1.923   0.406   1.241 -2.2088 -0.0747 -1.5341
 1125SOL    HW215435   1.970   0.561   1.222  0.7296 -0.5715  1.2881
 1126SOL     OW15436   1.873   9.615   8.004  0.0335  0.0280 -0.0172
 1126SOL    HW115437   1.832   9.706   8.001 -0.7100 -0.3378 -2.7110
 1126SOL    HW215438   1.802   9.546   8.019  0.5513 -0.1550  1.7104
 1127SOL     OW15439   7.695   2.486   2.624 -0.2529 -0.4205 -0.4660
 1127SOL    HW115440   7.745   2.550   2.683 -1.2636 -0.7895  0.8128
 1127SOL    HW215441   7.742   2.399   2.622  0.1250 -0.2112 -0.7143
 1128SOL     OW15442   0.909   7.335   0.680  0.0622 -0.6864  0.0385
 1128SOL    HW115443   0.994   7.288   0.660  1.6904  3.0924 -2.5521
 1128SOL    HW215444   0.900   7.348   0.779  2.3747 -1.2666  0.3513
 1129SOL     OW15445   3.413   2.136   6.426  0.8880  0.2358  0.5103
 1129SOL    HW115446   3.503   2.179   6.433  0.6371  0.7560  0.5430
 1129SOL    HW215447   3.395   2.082   6.508  2.1814 -1.8350 -0.5137
 1130SOL     OW15448   6.826   2.712   3.845 -0.4782  0.2609  0.3065
 1130SOL    HW115449   6.764   2.701   3.923 -0.3491  1.2692  0.5616
 1130SOL    HW215450   6.873   2.626   3.827  0.4089  0.3594  2.1120
 1131SOL     OW15451   0.934   7.950   2.655  0.1208 -0.0704 -0.1646
 1131SOL    HW115452   1.016   7.904   2.688  1.1358  1.7706 -0.0528
 1131SOL    HW215453   0.872   7.966   2.732 -0.6480 -2.0207 -0.3517
 1132SOL     OW15454   2.456   4.970   9.116 -0.0471 -0.0052 -0.3087
 1132SOL    HW115455   2.507   5.039   9.064  1.3366  0.0710  1.0970
 1132SOL    HW215456   2.360   4.974   9.091  0.0909  2.0818 -0.6265
 1133SOL     OW15457   6.936   4.634   2.123 -0.2110  0.0423  0.6161
 1133SOL    HW115458   6.998   4.557   2.138  0.6382  0.3769 -1.0643
 1133SOL    HW215459   6.843   4.599   2.110 -0.3200 -0.4934  2.6808
 1134SOL     OW15460   1.668   1.536   4.766  0.3444 -0.2872  0.1707
 1134SOL    HW115461   1.573   1.527   4.737  0.6871 -0.8038 -0.8475
 1134SOL    HW215462   1.692   1.633   4.773  0.2815 -0.1318 -1.4707
 1135SOL     OW15463   7.152   0.528   4.972  0.6164  0.1771 -0.4377
 1135SOL    HW115464   7.087   0.571   4.909  1.9998  0.4739 -1.6882
 1135SOL    HW215465   7.104   0.459   5.027 -0.8171  0.6093 -1.1167
 1136SOL     OW15466   0.730   0.013   6.887 -0.0781 -0.0025 -0.6413
 1136SOL    HW115467   0.713  -0.031   6.975  0.4876 -0.6686 -0.8604
 1136SOL    HW215468   0.768  -0.054   6.823 -0.1063  0.5759 -1.2698
 1137SOL     OW15469   1.477   0.971   9.757  0.2089  0.4241 -0.7738
 1137SOL    HW115470   1.481   0.887   9.811 -0.4086 -0.2309 -1.7235
 1137SOL    HW215471   1.396   1.024   9.783  1.1002  1.1941  0.4838
 1138SOL     OW15472   1.440   9.217   3.636 -0.2083  0.0900 -0.0056
 1138SOL    HW115473   1.537   9.224   3.658 -0.2210 -0.5183  0.2438
 1138SOL    HW215474   1.402   9.309   3.620  0.4264  0.3190 -0.1980
 1139SOL     OW15475   6.312   5.148   3.027 -0.2008  0.3354  0.4467
 1139SOL    HW115476   6.232   5.108   2.983  1.2510 -0.2428 -1.7679
 1139SOL    HW215477   6.329   5.101   3.114  0.4718 -2.7841 -1.2921
 1140SOL     OW15478   2.754   4.476   3.678 -0.2121 -0.1866 -0.3791
 1140SOL    HW115479   2.666   4.476   3.630 -0.5783  0.9890  0.2865
 1140SOL    HW215480   2.827   4.457   3.613 -0.9195 -0.7638 -1.0128
 1141SOL     OW15481   3.007   6.834   4.422  0.1130  0.1686 -0.4376
 1141SOL    HW115482   3.049   6.829   4.513 -2.7676 -2.0824  0.8505
 1141SOL    HW215483   3.073   6.806   4.353  1.2485 -1.6303  1.3387
 1142SOL     OW15484   1.736   6.435   7.120 -0.1367 -0.6022  0.1346
 1142SOL    HW115485   1.695   6.446   7.029 -0.2962  1.0223  0.3940
 1142SOL    HW215486   1.829   6.399   7.110  0.0548  0.0998 -0.7069
 1143SOL     OW15487   1.881   8.244   7.625  0.2850 -0.1190 -0.3407
 1143SOL    HW115488   1.975   8.276   7.617  0.1398  0.1442 -1.0691
 1143SOL    HW215489   1.823   8.294   7.561 -1.1078  2.5438  2.8909
 1144SOL     OW15490   5.268   0.510   1.943 -0.5840 -0.3616  0.1960
 1144SOL    HW115491   5.324   0.586   1.974 -1.2510  0.7055 -1.1428
 1144SOL    HW215492   5.326   0.440   1.901 -0.3274  1.2357 -2.1809
 1145SOL     OW15493   0.959   3.024   0.729  0.3097  0.7897 -0.9240
 1145SOL    HW115494   0.861   3.043   0.716 -0.0480  0.5951  1.1684
 1145SOL    HW215495   0.982   2.937   0.686 -0.1846  1.3853 -2.4146
 1146SOL     OW15496   2.799   4.144   8.486 -0.2041 -0.1842 -0.2011
 1146SOL    HW115497   2.729   4.102   8.544 -0.8872  0.5447 -0.5012
 1146SOL    HW215498   2.856   4.205   8.541  0.1157 -0.6739  0.0160
 1147SOL     OW15499   2.021   3.443   9.821  0.2777 -0.2463 -0.3835
 1147SOL    HW115500   1.960   3.408   9.892 -0.6170 -1.0183 -1.5165
 1147SOL    HW215501   2.109   3.395   9.827 -1.6401 -4.5455 -3.3201
 1148SOL     OW15502   2.278   0.981   8.721 -0.1852  0.3762 -0.3930
 1148SOL    HW115503   2.314   1.009   8.632  1.8560  0.2158  0.3560
 1148SOL    HW215504   2.179   0.965   8.714 -0.0801  0.5841 -2.5551
 1149SOL     OW15505   9.610   3.998   4.439 -0.5811 -0.2175  0.1893
 1149SOL    HW115506   9.655   4.081   4.472 -2.7864  0.7160  0.9553
 1149SOL    HW215507   9.662   3.918   4.468  1.1527  0.8601  0.1154
 1150SOL     OW15508   2.043   0.866   3.446  0.4552  0.6628  0.4725
 1150SOL    HW115509   2.113   0.915   3.498  0.2264  0.9604  0.5031
 1150SOL    HW215510   1.956   0.916   3.453 -0.4335 -1.1047  2.6639
 1151SOL     OW15511   4.252   4.493   7.581  0.2320 -0.5130  0.0356
 1151SOL    HW115512   4.234   4.398   7.609 -0.9581 -0.7723 -1.5415
 1151SOL    HW215513   4.336   4.497   7.528  0.9278 -0.4915  1.1388
 1152SOL     OW15514   2.954   8.412   4.252  0.2095  0.2633 -0.1017
 1152SOL    HW115515   3.024   8.390   4.184  0.1693 -0.8081  0.1956
 1152SOL    HW215516   2.871   8.359   4.233 -0.4214  1.3186 -0.2867
 1153SOL     OW15517   0.286   3.333   4.975 -0.3454 -0.6328 -0.0947
 1153SOL    HW115518   0.353   3.318   5.047 -0.6227  0.1632  0.3367
 1153SOL    HW215519   0.239   3.420   4.991  0.1083 -0.0796 -1.6420
 1154SOL     OW15520   1.712   2.476   8.192  0.6027 -0.2679 -0.0491
 1154SOL    HW115521   1.645   2.417   8.236  0.8558 -2.0762 -2.0268
 1154SOL    HW215522   1.669   2.528   8.119  0.6961  0.9884  0.7613
 1155SOL     OW15523   2.546   1.035   3.164  0.0263 -0.2904  0.1096
 1155SOL    HW115524   2.620   0.973   3.191 -0.9778 -1.2065  0.8054
 1155SOL    HW215525   2.585   1.118   3.124  1.4454 -0.5825  0.8392
 1156SOL     OW15526   6.931   7.514   4.773  0.2915 -0.0364  0.6929
 1156SOL    HW115527   7.010   7.504   4.712  0.4436 -0.6182  0.9900
 1156SOL    HW215528   6.895   7.424   4.796  0.4448  0.1714  1.7489
 1157SOL     OW15529   2.936   2.469   3.383 -0.0020  0.1329  0.1551
 1157SOL    HW115530   2.964   2.473   3.287 -1.7319 -0.1138 -0.3739
 1157SOL    HW215531   2.979   2.391   3.428  1.7182  0.9127 -0.1163
 1158SOL     OW15532   0.209   8.950   2.534 -0.0113 -0.0628  0.6560
 1158SOL    HW115533   0.120   8.915   2.561  0.3813 -1.0510  0.6834
 1158SOL    HW215534   0.277   8.877   2.537  0.2634  0.0246 -2.0150
 1159SOL     OW15535   8.985   8.042   6.906  0.1795  0.0624  0.0639
 1159SOL    HW115536   8.926   8.056   6.985 -0.0610 -2.6292  0.4008
 1159SOL    HW215537   8.928   8.021   6.826  0.5525  0.3671 -0.2864
 1160SOL     OW15538   1.311   0.612   2.590  0.6018  0.0270 -0.1704
 1160SOL    HW115539   1.351   0.642   2.676 -0.5179  0.8274  0.0788
 1160SOL    HW215540   1.360   0.531   2.557  1.8090  0.4378  0.5951
 1161SOL     OW15541   4.752   5.216   5.413  0.0069  0.1016  0.0922
 1161SOL    HW115542   4.833   5.167   5.380 -1.3092 -1.5078 -0.7849
 1161SOL    HW215543   4.690   5.153   5.459 -1.1968  1.1457 -0.0462
 1162SOL     OW15544   3.211   3.564   0.540  0.1163 -0.0862  0.1480
 1162SOL    HW115545   3.263   3.605   0.615 -0.0718  1.0070 -0.3082
 1162SOL    HW215546   3.251   3.592   0.452 -2.5419  2.6350 -0.2793
 1163SOL     OW15547   4.650   6.330   0.727  0.4188  0.5671  0.9961
 1163SOL    HW115548   4.683   6.425   0.725 -0.1740  0.7690  0.6282
 1163SOL    HW215549   4.688   6.280   0.649 -0.2304  0.8333  0.5001
 1164SOL     OW15550   2.207   7.645   4.745  0.1270  0.1424  0.1623
 1164SOL    HW115551   2.200   7.739   4.780  0.7664  0.7200 -1.2281
 1164SOL    HW215552   2.124   7.594   4.770 -1.0953  1.6499 -0.6856
 1165SOL     OW15553   5.648   8.819   5.813  0.3659  0.3306  0.4303
 1165SOL    HW115554   5.695   8.906   5.798  0.2084  0.3170 -0.1947
 1165SOL    HW215555   5.569   8.813   5.752  0.6742 -0.4734  0.0951
 1166SOL     OW15556   7.867   7.785   4.114  0.2276  0.4781 -0.1072
 1166SOL    HW115557   7.865   7.702   4.169 -0.1304  0.5525 -0.0046
 1166SOL    HW215558   7.792   7.846   4.142  0.0795  0.5430 -0.6344
 1167SOL     OW15559   0.970   5.242   6.567 -0.3724 -0.5529  0.5867
 1167SOL    HW115560   1.039   5.242   6.639 -0.5087 -2.2438  0.7557
 1167SOL    HW215561   0.974   5.155   6.518  0.0490  0.7955 -1.7896
 1168SOL     OW15562   7.215   2.549   7.119 -0.0260  0.2925 -0.5354
 1168SOL    HW115563   7.175   2.579   7.205 -0.5609 -2.2234  0.1435
 1168SOL    HW215564   7.167   2.591   7.042 -0.1036  1.8826  0.3709
 1169SOL     OW15565   3.303   4.901   5.339 -0.1038 -0.3933  0.0407
 1169SOL    HW115566   3.329   4.965   5.412 -0.9113 -1.3119  1.1524
 1169SOL    HW215567   3.276   4.953   5.258  1.2845  0.6369  0.2033
 1170SOL     OW15568   4.038   3.492   7.365  0.1794  0.0208  0.2965
 1170SOL    HW115569   4.014   3.414   7.308 -1.1227  1.7290 -1.5921
 1170SOL    HW215570   3.986   3.488   7.450 -0.3844 -0.8230 -0.0828
 1171SOL     OW15571   9.085   1.845   4.019 -0.0449 -0.4025 -0.1865
 1171SOL    HW115572   9.066   1.915   3.949  0.3997 -1.3072 -1.2247
 1171SOL    HW215573   9.002   1.829   4.073 -0.1340  0.9840  0.1209
 1172SOL     OW15574   0.399   3.054   9.031  0.1550  0.0352 -0.3146
 1172SOL    HW115575   0.388   3.144   8.987 -1.5310 -0.2295 -0.4458
 1172SOL    HW215576   0.439   2.990   8.965 -1.5461 -0.1256 -1.2164
 1173SOL     OW15577   2.992   1.179   7.423 -0.3627 -0.0377 -0.2788
 1173SOL    HW115578   2.953   1.196   7.514  0.4067 -1.7354  0.3834
 1173SOL    HW215579   2.949   1.098   7.384  0.2856 -0.0929 -0.8676
 1174SOL     OW15580   4.442   8.857   3.930  0.3372 -0.0722  0.0046
 1174SOL    HW115581   4.526   8.805   3.917 -0.4005 -1.6150  1.1140
 1174SOL    HW215582   4.399   8.874   3.841  1.8991  0.8969 -0.5753
 1175SOL     OW15583   3.816   0.790   4.577 -0.7762 -0.1161 -0.6283
 1175SOL    HW115584   3.849   0.874   4.535  4.4531 -1.9875 -0.6406
 1175SOL    HW215585   3.809   0.719   4.507 -1.6405 -0.6493 -0.0025
 1176SOL     OW15586   0.013   3.215   2.766 -0.1980 -0.3094 -0.8164
 1176SOL    HW115587   0.033   3.180   2.674 -0.3517 -0.7023 -0.7046
 1176SOL    HW215588   0.007   3.138   2.830 -1.3775 -0.1522 -0.7229
 1177SOL     OW15589   0.704   1.278   8.427  0.6221  0.1924 -0.3188
 1177SOL    HW115590   0.608   1.259   8.407  1.2504 -2.1601 -1.3443
 1177SOL    HW215591   0.712   1.324   8.515 -1.4054 -0.1629  0.0679
 1178SOL     OW15592   0.755   1.518   3.049 -0.5118  0.3602  0.3374
 1178SOL    HW115593   0.852   1.540   3.041 -0.2693 -0.7915  0.1031
 1178SOL    HW215594   0.712   1.582   3.113  0.2702  1.2517 -0.0200
 1179SOL     OW15595   1.527   7.107   6.118  0.1418 -0.2596  0.3092
 1179SOL    HW115596   1.435   7.137   6.146  0.4698  0.1804  0.9311
 1179SOL    HW215597   1.569   7.056   6.192  0.2356 -0.8306 -0.1404
 1180SOL     OW15598   6.471   9.354   4.973 -0.0197 -0.4588  0.1282
 1180SOL    HW115599   6.423   9.439   4.995  1.3137 -0.1427  1.9268
 1180SOL    HW215600   6.481   9.299   5.056  2.6766 -0.5196 -0.1922
 1181SOL     OW15601   9.497   9.987   6.280 -0.1480 -0.0731  1.0530
 1181SOL    HW115602   9.441  10.060   6.319  0.7441  0.8477  0.6358
 1181SOL    HW215603   9.523  10.012   6.187  0.7688 -0.5978  1.1677
 1182SOL     OW15604   9.877   2.717   6.032  0.6333  0.3801  0.6705
 1182SOL    HW115605   9.936   2.637   6.021  1.7286  1.0873  1.2855
 1182SOL    HW215606   9.924   2.785   6.087 -1.4787  0.2257  2.7508
 1183SOL     OW15607   2.615   0.057   5.011 -0.2862 -0.3565  0.4948
 1183SOL    HW115608   2.660   0.061   4.921 -1.0393 -0.2377  0.1203
 1183SOL    HW215609   2.572   0.145   5.030 -3.4507 -1.5627 -0.7685
 1184SOL     OW15610   2.349   1.712   1.269  0.0379 -0.2849 -0.0474
 1184SOL    HW115611   2.368   1.715   1.171 -0.7218  1.7173 -0.1462
 1184SOL    HW215612   2.280   1.642   1.287  0.5619 -1.0218 -0.8703
 1185SOL     OW15613   1.445   9.926   7.967 -0.6359  0.5497  0.8954
 1185SOL    HW115614   1.381   9.850   7.964  2.0219 -1.7999  1.4763
 1185SOL    HW215615   1.432   9.978   8.052  0.2163 -1.7611  2.4964
 1186SOL     OW15616   0.119   1.613   7.303  0.3142  0.1706  0.0181
 1186SOL    HW115617   0.091   1.643   7.394 -2.5900  0.0343 -0.7780
 1186SOL    HW215618   0.219   1.602   7.300  0.3629 -0.6168  3.3875
 1187SOL     OW15619   6.843   0.294   0.260 -0.1051 -0.3687  0.3742
 1187SOL    HW115620   6.807   0.359   0.327  0.4290 -1.4514  1.7501
 1187SOL    HW215621   6.767   0.245   0.216 -0.4290 -0.7242  1.3027
 1188SOL     OW15622   4.886   6.296   8.941  0.1100 -0.0925 -0.1075
 1188SOL    HW115623   4.900   6.378   8.995  1.8957 -0.1582 -0.4421
 1188SOL    HW215624   4.842   6.320   8.854  0.3008  0.4490 -0.0501
 1189SOL     OW15625   0.868   4.049   0.657  0.1022 -0.1572 -0.3471
 1189SOL    HW115626   0.947   4.001   0.697 -0.4836 -0.9486 -0.1186
 1189SOL    HW215627   0.784   4.013   0.697 -0.3094  1.8221  0.6259
 1190SOL     OW15628   2.721   0.051   5.757  0.3753  0.1894 -0.3622
 1190SOL    HW115629   2.818   0.033   5.740  0.6386  0.4379  0.8379
 1190SOL    HW215630   2.709   0.080   5.852 -1.0703 -1.2701 -0.0988
 1191SOL     OW15631   9.779   9.609   8.599  0.0724  0.3833  0.4372
 1191SOL    HW115632   9.808   9.619   8.503  0.4380 -0.0928  0.4903
 1191SOL    HW215633   9.686   9.642   8.610 -0.7570 -1.5200 -0.5416
 1192SOL     OW15634   5.383   8.178   6.970 -0.6174  0.6543  0.6159
 1192SOL    HW115635   5.444   8.104   7.000  1.0124  2.0474  0.8185
 1192SOL    HW215636   5.325   8.145   6.896  1.4262 -0.2955 -0.6077
 1193SOL     OW15637   0.449   0.321   8.496 -0.0352 -0.1329  0.0926
 1193SOL    HW115638   0.459   0.299   8.593  1.0598 -0.5914 -0.1124
 1193SOL    HW215639   0.463   0.419   8.482 -0.8549  0.0416  0.4807
 1194SOL     OW15640   2.975   3.715   7.558 -0.0953  0.1280 -0.0853
 1194SOL    HW115641   3.055   3.655   7.559 -0.2434 -0.0536  0.4970
 1194SOL    HW215642   2.977   3.775   7.638 -1.4560 -1.0684  0.8703
 1195SOL     OW15643   1.709   2.134   0.299 -0.0610 -0.4932  0.2442
 1195SOL    HW115644   1.680   2.072   0.226 -0.0099 -0.1595 -0.0627
 1195SOL    HW215645   1.803   2.162   0.284 -0.0939 -0.3162  0.3641
 1196SOL     OW15646   0.636   9.822   7.076  0.1576 -0.0131  0.2605
 1196SOL    HW115647   0.639   9.765   6.994 -0.3649  0.6754 -0.2426
 1196SOL    HW215648   0.644   9.764   7.157  1.0759 -0.6558 -0.2823
 1197SOL     OW15649   6.503   8.813   3.214 -0.7861  0.3017  0.1822
 1197SOL    HW115650   6.492   8.801   3.313 -2.5525 -0.3507 -0.0728
 1197SOL    HW215651   6.422   8.777   3.167  0.4143 -0.1671 -1.5610
 1198SOL     OW15652   2.663   9.891   6.567  0.1108  0.3435  0.5559
 1198SOL    HW115653   2.598   9.961   6.538  0.1415  0.3829  0.5822
 1198SOL    HW215654   2.734   9.934   6.624  1.6635  0.7982 -1.6597
 1199SOL     OW15655   8.689   2.840   3.125 -0.1085 -0.3710 -0.4890
 1199SOL    HW115656   8.732   2.861   3.037 -0.6733 -2.1325 -1.2091
 1199SOL    HW215657   8.590   2.833   3.113 -0.2741  0.2874  0.4815
 1200SOL     OW15658   1.834   2.642   6.400  0.0542  0.2157  0.3609
 1200SOL    HW115659   1.766   2.608   6.465  1.3828 -1.8417  0.7138
 1200SOL    HW215660   1.797   2.636   6.307  0.0412 -1.7118  0.4698
 1201SOL     OW15661   2.152   5.884   5.414  0.3016  0.1201 -0.3103
 1201SOL    HW115662   2.088   5.861   5.341  0.5057  1.7393 -1.0401
 1201SOL    HW215663   2.245   5.860   5.385  0.3797  0.7398 -0.5989
 1202SOL     OW15664   4.582   0.387   6.243 -0.0637  0.0614 -0.5389
 1202SOL    HW115665   4.595   0.448   6.321 -1.8426 -0.7229  0.4040
 1202SOL    HW215666   4.487   0.355   6.241  0.7235 -2.3615 -1.2119
 1203SOL     OW15667   4.254   2.520   5.100 -0.5333 -0.1324 -0.0459
 1203SOL    HW115668   4.296   2.441   5.055  0.6384  0.7687 -0.5650
 1203SOL    HW215669   4.244   2.502   5.198 -0.4634 -1.0071 -0.1995
 1204SOL     OW15670   1.551   9.282   5.433  0.4526  0.0412  0.2032
 1204SOL    HW115671   1.540   9.304   5.530 -4.7741  0.3937 -0.3506
 1204SOL    HW215672   1.528   9.186   5.418  0.0021  0.3172 -0.8763
 1205SOL     OW15673   5.737   5.600   4.463 -0.3034  0.0143  0.3319
 1205SOL    HW115674   5.761   5.626   4.556  0.6406  0.5532 -0.0557
 1205SOL    HW215675   5.820   5.588   4.409 -0.8194 -1.0299 -0.2543
 1206SOL     OW15676   8.878   7.285   5.085 -0.3088 -0.0379 -0.3714
 1206SOL    HW115677   8.846   7.277   4.990  1.5909  1.7391 -1.1865
 1206SOL    HW215678   8.919   7.198   5.113 -0.5684 -0.4731 -1.2987
 1207SOL     OW15679   3.569   8.823   3.874  0.0447  0.1597 -0.8277
 1207SOL    HW115680   3.657   8.850   3.914  0.7049 -0.4444 -1.8481
 1207SOL    HW215681   3.548   8.729   3.901 -0.4703  0.4377 -0.2705
 1208SOL     OW15682   3.202   1.499   4.705  0.4325 -0.0499 -0.2595
 1208SOL    HW115683   3.162   1.541   4.787  0.2123 -1.1322  0.1895
 1208SOL    HW215684   3.284   1.551   4.679 -0.2165  1.0643 -0.1090
 1209SOL     OW15685   8.359   2.220   4.150 -0.4732 -0.2619 -0.7066
 1209SOL    HW115686   8.453   2.205   4.118  0.4332 -0.5248  1.9157
 1209SOL    HW215687   8.307   2.136   4.140  0.0895 -0.6288 -0.5898
 1210SOL     OW15688   0.295   4.533   8.630  0.0593 -0.0768 -0.1208
 1210SOL    HW115689   0.266   4.443   8.596  0.4231 -0.3162  0.2032
 1210SOL    HW215690   0.228   4.566   8.697  0.2407 -0.3841  0.2171
 1211SOL     OW15691   2.849   2.335   6.932  0.0048 -0.4549 -0.4549
 1211SOL    HW115692   2.827   2.368   6.840 -0.1380  2.1665  0.4841
 1211SOL    HW215693   2.789   2.378   6.999 -0.7226 -3.2867  0.7796
 1212SOL     OW15694   2.293   2.401   7.057  0.7470 -0.3236 -0.6162
 1212SOL    HW115695   2.330   2.387   6.965  2.1724  0.3691 -0.1613
 1212SOL    HW215696   2.344   2.345   7.122  1.1017  0.7467  0.0418
 1213SOL     OW15697   9.485   8.546   7.706  0.2977 -0.1159  0.2102
 1213SOL    HW115698   9.550   8.552   7.630  0.3337  1.7777  0.3517
 1213SOL    HW215699   9.413   8.481   7.683  1.0613 -0.6091 -0.8550
 1214SOL     OW15700   3.318   0.986   7.702  0.0688 -0.0966 -0.0820
 1214SOL    HW115701   3.298   1.053   7.631  0.9315 -0.1755 -0.4040
 1214SOL    HW215702   3.295   0.895   7.669 -0.6142 -0.0124  0.1635
 1215SOL     OW15703   2.513   3.501   4.616 -0.6330  0.5883  0.5565
 1215SOL    HW115704   2.572   3.582   4.614  1.2867 -0.8007 -0.8441
 1215SOL    HW215705   2.550   3.435   4.682 -0.4997 -0.3733 -0.4700
 1216SOL     OW15706   9.815   4.346   3.583  0.1364 -0.0095  0.4089
 1216SOL    HW115707   9.803   4.311   3.676 -1.0953  0.7481  0.5478
 1216SOL    HW215708   9.728   4.340   3.534  0.9224 -0.9533 -0.8987
 1217SOL     OW15709   0.018   1.094   6.606  0.3173  0.0313 -0.4337
 1217SOL    HW115710   0.092   1.077   6.540  0.1446  1.3473 -0.9740
 1217SOL    HW215711  -0.047   1.159   6.567 -1.6999 -1.8753 -0.4031
 1218SOL     OW15712   2.539   4.263   6.671 -0.3333 -0.1580  0.5639
 1218SOL    HW115713   2.440   4.276   6.682 -0.4713 -0.4312 -0.3645
 1218SOL    HW215714   2.576   4.337   6.615 -0.5436 -1.8241 -1.8208
 1219SOL     OW15715   7.517   2.825   6.418 -0.2796 -0.2771  0.2040
 1219SOL    HW115716   7.588   2.761   6.388  1.3397  2.0334 -1.0032
 1219SOL    HW215717   7.489   2.883   6.342 -2.0604  0.1693  1.1618
 1220SOL     OW15718   9.379   1.478   4.105  0.0625  0.2625  0.1929
 1220SOL    HW115719   9.341   1.545   4.042 -0.2563 -1.8845 -1.9656
 1220SOL    HW215720   9.399   1.522   4.193 -2.1394  2.6512 -0.4606
 1221SOL     OW15721   5.240   5.348   0.928 -0.2821 -0.1648  0.1085
 1221SOL    HW115722   5.226   5.293   0.845 -0.7077 -1.3206  0.9409
 1221SOL    HW215723   5.193   5.306   1.005  1.5726 -0.0481  1.3366
 1222SOL     OW15724   2.919   9.752   1.272 -0.5985  0.2915 -0.1696
 1222SOL    HW115725   2.986   9.683   1.246  0.8060  1.5225  0.0895
 1222SOL    HW215726   2.919   9.763   1.371  1.2996  2.6701 -0.3675
 1223SOL     OW15727   1.068   0.923   6.162  0.3855  0.0658  0.0467
 1223SOL    HW115728   1.159   0.904   6.125  0.0437 -0.2728 -0.6218
 1223SOL    HW215729   1.037   0.845   6.215  0.2218 -0.0662 -0.2440
 1224SOL     OW15730   1.586   8.569   6.873 -0.3525 -0.6447 -0.0860
 1224SOL    HW115731   1.572   8.667   6.861  1.6450 -0.0994  1.7481
 1224SOL    HW215732   1.504   8.528   6.914 -1.5490  0.0519 -1.7115
 1225SOL     OW15733   9.445   5.813   0.025  0.2089  0.6577 -0.5178
 1225SOL    HW115734   9.429   5.854   0.115  0.3897 -0.3415 -0.0274
 1225SOL    HW215735   9.358   5.809  -0.025 -0.2941 -0.6794  0.4240
 1226SOL     OW15736   1.740   3.324   7.282 -0.0536  0.3235  0.1363
 1226SOL    HW115737   1.810   3.254   7.291 -1.6949 -1.4487 -0.4163
 1226SOL    HW215738   1.694   3.337   7.370 -0.0578  0.3795  0.1262
 1227SOL     OW15739   9.453   9.858   6.867 -0.1436 -0.1381 -0.0464
 1227SOL    HW115740   9.547   9.834   6.889  0.2185  1.3900  0.1156
 1227SOL    HW215741   9.390   9.807   6.926  0.6559  0.5360  1.4064
 1228SOL     OW15742   2.520   9.684   2.294  0.0356  0.9441  0.4232
 1228SOL    HW115743   2.555   9.626   2.220 -2.4217  0.5578 -0.4859
 1228SOL    HW215744   2.546   9.779   2.277  2.4358  0.3846  0.8982
 1229SOL     OW15745   3.575   9.497   6.938  0.4177 -0.3936  0.0872
 1229SOL    HW115746   3.501   9.510   6.871 -0.2433  0.4620  0.9605
 1229SOL    HW215747   3.554   9.549   7.021  1.5740 -0.8722  0.6925
 1230SOL     OW15748   0.839   1.651   6.127  0.0863  0.1757 -0.3960
 1230SOL    HW115749   0.789   1.735   6.145 -0.7630 -0.4935  0.4384
 1230SOL    HW215750   0.921   1.648   6.185 -1.2586 -0.7571  1.5177
 1231SOL     OW15751   1.836   1.880   9.561  0.0714  0.3638  0.3113
 1231SOL    HW115752   1.764   1.811   9.563 -0.3432  0.7829 -0.0059
 1231SOL    HW215753   1.799   1.967   9.529  0.8020  0.4863 -0.2263
 1232SOL     OW15754   8.295   9.063   2.827 -0.5548 -0.3397 -0.1072
 1232SOL    HW115755   8.240   9.053   2.909 -2.1609 -0.7680 -1.2065
 1232SOL    HW215756   8.391   9.078   2.852 -0.9005 -1.2470  1.8065
 1233SOL     OW15757   2.541   3.549   1.380 -0.3502  0.1340  0.2848
 1233SOL    HW115758   2.501   3.605   1.307 -1.6211 -2.5812 -1.1793
 1233SOL    HW215759   2.641   3.553   1.373 -0.4378 -0.5705 -2.0495
 1234SOL     OW15760   2.792   7.764   2.269  0.0773  0.7195 -0.1004
 1234SOL    HW115761   2.817   7.818   2.350  0.4013 -1.5651  1.3994
 1234SOL    HW215762   2.850   7.790   2.192  2.3888  0.3273  1.4565
 1235SOL     OW15763   2.219   0.255   2.180  0.0029 -0.1703  0.5899
 1235SOL    HW115764   2.244   0.220   2.270 -0.0418  0.2350  0.7589
 1235SOL    HW215765   2.284   0.325   2.152  0.8096 -1.2443 -0.2826
 1236SOL     OW15766   1.621   3.728   9.892  0.4007 -0.1929 -0.0618
 1236SOL    HW115767   1.621   3.698   9.987 -2.8487 -0.6416 -0.1571
 1236SOL    HW215768   1.620   3.648   9.832 -0.8451  0.0864 -0.4155
 1237SOL     OW15769   1.761   5.168   7.534 -0.4594  0.1781  0.1177
 1237SOL    HW115770   1.678   5.174   7.479 -0.3648 -0.4691 -0.1077
 1237SOL    HW215771   1.841   5.168   7.474 -0.3902 -1.3678  0.1926
 1238SOL     OW15772   0.647   2.534   5.422  0.5397 -0.1291 -0.3177
 1238SOL    HW115773   0.629   2.469   5.349  1.3400  0.5344 -1.1082
 1238SOL    HW215774   0.667   2.624   5.383  0.0373  0.4606  0.7399
 1239SOL     OW15775   2.502   0.094   3.900 -0.4872 -0.3062  0.5149
 1239SOL    HW115776   2.423   0.074   3.958 -0.7061  1.3906  0.8193
 1239SOL    HW215777   2.582   0.109   3.958 -0.1842 -0.8988  0.2557
 1240SOL     OW15778   7.691   8.723   8.608 -0.2319 -0.5843  0.4683
 1240SOL    HW115779   7.780   8.698   8.647  1.0587  0.1322 -1.9192
 1240SOL    HW215780   7.662   8.654   8.543 -1.0516 -0.4217  0.6545
 1241SOL     OW15781   6.888   0.347   0.915  0.5319 -0.2023  0.7558
 1241SOL    HW115782   6.877   0.332   1.013 -0.4908 -1.2276  0.4900
 1241SOL    HW215783   6.866   0.442   0.893 -1.0655 -0.4453  1.2600
 1242SOL     OW15784   8.204   0.041   9.795 -0.2417  0.1353 -0.1845
 1242SOL    HW115785   8.125   0.001   9.748  0.5089 -0.9393 -0.5520
 1242SOL    HW215786   8.281   0.046   9.731  0.0082  1.1483  0.1791
 1243SOL     OW15787   1.221   0.855   6.620 -0.3358  0.0626  0.5205
 1243SOL    HW115788   1.251   0.828   6.528  0.6002 -1.2776  1.2017
 1243SOL    HW215789   1.266   0.796   6.688 -1.3399  0.7733  1.8089
 1244SOL     OW15790   6.921   0.430   4.669  0.4790 -0.3256 -0.6929
 1244SOL    HW115791   6.957   0.382   4.590  0.5300 -0.8718 -0.3401
 1244SOL    HW215792   6.857   0.370   4.718  1.2483 -0.3710  0.2662
 1245SOL     OW15793   2.000   6.349   7.006 -0.1249  0.5452 -0.3073
 1245SOL    HW115794   1.933   6.343   6.933  0.3105  0.1547 -0.6785
 1245SOL    HW215795   2.086   6.387   6.969  1.1873 -2.7166 -0.7670
 1246SOL     OW15796   3.442   4.819   8.423 -0.0762  0.6385 -0.0072
 1246SOL    HW115797   3.452   4.865   8.511  0.7066 -0.0214  0.2568
 1246SOL    HW215798   3.435   4.887   8.350 -0.7887  1.1868  0.5620
 1247SOL     OW15799   9.443   7.281   8.011 -0.1219 -0.7170  0.2151
 1247SOL    HW115800   9.467   7.317   8.101 -1.5315 -0.0413  0.3403
 1247SOL    HW215801   9.364   7.221   8.018 -1.1827  0.5186 -0.7509
 1248SOL     OW15802   1.607   8.856   4.407  0.2174 -0.4641  0.2205
 1248SOL    HW115803   1.655   8.796   4.343  0.7134 -1.1206  1.2057
 1248SOL    HW215804   1.593   8.809   4.494 -1.1863  0.1236  0.3363
 1249SOL     OW15805   9.896   5.782   2.224  0.0654  0.4837  0.3626
 1249SOL    HW115806   9.804   5.792   2.261  0.6250  1.7252  1.4478
 1249SOL    HW215807   9.891   5.766   2.126 -1.3285 -0.0285  0.5079
 1250SOL     OW15808   9.583   2.056   5.383 -0.2659  0.0728  0.0409
 1250SOL    HW115809   9.585   1.956   5.386  0.5984  0.0712 -0.3876
 1250SOL    HW215810   9.588   2.093   5.475 -0.1356 -0.2693  0.1701
 1251SOL     OW15811   7.042   4.990   5.209 -0.0303 -0.6451 -0.2230
 1251SOL    HW115812   6.965   5.050   5.232  0.3128 -0.2459 -0.1107
 1251SOL    HW215813   7.036   4.906   5.262  0.9077  0.3836  1.5585
 1252SOL     OW15814   3.968   6.586   9.514 -0.3590  0.8193 -0.0115
 1252SOL    HW115815   3.874   6.556   9.528  1.1697 -2.7878  3.6723
 1252SOL    HW215816   4.013   6.524   9.450  0.6168 -0.0165  1.4568
 1253SOL     OW15817   5.378   1.635   3.699 -0.1096  0.2509 -0.0174
 1253SOL    HW115818   5.323   1.553   3.684 -0.2266  0.4501 -0.6727
 1253SOL    HW215819   5.420   1.631   3.790 -1.5126  0.2803  0.6322
 1254SOL     OW15820   0.592   7.723   8.770 -0.3561  0.7013  0.0739
 1254SOL    HW115821   0.612   7.815   8.803  1.5307  0.6512 -0.9117
 1254SOL    HW215822   0.607   7.719   8.671  1.1008 -1.0607  0.3460
 1255SOL     OW15823   0.763   9.187   5.985 -0.4466  0.2723  0.0425
 1255SOL    HW115824   0.859   9.178   6.012 -0.2525  1.4517 -0.2542
 1255SOL    HW215825   0.731   9.099   5.949  0.1165 -0.5292  1.4383
 1256SOL     OW15826   0.274   1.691   6.525 -0.1828  0.2938  0.3407
 1256SOL    HW115827   0.203   1.699   6.596 -0.5086 -2.0942  0.2993
 1256SOL    HW215828   0.277   1.777   6.473 -0.5004  1.7853  2.6867
 1257SOL     OW15829   2.730   5.784   6.365  0.2682  0.4359 -0.1090
 1257SOL    HW115830   2.794   5.814   6.437  1.4493 -0.5198 -0.7348
 1257SOL    HW215831   2.739   5.685   6.353 -1.6158  0.2389  0.0377
 1258SOL     OW15832   9.014   0.921   8.600 -0.3733 -0.5411  0.1538
 1258SOL    HW115833   8.995   0.823   8.606  0.5647 -0.9547 -2.8415
 1258SOL    HW215834   8.932   0.969   8.566  0.0910 -0.7201 -1.2598
 1259SOL     OW15835   9.389   0.965   7.696 -1.1342 -0.1296 -0.0722
 1259SOL    HW115836   9.423   0.902   7.766  0.1477  1.1577  0.4760
 1259SOL    HW215837   9.329   1.032   7.738 -0.3755  0.6350 -0.1869
 1260SOL     OW15838   2.430   8.177   2.340 -0.7011  0.4407 -0.4498
 1260SOL    HW115839   2.471   8.094   2.302  0.3436  0.6698  0.1354
 1260SOL    HW215840   2.390   8.232   2.267 -0.6640 -0.1807 -0.9370
 1261SOL     OW15841   4.741   1.433   6.556 -0.1947  0.4627  0.2482
 1261SOL    HW115842   4.838   1.457   6.560 -0.2020  0.3874  0.9252
 1261SOL    HW215843   4.693   1.475   6.633 -0.1808 -1.8557  1.5567
 1262SOL     OW15844   1.704   2.851   7.452 -0.3132 -0.0912 -0.4790
 1262SOL    HW115845   1.670   2.917   7.384  1.0494 -1.4719 -2.5920
 1262SOL    HW215846   1.803   2.842   7.441  0.3323  1.5412  3.4490
 1263SOL     OW15847   1.091   8.772   9.002  0.1744 -0.3936 -0.4225
 1263SOL    HW115848   1.036   8.730   9.074 -0.0005 -0.6385 -0.7015
 1263SOL    HW215849   1.062   8.738   8.913  0.9645 -0.7372 -0.5528
 1264SOL     OW15850   0.391   6.802   8.384 -0.0045 -0.8642  0.2900
 1264SOL    HW115851   0.305   6.766   8.418 -0.4026 -0.7037 -0.5493
 1264SOL    HW215852   0.446   6.728   8.345  0.3662 -1.0147  1.0852
 1265SOL     OW15853   4.876   3.811   9.232  0.1382 -0.0887  0.1698
 1265SOL    HW115854   4.878   3.879   9.159  2.3635 -1.0808 -0.7346
 1265SOL    HW215855   4.822   3.732   9.203 -1.8603  0.9456  0.9539
 1266SOL     OW15856   1.691   6.449   5.461 -0.2382 -0.0387  0.1934
 1266SOL    HW115857   1.625   6.430   5.533  0.4602 -0.3888  0.7544
 1266SOL    HW215858   1.783   6.431   5.495  0.0613 -0.7941 -0.9634
 1267SOL     OW15859   0.531   0.120   6.363 -0.1377 -0.3445 -0.2375
 1267SOL    HW115860   0.571   0.125   6.455 -1.2539 -2.5205  0.4013
 1267SOL    HW215861   0.461   0.190   6.353  1.0893  0.9398  0.0038
 1268SOL     OW15862   6.444   4.827   1.613  0.3852  0.2982 -0.0953
 1268SOL    HW115863   6.520   4.856   1.671  0.5997 -0.5926  0.0662
 1268SOL    HW215864   6.392   4.908   1.584  0.7298  0.8104  0.7017
 1269SOL     OW15865   2.393   3.044   3.410  0.4658 -0.0840 -0.4532
 1269SOL    HW115866   2.408   3.032   3.508  0.0452 -0.5599 -0.4460
 1269SOL    HW215867   2.317   3.107   3.395 -0.0036 -0.6501 -0.4668
 1270SOL     OW15868   4.704   9.315   2.715  0.1673  0.3498 -0.1306
 1270SOL    HW115869   4.637   9.242   2.707  1.1577 -0.5880  0.0130
 1270SOL    HW215870   4.715   9.340   2.812  0.0678  0.4667 -0.1489
 1271SOL     OW15871   0.340   1.550   8.375 -0.1253 -0.1930  0.0799
 1271SOL    HW115872   0.248   1.526   8.405  0.8382 -2.7225  1.1214
 1271SOL    HW215873   0.335   1.629   8.314 -3.0050 -0.4688 -0.1176
 1272SOL     OW15874   2.494   1.133   4.398  0.8221 -0.7349 -0.1778
 1272SOL    HW115875   2.396   1.144   4.386  1.1078  1.8514 -0.5387
 1272SOL    HW215876   2.538   1.124   4.308  1.0904  0.2278 -0.1603
 1273SOL     OW15877   1.120   0.520   6.199 -0.1680  0.2256  0.2200
 1273SOL    HW115878   1.191   0.496   6.265 -0.7574 -0.4831  0.5982
 1273SOL    HW215879   1.066   0.597   6.234  1.9592  2.4028 -1.1619
 1274SOL     OW15880   9.790   1.549   3.587  0.3155  0.1554  0.3404
 1274SOL    HW115881   9.743   1.461   3.586  1.0541 -0.2433  0.5249
 1274SOL    HW215882   9.809   1.578   3.493 -1.8755  1.1770  0.1818
 1275SOL     OW15883   0.215   0.188   6.048  0.3273  0.2592 -0.4697
 1275SOL    HW115884   0.165   0.230   6.124 -2.1347 -0.5752 -1.5896
 1275SOL    HW215885   0.219   0.089   6.061  1.5724  0.2936 -0.4885
 1276SOL     OW15886   0.153   9.421   5.170  0.0282 -0.1565 -0.1550
 1276SOL    HW115887   0.185   9.515   5.185 -0.4888  0.1285 -0.8446
 1276SOL    HW215888   0.055   9.415   5.188  0.1428 -0.6667  0.3258
 1277SOL     OW15889   9.098   8.905   6.060 -0.4921  0.0553  0.3206
 1277SOL    HW115890   9.114   8.823   6.114 -1.3714 -0.1023  0.3566
 1277SOL    HW215891   9.004   8.936   6.074 -1.3066 -0.9621 -2.3858
 1278SOL     OW15892   0.655   0.123   3.254  0.2118  0.0061  0.3076
 1278SOL    HW115893   0.677   0.084   3.165 -0.5992 -0.0049  0.1120
 1278SOL    HW215894   0.602   0.057   3.308 -1.3523  0.8904 -0.1058
 1279SOL     OW15895   9.322   0.148   4.542  0.2077  0.3491  0.4283
 1279SOL    HW115896   9.383   0.224   4.521  0.1035 -0.0185 -1.2728
 1279SOL    HW215897   9.340   0.073   4.478 -0.9658 -0.3480  0.9085
 1280SOL     OW15898   3.464   4.965   8.652  0.1563 -0.0129 -0.0052
 1280SOL    HW115899   3.476   4.894   8.722 -1.5479 -1.4034 -1.0689
 1280SOL    HW215900   3.425   5.047   8.694 -0.2772 -0.6234  0.8058
 1281SOL     OW15901   1.211   4.138   5.250  0.3895  0.1608  0.3043
 1281SOL    HW115902   1.201   4.040   5.266 -0.0875  0.2417  0.4958
 1281SOL    HW215903   1.278   4.153   5.177 -0.6631 -0.3757 -0.7868
 1282SOL     OW15904   0.616   6.948   8.635  0.3554  0.3819 -0.0665
 1282SOL    HW115905   0.545   7.011   8.667  0.7126 -0.5381  2.7258
 1282SOL    HW215906   0.705   6.981   8.665  0.8353  0.0855 -1.1585
 1283SOL     OW15907   8.723   3.004   9.181 -0.3223  0.2265  0.3638
 1283SOL    HW115908   8.810   3.044   9.207  0.0898  0.5565 -1.4371
 1283SOL    HW215909   8.654   3.076   9.175 -0.0992  0.3593 -0.7251
 1284SOL     OW15910   9.701   2.622   2.547 -0.4638  0.3574  0.3049
 1284SOL    HW115911   9.729   2.564   2.471  0.7905  1.2868  0.0301
 1284SOL    HW215912   9.705   2.570   2.633  0.8407  0.0773  0.0934
 1285SOL     OW15913   6.917   1.845   4.733  0.5434 -0.0530 -0.5129
 1285SOL    HW115914   6.873   1.817   4.648  0.7477 -1.0622 -0.2890
 1285SOL    HW215915   6.866   1.921   4.774 -0.6562 -0.8378 -0.5466
 1286SOL     OW15916   3.798   1.699   5.447  0.2045  0.4605  0.3605
 1286SOL    HW115917   3.859   1.750   5.508 -0.7455  1.6163  0.3821
 1286SOL    HW215918   3.845   1.619   5.411  1.2063  0.4700  1.6023
 1287SOL     OW15919   5.799   0.859   9.830 -0.0210  0.6795  1.0893
 1287SOL    HW115920   5.847   0.851   9.743  1.8118 -1.3547  2.2147
 1287SOL    HW215921   5.799   0.954   9.860  0.5606  1.1732 -0.4371
 1288SOL     OW15922   1.978   3.300   8.029  0.7401  0.2803 -0.1680
 1288SOL    HW115923   1.992   3.204   8.053  0.4588  0.3126  0.1346
 1288SOL    HW215924   1.960   3.308   7.931  0.8690  0.0365 -0.2117
 1289SOL     OW15925   4.834   0.817   5.862  0.7409 -0.1253 -0.3849
 1289SOL    HW115926   4.869   0.729   5.831 -0.0804 -0.3033 -0.8254
 1289SOL    HW215927   4.753   0.842   5.808 -0.1642 -0.0044  0.9989
 1290SOL     OW15928   1.621   3.278   6.502  0.3360 -0.1171  0.6077
 1290SOL    HW115929   1.526   3.301   6.482 -0.2400 -2.0465  1.0406
 1290SOL    HW215930   1.638   3.290   6.600 -0.1085 -1.9171  0.9268
 1291SOL     OW15931   9.629   9.605   2.491 -0.1824 -0.0375  0.1843
 1291SOL    HW115932   9.688   9.570   2.419  0.0962 -0.4971  0.6289
 1291SOL    HW215933   9.677   9.675   2.543  0.1216 -0.6895  0.7929
 1292SOL     OW15934   0.502   4.891   6.600 -0.2489 -0.0203 -0.7009
 1292SOL    HW115935   0.453   4.853   6.521 -0.0929 -0.0196 -0.8008
 1292SOL    HW215936   0.494   4.991   6.599 -1.6944 -0.1226  0.2533
 1293SOL     OW15937   3.753   2.973   6.793  0.1264  0.5527  0.0682
 1293SOL    HW115938   3.843   2.942   6.763 -0.8509 -1.5298 -0.8033
 1293SOL    HW215939   3.735   2.939   6.885 -0.4262 -0.4555 -0.3993
 1294SOL     OW15940   6.460   6.245   6.476 -0.0349  0.1847  0.3348
 1294SOL    HW115941   6.415   6.169   6.523  0.8554 -1.1824 -0.9600
 1294SOL    HW215942   6.449   6.234   6.377  0.1478  1.7221  0.1338
 1295SOL     OW15943   2.920   4.277   2.017 -0.2578 -0.3515  0.6680
 1295SOL    HW115944   2.964   4.349   2.070 -1.0399 -0.8163  1.9631
 1295SOL    HW215945   2.905   4.309   1.923 -1.1632  1.3784  1.3850
 1296SOL     OW15946   9.969   3.887   6.551  0.5143  0.0876 -0.3509
 1296SOL    HW115947  10.042   3.827   6.585  0.8582  0.9258  0.4280
 1296SOL    HW215948   9.978   3.897   6.452  1.2577 -0.0870 -0.3082
 1297SOL     OW15949   8.359   0.961   5.628 -0.4446  0.2824 -0.5735
 1297SOL    HW115950   8.316   1.012   5.703  0.2672  1.3674 -0.8950
 1297SOL    HW215951   8.346   0.863   5.643 -1.0594  0.5186  0.5158
 1298SOL     OW15952   6.356   9.954   3.067 -0.5067  0.1588  0.2698
 1298SOL    HW115953   6.316   9.867   3.097 -1.4398  0.1462 -0.9748
 1298SOL    HW215954   6.325   9.975   2.974  2.2442  0.2517 -0.6892
 1299SOL     OW15955   2.903   1.530   4.470  0.4978 -0.1115 -0.6221
 1299SOL    HW115956   2.882   1.432   4.474  1.0087 -0.2154 -0.4290
 1299SOL    HW215957   2.897   1.569   4.562 -1.6397  0.4595 -0.9607
 1300SOL     OW15958   7.220   3.155   8.937 -0.5171 -0.5683 -0.2320
 1300SOL    HW115959   7.231   3.175   9.034  1.4023 -0.9013 -0.3546
 1300SOL    HW215960   7.123   3.153   8.914 -0.9977 -0.6713  1.7092
 1301SOL     OW15961   0.406   0.459   9.171 -0.7823 -0.0611 -0.0190
 1301SOL    HW115962   0.323   0.425   9.217 -0.9059  3.1115  2.2411
 1301SOL    HW215963   0.381   0.502   9.085 -1.1739 -1.3607 -0.5644
 1302SOL     OW15964   9.849   9.774   2.831 -0.5714  0.3999  0.5179
 1302SOL    HW115965   9.882   9.814   2.916 -0.0055 -0.9608  0.9544
 1302SOL    HW215966   9.751   9.793   2.821  0.0135  3.4012 -0.1851
 1303SOL     OW15967   2.566   0.215   2.246 -0.3839 -0.1361  0.0737
 1303SOL    HW115968   2.599   0.304   2.277 -1.5750  0.6521 -0.8471
 1303SOL    HW215969   2.598   0.198   2.153 -0.2220 -0.6293  0.2191
 1304SOL     OW15970   1.370   6.022   5.780  0.0199  0.5465 -0.0329
 1304SOL    HW115971   1.384   6.080   5.860  0.0376 -0.2909  0.5698
 1304SOL    HW215972   1.446   6.033   5.716  0.7099  0.1363  0.7195
 1305SOL     OW15973   8.363   2.655   7.746 -0.3249 -0.0771 -0.2013
 1305SOL    HW115974   8.389   2.561   7.726  1.8211  0.6518 -0.9291
 1305SOL    HW215975   8.387   2.714   7.669 -0.7246  1.2256  0.6495
 1306SOL     OW15976   8.662   2.966   8.503 -0.2169  0.0653 -0.6425
 1306SOL    HW115977   8.613   3.053   8.509 -0.5092 -0.1952  0.9587
 1306SOL    HW215978   8.760   2.983   8.496 -0.0625  0.5130  2.1286
 1307SOL     OW15979   8.871   0.921   0.911  0.5032  0.1159  0.3212
 1307SOL    HW115980   8.893   0.989   0.841 -0.2525 -1.3501 -1.3518
 1307SOL    HW215981   8.783   0.943   0.953  1.1877  1.2728  1.1976
 1308SOL     OW15982   0.293   9.495   6.443 -0.1297 -0.5515 -0.3747
 1308SOL    HW115983   0.300   9.593   6.464 -0.3479 -0.5112 -0.5029
 1308SOL    HW215984   0.258   9.482   6.351  1.6697 -0.7194 -1.0695
 1309SOL     OW15985   9.547   7.974   6.066 -0.8138  0.0741 -0.4202
 1309SOL    HW115986   9.584   7.983   5.973  0.4281  0.8912  0.1340
 1309SOL    HW215987   9.510   7.882   6.078 -1.8740  0.2500 -2.0286
 1310SOL     OW15988   4.595   2.720   6.749  0.3866  0.1259 -0.2592
 1310SOL    HW115989   4.608   2.622   6.766  1.4791  0.4721  1.0123
 1310SOL    HW215990   4.533   2.733   6.672  0.8790 -1.5694 -0.9610
 1311SOL     OW15991   1.161   3.461   3.206  0.0354  0.4895 -0.1553
 1311SOL    HW115992   1.180   3.451   3.304  0.8243 -2.2852 -0.5513
 1311SOL    HW215993   1.247   3.465   3.156 -0.3711 -0.7912 -0.9706
 1312SOL     OW15994   8.889   0.656   5.287 -0.3918 -0.4071 -0.3863
 1312SOL    HW115995   8.909   0.738   5.233 -0.8589 -0.5901 -0.8383
 1312SOL    HW215996   8.962   0.589   5.273 -0.0222 -0.0809 -0.0362
 1313SOL     OW15997   3.741   5.603   8.031  0.4435  0.3048 -0.3425
 1313SOL    HW115998   3.768   5.507   8.035  0.1628  0.2352 -0.1787
 1313SOL    HW215999   3.665   5.613   7.966 -0.2140  0.2635  0.4198
 1314SOL     OW16000   0.713   7.688   9.746 -0.4958  0.2634  0.2817
 1314SOL    HW116001   0.618   7.718   9.731 -1.3776 -2.1897  0.7256
 1314SOL    HW216002   0.737   7.704   9.842  0.0329  2.1733 -0.1568
 1315SOL     OW16003   9.627   5.634   7.611  0.3204 -0.2408 -0.7823
 1315SOL    HW116004   9.580   5.552   7.644 -1.3628  0.8747 -0.3030
 1315SOL    HW216005   9.600   5.712   7.667  0.7006  0.9228 -2.1824
 1316SOL     OW16006   4.797   8.638   5.905  0.6851 -0.1074  0.0905
 1316SOL    HW116007   4.749   8.616   5.989  0.7925  0.7507  0.3889
 1316SOL    HW216008   4.731   8.661   5.833  0.6259  0.7068  0.3952
 1317SOL     OW16009   0.677   4.128   5.030 -0.2697 -0.1611  0.6698
 1317SOL    HW116010   0.744   4.055   5.038 -1.1000 -1.0518 -0.3403
 1317SOL    HW216011   0.588   4.090   5.005  0.0181  1.4127 -3.2285
 1318SOL     OW16012   1.960   0.730   8.703  0.0781 -0.0346  0.0722
 1318SOL    HW116013   1.974   0.825   8.731 -0.0963  0.5354 -1.7048
 1318SOL    HW216014   1.862   0.712   8.695  0.1585  0.7422 -3.1593
 1319SOL     OW16015   0.362   0.614   6.042 -0.1977 -0.0792 -1.0182
 1319SOL    HW116016   0.326   0.688   5.986  0.0084  1.0722  0.3355
 1319SOL    HW216017   0.299   0.597   6.119 -0.2322 -1.2948 -1.3001
 1320SOL     OW16018   2.900   8.326   2.330  0.0990 -0.4107 -0.2203
 1320SOL    HW116019   2.914   8.423   2.314 -0.4846 -0.7092 -2.8238
 1320SOL    HW216020   2.986   8.277   2.314 -0.0258 -0.5021 -0.6214
 1321SOL     OW16021   9.894   2.841   2.839 -0.4132 -0.2403 -0.2067
 1321SOL    HW116022   9.906   2.835   2.938 -2.4971  1.1209  0.1502
 1321SOL    HW216023   9.949   2.770   2.795  0.1833 -1.1558  1.9402
 1322SOL     OW16024   9.525   8.186   6.257  0.6590  0.1315 -0.2337
 1322SOL    HW116025   9.526   8.153   6.352 -3.5142  0.8021  0.1723
 1322SOL    HW216026   9.537   8.109   6.195  2.2574 -0.4856  0.7979
 1323SOL     OW16027   8.384   4.990   7.477 -0.1148  0.1246  0.1197
 1323SOL    HW116028   8.475   4.955   7.502 -0.7849 -2.2901 -0.6341
 1323SOL    HW216029   8.384   5.019   7.382 -0.2758 -0.4429 -0.0568
 1324SOL     OW16030   0.322   0.806   8.619 -0.6520  0.6963 -0.2206
 1324SOL    HW116031   0.421   0.816   8.611 -0.4755  0.3041  1.4264
 1324SOL    HW216032   0.291   0.737   8.555  0.4458 -0.8040  0.8341
 1325SOL     OW16033   2.121   6.643   5.337 -0.5066 -0.4424  0.4749
 1325SOL    HW116034   2.023   6.625   5.336 -0.6013 -0.0647  2.0953
 1325SOL    HW216035   2.138   6.735   5.302 -0.7814 -0.2675  0.8053
 1326SOL     OW16036   0.556   3.781   6.949  0.1917 -0.0930 -0.4226
 1326SOL    HW116037   0.606   3.833   6.880  1.8636 -2.2151 -0.8799
 1326SOL    HW216038   0.459   3.780   6.927  0.0253  3.2903 -0.0590
 1327SOL     OW16039   1.871   7.532   3.668 -0.0921  0.6509 -0.3791
 1327SOL    HW116040   1.772   7.526   3.669 -0.1631  1.7253  2.2677
 1327SOL    HW216041   1.900   7.626   3.689  1.4844 -0.2013  1.4332
 1328SOL     OW16042   2.116   7.622   6.349  0.4427 -0.1237 -0.3183
 1328SOL    HW116043   2.174   7.542   6.365  0.3903 -0.0414  0.3163
 1328SOL    HW216044   2.021   7.593   6.340  0.5202 -0.2085 -0.8555
 1329SOL     OW16045   2.738   1.170   5.874 -0.4057 -0.0984  0.6190
 1329SOL    HW116046   2.662   1.163   5.938  0.0825 -0.0240  1.2098
 1329SOL    HW216047   2.787   1.083   5.870 -0.6207 -0.1992  0.1116
 1330SOL     OW16048   7.266   1.753   1.133  0.6952  0.5321 -0.2462
 1330SOL    HW116049   7.285   1.681   1.199 -0.3195  0.5316  0.0562
 1330SOL    HW216050   7.311   1.732   1.046  0.2149 -0.5804 -0.2254
 1331SOL     OW16051   1.998   0.217   6.950 -0.2964  0.4573 -0.3624
 1331SOL    HW116052   2.088   0.249   6.919 -0.4993  0.0475 -1.3969
 1331SOL    HW216053   2.010   0.146   7.019  0.1731  0.5833 -0.3113
 1332SOL     OW16054   4.223   4.168   6.477  0.0709 -0.1738 -0.1796
 1332SOL    HW116055   4.208   4.146   6.573  1.5083  1.1204  0.3539
 1332SOL    HW216056   4.137   4.202   6.437  0.0700  1.6918  1.3260
 1333SOL     OW16057   4.814   8.213   6.664  0.1196  0.7742  0.3057
 1333SOL    HW116058   4.719   8.209   6.696 -0.7536 -0.3506 -2.3364
 1333SOL    HW216059   4.873   8.167   6.730 -1.7419 -2.2532 -0.0495
 1334SOL     OW16060   0.294   0.538   0.831 -0.0430 -0.1471 -0.3675
 1334SOL    HW116061   0.323   0.507   0.922 -0.9166  0.2090  0.0466
 1334SOL    HW216062   0.204   0.581   0.839  0.4000  0.9462 -1.2122
 1335SOL     OW16063   8.604   2.758   0.449 -0.2108  0.2972  0.4580
 1335SOL    HW116064   8.528   2.702   0.416 -0.2057  0.7842 -0.4066
 1335SOL    HW216065   8.606   2.755   0.549 -1.7588  0.7732  0.5275
 1336SOL     OW16066   7.064   1.623   3.929 -0.0677 -0.1664  0.5728
 1336SOL    HW116067   7.089   1.670   4.014 -0.1067 -0.1721  0.5871
 1336SOL    HW216068   7.039   1.529   3.948 -1.2122  0.1587  0.7064
 1337SOL     OW16069   3.003   3.253   7.694  0.4960 -0.0168  0.4310
 1337SOL    HW116070   3.071   3.263   7.622  1.6556  0.5858  1.5902
 1337SOL    HW216071   2.960   3.163   7.688  1.2409 -0.3192 -0.4309
 1338SOL     OW16072   9.183   8.510   4.037 -0.6105 -0.2546  0.2598
 1338SOL    HW116073   9.128   8.572   4.094  0.7983  2.2093 -0.9886
 1338SOL    HW216074   9.275   8.502   4.077 -0.5347 -0.8813 -0.0482
 1339SOL     OW16075   7.101   2.590   4.241 -0.2476 -0.0942  0.0858
 1339SOL    HW116076   7.187   2.573   4.287 -0.8087  0.4636  1.3505
 1339SOL    HW216077   7.103   2.547   4.150  1.5698  0.4116 -0.1324
 1340SOL     OW16078   1.621   1.089   4.138  0.0560  0.3414  0.2051
 1340SOL    HW116079   1.522   1.078   4.134  0.2114 -0.8494 -0.9177
 1340SOL    HW216080   1.665   1.001   4.119  1.3252  1.0400 -0.1743
 1341SOL     OW16081   4.897   1.681   8.745 -0.1792 -0.3188  0.1675
 1341SOL    HW116082   4.921   1.742   8.821  0.7424 -0.2782 -0.1471
 1341SOL    HW216083   4.882   1.734   8.662 -0.4265 -0.4289  0.1412
 1342SOL     OW16084   0.763   9.696   5.583 -0.5056  0.2623  0.2097
 1342SOL    HW116085   0.706   9.701   5.501  0.5122 -0.6629 -0.5656
 1342SOL    HW216086   0.858   9.679   5.557  0.1570  1.8848  1.4807
 1343SOL     OW16087   1.124   0.937   7.390  0.2843  0.0281 -0.7760
 1343SOL    HW116088   1.130   1.031   7.423  1.8789 -0.6335  0.8493
 1343SOL    HW216089   1.036   0.898   7.417  0.9503 -0.0123  1.3710
 1344SOL     OW16090   6.964   1.578   5.170  0.1115  0.4057 -0.0636
 1344SOL    HW116091   6.988   1.602   5.076 -0.5702 -0.8665 -0.5777
 1344SOL    HW216092   7.004   1.490   5.193 -1.5599 -0.3345  0.0834
 1345SOL     OW16093   5.800   8.238   7.086 -0.1835 -1.0068 -0.0049
 1345SOL    HW116094   5.845   8.283   7.162 -0.4150 -2.1915  0.8430
 1345SOL    HW216095   5.820   8.288   7.001 -0.5190  0.7258  0.9193
 1346SOL     OW16096   3.168   2.883   6.846 -0.5673 -0.3679 -0.0615
 1346SOL    HW116097   3.193   2.920   6.935  1.5768 -1.2756 -0.2602
 1346SOL    HW216098   3.085   2.828   6.855  0.1527 -1.2376  1.5840
 1347SOL     OW16099   1.379   5.974   7.098  0.0559  0.0858 -0.0152
 1347SOL    HW116100   1.379   6.024   7.011  0.3942  1.3519  0.7002
 1347SOL    HW216101   1.374   6.039   7.174  1.1357 -0.9364  0.9561
 1348SOL     OW16102   7.490   5.322   8.603 -0.6604 -0.5460  0.0450
 1348SOL    HW116103   7.423   5.270   8.657 -0.7261 -0.2738  0.2283
 1348SOL    HW216104   7.446   5.402   8.563 -1.0200 -1.6389 -1.8011
 1349SOL     OW16105   1.017   3.547   5.701  0.3380  0.2502 -0.1070
 1349SOL    HW116106   0.927   3.584   5.681  0.3969  0.2716 -0.3260
 1349SOL    HW216107   1.011   3.486   5.781  0.1812  0.4668  0.0464
 1350SOL     OW16108   8.397   9.106   5.909  0.2277 -0.2492 -0.0722
 1350SOL    HW116109   8.349   9.171   5.968  0.4836 -1.3701  1.3735
 1350SOL    HW216110   8.336   9.081   5.833 -0.7493 -0.1554  0.6667
 1351SOL     OW16111   1.047   7.361   3.715  0.1813 -0.4216  0.5289
 1351SOL    HW116112   0.990   7.377   3.796  0.4885  0.8241  0.5095
 1351SOL    HW216113   1.050   7.263   3.695  0.4163 -0.7776  2.2457
 1352SOL     OW16114   2.996   2.643   6.546 -0.2279 -0.6990 -0.2800
 1352SOL    HW116115   2.927   2.648   6.619  0.9798 -0.1203  0.8385
 1352SOL    HW216116   2.982   2.560   6.493 -1.7104 -0.6556  0.0180
 1353SOL     OW16117   2.824   2.946   0.753 -0.2220  0.0980  0.1179
 1353SOL    HW116118   2.783   2.950   0.844 -1.2755 -1.0235 -0.2941
 1353SOL    HW216119   2.884   3.025   0.740 -2.4460  1.9107  0.6191
 1354SOL     OW16120   4.659   9.368   5.476 -0.2791 -0.9292 -0.8516
 1354SOL    HW116121   4.658   9.357   5.575  0.5020 -3.6432 -1.0953
 1354SOL    HW216122   4.588   9.432   5.449  1.0294  1.6857  1.6283
 1355SOL     OW16123   2.465   8.609   0.057 -0.6212 -0.2327 -0.1257
 1355SOL    HW116124   2.450   8.567  -0.033  0.3826 -0.2725 -0.2791
 1355SOL    HW216125   2.545   8.567   0.100 -1.2763 -0.4224  0.9160
 1356SOL     OW16126   2.056   1.195   0.476 -0.5531 -0.1931 -0.6242
 1356SOL    HW116127   1.959   1.218   0.483 -0.1623  1.4367 -0.4543
 1356SOL    HW216128   2.109   1.251   0.540  0.2965 -2.5037  0.8045
 1357SOL     OW16129   1.745   4.056   6.482 -0.0375  0.4576 -0.2923
 1357SOL    HW116130   1.828   4.035   6.429 -0.2856 -0.9927 -0.1308
 1357SOL    HW216131   1.755   4.019   6.574 -0.4380  1.2150  0.0565
 1358SOL     OW16132   5.684   8.589   3.348 -0.0974  0.2088 -0.2875
 1358SOL    HW116133   5.763   8.622   3.296  1.1221 -0.4796  1.1071
 1358SOL    HW216134   5.673   8.644   3.431  0.1223 -0.9795  0.5278
 1359SOL     OW16135   0.144   9.825   4.359 -0.6462  0.2209 -0.0469
 1359SOL    HW116136   0.062   9.828   4.416 -0.3798  0.2434  0.3380
 1359SOL    HW216137   0.119   9.799   4.265 -1.1495  0.6887 -0.0399
 1360SOL     OW16138   0.531   5.130   1.110  0.4332 -0.3006 -0.4627
 1360SOL    HW116139   0.572   5.041   1.132 -0.0646 -0.5778 -0.6265
 1360SOL    HW216140   0.556   5.156   1.017 -1.0635 -1.2444 -1.1579
 1361SOL     OW16141   1.166   2.816   3.561  0.0818 -0.3418  0.1195
 1361SOL    HW116142   1.220   2.809   3.477 -2.1960  0.5367 -1.4838
 1361SOL    HW216143   1.193   2.898   3.611  2.1792 -1.4246  0.8089
 1362SOL     OW16144   4.637   0.298   6.539 -0.3168 -0.3139  0.9258
 1362SOL    HW116145   4.563   0.261   6.482  0.0944  1.6695 -0.9756
 1362SOL    HW216146   4.609   0.387   6.575  0.1478 -0.7464  2.3685
 1363SOL     OW16147   3.801   3.728   1.601  0.8783  0.4091  0.1226
 1363SOL    HW116148   3.724   3.675   1.568  0.5075  0.7688  0.4075
 1363SOL    HW216149   3.881   3.668   1.611  1.0296  0.3145 -1.4930
 1364SOL     OW16150   2.840   5.067   8.018  0.7202  0.5734  0.0312
 1364SOL    HW116151   2.877   5.061   7.925 -0.2511  0.8255 -0.3807
 1364SOL    HW216152   2.785   4.986   8.036  2.8845 -0.6687  1.2885
 1365SOL     OW16153   9.783   8.720   5.390  0.7940  0.3357 -0.3392
 1365SOL    HW116154   9.843   8.655   5.437  0.1719 -0.5582 -0.7810
 1365SOL    HW216155   9.796   8.712   5.292  0.9482  1.1101 -0.3851
 1366SOL     OW16156   8.497   2.765   1.893  0.1008 -0.0781 -0.1270
 1366SOL    HW116157   8.493   2.865   1.888  1.8533 -0.0312 -0.6519
 1366SOL    HW216158   8.535   2.738   1.982  0.6565 -0.2604 -0.4232
 1367SOL     OW16159   9.354   6.825   7.390  0.5631 -0.2787 -0.4696
 1367SOL    HW116160   9.403   6.883   7.455  0.6886 -0.2636 -0.5765
 1367SOL    HW216161   9.356   6.868   7.299 -2.1015  1.1468  0.0914
 1368SOL     OW16162   3.228   4.617   6.034 -0.5663 -1.0767  0.7440
 1368SOL    HW116163   3.179   4.698   6.066 -0.0899 -0.0273 -1.0994
 1368SOL    HW216164   3.222   4.545   6.102  0.2310  0.9948  3.0823
 1369SOL     OW16165   3.110   0.069   4.305  0.6365 -0.2586  0.4563
 1369SOL    HW116166   3.048   0.042   4.231 -0.4557 -0.4567  1.4450
 1369SOL    HW216167   3.195   0.104   4.265 -0.1378  0.1067 -0.9057
 1370SOL     OW16168   2.335   1.207   7.676  0.0540 -0.2883 -0.4543
 1370SOL    HW116169   2.287   1.119   7.673 -0.0157 -0.2177 -3.3641
 1370SOL    HW216170   2.293   1.270   7.609  0.7896  1.5939  0.8216
 1371SOL     OW16171   0.435   9.388   1.341  0.8387 -0.0696 -0.0762
 1371SOL    HW116172   0.522   9.395   1.294  0.9934 -4.1108 -0.5147
 1371SOL    HW216173   0.363   9.363   1.275 -0.4063  1.6490  0.5666
 1372SOL     OW16174   3.024   1.506   5.746  0.0324 -0.2516  0.0725
 1372SOL    HW116175   2.957   1.457   5.801  1.4439  1.0424  3.0878
 1372SOL    HW216176   3.011   1.605   5.758  0.2404  0.0558 -2.1214
 1373SOL     OW16177   0.461   8.432   9.946  0.1087 -0.5846  0.0331
 1373SOL    HW116178   0.418   8.499   9.885  1.2843  0.9866  0.8777
 1373SOL    HW216179   0.432   8.340   9.920  0.7954  0.0103 -3.0804
 1374SOL     OW16180   6.869   2.035   0.550  0.4277 -0.5334  0.2098
 1374SOL    HW116181   6.829   2.083   0.472 -0.4686  0.2941  1.1701
 1374SOL    HW216182   6.945   2.088   0.586  1.7454 -1.5945 -0.9554
 1375SOL     OW16183   9.528   2.491   4.073 -0.0053  0.0797  0.2349
 1375SOL    HW116184   9.611   2.538   4.045 -0.5031  0.7985 -0.0625
 1375SOL    HW216185   9.451   2.525   4.019 -0.6630  0.1482  1.1928
 1376SOL     OW16186   2.350   8.781   5.349  0.0113  0.2343 -0.4416
 1376SOL    HW116187   2.362   8.755   5.253  1.2309  0.9531 -0.4879
 1376SOL    HW216188   2.369   8.879   5.360  0.7627 -0.0270  0.6868
 1377SOL     OW16189   2.829   4.807   1.369  0.2195 -0.5828  0.2386
 1377SOL    HW116190   2.865   4.743   1.301 -1.0378  0.5097 -1.5095
 1377SOL    HW216191   2.905   4.856   1.412  0.9819 -0.5025 -1.1693
 1378SOL     OW16192   6.351   4.152   7.046  0.6020 -0.6235 -0.5730
 1378SOL    HW116193   6.265   4.133   7.000 -1.2488  0.0991  2.4114
 1378SOL    HW216194   6.388   4.068   7.086  0.1559 -0.5842 -0.0658
 1379SOL     OW16195   1.652   2.381   6.923  0.4288 -0.5010 -0.2905
 1379SOL    HW116196   1.687   2.304   6.870 -0.2543 -0.4077 -0.8695
 1379SOL    HW216197   1.728   2.444   6.944  0.4208  0.2883 -2.5313
 1380SOL     OW16198   0.364   7.826   7.422  0.4468  0.6946  0.2889
 1380SOL    HW116199   0.438   7.863   7.364  0.9258 -0.0213  0.4390
 1380SOL    HW216200   0.397   7.816   7.515  0.4998 -0.6613  0.1262
 1381SOL     OW16201   5.924   0.454   7.503 -0.2898 -0.6034 -0.5255
 1381SOL    HW116202   5.876   0.541   7.513 -0.6439 -0.7987 -0.5210
 1381SOL    HW216203   5.861   0.379   7.520  0.2664 -0.8495  0.5234
 1382SOL     OW16204   7.071   0.337   5.629  0.1075  0.2348 -0.5121
 1382SOL    HW116205   6.986   0.303   5.669 -0.4154 -0.0746 -1.8758
 1382SOL    HW216206   7.138   0.262   5.625 -0.1486  0.0335 -1.0587
 1383SOL     OW16207   1.377   3.152   2.878 -0.8165 -0.1775  0.3549
 1383SOL    HW116208   1.333   3.144   2.789 -0.2579 -1.4572  0.1809
 1383SOL    HW216209   1.442   3.227   2.877  0.0450 -0.9315 -0.6890
 1384SOL     OW16210   9.338   1.222   4.013  0.1171  0.6011  0.1207
 1384SOL    HW116211   9.298   1.216   3.921  1.3754  3.5377 -0.6403
 1384SOL    HW216212   9.337   1.317   4.044  2.3813  0.0665  1.9553
 1385SOL     OW16213   3.504   2.225   9.714 -0.4216  0.2055 -0.0200
 1385SOL    HW116214   3.444   2.190   9.785  0.0560 -0.7781 -0.0957
 1385SOL    HW216215   3.456   2.225   9.626 -0.6279  0.3396  0.0910
 1386SOL     OW16216   9.225   9.653   2.995 -0.2350  0.0176  0.0703
 1386SOL    HW116217   9.207   9.589   2.920 -2.7157  0.0766  0.5981
 1386SOL    HW216218   9.320   9.642   3.025  0.4848 -0.7777 -2.3250
 1387SOL     OW16219   1.079   1.960   8.655 -0.0043 -0.0869  0.3365
 1387SOL    HW116220   1.161   1.940   8.602 -0.0287  0.9259 -0.0933
 1387SOL    HW216221   0.999   1.961   8.594 -0.1381  0.3246  0.5187
 1388SOL     OW16222   9.755   7.016   8.166  0.2250  0.2682  0.3538
 1388SOL    HW116223   9.726   6.924   8.141  0.1417  0.8968 -1.9704
 1388SOL    HW216224   9.849   7.031   8.134 -0.2278  1.4380 -0.4583
 1389SOL     OW16225   9.832   3.241   4.751 -0.5147 -0.0957 -0.2137
 1389SOL    HW116226   9.813   3.145   4.771 -0.6742  0.3634  1.9157
 1389SOL    HW216227   9.918   3.247   4.700  0.3151 -1.2508  1.0155
 1390SOL     OW16228   1.423   0.731   9.881  0.1227 -0.1107  0.0260
 1390SOL    HW116229   1.400   0.734   9.979  1.7729 -0.3069  0.4448
 1390SOL    HW216230   1.466   0.643   9.860 -0.9069 -0.3623 -1.0380
 1391SOL     OW16231   2.776   4.107   3.783  0.0518 -0.8226 -0.4637
 1391SOL    HW116232   2.802   4.125   3.878 -0.1935  0.2002 -0.5879
 1391SOL    HW216233   2.763   4.008   3.770 -0.6882 -0.8876  0.7517
 1392SOL     OW16234   0.495   6.306   6.871  0.2552 -0.1229 -0.0156
 1392SOL    HW116235   0.522   6.263   6.785 -0.1129  1.1463 -0.7775
 1392SOL    HW216236   0.564   6.373   6.897 -0.5788  0.8555 -0.3127
 1393SOL     OW16237   0.924   8.366   3.380  0.2679 -0.4760 -0.1798
 1393SOL    HW116238   0.913   8.422   3.298  1.9696 -1.7164 -1.3046
 1393SOL    HW216239   0.843   8.309   3.394 -0.8167  1.1221  0.0920
 1394SOL     OW16240   3.936   2.258   4.560 -0.4917  0.1339  0.3087
 1394SOL    HW116241   4.034   2.260   4.578 -0.6164  1.7655  0.8199
 1394SOL    HW216242   3.891   2.199   4.627  0.1481 -0.7256 -0.0073
 1395SOL     OW16243   0.571   7.640   8.162 -0.1514  0.3974 -0.0746
 1395SOL    HW116244   0.527   7.645   8.073  1.9641  0.2654 -1.1574
 1395SOL    HW216245   0.559   7.548   8.200  1.2344 -0.3757 -1.4628
 1396SOL     OW16246   0.606   1.109   9.017  0.3064 -0.3429  0.7836
 1396SOL    HW116247   0.611   1.079   8.922 -0.5961  1.5586  0.1132
 1396SOL    HW216248   0.518   1.081   9.056 -0.1762  0.6499  0.4223
 1397SOL     OW16249   9.390   7.733   7.306 -0.3130 -0.4118  0.2506
 1397SOL    HW116250   9.468   7.679   7.274  1.8256  1.0756  2.7167
 1397SOL    HW216251   9.305   7.684   7.286  1.2459 -2.2521 -2.1541
 1398SOL     OW16252   5.019   3.220   7.257  0.0541 -0.4839 -0.0505
 1398SOL    HW116253   5.002   3.268   7.172 -0.7296 -1.1604 -0.2824
 1398SOL    HW216254   4.938   3.165   7.282  0.3647 -0.4918  0.9847
 1399SOL     OW16255   9.858   9.745   0.365 -0.0586  0.3534 -0.2776
 1399SOL    HW116256   9.785   9.714   0.303  0.7804 -0.7841 -0.7120
 1399SOL    HW216257   9.878   9.842   0.346 -0.2324  0.1892 -1.3713
 1400SOL     OW16258   3.849   2.138   5.784 -0.5041  0.7793 -0.1290
 1400SOL    HW116259   3.861   2.048   5.825 -1.6920  1.6162  2.1010
 1400SOL    HW216260   3.939   2.179   5.766  0.0335 -0.6486 -0.7771
 1401SOL     OW16261   2.636   9.351   1.517 -0.0852  0.7626 -0.1985
 1401SOL    HW116262   2.727   9.368   1.479  0.0383 -0.1651 -0.3451
 1401SOL    HW216263   2.590   9.438   1.534 -0.2927  1.2243 -2.8670
 1402SOL     OW16264   6.389   0.547   0.191  0.6126  0.2946  0.1002
 1402SOL    HW116265   6.399   0.646   0.182 -0.1768  0.3733  0.0091
 1402SOL    HW216266   6.302   0.519   0.150 -0.3813 -0.0963  2.3881
 1403SOL     OW16267   1.166   0.132   7.645  0.1682  0.2421 -0.2722
 1403SOL    HW116268   1.230   0.068   7.687  0.1323 -0.3025 -1.0310
 1403SOL    HW216269   1.184   0.137   7.547  0.1834  1.4153 -0.2156
 1404SOL     OW16270   1.253   2.767   5.986  0.1512  0.2557  0.0623
 1404SOL    HW116271   1.353   2.762   5.980  0.0917 -1.4382  0.1119
 1404SOL    HW216272   1.223   2.719   6.069 -0.6722  1.2753  0.3591
 1405SOL     OW16273   7.682   9.943   4.000 -0.7366  0.2264 -0.1326
 1405SOL    HW116274   7.680   9.991   4.088 -1.4475  1.5357 -0.8522
 1405SOL    HW216275   7.612   9.980   3.940 -1.5180 -1.9610 -0.6022
 1406SOL     OW16276   5.066   5.952   3.244 -0.0230 -0.5023 -0.2252
 1406SOL    HW116277   4.990   5.945   3.179 -0.8131  1.6327  0.4502
 1406SOL    HW216278   5.151   5.973   3.195 -0.4994  0.4733 -0.6166
 1407SOL     OW16279   9.887   5.239   0.886  0.8049 -0.1599  0.1733
 1407SOL    HW116280   9.979   5.229   0.849  0.7564 -2.6211  0.6270
 1407SOL    HW216281   9.852   5.331   0.865  2.2423 -0.1704 -2.5086
 1408SOL     OW16282   2.496   0.339   7.808 -0.0521 -0.6406  0.4596
 1408SOL    HW116283   2.507   0.434   7.778  0.0689 -0.1400  2.0006
 1408SOL    HW216284   2.562   0.320   7.881  0.4690 -2.1732 -0.3886
 1409SOL     OW16285   6.583   8.001   7.577  0.0841  0.0461  0.2959
 1409SOL    HW116286   6.629   8.074   7.527 -1.1162  0.5253 -0.1397
 1409SOL    HW216287   6.601   8.010   7.675  1.6922 -0.3531  0.0500
 1410SOL     OW16288   6.952   3.861   8.958 -0.5688  0.6141  0.3780
 1410SOL    HW116289   6.903   3.923   8.896  0.0040 -0.3874 -1.1028
 1410SOL    HW216290   7.044   3.896   8.974  0.4114 -0.7729 -1.9662
 1411SOL     OW16291   1.539   2.132   5.199 -0.2929  0.3921  0.5260
 1411SOL    HW116292   1.619   2.175   5.242 -0.4101  2.3687 -1.1389
 1411SOL    HW216293   1.455   2.170   5.238 -0.4121  0.2881  0.3708
 1412SOL     OW16294   9.592   9.776   8.318 -0.2288  0.6234 -0.0775
 1412SOL    HW116295   9.495   9.800   8.314 -0.0710  1.0129 -2.5855
 1412SOL    HW216296   9.647   9.859   8.311  0.2760  0.2172 -1.0828
 1413SOL     OW16297   0.454   2.166   1.942  0.3850  0.5832 -0.7541
 1413SOL    HW116298   0.508   2.243   1.908  1.1247  0.1789 -0.5161
 1413SOL    HW216299   0.441   2.176   2.041  0.9376  0.1401 -0.6304
 1414SOL     OW16300   0.435   5.121   8.499  0.8358 -0.1483 -0.1190
 1414SOL    HW116301   0.515   5.090   8.447  0.1772 -2.5497  0.2762
 1414SOL    HW216302   0.356   5.125   8.439  0.7106 -0.1267  0.0491
 1415SOL     OW16303   1.710   1.600   0.206  0.4163 -0.0488  0.1359
 1415SOL    HW116304   1.720   1.501   0.211 -0.8590 -0.0949  2.5610
 1415SOL    HW216305   1.735   1.632   0.115  1.7772 -2.4773 -0.3807
 1416SOL     OW16306   0.564   2.153   8.271  0.3268 -0.1943  0.2863
 1416SOL    HW116307   0.544   2.111   8.359  0.7866  1.3295  1.1521
 1416SOL    HW216308   0.649   2.205   8.278 -1.4175  2.8124 -0.0327
 1417SOL     OW16309   9.823   4.177   6.378 -0.0663  0.5403 -0.0348
 1417SOL    HW116310   9.911   4.173   6.331  0.3920 -1.2133  0.9269
 1417SOL    HW216311   9.805   4.090   6.423 -3.2896  0.1241 -1.9792
 1418SOL     OW16312   9.991   9.069   5.481  0.0553 -0.0676 -0.0027
 1418SOL    HW116313   9.987   8.985   5.535 -2.4419 -0.4115 -0.6812
 1418SOL    HW216314   9.903   9.115   5.483  0.8805  1.6366 -1.0991
 1419SOL     OW16315   2.672   3.475   8.120  0.3984  0.3515 -0.2074
 1419SOL    HW116316   2.691   3.571   8.140  0.6139 -0.1852  2.4075
 1419SOL    HW216317   2.573   3.464   8.107  0.2243  0.7436  0.6950
 1420SOL     OW16318   3.212   2.277   8.239 -0.7332  0.7408  0.2199
 1420SOL    HW116319   3.188   2.272   8.142 -1.0556 -1.5969  0.3768
 1420SOL    HW216320   3.140   2.233   8.294 -0.1666  1.3163  1.4523
 1421SOL     OW16321   5.522   4.659   2.059 -0.2203 -0.0611  0.5416
 1421SOL    HW116322   5.485   4.720   1.990  0.2835  1.7635  1.8469
 1421SOL    HW216323   5.618   4.683   2.077 -0.4966 -0.1724  2.2289
 1422SOL     OW16324   9.254   1.653   6.995  0.0119  0.2771 -0.3782
 1422SOL    HW116325   9.341   1.604   6.996  0.6492  1.3870 -0.9317
 1422SOL    HW216326   9.186   1.600   6.943  0.7856  0.1318 -1.2567
 1423SOL     OW16327   9.784   0.554   0.299  0.0771  0.1599  0.4414
 1423SOL    HW116328   9.832   0.517   0.220  0.7249  1.3355  0.2631
 1423SOL    HW216329   9.686   0.536   0.291  0.1573  0.1743 -0.5685
 1424SOL     OW16330   2.852   2.524   2.491 -0.0105  0.5431 -0.3972
 1424SOL    HW116331   2.773   2.527   2.431  1.6014 -0.8804 -2.6824
 1424SOL    HW216332   2.834   2.460   2.566 -1.2123  0.6665 -0.5660
 1425SOL     OW16333   3.283   8.195   7.028 -0.0437 -0.1626 -0.3427
 1425SOL    HW116334   3.262   8.226   6.936 -2.0083 -0.4112 -0.0047
 1425SOL    HW216335   3.381   8.181   7.037  0.1576 -0.2500 -2.4328
 1426SOL     OW16336   3.190   8.632   7.200 -0.3057 -0.2570 -0.2129
 1426SOL    HW116337   3.167   8.599   7.291 -1.9261 -0.8605 -0.8263
 1426SOL    HW216338   3.159   8.566   7.132  0.5276  0.3821 -1.2328
 1427SOL     OW16339   3.030   3.388   7.334  0.1648  0.7263 -0.4195
 1427SOL    HW116340   3.004   3.470   7.282 -1.8162  0.5214  0.2368
 1427SOL    HW216341   3.059   3.317   7.270  0.1865  1.3238 -1.0859
 1428SOL     OW16342   3.071   4.309   9.829  0.2660 -0.4656 -0.0369
 1428SOL    HW116343   3.041   4.221   9.791 -0.0501 -0.5768  0.4563
 1428SOL    HW216344   3.011   4.334   9.905  0.6274 -0.0365  0.1095
 1429SOL     OW16345   0.028   5.713   0.138 -0.2963 -0.2908 -0.6524
 1429SOL    HW116346  -0.029   5.672   0.208 -1.8863  0.2855 -1.5917
 1429SOL    HW216347  -0.008   5.689   0.048  0.3569  0.9065 -1.2406
 1430SOL     OW16348   2.066   7.795   6.550 -0.3352  0.1613 -0.1111
 1430SOL    HW116349   1.966   7.793   6.546 -0.3711  2.7514 -1.9646
 1430SOL    HW216350   2.103   7.726   6.488 -1.0276  1.4332 -2.0038
 1431SOL     OW16351   7.678   3.960   5.068  0.3542 -0.0964  0.9902
 1431SOL    HW116352   7.687   4.001   5.159  0.2492  0.1054  0.9112
 1431SOL    HW216353   7.667   4.033   5.000 -1.4221 -0.3021  1.0300
 1432SOL     OW16354   9.285   9.809   8.774  0.2460  0.4942 -0.3807
 1432SOL    HW116355   9.186   9.794   8.771  0.0130  1.4859  1.6987
 1432SOL    HW216356   9.311   9.840   8.865  2.3967  0.8645 -1.1031
 1433SOL     OW16357   0.089   2.182   8.606 -0.0336 -0.2904 -0.2035
 1433SOL    HW116358   0.133   2.111   8.661 -0.0376  1.6958  2.4816
 1433SOL    HW216359   0.134   2.269   8.622 -3.0500  1.2518  0.3896
 1434SOL     OW16360   0.342   5.420   7.414  0.2366  0.1412  0.2351
 1434SOL    HW116361   0.309   5.391   7.324  1.5255 -0.1787 -0.1499
 1434SOL    HW216362   0.315   5.353   7.483  0.5235 -0.3755 -0.1549
 1435SOL     OW16363   2.211   0.263   3.828 -0.3930 -0.1021 -0.3614
 1435SOL    HW116364   2.220   0.178   3.777 -1.0221  0.4276 -1.3825
 1435SOL    HW216365   2.133   0.257   3.891 -0.2667 -0.3783 -0.2334
 1436SOL     OW16366   5.813   1.815   0.577  0.1578  0.0357  0.1910
 1436SOL    HW116367   5.728   1.867   0.574  0.4309  0.4534 -0.3458
 1436SOL    HW216368   5.888   1.873   0.546  0.4384 -0.7419 -0.5728
 1437SOL     OW16369   1.604   0.224   9.188 -0.0508  0.3737 -0.1831
 1437SOL    HW116370   1.534   0.289   9.217  1.7737  1.4724  2.0363
 1437SOL    HW216371   1.613   0.152   9.258 -0.0421 -0.6308 -1.2105
 1438SOL     OW16372   1.126   8.727   3.631  0.0094  0.0939 -0.4025
 1438SOL    HW116373   1.193   8.667   3.675  0.0904  1.1210  0.8943
 1438SOL    HW216374   1.054   8.672   3.590  0.3895 -0.9130  0.2593
 1439SOL     OW16375   5.355   9.094   7.261  0.2465  0.3048  0.4487
 1439SOL    HW116376   5.395   9.177   7.222  2.6166 -0.4836  1.0876
 1439SOL    HW216377   5.319   9.114   7.352 -0.1979  0.8781  0.1486
 1440SOL     OW16378   1.128   9.414   2.797  0.1590 -0.0398 -0.2137
 1440SOL    HW116379   1.163   9.381   2.710 -0.5319  2.1682 -1.3735
 1440SOL    HW216380   1.062   9.488   2.781 -0.8040 -0.3283  2.1381
 1441SOL     OW16381   2.140   1.390   1.797 -0.3318  0.2464 -0.1006
 1441SOL    HW116382   2.179   1.339   1.873  0.8516 -1.4873 -1.8228
 1441SOL    HW216383   2.042   1.372   1.792 -0.1191 -0.9541  0.0021
 1442SOL     OW16384   1.499   3.548   6.852  0.0602  0.0701 -0.2620
 1442SOL    HW116385   1.548   3.634   6.840  2.8542 -1.5363 -0.8543
 1442SOL    HW216386   1.440   3.554   6.933  1.5380  1.9184  0.7072
 1443SOL     OW16387   1.645   0.964   2.425  0.5105 -1.0500 -0.4377
 1443SOL    HW116388   1.572   1.032   2.421 -0.0161 -1.5263  0.8908
 1443SOL    HW216389   1.730   1.008   2.452  0.2933 -0.8297 -0.1171
 1444SOL     OW16390   9.957   1.070   5.967  0.0974 -1.0090  0.2173
 1444SOL    HW116391   9.980   1.028   6.055  2.5265  0.9601  0.5774
 1444SOL    HW216392   9.942   1.168   5.980 -1.0775 -0.9657 -1.3271
 1445SOL     OW16393   6.241   9.501   7.740 -0.3784 -0.1706  0.3642
 1445SOL    HW116394   6.248   9.406   7.711 -1.1292 -0.4289  1.0390
 1445SOL    HW216395   6.150   9.536   7.717  0.1644  0.6314 -0.6149
 1446SOL     OW16396   2.851   6.454   8.643  0.2972  0.1224 -0.3776
 1446SOL    HW116397   2.776   6.390   8.629  1.5574 -1.5472  0.3653
 1446SOL    HW216398   2.938   6.408   8.629  1.2032  2.1350 -1.6155
 1447SOL     OW16399   1.277   1.207   2.960  0.0718 -0.1953 -0.3208
 1447SOL    HW116400   1.284   1.125   2.902 -1.6979  0.5638 -1.6653
 1447SOL    HW216401   1.286   1.288   2.902 -0.9046  0.5721  0.6090
 1448SOL     OW16402   1.637   4.831   9.690 -0.1820 -0.0928  0.6964
 1448SOL    HW116403   1.648   4.862   9.596 -0.4629  2.2806  1.4242
 1448SOL    HW216404   1.622   4.732   9.691  0.7428 -0.2802 -1.6745
 1449SOL     OW16405   4.007   3.479   9.286 -0.2579 -0.2143  0.2665
 1449SOL    HW116406   3.926   3.427   9.314 -0.8012  0.9932  0.9812
 1449SOL    HW216407   4.085   3.417   9.277 -0.8338 -1.1259  1.3537
 1450SOL     OW16408   4.295   3.049   9.553  0.3748  0.1373  0.0554
 1450SOL    HW116409   4.220   3.103   9.591  1.0865  0.2442  1.3121
 1450SOL    HW216410   4.308   2.966   9.607  0.0372 -0.7377 -1.1920
 1451SOL     OW16411   0.381   4.586   8.949 -0.0870 -0.2908  0.2410
 1451SOL    HW116412   0.368   4.531   9.031  1.3504 -1.8963 -0.5914
 1451SOL    HW216413   0.302   4.576   8.889 -0.7013  0.1115  0.9762
 1452SOL     OW16414   2.136   1.490   4.650 -0.0027 -0.9861 -0.1255
 1452SOL    HW116415   2.074   1.415   4.674  0.6292 -1.1910  0.8797
 1452SOL    HW216416   2.214   1.490   4.712  0.8238 -0.4966 -1.1520
 1453SOL     OW16417   4.003   0.179   3.797  0.2959 -0.7488  0.2191
 1453SOL    HW116418   3.918   0.182   3.850 -0.0098 -1.0845 -0.2511
 1453SOL    HW216419   4.057   0.261   3.817 -1.5708  1.0398 -1.8530
 1454SOL     OW16420   0.634   2.022   6.933  0.3901 -0.1849  0.4504
 1454SOL    HW116421   0.709   2.086   6.953  1.0419 -0.5920 -0.6574
 1454SOL    HW216422   0.668   1.928   6.940  0.0004 -0.3704 -0.1421
 1455SOL     OW16423   3.568   5.687   2.887  0.5110  0.4509  0.1424
 1455SOL    HW116424   3.503   5.629   2.836  3.0917 -1.4461 -1.1121
 1455SOL    HW216425   3.570   5.778   2.846 -1.6894  0.7089  0.5143
 1456SOL     OW16426   6.841   4.776   2.747  0.2606 -0.1788 -0.6867
 1456SOL    HW116427   6.767   4.820   2.695 -0.4497 -0.8878 -0.2936
 1456SOL    HW216428   6.911   4.844   2.769 -0.4716  0.5941 -0.7149
 1457SOL     OW16429   0.143   3.507   6.147  0.5633 -0.1111 -0.2478
 1457SOL    HW116430   0.045   3.527   6.146  0.3311 -1.2087  0.3915
 1457SOL    HW216431   0.176   3.508   6.241  0.9508 -0.7795 -0.3782
 1458SOL     OW16432   2.730   2.689   9.170  0.8541 -0.4605  0.0273
 1458SOL    HW116433   2.643   2.726   9.204  0.6423  0.1673 -1.1719
 1458SOL    HW216434   2.739   2.593   9.198 -0.5818 -0.7559 -0.4908
 1459SOL     OW16435   3.918   3.994   5.054 -0.0961 -0.3579 -0.1373
 1459SOL    HW116436   3.939   4.079   5.006 -0.4419  0.8963  1.8770
 1459SOL    HW216437   3.983   3.980   5.129 -0.9455 -1.0796  0.4858
 1460SOL     OW16438   2.444   8.361   6.986 -1.0929  0.1884  0.7366
 1460SOL    HW116439   2.376   8.363   6.912 -0.6809  0.1037  0.3551
 1460SOL    HW216440   2.508   8.437   6.975  0.4901 -1.2784 -0.4395
 1461SOL     OW16441   7.625   9.966   9.959 -0.0797  0.2944 -0.3765
 1461SOL    HW116442   7.555   9.899   9.985 -0.9260  1.0131 -0.7769
 1461SOL    HW216443   7.689   9.977  10.035 -0.9317  0.3090  0.3596
 1462SOL     OW16444   1.773   4.121   9.245  0.1409 -0.4422  0.2009
 1462SOL    HW116445   1.819   4.067   9.316  1.7253 -0.3817 -0.7693
 1462SOL    HW216446   1.747   4.210   9.283  0.1767 -0.7529  0.9605
 1463SOL     OW16447   9.712   7.328   8.417  0.0704 -0.5889  0.0366
 1463SOL    HW116448   9.705   7.231   8.443  1.0642 -1.4196 -2.6166
 1463SOL    HW216449   9.808   7.357   8.422 -0.4071  0.7262  2.2775
 1464SOL     OW16450   9.003   1.987   6.542 -0.1365 -0.4410 -0.3262
 1464SOL    HW116451   9.020   2.041   6.624 -2.4846 -1.1112  0.6479
 1464SOL    HW216452   9.072   1.915   6.535 -1.0414 -1.6304  2.2108
 1465SOL     OW16453   9.005   1.315   8.755  0.0392  0.0655 -0.2254
 1465SOL    HW116454   8.939   1.295   8.682  2.9690 -1.8335 -2.4841
 1465SOL    HW216455   8.999   1.243   8.824  0.7271 -0.9155 -1.1681
 1466SOL     OW16456   1.459   6.966   2.365  0.2954  0.3270 -0.1156
 1466SOL    HW116457   1.389   7.000   2.427  1.0192 -0.5527  1.2161
 1466SOL    HW216458   1.438   6.871   2.339 -0.8376  1.1990 -2.4869
 1467SOL     OW16459   0.627   9.867   4.480  0.3178  0.1249 -0.2118
 1467SOL    HW116460   0.563   9.917   4.538  1.9421  1.1129  0.7504
 1467SOL    HW216461   0.576   9.806   4.419 -1.6239  2.1059 -0.6202
 1468SOL     OW16462   4.315   8.578   0.405 -0.8360  0.0064 -0.5815
 1468SOL    HW116463   4.254   8.628   0.467 -3.2261  0.5218 -3.2372
 1468SOL    HW216464   4.287   8.595   0.310  0.6593 -3.3972 -1.7049
 1469SOL     OW16465   3.092   7.769   6.736 -0.4464  0.0170 -0.0452
 1469SOL    HW116466   2.998   7.766   6.703 -1.4738  0.4638  2.6929
 1469SOL    HW216467   3.146   7.830   6.679 -2.1861  0.9073 -0.7626
 1470SOL     OW16468   8.921   9.769   5.030 -0.0008 -0.1410 -0.1944
 1470SOL    HW116469   8.888   9.813   5.114 -0.9242 -0.5499 -0.3361
 1470SOL    HW216470   9.008   9.811   5.002 -0.1178  0.5719  0.4954
 1471SOL     OW16471   4.905   8.828   9.209 -0.0639  0.8786  0.5127
 1471SOL    HW116472   4.890   8.915   9.257  1.9923  0.9247  1.1080
 1471SOL    HW216473   4.974   8.775   9.258  0.6116  0.0564 -1.3191
 1472SOL     OW16474   1.960   7.298   5.088 -0.0396 -0.1842 -0.0282
 1472SOL    HW116475   2.009   7.243   5.020 -0.5765 -1.0133  0.2560
 1472SOL    HW216476   1.890   7.352   5.042  0.5669  0.3577 -0.3232
 1473SOL     OW16477   0.376   5.103   8.010  0.0813  0.2423  0.1577
 1473SOL    HW116478   0.328   5.185   8.039 -1.7769 -0.9289  0.5003
 1473SOL    HW216479   0.318   5.051   7.947  1.0801 -0.9750  0.2138
 1474SOL     OW16480   3.867   6.381   1.130  0.7366  0.1655  0.0263
 1474SOL    HW116481   3.789   6.349   1.182  2.0087 -1.5569  0.9112
 1474SOL    HW216482   3.845   6.468   1.087 -1.5038 -0.0963  0.6162
 1475SOL     OW16483   0.053   4.255   9.637  0.5908 -0.1763  0.1757
 1475SOL    HW116484   0.006   4.225   9.553 -0.7589  0.5106  0.6768
 1475SOL    HW216485   0.031   4.351   9.655 -2.3305 -1.3628  3.4514
 1476SOL     OW16486   2.329   0.765   7.921 -0.0812  0.2175 -0.2667
 1476SOL    HW116487   2.254   0.813   7.876  0.0858  0.2090 -0.5503
 1476SOL    HW216488   2.384   0.831   7.973  0.7519  0.4880 -1.4859
 1477SOL     OW16489   6.401   3.009   1.932 -0.8663  0.2099 -0.4951
 1477SOL    HW116490   6.333   2.993   2.004  0.3381  1.2523  0.9350
 1477SOL    HW216491   6.482   2.954   1.950  0.6272  2.6574  0.6986
 1478SOL     OW16492   5.155   8.302   9.093  0.0981  0.5603  0.0024
 1478SOL    HW116493   5.214   8.254   9.157 -0.9616  1.0694  1.3918
 1478SOL    HW216494   5.197   8.303   9.002  2.2568  0.9673  0.9737
 1479SOL     OW16495   2.009   3.409   0.134 -0.3312 -0.1209 -0.3356
 1479SOL    HW116496   2.076   3.477   0.102 -0.7623 -0.0354 -1.0738
 1479SOL    HW216497   2.055   3.322   0.149  0.0440  0.0752 -0.3402
 1480SOL     OW16498   2.671   7.626   2.911 -0.4180 -0.2525  0.3967
 1480SOL    HW116499   2.683   7.683   2.992 -0.6023 -2.3957  1.9887
 1480SOL    HW216500   2.574   7.600   2.903 -0.5808  0.7700 -1.0958
 1481SOL     OW16501   3.289   4.329   2.981  0.1897  0.3617 -0.2865
 1481SOL    HW116502   3.221   4.336   3.054  1.2864  0.1494  0.7848
 1481SOL    HW216503   3.287   4.237   2.942 -1.4809  0.9444 -1.6213
 1482SOL     OW16504   4.021   0.415   0.268 -0.0414  0.0016  0.2891
 1482SOL    HW116505   3.974   0.502   0.267  1.6032  0.9198  0.5720
 1482SOL    HW216506   3.964   0.345   0.311 -0.9990  1.1461  0.8690
 1483SOL     OW16507   3.087   0.244   7.523 -0.2821 -0.1345 -0.2508
 1483SOL    HW116508   3.114   0.157   7.563 -2.9272 -0.3038  1.3093
 1483SOL    HW216509   3.074   0.311   7.596  0.0669  1.0938 -1.2978
 1484SOL     OW16510   8.549   3.985   7.844 -0.4322  0.1979  0.0217
 1484SOL    HW116511   8.609   3.912   7.876 -0.8089 -0.1594 -0.0762
 1484SOL    HW216512   8.586   4.024   7.760 -0.6980 -0.4921 -0.4204
 1485SOL     OW16513   8.010   3.184   9.483  0.0833  0.2540 -0.4581
 1485SOL    HW116514   8.002   3.204   9.581  0.8826 -2.3171  0.1725
 1485SOL    HW216515   8.095   3.224   9.448 -1.4978  3.5300 -0.7891
 1486SOL     OW16516   0.152   6.548   5.936  0.2070  0.6695  0.1856
 1486SOL    HW116517   0.079   6.523   6.000 -0.6254 -2.5945 -1.9228
 1486SOL    HW216518   0.241   6.523   5.975 -0.1302  0.7453  1.0045
 1487SOL     OW16519   8.730   0.945   0.551  0.0169 -0.1265  0.1903
 1487SOL    HW116520   8.669   0.866   0.541  0.6614 -0.4388 -1.4005
 1487SOL    HW216521   8.825   0.914   0.548  0.2688  0.6016  0.5907
 1488SOL     OW16522   7.943   9.327   5.582  0.8395 -0.0602 -0.1811
 1488SOL    HW116523   7.877   9.377   5.525  1.5211  2.7739  1.4071
 1488SOL    HW216524   7.944   9.231   5.555 -3.5646 -0.1107 -0.6140
 1489SOL     OW16525   9.329   4.571   7.378 -0.1979  0.0764  0.6776
 1489SOL    HW116526   9.296   4.594   7.469 -0.6827 -0.1391  0.5586
 1489SOL    HW216527   9.409   4.512   7.385 -1.4088 -1.5507  0.9508
 1490SOL     OW16528   7.106   3.240   7.534  0.5083  0.1425 -0.0962
 1490SOL    HW116529   7.152   3.204   7.614  0.5322 -2.5185 -1.2728
 1490SOL    HW216530   7.093   3.339   7.545  3.0584  0.3073  1.8912
 1491SOL     OW16531   9.553   0.654   7.416 -0.3935 -0.2754  0.3843
 1491SOL    HW116532   9.510   0.638   7.505  1.4265  0.2790  1.4046
 1491SOL    HW216533   9.541   0.750   7.390 -0.5562 -0.3348  0.2430
 1492SOL     OW16534   3.875   3.804   9.990 -0.5695 -0.2213  0.2066
 1492SOL    HW116535   3.811   3.816  10.066 -1.5492 -0.0201 -0.6244
 1492SOL    HW216536   3.824   3.775   9.909  0.7129 -2.3276  0.1275
 1493SOL     OW16537   1.132   1.737   2.716 -0.1951  0.1095 -0.0145
 1493SOL    HW116538   1.219   1.744   2.668  0.6530 -1.3085  1.2933
 1493SOL    HW216539   1.061   1.708   2.652  0.7893 -1.0622 -0.5997
 1494SOL     OW16540   5.376   8.531   8.811 -0.1979 -0.3536 -0.2340
 1494SOL    HW116541   5.304   8.573   8.866 -1.0193 -0.9699 -0.8176
 1494SOL    HW216542   5.445   8.492   8.871  0.7010  1.9980  0.3188
 1495SOL     OW16543   7.994   1.032   4.421 -0.0691  0.3349  0.0357
 1495SOL    HW116544   7.954   0.942   4.435 -1.1235  1.1482  2.6021
 1495SOL    HW216545   8.067   1.047   4.487 -1.4058  2.1732  1.1830
 1496SOL     OW16546   1.218   9.829   1.690 -0.3425  0.0962 -0.2354
 1496SOL    HW116547   1.292   9.842   1.756 -1.1791 -1.5609  1.0449
 1496SOL    HW216548   1.140   9.886   1.716 -0.5013 -0.2070 -0.0407
 1497SOL     OW16549   9.172   4.291   9.469  0.0277 -0.2901  0.1442
 1497SOL    HW116550   9.123   4.327   9.390  0.4298 -0.8412 -0.3604
 1497SOL    HW216551   9.175   4.191   9.464 -0.6457 -0.3776  1.2719
 1498SOL     OW16552   0.897   3.540   3.202 -0.2305  0.6453 -0.0226
 1498SOL    HW116553   0.990   3.520   3.171  0.7116  3.5305  0.7454
 1498SOL    HW216554   0.879   3.490   3.287  0.7293  0.3202  0.0004
 1499SOL     OW16555   3.090   2.865   3.857 -0.0510  0.0045 -0.2215
 1499SOL    HW116556   3.091   2.851   3.758  0.9488  0.1217 -0.2362
 1499SOL    HW216557   3.181   2.845   3.894 -0.3915  0.0676  0.6589
 1500SOL     OW16558   3.417   4.306   9.093  0.5967 -0.2004 -0.5409
 1500SOL    HW116559   3.403   4.287   9.190 -1.1476 -0.7613 -0.8773
 1500SOL    HW216560   3.458   4.225   9.049 -1.1546 -0.9719 -0.7882
 1501SOL     OW16561   3.368   6.605   1.146 -0.1025 -0.7612 -0.2367
 1501SOL    HW116562   3.422   6.599   1.230 -0.6251  0.4791  0.2073
 1501SOL    HW216563   3.420   6.653   1.075 -0.5093  0.2172  0.1141
 1502SOL     OW16564   2.369   4.007   7.422  0.5872  0.1114 -0.3208
 1502SOL    HW116565   2.444   3.942   7.410 -0.0158 -0.4944 -0.8666
 1502SOL    HW216566   2.334   4.000   7.515  1.3655  0.5752  0.0168
 1503SOL     OW16567   2.338   3.484   6.424  0.1424  0.1874 -0.4104
 1503SOL    HW116568   2.260   3.422   6.433 -1.1691  1.5340 -2.0990
 1503SOL    HW216569   2.338   3.549   6.500 -0.0164 -0.2171 -0.0643
 1504SOL     OW16570   8.177   2.951   0.324  0.3816  0.4467  0.0583
 1504SOL    HW116571   8.146   3.026   0.382 -1.8537 -0.8512  0.6201
 1504SOL    HW216572   8.110   2.938   0.250  0.5209 -1.2427  0.2151
 1505SOL     OW16573   4.222   0.808   8.821 -0.1150 -0.0439 -0.4250
 1505SOL    HW116574   4.157   0.855   8.880  0.8939  2.0449 -0.9281
 1505SOL    HW216575   4.175   0.775   8.739 -0.4009  2.1731 -1.1737
 1506SOL     OW16576   1.425   8.088   8.389 -1.0207 -0.6697  0.6242
 1506SOL    HW116577   1.513   8.113   8.351 -0.5280 -0.1224  2.0944
 1506SOL    HW216578   1.389   8.008   8.340 -0.2621 -0.1875 -0.7391
 1507SOL     OW16579   3.416   1.287   2.123  0.5196  0.2106 -0.2692
 1507SOL    HW116580   3.429   1.198   2.167  0.5560 -0.0191 -0.7409
 1507SOL    HW216581   3.390   1.273   2.027  1.1456  0.7149 -0.5107
 1508SOL     OW16582   2.760   2.439   7.369  0.1355 -0.2380 -0.1353
 1508SOL    HW116583   2.671   2.481   7.353  0.4298  0.0835 -0.9254
 1508SOL    HW216584   2.826   2.510   7.393  0.1855 -0.4763  0.4402
 1509SOL     OW16585   1.356   3.424   6.453 -0.1923  0.3343  0.0452
 1509SOL    HW116586   1.419   3.502   6.451 -0.8392  0.9759  2.5667
 1509SOL    HW216587   1.298   3.426   6.371 -0.5812  2.8750  0.3180
 1510SOL     OW16588   3.839   3.113   7.508 -0.2069 -0.1283 -0.3935
 1510SOL    HW116589   3.822   3.019   7.538  1.0325  0.5859  2.6745
 1510SOL    HW216590   3.752   3.161   7.498 -0.7144 -0.7498  0.9420
 1511SOL     OW16591   2.020   6.650   0.326  0.3427 -0.6322  0.6623
 1511SOL    HW116592   2.085   6.724   0.345 -0.3529  0.1065  0.1834
 1511SOL    HW216593   2.014   6.589   0.405  1.7920 -0.8421  0.6293
 1512SOL     OW16594   5.159   2.286   6.468 -0.6429  0.1374  0.2191
 1512SOL    HW116595   5.218   2.280   6.549 -1.1687  0.6035  0.6384
 1512SOL    HW216596   5.199   2.349   6.402 -1.1549  1.2297  0.9269
 1513SOL     OW16597   3.907   2.807   0.293 -0.1137 -0.1209 -0.2130
 1513SOL    HW116598   3.808   2.802   0.307 -0.0779  0.4157  0.2516
 1513SOL    HW216599   3.934   2.903   0.280  0.4299 -0.2050  0.3079
 1514SOL     OW16600   8.394   9.444   5.488 -0.1545  0.1951  0.2742
 1514SOL    HW116601   8.362   9.455   5.583 -0.4968 -0.0566  0.1904
 1514SOL    HW216602   8.318   9.460   5.425  0.1028  0.4814  0.0391
 1515SOL     OW16603   7.921   1.502   6.218 -1.0096 -0.1739 -0.2837
 1515SOL    HW116604   7.841   1.561   6.231  0.3341  1.8559 -0.9011
 1515SOL    HW216605   8.001   1.544   6.262  0.0552 -1.3736 -1.0347
 1516SOL     OW16606   4.981   3.143   8.951 -0.3246  0.5005  0.1231
 1516SOL    HW116607   5.011   3.051   8.976 -0.4085  0.1923 -0.8633
 1516SOL    HW216608   4.896   3.166   8.999 -0.7587 -0.2706 -0.2806
 1517SOL     OW16609   2.603   0.935   4.556 -0.1432  0.0650 -0.2242
 1517SOL    HW116610   2.606   0.978   4.647 -0.0871 -1.1308  0.3436
 1517SOL    HW216611   2.570   1.002   4.489  2.6597  1.8649  0.1358
 1518SOL     OW16612   4.306   5.343   5.042  0.0415 -0.4482 -0.2415
 1518SOL    HW116613   4.258   5.295   5.115 -1.2591  1.4172  0.1602
 1518SOL    HW216614   4.246   5.351   4.962 -0.2910  1.6869  0.1799
 1519SOL     OW16615   8.963   1.089   6.314  0.0500 -0.4708 -0.1171
 1519SOL    HW116616   9.002   1.023   6.379 -1.0260 -0.9523  0.0403
 1519SOL    HW216617   8.937   1.172   6.363  3.6525  1.0853 -0.6735
 1520SOL     OW16618   9.896   9.943   8.679  0.1380 -0.1238 -0.3091
 1520SOL    HW116619   9.919   9.907   8.588  2.0367 -1.9365  0.8470
 1520SOL    HW216620   9.976   9.939   8.738 -1.1521  0.7347  1.5647
 1521SOL     OW16621   0.898   8.617   6.240  0.0652 -0.8366  0.1657
 1521SOL    HW116622   0.931   8.523   6.239  0.4017 -0.7462  1.7660
 1521SOL    HW216623   0.810   8.621   6.288  1.1960 -0.0036  2.2739
 1522SOL     OW16624   1.839   5.168   9.915  0.2776  0.3887  0.1136
 1522SOL    HW116625   1.890   5.124   9.841  0.7177  0.6244  0.2726
 1522SOL    HW216626   1.903   5.214   9.977  0.0301 -0.9797  1.4245
 1523SOL     OW16627   1.705   7.052   8.129 -0.1874  0.1321 -0.5011
 1523SOL    HW116628   1.765   7.055   8.209 -1.1008  0.8458  0.1827
 1523SOL    HW216629   1.755   7.079   8.048  0.6691 -0.2660 -0.1070
 1524SOL     OW16630   6.841   8.937   5.898 -0.4309 -0.0513  0.4740
 1524SOL    HW116631   6.810   8.844   5.921 -1.5037 -0.5523 -2.7565
 1524SOL    HW216632   6.761   8.997   5.888 -0.0583  0.0550 -2.1014
 1525SOL     OW16633   8.975   0.178   0.211  0.3768 -0.3032  0.1006
 1525SOL    HW116634   9.023   0.139   0.289  0.3109  1.6723  1.1338
 1525SOL    HW216635   8.907   0.112   0.178  1.6672 -1.8910  0.5240
 1526SOL     OW16636   3.424   9.570   5.128  0.2522  0.7519 -0.8664
 1526SOL    HW116637   3.434   9.519   5.213 -1.0079  1.4734 -0.2678
 1526SOL    HW216638   3.417   9.507   5.051 -2.1122 -0.0535 -0.0505
 1527SOL     OW16639   8.986   3.777   1.691  0.2883  0.1191 -0.3202
 1527SOL    HW116640   8.931   3.741   1.616  0.5155 -0.7957 -0.0590
 1527SOL    HW216641   9.073   3.728   1.694 -0.3128 -0.9044  1.4559
 1528SOL     OW16642   9.754   4.824   5.447 -0.3222  0.2339 -0.3308
 1528SOL    HW116643   9.719   4.740   5.406  1.2322 -0.8553  0.4997
 1528SOL    HW216644   9.776   4.807   5.543  1.4209  1.1650 -0.5345
 1529SOL     OW16645   1.574   4.436   0.079 -0.2178 -0.7569 -0.0299
 1529SOL    HW116646   1.522   4.440  -0.006 -0.1917  0.8126  0.0115
 1529SOL    HW216647   1.574   4.526   0.122 -0.1725 -1.5151  1.6005
 1530SOL     OW16648   1.675   2.988   6.016 -0.1843 -0.2029 -0.1255
 1530SOL    HW116649   1.705   2.945   5.930  1.1406  0.9744 -0.2708
 1530SOL    HW216650   1.599   2.936   6.053 -3.2600  1.3339 -3.9287
 1531SOL     OW16651   9.908   0.108   6.804  0.2072  0.1230  0.6831
 1531SOL    HW116652   9.846   0.185   6.819  0.4582  0.6167 -0.7391
 1531SOL    HW216653   9.862   0.040   6.746  1.5776  1.3058 -1.8967
 1532SOL     OW16654   7.571   9.590   7.481 -0.3283  0.3250 -0.5352
 1532SOL    HW116655   7.640   9.536   7.530 -1.4180 -1.0560 -0.4757
 1532SOL    HW216656   7.556   9.677   7.528  1.2673  0.5750 -0.4739
 1533SOL     OW16657   7.336   2.113   2.640  0.0042  0.1825 -0.0384
 1533SOL    HW116658   7.335   2.171   2.721  0.6783  3.1676 -2.0554
 1533SOL    HW216659   7.430   2.106   2.605 -0.2532 -1.1916 -0.4855
 1534SOL     OW16660   2.984   7.398   6.291 -0.1174 -0.0642  0.0527
 1534SOL    HW116661   3.054   7.328   6.276 -0.4887 -0.1523 -1.2823
 1534SOL    HW216662   2.998   7.440   6.381  1.4910 -0.2640 -0.0902
 1535SOL     OW16663   8.964   9.177   6.743 -0.1345  0.1134 -0.0255
 1535SOL    HW116664   8.962   9.244   6.817  2.6929  1.2417 -0.9212
 1535SOL    HW216665   8.954   9.225   6.655 -0.1329 -0.8682 -0.5706
 1536SOL     OW16666   0.362   2.882   2.410 -0.6133 -0.1419  0.5418
 1536SOL    HW116667   0.434   2.923   2.466  0.3503 -0.6822 -0.2857
 1536SOL    HW216668   0.285   2.945   2.404  0.0552  0.7234  0.8934
 1537SOL     OW16669   2.413   9.485   7.132  0.0573 -0.1121 -0.0963
 1537SOL    HW116670   2.411   9.446   7.224 -1.4484  1.3519  0.5207
 1537SOL    HW216671   2.475   9.563   7.131 -0.1817  0.0760 -0.2351
 1538SOL     OW16672   3.670   2.993   7.914  0.2222  0.9208 -0.4698
 1538SOL    HW116673   3.581   3.022   7.950  0.1790  2.6168 -1.8651
 1538SOL    HW216674   3.734   3.069   7.916  1.4694 -0.1124 -0.0905
 1539SOL     OW16675   0.703   1.112   9.538 -0.3559  0.6072  0.0439
 1539SOL    HW116676   0.628   1.107   9.604 -0.9625 -4.3164 -0.8406
 1539SOL    HW216677   0.668   1.147   9.451 -1.9588 -2.6099 -0.6709
 1540SOL     OW16678   2.450   2.650   8.507 -0.4517  0.0710  0.3219
 1540SOL    HW116679   2.527   2.595   8.473  1.1617  1.9768  0.8174
 1540SOL    HW216680   2.393   2.593   8.566  0.2082 -1.5456 -0.5327
 1541SOL     OW16681   2.085   1.536   8.859 -0.0674 -0.4950  0.4555
 1541SOL    HW116682   1.996   1.513   8.899  0.6007 -0.6805  1.8796
 1541SOL    HW216683   2.101   1.635   8.866 -0.4962 -0.3617 -0.4976
 1542SOL     OW16684   9.094   1.927   0.898  0.4311 -0.2977 -0.1251
 1542SOL    HW116685   9.193   1.934   0.897  0.5912 -1.8319  1.8161
 1542SOL    HW216686   9.054   2.014   0.929  1.4280 -1.1247  3.7664
 1543SOL     OW16687   1.358   0.945   9.468 -0.2129 -0.2365  0.2000
 1543SOL    HW116688   1.327   0.867   9.523 -2.8846  1.0537  0.5673
 1543SOL    HW216689   1.457   0.953   9.475 -0.2640 -1.5672  2.8632
 1544SOL     OW16690   3.532   1.284   7.625  0.5635  0.3896  0.2010
 1544SOL    HW116691   3.567   1.270   7.532  1.4523 -2.3662  0.9087
 1544SOL    HW216692   3.594   1.241   7.691 -1.8397 -0.7582  1.8068
 1545SOL     OW16693   0.808   8.062   7.249 -0.2030  0.5723  0.0554
 1545SOL    HW116694   0.875   8.114   7.301  1.7559 -1.4519 -0.3806
 1545SOL    HW216695   0.823   8.077   7.151 -0.7426  0.5448 -0.0334
 1546SOL     OW16696   2.242   3.420   0.707  0.2976  0.3135 -0.1819
 1546SOL    HW116697   2.187   3.429   0.625  0.6186 -3.2739 -0.8475
 1546SOL    HW216698   2.332   3.383   0.684  0.7898  0.2913  1.6573
 1547SOL     OW16699   3.680   7.931   8.774  0.0806  0.1368  0.2683
 1547SOL    HW116700   3.650   8.002   8.710  0.0686 -0.1002  0.0082
 1547SOL    HW216701   3.643   7.843   8.745  0.3951 -0.0344  0.3847
 1548SOL     OW16702   1.349   1.811   1.590 -0.5538 -0.0347 -0.8518
 1548SOL    HW116703   1.331   1.826   1.493 -1.8199  0.6936 -0.5156
 1548SOL    HW216704   1.346   1.898   1.639  1.4836 -0.2154 -0.3755
 1549SOL     OW16705   6.884   4.256   8.687  0.0678 -0.3261  0.7869
 1549SOL    HW116706   6.887   4.323   8.612 -0.6401 -0.6934  0.4148
 1549SOL    HW216707   6.972   4.210   8.694 -0.1393 -0.9675 -0.4731
 1550SOL     OW16708   3.980   7.119   3.276  0.1640  0.0822 -0.3940
 1550SOL    HW116709   3.938   7.087   3.360  0.1756 -1.6519 -1.0220
 1550SOL    HW216710   3.965   7.217   3.265 -0.9093  0.0720  0.9930
 1551SOL     OW16711   2.161   1.909   7.071  0.2569 -0.2691  0.2847
 1551SOL    HW116712   2.203   1.825   7.103  0.6367 -0.0204  0.4460
 1551SOL    HW216713   2.212   1.988   7.107 -0.8410  0.0540  1.1696
 1552SOL     OW16714   3.494   7.054   4.193  0.3834  0.4676  0.4474
 1552SOL    HW116715   3.470   6.971   4.144  0.9204  0.3439  0.3908
 1552SOL    HW216716   3.590   7.050   4.221  0.7109  1.5115 -0.4622
 1553SOL     OW16717   1.878   1.842   0.546  0.1122 -0.0182  0.1338
 1553SOL    HW116718   1.864   1.775   0.619 -0.9933 -0.1183 -0.1527
 1553SOL    HW216719   1.806   1.912   0.550  1.1993  1.0993  0.3676
 1554SOL     OW16720   3.279   6.178   1.049  0.6387 -0.2851 -0.1743
 1554SOL    HW116721   3.200   6.116   1.045  1.2199 -1.1002  0.8350
 1554SOL    HW216722   3.362   6.127   1.027  1.2414 -0.0871  1.5612
 1555SOL     OW16723   5.452   2.306   3.113 -0.8333  0.0965  0.2070
 1555SOL    HW116724   5.427   2.397   3.081  0.2394 -0.2594 -1.7578
 1555SOL    HW216725   5.397   2.282   3.193 -1.2713  2.3695  0.6312
 1556SOL     OW16726   0.606   3.381   7.640 -0.5674  0.2023  0.1840
 1556SOL    HW116727   0.651   3.378   7.729  1.0695  1.9342 -0.5703
 1556SOL    HW216728   0.673   3.403   7.569 -2.0729 -0.0316 -1.3388
 1557SOL     OW16729   9.502   1.901   9.162  0.1917 -0.6391 -0.3263
 1557SOL    HW116730   9.557   1.843   9.102  0.2064 -1.3101  0.3277
 1557SOL    HW216731   9.491   1.992   9.121  1.2776 -0.6953 -0.7461
 1558SOL     OW16732   0.336   1.354   3.376  0.0833 -0.0559  0.3311
 1558SOL    HW116733   0.420   1.327   3.423  0.2681 -1.6806 -0.8771
 1558SOL    HW216734   0.340   1.324   3.281 -1.0380  1.6249 -0.2590
 1559SOL     OW16735   6.242   5.614   8.077  0.0694 -0.5660  0.7323
 1559SOL    HW116736   6.185   5.679   8.127  0.5892 -0.0848  0.7070
 1559SOL    HW216737   6.314   5.664   8.028 -0.0656 -1.0819 -0.0015
 1560SOL     OW16738   8.552   1.272   4.350  0.0303 -0.5004 -0.8312
 1560SOL    HW116739   8.556   1.299   4.446 -3.0153  0.3414 -0.8836
 1560SOL    HW216740   8.549   1.172   4.343 -3.6920 -0.5360  0.2189
 1561SOL     OW16741   5.290   4.053   0.840  0.0708 -0.1399  0.6196
 1561SOL    HW116742   5.246   4.065   0.751  1.5101 -1.9083 -0.3668
 1561SOL    HW216743   5.246   4.112   0.907 -2.1369 -0.0025 -0.8930
 1562SOL     OW16744   2.451   1.049   7.068 -0.0823 -0.9166 -0.0177
 1562SOL    HW116745   2.440   1.028   7.165  0.5657 -1.7507 -0.1197
 1562SOL    HW216746   2.369   1.022   7.018 -0.1256 -1.1610  0.1862
 1563SOL     OW16747   7.312   0.511   0.172 -0.0327  0.2954 -0.3672
 1563SOL    HW116748   7.214   0.488   0.178  0.0763  0.0008  0.4713
 1563SOL    HW216749   7.364   0.428   0.151  0.1020  0.2959 -0.0526
 1564SOL     OW16750   2.158   4.226   9.272  0.4777 -0.3286 -0.1961
 1564SOL    HW116751   2.246   4.273   9.270  0.3035 -0.0273 -0.8403
 1564SOL    HW216752   2.125   4.223   9.366  1.0711 -0.2525  0.0203
 1565SOL     OW16753   6.511   3.091   5.967  0.0979 -0.5241  0.0995
 1565SOL    HW116754   6.544   3.135   6.050  1.1316 -1.2020  0.0525
 1565SOL    HW216755   6.424   3.045   5.985 -0.1637  0.1520  0.5558
 1566SOL     OW16756   2.246   0.131   1.365 -0.5509  0.2082  0.5979
 1566SOL    HW116757   2.294   0.218   1.377  0.1491  0.1746 -1.6564
 1566SOL    HW216758   2.151   0.141   1.395 -0.3742  1.6393  0.7220
 1567SOL     OW16759   0.281   1.532   5.198  0.5679 -0.1858  0.4766
 1567SOL    HW116760   0.277   1.434   5.217 -0.2738 -0.3164 -0.3490
 1567SOL    HW216761   0.196   1.562   5.156  1.2797  0.6545 -0.4047
 1568SOL     OW16762   1.134   8.095   9.112 -0.8884 -0.4804 -0.0657
 1568SOL    HW116763   1.067   8.098   9.187  0.4325  1.0988  1.0863
 1568SOL    HW216764   1.214   8.043   9.141 -0.3692  0.1427 -0.3882
 1569SOL     OW16765   2.678   3.341   8.965  0.5179  0.3641  0.5046
 1569SOL    HW116766   2.720   3.281   8.897 -0.4495 -0.1303  0.3345
 1569SOL    HW216767   2.674   3.293   9.053 -1.9257 -0.5316 -0.0642
 1570SOL     OW16768   1.088   1.375   0.516 -0.0046  0.4836  0.4448
 1570SOL    HW116769   1.054   1.459   0.558  0.4483  1.1076 -0.4116
 1570SOL    HW216770   1.147   1.326   0.581  0.2775  1.1755  0.7088
 1571SOL     OW16771   0.259   0.425   2.005  0.1117  0.5934  0.3304
 1571SOL    HW116772   0.160   0.439   2.001 -0.1001 -0.6732  0.9123
 1571SOL    HW216773   0.290   0.433   2.099  0.5292  0.7354  0.1806
 1572SOL     OW16774   9.616   2.931   4.220 -0.2274 -0.0664 -0.6423
 1572SOL    HW116775   9.670   2.902   4.142 -0.8330 -0.4971 -0.9099
 1572SOL    HW216776   9.527   2.885   4.218 -0.0141 -0.5668  0.6357
 1573SOL     OW16777   2.127   7.958   2.885 -0.1683  0.5577 -0.1117
 1573SOL    HW116778   2.072   7.919   2.959 -0.2403 -0.3631 -0.6454
 1573SOL    HW216779   2.093   8.049   2.862 -1.2950  0.1029 -0.2517
 1574SOL     OW16780   9.853   9.334   9.437 -0.2124  0.1328  0.0941
 1574SOL    HW116781   9.950   9.314   9.450 -0.1300  0.3156 -0.2414
 1574SOL    HW216782   9.820   9.391   9.512 -0.2343 -0.5226  0.5915
 1575SOL     OW16783   0.978   8.914   0.501 -0.1886  0.2842  0.3865
 1575SOL    HW116784   1.066   8.923   0.453 -0.7553  1.3080 -0.4570
 1575SOL    HW216785   0.960   8.817   0.517  1.5631  0.0924  1.4503
 1576SOL     OW16786   3.487   3.561   0.167  0.4891 -0.2639  0.1525
 1576SOL    HW116787   3.433   3.607   0.238  0.2121  0.9022 -0.7861
 1576SOL    HW216788   3.483   3.462   0.180 -0.5267 -0.1088  1.0637
 1577SOL     OW16789   1.625   1.379   9.888 -0.1025 -0.2759 -0.7267
 1577SOL    HW116790   1.705   1.373   9.948 -0.5959  0.5288  0.0265
 1577SOL    HW216791   1.605   1.476   9.869  0.2572 -0.5343 -2.4703
 1578SOL     OW16792   0.545   2.264   9.901  0.1794 -0.3162  0.2492
 1578SOL    HW116793   0.517   2.175   9.936  1.1283 -1.2205 -1.2588
 1578SOL    HW216794   0.597   2.252   9.816  1.9886  1.5629  1.0646
 1579SOL     OW16795   1.540   1.351   8.453 -0.4790  0.0803 -0.1038
 1579SOL    HW116796   1.635   1.360   8.425 -0.4667  0.2429 -0.0094
 1579SOL    HW216797   1.535   1.339   8.552 -0.6668  2.2180  0.1857
 1580SOL     OW16798   1.862   9.603   3.177  0.7784 -0.0858  1.2059
 1580SOL    HW116799   1.890   9.528   3.117 -0.2763  2.1842 -2.3532
 1580SOL    HW216800   1.781   9.576   3.229  1.9294 -2.2423  1.9235
 1581SOL     OW16801   2.775   4.430   8.768 -0.0572 -0.0373 -0.4097
 1581SOL    HW116802   2.751   4.345   8.815 -1.0335  1.1979  1.4209
 1581SOL    HW216803   2.785   4.503   8.835  0.3071  1.4014 -1.9938
 1582SOL     OW16804   2.232   4.068   6.998 -0.4973  0.4547  0.4124
 1582SOL    HW116805   2.247   4.093   7.093 -1.6324 -1.7888  1.2231
 1582SOL    HW216806   2.253   4.146   6.939  1.7153  1.3796  2.3617
 1583SOL     OW16807   1.338   0.231   8.962 -0.2634 -0.2403 -0.0002
 1583SOL    HW116808   1.430   0.239   8.924 -0.3752  1.4110  0.0423
 1583SOL    HW216809   1.333   0.151   9.022  1.3889  0.1574  0.6955
 1584SOL     OW16810   1.263   2.217   8.821  0.0263 -0.0876  0.3637
 1584SOL    HW116811   1.257   2.135   8.878  0.9862 -0.4015  0.0209
 1584SOL    HW216812   1.246   2.298   8.877  2.8845 -0.2513  1.5326
 1585SOL     OW16813   1.390   0.724   0.688 -0.2388 -0.0615  0.0466
 1585SOL    HW116814   1.411   0.637   0.644  0.1655 -0.5075  1.1069
 1585SOL    HW216815   1.389   0.712   0.787 -1.2774  0.8947  0.1702
 1586SOL     OW16816   0.064   2.166   5.942  0.3414 -1.2830  0.3282
 1586SOL    HW116817   0.095   2.193   6.033  2.3117  2.4227 -1.3241
 1586SOL    HW216818  -0.034   2.185   5.933  0.3549 -0.7031  1.3430
 1587SOL     OW16819   2.312   8.357   9.066 -0.4156 -0.1112  0.0718
 1587SOL    HW116820   2.377   8.433   9.061  0.1654 -0.7298 -3.1523
 1587SOL    HW216821   2.236   8.374   9.004 -0.4796 -1.9713 -0.3840
 1588SOL     OW16822   6.731   9.817   9.740  0.1440 -0.2486  0.1194
 1588SOL    HW116823   6.681   9.900   9.765  0.0968  0.3027 -1.7738
 1588SOL    HW216824   6.810   9.806   9.800 -1.3104 -0.2699  2.1007
 1589SOL     OW16825   3.879   7.795   9.789 -0.6058  0.3202  0.0187
 1589SOL    HW116826   3.865   7.872   9.851 -0.2880 -0.0203  0.5197
 1589SOL    HW216827   3.790   7.764   9.754 -0.7460  0.8111 -0.0581
 1590SOL     OW16828   2.423   5.864   1.578  0.0104  0.3134  0.0332
 1590SOL    HW116829   2.470   5.776   1.587 -0.3170  0.2989  1.6569
 1590SOL    HW216830   2.381   5.869   1.487  0.8602 -0.7866 -0.4420
 1591SOL     OW16831   4.746   0.260   6.057  0.1300  0.5188  0.0750
 1591SOL    HW116832   4.836   0.271   6.100  0.8127 -3.1681 -0.2803
 1591SOL    HW216833   4.675   0.288   6.121  1.3172 -1.1277  2.1512
 1592SOL     OW16834   3.893   3.751   2.037  0.4314  0.0010  0.0411
 1592SOL    HW116835   3.874   3.813   1.961 -2.8829 -0.4753  0.4273
 1592SOL    HW216836   3.920   3.661   2.002 -0.5378 -0.0551 -0.5492
 1593SOL     OW16837   1.519   3.645   3.605 -0.0636  0.0634 -0.1850
 1593SOL    HW116838   1.489   3.582   3.534  0.2141 -0.3451  0.0538
 1593SOL    HW216839   1.527   3.737   3.568  2.5009 -0.5878 -1.3234
 1594SOL     OW16840   1.728   4.189   7.268 -0.2696  0.1490  0.2661
 1594SOL    HW116841   1.748   4.137   7.185 -2.3003 -0.9090  0.4204
 1594SOL    HW216842   1.680   4.131   7.334 -1.9169  1.9952  0.7361
 1595SOL     OW16843   4.315   3.891   1.682  0.5570 -0.0401  1.1738
 1595SOL    HW116844   4.393   3.929   1.633 -0.0560 -0.4325 -0.1366
 1595SOL    HW216845   4.347   3.843   1.764  1.9843 -2.5408 -0.7727
 1596SOL     OW16846   4.832   4.732   8.084  0.1098 -0.1889  0.3289
 1596SOL    HW116847   4.892   4.673   8.137 -1.0064 -2.4101 -0.7884
 1596SOL    HW216848   4.741   4.690   8.078 -0.8954  1.9576  0.0140
 1597SOL     OW16849   8.141   3.715   0.100  0.1021 -0.0040 -0.5755
 1597SOL    HW116850   8.196   3.684   0.177  1.2630 -0.2220 -1.4763
 1597SOL    HW216851   8.105   3.635   0.051  0.5717  0.1145 -1.1128
 1598SOL     OW16852   2.610   9.359   0.449  0.5752 -0.3060  0.0490
 1598SOL    HW116853   2.687   9.334   0.390  1.2215 -1.1603  1.2246
 1598SOL    HW216854   2.524   9.349   0.399  1.1091 -1.0301 -0.7344
 1599SOL     OW16855   5.329   0.308   9.322 -0.1256  0.0225 -0.1371
 1599SOL    HW116856   5.281   0.281   9.406  2.2785  1.8485  1.9069
 1599SOL    HW216857   5.365   0.226   9.277  1.3414 -0.7747  2.3656
 1600SOL     OW16858   0.422   9.961   2.699 -0.2337 -0.1533  0.2999
 1600SOL    HW116859   0.470   9.962   2.786  2.2893  0.9914 -1.0628
 1600SOL    HW216860   0.435   9.873   2.654 -0.0230 -0.1056  0.2702
 1601SOL     OW16861   2.077   9.148   5.400  0.4812 -0.0966  0.1394
 1601SOL    HW116862   1.992   9.109   5.436  0.8314 -1.8553 -0.8779
 1601SOL    HW216863   2.055   9.228   5.343 -0.4109 -0.0151  0.5814
 1602SOL     OW16864   9.990   4.635   0.207 -0.0124  0.2427 -0.7080
 1602SOL    HW116865  10.079   4.682   0.216 -0.3688  0.8291 -0.1889
 1602SOL    HW216866  10.005   4.536   0.205  0.6233  0.3124 -0.0770
 1603SOL     OW16867   0.170   3.173   8.919  0.5115  0.1075  0.6594
 1603SOL    HW116868   0.127   3.232   8.988  1.5355  0.7587  0.7500
 1603SOL    HW216869   0.178   3.080   8.955 -0.5479  0.0466  0.7514
 1604SOL     OW16870   4.582   2.951   9.879 -0.0440  0.3814 -0.0371
 1604SOL    HW116871   4.520   2.924   9.806 -0.6861 -0.0324  0.6529
 1604SOL    HW216872   4.622   3.040   9.857  1.1631 -0.5616 -1.7485
 1605SOL     OW16873   3.349   3.090   0.483 -0.2605  0.3814  0.2220
 1605SOL    HW116874   3.320   3.131   0.397  0.8221  1.0466  0.1704
 1605SOL    HW216875   3.394   3.159   0.540  2.8788 -1.0462 -0.4449
 1606SOL     OW16876   9.512   1.604   4.329  0.4473 -0.3200 -0.2502
 1606SOL    HW116877   9.557   1.538   4.390  1.0500 -0.6404 -1.0271
 1606SOL    HW216878   9.565   1.689   4.328 -0.7878  0.4971  1.4067
 1607SOL     OW16879   0.358   1.597   0.141 -0.2517 -0.4123  0.2402
 1607SOL    HW116880   0.320   1.524   0.084 -0.6859 -0.2859  0.3652
 1607SOL    HW216881   0.399   1.556   0.223 -1.3889 -0.4533  0.8074
 1608SOL     OW16882   6.701   3.940   6.814 -0.5323  0.4724  0.0853
 1608SOL    HW116883   6.727   3.915   6.908  0.1554  1.4514  0.1697
 1608SOL    HW216884   6.694   3.858   6.758  0.0004 -0.0455  0.7721
 1609SOL     OW16885   9.053   1.205   0.998  0.4895  0.1477 -0.0686
 1609SOL    HW116886   9.139   1.246   0.968  2.0739 -3.3995 -0.6505
 1609SOL    HW216887   8.995   1.187   0.919  0.5522 -0.3178 -0.0112
 1610SOL     OW16888   8.551   3.416   1.780 -0.7240 -0.2039  0.1201
 1610SOL    HW116889   8.564   3.379   1.688 -0.0567 -1.5177  0.7232
 1610SOL    HW216890   8.581   3.511   1.783 -0.8556 -0.1189 -1.0446
 1611SOL     OW16891   3.202   0.555   2.152 -0.0299  0.2145 -0.0442
 1611SOL    HW116892   3.155   0.605   2.225  0.2492  0.1684  0.1726
 1611SOL    HW216893   3.281   0.608   2.121 -0.0037  0.1205 -0.1387
 1612SOL     OW16894   8.386   1.716   0.926 -0.1583 -0.0456  0.7961
 1612SOL    HW116895   8.290   1.693   0.908 -0.4856  2.0031 -0.2417
 1612SOL    HW216896   8.442   1.634   0.915 -1.2652 -0.4094 -2.8951
 1613SOL     OW16897   4.282   7.709   7.242  0.0316  0.3291 -0.0952
 1613SOL    HW116898   4.233   7.794   7.260 -0.4825  0.3983 -1.7418
 1613SOL    HW216899   4.372   7.712   7.286 -1.3802  0.2069  2.9470
 1614SOL     OW16900   2.371   5.245   5.288  0.6560 -0.3052  0.3755
 1614SOL    HW116901   2.282   5.226   5.246  1.5014 -0.6237 -1.3422
 1614SOL    HW216902   2.397   5.169   5.347  0.3385 -0.7713 -0.0768
 1615SOL     OW16903   1.997   4.227   2.123  0.3563  0.1576  0.3175
 1615SOL    HW116904   1.912   4.185   2.153 -0.3458  0.5721 -1.0512
 1615SOL    HW216905   2.074   4.172   2.156 -0.4737 -0.8970  0.5392
 1616SOL     OW16906   5.896   1.493   3.501  0.2173 -0.0925  0.7552
 1616SOL    HW116907   5.824   1.498   3.432  0.2964 -1.1997  0.5784
 1616SOL    HW216908   5.972   1.552   3.474  0.1410 -0.3215  0.0176
 1617SOL     OW16909   7.750   5.290   0.113 -0.6521  0.0847 -0.2507
 1617SOL    HW116910   7.656   5.309   0.143 -0.8152  1.2490 -1.4330
 1617SOL    HW216911   7.781   5.203   0.152 -1.1373  1.1402  2.5378
 1618SOL     OW16912   3.916   1.090   1.694  0.1429 -0.5715 -0.6352
 1618SOL    HW116913   3.874   1.000   1.681 -1.0365  0.0031 -0.8480
 1618SOL    HW216914   3.845   1.160   1.696  1.2331  0.6099 -2.6536
 1619SOL     OW16915   8.712   1.145   4.967  0.5574 -0.1748 -0.4082
 1619SOL    HW116916   8.677   1.144   5.061 -2.3182 -1.0826 -1.4476
 1619SOL    HW216917   8.712   1.239   4.933  0.3599 -0.0091  0.0427
 1620SOL     OW16918   1.169   8.207   8.116 -0.3967  0.2453 -0.4379
 1620SOL    HW116919   1.137   8.177   8.206 -0.1492 -0.8861 -0.7162
 1620SOL    HW216920   1.166   8.307   8.111 -1.4311  0.2661  0.4435
 1621SOL     OW16921   6.300   0.904   3.912  0.6700 -0.6515  0.3822
 1621SOL    HW116922   6.292   0.818   3.861 -0.3397  0.8936 -2.1781
 1621SOL    HW216923   6.351   0.970   3.857  0.6647  0.6778  1.9513
 1622SOL     OW16924   9.585   1.939   2.727  0.1499 -0.0837  0.5415
 1622SOL    HW116925   9.563   1.842   2.738  0.1479 -0.2468 -0.8418
 1622SOL    HW216926   9.534   1.993   2.795 -2.3649 -0.7325 -0.7691
 1623SOL     OW16927   9.387   2.501   5.175  0.0743  0.6151 -0.6033
 1623SOL    HW116928   9.373   2.403   5.167  0.6263  0.4733  0.1637
 1623SOL    HW216929   9.332   2.537   5.251  2.6137  0.2969  1.4590
 1624SOL     OW16930   2.168   0.796   0.360 -0.3042 -0.1924  0.6974
 1624SOL    HW116931   2.259   0.814   0.321  0.8059 -1.7384  2.4665
 1624SOL    HW216932   2.128   0.717   0.315 -1.9417  2.0308 -1.8827
 1625SOL     OW16933   6.459   2.133   8.056  0.1323  0.0035 -0.4586
 1625SOL    HW116934   6.371   2.090   8.077 -0.2615  0.7505 -0.5738
 1625SOL    HW216935   6.458   2.228   8.087  0.1643  0.6152 -2.2852
 1626SOL     OW16936   9.277   0.538   1.519 -0.3323  0.2881  0.2824
 1626SOL    HW116937   9.366   0.563   1.557 -0.8235  0.9866  0.9874
 1626SOL    HW216938   9.229   0.621   1.492 -0.7866 -0.0886 -0.0613
 1627SOL     OW16939   5.968   7.294   4.043 -0.6834 -0.0881 -0.3151
 1627SOL    HW116940   5.932   7.272   3.952  0.9091 -3.6602 -0.1493
 1627SOL    HW216941   6.064   7.319   4.035 -0.6887  0.1463  0.3500
 1628SOL     OW16942   0.035   1.855   1.234 -0.2217  0.5631 -0.2303
 1628SOL    HW116943   0.014   1.770   1.283 -2.1684 -0.3333 -2.4989
 1628SOL    HW216944   0.062   1.832   1.140 -2.4382  2.5540 -1.3713
 1629SOL     OW16945   2.484   0.779   9.826  0.2026 -0.1505 -0.0829
 1629SOL    HW116946   2.413   0.759   9.893 -0.9703  4.5165  0.2683
 1629SOL    HW216947   2.459   0.740   9.737 -1.0158 -1.5879  0.8823
 1630SOL     OW16948   9.182   8.565   8.005  0.2913  0.3945 -0.2557
 1630SOL    HW116949   9.273   8.559   8.045  0.6881  0.2753 -1.1926
 1630SOL    HW216950   9.165   8.485   7.948 -1.1137 -0.5268  1.4009
 1631SOL     OW16951   0.374   2.287   1.219  0.4273 -0.1295  0.4324
 1631SOL    HW116952   0.316   2.226   1.164  1.4475 -0.1623 -0.6210
 1631SOL    HW216953   0.445   2.327   1.161 -0.9407  3.0386  0.8243
 1632SOL     OW16954   3.205   4.590   9.229  0.2272 -0.6595 -0.0290
 1632SOL    HW116955   3.202   4.605   9.328  0.0608  1.4555 -0.3259
 1632SOL    HW216956   3.130   4.530   9.201 -1.3088  0.8545  0.7852
 1633SOL     OW16957   1.085   2.616   5.117  0.2806  0.0445 -0.0827
 1633SOL    HW116958   1.182   2.597   5.129  0.0013  0.1386  2.4544
 1633SOL    HW216959   1.072   2.674   5.036  2.4204  0.8154  0.1161
 1634SOL     OW16960   1.756   1.290   3.370  0.5737  0.1595  0.1930
 1634SOL    HW116961   1.742   1.216   3.305 -0.2210 -0.2131  0.7900
 1634SOL    HW216962   1.728   1.377   3.328  1.9928  0.2065 -0.6890
 1635SOL     OW16963   9.467   2.223   0.770 -0.2393  0.4656 -0.0868
 1635SOL    HW116964   9.490   2.254   0.678 -1.2233 -2.2233 -1.2741
 1635SOL    HW216965   9.377   2.259   0.796 -0.7347 -0.1966 -0.8758
 1636SOL     OW16966   2.478   4.196   1.166 -0.0239  0.1633 -0.4883
 1636SOL    HW116967   2.408   4.264   1.190 -1.0862 -1.2965  0.6485
 1636SOL    HW216968   2.446   4.143   1.087  0.6899  0.7875 -1.2084
 1637SOL     OW16969   3.046   3.438   6.502 -0.2543  0.0255 -0.4374
 1637SOL    HW116970   3.003   3.394   6.423 -2.3005 -0.4632  0.8967
 1637SOL    HW216971   2.984   3.507   6.540  1.0963  0.9207  0.1765
 1638SOL     OW16972   1.317   3.571   2.679  0.5114 -0.1830  0.2943
 1638SOL    HW116973   1.392   3.610   2.733 -0.4420 -0.2088  1.6537
 1638SOL    HW216974   1.229   3.600   2.718 -0.1955 -1.4397 -0.3342
 1639SOL     OW16975   3.670   7.285   0.627 -0.4307  0.3015 -0.6777
 1639SOL    HW116976   3.727   7.349   0.576  0.0917  0.1832 -0.2465
 1639SOL    HW216977   3.582   7.275   0.581 -0.1523  0.5840 -1.2787
 1640SOL     OW16978   9.374   2.844   8.756 -0.1496 -0.1943 -0.1797
 1640SOL    HW116979   9.299   2.901   8.788  0.3856 -0.1852  1.0789
 1640SOL    HW216980   9.448   2.845   8.823  0.0348 -2.0540 -0.3166
 1641SOL     OW16981   3.331   8.113   4.336  0.4563  0.0887 -0.3441
 1641SOL    HW116982   3.284   8.182   4.391  0.7802 -0.2024  0.3063
 1641SOL    HW216983   3.358   8.152   4.249 -0.1154  0.5413 -0.3229
 1642SOL     OW16984   3.343   1.867   5.024 -0.1781  0.0323 -0.0451
 1642SOL    HW116985   3.440   1.871   4.998  0.2109  0.0406  1.3456
 1642SOL    HW216986   3.330   1.794   5.091 -1.2429 -0.3293 -0.6404
 1643SOL     OW16987   3.757   9.089   0.682 -0.3667 -0.0076 -0.1812
 1643SOL    HW116988   3.674   9.138   0.707  0.0324  0.5372  0.0934
 1643SOL    HW216989   3.807   9.064   0.765  0.1032  0.2979 -0.3675
 1644SOL     OW16990   1.324   3.090   1.152  0.3625 -0.0903  0.0833
 1644SOL    HW116991   1.401   3.030   1.127  0.2357 -0.9401  1.6535
 1644SOL    HW216992   1.291   3.065   1.243 -1.7479  0.3146 -0.5556
 1645SOL     OW16993   0.681   0.169   2.351  0.1011 -0.2417  0.5937
 1645SOL    HW116994   0.609   0.182   2.283  1.5805  0.6222 -0.8555
 1645SOL    HW216995   0.653   0.211   2.438 -0.6341  1.1533 -0.3010
 1646SOL     OW16996   5.833   2.206   9.885  0.3674  0.1620 -0.2351
 1646SOL    HW116997   5.928   2.177   9.871  0.3070 -0.2608  0.1870
 1646SOL    HW216998   5.831   2.291   9.937  0.5354  0.6152 -0.9701
 1647SOL     OW16999   9.566   0.679   9.563  0.2913  0.3519 -0.2623
 1647SOL    HW117000   9.605   0.620   9.634  1.0875 -0.5058 -1.4090
 1647SOL    HW217001   9.495   0.629   9.514 -0.6392  1.1280  0.2800
 1648SOL     OW17002   5.655   9.732   9.757  0.4496 -0.3804 -0.0946
 1648SOL    HW117003   5.593   9.672   9.705  0.5347  0.4443 -1.1449
 1648SOL    HW217004   5.731   9.760   9.699  1.8104 -1.3568  1.1861
 1649SOL     OW17005   1.925   0.128   0.540  0.1487 -0.6118 -0.7420
 1649SOL    HW117006   1.888   0.078   0.617 -0.2236 -0.5791 -0.9007
 1649SOL    HW217007   1.970   0.212   0.572  2.4002 -1.9676 -0.2904
 1650SOL     OW17008   4.952   5.459   1.818 -0.2875 -0.1471  0.0869
 1650SOL    HW117009   4.947   5.500   1.909 -0.7934  0.6273 -0.2839
 1650SOL    HW217010   4.860   5.452   1.780  0.0428  0.7712 -0.9085
 1651SOL     OW17011   1.158   4.245   4.171  0.0794  0.3490 -0.5067
 1651SOL    HW117012   1.172   4.326   4.114  0.6853 -0.0857 -0.9752
 1651SOL    HW217013   1.121   4.273   4.260  0.7520  1.1964 -0.4841
 1652SOL     OW17014   2.176   1.197   1.295  0.0523  0.2561 -0.1427
 1652SOL    HW117015   2.128   1.153   1.371  0.9500 -1.0651 -0.3253
 1652SOL    HW217016   2.189   1.132   1.221  0.8080  1.0156 -0.6943
 1653SOL     OW17017   2.243   9.675   4.751  0.0117 -0.2619 -0.4563
 1653SOL    HW117018   2.318   9.656   4.814  1.5577  1.6922 -1.6366
 1653SOL    HW217019   2.237   9.774   4.735 -3.1273 -0.3309 -0.0329
 1654SOL     OW17020   9.130   0.584   4.569  0.3413  0.3939  0.2741
 1654SOL    HW117021   9.071   0.657   4.602 -0.6511  0.0316 -0.6595
 1654SOL    HW217022   9.147   0.597   4.471  1.6781  0.3970  0.4959
 1655SOL     OW17023   9.162   0.292   8.693 -0.9854  0.0430  0.0665
 1655SOL    HW117024   9.120   0.291   8.602  0.6693  0.7218 -0.7173
 1655SOL    HW217025   9.260   0.307   8.685 -0.5982 -1.2543  1.8959
 1656SOL     OW17026   9.404   6.265   7.524 -0.2375  0.4948  0.5209
 1656SOL    HW117027   9.447   6.236   7.439  1.2154  1.9969  0.7111
 1656SOL    HW217028   9.310   6.292   7.507  0.1141  1.0056 -0.6550
 1657SOL     OW17029   4.016   3.050   0.566  0.6048 -0.1418  0.1729
 1657SOL    HW117030   3.963   3.087   0.489  0.8844  0.0372  0.0634
 1657SOL    HW217031   3.958   2.990   0.620 -0.3120  1.6441  1.2292
 1658SOL     OW17032   3.271   8.014   1.037 -0.4512  0.1556  0.0545
 1658SOL    HW117033   3.312   7.939   0.984 -1.3408 -0.2562 -0.0606
 1658SOL    HW217034   3.334   8.092   1.039  0.9955 -1.0052  1.1573
 1659SOL     OW17035   4.288   0.150   9.133  0.3051 -0.2988  0.0218
 1659SOL    HW117036   4.324   0.172   9.223 -0.2962  0.2721  0.1216
 1659SOL    HW217037   4.348   0.082   9.089  1.1320  0.1374  0.4570
 1660SOL     OW17038   2.480   4.537   0.798 -0.2796  0.1117  0.0569
 1660SOL    HW117039   2.433   4.562   0.883 -1.9294  0.6713 -0.9936
 1660SOL    HW217040   2.523   4.618   0.759  0.6212 -0.1793  0.4477
 1661SOL     OW17041   9.776   0.560   0.017 -0.4115 -0.5949 -0.2728
 1661SOL    HW117042   9.709   0.634   0.016 -2.7398 -2.6052  2.2847
 1661SOL    HW217043   9.867   0.598  -0.002 -1.5852  2.8366  0.6229
 1662SOL     OW17044   5.451   2.347   3.841  0.2047  0.3004 -0.0539
 1662SOL    HW117045   5.511   2.401   3.900 -0.5001  1.1795 -0.1257
 1662SOL    HW217046   5.485   2.253   3.835  1.9079  0.9400 -0.5830
 1663SOL     OW17047   4.557   0.806   2.983  0.5945 -0.1182  0.0874
 1663SOL    HW117048   4.647   0.844   2.962 -0.5801  2.4414 -0.4527
 1663SOL    HW217049   4.521   0.850   3.065 -0.7028 -0.2758 -0.3940
 1664SOL     OW17050   1.438   2.344   1.293 -0.2307 -0.1799  0.0568
 1664SOL    HW117051   1.365   2.341   1.225  0.9285 -0.7798 -1.1921
 1664SOL    HW217052   1.409   2.401   1.370 -1.5848  0.5052 -0.9238
 1665SOL     OW17053   5.488   2.901   0.482 -0.5271  0.3630 -0.0470
 1665SOL    HW117054   5.550   2.850   0.542 -1.7783  0.6780  1.5368
 1665SOL    HW217055   5.454   2.841   0.411 -1.3795 -0.8419  1.3490
 1666SOL     OW17056   3.662   8.947   4.231 -0.2218  0.2243 -0.0591
 1666SOL    HW117057   3.606   9.027   4.251  0.3493  0.4711  0.5545
 1666SOL    HW217058   3.603   8.868   4.216 -0.6883  0.1536  2.0560
 1667SOL     OW17059   1.244   0.061   3.553  0.6369  0.4484  0.5874
 1667SOL    HW117060   1.226   0.046   3.650 -0.4650  0.5038  0.3993
 1667SOL    HW217061   1.158   0.056   3.502  1.3873 -1.1152 -0.5849
 1668SOL     OW17062   0.270   0.902   4.037 -0.2685  0.3871  0.3735
 1668SOL    HW117063   0.286   0.991   3.994  0.2239 -0.4458 -1.2142
 1668SOL    HW217064   0.180   0.901   4.079 -0.8581  1.1771 -0.8345
 1669SOL     OW17065   2.632   9.227   2.188 -0.3669 -0.1551  0.0112
 1669SOL    HW117066   2.539   9.191   2.194 -0.5188  0.5008  1.9099
 1669SOL    HW217067   2.695   9.152   2.166 -1.1437 -0.8979  0.2775
 1670SOL     OW17068   9.324   6.743   2.441  0.2319 -0.4929  0.4276
 1670SOL    HW117069   9.262   6.703   2.508 -0.6795  0.7132  0.3350
 1670SOL    HW217070   9.291   6.724   2.348 -0.4336  0.7950  0.3888
 1671SOL     OW17071   7.805   1.618   2.275 -0.6807 -0.4089  0.0355
 1671SOL    HW117072   7.736   1.599   2.205 -0.3856  0.3853 -0.4836
 1671SOL    HW217073   7.781   1.570   2.359 -2.2064  0.3705  0.0643
 1672SOL     OW17074   4.985   5.614   6.651  0.2845 -0.2410  0.2503
 1672SOL    HW117075   4.962   5.695   6.597  0.1127 -1.6097 -1.7817
 1672SOL    HW217076   5.043   5.640   6.728  1.7015  1.5792 -1.3977
 1673SOL     OW17077   1.507   8.261   9.111  0.5616  0.5688 -0.5651
 1673SOL    HW117078   1.416   8.274   9.151 -0.0408 -0.7694 -1.4596
 1673SOL    HW217079   1.498   8.231   9.016  1.9032 -1.1350 -0.1879
 1674SOL     OW17080   2.656   3.890   1.007  0.6797  0.4468 -0.2216
 1674SOL    HW117081   2.565   3.905   1.045 -0.5566 -3.5404 -1.3252
 1674SOL    HW217082   2.658   3.917   0.911  0.3367 -0.3489 -0.4598
 1675SOL     OW17083   0.446   4.548   9.578 -0.2599 -0.1930  0.2482
 1675SOL    HW117084   0.498   4.553   9.492 -0.0301 -1.4722  0.3079
 1675SOL    HW217085   0.381   4.624   9.582 -0.6822 -0.4656 -1.3205
 1676SOL     OW17086   8.931   6.727   0.297 -0.2733 -0.4815 -0.3949
 1676SOL    HW117087   8.845   6.678   0.278 -1.3068  0.6591  1.1927
 1676SOL    HW217088   8.982   6.738   0.212 -1.9510 -0.7001 -1.4690
 1677SOL     OW17089   2.124   9.548   0.405  0.0551  0.0515  0.1212
 1677SOL    HW117090   2.131   9.527   0.502  2.5542  1.2179  0.2314
 1677SOL    HW217091   2.178   9.630   0.384  0.4182 -0.7701 -2.4257
 1678SOL     OW17092   3.639   2.819   8.675 -0.0981  0.3123 -1.0556
 1678SOL    HW117093   3.693   2.737   8.656 -1.1337 -0.4858 -0.5959
 1678SOL    HW217094   3.604   2.857   8.590  0.6777  0.4976 -1.3031
 1679SOL     OW17095   1.770   2.675   9.077 -0.2526  0.2083 -0.1925
 1679SOL    HW117096   1.792   2.755   9.022  0.7219 -0.3631 -0.6322
 1679SOL    HW217097   1.853   2.622   9.095 -0.9786 -1.0467 -0.4438
 1680SOL     OW17098   4.641   5.264   8.054 -0.1194  0.3381 -0.2984
 1680SOL    HW117099   4.642   5.364   8.047  1.1519  0.2041 -2.4444
 1680SOL    HW217100   4.566   5.227   7.999  0.5277  0.0363 -0.9925
 1681SOL     OW17101   4.289   5.488   4.302 -0.3610 -0.1374  0.3027
 1681SOL    HW117102   4.322   5.399   4.333 -2.8373 -1.8136 -1.6589
 1681SOL    HW217103   4.261   5.542   4.381  1.2806 -1.0312  1.5308
 1682SOL     OW17104   1.304   1.612   6.752  0.6256  0.1659  0.2176
 1682SOL    HW117105   1.365   1.599   6.830  2.1415  0.6440 -0.8642
 1682SOL    HW217106   1.353   1.659   6.678 -0.9014  0.1014 -0.8694
 1683SOL     OW17107   1.121   2.253   0.549  0.4816  0.4803  0.0114
 1683SOL    HW117108   1.050   2.314   0.583 -0.2521 -0.2718 -0.1654
 1683SOL    HW217109   1.143   2.184   0.619  0.4182  0.1802 -0.2612
 1684SOL     OW17110   5.717   2.724   0.614 -0.3217 -0.4217  0.3523
 1684SOL    HW117111   5.770   2.735   0.699 -0.7996 -0.2206  0.6260
 1684SOL    HW217112   5.666   2.638   0.617  0.5102 -0.9374 -0.1994
 1685SOL     OW17113   1.295   0.119   9.409 -0.1615 -0.4289 -0.3535
 1685SOL    HW117114   1.297   0.159   9.501  1.3587  0.0455 -0.5790
 1685SOL    HW217115   1.278   0.191   9.342 -2.9252 -1.0176 -0.3421
 1686SOL     OW17116   0.369   4.577   1.912  0.1565 -0.6315  0.2769
 1686SOL    HW117117   0.467   4.599   1.917 -0.5959  3.2284 -0.4270
 1686SOL    HW217118   0.340   4.579   1.816 -1.3671  2.0853  0.7450
 1687SOL     OW17119   9.523   0.837   5.426 -0.2144 -0.2334  0.2007
 1687SOL    HW117120   9.564   0.899   5.493  0.2815 -0.1790 -0.1575
 1687SOL    HW217121   9.440   0.797   5.465 -1.1164  1.4620  0.0482
 1688SOL     OW17122   3.005   9.555   2.270 -0.0160 -0.1628  0.5160
 1688SOL    HW117123   2.959   9.640   2.297 -0.6751 -0.2414 -0.3470
 1688SOL    HW217124   3.094   9.550   2.314 -0.2575  0.6590  1.1041
 1689SOL     OW17125   1.794   6.642   9.927 -0.2043  0.1767  0.6360
 1689SOL    HW117126   1.800   6.632   9.828  2.6301 -1.2575  0.9123
 1689SOL    HW217127   1.743   6.565   9.965  1.6166 -1.0886  0.5748
 1690SOL     OW17128   3.802   9.864   3.431  0.1857 -0.8753  0.5131
 1690SOL    HW117129   3.857   9.852   3.349  0.3254  0.7866  0.3377
 1690SOL    HW217130   3.862   9.875   3.510  0.1892  2.2501  0.1338
 1691SOL     OW17131   2.352   8.818   3.806  0.2128  0.0927  0.5696
 1691SOL    HW117132   2.434   8.764   3.785  1.5344  2.3691 -0.3756
 1691SOL    HW217133   2.277   8.790   3.746  1.4326  0.5676 -1.2075
 1692SOL     OW17134   1.936   1.111   4.406 -0.6714  0.6655  0.3713
 1692SOL    HW117135   1.923   1.196   4.356  1.1860  1.2647  0.8767
 1692SOL    HW217136   1.935   1.034   4.343 -1.1280  1.1657 -0.2351
 1693SOL     OW17137   2.292   0.816   0.681  0.0696  0.5242 -0.0902
 1693SOL    HW117138   2.380   0.789   0.642  0.2953 -0.2880  0.9522
 1693SOL    HW217139   2.228   0.838   0.608  0.5411 -0.7760 -0.9131
 1694SOL     OW17140   3.074   3.247   8.195  0.3243  0.2385  0.4773
 1694SOL    HW117141   2.974   3.251   8.199  0.3594  0.6829  0.8962
 1694SOL    HW217142   3.102   3.222   8.102 -0.1495  0.7855  0.1835
 1695SOL     OW17143   6.304   5.989   2.685 -0.2691  0.1834  0.3314
 1695SOL    HW117144   6.336   5.986   2.780  2.4996  0.1305 -0.5499
 1695SOL    HW217145   6.292   5.896   2.651 -0.0015  0.1790  0.2439
 1696SOL     OW17146   7.637   6.372   0.002 -0.4277  0.0269 -0.4362
 1696SOL    HW117147   7.639   6.280  -0.036 -0.7386 -0.0171 -0.3533
 1696SOL    HW217148   7.618   6.438  -0.071 -1.2935 -0.0825 -0.3198
 1697SOL     OW17149   9.572   0.338   1.964  0.4578 -0.3224 -0.5884
 1697SOL    HW117150   9.620   0.312   2.048  0.1664  1.2906  0.0948
 1697SOL    HW217151   9.607   0.284   1.887  0.7372 -1.8032  0.5532
 1698SOL     OW17152   7.542   3.743   3.952  0.1773 -0.0106 -0.1391
 1698SOL    HW117153   7.571   3.649   3.936  0.1279 -0.2872  1.3250
 1698SOL    HW217154   7.445   3.753   3.929  0.9018  0.4272 -3.1381
 1699SOL     OW17155   9.611   9.302   9.727 -0.0507  0.0148 -0.2516
 1699SOL    HW117156   9.690   9.256   9.767  0.7689 -0.1438 -2.0144
 1699SOL    HW217157   9.637   9.393   9.695 -0.6625  0.1170 -0.4744
 1700SOL     OW17158   9.427   3.675   4.404  0.0354 -0.0357  0.0422
 1700SOL    HW117159   9.371   3.602   4.365  1.0411  0.1806 -1.8184
 1700SOL    HW217160   9.491   3.636   4.470 -2.1738 -0.3064  2.1141
 1701SOL     OW17161   2.087   3.672   9.954  0.1395 -0.0809  0.3168
 1701SOL    HW117162   2.010   3.736   9.952 -0.5805 -0.9149  0.9274
 1701SOL    HW217163   2.065   3.592   9.898  1.1033  0.2641 -0.5821
 1702SOL     OW17164   0.773   0.122   1.290 -0.2682  0.6594 -0.4200
 1702SOL    HW117165   0.862   0.075   1.285  0.2855  1.6605 -0.1031
 1702SOL    HW217166   0.763   0.181   1.210 -0.4722  0.8648 -0.2418
 1703SOL     OW17167   7.961   4.326   5.800 -0.3835 -0.2742  0.1976
 1703SOL    HW117168   7.928   4.240   5.839 -2.2161  0.5367  0.5006
 1703SOL    HW217169   7.933   4.402   5.859  0.9707  0.5617 -0.2148
 1704SOL     OW17170   9.087   4.314   5.917 -0.2640 -0.7538  0.3262
 1704SOL    HW117171   9.179   4.315   5.880  0.3183  0.4492  1.7278
 1704SOL    HW217172   9.020   4.309   5.843  0.8978 -0.1185 -0.7624
 1705SOL     OW17173   6.998   2.613   6.279 -0.5656 -0.2545  0.4324
 1705SOL    HW117174   6.963   2.587   6.189  2.3987 -0.1360 -0.8039
 1705SOL    HW217175   6.995   2.712   6.290 -2.7472 -0.3938  1.2679
 1706SOL     OW17176   2.323   4.416   9.495  0.5556  0.0550  0.9910
 1706SOL    HW117177   2.345   4.331   9.448  0.0664  0.6612 -0.3585
 1706SOL    HW217178   2.225   4.422   9.511  0.4751  0.7835  0.2527
 1707SOL     OW17179   7.704   3.173   7.378  0.0457  0.1335  0.1583
 1707SOL    HW117180   7.664   3.083   7.360 -0.2261  0.1181  0.8019
 1707SOL    HW217181   7.723   3.182   7.476 -4.1473  2.4534  0.8809
 1708SOL     OW17182   2.575   1.876   3.258 -0.0133  0.0338 -0.1446
 1708SOL    HW117183   2.552   1.946   3.325  0.2025  0.6285 -0.6928
 1708SOL    HW217184   2.499   1.864   3.194 -0.5467 -1.1105  0.6894
 1709SOL     OW17185   0.861   3.365   1.488  0.3174 -1.0352 -0.2387
 1709SOL    HW117186   0.924   3.443   1.486 -0.7709 -0.1659 -1.0656
 1709SOL    HW217187   0.888   3.303   1.561  2.5199 -0.9897 -0.9782
 1710SOL     OW17188   0.198   6.628   5.041  0.1749 -0.1810 -0.3095
 1710SOL    HW117189   0.247   6.594   5.121 -0.9976 -0.3246  0.3470
 1710SOL    HW217190   0.226   6.575   4.960  0.9952 -0.3525  0.0781
 1711SOL     OW17191   2.952   2.092   0.350 -0.2793  0.2492 -0.1567
 1711SOL    HW117192   2.959   2.163   0.420  0.4319  0.1268 -0.0965
 1711SOL    HW217193   2.861   2.052   0.352 -0.1718  0.0363  0.9156
 1712SOL     OW17194   0.338   9.931   2.138 -0.1331 -0.4255 -0.3438
 1712SOL    HW117195   0.394   9.850   2.121  1.2431  0.1624  1.2645
 1712SOL    HW217196   0.286   9.919   2.222 -0.1141  0.2680 -0.2245
 1713SOL     OW17197   6.702   4.811   2.256 -0.3261 -0.6799 -0.0614
 1713SOL    HW117198   6.790   4.809   2.303 -0.6171  1.2514  0.6123
 1713SOL    HW217199   6.716   4.843   2.162  0.2027 -4.1639 -1.2095
 1714SOL     OW17200   3.744   0.148   6.919 -0.7772  0.2777  0.0911
 1714SOL    HW117201   3.756   0.049   6.914  0.1184  0.4036 -0.3866
 1714SOL    HW217202   3.715   0.174   7.011 -1.2220 -0.4441  0.1575
 1715SOL     OW17203   9.109   0.907   0.272 -0.0926 -0.5713 -0.5992
 1715SOL    HW117204   9.029   0.853   0.245 -0.2773 -0.3397 -0.5195
 1715SOL    HW217205   9.191   0.850   0.265 -0.4380 -1.2622  0.7498
 1716SOL     OW17206   4.339   8.448   8.806 -0.2914  0.3723  0.2548
 1716SOL    HW117207   4.272   8.407   8.745  0.2647  0.9536 -0.7691
 1716SOL    HW217208   4.419   8.388   8.813  0.7018  1.4400 -1.5770
 1717SOL     OW17209   9.743   2.194   4.936 -0.2084  0.1188 -0.4949
 1717SOL    HW117210   9.797   2.271   4.969  0.8156 -1.4733  1.6563
 1717SOL    HW217211   9.713   2.213   4.842  1.0354  2.5837 -0.4520
 1718SOL     OW17212   6.657   0.712   1.152 -0.0402  0.2131 -0.2275
 1718SOL    HW117213   6.744   0.705   1.201  0.4385  1.3626 -0.9050
 1718SOL    HW217214   6.590   0.761   1.208 -0.5665 -1.4935  0.6887
 1719SOL     OW17215   1.821   9.533   1.812  0.3003  0.1215 -0.2356
 1719SOL    HW117216   1.814   9.630   1.837 -0.7956  0.1774 -0.7124
 1719SOL    HW217217   1.801   9.522   1.715  0.7172 -0.5437 -0.2434
 1720SOL     OW17218   5.772   4.076   1.888  0.0882  0.3544 -0.1193
 1720SOL    HW117219   5.709   4.002   1.913  0.0537  0.5801  0.4867
 1720SOL    HW217220   5.722   4.147   1.840  0.4122 -0.6978 -2.0563
 1721SOL     OW17221   0.944   6.333   0.755  0.2780 -0.0855 -0.0964
 1721SOL    HW117222   0.982   6.243   0.775  0.9948 -0.1423 -1.6831
 1721SOL    HW217223   0.972   6.397   0.826 -1.2542 -1.3576  1.7307
 1722SOL     OW17224   8.671   5.780   0.788  0.0928  0.2489  0.3769
 1722SOL    HW117225   8.760   5.734   0.794 -0.1806 -0.0092  2.9383
 1722SOL    HW217226   8.674   5.866   0.838 -0.5635  1.1492 -1.1118
 1723SOL     OW17227   0.308   9.198   9.776 -0.0817 -0.2639 -0.0803
 1723SOL    HW117228   0.386   9.258   9.758  1.7690 -2.8630 -1.1121
 1723SOL    HW217229   0.321   9.153   9.865 -1.3980  0.7415  0.6341
 1724SOL     OW17230   2.491   9.946   6.168  0.0278  0.4489  0.0442
 1724SOL    HW117231   2.485   9.911   6.074 -0.6140 -0.3427  0.3715
 1724SOL    HW217232   2.464   9.874   6.232  2.2888  0.3767  0.9573
 1725SOL     OW17233   3.605   4.040   2.998  0.1282 -0.0956 -0.1758
 1725SOL    HW117234   3.586   4.029   3.096  0.7092  0.7281  0.0355
 1725SOL    HW217235   3.688   3.990   2.974  0.6614  0.6772  0.0120
 1726SOL     OW17236   0.705   4.754   4.393  0.4615 -0.5333  0.4210
 1726SOL    HW117237   0.784   4.801   4.434  1.2297 -0.5039 -1.0812
 1726SOL    HW217238   0.694   4.783   4.298 -2.3845  0.7488  1.0749
 1727SOL     OW17239   9.497   9.533   2.749 -0.0964  0.5225  0.1089
 1727SOL    HW117240   9.507   9.623   2.793 -1.1472  0.2369  0.9512
 1727SOL    HW217241   9.553   9.530   2.667  1.1165  1.4258  0.8851
 1728SOL     OW17242   9.995   5.536   7.744 -0.5541 -0.3848  0.0505
 1728SOL    HW117243  10.024   5.602   7.674 -2.7823 -1.1425 -1.6177
 1728SOL    HW217244   9.896   5.539   7.755 -0.5023 -2.1359  1.3179
 1729SOL     OW17245   1.410   5.347   6.305 -0.6067 -0.0751 -0.0701
 1729SOL    HW117246   1.350   5.387   6.236 -0.1817 -0.2352 -0.5326
 1729SOL    HW217247   1.355   5.296   6.372 -1.0571  0.4348 -0.0453
 1730SOL     OW17248   9.436   5.829   1.852  0.0547 -0.1778 -0.3679
 1730SOL    HW117249   9.498   5.754   1.830 -1.6554 -0.8859 -3.0111
 1730SOL    HW217250   9.488   5.912   1.871  1.8125 -1.0314 -1.4059
 1731SOL     OW17251   2.613   0.787   2.180 -0.5195  0.6034 -0.5794
 1731SOL    HW117252   2.543   0.852   2.210 -1.3195 -0.8513  0.7580
 1731SOL    HW217253   2.665   0.827   2.104 -0.9586  2.8162  0.2531
 1732SOL     OW17254   2.976   2.137   2.962  0.6978 -0.4340 -0.1322
 1732SOL    HW117255   2.937   2.050   2.934  0.2118 -0.0634 -0.6125
 1732SOL    HW217256   3.023   2.179   2.885 -1.1128  0.8470 -0.5725
 1733SOL     OW17257   0.487   2.929   3.385  0.3208  0.2514 -0.1203
 1733SOL    HW117258   0.415   2.986   3.346  0.8645  0.8288 -0.2827
 1733SOL    HW217259   0.447   2.844   3.420 -0.5236  0.8564  0.3835
 1734SOL     OW17260   0.359   3.040   2.107 -0.2933 -0.1368 -0.2861
 1734SOL    HW117261   0.446   2.991   2.099 -1.6124 -2.4629 -0.5314
 1734SOL    HW217262   0.354   3.085   2.196  2.1702  2.0266 -1.1740
 1735SOL     OW17263   1.848   2.605   6.923  0.5896  0.0670 -0.0042
 1735SOL    HW117264   1.802   2.689   6.895  2.0049  0.3436 -1.6458
 1735SOL    HW217265   1.890   2.617   7.013  0.1405  0.8541  0.0987
 1736SOL     OW17266   9.053   2.363   9.804 -0.2493  0.6593 -0.2299
 1736SOL    HW117267   8.980   2.375   9.871 -0.6277  0.5034 -0.6136
 1736SOL    HW217268   9.063   2.266   9.782 -0.8051  0.8008 -1.1479
 1737SOL     OW17269   1.549   8.610   9.660  0.2212  0.5357  0.5834
 1737SOL    HW117270   1.555   8.526   9.608 -1.7909  0.7782 -0.0610
 1737SOL    HW217271   1.509   8.682   9.604  0.5068  1.5125  1.6056
 1738SOL     OW17272   5.092   2.831   1.693 -0.3262  0.2585  0.2758
 1738SOL    HW117273   5.071   2.877   1.606  1.2566  1.1476  0.3252
 1738SOL    HW217274   5.069   2.734   1.686 -0.6209  0.4046 -1.0013
 1739SOL     OW17275   7.535   2.827   3.428  0.0364  0.5153  0.0033
 1739SOL    HW117276   7.516   2.788   3.338  0.3262 -1.5008  0.7874
 1739SOL    HW217277   7.634   2.839   3.439 -0.0476  1.4871 -0.2202
 1740SOL     OW17278   1.356   2.365   6.105  0.2389  0.4624 -0.2766
 1740SOL    HW117279   1.298   2.332   6.031 -0.4307  0.5391  0.2061
 1740SOL    HW217280   1.449   2.377   6.072  0.3863 -1.4551 -0.5817
 1741SOL     OW17281   9.988   1.868   3.422  0.0719  0.3343 -0.6019
 1741SOL    HW117282  10.000   1.863   3.521  1.1213  0.8996 -0.6867
 1741SOL    HW217283   9.956   1.780   3.387  0.2415 -0.0368  0.1678
 1742SOL     OW17284   1.080   3.759   3.674  0.0428  0.7816  0.3329
 1742SOL    HW117285   1.051   3.678   3.724  2.2020 -0.4619 -0.3452
 1742SOL    HW217286   1.062   3.747   3.577  0.2083  1.1804  0.2498
 1743SOL     OW17287   8.110   7.876   9.641 -0.0161  0.6888 -0.0605
 1743SOL    HW117288   8.085   7.786   9.604 -0.6154  1.3038 -1.1631
 1743SOL    HW217289   8.145   7.933   9.567  2.2484  0.7083  0.9910
 1744SOL     OW17290   0.055   3.198   4.605 -0.1585  0.0675  0.0692
 1744SOL    HW117291   0.038   3.288   4.566 -1.8478  0.4093  1.5548
 1744SOL    HW217292   0.067   3.132   4.532  0.4691  1.3728 -1.0325
 1745SOL     OW17293   7.091   6.276   1.827  0.1026  0.5094  0.3946
 1745SOL    HW117294   6.992   6.263   1.835 -0.0472  1.1695 -0.3143
 1745SOL    HW217295   7.137   6.230   1.903 -0.7620  0.3739  0.8436
 1746SOL     OW17296   9.471   4.739   3.866 -0.5237  0.0228 -0.3353
 1746SOL    HW117297   9.568   4.757   3.853 -0.5605 -0.5175 -1.4383
 1746SOL    HW217298   9.425   4.824   3.893  0.0892  0.4986 -0.7639
 1747SOL     OW17299   2.045   7.196   8.894 -0.0358  0.0267  0.1316
 1747SOL    HW117300   2.062   7.233   8.985  2.0951 -0.2046 -0.1387
 1747SOL    HW217301   2.133   7.184   8.847 -1.0226 -1.2440 -1.3949
 1748SOL     OW17302   1.695   1.403   6.018 -0.3610 -0.1051 -0.5691
 1748SOL    HW117303   1.701   1.458   5.934  0.2116 -0.6065 -0.8691
 1748SOL    HW217304   1.600   1.397   6.048 -0.3220  1.8553  0.0141
 1749SOL     OW17305   2.142   2.133   9.222  0.3459 -0.6130  0.4776
 1749SOL    HW117306   2.121   2.059   9.287  0.3585  0.0239  1.2146
 1749SOL    HW217307   2.209   2.195   9.263  0.9914 -0.6775 -0.4856
 1750SOL     OW17308   7.423   4.679   2.861  0.8407  0.2389  0.1904
 1750SOL    HW117309   7.437   4.676   2.960 -1.3716  0.4303  0.5352
 1750SOL    HW217310   7.329   4.652   2.839  1.5698 -0.7635 -1.9477
 1751SOL     OW17311   0.927   9.591   9.247  0.4919  0.0246  0.0638
 1751SOL    HW117312   1.008   9.533   9.245  0.0966 -0.4936 -0.9106
 1751SOL    HW217313   0.874   9.572   9.329  1.3667  0.3772  0.7147
 1752SOL     OW17314   9.085   5.592   0.704  0.0626 -0.3791  0.0314
 1752SOL    HW117315   9.109   5.623   0.796 -0.5448  2.1127 -0.5879
 1752SOL    HW217316   9.168   5.588   0.647  0.4084 -1.7190  0.6280
 1753SOL     OW17317   2.113   5.542   0.652 -0.0121 -0.2670  0.2856
 1753SOL    HW117318   2.192   5.523   0.710 -0.1769  0.2801  0.7047
 1753SOL    HW217319   2.133   5.621   0.594 -0.3519  0.0509  0.5988
 1754SOL     OW17320   1.304   2.141   3.688 -0.2464  0.3763 -0.0454
 1754SOL    HW117321   1.322   2.131   3.786  0.7510  0.0526 -0.2480
 1754SOL    HW217322   1.349   2.066   3.639 -0.5543  0.6625 -0.7648
 1755SOL     OW17323   3.176   9.272   2.381 -0.6113 -0.1197  0.6120
 1755SOL    HW117324   3.091   9.264   2.330  0.5251 -1.1889 -1.1896
 1755SOL    HW217325   3.200   9.368   2.393 -0.3505  0.1636 -1.8704
 1756SOL     OW17326   0.710   9.862   1.972 -0.1250  0.4484  0.5666
 1756SOL    HW117327   0.738   9.871   1.876  0.1365 -1.2571  0.4628
 1756SOL    HW217328   0.790   9.871   2.031 -0.1061  0.3670  0.5537
 1757SOL     OW17329   0.455   2.072   3.841 -0.0733  0.0535 -0.4284
 1757SOL    HW117330   0.415   2.125   3.916  0.4148  1.3869 -1.0977
 1757SOL    HW217331   0.417   1.979   3.842  0.3170 -0.1189  1.7967
 1758SOL     OW17332   1.323   5.533   6.683  0.3388  0.2009 -0.4509
 1758SOL    HW117333   1.372   5.446   6.693 -2.0089 -1.3386 -1.9699
 1758SOL    HW217334   1.244   5.534   6.744  0.1023  1.0837 -0.7698
 1759SOL     OW17335   1.474   2.841   2.124 -0.2059 -0.0325 -0.1084
 1759SOL    HW117336   1.465   2.861   2.027 -0.8093  0.9989  0.1480
 1759SOL    HW217337   1.453   2.924   2.177 -0.1068 -0.6450  0.9021
 1760SOL     OW17338   0.218   9.533   0.786 -0.4578  0.0830 -0.3082
 1760SOL    HW117339   0.249   9.450   0.741 -0.9243  0.0306 -0.5394
 1760SOL    HW217340   0.140   9.571   0.737 -2.1202 -0.9657  1.4283
 1761SOL     OW17341   0.321   6.720   0.253 -0.0497 -0.2495 -0.2982
 1761SOL    HW117342   0.245   6.766   0.299  0.5141 -0.8951  1.3421
 1761SOL    HW217343   0.374   6.788   0.202 -1.3102  0.3187 -0.8767
 1762SOL     OW17344   8.108   2.284   8.922  0.0550  0.3425 -0.9219
 1762SOL    HW117345   8.208   2.287   8.917  0.1001 -1.3509 -1.2466
 1762SOL    HW217346   8.079   2.283   9.018  0.4193 -0.8698 -0.8198
 1763SOL     OW17347   9.175   2.885   2.068 -0.2556 -0.2213  0.1102
 1763SOL    HW117348   9.127   2.817   2.012  0.2143 -0.4382 -0.0332
 1763SOL    HW217349   9.157   2.976   2.031  0.2517 -0.3830 -0.5561
 1764SOL     OW17350   9.147   8.489   4.410 -0.1053  0.0370  0.3473
 1764SOL    HW117351   9.132   8.520   4.504 -1.6228 -0.2727  0.2142
 1764SOL    HW217352   9.096   8.548   4.347  1.3728  0.6166 -0.3595
 1765SOL     OW17353   4.719   3.698   9.612  0.1549 -0.2529  0.2374
 1765SOL    HW117354   4.635   3.653   9.643 -0.0839 -0.6187 -0.9193
 1765SOL    HW217355   4.756   3.649   9.532  0.5971  0.8474 -0.2422
 1766SOL     OW17356   1.929   1.283   9.616  0.2215  0.0439 -0.5985
 1766SOL    HW117357   1.838   1.286   9.657 -0.0950 -1.0631 -1.1744
 1766SOL    HW217358   1.963   1.376   9.602 -0.6353  0.4555  0.0305
 1767SOL     OW17359   9.964   7.400   8.709 -0.3175  0.2709 -0.3361
 1767SOL    HW117360   9.983   7.427   8.615 -1.4817 -0.2877 -0.7362
 1767SOL    HW217361   9.928   7.478   8.759  2.5892  1.2642  0.3497
 1768SOL     OW17362   2.746   8.808   5.220  0.1530  0.3176  0.0304
 1768SOL    HW117363   2.766   8.710   5.215 -1.5627 -0.0952  0.9591
 1768SOL    HW217364   2.811   8.858   5.163  1.0976 -1.3508 -0.3882
 1769SOL     OW17365   5.336   5.450   4.069  0.4041  0.2073  0.1309
 1769SOL    HW117366   5.308   5.355   4.052  0.0815  0.4576 -0.7785
 1769SOL    HW217367   5.300   5.480   4.157 -0.1067 -0.2831  0.0926
 1770SOL     OW17368   1.768   2.539   8.659  0.1734 -0.0866 -0.4843
 1770SOL    HW117369   1.716   2.565   8.577 -0.0917 -0.0425 -0.3041
 1770SOL    HW217370   1.708   2.491   8.722  0.0311  1.0936  0.2919
 1771SOL     OW17371   8.775   9.648   7.708  0.0756  0.4023 -0.1829
 1771SOL    HW117372   8.692   9.703   7.702 -0.2738 -0.1781 -0.8425
 1771SOL    HW217373   8.758   9.567   7.765 -0.5448 -0.9641 -2.2398
 1772SOL     OW17374   4.258   3.459   0.237  0.6384  0.2130 -0.3901
 1772SOL    HW117375   4.299   3.402   0.307  1.0521  2.6790  1.4221
 1772SOL    HW217376   4.190   3.519   0.278  0.2182  1.0560 -2.2515
 1773SOL     OW17377   3.328   8.240   2.767  0.3459 -0.0176  0.2001
 1773SOL    HW117378   3.311   8.145   2.739  0.6755 -0.4625  1.4804
 1773SOL    HW217379   3.298   8.302   2.694 -2.2951 -0.9887  0.3989
 1774SOL     OW17380   8.344   0.371   9.755 -0.0096 -0.1751 -0.2144
 1774SOL    HW117381   8.326   0.456   9.804 -1.5240 -0.7023  0.1786
 1774SOL    HW217382   8.306   0.378   9.662  0.3476 -0.2273 -0.3659
 1775SOL     OW17383   1.591   2.806   3.918 -0.4517 -0.5938  0.1742
 1775SOL    HW117384   1.552   2.810   3.826  0.5670 -1.5824 -0.3025
 1775SOL    HW217385   1.551   2.729   3.968  0.0732 -0.9453  0.0573
 1776SOL     OW17386   0.736   4.354   8.146 -0.6899  0.1500  0.1416
 1776SOL    HW117387   0.783   4.293   8.209 -1.0689 -0.0236  0.2572
 1776SOL    HW217388   0.770   4.447   8.158  0.0236 -0.0665 -0.1651
 1777SOL     OW17389   7.703   1.251   2.087 -0.4973  0.5864 -0.0942
 1777SOL    HW117390   7.791   1.210   2.108 -0.7253 -0.6022 -1.4477
 1777SOL    HW217391   7.685   1.245   1.989 -1.5837  1.8246  0.0137
 1778SOL     OW17392   9.269   7.337   4.591 -0.0232  0.1220  0.5503
 1778SOL    HW117393   9.312   7.257   4.633  1.3402  1.5482  1.9732
 1778SOL    HW217394   9.324   7.418   4.610 -0.8471  1.2591 -1.7274
 1779SOL     OW17395   0.942   9.971   0.424  0.2549 -0.3216  0.0002
 1779SOL    HW117396   0.922   9.993   0.520 -0.2011 -0.8335  0.0215
 1779SOL    HW217397   1.010   9.898   0.421  0.8496  0.2257 -0.0722
 1780SOL     OW17398   9.713   4.537   3.799 -0.6629 -0.0545 -0.2117
 1780SOL    HW117399   9.718   4.518   3.701  0.4217  1.7032 -0.5209
 1780SOL    HW217400   9.734   4.634   3.816 -1.1955 -0.2483  1.7237
 1781SOL     OW17401   6.064   3.469   0.413  0.5972  0.0525  0.2030
 1781SOL    HW117402   6.075   3.443   0.317  1.8239 -1.8298  0.8293
 1781SOL    HW217403   5.969   3.455   0.440  1.3170 -4.7748  0.7304
 1782SOL     OW17404   7.838   3.115   1.710  0.7243  0.4672  0.2041
 1782SOL    HW117405   7.906   3.082   1.776 -0.9179 -2.2056  0.6469
 1782SOL    HW217406   7.755   3.142   1.759 -0.6031 -1.7713 -0.7160
 1783SOL     OW17407   7.298   6.600   9.784  0.1868 -0.3119  0.0918
 1783SOL    HW117408   7.303   6.515   9.837  0.0097 -0.4840 -0.1655
 1783SOL    HW217409   7.271   6.579   9.690 -1.3322  0.1662  0.3976
 1784SOL     OW17410   2.658   3.306   3.770  0.3117  0.0757  0.2556
 1784SOL    HW117411   2.653   3.319   3.869 -0.6835 -0.7046  0.3146
 1784SOL    HW217412   2.653   3.208   3.749  2.5661  0.0909 -0.4617
 1785SOL     OW17413   2.474   2.342   1.387  0.5454 -0.7837 -0.0858
 1785SOL    HW117414   2.393   2.400   1.393 -0.7177 -2.5654  0.2570
 1785SOL    HW217415   2.522   2.341   1.475 -1.3453 -2.9931  0.9454
 1786SOL     OW17416   4.830   9.986   1.870 -0.5987  0.6935  0.2419
 1786SOL    HW117417   4.911   9.990   1.812 -0.0469 -0.1165  0.9460
 1786SOL    HW217418   4.810  10.077   1.906  1.0717  0.6000  1.4946
 1787SOL     OW17419   1.781   3.008   7.691  0.3195 -0.2692  0.2301
 1787SOL    HW117420   1.731   2.999   7.777 -1.9910  2.1040 -0.7888
 1787SOL    HW217421   1.738   2.949   7.622 -0.5356  1.0628 -0.3967
 1788SOL     OW17422   1.388   3.544   3.094 -0.5732 -0.4087  0.2095
 1788SOL    HW117423   1.405   3.575   3.000 -0.7139 -1.4369 -0.1581
 1788SOL    HW217424   1.471   3.557   3.148 -0.0160 -1.2380 -0.4419
 1789SOL     OW17425   8.073   3.352   2.184  0.4013  0.2436  0.2847
 1789SOL    HW117426   8.046   3.362   2.280  0.3504 -2.7635  0.6613
 1789SOL    HW217427   8.167   3.319   2.179 -0.1202 -1.2025 -0.6084
 1790SOL     OW17428   7.187   9.937   3.639  0.2639 -0.2592  0.1186
 1790SOL    HW117429   7.273   9.893   3.666 -0.2133 -0.6399  1.0365
 1790SOL    HW217430   7.136   9.963   3.721 -1.0092 -1.0395 -0.4196
 1791SOL     OW17431   6.948   2.136   5.044  0.3658 -0.2566 -0.1465
 1791SOL    HW117432   7.034   2.130   5.096  0.0511 -0.5640  0.3503
 1791SOL    HW217433   6.888   2.204   5.087  0.3902  0.0070 -0.5331
 1792SOL     OW17434   1.943   3.959   4.063  0.2292  0.2264 -0.1416
 1792SOL    HW117435   1.921   3.872   4.107  1.4976 -0.0555 -0.0482
 1792SOL    HW217436   1.989   4.019   4.128  0.8749  0.3240 -0.6815
 1793SOL     OW17437   0.106   9.544   2.547 -0.2990  0.0352  0.1899
 1793SOL    HW117438   0.084   9.451   2.577 -1.1325  0.1505 -0.0602
 1793SOL    HW217439   0.204   9.561   2.561 -0.2466 -0.6905  0.7390
 1794SOL     OW17440   9.902   7.090   6.959  0.4129 -1.0183  0.1214
 1794SOL    HW117441   9.823   7.109   6.901  0.2902 -1.6597  0.0759
 1794SOL    HW217442   9.984   7.084   6.903  0.9277  2.1477  0.4332
 1795SOL     OW17443   8.648   3.657   1.816  0.4573  0.1225  0.1271
 1795SOL    HW117444   8.587   3.728   1.783  1.5838  0.2053 -1.8993
 1795SOL    HW217445   8.727   3.698   1.861  0.1812  0.0978  0.6307
 1796SOL     OW17446   8.991   4.082   9.839  0.2587  0.0030 -0.1783
 1796SOL    HW117447   9.026   4.165   9.797 -0.7624  0.3342 -0.3954
 1796SOL    HW217448   9.045   4.059   9.920  1.6459 -0.1199 -1.1400
 1797SOL     OW17449   0.121   9.205   3.255 -0.3965  0.2802 -1.0699
 1797SOL    HW117450   0.147   9.148   3.177 -0.1302  1.3367 -1.7576
 1797SOL    HW217451   0.021   9.212   3.259 -0.4750 -1.0465 -0.3887
 1798SOL     OW17452   3.983   0.799   5.920  0.3644 -0.3388  0.0159
 1798SOL    HW117453   3.910   0.732   5.928 -0.2639  0.5046  1.5961
 1798SOL    HW217454   4.055   0.778   5.987  1.1710 -0.6699 -0.9445
 1799SOL     OW17455   1.494   2.299   3.095 -0.1253 -1.0307 -0.0544
 1799SOL    HW117456   1.434   2.341   3.163  0.0646  0.0096 -0.5214
 1799SOL    HW217457   1.444   2.290   3.008  1.0356  1.8383 -1.0810
 1800SOL     OW17458   4.377   4.494   3.104 -0.4925 -0.0496 -0.2784
 1800SOL    HW117459   4.425   4.554   3.168  0.5429  0.6804 -1.7105
 1800SOL    HW217460   4.427   4.409   3.094 -1.0647 -0.4785  0.4628
 1801SOL     OW17461   9.208   0.183   2.036  0.6685 -0.0107 -0.5549
 1801SOL    HW117462   9.231   0.140   1.948  2.6665  1.4122 -0.7503
 1801SOL    HW217463   9.263   0.141   2.108 -1.3364 -1.5416  0.1678
 1802SOL     OW17464   1.324   3.958   6.153  0.4880 -0.0857 -0.1659
 1802SOL    HW117465   1.271   4.036   6.184  1.2528  0.0188  0.9161
 1802SOL    HW217466   1.353   3.972   6.058  1.3490  1.3450  0.2880
 1803SOL     OW17467   1.599   0.591   6.954 -0.1418  0.3183  0.0405
 1803SOL    HW117468   1.528   0.588   6.883  0.3746  1.3632 -0.5243
 1803SOL    HW217469   1.641   0.681   6.956  1.5286 -0.4310  0.0238
 1804SOL     OW17470   2.872   8.105   9.503 -0.5357 -0.1966 -0.1200
 1804SOL    HW117471   2.951   8.114   9.564 -1.2940 -0.6934  0.9315
 1804SOL    HW217472   2.788   8.128   9.552 -1.2092 -1.1535 -0.7991
 1805SOL     OW17473   8.851   3.405   0.514  0.1772 -0.0209 -0.2648
 1805SOL    HW117474   8.904   3.383   0.432  0.3922  0.2979 -0.2113
 1805SOL    HW217475   8.800   3.324   0.544 -0.0687 -0.0798 -0.8389
 1806SOL     OW17476   9.687   1.950   4.500  0.9164 -0.5015 -0.0915
 1806SOL    HW117477   9.741   1.911   4.425  1.9206  0.4735  0.1093
 1806SOL    HW217478   9.672   2.047   4.482 -0.3791 -0.6701  0.0887
 1807SOL     OW17479   0.681   1.847   0.953 -0.2669  0.0095 -0.0368
 1807SOL    HW117480   0.763   1.884   0.996  1.5907 -1.9657 -1.7822
 1807SOL    HW217481   0.623   1.922   0.922  0.9554  1.4333  1.0307
 1808SOL     OW17482   5.811   0.513   2.337  0.4200  0.2009 -0.1552
 1808SOL    HW117483   5.726   0.510   2.284  0.6018 -0.3777 -0.4099
 1808SOL    HW217484   5.883   0.556   2.282  0.9601 -1.5894 -0.8753
 1809SOL     OW17485   8.707   5.233   2.608 -0.3174  0.4510  0.1147
 1809SOL    HW117486   8.753   5.308   2.656 -1.6080  1.7347 -0.6362
 1809SOL    HW217487   8.775   5.163   2.585  0.8526  1.2265  1.0856
 1810SOL     OW17488   9.065   3.981   0.445 -0.3548 -0.6411 -0.2692
 1810SOL    HW117489   8.982   3.993   0.391  1.5832  0.0149 -3.2195
 1810SOL    HW217490   9.098   4.070   0.476 -0.2505 -0.8156  0.1320
 1811SOL     OW17491   9.322   5.459   1.828 -0.5076 -0.1646 -0.2908
 1811SOL    HW117492   9.305   5.556   1.811  0.3403 -0.1092 -0.8560
 1811SOL    HW217493   9.416   5.447   1.861 -1.2477 -0.5786  1.7090
 1812SOL     OW17494   2.178   1.957   2.936  0.2446  0.1116 -0.2343
 1812SOL    HW117495   2.093   1.997   2.970 -0.1860 -2.4212  1.7835
 1812SOL    HW217496   2.159   1.901   2.856  0.2744  0.7805 -0.7180
 1813SOL     OW17497   2.203   1.309   7.455 -0.1603  0.0870  0.2965
 1813SOL    HW117498   2.260   1.277   7.379  0.1732  1.7393 -0.1722
 1813SOL    HW217499   2.123   1.249   7.465  0.8987 -1.4074  0.0384
 1814SOL     OW17500   0.283   0.984   4.784  0.2036 -0.1848 -0.0734
 1814SOL    HW117501   0.352   1.045   4.822  0.6480 -0.4009 -0.5235
 1814SOL    HW217502   0.269   1.005   4.687 -0.3944 -0.1138  0.0228
 1815SOL     OW17503   9.773   0.133   2.830 -0.9320  0.4915 -0.4248
 1815SOL    HW117504   9.842   0.101   2.765 -0.0070  2.2751 -0.3516
 1815SOL    HW217505   9.767   0.068   2.906  0.7007  0.3170 -0.4166
 1816SOL     OW17506   7.843   2.238   2.603  0.3563  0.0399 -0.4044
 1816SOL    HW117507   7.878   2.201   2.517 -0.3186 -0.6049 -0.4025
 1816SOL    HW217508   7.920   2.269   2.660  0.8477 -0.2633 -0.8999
 1817SOL     OW17509   9.901   4.462   5.672 -0.2195 -0.6134 -0.0864
 1817SOL    HW117510   9.922   4.474   5.575 -0.6812  0.1362 -0.0997
 1817SOL    HW217511   9.879   4.551   5.712  3.1329 -0.4259  1.4767
 1818SOL     OW17512   3.867   3.913   9.116 -0.2488  0.3850 -0.6765
 1818SOL    HW117513   3.877   3.989   9.050  1.7932  1.0546  0.3706
 1818SOL    HW217514   3.877   3.948   9.209  0.0223 -1.0660 -0.1478
 1819SOL     OW17515   2.159   1.047   2.400 -0.4719  0.0066  0.4292
 1819SOL    HW117516   2.191   1.141   2.387 -1.8578  0.7072  1.8708
 1819SOL    HW217517   2.231   0.994   2.445  0.1212  0.5221  0.1022
 1820SOL     OW17518   8.774   2.463   4.152  0.4624 -0.1003  0.2839
 1820SOL    HW117519   8.724   2.458   4.238 -0.0418 -0.6012 -0.0342
 1820SOL    HW217520   8.805   2.371   4.126  0.6067  0.0474 -0.0680
 1821SOL     OW17521   9.173   1.287   3.349  0.3397  0.4557 -0.6508
 1821SOL    HW117522   9.121   1.208   3.316  0.1300  1.0813 -1.8474
 1821SOL    HW217523   9.120   1.370   3.334  1.0218  0.9398 -0.4043
 1822SOL     OW17524   1.271   0.689   4.515 -1.2215  0.4111 -0.2833
 1822SOL    HW117525   1.194   0.748   4.535 -0.2677  1.5628  0.0326
 1822SOL    HW217526   1.292   0.634   4.597  0.5169  2.6593  0.8351
 1823SOL     OW17527   7.096   2.053   3.161  0.3490  0.0915  0.0921
 1823SOL    HW117528   7.057   1.963   3.140  0.7351 -0.1808  0.5302
 1823SOL    HW217529   7.024   2.122   3.155 -0.4627 -0.5582  2.0190
 1824SOL     OW17530   5.736   4.712   1.068  0.6391  0.1492  0.1025
 1824SOL    HW117531   5.640   4.706   1.040  0.8651  1.0230 -0.8819
 1824SOL    HW217532   5.777   4.795   1.030  2.2523 -1.0642 -0.9225
 1825SOL     OW17533   4.282   0.718   2.982  0.1857 -0.1723 -0.4537
 1825SOL    HW117534   4.217   0.643   2.987 -0.3365  0.3898  1.6594
 1825SOL    HW217535   4.356   0.703   3.048  1.0332  0.2773 -1.2849
 1826SOL     OW17536   6.418   1.413   3.106 -0.3046  0.3063 -0.3439
 1826SOL    HW117537   6.440   1.508   3.084 -1.4453  0.7833  0.5812
 1826SOL    HW217538   6.375   1.370   3.026  0.8858  0.3276 -1.0210
 1827SOL     OW17539   5.577   3.011   1.398  0.4089 -0.0097  0.6276
 1827SOL    HW117540   5.597   2.929   1.344  0.2085  0.4802 -0.2008
 1827SOL    HW217541   5.622   3.004   1.487  3.5004  0.6594 -0.8533
 1828SOL     OW17542   0.276   5.739   7.285  0.0201 -0.1352  0.6709
 1828SOL    HW117543   0.223   5.658   7.310  0.2741 -1.0043 -1.4557
 1828SOL    HW217544   0.365   5.735   7.331  0.4623 -1.6615 -0.2568
 1829SOL     OW17545   9.415   3.278   3.477 -0.3957 -0.1469 -0.5477
 1829SOL    HW117546   9.393   3.257   3.381 -0.7908  0.8746 -0.6965
 1829SOL    HW217547   9.514   3.289   3.486 -0.3167 -0.6699 -0.7494
 1830SOL     OW17548   0.360   3.646   1.559  0.1538 -0.4473  1.0996
 1830SOL    HW117549   0.412   3.567   1.591 -2.3166 -1.5015  2.6467
 1830SOL    HW217550   0.278   3.615   1.510  0.7851  1.1722 -1.0365
 1831SOL     OW17551   2.869   0.584   3.466  0.3135 -1.1681 -0.1265
 1831SOL    HW117552   2.790   0.645   3.474 -0.0871 -1.8888  1.5758
 1831SOL    HW217553   2.845   0.506   3.408 -0.4377 -1.7032  0.8898
 1832SOL     OW17554   8.248   8.096   9.509 -0.4755  0.5080 -0.2578
 1832SOL    HW117555   8.210   8.175   9.460 -0.5731  0.2755 -0.5560
 1832SOL    HW217556   8.309   8.129   9.582 -2.1459  0.9200  0.9785
 1833SOL     OW17557   2.956   9.076   1.519 -0.5066  0.1003 -0.0528
 1833SOL    HW117558   3.007   8.997   1.484  0.7727  0.8260  0.1684
 1833SOL    HW217559   2.858   9.062   1.501 -0.5279 -2.4211  1.6463
 1834SOL     OW17560   6.870   7.983   5.662  0.3359 -0.4540 -0.1041
 1834SOL    HW117561   6.858   7.931   5.746 -0.6937 -0.9453 -0.5393
 1834SOL    HW217562   6.951   7.950   5.613  0.5390 -0.6341  0.3575
 1835SOL     OW17563   1.756   3.284   3.149  0.1252  0.0229 -0.6943
 1835SOL    HW117564   1.817   3.346   3.199 -1.4998 -0.3490  1.8670
 1835SOL    HW217565   1.795   3.192   3.150  0.4764  0.1690 -0.7859
 1836SOL     OW17566   6.408   4.519   1.955  0.2317 -0.2949 -0.2194
 1836SOL    HW117567   6.385   4.425   1.981  1.7225 -0.7191 -0.3750
 1836SOL    HW217568   6.390   4.532   1.858  2.6439 -1.3002 -0.8525
 1837SOL     OW17569   0.120   6.338   5.216  0.2571 -0.1622 -0.1482
 1837SOL    HW117570   0.038   6.357   5.161 -1.4339 -1.8593  1.7246
 1837SOL    HW217571   0.192   6.402   5.189 -0.9242 -0.0576 -3.3899
 1838SOL     OW17572   3.218   2.653   5.868 -0.6310 -0.0540  0.1022
 1838SOL    HW117573   3.280   2.731   5.874 -0.6032 -0.1426  0.9955
 1838SOL    HW217574   3.270   2.570   5.849 -0.4192 -0.2101  1.3566
 1839SOL     OW17575   0.259   3.525   2.475  0.1023  0.6958 -0.6883
 1839SOL    HW117576   0.234   3.522   2.572  0.5242  1.5612 -0.5424
 1839SOL    HW217577   0.268   3.620   2.446  0.7513  0.4319 -1.3789
 1840SOL     OW17578   6.534   3.135   9.777  0.2087 -0.0443 -0.4340
 1840SOL    HW117579   6.603   3.186   9.828  1.6221 -1.5092 -0.8718
 1840SOL    HW217580   6.577   3.082   9.705 -1.4385 -0.5587 -1.0709
 1841SOL     OW17581   9.873   8.684   5.116  0.4468  0.0875 -0.0172
 1841SOL    HW117582   9.822   8.761   5.078  1.9766  0.6184 -1.0494
 1841SOL    HW217583   9.962   8.679   5.072  0.3018 -2.3840 -0.0769
 1842SOL     OW17584   0.567   4.372   5.728 -0.3340 -0.4387 -0.1853
 1842SOL    HW117585   0.553   4.332   5.637 -1.6273  0.2096 -0.2880
 1842SOL    HW217586   0.530   4.465   5.729  1.3633  0.2484  0.4655
 1843SOL     OW17587   4.237   9.122   2.733 -0.6947  0.3834 -0.1511
 1843SOL    HW117588   4.221   9.212   2.693  1.5308  0.5674 -0.6757
 1843SOL    HW217589   4.161   9.061   2.708 -2.0213  1.9873 -0.1001
 1844SOL     OW17590   2.487   9.924   2.541  0.0943  0.0570 -0.1287
 1844SOL    HW117591   2.457   9.858   2.610 -0.3293  0.3452 -0.0316
 1844SOL    HW217592   2.581   9.905   2.515 -0.3290 -1.1599 -0.7898
 1845SOL     OW17593   2.826   1.191   7.629 -0.1298  0.1621 -0.1006
 1845SOL    HW117594   2.772   1.124   7.579 -0.0740  0.3879 -0.4693
 1845SOL    HW217595   2.794   1.197   7.723 -1.7018  1.3435 -0.6849
 1846SOL     OW17596   3.307   0.227   4.194 -0.4746  0.0680 -0.3225
 1846SOL    HW117597   3.366   0.279   4.255 -0.2352  0.4243 -0.8525
 1846SOL    HW217598   3.276   0.286   4.119  0.2840 -0.7062 -1.2552
 1847SOL     OW17599   0.232   1.778   9.024 -0.3335 -0.4495 -0.5453
 1847SOL    HW117600   0.288   1.785   9.107 -0.6351  3.2210 -0.5752
 1847SOL    HW217601   0.135   1.775   9.050 -0.4054  0.1977 -0.7301
 1848SOL     OW17602   3.732   0.180   4.269  1.1029  0.4052 -0.0307
 1848SOL    HW117603   3.718   0.190   4.367 -0.3109 -0.4726 -0.1323
 1848SOL    HW217604   3.686   0.097   4.237  1.2572  0.8678 -1.4901
 1849SOL     OW17605   1.953   5.996   7.244 -0.1969 -0.3949  0.1190
 1849SOL    HW117606   1.854   5.989   7.235 -0.0338 -2.3225 -0.3718
 1849SOL    HW217607   1.978   6.091   7.261 -2.1627  0.0357  0.7440
 1850SOL     OW17608   9.381   3.245   0.270  0.2164 -0.0255 -0.0555
 1850SOL    HW117609   9.414   3.184   0.198  0.6186  0.1719 -0.0411
 1850SOL    HW217610   9.459   3.296   0.308  0.0837 -0.4855  0.8474
 1851SOL     OW17611   9.464   5.057   3.451 -1.0457  0.5926 -0.6044
 1851SOL    HW117612   9.435   5.100   3.537 -1.6261  2.3249 -1.6384
 1851SOL    HW217613   9.536   4.991   3.470 -0.2951  1.8500  1.0743
 1852SOL     OW17614   1.046   1.328   4.547 -0.3304 -0.6035 -0.3633
 1852SOL    HW117615   1.141   1.299   4.544 -0.2166 -0.1151 -1.6654
 1852SOL    HW217616   1.018   1.361   4.457 -1.0820  1.3377  0.5418
 1853SOL     OW17617   5.322   2.805   0.300  0.7414  0.4390 -0.0325
 1853SOL    HW117618   5.306   2.903   0.312  0.2948  0.3430  0.1448
 1853SOL    HW217619   5.351   2.788   0.205  1.9071  0.8797  0.2253
 1854SOL     OW17620   0.050   7.040   2.966  0.2029  0.1603  0.3562
 1854SOL    HW117621   0.115   6.977   2.924 -0.2096 -0.1403  0.1528
 1854SOL    HW217622   0.056   7.129   2.921 -1.0369 -0.4854 -1.1639
 1855SOL     OW17623   0.830   1.914   4.581  0.0904 -0.5434 -0.2929
 1855SOL    HW117624   0.791   1.892   4.670  1.9023 -0.7670  0.4554
 1855SOL    HW217625   0.912   1.860   4.565  1.7361  1.9259 -0.6002
 1856SOL     OW17626   8.328   1.875   2.886  0.2763 -0.0024 -0.4378
 1856SOL    HW117627   8.264   1.822   2.831 -0.7638  1.4473 -0.6511
 1856SOL    HW217628   8.287   1.895   2.975  1.0462 -0.3748  0.0089
 1857SOL     OW17629   3.312   7.662   6.867  0.3876 -0.0170  0.1979
 1857SOL    HW117630   3.284   7.593   6.933  0.8381 -0.7973 -0.4225
 1857SOL    HW217631   3.233   7.690   6.813  0.6415 -1.6894 -1.0601
 1858SOL     OW17632   0.037   8.350   0.992 -0.4570 -1.0114 -0.5133
 1858SOL    HW117633   0.039   8.400   1.078  0.2238  0.0057 -1.1101
 1858SOL    HW217634   0.051   8.252   1.010  1.8928 -0.5490  0.3662
 1859SOL     OW17635   7.550   9.423   0.134  0.4344  0.4690  0.3489
 1859SOL    HW117636   7.601   9.342   0.165  0.5163  0.6999  0.8330
 1859SOL    HW217637   7.490   9.454   0.208 -0.8178 -0.1217 -0.4090
 1860SOL     OW17638   1.434   0.720   3.293 -0.5819 -0.1169 -0.2410
 1860SOL    HW117639   1.347   0.694   3.335 -1.8576 -0.2828 -2.8913
 1860SOL    HW217640   1.427   0.711   3.194  2.4522 -0.0546 -0.5008
 1861SOL     OW17641   8.508   4.443   3.681  0.5051  0.2108 -0.1296
 1861SOL    HW117642   8.478   4.475   3.770 -0.0757 -0.8114  0.0512
 1861SOL    HW217643   8.453   4.485   3.609 -1.4457 -1.6901  0.1983
 1862SOL     OW17644   7.243   0.522   2.554  0.6311 -0.3385  0.9510
 1862SOL    HW117645   7.161   0.525   2.610  0.3209 -0.2704  0.4942
 1862SOL    HW217646   7.292   0.610   2.562 -0.7338  0.6139 -0.8445
 1863SOL     OW17647   1.513   1.649   9.847 -0.2186 -0.2695 -0.1318
 1863SOL    HW117648   1.475   1.716   9.784 -0.2542 -0.6171 -0.4806
 1863SOL    HW217649   1.474   1.663   9.938  2.0230  2.1284  0.5171
 1864SOL     OW17650   0.016   9.839   5.849 -0.0873 -0.9180 -0.0427
 1864SOL    HW117651   0.030   9.859   5.752  0.1944 -0.1615  0.1442
 1864SOL    HW217652  -0.072   9.878   5.878 -0.8573 -2.4236 -0.3383
 1865SOL     OW17653   8.096   4.457   6.733 -0.1672  0.0494 -0.5046
 1865SOL    HW117654   8.093   4.492   6.826 -0.5096  0.2804 -0.6005
 1865SOL    HW217655   8.175   4.494   6.685  0.2471 -0.4061 -0.1705
 1866SOL     OW17656   0.454   2.666   3.939  0.3578  0.4799 -0.3740
 1866SOL    HW117657   0.496   2.602   3.874  2.4182  1.7340 -0.3280
 1866SOL    HW217658   0.380   2.715   3.894  0.9129  0.3956 -1.4051
 1867SOL     OW17659   7.347   2.172   4.617 -0.2750 -0.0968  0.4152
 1867SOL    HW117660   7.369   2.253   4.672 -0.4022 -0.7593  1.4539
 1867SOL    HW217661   7.302   2.104   4.675  0.4836 -1.2065 -0.2734
 1868SOL     OW17662   3.876   2.981   4.709  0.1797  0.4229  0.1872
 1868SOL    HW117663   3.887   2.932   4.796 -2.0236 -1.1062 -0.3506
 1868SOL    HW217664   3.965   2.992   4.665  0.9737 -1.2002  1.3471
 1869SOL     OW17665   3.313   6.165   2.391  0.2417  0.6646  0.1498
 1869SOL    HW117666   3.351   6.152   2.299 -0.4210 -0.2383 -0.0003
 1869SOL    HW217667   3.259   6.085   2.416  0.4017  0.9241  1.3221
 1870SOL     OW17668   7.270   4.023   2.811  0.5038  0.5342 -0.4457
 1870SOL    HW117669   7.301   3.984   2.724 -0.8367 -0.4363 -0.5044
 1870SOL    HW217670   7.301   3.965   2.886 -0.8535 -0.2747 -0.4852
 1871SOL     OW17671   6.578   3.867   8.611 -0.2472  0.3039 -0.7169
 1871SOL    HW117672   6.572   3.924   8.528  0.1654 -0.4708 -1.2882
 1871SOL    HW217673   6.552   3.773   8.588 -1.2143  0.3164  0.2893
 1872SOL     OW17674   7.629   0.610   1.727 -0.2528 -0.0049  0.5041
 1872SOL    HW117675   7.561   0.682   1.741  0.7507  1.1320 -0.2166
 1872SOL    HW217676   7.715   0.637   1.770  0.4696 -0.2304 -0.7525
 1873SOL     OW17677   3.677   7.675   5.055  0.4176  0.0306  0.0498
 1873SOL    HW117678   3.719   7.765   5.069  0.8360 -0.0209 -0.8752
 1873SOL    HW217679   3.583   7.688   5.023  0.6464  0.1401 -0.5850
 1874SOL     OW17680   2.385   1.980   4.699 -0.0297 -0.0813  0.3754
 1874SOL    HW117681   2.314   1.979   4.769 -0.5725  0.7465 -0.1510
 1874SOL    HW217682   2.403   2.074   4.671  0.6965 -0.3504 -0.0809
 1875SOL     OW17683   0.264   1.169   6.064  0.6927 -0.1967  0.1089
 1875SOL    HW117684   0.174   1.159   6.022  0.6408  0.7319 -0.0137
 1875SOL    HW217685   0.333   1.179   5.992  0.6794  0.7956  0.2341
 1876SOL     OW17686   9.499   4.749   8.771 -0.0986  0.0222  0.3311
 1876SOL    HW117687   9.426   4.785   8.713  0.0283  0.1347  0.2401
 1876SOL    HW217688   9.466   4.668   8.820 -0.0160 -0.4532 -0.3770
 1877SOL     OW17689   1.755   8.558   1.817 -0.0924 -0.0004  0.1603
 1877SOL    HW117690   1.759   8.614   1.900  0.4331  0.9251 -0.4813
 1877SOL    HW217691   1.689   8.484   1.830  0.4462 -0.2234  1.6207
 1878SOL     OW17692   3.106   8.637   3.210  0.5327  0.2678  0.0920
 1878SOL    HW117693   3.201   8.636   3.241  0.4117  0.5052  0.4670
 1878SOL    HW217694   3.078   8.731   3.192 -0.5629  0.4930  2.8337
 1879SOL     OW17695   3.326   3.713   9.583  0.0540  0.3837  0.2783
 1879SOL    HW117696   3.232   3.747   9.571  0.6806  2.5293  1.2474
 1879SOL    HW217697   3.337   3.627   9.533 -2.1948  0.5333 -0.5213
 1880SOL     OW17698   2.054   6.583   2.934  0.2968  0.4556  0.1483
 1880SOL    HW117699   1.970   6.579   2.879  1.0094 -0.5843 -0.9012
 1880SOL    HW217700   2.031   6.575   3.031 -0.8252  0.2331 -0.1273
 1881SOL     OW17701   6.871   2.557   0.856 -0.2927 -0.1729  0.2132
 1881SOL    HW117702   6.775   2.545   0.830 -0.4759 -1.8096  1.6058
 1881SOL    HW217703   6.912   2.468   0.875  0.8607  0.6978  1.8936
 1882SOL     OW17704   7.025   4.421   2.752  0.4468  0.0138  0.3201
 1882SOL    HW117705   7.065   4.512   2.742 -0.9422  0.5818 -0.1944
 1882SOL    HW217706   7.008   4.403   2.849 -0.9525  1.0663  0.2968
 1883SOL     OW17707   9.615   1.726   0.635 -0.0484 -0.0855  0.5329
 1883SOL    HW117708   9.605   1.641   0.583 -2.9772  1.4381 -1.5629
 1883SOL    HW217709   9.569   1.716   0.723 -1.9930 -0.1115 -0.4565
 1884SOL     OW17710   2.816   4.361   0.424  0.1579 -0.2479 -0.0174
 1884SOL    HW117711   2.772   4.426   0.362 -0.9061  0.2924  1.2773
 1884SOL    HW217712   2.748   4.323   0.487  1.3033 -0.3561  1.1942
 1885SOL     OW17713   9.763   3.998   4.018  0.6769 -0.2414 -0.1233
 1885SOL    HW117714   9.822   4.041   3.950  0.4651 -1.9392 -1.4293
 1885SOL    HW217715   9.696   3.940   3.971 -0.4274 -0.2862  1.4715
 1886SOL     OW17716   4.412   4.377   9.665  0.1816 -0.2446  0.2789
 1886SOL    HW117717   4.365   4.392   9.578 -0.8178 -1.6287  0.5627
 1886SOL    HW217718   4.361   4.422   9.738  1.0840  1.0159  0.1541
 1887SOL     OW17719   4.628   0.234   5.670  0.7822  0.0225  0.5143
 1887SOL    HW117720   4.604   0.331   5.676  0.2887 -0.0821  0.3169
 1887SOL    HW217721   4.602   0.188   5.755 -1.6691 -0.4985 -0.4760
 1888SOL     OW17722   0.989   7.281   0.962 -0.6087 -0.1657 -0.1839
 1888SOL    HW117723   0.904   7.234   0.985 -0.4477 -0.7361 -0.7583
 1888SOL    HW217724   1.058   7.214   0.933 -0.2727  0.3890 -0.6815
 1889SOL     OW17725   4.363   6.693   0.105  0.4755  0.8721 -0.5265
 1889SOL    HW117726   4.275   6.660   0.072  0.6303  0.3619 -0.4385
 1889SOL    HW217727   4.358   6.707   0.204  1.2648 -1.7180 -0.0834
 1890SOL     OW17728   0.028   7.131   8.984 -1.0078  0.2047 -0.3405
 1890SOL    HW117729   0.064   7.050   9.029 -0.1221  0.5088 -0.4969
 1890SOL    HW217730   0.074   7.145   8.896 -1.3461  0.7148 -0.4442
 1891SOL     OW17731   9.596   8.525   3.903 -0.0116 -0.1426  0.2237
 1891SOL    HW117732   9.660   8.599   3.923  2.4529 -2.0099 -0.5104
 1891SOL    HW217733   9.503   8.562   3.895  0.7581  2.4357  2.5155
 1892SOL     OW17734   1.642   9.456   3.319  0.1037  0.4398  0.2563
 1892SOL    HW117735   1.543   9.471   3.319 -0.0371 -0.4123 -0.5208
 1892SOL    HW217736   1.675   9.448   3.413 -0.4267  1.5892  0.5424
 1893SOL     OW17737   2.456   2.812   6.221  0.3742  0.2657 -0.1205
 1893SOL    HW117738   2.485   2.907   6.222 -0.0364  0.4021 -0.6464
 1893SOL    HW217739   2.519   2.758   6.166 -1.0388  0.7958 -2.3210
 1894SOL     OW17740   0.025   6.295   1.085  0.3932  0.1691  0.1642
 1894SOL    HW117741  -0.055   6.271   1.030 -0.6948  0.2396  1.6747
 1894SOL    HW217742   0.082   6.360   1.036 -0.2985 -0.1515 -1.0762
 1895SOL     OW17743   0.317   8.612   6.715 -0.2159 -0.2495  0.3188
 1895SOL    HW117744   0.408   8.609   6.757 -0.7936  0.5738  1.6722
 1895SOL    HW217745   0.285   8.706   6.711 -0.0802 -0.2740 -2.2625
 1896SOL     OW17746   1.298   7.393   0.588 -0.2747 -0.1460 -0.1587
 1896SOL    HW117747   1.382   7.339   0.584 -0.0894  0.0652  0.7559
 1896SOL    HW217748   1.264   7.408   0.496  0.4835 -0.5688 -0.5140
 1897SOL     OW17749   1.938   9.147   4.297 -0.0847  0.1955  0.1331
 1897SOL    HW117750   1.951   9.128   4.395  1.0827  1.4436  0.2446
 1897SOL    HW217751   1.955   9.244   4.280  1.6176 -0.3877 -1.6146
 1898SOL     OW17752   8.535   4.209   9.771 -0.3801  0.3249  0.0726
 1898SOL    HW117753   8.448   4.166   9.745 -0.2534 -0.2669  0.6094
 1898SOL    HW217754   8.550   4.197   9.869 -0.0196  1.0285  0.1033
 1899SOL     OW17755   0.802   6.008   1.880  0.1756  0.3880 -0.2292
 1899SOL    HW117756   0.808   5.979   1.975 -1.4833  0.4405 -0.0862
 1899SOL    HW217757   0.705   6.020   1.855  0.6336  1.2770 -1.6406
 1900SOL     OW17758   1.980   3.917   2.304  0.1123  0.4347  0.3286
 1900SOL    HW117759   2.033   3.893   2.223 -0.1567 -1.1167  0.5985
 1900SOL    HW217760   2.039   3.916   2.385 -0.1017 -0.2460  0.4767
 1901SOL     OW17761   9.634   2.342   1.330 -0.2408 -0.4381  0.0860
 1901SOL    HW117762   9.545   2.299   1.337 -0.9609  1.0953  0.5091
 1901SOL    HW217763   9.657   2.357   1.234 -1.2380  0.7780  0.0299
 1902SOL     OW17764   3.145   5.757   1.993  0.0472 -0.2866 -0.1755
 1902SOL    HW117765   3.191   5.751   1.905  1.2428 -3.0796  0.6060
 1902SOL    HW217766   3.066   5.695   1.994  0.2844 -0.5874  0.8450
 1903SOL     OW17767   9.479   6.596   4.325  0.0371  0.0854 -0.1015
 1903SOL    HW117768   9.429   6.681   4.311  0.1665  0.1489 -0.1709
 1903SOL    HW217769   9.569   6.602   4.282  0.5288  0.3738  0.9536
 1904SOL     OW17770   2.721   7.552   6.774 -0.4922 -0.1389  0.1701
 1904SOL    HW117771   2.661   7.568   6.852  0.5935  0.7138  0.8549
 1904SOL    HW217772   2.768   7.464   6.785 -0.4299 -0.0741  0.4283
 1905SOL     OW17773   8.947   0.251   2.995  0.0312  0.8946 -0.2391
 1905SOL    HW117774   8.882   0.218   3.063 -1.8649  1.4355 -1.7379
 1905SOL    HW217775   9.039   0.220   3.018 -0.8246 -0.2580  1.6838
 1906SOL     OW17776   3.242   4.392   0.426  0.0494  0.2041  0.0548
 1906SOL    HW117777   3.218   4.404   0.522  2.4739 -0.0325  0.7356
 1906SOL    HW217778   3.213   4.473   0.374  1.1987  1.6073  1.5261
 1907SOL     OW17779   9.482   3.402   7.993 -0.0251 -0.2066  0.2405
 1907SOL    HW117780   9.563   3.430   7.941 -0.0724 -0.0907  0.2313
 1907SOL    HW217781   9.492   3.305   8.019 -0.1803 -0.3763 -0.3227
 1908SOL     OW17782   3.400   1.027   4.437  0.0828  0.0639  0.2376
 1908SOL    HW117783   3.433   1.022   4.343 -1.9156  1.0654 -0.5552
 1908SOL    HW217784   3.381   0.935   4.471  0.3816 -0.2747 -0.5088
 1909SOL     OW17785   8.803   0.299   5.395  0.3859  0.2246 -0.0445
 1909SOL    HW117786   8.885   0.340   5.357  0.2415  0.3067 -0.2664
 1909SOL    HW217787   8.730   0.300   5.326 -0.3431  1.7828  0.7200
 1910SOL     OW17788   0.578   5.768   6.599 -0.7257 -0.0391 -0.2819
 1910SOL    HW117789   0.587   5.795   6.695 -1.5449 -0.7670  0.0038
 1910SOL    HW217790   0.491   5.802   6.563 -1.0457 -0.9409 -0.3731
 1911SOL     OW17791   6.874   9.392   3.108  0.2480 -0.0576  0.0131
 1911SOL    HW117792   6.900   9.400   3.012  1.5676  0.0360  0.3573
 1911SOL    HW217793   6.818   9.470   3.134  0.4407  0.2636 -0.5203
 1912SOL     OW17794   2.835   2.106   2.164 -0.1085  0.2948 -0.4879
 1912SOL    HW117795   2.777   2.182   2.193  0.8877 -0.1413  2.8696
 1912SOL    HW217796   2.780   2.040   2.112 -2.1590  0.8576  0.9036
 1913SOL     OW17797   8.203   6.487   2.872 -0.0263  0.3674 -0.1207
 1913SOL    HW117798   8.137   6.472   2.945 -1.8885  0.2543 -1.8010
 1913SOL    HW217799   8.232   6.583   2.872 -1.7446  0.9009 -0.6455
 1914SOL     OW17800   9.919   1.754   2.912  0.4060 -0.1344 -0.5014
 1914SOL    HW117801   9.938   1.661   2.943 -2.3721 -0.6680 -0.2863
 1914SOL    HW217802   9.933   1.818   2.987 -1.0781 -0.7987  0.3441
 1915SOL     OW17803   0.316   3.290   5.626 -0.2074  0.6269 -0.5945
 1915SOL    HW117804   0.362   3.258   5.543  0.4882  0.2671 -0.0831
 1915SOL    HW217805   0.225   3.249   5.631  0.4824 -0.9041 -0.2071
 1916SOL     OW17806   8.615   2.245   2.652  0.4437  0.1660  0.3905
 1916SOL    HW117807   8.709   2.229   2.682  0.9682 -0.3750 -1.5069
 1916SOL    HW217808   8.569   2.157   2.637  0.2432  0.4253 -0.5495
 1917SOL     OW17809   2.008   1.356   2.141 -0.3670  0.4218  0.3848
 1917SOL    HW117810   1.971   1.364   2.049 -0.2187 -0.4166  0.2468
 1917SOL    HW217811   1.942   1.311   2.200  0.4577 -1.1796  0.1113
 1918SOL     OW17812   0.837   2.456   5.596 -0.4047  0.0677 -0.3907
 1918SOL    HW117813   0.885   2.372   5.573 -0.8146  0.3921 -2.5149
 1918SOL    HW217814   0.795   2.494   5.514  0.0949  2.5418  0.4572
 1919SOL     OW17815   4.140   3.701   2.760  0.2648  0.3838  0.5587
 1919SOL    HW117816   4.175   3.641   2.832  1.3704 -0.5240 -0.7329
 1919SOL    HW217817   4.208   3.772   2.740  0.1251  0.3894  0.1038
 1920SOL     OW17818   8.470   3.000   8.838  0.7130  0.2274 -0.2629
 1920SOL    HW117819   8.453   3.096   8.816 -2.8253  0.2070  1.9338
 1920SOL    HW217820   8.437   2.982   8.931  3.2945 -2.6319  0.1473
 1921SOL     OW17821   1.554   1.024   7.514  0.1573 -0.0416  0.6791
 1921SOL    HW117822   1.467   0.984   7.544 -0.3731  0.6545  0.1007
 1921SOL    HW217823   1.586   0.978   7.431  0.0451  0.0759  0.5694
 1922SOL     OW17824   3.123   7.473   1.340  0.6159  0.0104 -0.3946
 1922SOL    HW117825   3.137   7.532   1.420 -1.6740 -0.1524  0.1566
 1922SOL    HW217826   3.202   7.413   1.329  1.1937  0.4028  1.4392
 1923SOL     OW17827   7.387   5.840   9.891  0.0950 -0.5711 -0.2850
 1923SOL    HW117828   7.473   5.862   9.936 -0.4281 -1.8557  1.3662
 1923SOL    HW217829   7.375   5.740   9.888 -1.4159 -0.3988 -0.3407
 1924SOL     OW17830   9.309   8.320   5.621 -0.4571 -0.4590 -0.0373
 1924SOL    HW117831   9.317   8.400   5.681  0.4696 -0.8447  0.3669
 1924SOL    HW217832   9.213   8.296   5.610 -0.6948  0.2563  0.4571
 1925SOL     OW17833   1.020   6.414   4.735 -0.1298  0.0408 -0.6904
 1925SOL    HW117834   0.942   6.474   4.752 -0.3173 -0.1718 -0.8202
 1925SOL    HW217835   1.085   6.423   4.811 -0.4528 -0.0681 -0.4000
 1926SOL     OW17836   2.532   1.188   4.971  0.0669  0.5387  0.2642
 1926SOL    HW117837   2.450   1.240   4.948 -1.8117 -1.3625  2.3893
 1926SOL    HW217838   2.577   1.228   5.051 -0.5756 -0.2393  1.0246
 1927SOL     OW17839   9.022   2.039   3.836  0.2036 -0.0133 -0.4436
 1927SOL    HW117840   8.968   2.009   3.757  0.1095 -0.0990 -0.3468
 1927SOL    HW217841   9.010   2.137   3.849  0.6881  0.1069 -0.8956
 1928SOL     OW17842   1.108   5.755   3.425  0.1573 -0.5517  0.2542
 1928SOL    HW117843   1.146   5.711   3.506 -2.5082 -1.0484  1.3166
 1928SOL    HW217844   1.054   5.687   3.374 -0.4088  0.4211 -0.4481
 1929SOL     OW17845   9.397   2.061   3.246 -0.2744 -0.0621 -0.3575
 1929SOL    HW117846   9.410   2.156   3.215 -0.7681 -0.5778 -2.2067
 1929SOL    HW217847   9.334   2.060   3.324  1.1136  1.2822  0.8200
 1930SOL     OW17848   2.646   0.422   5.646 -0.2732  0.7161 -0.1055
 1930SOL    HW117849   2.719   0.441   5.712  0.9652 -3.0248 -0.2265
 1930SOL    HW217850   2.561   0.402   5.695 -0.7590  3.1982  0.1099
 1931SOL     OW17851   6.573   1.131   1.052 -0.6557 -0.5264 -0.2890
 1931SOL    HW117852   6.537   1.158   1.141  0.4075  2.1075 -0.5820
 1931SOL    HW217853   6.667   1.097   1.063  0.0595  1.2819 -0.5249
 1932SOL     OW17854   0.930   4.055   6.079  0.3409  0.3175 -0.2573
 1932SOL    HW117855   0.962   4.096   6.164 -1.3343  1.3567 -0.0836
 1932SOL    HW217856   0.991   3.981   6.051  0.5014 -0.5374  2.2385
 1933SOL     OW17857   1.930   5.214   2.941 -0.2989 -0.4553 -0.0498
 1933SOL    HW117858   1.862   5.249   2.877 -0.7625 -0.1263  0.6301
 1933SOL    HW217859   1.954   5.120   2.915 -1.6840 -0.8978  0.2457
 1934SOL     OW17860   2.833   0.999   1.542 -0.0521 -0.4447 -0.5268
 1934SOL    HW117861   2.735   0.986   1.556  0.0112 -0.3489  0.0356
 1934SOL    HW217862   2.873   0.916   1.505 -0.3448 -0.4939 -0.7303
 1935SOL     OW17863   2.439   0.239   0.913 -0.0342  0.5979  0.3944
 1935SOL    HW117864   2.411   0.143   0.913  0.6162  0.3979  1.9914
 1935SOL    HW217865   2.409   0.282   0.828 -0.9601 -0.8325 -0.0255
 1936SOL     OW17866   9.525   3.803   2.876 -0.4471  0.3252 -0.0144
 1936SOL    HW117867   9.455   3.871   2.898 -1.4125 -0.6488 -0.0482
 1936SOL    HW217868   9.541   3.744   2.955 -0.2798 -0.0006 -0.2890
 1937SOL     OW17869   9.977   0.733   1.389 -0.1226  0.1905  0.1109
 1937SOL    HW117870   9.880   0.748   1.408 -0.0961  0.7281 -0.1877
 1937SOL    HW217871  10.000   0.771   1.300  0.5780  0.9268  0.6015
 1938SOL     OW17872   3.994   6.810   4.871 -0.0572  0.4755  0.4638
 1938SOL    HW117873   3.991   6.729   4.929  0.1334 -0.8402 -1.3201
 1938SOL    HW217874   4.015   6.891   4.927 -0.8279 -0.5981  2.3516
 1939SOL     OW17875   9.803   8.257   0.060 -0.1232  0.0364 -0.1796
 1939SOL    HW117876   9.764   8.173   0.097 -0.5219  0.2754 -0.0592
 1939SOL    HW217877   9.796   8.330   0.128  0.9518 -0.0320  0.0270
 1940SOL     OW17878   2.668   6.726   9.961  0.4386 -0.0568 -0.1659
 1940SOL    HW117879   2.626   6.785   9.892  0.3383  0.3451  0.2370
 1940SOL    HW217880   2.600   6.659   9.993 -0.1900  1.1972  1.1712
 1941SOL     OW17881   7.195   4.703   8.743  0.5856 -0.6888 -0.0275
 1941SOL    HW117882   7.241   4.677   8.828 -0.1503 -0.4330  0.4507
 1941SOL    HW217883   7.100   4.674   8.746  0.4396 -0.2784 -0.5749
 1942SOL     OW17884   2.549   2.418   5.998  0.2062  0.0419  0.1536
 1942SOL    HW117885   2.551   2.441   5.901 -0.1097 -0.9337 -0.0967
 1942SOL    HW217886   2.608   2.339   6.014  1.1125  0.8664  0.9487
 1943SOL     OW17887   9.515   4.344   6.853  0.4641  0.5670  0.1952
 1943SOL    HW117888   9.499   4.272   6.920  1.0265  1.2869  1.1059
 1943SOL    HW217889   9.435   4.351   6.792  0.3602 -0.7384  0.1625
 1944SOL     OW17890   3.824   6.101   4.376  0.2917 -0.5471 -0.3318
 1944SOL    HW117891   3.813   6.189   4.422  0.6950  0.0695 -1.4045
 1944SOL    HW217892   3.734   6.057   4.365 -0.0455  0.2757 -0.8690
 1945SOL     OW17893   5.767   5.092   1.683  0.9087  0.3620  0.6518
 1945SOL    HW117894   5.857   5.095   1.639  0.8463  0.0443  0.5051
 1945SOL    HW217895   5.758   5.007   1.735  0.6818  0.3795  0.6414
 1946SOL     OW17896   3.835   2.197   0.431 -0.5009 -0.7036  0.3238
 1946SOL    HW117897   3.897   2.215   0.355  0.5408 -0.8704  1.1378
 1946SOL    HW217898   3.780   2.116   0.410  1.8870 -2.5271  1.0314
 1947SOL     OW17899   9.917   1.956   5.003 -0.0869  1.0049  0.5980
 1947SOL    HW117900  10.001   1.995   5.039 -0.2462  2.0826 -0.1897
 1947SOL    HW217901   9.851   2.029   4.984 -0.4071  0.3581 -0.8221
 1948SOL     OW17902   0.471   8.164   7.153  0.3692  0.1654 -0.2043
 1948SOL    HW117903   0.480   8.103   7.232  0.7772  0.0691 -0.3279
 1948SOL    HW217904   0.451   8.110   7.071 -2.2125  0.4241  0.2018
 1949SOL     OW17905   8.968   4.626   1.486  0.7662  0.8339 -0.2401
 1949SOL    HW117906   8.935   4.598   1.576 -0.0866  1.5193 -0.3354
 1949SOL    HW217907   9.055   4.580   1.466  1.2802  1.1584  1.2057
 1950SOL     OW17908   7.546   3.046   5.823 -0.0871  0.4630 -0.3761
 1950SOL    HW117909   7.582   3.139   5.825 -0.8128  0.7278  1.3504
 1950SOL    HW217910   7.608   2.987   5.771 -0.3720  2.1885 -2.7545
 1951SOL     OW17911   8.389   5.890   4.610  0.0926 -0.6424 -0.4193
 1951SOL    HW117912   8.392   5.983   4.572 -0.4195 -0.4578 -0.0098
 1951SOL    HW217913   8.330   5.833   4.553 -0.1963 -0.5231 -0.2369
 1952SOL     OW17914   0.050   2.047   0.429  0.1736 -0.0954 -0.3800
 1952SOL    HW117915   0.137   2.007   0.455 -0.2507 -0.5582  0.3308
 1952SOL    HW217916   0.065   2.115   0.357  1.0390 -0.6368 -0.7212
 1953SOL     OW17917   2.635   1.777   3.697 -0.2496 -0.1798 -0.4208
 1953SOL    HW117918   2.572   1.737   3.630 -0.0878 -0.5409 -0.3562
 1953SOL    HW217919   2.711   1.820   3.648  0.3320 -1.2139 -0.4512
 1954SOL     OW17920   4.257   7.797   4.716  0.4216  0.1835 -0.0280
 1954SOL    HW117921   4.295   7.738   4.788  1.7803  1.9852  0.7803
 1954SOL    HW217922   4.273   7.756   4.627  2.1775 -0.2636  0.4653
 1955SOL     OW17923   9.641   2.635   5.240 -0.1852  0.0605  0.0777
 1955SOL    HW117924   9.676   2.608   5.330 -0.3988 -0.0536  0.1234
 1955SOL    HW217925   9.551   2.596   5.225 -0.1080 -0.0051 -0.2308
 1956SOL     OW17926   8.961   3.202   9.848 -0.0807  0.4837  0.3527
 1956SOL    HW117927   8.907   3.194   9.764  2.2915  0.6031 -1.2377
 1956SOL    HW217928   8.922   3.143   9.919 -0.8209 -1.3401 -1.5234
 1957SOL     OW17929   1.981   5.254   7.149  0.0093  0.4209 -0.2973
 1957SOL    HW117930   2.057   5.271   7.087 -0.1758 -0.9494 -0.9222
 1957SOL    HW217931   1.902   5.222   7.098 -0.3258 -0.1719  0.5704
 1958SOL     OW17932   8.212   1.274   0.074 -0.6967 -0.2981  0.3999
 1958SOL    HW117933   8.122   1.315   0.089  0.2429  1.6862  0.7508
 1958SOL    HW217934   8.245   1.234   0.159 -0.4233  0.6641  0.7480
 1959SOL     OW17935   1.515   5.814   7.849  0.3528 -0.4431  0.1514
 1959SOL    HW117936   1.514   5.866   7.764  1.3439  0.6043  0.7700
 1959SOL    HW217937   1.593   5.751   7.849  1.9726  1.5144  1.4223
 1960SOL     OW17938   4.159   7.267   9.317 -0.0422 -0.1145 -0.4253
 1960SOL    HW117939   4.168   7.173   9.283  0.0168 -0.3041  0.1089
 1960SOL    HW217940   4.074   7.276   9.368 -0.4826  0.3618 -1.2262
 1961SOL     OW17941   7.294   5.189   8.749  0.4880  0.3295  0.5246
 1961SOL    HW117942   7.312   5.092   8.736  0.7171  0.4958 -0.4322
 1961SOL    HW217943   7.199   5.209   8.725  0.3506  0.2964  1.0202
 1962SOL     OW17944   4.585   0.907   6.146 -0.2122  0.2128 -0.0881
 1962SOL    HW117945   4.683   0.920   6.161 -0.0609  0.7440 -1.4654
 1962SOL    HW217946   4.539   0.896   6.234  0.8302  1.7395  0.6649
 1963SOL     OW17947   2.683   1.381   5.575  0.2809  0.2346 -0.1010
 1963SOL    HW117948   2.683   1.424   5.485  0.8387  1.7489  0.6218
 1963SOL    HW217949   2.766   1.327   5.586  1.0975  1.5383  0.2100
 1964SOL     OW17950   7.101   0.707   5.663  0.0578 -0.0742  0.8694
 1964SOL    HW117951   7.190   0.753   5.666 -0.6282  1.3840 -0.5916
 1964SOL    HW217952   7.095   0.649   5.582 -0.6109  0.4515  0.5348
 1965SOL     OW17953   0.646   0.192   7.371 -0.2936 -0.0028 -0.2363
 1965SOL    HW117954   0.742   0.174   7.350 -0.3670  0.1014 -0.6475
 1965SOL    HW217955   0.639   0.273   7.429 -0.1429  0.0377 -0.2740
 1966SOL     OW17956   7.585   0.698   3.734  0.9424 -0.5364  0.5613
 1966SOL    HW117957   7.560   0.737   3.645 -2.0588 -0.8355  1.2512
 1966SOL    HW217958   7.639   0.765   3.786  0.0744  0.7995 -0.2475
 1967SOL     OW17959   0.989   5.734   5.798  0.3155  0.1524  0.2403
 1967SOL    HW117960   1.009   5.830   5.813 -1.8823  0.6977 -0.1353
 1967SOL    HW217961   0.918   5.704   5.861 -2.2992  0.0166 -2.6315
 1968SOL     OW17962   3.316   4.825   6.676  0.1278 -0.3997 -0.6998
 1968SOL    HW117963   3.287   4.920   6.687  0.4498 -0.3875  0.0149
 1968SOL    HW217964   3.299   4.797   6.581 -0.7322  0.1087 -0.7046
 1969SOL     OW17965   9.884   9.091   3.611 -0.7891  0.1910  0.0033
 1969SOL    HW117966   9.943   9.066   3.535  1.1866 -1.2780  1.9272
 1969SOL    HW217967   9.852   9.185   3.600  1.9054  1.0038 -1.1156
 1970SOL     OW17968   0.085   1.439   6.360  0.3231 -0.4584 -0.3457
 1970SOL    HW117969   0.167   1.395   6.325 -0.4712 -1.2790 -1.2298
 1970SOL    HW217970   0.087   1.536   6.337  0.0688 -0.8810 -2.2435
 1971SOL     OW17971   8.706   5.796   2.499 -0.1256  0.2513 -0.8196
 1971SOL    HW117972   8.684   5.866   2.567  2.0445  0.0443  0.1309
 1971SOL    HW217973   8.777   5.830   2.438  2.1620 -1.6868  0.6884
 1972SOL     OW17974   7.477   6.377   5.705  0.0988  0.0514  0.0135
 1972SOL    HW117975   7.456   6.364   5.802 -0.1758  3.3579  0.4753
 1972SOL    HW217976   7.406   6.433   5.663  1.6759  1.0504 -1.4046
 1973SOL     OW17977   7.615   4.709   2.220 -0.9287  0.9358  0.0675
 1973SOL    HW117978   7.653   4.665   2.301 -0.4159 -1.4413 -1.3882
 1973SOL    HW217979   7.682   4.771   2.180 -0.1821  0.0604 -0.0442
 1974SOL     OW17980   2.107   3.905   0.380  0.0186 -0.3588 -0.4625
 1974SOL    HW117981   2.172   3.870   0.313 -0.4068 -0.7542 -0.6675
 1974SOL    HW217982   2.134   3.998   0.406  0.1455 -0.1791 -1.2317
 1975SOL     OW17983   0.440   9.699   1.811 -0.8230 -0.2251  0.6632
 1975SOL    HW117984   0.392   9.785   1.797 -3.4928 -1.6441  0.6994
 1975SOL    HW217985   0.428   9.669   1.905 -1.6353 -1.6097  0.1362
 1976SOL     OW17986   7.459   3.879   5.445  0.0090  0.3243  0.0885
 1976SOL    HW117987   7.472   3.830   5.358 -0.9283  0.5308 -0.1745
 1976SOL    HW217988   7.451   3.977   5.427 -1.6385  0.2368  0.2423
 1977SOL     OW17989   1.820   3.284   5.740 -0.0441 -0.3176  0.5275
 1977SOL    HW117990   1.748   3.278   5.809 -0.6633 -0.5563 -0.1382
 1977SOL    HW217991   1.904   3.245   5.777 -0.4654 -0.7705  1.0153
 1978SOL     OW17992   8.225   1.419   2.712  0.0210  0.0509 -0.2253
 1978SOL    HW117993   8.244   1.396   2.808  0.7293 -1.7969 -0.7878
 1978SOL    HW217994   8.310   1.423   2.661 -0.4335  0.0108 -0.9906
 1979SOL     OW17995   1.588   0.423   0.434  0.2127 -0.2003 -0.4549
 1979SOL    HW117996   1.580   0.451   0.339  2.5014  0.4650 -0.4880
 1979SOL    HW217997   1.672   0.462   0.473  0.6582 -2.6115  1.0679
 1980SOL     OW17998   3.152   3.924   9.239  0.3488  0.9350 -0.3399
 1980SOL    HW117999   3.100   3.839   9.236 -0.0225  1.1601 -0.3690
 1980SOL    HW218000   3.090   4.001   9.229  0.8182  1.1724 -1.5207
 1981SOL     OW18001   2.247   1.990   3.329 -0.1018 -0.1719  0.0446
 1981SOL    HW118002   2.334   2.011   3.375 -1.2684 -0.7258  2.5895
 1981SOL    HW218003   2.221   1.896   3.351  0.0680 -0.9845 -3.0608
 1982SOL     OW18004  10.000   1.511   9.241 -0.1487  0.6501  0.8847
 1982SOL    HW118005   9.922   1.448   9.245 -0.2504  0.6876 -0.2553
 1982SOL    HW218006   9.973   1.599   9.280 -0.5028  0.4899  1.0098
 1983SOL     OW18007   0.245   9.511   8.369 -0.2832  0.8741 -0.4000
 1983SOL    HW118008   0.317   9.478   8.309 -0.2337  0.3913 -0.0793
 1983SOL    HW218009   0.167   9.542   8.314  0.6389  2.5479 -0.7945
 1984SOL     OW18010   1.564   0.911   0.187  0.8028 -0.4051  0.0665
 1984SOL    HW118011   1.541   0.997   0.141  1.5436  0.0078  0.4693
 1984SOL    HW218012   1.659   0.888   0.168  0.6275 -1.1054  0.0240
 1985SOL     OW18013   9.039   0.423   7.597  0.0529  0.0607 -0.0337
 1985SOL    HW118014   9.042   0.485   7.675 -1.0902  0.0083  0.0666
 1985SOL    HW218015   9.087   0.338   7.620  2.6032  1.3168 -0.5733
 1986SOL     OW18016   8.719   2.821   9.762  1.1531 -0.1674 -0.3139
 1986SOL    HW118017   8.660   2.841   9.840  1.5733  2.1741 -0.5558
 1986SOL    HW218018   8.814   2.814   9.793  1.5264  2.3411 -0.8058
 1987SOL     OW18019   4.150   4.068   9.261 -0.3482  0.4344  0.3992
 1987SOL    HW118020   4.220   4.068   9.333 -1.2527 -2.0866  1.3409
 1987SOL    HW218021   4.190   4.031   9.177 -0.1597  0.3304  0.5339
 1988SOL     OW18022   0.983   9.274   0.911  0.2430  0.2063 -0.1249
 1988SOL    HW118023   1.057   9.336   0.936  0.4470  0.2613 -0.8476
 1988SOL    HW218024   1.010   9.220   0.831 -0.9531  1.0799 -1.1377
 1989SOL     OW18025   2.579   3.043   4.949  0.2051  0.8972  0.5572
 1989SOL    HW118026   2.651   3.004   4.892  1.2381  1.0152  1.7450
 1989SOL    HW218027   2.500   2.983   4.949  1.4806 -0.8435  1.7176
 1990SOL     OW18028   2.495   3.544   8.952 -0.0924 -0.1475 -0.5089
 1990SOL    HW118029   2.568   3.478   8.971 -0.3797 -0.6900 -1.2960
 1990SOL    HW218030   2.529   3.616   8.892  0.2795  0.5532  0.5117
 1991SOL     OW18031   2.174   6.541   2.222 -0.2275  0.1422  0.6755
 1991SOL    HW118032   2.156   6.549   2.124  0.5522  2.2407  0.6746
 1991SOL    HW218033   2.119   6.608   2.271 -0.9975 -1.2409  1.7560
 1992SOL     OW18034   1.823   6.373   8.687 -0.4958  0.3124  0.3688
 1992SOL    HW118035   1.853   6.381   8.592 -0.9559 -0.1501  0.1826
 1992SOL    HW218036   1.842   6.281   8.721 -0.0467  0.5732  0.8243
 1993SOL     OW18037   1.756   1.177   3.927 -0.5742  0.1553  0.1056
 1993SOL    HW118038   1.705   1.157   4.011 -1.1783 -4.3736 -1.2129
 1993SOL    HW218039   1.692   1.193   3.852 -0.0327  1.4681 -0.0849
 1994SOL     OW18040   8.936   8.417   3.027 -0.6824  0.2563  0.4358
 1994SOL    HW118041   8.997   8.468   3.087 -0.6688  0.9976 -0.2035
 1994SOL    HW218042   8.899   8.338   3.076 -0.6033  0.8082  1.3816
 1995SOL     OW18043   4.424   5.262   4.345 -0.1828  0.0474  0.1125
 1995SOL    HW118044   4.517   5.233   4.369 -0.7216 -1.1699  0.7611
 1995SOL    HW218045   4.373   5.184   4.308 -1.0622  0.6141  0.1181
 1996SOL     OW18046   9.135   4.227   4.935  0.2778  0.1195 -0.3244
 1996SOL    HW118047   9.056   4.287   4.943 -0.5015 -0.7841 -1.0595
 1996SOL    HW218048   9.119   4.143   4.987  0.3416 -0.4812 -1.2597
 1997SOL     OW18049   0.446   1.305   7.595  0.4851  0.1801  0.5546
 1997SOL    HW118050   0.370   1.241   7.585  3.0328 -2.6963 -1.4715
 1997SOL    HW218051   0.525   1.257   7.631  2.8705  1.8185 -2.2291
 1998SOL     OW18052   0.167   1.773   8.602 -0.2646 -0.3014 -0.6656
 1998SOL    HW118053   0.137   1.732   8.516 -2.0314  0.0084 -0.2317
 1998SOL    HW218054   0.215   1.704   8.657 -1.7695 -1.3555 -0.6392
 1999SOL     OW18055   7.801   6.055   7.668 -0.0297 -0.3016 -0.0343
 1999SOL    HW118056   7.784   6.151   7.691  2.7036 -0.0808  1.2738
 1999SOL    HW218057   7.780   5.997   7.746 -1.3382 -0.7445 -0.7060
 2000SOL     OW18058   0.298   1.286   6.293 -0.0720  0.2226  0.6692
 2000SOL    HW118059   0.299   1.252   6.199 -0.6418  0.6144  0.5174
 2000SOL    HW218060   0.391   1.313   6.320 -0.1642  1.5270 -0.3020
 2001SOL     OW18061   0.555   3.871   8.506  0.1399  0.2816  0.3956
 2001SOL    HW118062   0.463   3.842   8.482  0.3845  0.1008 -0.3201
 2001SOL    HW218063   0.570   3.965   8.475  0.0196  0.4927  0.9727
 2002SOL     OW18064   6.762   6.575   7.939  0.2812  0.0832 -0.1159
 2002SOL    HW118065   6.723   6.486   7.912 -0.6044  0.5238 -0.3097
 2002SOL    HW218066   6.792   6.571   8.034  1.0148 -0.6781 -0.3685
 2003SOL     OW18067   9.475   1.489   2.896  0.2952 -0.4248 -0.0123
 2003SOL    HW118068   9.493   1.392   2.880 -0.0728 -0.7640  1.5662
 2003SOL    HW218069   9.440   1.502   2.989  1.4306  1.3548  0.1957
 2004SOL     OW18070   1.139   4.535   3.186  0.0776  0.0678 -0.0197
 2004SOL    HW118071   1.081   4.560   3.263 -0.8231 -1.7381 -0.0849
 2004SOL    HW218072   1.159   4.616   3.132 -0.8910  1.0259  1.0320
 2005SOL     OW18073   0.907   8.516   4.829  0.6266  0.3673 -0.0498
 2005SOL    HW118074   0.946   8.434   4.787 -1.6721 -0.4108 -0.7608
 2005SOL    HW218075   0.978   8.586   4.838  2.3379 -1.2554 -0.5567
 2006SOL     OW18076   1.586   4.494   0.504 -0.1873  0.0030 -0.8581
 2006SOL    HW118077   1.621   4.493   0.597  2.8442 -2.9281 -1.9430
 2006SOL    HW218078   1.505   4.552   0.499  0.3330  1.1898  3.3018
 2007SOL     OW18079   8.679   7.885   5.821  0.3674  0.0446  0.2678
 2007SOL    HW118080   8.600   7.944   5.837  0.1545 -0.3701  0.7786
 2007SOL    HW218081   8.749   7.904   5.890  1.1758  1.2049 -0.8691
 2008SOL     OW18082   9.208   8.839   5.274  0.5608  0.3410 -0.8353
 2008SOL    HW118083   9.144   8.878   5.341  0.3872 -1.2425 -0.0527
 2008SOL    HW218084   9.279   8.788   5.322  0.5925 -0.5833 -1.8574
 2009SOL     OW18085   0.252   9.314   1.141  0.5985 -0.2725 -0.3397
 2009SOL    HW118086   0.163   9.336   1.181  1.2129 -1.8927  2.0338
 2009SOL    HW218087   0.239   9.249   1.066 -0.3092  0.3383 -0.7206
 2010SOL     OW18088   9.210   3.599   4.033  0.1463 -0.3821  0.0550
 2010SOL    HW118089   9.110   3.599   4.035  0.1144 -0.8373 -1.4413
 2010SOL    HW218090   9.245   3.516   4.076 -0.1764 -1.5073 -1.8252
 2011SOL     OW18091   9.623   4.596   2.836 -0.2694  0.2702 -0.7565
 2011SOL    HW118092   9.592   4.513   2.789 -0.5301 -0.2843  0.3613
 2011SOL    HW218093   9.637   4.669   2.769  0.3833 -0.7965 -1.8093
 2012SOL     OW18094   1.920   9.118   1.231 -0.2701  0.3962 -0.4233
 2012SOL    HW118095   1.984   9.078   1.165  1.5091  0.2926  1.3174
 2012SOL    HW218096   1.883   9.046   1.290 -0.5208  0.7103 -0.1946
 2013SOL     OW18097   3.253   0.231   4.655 -0.0757  0.1674 -0.1078
 2013SOL    HW118098   3.221   0.310   4.707 -0.9379  0.4803 -1.1138
 2013SOL    HW218099   3.175   0.179   4.620  0.4868  0.2125 -1.4655
 2014SOL     OW18100   1.814   3.366   2.710  0.2041  0.1315  0.2562
 2014SOL    HW118101   1.865   3.447   2.682  0.2103 -0.1873 -0.6656
 2014SOL    HW218102   1.876   3.304   2.760  1.1003 -0.8566 -1.9935
 2015SOL     OW18103   6.937   4.312   0.746 -0.4556  0.0303  0.0426
 2015SOL    HW118104   6.947   4.216   0.769  1.3146  0.1847  0.0178
 2015SOL    HW218105   7.024   4.347   0.710 -0.5518  2.0544  1.6696
 2016SOL     OW18106   0.459   2.537   4.204 -0.6472  0.1616  0.1470
 2016SOL    HW118107   0.462   2.579   4.113  1.5090  0.0035  0.1034
 2016SOL    HW218108   0.476   2.608   4.273  0.8985 -0.2410  0.2042
 2017SOL     OW18109   1.204   0.416   2.893  0.5561 -0.0498  0.1035
 2017SOL    HW118110   1.159   0.479   2.830  0.4454 -1.5590 -1.3805
 2017SOL    HW218111   1.144   0.337   2.909  1.4609 -0.6745  0.4272
 2018SOL     OW18112   1.686   9.052   7.603  0.7029  0.7355 -0.0573
 2018SOL    HW118113   1.632   8.981   7.557 -0.7262  0.7979  1.4994
 2018SOL    HW218114   1.781   9.047   7.571  0.5094 -1.5336 -0.3413
 2019SOL     OW18115   0.908   4.231   6.453  0.3416  0.0296 -0.0641
 2019SOL    HW118116   0.847   4.252   6.377 -0.2524 -3.3737 -0.5868
 2019SOL    HW218117   0.857   4.237   6.539  0.2941  1.0369 -0.1544
 2020SOL     OW18118   0.003   3.102   9.420 -0.1570  0.0491 -0.3183
 2020SOL    HW118119   0.079   3.082   9.357 -1.5904 -2.0652 -1.4359
 2020SOL    HW218120   0.030   3.077   9.513  0.3927 -0.9951 -0.7509
 2021SOL     OW18121   6.759   3.994   2.835  0.3092  0.2263  0.1775
 2021SOL    HW118122   6.846   3.944   2.840 -0.0106 -0.6218 -2.0282
 2021SOL    HW218123   6.686   3.937   2.873  0.3937  0.0663  0.1034
 2022SOL     OW18124   5.212   2.295   2.811  0.0397  0.2894  0.4027
 2022SOL    HW118125   5.201   2.386   2.769 -2.4319 -0.1661  0.0191
 2022SOL    HW218126   5.304   2.261   2.791  0.0406  1.4992 -1.8906
 2023SOL     OW18127   9.691   6.207   4.910 -0.4294  0.3596 -0.2241
 2023SOL    HW118128   9.664   6.164   4.996  2.0661  2.4617  1.6753
 2023SOL    HW218129   9.711   6.135   4.842  2.0205 -1.5184  2.3616
 2024SOL     OW18130   2.014   4.090   3.831 -0.1554  0.2622 -0.0182
 2024SOL    HW118131   1.994   4.019   3.898 -0.7439 -0.1295 -0.5960
 2024SOL    HW218132   1.993   4.056   3.739  1.0276  0.6512 -0.4350
 2025SOL     OW18133   2.516   6.166   7.204 -0.0163  0.2260  0.5152
 2025SOL    HW118134   2.503   6.067   7.199  0.0276  0.2660 -0.6121
 2025SOL    HW218135   2.590   6.186   7.268  0.4404 -0.5141  0.2345
 2026SOL     OW18136   0.867   5.690   4.646 -0.0772 -0.6732  0.3084
 2026SOL    HW118137   0.954   5.651   4.617  0.2966  0.0635  0.4464
 2026SOL    HW218138   0.803   5.689   4.569 -0.1954 -1.8925  0.4036
 2027SOL     OW18139   0.685   6.633   7.283 -0.0274  0.0141  0.6925
 2027SOL    HW118140   0.658   6.549   7.237 -1.6486  1.5823 -1.2974
 2027SOL    HW218141   0.606   6.671   7.332  0.3368  1.0509  0.4835
 2028SOL     OW18142   0.953   1.132   3.924  0.1347 -0.7208 -0.3686
 2028SOL    HW118143   0.879   1.106   3.985 -0.6887 -0.9308 -1.4394
 2028SOL    HW218144   0.951   1.074   3.842 -0.5417  1.4176 -1.9040
 2029SOL     OW18145   3.377   0.831   4.787  0.2184 -0.5212 -0.3045
 2029SOL    HW118146   3.452   0.882   4.746 -0.8236  1.0638 -0.2832
 2029SOL    HW218147   3.356   0.751   4.731  0.0333  0.6078 -1.8752
 2030SOL     OW18148   8.855   1.719   4.689  0.0709 -0.5431  0.1848
 2030SOL    HW118149   8.865   1.803   4.635 -1.2653 -0.1285  0.5594
 2030SOL    HW218150   8.757   1.701   4.704  0.2544 -3.2107 -1.5148
 2031SOL     OW18151   7.772   0.678   0.933 -0.2713  0.0824 -0.0242
 2031SOL    HW118152   7.753   0.669   0.835 -0.4730  0.5235 -0.0230
 2031SOL    HW218153   7.870   0.671   0.949 -0.2202  0.2289 -0.2818
 2032SOL     OW18154   0.070   8.746   3.269 -0.1770  0.0813  0.4638
 2032SOL    HW118155   0.119   8.680   3.212 -0.6135  1.5953 -1.7267
 2032SOL    HW218156   0.016   8.807   3.211 -3.2079 -0.3501  2.6938
 2033SOL     OW18157   0.784   9.781   6.221  0.1810  0.4212 -0.4267
 2033SOL    HW118158   0.827   9.748   6.137 -1.2370  0.9273 -1.3765
 2033SOL    HW218159   0.738   9.868   6.203  1.3950  1.4666  1.3321
 2034SOL     OW18160   8.206   2.536   2.900  0.0943 -0.3386 -0.2258
 2034SOL    HW118161   8.165   2.560   2.988 -0.1830  0.0864 -0.4657
 2034SOL    HW218162   8.226   2.620   2.850  1.2645 -0.5459 -0.1102
 2035SOL     OW18163   2.621   0.325   6.686 -0.3860  0.3514  0.0539
 2035SOL    HW118164   2.615   0.243   6.630 -1.8671  0.3066  0.2528
 2035SOL    HW218165   2.586   0.403   6.635 -0.6980  0.5098  0.5009
 2036SOL     OW18166   5.336   1.268   1.074  0.5187 -0.4349 -0.1031
 2036SOL    HW118167   5.240   1.295   1.062  0.7362 -1.0622 -3.6213
 2036SOL    HW218168   5.395   1.333   1.026  1.5490 -2.4603 -1.6437
 2037SOL     OW18169   8.818   8.806   5.159  0.3551  0.0896  0.1247
 2037SOL    HW118170   8.838   8.714   5.191  1.7428  0.4560  0.3475
 2037SOL    HW218171   8.898   8.844   5.112  0.2158  1.6174  1.0655
 2038SOL     OW18172   3.081   3.073   5.314 -0.2753  0.0888 -0.1317
 2038SOL    HW118173   3.035   3.113   5.393 -0.6234 -1.2147  0.3411
 2038SOL    HW218174   3.026   2.999   5.278  1.1886 -1.1419  0.1050
 2039SOL     OW18175   7.229   2.258   6.658 -0.1106 -0.3296 -0.1578
 2039SOL    HW118176   7.161   2.292   6.593  3.5894 -0.0260 -4.0757
 2039SOL    HW218177   7.282   2.334   6.694  1.2600 -0.9159 -0.8742
 2040SOL     OW18178   7.651   2.632   7.045  0.7416  0.1426  0.2720
 2040SOL    HW118179   7.641   2.600   7.140  1.0743 -0.3620  0.1356
 2040SOL    HW218180   7.724   2.699   7.040  1.7336 -0.9385  0.1054
 2041SOL     OW18181   5.065   8.591   5.793 -0.0744 -0.2842 -0.4756
 2041SOL    HW118182   4.971   8.598   5.825  0.0480 -0.3984 -0.0824
 2041SOL    HW218183   5.071   8.622   5.698 -0.5505 -0.5036 -0.5786
 2042SOL     OW18184   9.223   5.288   3.828 -0.3053  0.2348  0.3621
 2042SOL    HW118185   9.129   5.266   3.854 -1.1307  2.2792 -0.7449
 2042SOL    HW218186   9.283   5.279   3.907 -1.2668 -2.0029  0.8521
 2043SOL     OW18187   3.109   8.983   1.855 -0.1296  0.0841 -0.4169
 2043SOL    HW118188   3.183   8.919   1.880 -0.5920 -0.0041  0.7394
 2043SOL    HW218189   3.023   8.950   1.892 -0.5308  0.8942 -0.6251
 2044SOL     OW18190   1.064   4.788   3.720  0.8522 -0.1392 -0.0546
 2044SOL    HW118191   0.982   4.791   3.664  0.0843  0.5570  1.0796
 2044SOL    HW218192   1.114   4.703   3.703  0.4714 -0.0750 -1.5391
 2045SOL     OW18193   9.359   8.096   3.352 -0.1929  0.1251  0.0896
 2045SOL    HW118194   9.349   8.175   3.292 -0.9981 -0.0919 -0.0677
 2045SOL    HW218195   9.417   8.028   3.308 -0.0280  0.3533 -0.0485
 2046SOL     OW18196   9.800   6.927   4.748 -0.2500  0.8511 -0.3285
 2046SOL    HW118197   9.716   6.889   4.708 -0.4734  1.4963 -0.4899
 2046SOL    HW218198   9.828   6.871   4.826 -0.0494 -0.1770 -1.1239
 2047SOL     OW18199   9.553   1.602   6.396  0.6000  0.2862 -0.7500
 2047SOL    HW118200   9.577   1.693   6.361 -2.0353  0.6010 -1.8673
 2047SOL    HW218201   9.576   1.533   6.328 -1.8820  0.6256 -1.9882
 2048SOL     OW18202   0.031   0.178   8.548 -0.7706 -0.3092  0.0169
 2048SOL    HW118203  -0.024   0.159   8.629 -0.4089 -2.3856 -0.2041
 2048SOL    HW218204   0.000   0.119   8.473  0.9116 -0.5743 -0.4774
 2049SOL     OW18205   1.486   2.733   6.373 -0.1474  0.0915  0.2650
 2049SOL    HW118206   1.431   2.735   6.456  0.2703 -1.4335  0.5860
 2049SOL    HW218207   1.505   2.638   6.347 -0.0616  0.5444 -1.4293
 2050SOL     OW18208   3.218   3.853   4.986 -0.0421  0.7646  0.5679
 2050SOL    HW118209   3.206   3.906   5.069  0.4208  1.2378  0.3388
 2050SOL    HW218210   3.214   3.755   5.007  0.9990  0.8739  1.2932
 2051SOL     OW18211   0.899   4.364   4.625 -0.6595  0.0619 -0.9479
 2051SOL    HW118212   0.908   4.305   4.706 -0.2826 -0.1503 -1.1415
 2051SOL    HW218213   0.822   4.426   4.637 -1.4186 -0.8656 -0.9805
 2052SOL     OW18214   4.168   3.325   1.273 -0.0491  0.2369  0.2354
 2052SOL    HW118215   4.218   3.388   1.215 -0.6046 -1.3791 -2.0462
 2052SOL    HW218216   4.208   3.234   1.265 -1.5809 -0.4806  0.5807
 2053SOL     OW18217   0.255   5.259   5.814 -0.0711  0.0572 -0.0240
 2053SOL    HW118218   0.309   5.207   5.747  0.8888  0.0383  0.7635
 2053SOL    HW218219   0.303   5.262   5.901  0.0937  2.6471 -0.1576
 2054SOL     OW18220   4.054   1.932   4.746  0.2690 -0.1553  0.2816
 2054SOL    HW118221   4.142   1.886   4.733  0.0543 -0.2472 -0.9453
 2054SOL    HW218222   3.999   1.882   4.813  1.1663 -0.0670  1.0959
 2055SOL     OW18223   0.667   3.197   1.863  0.7666 -0.0096  0.4228
 2055SOL    HW118224   0.694   3.189   1.959 -0.6402 -0.9187  0.7517
 2055SOL    HW218225   0.749   3.204   1.806  1.7120 -2.7658  1.3954
 2056SOL     OW18226   0.602   2.862   5.600  0.6109 -0.5658  0.2042
 2056SOL    HW118227   0.526   2.923   5.578  0.0605 -1.2454  0.2398
 2056SOL    HW218228   0.654   2.899   5.677  1.5348  0.9570 -1.1050
 2057SOL     OW18229   9.724   3.939   9.529  0.1467  0.2663  0.3582
 2057SOL    HW118230   9.770   3.923   9.616 -0.5064 -1.2378  0.4425
 2057SOL    HW218231   9.631   3.900   9.532  0.6660 -1.2142 -1.5266
 2058SOL     OW18232   0.472   9.555   4.596  0.1875  0.0837 -0.1125
 2058SOL    HW118233   0.404   9.518   4.659  1.3378 -0.8964  0.5915
 2058SOL    HW218234   0.516   9.634   4.638 -3.2237  3.1869 -2.1745
 2059SOL     OW18235   1.298   1.644   4.373  0.1371 -0.4547 -0.1815
 2059SOL    HW118236   1.387   1.676   4.340  0.0805 -1.8250 -1.7362
 2059SOL    HW218237   1.308   1.552   4.411 -0.6973 -0.8087 -0.8155
 2060SOL     OW18238   3.138   3.349   4.145 -0.3485  0.0940 -0.4415
 2060SOL    HW118239   3.227   3.380   4.113 -1.2684  1.3467 -1.8553
 2060SOL    HW218240   3.127   3.370   4.242  1.7500 -2.0836  0.3385
 2061SOL     OW18241   8.828   4.961   0.608 -0.5694  0.4519 -0.5434
 2061SOL    HW118242   8.860   4.866   0.618 -0.0367  0.7554  0.7230
 2061SOL    HW218243   8.728   4.963   0.615 -0.5710  0.0086 -0.3931
 2062SOL     OW18244   0.792   6.048   7.683  0.0199 -0.2377 -0.1656
 2062SOL    HW118245   0.742   6.016   7.602  0.7431 -0.0504 -0.6934
 2062SOL    HW218246   0.869   6.105   7.654 -0.4170  0.8112  0.7141
 2063SOL     OW18247   7.708   3.196   0.110 -0.6160 -0.5974 -0.2382
 2063SOL    HW118248   7.656   3.277   0.136  0.2137 -0.0621 -0.2364
 2063SOL    HW218249   7.651   3.115   0.120 -0.9431 -0.1883  1.3240
 2064SOL     OW18250   1.191   5.462   3.548 -0.1463 -0.4526 -0.0452
 2064SOL    HW118251   1.154   5.378   3.509 -1.4401 -0.1414  0.4842
 2064SOL    HW218252   1.283   5.478   3.513  0.3544 -2.4151  0.3295
 2065SOL     OW18253   3.852   5.868   2.683  0.2435 -0.0265 -0.3473
 2065SOL    HW118254   3.839   5.792   2.620  0.7007 -1.3696  1.1475
 2065SOL    HW218255   3.837   5.836   2.777  1.4098  1.4924  0.3733
 2066SOL     OW18256   1.849   8.565   7.001 -0.3230  0.0782  0.1863
 2066SOL    HW118257   1.808   8.620   7.074 -0.8369  0.0182 -0.0590
 2066SOL    HW218258   1.780   8.505   6.961  0.0729 -0.2428 -0.0245
 2067SOL     OW18259   5.650   6.994   6.720 -0.2662 -0.3266  0.7073
 2067SOL    HW118260   5.617   7.056   6.648 -1.4758  0.4843  1.9355
 2067SOL    HW218261   5.683   7.048   6.798  0.8543 -1.1981  0.8529
 2068SOL     OW18262   5.804   3.475   0.119  0.3205  0.2632 -0.0048
 2068SOL    HW118263   5.770   3.449   0.028 -0.9835  0.5633  0.3801
 2068SOL    HW218264   5.736   3.532   0.164  0.9528  0.0914  1.1775
 2069SOL     OW18265   8.069   0.877   5.201  0.1857  0.1131 -0.5274
 2069SOL    HW118266   8.099   0.783   5.217 -1.0245 -0.0797  0.6985
 2069SOL    HW218267   8.141   0.928   5.154  1.0306 -1.2939 -0.7625
 2070SOL     OW18268   8.375   0.318   0.186 -0.2340  0.4059  0.2750
 2070SOL    HW118269   8.341   0.279   0.272  0.6018  1.1634  0.9687
 2070SOL    HW218270   8.302   0.321   0.119 -0.9251 -0.1089  1.0047
 2071SOL     OW18271   3.499   0.349   3.468 -0.7610 -0.6632  0.1566
 2071SOL    HW118272   3.453   0.423   3.517 -1.7853 -0.1160 -1.6219
 2071SOL    HW218273   3.432   0.281   3.440  0.0689 -1.8646  1.0334
 2072SOL     OW18274   0.369   2.842   6.303 -0.5338 -0.5066  0.8287
 2072SOL    HW118275   0.423   2.761   6.330  0.2104 -0.1658  0.3914
 2072SOL    HW218276   0.404   2.922   6.350  0.0744 -0.0917 -0.2907
 2073SOL     OW18277   7.330   6.141   1.631 -0.3516  0.3140 -0.5313
 2073SOL    HW118278   7.424   6.170   1.644 -0.1550  0.3782 -2.0085
 2073SOL    HW218279   7.268   6.213   1.661  0.0657  0.3760  0.1915
 2074SOL     OW18280   4.875   4.137   0.456  0.0293  0.3532  0.4368
 2074SOL    HW118281   4.806   4.117   0.386 -0.3793  1.7318  0.4233
 2074SOL    HW218282   4.838   4.117   0.547  1.1798 -3.1557  0.2004
 2075SOL     OW18283   3.411   7.879   4.564 -0.2024  0.0357 -0.0007
 2075SOL    HW118284   3.419   7.863   4.466  0.3071  1.9152 -0.2863
 2075SOL    HW218285   3.435   7.974   4.584  1.4230 -0.7996  2.1628
 2076SOL     OW18286   8.520   2.385   7.759 -0.2673  0.3416 -0.0267
 2076SOL    HW118287   8.516   2.391   7.659  0.5268  0.6894 -0.0450
 2076SOL    HW218288   8.482   2.297   7.789 -1.9655  0.8961 -0.5199
 2077SOL     OW18289   9.051   4.013   8.462  0.1153  0.1109 -0.0081
 2077SOL    HW118290   8.964   3.995   8.507  0.6623 -0.9186  0.6535
 2077SOL    HW218291   9.078   3.934   8.407  1.6713 -0.4361  1.5050
 2078SOL     OW18292   2.194   4.132   7.269 -0.2894 -0.8177  0.2111
 2078SOL    HW118293   2.106   4.084   7.268 -0.8836  0.2376 -1.0391
 2078SOL    HW218294   2.263   4.075   7.313 -1.8432 -1.2093  2.2263
 2079SOL     OW18295   7.645   3.908   2.421 -0.2344  0.2100 -0.0922
 2079SOL    HW118296   7.610   3.973   2.353 -1.6541  1.9474  2.2133
 2079SOL    HW218297   7.612   3.816   2.399 -0.3218  0.6665 -1.9645
 2080SOL     OW18298   7.972   9.135   4.793 -0.5949  0.2654 -0.2025
 2080SOL    HW118299   7.978   9.080   4.876  1.2924  1.3578  0.4357
 2080SOL    HW218300   7.895   9.199   4.801  0.4137  1.3268  1.3407
 2081SOL     OW18301   3.409   2.037   9.972  0.4330  0.1782 -0.3931
 2081SOL    HW118302   3.334   1.971   9.978 -0.3645  1.0520 -0.3917
 2081SOL    HW218303   3.491   2.000  10.014  0.0423 -0.8744 -0.5598
 2082SOL     OW18304   9.116   3.010   1.672  0.3238  0.5162 -0.8799
 2082SOL    HW118305   9.091   2.915   1.685 -0.3067  0.6819 -0.8684
 2082SOL    HW218306   9.055   3.052   1.605  0.1843  1.0838 -0.4046
 2083SOL     OW18307   1.632   4.992   5.313  0.0417  0.0501  0.4398
 2083SOL    HW118308   1.586   4.968   5.227 -0.0751 -1.4292  0.8920
 2083SOL    HW218309   1.625   5.090   5.329  0.3620  0.3812 -1.4160
 2084SOL     OW18310   8.714   0.733   5.704  0.1096 -0.1495 -0.0851
 2084SOL    HW118311   8.694   0.818   5.655  1.2814 -0.3124 -0.8649
 2084SOL    HW218312   8.721   0.753   5.802 -0.1875  0.5497 -0.2003
 2085SOL     OW18313   9.239   1.414   2.219 -0.0872 -0.3667  0.2547
 2085SOL    HW118314   9.276   1.327   2.187  0.0656  0.0237 -0.6428
 2085SOL    HW218315   9.191   1.400   2.306  2.0920 -0.8828  1.3973
 2086SOL     OW18316   8.888   3.958   6.973  0.3052 -0.3618 -0.0860
 2086SOL    HW118317   8.833   3.880   6.943 -1.6618  0.4075  1.3919
 2086SOL    HW218318   8.851   3.994   7.059  1.4154  1.9875 -0.5475
 2087SOL     OW18319   3.286   3.174   3.873 -0.0035 -0.3487 -0.1010
 2087SOL    HW118320   3.188   3.192   3.867  0.2585  1.1099 -0.0517
 2087SOL    HW218321   3.301   3.088   3.923 -1.2503 -0.6719 -0.2639
 2088SOL     OW18322   9.745   9.911   5.662  0.9026  0.5572  0.2992
 2088SOL    HW118323   9.716  10.000   5.627 -1.1201  0.2707  1.1713
 2088SOL    HW218324   9.760   9.917   5.761 -0.1580 -0.2741  0.5243
 2089SOL     OW18325   1.471   4.927   4.007 -0.1612 -0.3760 -0.0714
 2089SOL    HW118326   1.561   4.889   3.984  0.4244 -0.8587  2.8215
 2089SOL    HW218327   1.402   4.854   4.001  0.0463 -0.5808  0.0009
 2090SOL     OW18328   7.796   2.639   2.356 -0.2119  0.2519 -0.7445
 2090SOL    HW118329   7.766   2.629   2.451  0.2342  1.0805 -0.5056
 2090SOL    HW218330   7.861   2.566   2.334 -0.4543 -0.0486 -0.4677
 2091SOL     OW18331   3.571   9.914   1.634  0.5624  0.6339 -0.0381
 2091SOL    HW118332   3.605   9.823   1.658 -0.4311  0.0627 -0.7264
 2091SOL    HW218333   3.484   9.931   1.680 -0.2497  0.4215 -1.4379
 2092SOL     OW18334   1.238   0.978   3.845 -0.1118 -0.0125  0.3321
 2092SOL    HW118335   1.153   1.031   3.841  0.2576  0.6370  0.8184
 2092SOL    HW218336   1.300   1.010   3.774 -0.5965 -1.0689 -0.5716
 2093SOL     OW18337   2.770   5.305   1.235  0.4381  0.3221  0.2986
 2093SOL    HW118338   2.758   5.376   1.166  0.5309 -0.6013 -0.6868
 2093SOL    HW218339   2.865   5.272   1.232 -0.0688 -1.0997 -0.5009
 2094SOL     OW18340   9.689   6.782   8.075 -0.5792  0.1964  0.0709
 2094SOL    HW118341   9.602   6.761   8.120  0.8312 -1.1227  2.2445
 2094SOL    HW218342   9.751   6.705   8.085  1.8350  2.2100  1.0165
 2095SOL     OW18343   7.097   8.742   9.217  0.0330 -1.0494  0.0180
 2095SOL    HW118344   7.020   8.740   9.153 -0.8373  0.5838  0.9924
 2095SOL    HW218345   7.146   8.829   9.209 -1.2445 -0.0016  2.8846
 2096SOL     OW18346   6.943   9.067   2.353  0.5704  0.2132  0.1242
 2096SOL    HW118347   7.039   9.049   2.331  0.3529 -0.3594 -0.3634
 2096SOL    HW218348   6.927   9.047   2.450  0.7319 -0.5861 -0.0096
 2097SOL     OW18349   1.622   1.197   9.690 -0.2037  0.0559  0.1657
 2097SOL    HW118350   1.624   1.275   9.753 -1.7748  0.5400 -0.3467
 2097SOL    HW218351   1.578   1.120   9.735  1.0533 -0.4417  0.5576
 2098SOL     OW18352   9.326   6.850   4.697 -0.8605  0.2781  0.5611
 2098SOL    HW118353   9.350   6.766   4.746  0.5407 -0.0867 -0.7149
 2098SOL    HW218354   9.231   6.844   4.666 -1.1554 -0.3068  1.5482
 2099SOL     OW18355   8.577   2.470   0.756  0.5324 -0.5039  0.4928
 2099SOL    HW118356   8.651   2.471   0.823  2.2129  0.3247 -1.3301
 2099SOL    HW218357   8.530   2.558   0.758  0.2776 -0.6479  0.9062
 2100SOL     OW18358   1.828   2.987   5.469  0.0360  0.0121  0.2384
 2100SOL    HW118359   1.736   3.011   5.501 -1.0716 -0.3525 -2.4635
 2100SOL    HW218360   1.821   2.911   5.404  2.3992 -0.7793  0.8612
 2101SOL     OW18361   7.648   2.092   0.662 -0.3737 -0.0278 -0.0914
 2101SOL    HW118362   7.710   2.164   0.632  1.8786 -1.4340  1.0425
 2101SOL    HW218363   7.588   2.126   0.734  0.1745  0.8938 -0.0725
 2102SOL     OW18364   1.904   8.234   6.945  0.0252  0.0369  0.6870
 2102SOL    HW118365   1.894   8.275   7.036  0.3711  2.1003 -0.1851
 2102SOL    HW218366   1.823   8.254   6.890  2.0275  3.3683 -1.1852
 2103SOL     OW18367   0.915   2.995   2.437  0.1094  0.3456 -0.2834
 2103SOL    HW118368   0.940   2.899   2.424  1.0366  0.6480 -0.8026
 2103SOL    HW218369   0.956   3.029   2.521 -0.8265  0.0895  0.2840
 2104SOL     OW18370   3.020   2.962   5.854  0.0566  0.4679 -0.0195
 2104SOL    HW118371   2.997   2.901   5.778  0.7971 -1.2058  1.0923
 2104SOL    HW218372   2.964   2.938   5.933 -0.3005  1.8442  0.1532
 2105SOL     OW18373   1.401   4.352   4.487 -0.3858  1.0091 -0.0485
 2105SOL    HW118374   1.355   4.263   4.486 -0.5852  1.1103 -1.1051
 2105SOL    HW218375   1.495   4.340   4.455  0.0626  0.9342  1.2962
 2106SOL     OW18376   2.438   1.729   7.980  0.1696 -0.1542  0.1205
 2106SOL    HW118377   2.451   1.657   7.911  1.1827 -0.7039  0.8671
 2106SOL    HW218378   2.369   1.699   8.045 -0.0959 -0.0413 -0.1070
 2107SOL     OW18379   1.893   8.496   1.586 -0.2057 -0.6727 -0.4338
 2107SOL    HW118380   1.838   8.531   1.661  0.6374  2.3024 -1.1220
 2107SOL    HW218381   1.985   8.476   1.619  0.2985  1.0624 -0.6893
 2108SOL     OW18382   9.137   2.193   6.082  0.5840 -0.1665 -0.3025
 2108SOL    HW118383   9.086   2.157   6.160  1.0514 -2.0459 -0.8413
 2108SOL    HW218384   9.097   2.158   5.997  1.5376 -0.0559 -0.8089
 2109SOL     OW18385   9.897   0.932   0.951 -0.0415  0.6019  0.1483
 2109SOL    HW118386   9.938   0.899   0.866 -1.1404 -1.4808  0.3960
 2109SOL    HW218387   9.803   0.900   0.958  0.3296 -0.1016  2.5979
 2110SOL     OW18388   0.873   2.734   1.907  0.6389 -0.1359  0.5348
 2110SOL    HW118389   0.809   2.803   1.874 -0.3508 -0.3651  1.9236
 2110SOL    HW218390   0.823   2.658   1.946  1.7288 -1.7565 -1.1505
 2111SOL     OW18391   6.144   1.844   2.664  0.3285  0.1237  0.3231
 2111SOL    HW118392   6.183   1.764   2.710  3.3610  1.8767  0.9069
 2111SOL    HW218393   6.109   1.908   2.732 -1.8046 -0.4986 -0.1384
 2112SOL     OW18394   2.542   4.443   4.608 -0.3150  0.4193 -0.1398
 2112SOL    HW118395   2.458   4.401   4.576 -0.6397 -0.3975  1.7009
 2112SOL    HW218396   2.523   4.500   4.689  1.3910 -2.8746  2.7268
 2113SOL     OW18397   1.404   9.851   4.676 -0.5052  0.3390 -0.1060
 2113SOL    HW118398   1.397   9.771   4.617 -1.3235 -1.0174  1.7724
 2113SOL    HW218399   1.487   9.902   4.654  1.1491 -2.1964  0.0626
 2114SOL     OW18400   3.760   1.386   5.604 -0.6888  0.5650  0.2213
 2114SOL    HW118401   3.662   1.407   5.605 -0.6328  0.8265  0.3746
 2114SOL    HW218402   3.783   1.339   5.519 -1.2621 -1.0242  0.9069
 2115SOL     OW18403   3.730   7.389   7.294 -0.2059  0.2372 -0.3105
 2115SOL    HW118404   3.785   7.433   7.364 -0.0608 -0.9068  0.3078
 2115SOL    HW218405   3.673   7.458   7.248 -0.9900  0.8735  1.5488
 2116SOL     OW18406   7.501   3.577   3.194  0.0145  0.2650 -0.3772
 2116SOL    HW118407   7.562   3.656   3.200  0.5182 -0.3512  4.6138
 2116SOL    HW218408   7.554   3.493   3.199 -1.0178 -0.2827  2.2858
 2117SOL     OW18409   8.339   8.638   9.337  0.1705 -0.6701 -0.6501
 2117SOL    HW118410   8.417   8.641   9.399 -0.5151  0.3542  0.1722
 2117SOL    HW218411   8.270   8.704   9.367 -1.2793 -2.0120 -1.0121
 2118SOL     OW18412   5.306   6.723   4.667  0.1322  0.0953 -0.8273
 2118SOL    HW118413   5.362   6.664   4.724 -0.5407  0.7134  0.4869
 2118SOL    HW218414   5.213   6.684   4.660 -0.5882  1.4864  0.8371
 2119SOL     OW18415   3.401   2.678   3.891  0.0859  0.0626 -0.3192
 2119SOL    HW118416   3.401   2.588   3.935  0.9294  0.0933 -0.2448
 2119SOL    HW218417   3.495   2.705   3.871 -0.0973  1.3974  0.5881
 2120SOL     OW18418   1.494   3.990   4.462  0.1650 -0.2626  0.2063
 2120SOL    HW118419   1.514   3.921   4.531 -1.7085 -1.9002 -0.8601
 2120SOL    HW218420   1.577   4.010   4.410  0.7877 -1.4810  0.7121
 2121SOL     OW18421   9.598   3.136   2.779 -0.2317  0.3806  0.3445
 2121SOL    HW118422   9.652   3.198   2.723 -0.7734  1.9976  1.5812
 2121SOL    HW218423   9.507   3.124   2.738  0.2797 -0.5771 -0.5383
 2122SOL     OW18424   5.570   7.637   2.821  0.4851  0.1324 -0.0311
 2122SOL    HW118425   5.611   7.697   2.890  0.1032  1.7263 -1.1716
 2122SOL    HW218426   5.597   7.668   2.730 -1.1098 -0.4028 -0.7007
 2123SOL     OW18427   9.529   5.702   1.117  0.6476  0.4995  0.8401
 2123SOL    HW118428   9.534   5.783   1.175 -0.8645 -1.0213  3.1763
 2123SOL    HW218429   9.569   5.623   1.165 -1.1625 -0.9224  0.0819
 2124SOL     OW18430   8.313   2.727   8.081 -0.2953 -0.4329 -0.1126
 2124SOL    HW118431   8.302   2.699   7.986 -1.4475 -2.6613  0.6440
 2124SOL    HW218432   8.293   2.650   8.141 -1.4449  1.4622  2.0018
 2125SOL     OW18433   2.572   0.491   2.819 -0.0407 -0.1638  0.3897
 2125SOL    HW118434   2.616   0.549   2.751  0.7093  0.4866  1.4148
 2125SOL    HW218435   2.559   0.399   2.781  0.4130  0.1761 -0.6023
 2126SOL     OW18436   5.044   4.233   5.250 -0.2460 -0.0058 -0.2066
 2126SOL    HW118437   5.107   4.155   5.243  0.7152  0.7263  0.0819
 2126SOL    HW218438   4.953   4.201   5.273 -0.1898 -1.1832 -1.5149
 2127SOL     OW18439   6.739   3.093   5.277  0.0864  0.3629  0.5579
 2127SOL    HW118440   6.833   3.083   5.310 -0.6955  0.5745  2.9028
 2127SOL    HW218441   6.712   3.189   5.282  0.4543  0.6614 -2.2147
 2128SOL     OW18442   9.758   0.213   6.544 -0.0204  0.4761 -0.4051
 2128SOL    HW118443   9.834   0.274   6.565  1.5474 -1.0090 -1.5237
 2128SOL    HW218444   9.793   0.134   6.493 -2.2016 -0.6566 -0.1919
 2129SOL     OW18445   1.144   9.208   7.252  0.6836 -0.1203 -0.2811
 2129SOL    HW118446   1.091   9.273   7.196  1.4387  0.1142 -0.7293
 2129SOL    HW218447   1.163   9.249   7.341 -0.2954 -0.3911  0.0605
 2130SOL     OW18448   1.607   4.471   3.214 -0.0847  0.2324 -0.1604
 2130SOL    HW118449   1.645   4.458   3.305 -1.4335 -0.5424  0.3106
 2130SOL    HW218450   1.557   4.558   3.210 -0.0043  0.2788 -0.1766
 2131SOL     OW18451   9.195   0.514   2.420 -0.2714 -0.2256 -0.0178
 2131SOL    HW118452   9.140   0.439   2.384 -1.3052  1.2305 -1.5665
 2131SOL    HW218453   9.265   0.539   2.352  0.4009 -0.1288  0.7062
 2132SOL     OW18454   9.799   8.212   9.780 -0.7181  0.3213 -0.4144
 2132SOL    HW118455   9.788   8.213   9.880  0.2669 -0.8027 -0.2817
 2132SOL    HW218456   9.748   8.288   9.740 -0.2856  1.4084  1.0416
 2133SOL     OW18457   3.489   7.268   4.805 -0.2768 -0.5629 -0.1243
 2133SOL    HW118458   3.434   7.247   4.724 -1.2080  1.3257 -0.0019
 2133SOL    HW218459   3.429   7.300   4.878  0.5640 -2.1454  1.3032
 2134SOL     OW18460   5.127   2.109   1.723 -0.2909  0.0493  0.1618
 2134SOL    HW118461   5.181   2.096   1.641 -0.6333  0.6223 -0.1560
 2134SOL    HW218462   5.074   2.026   1.742  0.1250 -0.2383  0.0536
 2135SOL     OW18463   7.442   0.037   1.041 -0.4902 -0.5592  0.4606
 2135SOL    HW118464   7.490   0.079   0.965  0.7580  0.0553  1.5705
 2135SOL    HW218465   7.431  -0.061   1.025  0.6356 -0.5966 -0.0511
 2136SOL     OW18466   9.514   3.702   5.665 -0.0800  0.1122 -1.1318
 2136SOL    HW118467   9.485   3.786   5.712  0.1138  0.1472 -1.0748
 2136SOL    HW218468   9.516   3.718   5.566  1.5118  0.6563 -1.0245
 2137SOL     OW18469   8.903   6.671   3.725 -0.0604 -0.2599  0.3499
 2137SOL    HW118470   8.997   6.689   3.697 -0.6869  2.3125 -0.1826
 2137SOL    HW218471   8.904   6.621   3.812  1.7979  0.3984  0.7404
 2138SOL     OW18472   7.456   6.451   2.302  0.0993  0.2879 -0.1632
 2138SOL    HW118473   7.468   6.549   2.322  1.5055 -0.1219  1.0530
 2138SOL    HW218474   7.376   6.439   2.243 -0.8828  2.0553  0.7542
 2139SOL     OW18475   0.246   2.945   2.718  0.2945 -0.1935 -0.4150
 2139SOL    HW118476   0.170   2.973   2.661  0.7914  0.9750 -0.5198
 2139SOL    HW218477   0.212   2.917   2.808 -0.1503  1.5548 -0.0233
 2140SOL     OW18478   4.323   6.218   3.141  0.0433 -0.7441  0.3698
 2140SOL    HW118479   4.395   6.256   3.082 -0.7797 -1.4863 -1.1547
 2140SOL    HW218480   4.234   6.235   3.099 -0.5101 -1.8336  1.0922
 2141SOL     OW18481   2.738   2.140   5.012  0.2496  0.2587  0.2010
 2141SOL    HW118482   2.784   2.207   4.955  0.2463  0.8804  0.9290
 2141SOL    HW218483   2.792   2.122   5.094 -1.3905  1.9528  1.6966
 2142SOL     OW18484   4.044   4.563   2.423  0.3884 -0.5631 -0.1177
 2142SOL    HW118485   4.051   4.614   2.509  1.3901 -0.6794 -0.1207
 2142SOL    HW218486   4.122   4.501   2.415  0.7881  0.1119 -1.5572
 2143SOL     OW18487   0.914   1.250   8.240  0.9408  0.0834 -0.9189
 2143SOL    HW118488   0.840   1.260   8.306 -0.3462 -0.4569 -2.2523
 2143SOL    HW218489   0.948   1.340   8.214  2.4603  0.2747  1.5507
 2144SOL     OW18490   9.909   1.357   0.388 -0.5539  0.0939 -0.4871
 2144SOL    HW118491   9.952   1.395   0.306 -1.5731  0.0327 -1.0639
 2144SOL    HW218492   9.848   1.426   0.429 -0.0950  0.1032  0.1825
 2145SOL     OW18493   9.219   3.902   6.648 -0.1282  0.1445 -0.2873
 2145SOL    HW118494   9.227   3.918   6.746  2.5578 -2.4835 -0.0042
 2145SOL    HW218495   9.136   3.849   6.630 -1.1361  1.4642  0.4499
 2146SOL     OW18496   9.516   9.504   6.997  0.3285 -0.1725  0.3170
 2146SOL    HW118497   9.481   9.413   6.974 -0.1628 -0.3218  1.6271
 2146SOL    HW218498   9.440   9.567   7.012  0.6738  1.0162 -2.6724
 2147SOL     OW18499   8.328   8.989   7.810  0.3539  0.6164 -0.0571
 2147SOL    HW118500   8.404   8.948   7.760 -0.0960 -0.5335  0.1692
 2147SOL    HW218501   8.247   8.930   7.803  0.8704 -0.7162  3.7373
 2148SOL     OW18502   8.824   4.805   7.424  0.4653  0.0868 -0.4963
 2148SOL    HW118503   8.833   4.726   7.484 -0.5181 -0.7405 -1.4179
 2148SOL    HW218504   8.915   4.838   7.398  0.9281  1.1755  2.3474
 2149SOL     OW18505   1.187   3.683   1.747  0.3277  0.0874 -0.4290
 2149SOL    HW118506   1.284   3.679   1.769  0.1229 -1.5401  0.2412
 2149SOL    HW218507   1.169   3.761   1.688  1.8938  0.9279  0.1945
 2150SOL     OW18508   1.224   1.551   7.641 -0.4349 -0.0216 -0.0809
 2150SOL    HW118509   1.144   1.500   7.608 -1.0425  1.2252 -0.5926
 2150SOL    HW218510   1.208   1.581   7.735  0.4348 -1.8060  0.6508
 2151SOL     OW18511   8.777   7.499   8.971  0.1098 -0.3869 -0.1404
 2151SOL    HW118512   8.796   7.542   8.882  1.3180 -0.5993  0.0118
 2151SOL    HW218513   8.751   7.570   9.037 -0.7371 -0.2218 -0.6351
 2152SOL     OW18514   8.465   1.893   2.398 -0.1940 -0.5192  0.1490
 2152SOL    HW118515   8.413   1.978   2.410 -0.8245 -1.0577  1.3573
 2152SOL    HW218516   8.444   1.853   2.309  0.6772  0.9680 -0.7441
 2153SOL     OW18517   8.834   5.472   1.527 -0.4616 -0.0919  0.1849
 2153SOL    HW118518   8.908   5.494   1.462 -0.3271 -0.1762  0.3087
 2153SOL    HW218519   8.763   5.542   1.521 -1.5646 -1.3284 -1.7366
 2154SOL     OW18520   0.245   7.219   4.160 -0.0748 -0.1618 -0.0636
 2154SOL    HW118521   0.162   7.256   4.202  0.6838  0.8564  0.5687
 2154SOL    HW218522   0.240   7.229   4.061  0.0115  1.4454  0.0808
 2155SOL     OW18523   4.240   0.986   7.389 -0.2924 -0.2495 -0.1535
 2155SOL    HW118524   4.326   0.993   7.440  0.1021  0.5459 -0.9108
 2155SOL    HW218525   4.235   0.899   7.342 -1.1614 -1.4891  2.1170
 2156SOL     OW18526  10.000   8.308   2.863  0.0568 -0.0883  0.3391
 2156SOL    HW118527  10.083   8.345   2.822 -1.8800  2.7035 -1.2729
 2156SOL    HW218528   9.960   8.239   2.802 -0.1409  0.3950 -0.0802
 2157SOL     OW18529   0.162   2.116   6.884 -0.2154 -0.6633  0.1681
 2157SOL    HW118530   0.233   2.068   6.935  0.6111  0.5549  0.1791
 2157SOL    HW218531   0.165   2.088   6.788  3.2884  2.6748 -0.8182
 2158SOL     OW18532   8.570   7.599   8.412 -0.1626  0.0179 -0.7365
 2158SOL    HW118533   8.604   7.572   8.321  1.0485  0.7512 -0.5058
 2158SOL    HW218534   8.470   7.592   8.413 -0.2714  1.0382 -2.4714
 2159SOL     OW18535   1.892   0.459   5.731  0.7861  0.5754 -0.1829
 2159SOL    HW118536   1.978   0.505   5.708  0.5478  1.2161  0.1858
 2159SOL    HW218537   1.891   0.437   5.828  0.1201  1.4842  0.0272
 2160SOL     OW18538   2.298   4.347   4.516  0.0328 -0.2271 -0.1652
 2160SOL    HW118539   2.263   4.275   4.456  0.2490 -2.7916  2.6624
 2160SOL    HW218540   2.227   4.374   4.581  1.0519 -0.3933  1.0374
 2161SOL     OW18541   0.013   4.890   3.066  0.1871  0.8708 -0.2003
 2161SOL    HW118542   0.112   4.876   3.059  0.1353  1.1126 -1.5846
 2161SOL    HW218543  -0.032   4.853   2.984 -0.7168  2.0388 -0.2530
 2162SOL     OW18544   1.912   5.108   8.472  0.1492  0.4877 -0.5840
 2162SOL    HW118545   1.863   5.160   8.542 -1.6439 -0.8033 -0.8342
 2162SOL    HW218546   1.846   5.067   8.409  1.5952 -0.7960 -1.2919
 2163SOL     OW18547   9.861   3.382   5.383  0.3656 -0.1805  0.7378
 2163SOL    HW118548   9.925   3.320   5.338  1.0982  0.3417  1.0505
 2163SOL    HW218549   9.856   3.468   5.331  1.2889  0.4617  1.7054
 2164SOL     OW18550   2.448   0.472   6.475  0.0267 -0.4790 -0.6653
 2164SOL    HW118551   2.474   0.543   6.540 -1.9850  1.0826 -1.5104
 2164SOL    HW218552   2.367   0.424   6.510  1.0258 -1.9782 -0.3813
 2165SOL     OW18553   4.819   5.708   9.214  0.0069  0.4048  0.1914
 2165SOL    HW118554   4.739   5.759   9.185  0.6198  0.8070 -0.8283
 2165SOL    HW218555   4.792   5.618   9.248 -0.8182  0.3380 -0.6425
 2166SOL     OW18556   8.368   2.398   8.953 -0.7563 -0.5930  0.3186
 2166SOL    HW118557   8.454   2.379   9.000 -0.5167 -1.1721 -0.3458
 2166SOL    HW218558   8.332   2.487   8.982  1.3704  0.8438 -1.2890
 2167SOL     OW18559   0.983   1.553   2.056  0.5676  0.5060 -0.1049
 2167SOL    HW118560   0.935   1.619   1.997 -0.1228 -2.0297 -2.4694
 2167SOL    HW218561   1.075   1.537   2.021  1.3769  1.4794  1.4906
 2168SOL     OW18562   5.552   0.257   6.448 -0.4011  1.2647 -0.6196
 2168SOL    HW118563   5.498   0.174   6.434  1.9570 -0.4482  0.0994
 2168SOL    HW218564   5.610   0.273   6.368  0.5654  1.1075  0.0375
 2169SOL     OW18565   1.123   3.301   4.245  0.2327  0.6151  0.7325
 2169SOL    HW118566   1.029   3.331   4.260  0.0729  0.5872 -0.1910
 2169SOL    HW218567   1.161   3.265   4.331 -0.8727 -0.1266  0.9219
 2170SOL     OW18568   2.275   4.741   7.114  0.8448  0.0637  0.2831
 2170SOL    HW118569   2.298   4.776   7.205  0.0483  1.6985 -0.1132
 2170SOL    HW218570   2.192   4.685   7.120 -0.0516  1.3773  0.3521
 2171SOL     OW18571   6.455   3.471   2.523  0.4464 -0.1209 -0.0340
 2171SOL    HW118572   6.406   3.554   2.550 -0.0225 -0.4424  0.1197
 2171SOL    HW218573   6.524   3.494   2.455  0.6801  0.4794  0.3954
 2172SOL     OW18574   1.179   5.624   8.031 -0.4747  0.2650  0.2300
 2172SOL    HW118575   1.244   5.568   7.979  0.1628  1.3280 -0.1316
 2172SOL    HW218576   1.188   5.601   8.128 -1.5576 -1.6081 -0.0792
 2173SOL     OW18577   7.389   8.422   9.548 -0.2673 -0.3925 -0.2330
 2173SOL    HW118578   7.293   8.411   9.521 -0.2788  0.0244 -0.3681
 2173SOL    HW218579   7.409   8.519   9.560 -0.5864 -0.6201  2.4040
 2174SOL     OW18580   9.798   4.933   5.795  0.2747  0.5873 -0.0006
 2174SOL    HW118581   9.894   4.956   5.807  0.3706  1.0913 -1.6722
 2174SOL    HW218582   9.741   5.011   5.823  0.2184 -0.6509  3.5316
 2175SOL     OW18583   4.236   0.185   3.622 -0.0442  0.1017 -0.6421
 2175SOL    HW118584   4.139   0.205   3.606 -0.0079  1.9663  1.2376
 2175SOL    HW218585   4.245   0.127   3.703  0.4113  0.0272 -0.7455
 2176SOL     OW18586   6.009   1.972   2.022 -0.0243  0.2972 -0.1627
 2176SOL    HW118587   5.946   2.010   1.955  0.4475 -0.0664 -0.8272
 2176SOL    HW218588   5.961   1.953   2.107 -0.5334  1.1731 -0.2527
 2177SOL     OW18589   3.035   6.519   8.861  0.1053 -0.0769  0.0964
 2177SOL    HW118590   2.987   6.534   8.774  0.8383 -0.9536 -0.4659
 2177SOL    HW218591   3.013   6.594   8.924 -0.4455  0.5591 -0.8318
 2178SOL     OW18592   3.723   2.425   4.824 -0.2934 -0.7642 -0.1274
 2178SOL    HW118593   3.806   2.427   4.879  0.9208  1.1085 -1.9666
 2178SOL    HW218594   3.647   2.392   4.880  1.5253 -1.8845  1.7581
 2179SOL     OW18595   9.338   5.045   4.591  0.4129  0.0286  0.3112
 2179SOL    HW118596   9.292   4.959   4.614  0.2222  0.6069  2.1415
 2179SOL    HW218597   9.408   5.064   4.660  1.5820  0.5202 -0.9879
 2180SOL     OW18598   6.847   6.827   8.116  0.3765 -0.1186 -0.2643
 2180SOL    HW118599   6.827   6.729   8.115  0.0634 -0.1495  2.7229
 2180SOL    HW218600   6.762   6.878   8.119  0.5428  0.0831  2.0479
 2181SOL     OW18601   9.811   9.936   4.821  0.1046  0.6806  0.1387
 2181SOL    HW118602   9.831   9.900   4.730 -0.4667 -1.2746  0.7739
 2181SOL    HW218603   9.723   9.983   4.819 -2.0856 -3.2200  0.6644
 2182SOL     OW18604   8.278   3.945   4.708 -0.1000 -0.1374 -0.5748
 2182SOL    HW118605   8.206   3.995   4.659 -0.2414  0.7149  0.4838
 2182SOL    HW218606   8.282   3.851   4.674  0.1328  0.5608 -2.5551
 2183SOL     OW18607   1.170   3.565   7.290 -0.2353 -0.0021  0.0760
 2183SOL    HW118608   1.113   3.570   7.371  1.4433  0.9893  1.2321
 2183SOL    HW218609   1.218   3.477   7.287 -0.8818 -0.3477 -0.2624
 2184SOL     OW18610   3.560   4.276   8.074  0.2389  0.1009  0.4274
 2184SOL    HW118611   3.561   4.178   8.091 -0.5628  0.1300  0.6309
 2184SOL    HW218612   3.632   4.320   8.128  1.4871 -0.5380 -0.6812
 2185SOL     OW18613   9.133   4.418   2.922 -0.1442  0.1225  0.2417
 2185SOL    HW118614   9.158   4.348   2.990 -2.4366 -1.7283 -0.7434
 2185SOL    HW218615   9.144   4.509   2.962 -0.4673 -0.8985  2.7443
 2186SOL     OW18616   1.456   8.459   7.442  0.0878  0.2986 -0.3529
 2186SOL    HW118617   1.525   8.387   7.447  0.1116  0.4687  2.0962
 2186SOL    HW218618   1.365   8.418   7.441  0.1499  0.1501 -1.8643
 2187SOL     OW18619   8.047   2.218   7.224 -0.3574  0.1019  0.1428
 2187SOL    HW118620   7.982   2.153   7.263  1.4676 -1.0787  1.3645
 2187SOL    HW218621   8.028   2.231   7.127 -2.0602 -0.6441  0.3646
 2188SOL     OW18622   2.672   4.706   8.511  0.5252  0.3196 -0.8037
 2188SOL    HW118623   2.624   4.619   8.498  2.2820 -0.7548 -0.2389
 2188SOL    HW218624   2.750   4.711   8.448 -0.4887  2.1821 -1.9421
 2189SOL     OW18625   0.173   0.740   9.262  0.2631  0.0158  0.2145
 2189SOL    HW118626   0.154   0.789   9.176  0.8828 -1.0488 -0.5481
 2189SOL    HW218627   0.123   0.653   9.261  0.2267  0.0310  0.9657
 2190SOL     OW18628   3.883   2.045   8.466 -0.3090 -0.5917  0.0601
 2190SOL    HW118629   3.912   1.956   8.429 -0.1550 -0.2676 -0.6008
 2190SOL    HW218630   3.805   2.079   8.413 -1.4283 -1.1001  1.3483
 2191SOL     OW18631   0.238   6.149   6.012 -0.5525 -0.0199 -0.4755
 2191SOL    HW118632   0.144   6.120   5.991 -0.9979  1.3076 -0.3636
 2191SOL    HW218633   0.302   6.078   5.982 -1.5629 -0.7870 -0.8636
 2192SOL     OW18634   7.837   7.682   5.934  0.0413 -0.0042 -0.6250
 2192SOL    HW118635   7.910   7.660   5.869  0.2497  0.2012 -0.4653
 2192SOL    HW218636   7.868   7.661   6.027 -0.3150 -0.4504 -0.6065
 2193SOL     OW18637   7.533   3.738   5.055 -0.2207  0.1845 -0.3494
 2193SOL    HW118638   7.593   3.816   5.037 -0.5295  0.1706 -1.4813
 2193SOL    HW218639   7.549   3.703   5.148  1.1360  0.5088 -0.4644
 2194SOL     OW18640   5.651   1.770   2.097 -0.6740 -0.6783 -0.3484
 2194SOL    HW118641   5.654   1.720   2.010  0.0289  1.0094 -1.3277
 2194SOL    HW218642   5.558   1.804   2.112 -0.3749  0.6981 -1.4476
 2195SOL     OW18643   7.317   5.636   8.130  0.3621 -0.1311  0.0731
 2195SOL    HW118644   7.361   5.633   8.041  0.8074 -0.3046  0.2957
 2195SOL    HW218645   7.266   5.551   8.146  1.1565 -0.5537  0.4186
 2196SOL     OW18646   1.288   8.133   0.228 -0.2542  0.0287  0.2650
 2196SOL    HW118647   1.347   8.134   0.147  0.0049  2.2018  0.4554
 2196SOL    HW218648   1.251   8.041   0.241 -1.0227 -0.1490 -2.8455
 2197SOL     OW18649   1.555   0.489   4.493  0.2407  0.1261  0.0104
 2197SOL    HW118650   1.492   0.530   4.560  0.2945  0.7194 -0.2998
 2197SOL    HW218651   1.610   0.419   4.538 -0.8290 -0.6005  0.2313
 2198SOL     OW18652   9.686   7.800   7.474 -0.0289 -0.5203 -0.4736
 2198SOL    HW118653   9.749   7.741   7.421 -0.8229 -0.2401 -1.7485
 2198SOL    HW218654   9.676   7.888   7.427 -1.7560 -0.7475 -0.5444
 2199SOL     OW18655   0.323   0.569   7.285  0.2885  0.4782 -0.1124
 2199SOL    HW118656   0.304   0.662   7.316  2.0238  0.8945 -0.2629
 2199SOL    HW218657   0.416   0.564   7.249  0.3280 -1.3843  0.1911
 2200SOL     OW18658   3.666   6.356   9.145  0.3967 -0.1659 -0.0900
 2200SOL    HW118659   3.746   6.402   9.182 -0.6173  2.4595 -1.0300
 2200SOL    HW218660   3.687   6.321   9.053  0.8707 -0.6685  0.2128
 2201SOL     OW18661   8.915   3.848   6.647 -0.1063  0.1143 -0.0818
 2201SOL    HW118662   8.884   3.827   6.740  0.3123  0.0170  0.0387
 2201SOL    HW218663   8.872   3.933   6.617  2.8831  2.4133  1.8137
 2202SOL     OW18664   2.912   4.616   1.995  0.1465 -0.6151  0.0791
 2202SOL    HW118665   2.923   4.535   1.938 -0.5091 -1.3388  0.9566
 2202SOL    HW218666   2.896   4.696   1.937  1.8690 -0.9183 -0.8327
 2203SOL     OW18667   8.266   5.671   6.307 -0.5577 -0.1881 -0.4046
 2203SOL    HW118668   8.288   5.700   6.400  1.1738  3.3778 -1.7999
 2203SOL    HW218669   8.317   5.588   6.285  0.7264  0.1815  1.0918
 2204SOL     OW18670   9.290   9.929   9.036 -0.1441 -0.5435  0.3680
 2204SOL    HW118671   9.318  10.019   9.005 -0.7953 -0.1767  0.8387
 2204SOL    HW218672   9.292   9.926   9.136 -4.5423  0.4147  0.5740
 2205SOL     OW18673   8.618   3.382   0.193  0.7430  0.1480 -0.1841
 2205SOL    HW118674   8.625   3.308   0.126  1.9406  0.6790 -0.6599
 2205SOL    HW218675   8.639   3.347   0.284 -0.2371 -0.4318 -0.1692
 2206SOL     OW18676   7.118   0.539   5.449 -0.5954  0.5529  0.4178
 2206SOL    HW118677   7.210   0.525   5.411 -1.7481  1.1884 -2.6966
 2206SOL    HW218678   7.100   0.469   5.518  2.0006  0.0735  0.6837
 2207SOL     OW18679   6.879   0.088   6.461  0.5699 -0.6929  0.6219
 2207SOL    HW118680   6.965   0.106   6.413  0.3545  1.3668  0.9569
 2207SOL    HW218681   6.863  -0.010   6.465  1.7962 -0.9980 -1.3909
 2208SOL     OW18682   9.338   0.841   0.872 -0.5987  0.1702  0.5960
 2208SOL    HW118683   9.326   0.760   0.930 -1.4979 -0.0419  0.1103
 2208SOL    HW218684   9.326   0.924   0.927 -0.5760 -0.0294  0.9013
 2209SOL     OW18685   0.559   2.188   9.082 -0.2109  0.4381 -0.5414
 2209SOL    HW118686   0.552   2.214   9.178 -1.4163 -0.4842 -0.3686
 2209SOL    HW218687   0.613   2.104   9.076  0.5418  0.9337 -0.7507
 2210SOL     OW18688   0.402   4.537   6.744 -0.3744  0.1751 -0.2208
 2210SOL    HW118689   0.345   4.617   6.763  1.9292  1.7262  0.4703
 2210SOL    HW218690   0.372   4.460   6.801  0.9632  2.2750  3.5216
 2211SOL     OW18691   9.009   0.685   6.721  0.1113 -0.1070  0.0418
 2211SOL    HW118692   9.055   0.596   6.714  1.1694  0.2751  1.8617
 2211SOL    HW218693   9.037   0.731   6.805 -1.5454  1.3332 -0.1522
 2212SOL     OW18694   2.430   0.710   9.560 -0.5671  0.0610  0.0381
 2212SOL    HW118695   2.445   0.765   9.478  3.6158  2.2558  2.0747
 2212SOL    HW218696   2.483   0.625   9.554 -1.1248 -0.2926  0.0340
 2213SOL     OW18697   6.862   3.678   6.267 -0.5390 -0.0034  0.5756
 2213SOL    HW118698   6.851   3.777   6.279  0.7771  0.2488 -0.2528
 2213SOL    HW218699   6.839   3.632   6.353  0.1320  1.1260  1.3818
 2214SOL     OW18700   3.515   4.624   1.150 -0.0780  0.1025 -0.6862
 2214SOL    HW118701   3.585   4.662   1.211  0.2582  1.7505 -2.0535
 2214SOL    HW218702   3.515   4.524   1.158 -0.9632  0.3249  2.9715
 2215SOL     OW18703   4.674   0.331   9.513  0.5794  0.0087  1.0388
 2215SOL    HW118704   4.703   0.376   9.429  2.1930 -0.0317  1.5568
 2215SOL    HW218705   4.632   0.398   9.574  1.7228  0.5584  1.2405
 2216SOL     OW18706   9.300   1.641   5.266  0.1964 -0.5277  0.0071
 2216SOL    HW118707   9.390   1.664   5.228  0.4390  0.4605  1.1577
 2216SOL    HW218708   9.287   1.690   5.352 -1.2232 -1.1012  0.1250
 2217SOL     OW18709   7.575   8.880   3.437  0.4806 -0.5587  0.4365
 2217SOL    HW118710   7.595   8.829   3.354 -0.6794  0.8509 -0.7271
 2217SOL    HW218711   7.493   8.935   3.424  1.1813  0.8969  1.9765
 2218SOL     OW18712   0.637   6.174   4.778 -0.2344 -0.1019  0.2509
 2218SOL    HW118713   0.689   6.259   4.781 -0.0495 -0.1710 -1.0187
 2218SOL    HW218714   0.642   6.129   4.867  0.2519  0.8561  0.7137
 2219SOL     OW18715   2.285   7.029   8.814 -0.1230  0.2530 -0.3005
 2219SOL    HW118716   2.344   7.040   8.734  1.1972  2.4629  0.9192
 2219SOL    HW218717   2.305   6.941   8.858 -0.4649 -0.7308 -2.0426
 2220SOL     OW18718   6.936   6.543   9.420  0.6438 -0.3743  0.3915
 2220SOL    HW118719   6.849   6.587   9.398  1.8592  1.5639 -0.7412
 2220SOL    HW218720   6.954   6.470   9.355 -1.3116 -2.4886  2.1655
 2221SOL     OW18721   6.518   6.689   8.844  0.5121 -0.2814 -0.1280
 2221SOL    HW118722   6.618   6.690   8.854  0.3705 -1.5611  1.7021
 2221SOL    HW218723   6.476   6.687   8.935 -1.1693 -1.3734 -0.9117
 2222SOL     OW18724   4.471   8.378   5.032  0.6735 -0.1270  0.3063
 2222SOL    HW118725   4.488   8.355   4.936  0.1150  1.5672 -0.2279
 2222SOL    HW218726   4.406   8.313   5.071  1.3138 -1.1412 -0.3127
 2223SOL     OW18727   0.490   3.712   1.320  0.6995  0.3863  0.0991
 2223SOL    HW118728   0.496   3.656   1.403  2.0644  0.1965 -0.1222
 2223SOL    HW218729   0.471   3.653   1.241  1.0579  0.3611  0.0303
 2224SOL     OW18730   9.313   1.956   4.298  0.3128 -0.3369  0.0895
 2224SOL    HW118731   9.384   1.886   4.287 -1.2491 -1.8006 -0.9860
 2224SOL    HW218732   9.287   1.991   4.208 -1.9970 -1.5525  0.2470
 2225SOL     OW18733   9.614   3.486   6.795  0.1882 -0.0308  0.0449
 2225SOL    HW118734   9.641   3.575   6.757  1.3862 -0.3463  0.1456
 2225SOL    HW218735   9.556   3.438   6.729 -1.1584  1.1608  0.3231
 2226SOL     OW18736   9.065   3.067   3.506  0.1223  0.0844 -0.3243
 2226SOL    HW118737   9.071   3.167   3.508 -1.3868  0.2295 -1.3591
 2226SOL    HW218738   8.973   3.039   3.534  0.5191 -1.0200 -0.0873
 2227SOL     OW18739   9.388   7.259   3.897 -0.4897  0.1813  0.3875
 2227SOL    HW118740   9.389   7.353   3.864  1.5641 -0.4014 -1.2713
 2227SOL    HW218741   9.333   7.202   3.836 -0.3865 -0.0137  0.4734
 2228SOL     OW18742   1.219   4.579   9.101 -0.4535  0.5071  0.7512
 2228SOL    HW118743   1.316   4.592   9.122 -0.1061 -0.1254 -0.4123
 2228SOL    HW218744   1.177   4.521   9.171  0.2180  0.0712  0.7951
 2229SOL     OW18745   9.736   9.589   2.243  0.0742 -0.0694 -0.1280
 2229SOL    HW118746   9.691   9.677   2.227  3.2201  2.0449  2.0848
 2229SOL    HW218747   9.725   9.531   2.163 -3.9705  1.4458 -0.7888
 2230SOL     OW18748   9.198   5.036   6.456  0.0875 -0.5339  0.0403
 2230SOL    HW118749   9.276   5.005   6.509  0.0341  0.3012  0.6174
 2230SOL    HW218750   9.188   5.135   6.466 -2.1894 -0.8894  1.5059
 2231SOL     OW18751   4.511   9.004   4.941  0.3853 -0.1732  0.2591
 2231SOL    HW118752   4.487   9.049   4.855  1.2682  0.7435  0.4865
 2231SOL    HW218753   4.447   9.033   5.012 -1.4043 -2.2359 -0.4422
 2232SOL     OW18754   8.769   6.675   4.192 -0.5318 -0.3919 -0.3051
 2232SOL    HW118755   8.788   6.600   4.256 -0.7007  0.3789  0.6627
 2232SOL    HW218756   8.673   6.675   4.168 -0.3506 -1.0473 -1.0256
 2233SOL     OW18757   4.259   3.050   8.620 -0.0289  0.2751 -0.2328
 2233SOL    HW118758   4.243   3.111   8.697 -1.5345  1.1973 -1.2297
 2233SOL    HW218759   4.326   3.091   8.558 -0.9856  0.9172 -0.8649
 2234SOL     OW18760   0.343   5.879   0.695  0.4701 -0.5655  0.1640
 2234SOL    HW118761   0.354   5.810   0.623  1.7678  0.4566 -0.6382
 2234SOL    HW218762   0.251   5.917   0.690  1.5347  1.8492 -3.1529
 2235SOL     OW18763   4.685   6.325   2.466 -0.2399 -0.0185 -0.9373
 2235SOL    HW118764   4.644   6.234   2.475  1.1876 -0.7464 -1.6911
 2235SOL    HW218765   4.778   6.324   2.501  0.7090  0.4669 -3.3402
 2236SOL     OW18766   1.015   2.922   1.746  0.0354 -0.0704  0.8919
 2236SOL    HW118767   1.064   2.910   1.660 -1.2568  1.5016 -0.1085
 2236SOL    HW218768   0.951   2.846   1.759 -0.7225  0.3658 -0.2164
 2237SOL     OW18769   0.550   0.608   8.536  0.1647 -0.2027  0.4575
 2237SOL    HW118770   0.608   0.597   8.617 -0.2745 -0.3802  0.7554
 2237SOL    HW218771   0.570   0.696   8.493  1.3928 -0.7215 -0.0535
 2238SOL     OW18772   1.557   3.434   8.542 -0.2236 -0.4026 -0.2543
 2238SOL    HW118773   1.516   3.514   8.586 -0.9495 -0.8030 -0.1979
 2238SOL    HW218774   1.654   3.429   8.566 -0.8982 -1.3720  2.4095
 2239SOL     OW18775   1.228   2.343   2.474 -0.2480  0.0279 -0.0721
 2239SOL    HW118776   1.158   2.345   2.403 -0.7238 -2.0130  0.3288
 2239SOL    HW218777   1.303   2.284   2.445 -0.6574 -1.1843  1.3199
 2240SOL     OW18778   0.506   7.215   1.362 -0.2296  0.3158 -0.0182
 2240SOL    HW118779   0.514   7.243   1.266 -2.0176  1.0564  0.0272
 2240SOL    HW218780   0.485   7.295   1.419  0.0595 -0.2378  0.8836
 2241SOL     OW18781   9.023   0.040   8.629 -0.0848  0.6239  0.1197
 2241SOL    HW118782   9.119   0.016   8.613  0.1889  0.7222  1.5966
 2241SOL    HW218783   9.017   0.136   8.655 -0.4423  0.2621  1.3871
 2242SOL     OW18784   1.107   6.192   3.143 -0.2525 -0.7899  0.1421
 2242SOL    HW118785   1.160   6.141   3.210 -0.0622 -0.5407  0.1809
 2242SOL    HW218786   1.025   6.230   3.187  0.4451  0.3167  0.5013
 2243SOL     OW18787   0.657   9.100   6.858 -0.1869 -0.4573  0.0695
 2243SOL    HW118788   0.724   9.054   6.915 -1.3418 -2.6263 -0.2705
 2243SOL    HW218789   0.579   9.039   6.841 -1.4580  1.3785 -0.9600
 2244SOL     OW18790   2.739   2.526   7.972 -0.4925  0.0490 -0.3502
 2244SOL    HW118791   2.641   2.529   7.953 -0.6319 -1.5213  0.0476
 2244SOL    HW218792   2.762   2.596   8.040 -1.2281  0.8218 -0.8865
 2245SOL     OW18793   0.222   2.226   8.041 -0.2659 -0.6594  0.4458
 2245SOL    HW118794   0.236   2.201   8.137  0.9383 -1.5537  0.0536
 2245SOL    HW218795   0.230   2.144   7.984 -0.0960  0.0060 -0.4992
 2246SOL     OW18796   3.544   1.813   5.765  0.2701 -0.0324  0.1450
 2246SOL    HW118797   3.534   1.866   5.680 -0.5689 -0.6251 -0.1350
 2246SOL    HW218798   3.628   1.759   5.761 -1.2044 -2.2839 -1.5709
 2247SOL     OW18799   0.573   4.823   2.694 -0.3966 -0.0549  0.0066
 2247SOL    HW118800   0.477   4.845   2.675 -0.7592 -0.5589  1.1998
 2247SOL    HW218801   0.599   4.863   2.782  0.0055 -1.3127  0.4607
 2248SOL     OW18802   1.482   4.574   7.168  0.2789 -0.4069 -0.0902
 2248SOL    HW118803   1.485   4.592   7.267 -0.6670 -0.2128 -0.0864
 2248SOL    HW218804   1.513   4.656   7.119 -3.2531  1.0874 -0.0463
 2249SOL     OW18805   8.002   4.074   6.753 -0.4434  0.6706  0.0796
 2249SOL    HW118806   7.937   4.129   6.805  0.1324 -0.0977  1.6415
 2249SOL    HW218807   7.980   3.977   6.762 -0.9623  0.5571 -1.9946
 2250SOL     OW18808   0.335   6.577   7.352  0.4348 -0.0722  0.1940
 2250SOL    HW118809   0.284   6.566   7.436 -1.2304  0.3932 -0.7364
 2250SOL    HW218810   0.371   6.670   7.346 -1.3109  0.5733 -0.6066
 2251SOL     OW18811   0.076   3.809   5.212 -0.2687  0.4856 -0.0708
 2251SOL    HW118812   0.081   3.815   5.312 -2.0789  0.7773  0.0130
 2251SOL    HW218813   0.097   3.899   5.172  1.9796 -0.0011 -0.0305
 2252SOL     OW18814   1.105   6.966   8.286 -0.1111 -0.1635 -0.0282
 2252SOL    HW118815   1.014   7.001   8.308 -0.3849 -0.6693 -0.3673
 2252SOL    HW218816   1.158   7.038   8.241  0.5432  0.9946  2.4615
 2253SOL     OW18817   2.135   1.261   0.931 -0.5827  0.0530  0.2454
 2253SOL    HW118818   2.199   1.197   0.888 -0.2490  0.2862  0.3907
 2253SOL    HW218819   2.042   1.226   0.923 -0.2505 -1.1829  1.6756
 2254SOL     OW18820   1.611   2.719   4.628 -0.3042 -0.0368 -0.1317
 2254SOL    HW118821   1.667   2.657   4.573 -0.1075  0.7820 -0.8697
 2254SOL    HW218822   1.609   2.809   4.584  1.7067  1.2962  2.3650
 2255SOL     OW18823   9.352   4.208   5.354  0.3284 -0.3895  0.2097
 2255SOL    HW118824   9.253   4.218   5.343  0.1588  1.9138  3.1551
 2255SOL    HW218825   9.372   4.125   5.405 -0.1252 -0.5167  0.1796
 2256SOL     OW18826   1.411   9.503   0.593  0.5129  0.2170  0.2618
 2256SOL    HW118827   1.445   9.435   0.527 -3.2824 -2.8343  1.2934
 2256SOL    HW218828   1.337   9.555   0.551  0.1127  0.3240  1.0923
 2257SOL     OW18829   7.936   1.472   1.157  0.5077 -0.0936  0.0139
 2257SOL    HW118830   7.887   1.557   1.176  1.8203  0.4008  1.2861
 2257SOL    HW218831   7.923   1.408   1.232  0.6918 -0.4770 -0.2782
 2258SOL     OW18832   4.361   3.772   6.501  0.3349  0.4093 -0.5399
 2258SOL    HW118833   4.299   3.725   6.564  0.9499 -0.9828 -0.9592
 2258SOL    HW218834   4.308   3.828   6.437 -0.4101  0.2550 -0.0553
 2259SOL     OW18835   4.455   5.952   5.597 -0.3179  0.0298  0.3269
 2259SOL    HW118836   4.541   5.970   5.646 -0.2343 -0.1588  0.2510
 2259SOL    HW218837   4.378   5.960   5.661 -0.2981  0.8134  0.2550
 2260SOL     OW18838   4.134   3.406   6.435  1.2659 -0.3692  0.1545
 2260SOL    HW118839   4.130   3.442   6.341 -0.5324 -0.3319  0.2365
 2260SOL    HW218840   4.193   3.324   6.436  0.4629 -0.9897 -1.2228
 2261SOL     OW18841   8.711   0.261   9.200  0.6696 -0.3022  0.4675
 2261SOL    HW118842   8.650   0.332   9.235  1.6421  0.2311  1.1282
 2261SOL    HW218843   8.659   0.197   9.144 -0.2702  0.7955  0.0533
 2262SOL     OW18844   7.565   4.047   0.256  0.0541 -0.2001 -0.4727
 2262SOL    HW118845   7.617   4.080   0.334  0.0929 -2.0398  0.3059
 2262SOL    HW218846   7.528   3.956   0.276 -1.0643 -0.1302 -2.0853
 2263SOL     OW18847   9.724   4.723   4.046  0.0697 -0.2949 -0.6143
 2263SOL    HW118848   9.758   4.636   4.080  0.1732 -0.1945 -0.4594
 2263SOL    HW218849   9.640   4.748   4.095  0.5536  0.1465 -0.0065
 2264SOL     OW18850   1.643   1.322   7.886 -0.4150  0.1064 -0.0152
 2264SOL    HW118851   1.742   1.335   7.894 -0.6056  1.2687  0.4788
 2264SOL    HW218852   1.614   1.252   7.951  0.1105 -0.4019 -0.3183
 2265SOL     OW18853   8.302   3.273   9.468 -0.4525  0.1852  0.0085
 2265SOL    HW118854   8.373   3.208   9.495 -0.1675 -0.1242 -1.4652
 2265SOL    HW218855   8.299   3.348   9.534  0.4763 -0.3664  0.6918
 2266SOL     OW18856   7.940   9.753   5.416  0.5614 -0.6224 -0.0728
 2266SOL    HW118857   7.982   9.732   5.504  0.6105  0.2865  0.1268
 2266SOL    HW218858   7.854   9.702   5.408  1.9145 -2.8735 -0.7055
 2267SOL     OW18859   0.209   1.146   0.161  0.2931 -0.0602 -0.0685
 2267SOL    HW118860   0.170   1.147   0.253  0.7416  0.7348  0.1238
 2267SOL    HW218861   0.299   1.103   0.163 -0.3863 -1.5063 -0.4332
 2268SOL     OW18862   1.446   1.733   0.116 -0.0791 -0.7155  0.5697
 2268SOL    HW118863   1.513   1.682   0.171  2.3025  0.5678 -1.0405
 2268SOL    HW218864   1.389   1.789   0.176  1.0516 -0.9431  1.8781
 2269SOL     OW18865   0.605   3.032   8.569 -0.8666 -0.1357  0.2291
 2269SOL    HW118866   0.615   2.983   8.656  1.5970 -0.7271 -0.3309
 2269SOL    HW218867   0.600   3.130   8.586  2.3709 -0.0301  0.9473
 2270SOL     OW18868   1.359   9.273   1.496  0.5864  0.0759 -0.2636
 2270SOL    HW118869   1.303   9.315   1.425  0.5078 -0.1469 -0.3352
 2270SOL    HW218870   1.310   9.275   1.583  0.7600  0.5207 -0.1712
 2271SOL     OW18871   1.005   4.474   3.916  0.5826  0.4801 -0.1257
 2271SOL    HW118872   1.102   4.456   3.932 -0.1632 -4.5939 -0.3668
 2271SOL    HW218873   0.958   4.484   4.003  0.8716  0.0133  0.0849
 2272SOL     OW18874   2.914   1.368   2.390 -0.0503 -0.7423  0.0255
 2272SOL    HW118875   2.919   1.465   2.368 -3.0057 -0.5954 -0.1638
 2272SOL    HW218876   2.925   1.355   2.488  0.2561 -0.2103  0.0617
 2273SOL     OW18877   7.308   9.867   7.751 -0.2098 -0.2786 -0.9729
 2273SOL    HW118878   7.260   9.949   7.720 -0.1987  0.0295 -0.1905
 2273SOL    HW218879   7.250   9.816   7.814  0.9238  0.7092  0.8982
 2274SOL     OW18880   1.114   4.389   5.250  0.3951  0.0757  0.0430
 2274SOL    HW118881   1.037   4.387   5.187  1.2035 -0.9309 -0.9393
 2274SOL    HW218882   1.166   4.304   5.242 -0.0229 -0.4906  2.7689
 2275SOL     OW18883   6.370   4.255   7.610 -0.3155  0.3503  0.5007
 2275SOL    HW118884   6.470   4.253   7.607 -0.3071 -0.0760  0.8316
 2275SOL    HW218885   6.335   4.161   7.610 -0.7100  0.4954  0.4690
 2276SOL     OW18886   7.931   4.555   8.223 -0.1391  0.3718  0.2508
 2276SOL    HW118887   7.906   4.515   8.134 -0.4614  1.6423 -0.2514
 2276SOL    HW218888   7.936   4.655   8.213 -0.4016  0.5318  1.7258
 2277SOL     OW18889   1.111   6.539   7.060  0.1941  0.4439 -0.6098
 2277SOL    HW118890   1.185   6.472   7.066  0.8093  1.0380 -1.3422
 2277SOL    HW218891   1.055   6.534   7.142  0.2356 -0.9593 -0.6457
 2278SOL     OW18892   9.965   3.891   0.488  0.1979 -0.5404 -0.0684
 2278SOL    HW118893   9.992   3.909   0.583  0.7674 -1.9078  0.0352
 2278SOL    HW218894   9.907   3.966   0.455  1.5250  0.8685  0.7462
 2279SOL     OW18895   1.916   1.492   2.961 -0.6991  0.2595 -0.6377
 2279SOL    HW118896   1.838   1.445   2.918 -1.4209  2.3275 -1.6893
 2279SOL    HW218897   1.997   1.482   2.903 -0.9899  0.7651 -1.1345
 2280SOL     OW18898   1.501   2.633   9.445 -0.5726 -1.0010 -0.1369
 2280SOL    HW118899   1.537   2.560   9.387  1.0544 -0.7322  0.5104
 2280SOL    HW218900   1.412   2.663   9.410 -0.4576 -2.1078 -1.4001
 2281SOL     OW18901   1.403   7.524   8.408  0.1364  0.2295 -0.2643
 2281SOL    HW118902   1.434   7.440   8.364 -1.7702 -1.1552  0.9333
 2281SOL    HW218903   1.417   7.601   8.347  0.3066 -1.2024 -2.0877
 2282SOL     OW18904   3.489   4.071   8.303 -0.0589 -0.1720 -0.2758
 2282SOL    HW118905   3.419   4.136   8.273 -0.8451 -1.3994 -1.1128
 2282SOL    HW218906   3.555   4.119   8.361 -1.6082  0.9804  0.5758
 2283SOL     OW18907   8.492   8.778   8.168 -0.0936  0.9682 -0.1988
 2283SOL    HW118908   8.570   8.814   8.219  2.0858 -0.3520 -2.4417
 2283SOL    HW218909   8.447   8.853   8.120 -0.8901  1.9032  1.9658
 2284SOL     OW18910   2.493   9.999   4.540 -0.4948  0.0349  0.3398
 2284SOL    HW118911   2.548   9.942   4.601 -0.1044 -0.4542 -0.4584
 2284SOL    HW218912   2.518  10.095   4.553 -0.2726 -0.0814  0.8036
 2285SOL     OW18913   4.345   5.788   1.661 -0.0813  0.2154  0.3320
 2285SOL    HW118914   4.307   5.705   1.704 -0.9392  1.2973  1.7357
 2285SOL    HW218915   4.408   5.762   1.588 -0.1263 -1.6830  0.9286
 2286SOL     OW18916   4.459   6.808   7.647 -0.0985  0.4859  0.2517
 2286SOL    HW118917   4.510   6.727   7.674  0.6217 -0.0500 -2.5428
 2286SOL    HW218918   4.363   6.783   7.634 -0.4466  0.7462  2.2091
 2287SOL     OW18919   1.299   5.972   9.894  0.3465 -0.4565 -0.1639
 2287SOL    HW118920   1.245   6.018   9.964 -0.2855  1.1345 -1.6286
 2287SOL    HW218921   1.394   6.004   9.898  0.5672 -1.2133  0.6766
 2288SOL     OW18922   3.580   4.587   2.746 -0.3024 -0.2217  0.2079
 2288SOL    HW118923   3.532   4.594   2.658 -1.6387  1.5625  1.0198
 2288SOL    HW218924   3.587   4.492   2.773 -1.8010 -0.6495 -0.8280
 2289SOL     OW18925   0.592   8.184   4.957 -0.4666  0.0748  0.4335
 2289SOL    HW118926   0.524   8.216   4.891  0.9212 -1.2041 -1.6628
 2289SOL    HW218927   0.545   8.147   5.037 -2.1970  0.7619 -0.2322
 2290SOL     OW18928   8.471   1.045   4.496  0.4146  0.1031 -0.6576
 2290SOL    HW118929   8.409   1.118   4.525  0.8220  0.9985 -2.0049
 2290SOL    HW218930   8.440   0.958   4.535  0.2957  1.0806  1.4704
 2291SOL     OW18931   0.111   3.079   2.507  0.9029  0.6574  0.2371
 2291SOL    HW118932   0.037   3.021   2.473  1.6716 -2.0030  2.8625
 2291SOL    HW218933   0.114   3.164   2.454 -0.9981 -1.1743 -2.9726
 2292SOL     OW18934   3.420   7.157   0.566 -0.3289  0.5725  0.3594
 2292SOL    HW118935   3.476   7.074   0.564 -2.4309 -0.9347  1.3964
 2292SOL    HW218936   3.363   7.156   0.649 -1.3869  2.3783 -0.3244
 2293SOL     OW18937   8.353   0.016   7.388  0.0793 -0.3265  0.1067
 2293SOL    HW118938   8.283  -0.035   7.438  0.1458 -1.2822 -0.7498
 2293SOL    HW218939   8.315   0.051   7.302  0.3526  0.0657  0.1423
 2294SOL     OW18940   0.411   0.825   7.843  0.3858 -0.1423  0.4200
 2294SOL    HW118941   0.504   0.857   7.861  0.7252 -1.3825  0.9123
 2294SOL    HW218942   0.370   0.792   7.928  1.1349 -3.8163 -0.5528
 2295SOL     OW18943   3.668   2.243   0.011 -0.2680 -0.4960 -0.4671
 2295SOL    HW118944   3.647   2.150   0.040 -0.6575 -0.6489 -1.2166
 2295SOL    HW218945   3.701   2.242  -0.083 -1.1465  0.2111 -0.7948
 2296SOL     OW18946   3.113   3.499   0.145 -0.0128  0.2642 -0.4348
 2296SOL    HW118947   3.019   3.463   0.147 -0.4044  1.2933  0.2289
 2296SOL    HW218948   3.131   3.540   0.056  0.2728 -1.1207 -1.0301
 2297SOL     OW18949   3.957   9.161   1.456 -0.4676 -0.4318 -0.4881
 2297SOL    HW118950   3.873   9.145   1.508  1.1546 -0.2665  2.2749
 2297SOL    HW218951   3.998   9.248   1.485  2.0513 -1.7947  0.1438
 2298SOL     OW18952   1.076   4.663   5.950 -0.2220 -0.2291 -0.2002
 2298SOL    HW118953   1.135   4.605   6.007  2.1237  1.3483 -0.9668
 2298SOL    HW218954   1.067   4.753   5.992 -0.1221  0.3014 -1.2979
 2299SOL     OW18955   2.932   2.950   8.170 -0.1007 -0.3848 -0.5609
 2299SOL    HW118956   2.982   2.983   8.250 -1.9471 -0.4085  0.6366
 2299SOL    HW218957   2.889   3.028   8.123  0.3575 -0.4573 -1.1081
 2300SOL     OW18958   5.650   1.456   0.040  0.4651 -0.3062 -0.5773
 2300SOL    HW118959   5.552   1.476   0.042  0.6969  0.9207 -0.7684
 2300SOL    HW218960   5.682   1.457  -0.055  0.5097 -1.4968 -0.5754
 2301SOL     OW18961   0.659   0.096   6.597  0.1295 -0.1361 -0.5361
 2301SOL    HW118962   0.718   0.163   6.642 -1.7332 -0.3368  2.3147
 2301SOL    HW218963   0.701   0.006   6.602 -0.1408 -0.1847  0.9830
 2302SOL     OW18964   8.559   5.304   7.779  0.2204 -0.4433  0.0245
 2302SOL    HW118965   8.519   5.342   7.862  0.5666 -2.3686  1.0992
 2302SOL    HW218966   8.655   5.280   7.795  0.2515 -0.9807 -0.8799
 2303SOL     OW18967   8.902   7.385   6.466 -0.2036 -0.0108 -0.1318
 2303SOL    HW118968   8.938   7.395   6.374  1.3678 -0.2557  0.4406
 2303SOL    HW218969   8.834   7.312   6.468 -0.4536  0.1952 -1.1477
 2304SOL     OW18970   0.794   9.778   4.991  0.3939 -0.3307  0.1234
 2304SOL    HW118971   0.788   9.680   4.973  0.1951 -0.2622 -0.1933
 2304SOL    HW218972   0.703   9.814   5.009  0.3042  0.0326 -1.0232
 2305SOL     OW18973   7.444   4.598   6.554 -0.0645 -0.1556  0.3755
 2305SOL    HW118974   7.395   4.656   6.490  0.6956 -0.9122 -0.9049
 2305SOL    HW218975   7.491   4.525   6.505  0.6699 -0.6586  1.7711
 2306SOL     OW18976   1.476   8.862   7.472 -0.3620  0.0239 -0.2692
 2306SOL    HW118977   1.504   8.849   7.567  0.4562 -3.6569 -0.9437
 2306SOL    HW218978   1.395   8.807   7.453 -0.3832  0.5467 -1.7869
 2307SOL     OW18979   2.030   4.028   7.535  0.6268  0.0566 -0.4580
 2307SOL    HW118980   2.048   3.950   7.475 -0.6103  0.0418 -0.8114
 2307SOL    HW218981   1.965   4.002   7.606  1.7949  0.1832  0.6740
 2308SOL     OW18982   2.231   4.261   6.697  0.2733  0.1255  0.0608
 2308SOL    HW118983   2.272   4.295   6.781 -0.1452  1.0993 -0.1254
 2308SOL    HW218984   2.239   4.331   6.625 -0.5982 -0.1654 -0.3211
 2309SOL     OW18985   3.199   4.952   7.019  0.4720  0.1564  0.4824
 2309SOL    HW118986   3.297   4.932   7.020 -0.0915 -2.8195 -0.4726
 2309SOL    HW218987   3.167   4.956   6.924 -0.2422  1.7213  0.7709
 2310SOL     OW18988   1.915   5.708   7.688 -0.2073 -0.0900  0.6295
 2310SOL    HW118989   1.960   5.622   7.663 -0.4193 -0.1388  0.4225
 2310SOL    HW218990   1.968   5.785   7.651  0.0389 -0.1242  0.9022
 2311SOL     OW18991   1.805   1.291   8.365  0.1743 -0.1176 -0.4631
 2311SOL    HW118992   1.882   1.299   8.428  0.7377  1.7484 -1.3368
 2311SOL    HW218993   1.822   1.216   8.301  0.6089 -0.6208  0.2401
 2312SOL     OW18994   9.659   3.758   0.500 -0.0966  0.0249  0.0154
 2312SOL    HW118995   9.579   3.787   0.554 -0.2525  2.5808 -1.5103
 2312SOL    HW218996   9.739   3.812   0.527 -0.3865  2.0194 -2.8680
 2313SOL     OW18997   5.641   9.011   7.112  0.1727  0.0921 -0.4988
 2313SOL    HW118998   5.686   8.968   7.034 -0.3731 -0.5778 -0.4483
 2313SOL    HW218999   5.558   8.960   7.135 -0.3264  1.0066 -0.2519
 2314SOL     OW19000   3.775   5.308   2.991  0.2751 -0.3749  0.4775
 2314SOL    HW119001   3.790   5.212   3.016  1.4504  0.3939  2.9502
 2314SOL    HW219002   3.677   5.326   2.987 -0.0061 -0.7679  4.0206
 2315SOL     OW19003   2.201   3.008   6.083  0.4279 -0.0819  0.2099
 2315SOL    HW119004   2.205   2.955   6.168 -1.3871 -2.4009 -1.0753
 2315SOL    HW219005   2.134   3.082   6.093 -0.9695 -1.3268  0.3306
 2316SOL     OW19006   2.519   4.616   0.480  0.0365  0.3121  0.8317
 2316SOL    HW119007   2.490   4.521   0.494  1.2813 -0.1782  0.2051
 2316SOL    HW219008   2.510   4.666   0.566 -0.3558 -0.4533  1.2459
 2317SOL     OW19009   5.142   0.950   7.651 -0.0906  0.5262  0.0360
 2317SOL    HW119010   5.055   0.994   7.626  0.0317  1.8986  1.9294
 2317SOL    HW219011   5.126   0.881   7.721 -0.1680 -1.9763 -2.3907
 2318SOL     OW19012   1.578   8.955   6.570 -0.2430  0.1921  0.1556
 2318SOL    HW119013   1.566   8.885   6.500  1.8499 -0.7853  0.7389
 2318SOL    HW219014   1.599   8.911   6.657 -2.3606  1.4192  1.3189
 2319SOL     OW19015   5.428   6.754   8.975  0.4091  0.1453 -0.1734
 2319SOL    HW119016   5.479   6.826   9.021 -1.0689  0.5876  0.8178
 2319SOL    HW219017   5.384   6.791   8.893  0.0968  0.2491  0.0389
 2320SOL     OW19018   2.407   3.241   5.090 -0.3768  0.1081 -0.3899
 2320SOL    HW119019   2.402   3.207   5.183 -2.4728 -0.2701 -0.6269
 2320SOL    HW219020   2.431   3.167   5.028  0.4524  0.2388 -0.2287
 2321SOL     OW19021   9.998   1.518   8.951  0.2116  0.5923  0.1314
 2321SOL    HW119022   9.993   1.541   9.049 -0.6003  1.3989 -0.0963
 2321SOL    HW219023  10.064   1.578   8.907  1.7904 -0.8361  0.4733
 2322SOL     OW19024   0.481   7.067   8.084 -0.3163 -0.2511  0.0737
 2322SOL    HW119025   0.408   7.132   8.063 -1.5828 -1.3156  0.9898
 2322SOL    HW219026   0.450   6.975   8.058  0.4479 -0.7897  1.0597
 2323SOL     OW19027   1.180   5.982   7.761 -0.0458 -0.3507 -0.3552
 2323SOL    HW119028   1.152   5.893   7.797  1.4816 -1.0465 -0.8371
 2323SOL    HW219029   1.255   5.970   7.696  0.8379  1.3549  0.2891
 2324SOL     OW19030   1.565   1.420   3.135  0.4173 -0.6941 -0.2541
 2324SOL    HW119031   1.506   1.425   3.055  1.9641 -2.1101 -1.5336
 2324SOL    HW219032   1.579   1.325   3.160  1.1962 -0.3234  0.7381
 2325SOL     OW19033   4.051   2.822   0.783  0.2666 -0.0396  0.0156
 2325SOL    HW119034   4.147   2.799   0.768  0.3456  0.5826 -0.4832
 2325SOL    HW219035   4.030   2.817   0.880  0.3337 -1.9768 -0.0536
 2326SOL     OW19036   1.272   9.342   8.358  0.0002 -0.2164  0.5361
 2326SOL    HW119037   1.244   9.398   8.436 -1.9449 -0.9634  0.4126
 2326SOL    HW219038   1.285   9.247   8.388  0.7021 -0.2176  0.2372
 2327SOL     OW19039   8.897   6.936   6.642 -0.2654  0.5545 -0.0086
 2327SOL    HW119040   8.873   7.028   6.612  0.0661  0.3688 -0.8442
 2327SOL    HW219041   8.996   6.925   6.641 -0.3043  0.1807  0.0833
 2328SOL     OW19042   5.893   7.210   3.292  0.1412  0.1150  0.1550
 2328SOL    HW119043   5.842   7.134   3.250 -0.2067  0.0947  0.6051
 2328SOL    HW219044   5.982   7.219   3.248 -0.0218 -0.2250 -0.2510
 2329SOL     OW19045   9.486   5.463   6.453  0.3344 -0.4177  0.0670
 2329SOL    HW119046   9.559   5.457   6.385 -0.0005  0.5346 -0.3797
 2329SOL    HW219047   9.398   5.467   6.406  0.1036  0.2994  0.5597
 2330SOL     OW19048   0.251   5.535   0.152  0.3351 -0.5510 -0.0616
 2330SOL    HW119049   0.176   5.470   0.138  1.3526 -1.7416 -0.0604
 2330SOL    HW219050   0.214   5.628   0.152 -1.1553 -1.1219  0.0487
 2331SOL     OW19051   7.825   3.902   7.006 -0.4207  0.5069 -0.2620
 2331SOL    HW119052   7.784   3.812   6.995 -1.3675  0.6854  1.6344
 2331SOL    HW219053   7.764   3.971   6.967  0.0295  0.4090 -1.1705
 2332SOL     OW19054   8.451   3.592   7.071  0.0263  0.3679  0.3885
 2332SOL    HW119055   8.409   3.654   7.005 -2.5717 -1.1610  0.4907
 2332SOL    HW219056   8.381   3.528   7.105  2.0201 -0.9066  2.2371
 2333SOL     OW19057   8.950   0.169   9.636 -0.1891 -0.3578 -0.1579
 2333SOL    HW119058   8.941   0.073   9.662 -1.5554 -0.3871 -0.6932
 2333SOL    HW219059   8.975   0.175   9.539 -0.2035 -0.1708 -0.1478
 2334SOL     OW19060   1.322   1.325   4.598 -0.6457  0.5982 -0.2472
 2334SOL    HW119061   1.384   1.391   4.642 -1.2865  1.6502 -0.8836
 2334SOL    HW219062   1.371   1.240   4.579  0.1277  0.7961  0.8359
 2335SOL     OW19063   4.498   4.976   5.036  0.4280 -0.3520  0.1979
 2335SOL    HW119064   4.419   5.003   5.092  0.9676  0.4072  0.6000
 2335SOL    HW219065   4.513   4.877   5.046 -1.3078 -0.7617 -0.9545
 2336SOL     OW19066   7.155   2.175   5.212 -0.4902 -0.4865 -0.0592
 2336SOL    HW119067   7.153   2.273   5.190  1.5620 -0.4433 -0.1496
 2336SOL    HW219068   7.131   2.162   5.308  2.0356  0.3752  0.7134
 2337SOL     OW19069   4.831   2.806   7.097 -0.1078  0.5456 -0.1185
 2337SOL    HW119070   4.865   2.781   7.006  0.3946  0.8939 -0.0305
 2337SOL    HW219071   4.743   2.761   7.114 -0.5720  1.0887 -1.0798
 2338SOL     OW19072   9.166   2.038   5.221  0.3132  0.6167  0.0995
 2338SOL    HW119073   9.199   2.118   5.271  1.5549 -0.3460  0.8535
 2338SOL    HW219074   9.197   2.043   5.126  0.5267  0.9448  0.1837
 2339SOL     OW19075   0.015   3.677   8.721  0.2038 -0.2523 -0.3700
 2339SOL    HW119076  -0.031   3.730   8.649  0.6052 -0.4776 -0.7958
 2339SOL    HW219077  -0.042   3.676   8.803  0.3460  1.1315 -0.2455
 2340SOL     OW19078   9.696   1.617   3.109  0.1929 -0.4765 -0.0064
 2340SOL    HW119079   9.656   1.606   3.018  0.8080 -0.2705 -0.3055
 2340SOL    HW219080   9.680   1.534   3.163 -0.2962 -0.5426 -0.2522
 2341SOL     OW19081   0.859   6.003   4.177 -0.6558 -0.0329  0.2685
 2341SOL    HW119082   0.903   5.976   4.092  0.1466  2.0634 -0.0229
 2341SOL    HW219083   0.763   5.975   4.175 -0.7064  0.1890 -1.4328
 2342SOL     OW19084   1.292   1.915   8.463 -0.8203 -0.0976  0.3447
 2342SOL    HW119085   1.390   1.918   8.484 -0.2377  1.1606 -2.3015
 2342SOL    HW219086   1.272   1.835   8.407 -0.4779  1.8623 -2.6955
 2343SOL     OW19087   1.937   1.326   4.783 -0.2089 -0.0462  0.2665
 2343SOL    HW119088   1.965   1.283   4.869 -1.3284 -0.2265  0.5580
 2343SOL    HW219089   1.848   1.370   4.795  0.0111  0.6431 -0.5777
 2344SOL     OW19090   0.766   9.579   9.492  0.4534  0.0068  0.7499
 2344SOL    HW119091   0.684   9.564   9.547  0.9328  0.1868  1.5116
 2344SOL    HW219092   0.812   9.662   9.522  1.2234 -0.4012  0.6905
 2345SOL     OW19093   8.282   5.817   6.576 -0.0376 -0.1041  0.1597
 2345SOL    HW119094   8.345   5.893   6.561 -1.0339  0.4464 -1.4316
 2345SOL    HW219095   8.198   5.852   6.618 -0.3838 -0.3769 -0.3092
 2346SOL     OW19096   1.454   4.355   8.154  0.3651  0.4109 -0.5461
 2346SOL    HW119097   1.550   4.381   8.156  0.1125  1.2980  0.1247
 2346SOL    HW219098   1.398   4.432   8.124 -0.5054  1.0813  2.5915
 2347SOL     OW19099   3.177   2.373   6.051 -0.3332  0.0926 -0.3212
 2347SOL    HW119100   3.194   2.463   6.091 -1.0068 -0.4469  1.2093
 2347SOL    HW219101   3.211   2.302   6.113 -3.5002 -0.8414  0.4156
 2348SOL     OW19102   8.355   1.607   8.706 -0.4913 -0.2081  0.0739
 2348SOL    HW119103   8.314   1.517   8.690 -2.4731  0.4476  1.2224
 2348SOL    HW219104   8.289   1.665   8.753  1.2148  1.4598  0.4580
 2349SOL     OW19105   0.285   4.771   1.313  0.3808  0.3297  0.1279
 2349SOL    HW119106   0.384   4.764   1.329  0.3631 -1.5517 -0.4306
 2349SOL    HW219107   0.269   4.815   1.225  0.7364  0.4854  0.1417
 2350SOL     OW19108   9.563   3.359   4.871  0.4891  0.3666 -0.5924
 2350SOL    HW119109   9.659   3.335   4.876  0.5182  0.4632 -0.6900
 2350SOL    HW219110   9.546   3.439   4.930  0.5337  0.5523 -0.8295
 2351SOL     OW19111   6.221   3.018   2.153 -0.7674  0.9325 -0.2286
 2351SOL    HW119112   6.229   3.118   2.149  0.1546  0.9223  1.0292
 2351SOL    HW219113   6.139   2.993   2.205 -1.1444  1.0299 -0.7736
 2352SOL     OW19114   1.447   9.463   6.072  0.3588  1.0677  0.1000
 2352SOL    HW119115   1.366   9.436   6.020  0.5341  0.4695  0.1370
 2352SOL    HW219116   1.422   9.533   6.139 -0.1965  0.6302  0.3519
 2353SOL     OW19117   7.889   3.194   6.672 -0.0932 -0.0267  0.2972
 2353SOL    HW119118   7.883   3.205   6.572  0.5762  0.9742  0.3609
 2353SOL    HW219119   7.985   3.183   6.698 -0.3499 -1.3969  0.7306
 2354SOL     OW19120   3.534   9.087   8.444  0.6217 -0.2579  0.3539
 2354SOL    HW119121   3.595   9.121   8.515 -0.8375  0.7519  1.1706
 2354SOL    HW219122   3.587   9.040   8.373  2.1160 -1.0759  1.9830
 2355SOL     OW19123   7.250   5.817   9.475 -0.2433 -0.3280  0.8108
 2355SOL    HW119124   7.331   5.777   9.518  0.2085 -0.2281  0.0590
 2355SOL    HW219125   7.236   5.910   9.510 -0.3029 -0.5181  1.2871
 2356SOL     OW19126   9.600   5.295   7.897 -0.9081 -0.0922  0.1457
 2356SOL    HW119127   9.578   5.297   7.799  1.0818  0.3950 -0.3119
 2356SOL    HW219128   9.516   5.280   7.949 -2.3096  1.6620 -1.5161
 2357SOL     OW19129   9.250   0.877   2.474  0.1346  0.2482  0.0424
 2357SOL    HW119130   9.193   0.823   2.412  0.2808 -0.3769  0.4565
 2357SOL    HW219131   9.327   0.822   2.506 -0.4822  0.2443  1.5586
 2358SOL     OW19132   1.412   9.093   8.936 -0.2144  0.1479  0.9567
 2358SOL    HW119133   1.471   9.124   9.010 -1.5473  0.7512  1.7938
 2358SOL    HW219134   1.372   9.004   8.960 -0.8377  0.4567  1.1003
 2359SOL     OW19135   1.737   1.861   1.268  0.7685 -0.0688 -0.4777
 2359SOL    HW119136   1.790   1.844   1.351  0.4517 -1.1596 -0.4883
 2359SOL    HW219137   1.657   1.801   1.267  0.4811  0.3237 -1.3142
 2360SOL     OW19138   6.982   1.818   1.557  0.0079 -0.3651  0.1727
 2360SOL    HW119139   6.892   1.777   1.569 -0.2227 -0.0967 -0.6070
 2360SOL    HW219140   7.009   1.813   1.460  0.9946 -0.7935  0.4664
 2361SOL     OW19141   2.657   1.933   8.149  0.5647  0.0916 -0.8209
 2361SOL    HW119142   2.586   2.002   8.162  1.2179  0.6514 -0.1989
 2361SOL    HW219143   2.615   1.847   8.119 -0.3917  0.3476 -0.2367
 2362SOL     OW19144   3.887   8.619   6.975  0.0949  0.2297 -0.6344
 2362SOL    HW119145   3.860   8.529   7.009 -0.8418  1.1290  1.0723
 2362SOL    HW219146   3.848   8.690   7.034 -1.5203  1.8692 -3.5763
 2363SOL     OW19147   4.244   2.349   8.559 -0.1208 -0.0930  0.7014
 2363SOL    HW119148   4.307   2.414   8.515 -2.0032  1.4145  0.1443
 2363SOL    HW219149   4.294   2.266   8.583  1.6406  0.2161 -1.6147
 2364SOL     OW19150   4.219   0.734   7.287 -0.2531 -0.1485 -0.4219
 2364SOL    HW119151   4.127   0.694   7.285 -0.5145  0.5268 -2.6573
 2364SOL    HW219152   4.278   0.685   7.222  0.8826 -0.3154  0.7087
 2365SOL     OW19153   4.169   6.631   8.910 -0.1715 -0.5980 -0.0614
 2365SOL    HW119154   4.069   6.637   8.899  0.2221  2.3142 -2.6451
 2365SOL    HW219155   4.213   6.636   8.821  2.4245  1.9521  1.2657
 2366SOL     OW19156   4.449   7.294   9.143  0.6418 -0.8359  0.0308
 2366SOL    HW119157   4.389   7.221   9.177  1.3602  0.0690  3.4837
 2366SOL    HW219158   4.397   7.354   9.083  0.0169 -4.0762 -2.8157
 2367SOL     OW19159   3.558   6.192   8.386  0.1873 -0.7201  0.4200
 2367SOL    HW119160   3.570   6.136   8.304 -0.9218 -0.9672  0.4233
 2367SOL    HW219161   3.524   6.282   8.360  0.8083 -0.4490  0.5259
 2368SOL     OW19162   0.587   0.449   5.415 -0.4160  0.3459 -0.4037
 2368SOL    HW119163   0.654   0.375   5.413 -0.9268 -0.1256 -0.2963
 2368SOL    HW219164   0.560   0.468   5.510  0.0854  1.0141 -0.3896
 2369SOL     OW19165   4.438   8.362   4.362 -0.4393 -0.2763  0.0948
 2369SOL    HW119166   4.431   8.450   4.409  2.7987 -0.4258  0.9817
 2369SOL    HW219167   4.369   8.357   4.290 -0.0925  3.3631 -0.5806
 2370SOL     OW19168   8.455   2.291   8.573 -0.0119  0.4317  0.0711
 2370SOL    HW119169   8.506   2.284   8.487  2.5389 -2.1767  1.7087
 2370SOL    HW219170   8.465   2.383   8.610 -1.3609  1.6769 -2.4930
 2371SOL     OW19171   8.764   2.069   9.371 -0.3473 -0.3536 -0.5299
 2371SOL    HW119172   8.834   2.096   9.438 -1.9593 -0.2848  1.1668
 2371SOL    HW219173   8.784   1.976   9.338 -0.0353 -0.7568  0.7599
 2372SOL     OW19174   3.236   8.993   6.425 -0.6378  0.2826  0.5796
 2372SOL    HW119175   3.185   8.908   6.435  0.8405 -0.6563  0.2884
 2372SOL    HW219176   3.212   9.036   6.337 -1.3972  0.1880  0.7352
 2373SOL     OW19177   9.590   3.359   2.121 -0.5675  0.0458  0.3477
 2373SOL    HW119178   9.586   3.272   2.171 -1.1187 -0.7869 -1.1066
 2373SOL    HW219179   9.685   3.389   2.114 -0.4823  0.1449  1.8481
 2374SOL     OW19180   2.485   9.970   1.501  0.1053 -0.5857 -0.3135
 2374SOL    HW119181   2.490   9.878   1.463  1.2571 -0.1650 -1.1920
 2374SOL    HW219182   2.505  10.037   1.430  1.8627  0.2283  0.9169
 2375SOL     OW19183   2.601   0.896   0.148 -0.2213 -0.3998  0.2145
 2375SOL    HW119184   2.641   0.918   0.059 -0.8766 -0.5884 -0.1337
 2375SOL    HW219185   2.625   0.966   0.215 -0.3652  0.1483 -0.3068
 2376SOL     OW19186   3.347   2.177   6.162  0.1791  0.4286 -0.5137
 2376SOL    HW119187   3.426   2.193   6.102  1.0023  1.4310  0.8206
 2376SOL    HW219188   3.379   2.141   6.250 -1.0398 -1.2456 -0.7357
 2377SOL     OW19189   3.895   5.006   5.237 -0.1528  0.1633 -0.1929
 2377SOL    HW119190   3.825   5.064   5.280 -0.2991  1.1322 -1.7198
 2377SOL    HW219191   3.883   4.912   5.267 -2.3260  0.2611 -0.7127
 2378SOL     OW19192   3.560   3.246   3.920 -0.4223  0.2568 -0.3102
 2378SOL    HW119193   3.610   3.165   3.950 -0.6432  0.1852 -0.1323
 2378SOL    HW219194   3.466   3.220   3.896 -0.9477  0.7049  1.1877
 2379SOL     OW19195   1.442   2.517   6.725 -0.0415  0.0524  0.0849
 2379SOL    HW119196   1.423   2.602   6.774  0.0324  1.3539 -2.0749
 2379SOL    HW219197   1.541   2.509   6.711 -0.2008  0.6801 -1.5174
 2380SOL     OW19198   1.669   3.511   1.805  0.0219  1.0305 -0.4466
 2380SOL    HW119199   1.650   3.418   1.772 -0.0534  1.1720 -0.8027
 2380SOL    HW219200   1.726   3.506   1.887  0.8278  0.7102 -1.0257
 2381SOL     OW19201   0.128   0.059   9.300 -0.4303 -0.8244  0.2816
 2381SOL    HW119202   0.127   0.158   9.318 -0.1980 -1.0656  1.7387
 2381SOL    HW219203   0.222   0.027   9.296 -0.5051 -0.9827 -0.2416
 2382SOL     OW19204   9.616   1.434   0.568  0.3010  0.3198  0.0458
 2382SOL    HW119205   9.539   1.422   0.631 -0.2554  1.3933 -0.4038
 2382SOL    HW219206   9.589   1.405   0.476  1.8237 -3.3476  0.6983
 2383SOL     OW19207   2.656   9.008   6.071  0.1516  0.1805 -0.3077
 2383SOL    HW119208   2.704   8.923   6.052  1.3058  0.8594 -0.5194
 2383SOL    HW219209   2.686   9.079   6.007 -0.2531  0.9341  0.3183
 2384SOL     OW19210   9.933   9.765   5.255 -0.7800 -0.2122  0.2132
 2384SOL    HW119211   9.996   9.776   5.178  0.4546  0.0386  1.2547
 2384SOL    HW219212   9.841   9.747   5.220  0.3366 -3.2807 -1.2896
 2385SOL     OW19213   1.296   7.901   5.564  0.3043  0.1943  0.1380
 2385SOL    HW119214   1.369   7.845   5.602  0.8178  1.1274  0.5330
 2385SOL    HW219215   1.301   7.900   5.464  1.5488  1.1692  0.1868
 2386SOL     OW19216   4.320   8.360   0.797 -0.0058  0.7092 -0.2913
 2386SOL    HW119217   4.231   8.316   0.782  0.0114 -0.4136  2.6487
 2386SOL    HW219218   4.373   8.357   0.712 -1.1638 -2.3214 -0.9863
 2387SOL     OW19219   9.061   9.808   2.330  0.0360  0.1728  0.4284
 2387SOL    HW119220   9.027   9.891   2.376 -0.1328  0.4554 -0.2017
 2387SOL    HW219221   9.153   9.824   2.295 -0.2087  0.2842 -0.1778
 2388SOL     OW19222   0.727   2.900   1.395  0.3939  0.4027 -0.1079
 2388SOL    HW119223   0.660   2.869   1.462  0.2222  0.9510 -0.0207
 2388SOL    HW219224   0.711   2.997   1.374  0.4891  0.2578 -0.8862
 2389SOL     OW19225   7.941   2.566   6.515 -0.3666 -0.0705 -0.0607
 2389SOL    HW119226   8.035   2.559   6.480  0.4535 -0.4692  2.1287
 2389SOL    HW219227   7.894   2.479   6.501  0.0346 -0.3085  0.0642
 2390SOL     OW19228   4.743   5.741   2.715  0.2075 -1.0547  0.2857
 2390SOL    HW119229   4.782   5.663   2.765 -0.5559 -1.3915  0.3582
 2390SOL    HW219230   4.652   5.717   2.682 -0.2241 -0.0333  0.7127
 2391SOL     OW19231   1.765   1.015   8.344  0.7841 -0.1185 -0.2813
 2391SOL    HW119232   1.704   0.942   8.376  0.6921  0.8434  1.8288
 2391SOL    HW219233   1.783   1.002   8.246  0.5513 -2.7941 -0.0292
 2392SOL     OW19234   7.144   7.697   4.910  0.0631  0.4997 -0.0854
 2392SOL    HW119235   7.075   7.626   4.902  0.7277 -0.3130  1.1663
 2392SOL    HW219236   7.182   7.718   4.820 -0.7033 -0.1611 -0.5615
 2393SOL     OW19237   9.718   3.753   6.757  0.0080 -0.4172  0.2401
 2393SOL    HW119238   9.648   3.772   6.826  1.1413 -0.7556  1.5146
 2393SOL    HW219239   9.785   3.826   6.757 -0.2574 -0.1686 -0.8766
 2394SOL     OW19240   9.849   4.976   1.459 -0.9548 -0.4883  0.2613
 2394SOL    HW119241   9.816   5.049   1.399  1.2302 -1.6707 -2.4968
 2394SOL    HW219242   9.823   4.887   1.421  2.0811 -1.3170 -0.0059
 2395SOL     OW19243   3.455   9.176   6.473 -0.2812  0.3382 -0.4646
 2395SOL    HW119244   3.517   9.098   6.478 -0.5553  0.1107 -0.6102
 2395SOL    HW219245   3.360   9.143   6.466 -0.2238  0.6422 -3.2575
 2396SOL     OW19246   9.280   4.491   9.740  0.1712  0.6271  0.4402
 2396SOL    HW119247   9.306   4.498   9.644 -0.2719 -0.1539  0.2567
 2396SOL    HW219248   9.329   4.560   9.793 -1.1717  2.4890 -0.6644
 2397SOL     OW19249   2.423   1.627   2.632  0.2137 -0.3041 -0.3232
 2397SOL    HW119250   2.379   1.542   2.664 -2.7741  1.1262 -0.4751
 2397SOL    HW219251   2.451   1.681   2.711  1.3325 -1.0272 -0.2189
 2398SOL     OW19252   1.501   8.388   1.494  0.8044  0.0514  0.4198
 2398SOL    HW119253   1.477   8.353   1.585 -0.1979  0.6404  0.3942
 2398SOL    HW219254   1.482   8.486   1.490  0.2922 -0.0796 -0.5988
 2399SOL     OW19255   6.441   5.467   1.084  0.2312 -0.5193  0.0521
 2399SOL    HW119256   6.499   5.479   1.003 -0.4888  2.2738 -0.1085
 2399SOL    HW219257   6.487   5.505   1.164 -0.6422  0.1773  0.2327
 2400SOL     OW19258   2.365   0.152   6.551  0.2880  0.0930  0.4292
 2400SOL    HW119259   2.320   0.234   6.586  1.0040  0.5409  0.3105
 2400SOL    HW219260   2.445   0.178   6.498  0.5412 -0.6856  0.4249
 2401SOL     OW19261   0.266   4.174   5.475 -0.3042 -0.1568 -0.1477
 2401SOL    HW119262   0.227   4.207   5.389  1.8161 -0.9645 -1.4705
 2401SOL    HW219263   0.250   4.075   5.482  0.7631 -0.3514 -0.3312
 2402SOL     OW19264   2.426   3.651   1.591 -0.0001  0.2835  0.2900
 2402SOL    HW119265   2.497   3.705   1.637  0.2800 -0.4458  0.7150
 2402SOL    HW219266   2.468   3.591   1.523 -0.1006 -0.7915  1.1546
 2403SOL     OW19267   9.712   7.503   0.535 -0.4434 -0.0042 -0.5405
 2403SOL    HW119268   9.629   7.540   0.493 -0.7753 -0.3433 -0.1879
 2403SOL    HW219269   9.688   7.454   0.619 -0.2159 -2.4317 -1.8620
 2404SOL     OW19270   1.888   5.099   0.369  0.2027  0.1356  0.3077
 2404SOL    HW119271   1.904   5.117   0.467  1.1570 -0.0834  0.2002
 2404SOL    HW219272   1.973   5.068   0.327  0.0168  1.0905 -0.7984
 2405SOL     OW19273   0.198   3.872   0.870 -0.6515  0.1060  0.0859
 2405SOL    HW119274   0.274   3.905   0.813  2.2376 -0.9406  3.2147
 2405SOL    HW219275   0.157   3.792   0.826  0.6658  0.0926 -1.1813
 2406SOL     OW19276   4.470   4.119   5.865 -0.1853  0.1695  0.3063
 2406SOL    HW119277   4.499   4.067   5.785  0.8101  2.9783 -1.2266
 2406SOL    HW219278   4.396   4.070   5.912 -0.6700 -1.5918 -2.2236
 2407SOL     OW19279   8.716   2.116   8.902 -0.1423 -0.2758  0.3785
 2407SOL    HW119280   8.694   2.202   8.947 -2.4008 -0.0621 -1.0511
 2407SOL    HW219281   8.802   2.127   8.850 -1.6976  1.9418 -1.8679
 2408SOL     OW19282   7.710   4.603   0.024  0.3242  0.4184 -0.2241
 2408SOL    HW119283   7.772   4.545  -0.028 -0.0071  0.4305 -0.6351
 2408SOL    HW219284   7.642   4.546   0.071  0.4327  0.4270 -0.0565
 2409SOL     OW19285   1.731   3.525   9.597  0.3036  0.1211 -0.2066
 2409SOL    HW119286   1.688   3.458   9.658  1.1032 -1.2565 -1.1180
 2409SOL    HW219287   1.830   3.521   9.608  0.4598 -0.1617 -1.5781
 2410SOL     OW19288   5.557   9.674   0.903 -0.0302 -0.2060 -0.2057
 2410SOL    HW119289   5.635   9.640   0.851  0.1273  0.6536 -0.5531
 2410SOL    HW219290   5.586   9.697   0.996  0.4396  1.3090 -0.7046
 2411SOL     OW19291   1.891   1.701   0.794  0.1835 -0.1847  0.2529
 2411SOL    HW119292   1.830   1.624   0.812  0.0131  0.3107  1.8764
 2411SOL    HW219293   1.946   1.720   0.876  1.4277  0.3413 -0.6918
 2412SOL     OW19294   7.243   2.067   0.809 -0.4079 -0.1770  0.2215
 2412SOL    HW119295   7.329   2.037   0.851 -0.4999  0.0279  0.5666
 2412SOL    HW219296   7.176   1.993   0.812 -0.0169 -0.5760 -0.7024
 2413SOL     OW19297   9.921   0.487   7.751 -0.5986 -0.0037  0.2923
 2413SOL    HW119298   9.847   0.529   7.698 -0.1900 -1.3348 -1.3941
 2413SOL    HW219299  10.006   0.494   7.699  0.0606 -0.2503  1.3297
 2414SOL     OW19300   0.881   1.442   3.901 -0.0899  0.0839  0.1732
 2414SOL    HW119301   0.963   1.389   3.880 -0.6116 -1.4129  1.8217
 2414SOL    HW219302   0.885   1.474   3.996 -0.7038  1.3160 -0.2058
 2415SOL     OW19303   9.641   1.984   0.533 -0.1839 -0.0396 -0.2269
 2415SOL    HW119304   9.584   2.051   0.581  0.2540  0.0671  0.1533
 2415SOL    HW219305   9.612   1.892   0.558 -0.1689  0.0139 -0.0087
 2416SOL     OW19306   1.419   5.143   6.870  0.7733  0.1462 -0.6723
 2416SOL    HW119307   1.415   5.207   6.793  2.1109  0.1811 -0.7230
 2416SOL    HW219308   1.411   5.193   6.956  0.7720  0.2601 -0.7392
 2417SOL     OW19309   0.079   3.492   8.544  0.1515  0.5651 -0.0488
 2417SOL    HW119310   0.141   3.426   8.585 -1.0056 -0.1925  0.5304
 2417SOL    HW219311   0.048   3.557   8.613 -0.4469  0.3501 -0.1108
 2418SOL     OW19312   6.114   1.123   2.329 -0.2134  0.6113 -0.5342
 2418SOL    HW119313   6.029   1.143   2.280 -0.3585  0.6334 -0.2769
 2418SOL    HW219314   6.105   1.152   2.424 -0.2896 -0.3228 -0.2505
 2419SOL     OW19315   2.003   1.092   7.469 -0.0644  0.3284 -0.2837
 2419SOL    HW119316   1.928   1.155   7.492  0.5446  1.0275 -0.1795
 2419SOL    HW219317   1.986   1.003   7.511 -0.3199  0.7917  0.6127
 2420SOL     OW19318   1.750   0.726   1.128  0.3431  0.0894  0.0053
 2420SOL    HW119319   1.840   0.698   1.161  0.9010 -1.0852 -2.3970
 2420SOL    HW219320   1.691   0.646   1.116 -0.0072  0.5219 -1.2977
 2421SOL     OW19321   3.771   7.733   8.482  0.0807  0.6802 -0.0338
 2421SOL    HW119322   3.711   7.714   8.560  2.0068 -0.0274  1.3039
 2421SOL    HW219323   3.718   7.725   8.397 -2.2624  2.3094  1.1969
 2422SOL     OW19324   3.002   3.120   3.890  0.0674 -0.1610 -0.6793
 2422SOL    HW119325   3.010   3.020   3.899  0.3352 -0.1571 -0.8618
 2422SOL    HW219326   2.956   3.157   3.971 -1.1184 -0.5665 -1.1634
 2423SOL     OW19327   6.422   5.234   0.556  0.3866 -0.5881  0.2135
 2423SOL    HW119328   6.440   5.141   0.522  0.0242 -0.8056  0.6174
 2423SOL    HW219329   6.505   5.289   0.547  0.7654 -1.1116  0.4904
 2424SOL     OW19330   3.019   2.524   3.916 -0.0664 -0.5723 -0.4959
 2424SOL    HW119331   3.092   2.555   3.977 -1.3614  0.2958  0.6433
 2424SOL    HW219332   2.954   2.598   3.901 -0.0328 -0.9363 -2.5611
 2425SOL     OW19333   3.357   8.544   6.686 -0.1687 -0.4889  0.9177
 2425SOL    HW119334   3.285   8.477   6.669 -0.8260  0.1150  1.2947
 2425SOL    HW219335   3.328   8.608   6.757  0.8391 -0.3895  1.2510
 2426SOL     OW19336   4.505   9.543   2.310 -0.1891 -0.4037  0.1109
 2426SOL    HW119337   4.437   9.470   2.316 -0.9648  0.5142  3.1560
 2426SOL    HW219338   4.528   9.576   2.401 -0.3319  3.6235 -1.2075
 2427SOL     OW19339   0.011   4.442   8.431  0.3755  0.2113 -0.2174
 2427SOL    HW119340   0.107   4.434   8.457 -0.1671 -0.8174  1.5742
 2427SOL    HW219341  -0.046   4.437   8.513 -1.2561 -0.1243 -1.3549
 2428SOL     OW19342   8.671   1.095   2.570 -0.6162 -0.0393  0.3969
 2428SOL    HW119343   8.667   1.006   2.525 -0.6540  0.5531 -0.7843
 2428SOL    HW219344   8.764   1.131   2.564 -0.4217 -0.3411  1.5538
 2429SOL     OW19345   8.656   0.093   5.516 -0.2934 -0.0036  0.0924
 2429SOL    HW119346   8.709   0.017   5.553 -0.8003 -1.1280 -1.4439
 2429SOL    HW219347   8.719   0.164   5.484  0.2128 -0.2484  0.5294
 2430SOL     OW19348   3.162   5.697   7.868  0.4767  0.2059 -0.0837
 2430SOL    HW119349   3.241   5.723   7.811  0.1767  4.2038  1.2174
 2430SOL    HW219350   3.079   5.738   7.831 -0.0865  0.8743  1.8543
 2431SOL     OW19351   2.270   4.118   0.224 -0.0813 -0.2835 -0.1037
 2431SOL    HW119352   2.277   4.188   0.295  0.7023 -0.5554  0.0942
 2431SOL    HW219353   2.200   4.144   0.158 -0.3349  0.3069  0.3940
 2432SOL     OW19354   1.986   3.047   0.599  0.6846 -0.1065 -0.1289
 2432SOL    HW119355   1.976   3.133   0.549 -0.9233 -0.8937 -1.1755
 2432SOL    HW219356   1.939   3.053   0.687  0.4858  0.0453 -0.2470
 2433SOL     OW19357   3.948   5.376   6.383 -0.2416 -0.1440  0.0920
 2433SOL    HW119358   3.975   5.282   6.404 -0.3055 -0.1091  0.3362
 2433SOL    HW219359   3.882   5.408   6.452 -0.5073 -0.0503 -0.2058
 2434SOL     OW19360   1.591   2.922   1.092  0.2801 -0.3991 -0.2677
 2434SOL    HW119361   1.584   2.891   0.997  0.6397  0.0942 -0.4586
 2434SOL    HW219362   1.569   2.846   1.154 -0.7594 -0.5008 -0.7503
 2435SOL     OW19363   6.120   3.047   8.559  0.0764  0.1259  0.5443
 2435SOL    HW119364   6.141   3.142   8.538  0.0290  0.0287  0.0600
 2435SOL    HW219365   6.138   3.030   8.656  0.5488  0.5014  0.5257
 2436SOL     OW19366   2.669   5.111   8.955  0.4174 -0.0234  0.4002
 2436SOL    HW119367   2.742   5.087   8.892  0.3837 -0.0749  0.3789
 2436SOL    HW219368   2.599   5.164   8.907  0.1355 -0.5130  0.2641
 2437SOL     OW19369   6.463   3.293   0.888  0.0557 -0.2001 -0.3622
 2437SOL    HW119370   6.381   3.350   0.892  0.8244  0.8171  2.1735
 2437SOL    HW219371   6.439   3.202   0.856 -1.8112  0.5060 -1.0276
 2438SOL     OW19372   1.064   7.777   9.879 -0.1200 -0.1124 -0.0557
 2438SOL    HW119373   1.147   7.751   9.928 -0.5064 -0.4981  0.4179
 2438SOL    HW219374   1.029   7.863   9.915 -0.2871 -0.2882  0.2095
 2439SOL     OW19375   0.064   1.371   7.009  0.1301 -0.3212 -0.0010
 2439SOL    HW119376   0.074   1.396   6.913  2.2936  0.5794  0.4286
 2439SOL    HW219377  -0.002   1.432   7.053  2.6813  2.4636  0.1734
 2440SOL     OW19378   7.449   5.357   4.151  0.0700  0.0715 -0.0181
 2440SOL    HW119379   7.466   5.291   4.078  3.9503 -1.4171  2.1180
 2440SOL    HW219380   7.394   5.314   4.222 -0.1995  0.2002 -0.1481
 2441SOL     OW19381   1.069   0.741   9.318 -0.3276 -0.2784 -0.1680
 2441SOL    HW119382   1.019   0.769   9.400  2.2427  0.6023  1.1703
 2441SOL    HW219383   1.129   0.816   9.289 -0.3109 -1.0363 -2.1329
 2442SOL     OW19384   0.932   4.014   0.251 -0.2308 -0.1891  0.0127
 2442SOL    HW119385   0.959   4.036   0.157  0.8642  1.8092  0.7763
 2442SOL    HW219386   0.995   3.945   0.289  0.9576  0.9774  0.1828
 2443SOL     OW19387   1.105   0.600   7.951 -0.3304 -0.2527 -0.0930
 2443SOL    HW119388   1.137   0.510   7.922 -0.5337  0.2031 -1.7930
 2443SOL    HW219389   1.051   0.591   8.035 -0.5395 -1.7417 -0.3721
 2444SOL     OW19390   1.993   2.308   1.727  0.8683 -0.1623 -0.0525
 2444SOL    HW119391   1.951   2.364   1.656  1.5386 -0.6484 -0.8284
 2444SOL    HW219392   2.083   2.276   1.697  1.3036 -0.0884  1.1463
 2445SOL     OW19393   3.385   5.473   8.691 -0.1240 -0.5380  0.4121
 2445SOL    HW119394   3.397   5.374   8.693  1.4449 -0.3563  1.5764
 2445SOL    HW219395   3.323   5.501   8.765  1.7254 -0.4049  1.9466
 2446SOL     OW19396   3.243   2.358   0.684 -0.3453 -0.8771 -0.5022
 2446SOL    HW119397   3.284   2.399   0.766  1.2937 -0.2409 -1.6196
 2446SOL    HW219398   3.144   2.366   0.689 -0.2174 -0.0034  0.9897
 2447SOL     OW19399   3.809   5.939   0.022  0.6442  0.2015  0.3783
 2447SOL    HW119400   3.791   5.965  -0.073  2.2512  0.6438  0.1838
 2447SOL    HW219401   3.839   6.019   0.074 -0.3502 -0.0109  1.3012
 2448SOL     OW19402   9.059   0.597   0.539  0.0216 -0.3091  0.1189
 2448SOL    HW119403   9.024   0.688   0.517  0.1677 -0.4243 -0.5856
 2448SOL    HW219404   9.046   0.536   0.461  2.3682 -0.1837 -0.4291
 2449SOL     OW19405   8.632   2.852   1.419  0.6978 -0.0991 -0.1004
 2449SOL    HW119406   8.570   2.925   1.391  1.3575  0.9893  1.2239
 2449SOL    HW219407   8.597   2.808   1.502  1.4607  0.2098  0.3853
 2450SOL     OW19408   1.302   7.730   6.343 -0.4924  0.2127  0.0914
 2450SOL    HW119409   1.277   7.805   6.281 -1.5943  0.2646  0.5689
 2450SOL    HW219410   1.321   7.647   6.290  2.7653  1.3376 -0.5813
 2451SOL     OW19411   9.876   0.343   9.248 -0.1811 -0.2244 -0.0816
 2451SOL    HW119412   9.779   0.317   9.255  0.0038 -0.6302  1.3109
 2451SOL    HW219413   9.932   0.273   9.293  0.7100  0.3069 -0.3512
 2452SOL     OW19414   9.626   5.899   9.009  0.7802  0.5633  0.0620
 2452SOL    HW119415   9.706   5.928   8.957 -0.1146  2.2107 -0.4333
 2452SOL    HW219416   9.623   5.949   9.096  0.9559 -0.4199  0.6471
 2453SOL     OW19417   0.420   7.536   6.329  0.2224 -0.2919 -0.7149
 2453SOL    HW119418   0.513   7.532   6.292  0.4670 -1.6139  0.0081
 2453SOL    HW219419   0.369   7.456   6.299  0.1227 -0.8930  0.9918
 2454SOL     OW19420   9.101   1.406   6.501  0.2286 -0.4442 -0.2013
 2454SOL    HW119421   9.040   1.485   6.505  0.5334 -0.1950 -0.4691
 2454SOL    HW219422   9.098   1.357   6.589  0.0857 -0.1015 -0.0156
 2455SOL     OW19423   0.923   2.391   6.992  0.2538  0.1275  0.5477
 2455SOL    HW119424   0.940   2.294   6.972 -1.1293  0.2055 -1.1002
 2455SOL    HW219425   0.854   2.398   7.064  0.3389 -0.1233  0.6540
 2456SOL     OW19426   0.600   2.673   9.898 -1.3858 -0.1631 -0.1493
 2456SOL    HW119427   0.583   2.770   9.910  0.0675  0.0288  0.5380
 2456SOL    HW219428   0.587   2.626   9.986  0.4038 -0.1772  0.1279
 2457SOL     OW19429   6.758   4.370   1.491  0.7020  0.2850  0.2823
 2457SOL    HW119430   6.796   4.361   1.583 -1.2001  0.0704  1.0689
 2457SOL    HW219431   6.699   4.450   1.487  1.5913  0.9000 -1.0700
 2458SOL     OW19432   4.749   2.834   5.767  0.1668  0.5012  0.1955
 2458SOL    HW119433   4.730   2.867   5.675 -0.2907 -1.0810 -0.2954
 2458SOL    HW219434   4.848   2.821   5.778  0.0496 -1.4811 -0.8627
 2459SOL     OW19435   4.100   3.147   6.825 -0.6575  0.2884 -0.3260
 2459SOL    HW119436   4.152   3.068   6.857 -0.5101  1.2714  1.9797
 2459SOL    HW219437   4.131   3.229   6.872  0.0290  1.9689 -3.5956
 2460SOL     OW19438   9.165   3.032   8.778 -0.3004 -0.1448 -0.0401
 2460SOL    HW119439   9.106   3.009   8.855  0.0478  1.7865  0.8318
 2460SOL    HW219440   9.114   3.024   8.692 -0.9578 -1.3795  0.4588
 2461SOL     OW19441   6.701   2.802   5.364  0.1046 -0.3313 -0.2061
 2461SOL    HW119442   6.709   2.842   5.455  0.9455 -0.1424 -0.3550
 2461SOL    HW219443   6.632   2.851   5.311 -1.8559 -1.7120  0.9905
 2462SOL     OW19444   6.353   3.101   8.216  0.4434  0.5747  0.3277
 2462SOL    HW119445   6.283   3.042   8.256  0.2428  1.6451  1.6242
 2462SOL    HW219446   6.420   3.124   8.287  1.8488 -0.0639 -0.7889
 2463SOL     OW19447   1.047   2.011   9.882  0.5193  0.0324 -0.2743
 2463SOL    HW119448   0.949   2.003   9.904  0.7240  0.2340  0.7434
 2463SOL    HW219449   1.091   1.922   9.895  0.3950 -0.1470 -1.0984
 2464SOL     OW19450   9.864   9.631   0.006  0.4821  0.2698  0.9221
 2464SOL    HW119451   9.903   9.605  -0.083 -0.4314  1.7734  0.0486
 2464SOL    HW219452   9.936   9.630   0.075  0.9518 -2.1612  0.4511
 2465SOL     OW19453   9.892   8.399   6.555  0.1173 -0.3300  0.1136
 2465SOL    HW119454   9.954   8.412   6.632  1.5519  1.3909 -1.2748
 2465SOL    HW219455   9.942   8.409   6.469 -1.6436 -1.2033 -1.0613
 2466SOL     OW19456   5.769   7.075   3.100  0.3619 -0.1956  0.2062
 2466SOL    HW119457   5.699   7.023   3.050  1.4768 -1.6417  0.1151
 2466SOL    HW219458   5.743   7.171   3.102 -2.7417 -0.9804  2.0441
 2467SOL     OW19459   3.003   0.966   2.483  0.2347  0.2242  0.0175
 2467SOL    HW119460   3.026   0.950   2.579 -0.3893 -1.7831 -0.1490
 2467SOL    HW219461   3.071   1.028   2.443 -0.0350  1.8416  1.9754
 2468SOL     OW19462   3.040   0.551   6.720 -0.2333  0.7370  0.5741
 2468SOL    HW119463   3.104   0.484   6.684  0.0420  1.4897 -0.3407
 2468SOL    HW219464   2.968   0.504   6.772 -0.9495 -0.4098 -1.4208
 2469SOL     OW19465   8.731   3.935   7.422  0.1311  0.4477  0.1241
 2469SOL    HW119466   8.810   3.885   7.458 -0.6321 -0.2748  0.8493
 2469SOL    HW219467   8.647   3.891   7.454 -0.5750  0.6840 -1.3374
 2470SOL     OW19468   1.271   9.652   0.154 -0.5790 -0.4502 -0.1818
 2470SOL    HW119469   1.194   9.636   0.216  0.1940  0.8433  1.1364
 2470SOL    HW219470   1.293   9.567   0.106 -0.1321 -1.9178  2.5235
 2471SOL     OW19471   7.233   2.881   7.210 -0.4953 -0.1725  0.0207
 2471SOL    HW119472   7.310   2.871   7.147  1.1987  2.7263  1.5322
 2471SOL    HW219473   7.162   2.936   7.167  0.5229  1.5316  0.4759
 2472SOL     OW19474   0.795   7.495   0.508  0.1505  0.1513 -0.1610
 2472SOL    HW119475   0.769   7.439   0.430  1.1412 -2.5508  1.3560
 2472SOL    HW219476   0.829   7.436   0.582  1.8814  2.8096  1.2800
 2473SOL     OW19477   6.841   4.862   0.620 -0.6462 -0.6407  0.0405
 2473SOL    HW119478   6.903   4.797   0.576 -0.1838 -0.5765  0.5978
 2473SOL    HW219479   6.763   4.814   0.659 -1.4478 -0.6263 -1.4977
 2474SOL     OW19480   4.070   4.327   9.625 -0.6389  0.3027 -0.1486
 2474SOL    HW119481   4.131   4.381   9.567 -0.6093  1.3486  0.8504
 2474SOL    HW219482   3.997   4.288   9.569 -0.5745  1.2423 -0.9016
 2475SOL     OW19483   1.454   4.242   2.447 -0.5490  0.1850 -0.3752
 2475SOL    HW119484   1.388   4.317   2.442  1.3687  1.8623 -0.7350
 2475SOL    HW219485   1.435   4.177   2.373 -1.4765  0.9112 -0.7865
 2476SOL     OW19486   1.213   3.959   4.094  0.7375 -0.3245  0.1215
 2476SOL    HW119487   1.260   3.943   4.007 -0.5207 -0.3824 -0.5554
 2476SOL    HW219488   1.204   4.057   4.108  0.0572 -0.3220 -0.3029
 2477SOL     OW19489   1.376   3.777   8.224  0.3045  0.3453 -0.6271
 2477SOL    HW119490   1.347   3.836   8.149 -0.1756 -1.7910 -2.1646
 2477SOL    HW219491   1.296   3.749   8.277  0.3281 -0.2627 -0.9092
 2478SOL     OW19492   2.928   4.611   1.231 -0.1749  0.0718 -0.1453
 2478SOL    HW119493   2.886   4.619   1.141 -2.0167 -2.1242  0.4794
 2478SOL    HW219494   3.019   4.570   1.222  0.3293  1.3849 -1.1474
 2479SOL     OW19495   9.631   9.330   8.687  0.2609  0.0588  0.3044
 2479SOL    HW119496   9.686   9.248   8.705  2.0948  1.0709 -0.6596
 2479SOL    HW219497   9.689   9.411   8.692 -0.9435  1.0685 -1.6828
 2480SOL     OW19498   4.882   0.227   6.406  0.2411  0.4341 -0.5234
 2480SOL    HW119499   4.785   0.246   6.421  0.3610 -0.3218  1.2538
 2480SOL    HW219500   4.918   0.292   6.339 -1.2319  1.4023 -0.4041
 2481SOL     OW19501   1.657   9.990   9.693 -0.2336  0.1685  0.0289
 2481SOL    HW119502   1.676   9.893   9.676 -2.8647 -0.0304 -2.2080
 2481SOL    HW219503   1.605   9.999   9.778 -1.9748 -0.6948 -0.8937
 2482SOL     OW19504   3.749   3.386   9.379  0.2173 -0.0580  0.1705
 2482SOL    HW119505   3.725   3.453   9.449 -0.2304  0.1215 -0.1547
 2482SOL    HW219506   3.691   3.398   9.299  1.6706  0.6675 -0.8026
 2483SOL     OW19507   5.670   4.860   0.730 -0.1295 -0.3642 -0.2837
 2483SOL    HW119508   5.572   4.855   0.710 -0.4124  1.1042  0.6168
 2483SOL    HW219509   5.683   4.879   0.827  1.0904 -1.8617 -0.1333
 2484SOL     OW19510   1.742   9.955   7.039 -1.1950  0.4641 -0.4968
 2484SOL    HW119511   1.778   9.913   6.956 -0.0351 -2.4249  1.3847
 2484SOL    HW219512   1.806  10.025   7.072  0.0680 -0.8044 -0.1881
 2485SOL     OW19513   7.688   3.016   9.230  0.0472 -0.0859  0.3208
 2485SOL    HW119514   7.730   3.097   9.270 -0.8545  0.2461  0.5971
 2485SOL    HW219515   7.748   2.979   9.159  0.1273  1.2476 -0.3184
 2486SOL     OW19516   5.271   3.698   8.557  0.4284 -0.2899  0.7141
 2486SOL    HW119517   5.367   3.686   8.584  0.9412 -0.2351 -1.0378
 2486SOL    HW219518   5.262   3.686   8.459 -1.2619  0.3982  0.7616
 2487SOL     OW19519   9.780   8.030   0.213 -0.0935 -0.7372  0.3711
 2487SOL    HW119520   9.801   7.959   0.281  0.3433  0.7584  1.8356
 2487SOL    HW219521   9.744   8.111   0.260 -2.2854 -0.6159 -1.4418
 2488SOL     OW19522   4.680   1.424   1.556  0.1049  0.3419  0.6656
 2488SOL    HW119523   4.679   1.358   1.481  1.4035  1.3108 -0.2323
 2488SOL    HW219524   4.587   1.454   1.575 -0.1094  1.2998 -1.6862
 2489SOL     OW19525   1.529   0.720   3.953  0.6194 -0.3374  0.4397
 2489SOL    HW119526   1.580   0.716   3.868 -1.5465  0.3581 -0.9394
 2489SOL    HW219527   1.507   0.627   3.983 -0.1636 -0.5374 -0.7363
 2490SOL     OW19528   5.159   5.577   7.260  0.1660 -0.1490  0.3424
 2490SOL    HW119529   5.162   5.483   7.226  0.4361 -0.4920  1.3126
 2490SOL    HW219530   5.248   5.621   7.241 -0.0066 -0.0351 -0.2334
 2491SOL     OW19531   3.844   3.822   2.624 -0.1657  0.4251 -0.0848
 2491SOL    HW119532   3.785   3.745   2.602  1.7277 -1.6877  1.8739
 2491SOL    HW219533   3.936   3.788   2.645  0.6419  3.1908  1.0861
 2492SOL     OW19534   0.715   4.211   6.660  0.6264  0.2240 -0.3145
 2492SOL    HW119535   0.632   4.176   6.702  0.3895  0.3558 -0.6728
 2492SOL    HW219536   0.703   4.308   6.637  0.9984  0.3343 -0.0567
 2493SOL     OW19537   5.798   4.835   8.368 -0.0461  0.5570  0.4151
 2493SOL    HW119538   5.897   4.826   8.374  0.1281 -1.0485 -3.5035
 2493SOL    HW219539   5.774   4.909   8.306 -1.2637 -0.5375 -0.4621
 2494SOL     OW19540   1.984   2.235   2.373  0.3797 -0.4351 -0.0494
 2494SOL    HW119541   1.935   2.161   2.327 -0.5996 -0.5236  1.1235
 2494SOL    HW219542   2.016   2.204   2.462  1.1352  0.1437 -0.1120
 2495SOL     OW19543   3.393   4.217   9.391  0.5023 -0.0787 -0.3682
 2495SOL    HW119544   3.394   4.317   9.387  0.6568 -0.1068 -1.1138
 2495SOL    HW219545   3.467   4.186   9.451  0.3751  0.2569 -0.0341
 2496SOL     OW19546   2.237   3.893   1.593 -0.2956 -0.7529  0.4042
 2496SOL    HW119547   2.247   3.947   1.510 -0.2523 -1.4678 -0.0669
 2496SOL    HW219548   2.301   3.815   1.589  1.6799  0.7019  2.3272
 2497SOL     OW19549   0.124   1.045   5.053 -0.0177 -0.1014  0.1397
 2497SOL    HW119550   0.044   0.987   5.035  0.2797 -0.2391 -0.7592
 2497SOL    HW219551   0.126   1.121   4.988 -0.6974  1.2444  1.6397
 2498SOL     OW19552   0.368   2.862   9.851 -0.0248  0.6092  0.4490
 2498SOL    HW119553   0.288   2.803   9.864 -0.4400  1.1817  0.5585
 2498SOL    HW219554   0.360   2.911   9.764  1.6798 -1.5637 -0.9749
 2499SOL     OW19555   9.124   8.031   8.198  0.4655 -0.1593 -0.4877
 2499SOL    HW119556   9.026   8.010   8.191  0.3515  0.3565 -0.5114
 2499SOL    HW219557   9.173   7.986   8.123  0.2153 -0.2505 -0.5996
 2500SOL     OW19558   9.578   3.936   7.599 -0.0476  0.1306  0.0160
 2500SOL    HW119559   9.675   3.943   7.619  0.0996  0.1091 -0.6736
 2500SOL    HW219560   9.558   3.983   7.513 -0.4820 -0.7158 -0.3481
 2501SOL     OW19561   2.035   6.589   8.086 -0.3269  0.1718  0.0857
 2501SOL    HW119562   1.945   6.550   8.108 -0.0310 -0.6140 -0.0843
 2501SOL    HW219563   2.024   6.683   8.055 -0.9395  0.6695  1.7676
 2502SOL     OW19564   7.979   3.203   8.339  0.4687 -0.4309 -0.0610
 2502SOL    HW119565   7.995   3.281   8.399 -0.3172 -0.1924 -0.1515
 2502SOL    HW219566   7.919   3.137   8.384 -0.9944  0.2540 -0.9897
 2503SOL     OW19567   5.069   4.510   0.853  0.2888 -0.2158 -0.4105
 2503SOL    HW119568   5.090   4.553   0.941  2.8632 -0.5557 -0.8260
 2503SOL    HW219569   5.146   4.522   0.791 -1.1287 -0.8160 -2.3166
 2504SOL     OW19570   3.796   1.226   7.752 -0.5790 -0.2154  0.8412
 2504SOL    HW119571   3.886   1.267   7.767 -0.4202 -0.6941  1.2027
 2504SOL    HW219572   3.759   1.194   7.839 -0.4124 -1.4269  0.4695
 2505SOL     OW19573   1.570   1.932   8.555  0.0835 -0.5291  0.3223
 2505SOL    HW119574   1.565   1.960   8.459  1.8670 -1.7999 -0.1638
 2505SOL    HW219575   1.664   1.910   8.578 -0.4927 -1.1793  2.1224
 2506SOL     OW19576   4.997   5.437   1.304 -0.1879  0.3399  0.0770
 2506SOL    HW119577   5.037   5.376   1.373 -0.1871 -0.2486 -0.4413
 2506SOL    HW219578   4.902   5.457   1.329 -0.2997 -0.1624  0.0603
 2507SOL     OW19579   3.725   3.923   0.449 -0.0097  0.6198 -0.5063
 2507SOL    HW119580   3.731   3.845   0.387 -0.0505 -0.4605  0.8305
 2507SOL    HW219581   3.793   3.992   0.422 -1.5969  1.2197 -3.1595
 2508SOL     OW19582   2.393   2.188   1.748  0.1778  0.1424 -0.3386
 2508SOL    HW119583   2.385   2.183   1.847 -1.1454 -0.0329 -0.4447
 2508SOL    HW219584   2.489   2.202   1.723  0.5792 -0.2273  0.9428
 2509SOL     OW19585   5.801   1.801   1.489 -0.5757  0.0026 -0.2694
 2509SOL    HW119586   5.769   1.789   1.583  0.1003  0.0544 -0.0301
 2509SOL    HW219587   5.881   1.744   1.473 -0.4450  0.2987 -0.6878
 2510SOL     OW19588   0.217   2.164   1.770  1.0248  0.3909 -0.0270
 2510SOL    HW119589   0.299   2.148   1.826  0.5493  0.1415  0.5931
 2510SOL    HW219590   0.136   2.133   1.819  0.5366  0.7807 -0.5819
 2511SOL     OW19591   2.009   1.985   1.449  0.2436 -0.7497 -0.1395
 2511SOL    HW119592   1.980   2.039   1.371 -0.3170 -0.0820  0.5193
 2511SOL    HW219593   2.094   2.024   1.487  0.2403 -0.7681 -0.1129
 2512SOL     OW19594   0.200   3.496   9.849  0.3303  0.0436  0.5795
 2512SOL    HW119595   0.295   3.474   9.873  0.2214 -2.4980 -1.1471
 2512SOL    HW219596   0.140   3.471   9.926  0.9466  0.9253  1.3622
 2513SOL     OW19597   2.692   2.039   4.740 -0.4640 -0.1106  0.5045
 2513SOL    HW119598   2.709   2.074   4.832  0.0416 -0.5206  0.5748
 2513SOL    HW219599   2.660   2.113   4.680  2.9196  1.0480  0.0093
 2514SOL     OW19600   5.102   4.471   8.427  0.0190 -0.0661  0.3501
 2514SOL    HW119601   5.200   4.455   8.417  0.0248  0.6237 -0.7265
 2514SOL    HW219602   5.067   4.417   8.504  1.3329  0.0820  1.0584
 2515SOL     OW19603   0.689   1.903   1.437 -0.3766 -0.1514 -0.0147
 2515SOL    HW119604   0.664   1.935   1.346 -0.6147 -1.3838 -0.3861
 2515SOL    HW219605   0.701   1.804   1.436  2.4294  0.1614  0.6664
 2516SOL     OW19606   9.633   5.237   4.984 -0.2553 -0.3974  0.4825
 2516SOL    HW119607   9.566   5.231   5.058  0.0881 -2.2993  0.6720
 2516SOL    HW219608   9.600   5.301   4.915 -0.9517  0.8116  1.8821
 2517SOL     OW19609   3.814   6.081   8.275  0.1121  0.7330 -0.2170
 2517SOL    HW119610   3.838   6.005   8.335 -0.0177  0.7349 -0.1601
 2517SOL    HW219611   3.729   6.059   8.227  0.3963  0.5901 -0.6559
 2518SOL     OW19612   8.459   9.970   8.568 -0.1829 -0.4834 -0.1112
 2518SOL    HW119613   8.457   9.932   8.475  0.8203 -0.9884  0.0698
 2518SOL    HW219614   8.530  10.039   8.574 -1.3555  0.7554 -0.1656
 2519SOL     OW19615   9.138   1.804   8.942  0.4290 -0.5684  0.6586
 2519SOL    HW119616   9.151   1.829   8.846 -0.7953 -1.5409  0.2302
 2519SOL    HW219617   9.152   1.706   8.954 -1.6026 -0.8155  1.0717
 2520SOL     OW19618   9.739   3.780   0.058  0.2071 -0.3949  0.9407
 2520SOL    HW119619   9.691   3.707   0.106  0.9341  1.2291  4.3652
 2520SOL    HW219620   9.673   3.839   0.012 -0.5722 -1.6675  0.4085
 2521SOL     OW19621   8.833   4.399   2.268 -0.1285 -0.4045 -0.3286
 2521SOL    HW119622   8.758   4.459   2.240  0.9331  0.9859 -0.2377
 2521SOL    HW219623   8.796   4.311   2.298 -1.7194  0.2787 -0.2603
 2522SOL     OW19624   9.781   3.011   5.118  0.1341 -0.4630  0.0759
 2522SOL    HW119625   9.730   2.976   5.196  0.6372 -1.0962  0.1231
 2522SOL    HW219626   9.734   2.986   5.033  0.9562 -2.0550  0.0677
 2523SOL     OW19627   3.497   5.628   1.477 -0.7365  0.0021  0.6663
 2523SOL    HW119628   3.453   5.708   1.436 -1.3174  0.8703  2.9391
 2523SOL    HW219629   3.574   5.600   1.419 -1.5146  1.1852 -0.9985
 2524SOL     OW19630   7.913   4.256   7.880  0.4375  0.2655  0.9636
 2524SOL    HW119631   7.922   4.333   7.816  0.7667  0.5943  1.4053
 2524SOL    HW219632   7.986   4.259   7.947  0.7392 -0.7276  0.6894
 2525SOL     OW19633   0.884   0.928   2.504 -0.2748  0.3028  0.4031
 2525SOL    HW119634   0.808   0.934   2.439  0.0892  0.4825 -0.0086
 2525SOL    HW219635   0.882   1.008   2.565 -0.4507  0.2768  0.4311
 2526SOL     OW19636   8.920   5.925   8.113 -0.4099  0.4535 -0.1604
 2526SOL    HW119637   8.914   5.828   8.137 -0.7644  0.0641 -1.7484
 2526SOL    HW219638   9.008   5.961   8.143 -0.1245 -0.4648  0.1230
 2527SOL     OW19639   1.703   5.744   9.073 -0.4303  0.2326  0.3920
 2527SOL    HW119640   1.691   5.649   9.102  0.9955  0.4549  1.7800
 2527SOL    HW219641   1.724   5.746   8.975 -1.8814 -0.7684  0.0389
 2528SOL     OW19642   9.529   0.875   5.775  0.3283  0.9580 -0.7642
 2528SOL    HW119643   9.554   0.949   5.837 -0.6498  0.3234  0.4090
 2528SOL    HW219644   9.478   0.911   5.697 -1.7555  1.2971  0.7342
 2529SOL     OW19645   6.940   2.093   7.877 -0.0511  0.7247 -0.4782
 2529SOL    HW119646   6.841   2.103   7.889 -0.0297 -0.8887  1.2935
 2529SOL    HW219647   6.959   2.060   7.785 -1.1975  0.7192 -0.7206
 2530SOL     OW19648   1.286   6.914   0.240 -0.0175  0.4224 -0.2089
 2530SOL    HW119649   1.337   6.829   0.229  0.2313  0.5819 -0.2881
 2530SOL    HW219650   1.251   6.944   0.152 -0.2894  0.2873 -0.1471
 2531SOL     OW19651   4.685   4.868   3.241  0.2146  0.0249  0.3731
 2531SOL    HW119652   4.665   4.945   3.180  0.6494 -0.0553  0.1280
 2531SOL    HW219653   4.630   4.789   3.213  0.1127  0.1085  0.3350
 2532SOL     OW19654   2.163   1.485   1.288 -0.0641 -0.5169 -0.0960
 2532SOL    HW119655   2.153   1.385   1.279 -0.0834 -0.5822  0.6000
 2532SOL    HW219656   2.077   1.529   1.263 -0.3730 -0.7407  0.5504
 2533SOL     OW19657   4.525   9.103   6.828 -0.0932 -0.4940  0.1565
 2533SOL    HW119658   4.456   9.068   6.764  0.5998 -0.4735 -0.6105
 2533SOL    HW219659   4.601   9.039   6.834  1.5520  1.1960 -1.8557
 2534SOL     OW19660   2.124   9.770   5.330 -0.4708  0.5516 -0.0330
 2534SOL    HW119661   2.102   9.787   5.234 -1.4690  0.8932  0.2430
 2534SOL    HW219662   2.186   9.692   5.338  0.5128  1.2279 -1.0233
 2535SOL     OW19663   8.258   0.995   5.949 -0.0653  0.5893  0.3898
 2535SOL    HW119664   8.167   0.965   5.920 -0.0665 -0.2791  1.2678
 2535SOL    HW219665   8.261   1.000   6.049  0.7387  0.9659  0.3453
 2536SOL     OW19666   1.226   6.651   1.954  0.3468 -0.0762 -0.5389
 2536SOL    HW119667   1.207   6.645   1.856  0.1308 -0.7782 -0.4560
 2536SOL    HW219668   1.201   6.565   1.998 -0.6859  0.6552  0.3267
 2537SOL     OW19669   6.014   8.128   1.666  0.4628  0.2680  0.3070
 2537SOL    HW119670   6.100   8.164   1.704 -0.6673  3.6423 -0.1145
 2537SOL    HW219671   5.946   8.119   1.739  0.6479 -0.7742  0.3576
 2538SOL     OW19672   4.469   3.848   2.451 -0.2048 -0.0119  0.3873
 2538SOL    HW119673   4.510   3.762   2.421 -1.0445 -0.3252  0.1017
 2538SOL    HW219674   4.522   3.925   2.416  1.2374 -0.4107  1.6335
 2539SOL     OW19675   9.488   0.115   7.056  0.4374 -0.3430 -0.1824
 2539SOL    HW119676   9.405   0.060   7.064 -0.0190  0.3038 -0.4902
 2539SOL    HW219677   9.513   0.124   6.959  1.4923 -1.4596 -0.0395
 2540SOL     OW19678   9.402   6.070   8.945 -0.7345 -0.0891  0.2088
 2540SOL    HW119679   9.434   6.102   8.856  0.5937  0.9949  1.0649
 2540SOL    HW219680   9.454   5.988   8.972  0.5335  0.9583  1.0394
 2541SOL     OW19681   0.277   3.954   1.956  0.1867 -0.3154  0.5010
 2541SOL    HW119682   0.355   4.015   1.945  0.6490 -0.9307  0.3569
 2541SOL    HW219683   0.217   3.989   2.028 -0.1520  0.9290 -0.3730
 2542SOL     OW19684   2.542   1.039   5.502 -0.2689  0.5045  0.4534
 2542SOL    HW119685   2.525   1.054   5.405  1.5613  1.1813  0.2149
 2542SOL    HW219686   2.585   1.120   5.542  0.0132 -0.1751  1.5638
 2543SOL     OW19687   6.535   9.654   4.045 -0.1989  0.0261 -0.2572
 2543SOL    HW119688   6.468   9.584   4.070 -0.7245  0.8947  0.7887
 2543SOL    HW219689   6.578   9.630   3.958  0.1646 -1.9796  0.4592
 2544SOL     OW19690   0.395   5.312   9.805  0.0354 -0.1073 -0.3399
 2544SOL    HW119691   0.469   5.259   9.763  1.2887  0.6847  0.7965
 2544SOL    HW219692   0.415   5.410   9.796 -0.3083  0.0912  0.9389
 2545SOL     OW19693   1.262   2.761   0.137 -0.7180  0.1440  0.2324
 2545SOL    HW119694   1.218   2.688   0.085 -2.7031  0.7158  1.0639
 2545SOL    HW219695   1.226   2.762   0.230  0.4176  1.2261  0.6749
 2546SOL     OW19696   4.039   5.876   7.120 -0.2845 -0.5165  0.1853
 2546SOL    HW119697   4.081   5.798   7.167 -0.0340 -0.7231 -0.3764
 2546SOL    HW219698   4.090   5.895   7.036 -1.6582 -1.1299 -0.7894
 2547SOL     OW19699   3.073   5.708   6.218  0.1995 -0.2448  0.0041
 2547SOL    HW119700   3.136   5.681   6.146 -1.8373 -1.4751 -1.3807
 2547SOL    HW219701   3.005   5.772   6.181  1.3040  2.0015  1.7529
 2548SOL     OW19702   3.158   3.169   5.737  0.3059  0.1480 -0.4496
 2548SOL    HW119703   3.250   3.194   5.766  1.1544 -0.0573 -2.8623
 2548SOL    HW219704   3.128   3.087   5.787  1.4681  0.1647  0.2866
 2549SOL     OW19705   3.524   7.990   2.981  0.5501  0.2136 -0.3644
 2549SOL    HW119706   3.586   7.994   2.903  0.3886  1.3480 -0.4362
 2549SOL    HW219707   3.466   7.909   2.973  2.4554 -1.2378  0.0463
 2550SOL     OW19708   2.604   5.111   9.839 -0.2724  0.6167  0.4313
 2550SOL    HW119709   2.703   5.122   9.841 -0.0728 -1.0972  1.1373
 2550SOL    HW219710   2.571   5.084   9.930 -0.9199 -2.2692 -0.5898
 2551SOL     OW19711   7.940   6.679   2.591  0.6249  0.8072  0.3059
 2551SOL    HW119712   7.874   6.618   2.636  2.1984 -1.0342  0.1768
 2551SOL    HW219713   7.894   6.729   2.517 -0.3664 -1.4001 -0.6131
 2552SOL     OW19714   1.843   9.309   9.779  0.5197 -0.1626 -0.1679
 2552SOL    HW119715   1.805   9.217   9.775  3.9382 -1.7969  2.4396
 2552SOL    HW219716   1.942   9.306   9.767  0.5933  3.3229 -1.1324
 2553SOL     OW19717   1.208   0.998   2.280  0.2265 -0.2749 -0.1050
 2553SOL    HW119718   1.165   0.989   2.370  1.4572  0.6764  0.5917
 2553SOL    HW219719   1.151   1.055   2.221  0.4149  0.8040  0.7395
 2554SOL     OW19720   1.423   4.418   3.837 -0.4035 -0.1483 -0.6451
 2554SOL    HW119721   1.494   4.475   3.796  3.7864 -2.0776  3.5025
 2554SOL    HW219722   1.446   4.322   3.823 -0.4421 -0.8252  3.3333
 2555SOL     OW19723   5.443   6.029   0.702  0.0646 -0.1492  0.4731
 2555SOL    HW119724   5.431   5.976   0.618  1.2950  1.8412 -1.0060
 2555SOL    HW219725   5.541   6.033   0.725 -0.0084  1.4531  0.5547
 2556SOL     OW19726   6.734   3.986   9.813 -0.1205  0.1908 -0.1148
 2556SOL    HW119727   6.636   3.967   9.806  0.2905 -1.8983 -0.4775
 2556SOL    HW219728   6.774   3.929   9.885  0.9670  0.5355 -0.4305
 2557SOL     OW19729   6.751   3.329   8.140 -0.8917 -0.4638  0.0888
 2557SOL    HW119730   6.844   3.313   8.172 -0.4640 -0.3032 -1.0419
 2557SOL    HW219731   6.734   3.276   8.057 -1.0149  1.2497 -1.0255
 2558SOL     OW19732   1.543   6.110   5.585 -0.0370 -0.5798  0.2891
 2558SOL    HW119733   1.471   6.110   5.516  0.8268  0.4488 -0.6351
 2558SOL    HW219734   1.622   6.058   5.551  1.2257  1.7467 -0.4174
 2559SOL     OW19735   3.410   1.586   5.053  0.1962  0.0140 -0.2784
 2559SOL    HW119736   3.508   1.603   5.065  0.5750 -1.6568 -0.8354
 2559SOL    HW219737   3.390   1.491   5.077 -0.7246 -0.6025 -3.2624
 2560SOL     OW19738   7.020   2.671   6.836  0.6988  0.2682 -0.2710
 2560SOL    HW119739   6.936   2.703   6.792  1.6414  1.1779 -1.4562
 2560SOL    HW219740   7.012   2.573   6.855 -0.8833  0.4778  0.2544
 2561SOL     OW19741   9.190   3.669   9.207  0.5266 -0.3533  0.0607
 2561SOL    HW119742   9.098   3.686   9.174  0.2204 -0.1062  1.0275
 2561SOL    HW219743   9.250   3.744   9.181 -0.1265  0.7455  1.6334
 2562SOL     OW19744   1.947   3.078   3.222 -0.6435 -0.2284 -0.2696
 2562SOL    HW119745   1.938   2.989   3.178 -0.1773 -0.9862  1.1185
 2562SOL    HW219746   2.035   3.119   3.197 -0.0037 -1.0402  0.6017
 2563SOL     OW19747   6.242   0.545   6.894 -0.4555  0.2186  0.0738
 2563SOL    HW119748   6.152   0.588   6.897 -0.1675  1.0510 -2.0205
 2563SOL    HW219749   6.310   0.606   6.935 -0.7155 -0.0683  0.9329
 2564SOL     OW19750   3.770   4.627   1.617 -0.0447 -0.0561  0.1858
 2564SOL    HW119751   3.706   4.551   1.627  1.0371 -0.9817  0.1951
 2564SOL    HW219752   3.862   4.597   1.644  0.0572  1.7904  2.0267
 2565SOL     OW19753   0.357   7.027   8.881 -0.1992 -0.3241  0.0974
 2565SOL    HW119754   0.271   6.985   8.851  0.4465 -1.8507  0.3079
 2565SOL    HW219755   0.407   7.060   8.801 -0.9562  0.5299 -0.0289
 2566SOL     OW19756   6.011   4.792   9.932  0.0962 -0.3752  0.4412
 2566SOL    HW119757   5.987   4.712   9.878 -0.1529  0.2125 -0.3349
 2566SOL    HW219758   6.109   4.807   9.928  0.2013 -0.9071  0.9677
 2567SOL     OW19759   0.724   8.619   7.894  0.4203  0.4108  0.2368
 2567SOL    HW119760   0.788   8.695   7.906 -1.0008  2.0324 -1.8371
 2567SOL    HW219761   0.721   8.593   7.797 -0.2889 -1.2417  0.6826
 2568SOL     OW19762   3.066   3.250   0.272 -0.0009  0.8109  0.4949
 2568SOL    HW119763   3.105   3.189   0.203 -1.7637  0.8552 -0.5785
 2568SOL    HW219764   3.125   3.329   0.285  0.7153  0.4373 -0.4451
 2569SOL     OW19765   0.928   6.495   0.496 -0.1971 -0.3563  0.1882
 2569SOL    HW119766   0.962   6.403   0.514 -2.0660 -0.9494  0.8728
 2569SOL    HW219767   0.947   6.554   0.575  1.2176 -0.0793 -0.3500
 2570SOL     OW19768   5.367   4.842   4.292 -0.4712 -0.1981 -0.0907
 2570SOL    HW119769   5.451   4.889   4.319 -1.1043  2.2026 -2.1327
 2570SOL    HW219770   5.390   4.769   4.227  0.0950  0.0605 -0.1886
 2571SOL     OW19771   1.933   8.317   3.628  0.0826  0.4593 -0.0946
 2571SOL    HW119772   1.995   8.284   3.557 -0.3504 -0.2039 -0.1759
 2571SOL    HW219773   1.848   8.347   3.587  0.6646  2.1781 -0.0648
 2572SOL     OW19774   9.593   5.294   6.048 -0.3161  0.0436 -0.5561
 2572SOL    HW119775   9.515   5.326   5.994  0.2768 -1.0080 -2.0690
 2572SOL    HW219776   9.644   5.225   5.996  0.4023 -0.8432  1.2520
 2573SOL     OW19777   0.544   9.266   4.773 -0.1405 -0.2107  0.0816
 2573SOL    HW119778   0.516   9.288   4.679 -1.7457  0.8828  0.7807
 2573SOL    HW219779   0.638   9.234   4.774 -0.4964 -1.4054 -2.0656
 2574SOL     OW19780   9.676   7.569   4.650 -0.1297  0.6229  0.2385
 2574SOL    HW119781   9.729   7.500   4.699  0.0961  1.6520  1.4850
 2574SOL    HW219782   9.649   7.641   4.714 -2.8574  0.2218 -0.4248
 2575SOL     OW19783   9.378   6.890   0.253 -0.4184 -0.1924 -0.2762
 2575SOL    HW119784   9.351   6.852   0.341 -0.5141  0.2008 -0.1320
 2575SOL    HW219785   9.329   6.843   0.180 -0.5727 -0.3107 -0.0970
 2576SOL     OW19786   9.714   4.099   7.782  0.4174 -0.4218 -0.0416
 2576SOL    HW119787   9.783   4.092   7.854  1.5787  0.9334 -0.9854
 2576SOL    HW219788   9.624   4.081   7.820  1.1101 -0.5508  1.5798
 2577SOL     OW19789   1.947   1.386   5.172  0.0551  0.0247 -0.4057
 2577SOL    HW119790   1.862   1.413   5.217 -1.0902 -0.5264 -2.1885
 2577SOL    HW219791   1.989   1.466   5.130 -0.3798  0.0549 -0.7975
 2578SOL     OW19792   0.354   1.349   1.874  0.4770 -0.4794 -0.8401
 2578SOL    HW119793   0.390   1.259   1.849  1.9708 -0.6751  1.8538
 2578SOL    HW219794   0.312   1.344   1.965 -1.8990  0.9221 -1.8328
 2579SOL     OW19795   3.398   9.819   9.482  0.1929 -0.3349 -0.4937
 2579SOL    HW119796   3.344   9.892   9.440 -0.1755 -1.3065 -1.7240
 2579SOL    HW219797   3.493   9.827   9.453  0.3155  0.1508  0.0372
 2580SOL     OW19798   8.766   1.047   1.350 -0.2113  0.3920  0.3805
 2580SOL    HW119799   8.681   1.086   1.316  0.5006  0.6694 -1.1067
 2580SOL    HW219800   8.786   1.085   1.441 -1.6109  0.4002  0.6924
 2581SOL     OW19801   2.659   3.750   8.827  0.0625 -0.5247  0.5957
 2581SOL    HW119802   2.692   3.688   8.755  1.6303 -0.3455  1.1379
 2581SOL    HW219803   2.725   3.823   8.840 -0.6104 -0.1014  1.6578
 2582SOL     OW19804   1.863   8.784   9.952  0.3399  0.1150 -0.1470
 2582SOL    HW119805   1.829   8.861   9.899  0.3061  0.1108 -0.1322
 2582SOL    HW219806   1.797   8.710   9.950  0.2150  0.2199  0.1367
 2583SOL     OW19807   2.911   5.925   3.667 -0.1443  0.3792  0.1212
 2583SOL    HW119808   2.851   5.886   3.598 -0.7646 -0.1599  0.9657
 2583SOL    HW219809   3.002   5.883   3.659 -0.7107 -0.9978  0.7995
 2584SOL     OW19810   4.240   4.546   9.854 -0.4839  0.5642  0.2655
 2584SOL    HW119811   4.229   4.631   9.802 -1.1516  0.7369  0.6859
 2584SOL    HW219812   4.197   4.556   9.944 -0.5920 -0.2290  0.3053
 2585SOL     OW19813   9.428   3.998   6.934 -0.9649  0.2609  0.6238
 2585SOL    HW119814   9.329   3.986   6.922 -1.2627  0.2594  2.8686
 2585SOL    HW219815   9.454   3.970   7.027  1.0465  0.8917  0.2765
 2586SOL     OW19816   8.876   2.104   2.672  0.0353  0.0917  0.0463
 2586SOL    HW119817   8.947   2.174   2.678 -1.4689  1.4510  2.7693
 2586SOL    HW219818   8.904   2.034   2.606  2.6579  1.9731 -0.9238
 2587SOL     OW19819   3.145   1.755   2.342 -0.3420  0.1258  0.1508
 2587SOL    HW119820   3.227   1.716   2.300 -1.6135 -0.2045 -2.1133
 2587SOL    HW219821   3.171   1.823   2.410  1.8087 -0.3914 -0.1321
 2588SOL     OW19822   0.210   7.798   8.558 -0.0771  0.2567  0.7604
 2588SOL    HW119823   0.158   7.741   8.622 -0.5708  0.1875  0.3005
 2588SOL    HW219824   0.222   7.890   8.597 -1.3986  0.5679  0.4437
 2589SOL     OW19825   0.781   2.950   2.854 -0.0572 -0.0370 -0.5763
 2589SOL    HW119826   0.730   3.005   2.788 -0.5719 -0.3261 -0.4209
 2589SOL    HW219827   0.717   2.904   2.916  0.3428 -1.3601 -1.1472
 2590SOL     OW19828   3.665   8.461   4.299  0.3833 -0.1038  0.3931
 2590SOL    HW119829   3.597   8.422   4.361  0.1437 -0.2778  0.0233
 2590SOL    HW219830   3.680   8.399   4.223 -1.6626  1.5076 -1.4012
 2591SOL     OW19831   7.567   5.546   2.809 -0.3647 -0.0329 -0.3069
 2591SOL    HW119832   7.547   5.636   2.849  0.5694  0.0856 -0.0931
 2591SOL    HW219833   7.604   5.558   2.717  2.2672 -0.0538  0.7153
 2592SOL     OW19834   7.738   3.398   6.818 -0.1323 -0.2953 -0.6834
 2592SOL    HW119835   7.783   3.334   6.756  0.0321  0.4867 -1.3882
 2592SOL    HW219836   7.712   3.481   6.767 -2.1262 -0.6133 -0.2419
 2593SOL     OW19837   1.115   3.588   0.552 -0.1212 -0.3548 -0.0255
 2593SOL    HW119838   1.120   3.542   0.640 -0.3373 -0.8549 -0.2765
 2593SOL    HW219839   1.031   3.561   0.505 -1.2731  1.7929  0.6731
 2594SOL     OW19840   8.025   7.150   5.637 -0.4037 -0.3362 -0.6886
 2594SOL    HW119841   8.043   7.190   5.547  0.9249 -0.5834 -0.5457
 2594SOL    HW219842   8.097   7.083   5.659 -0.4108  0.1187  0.7833
 2595SOL     OW19843   4.002   4.124   2.151  0.0957 -0.5483 -0.4139
 2595SOL    HW119844   4.061   4.200   2.180 -1.8273  0.8797 -0.1042
 2595SOL    HW219845   4.025   4.042   2.203 -1.3535  1.2142  3.1370
 2596SOL     OW19846   1.164   4.603   1.327  0.2316  0.0916  0.0237
 2596SOL    HW119847   1.210   4.514   1.334 -0.1720 -0.1245 -0.0659
 2596SOL    HW219848   1.219   4.664   1.271  0.1932 -0.3094 -0.4532
 2597SOL     OW19849   2.202   7.339   3.869  0.0961  0.7259 -0.2279
 2597SOL    HW119850   2.160   7.382   3.789 -0.4581 -0.2786 -0.4846
 2597SOL    HW219851   2.252   7.257   3.840  0.4733  0.7431  0.3646
 2598SOL     OW19852   3.068   5.456   5.559 -0.0777 -0.4638  0.2598
 2598SOL    HW119853   3.002   5.480   5.487 -1.0731 -1.3341  0.8544
 2598SOL    HW219854   3.036   5.493   5.646  1.4643  1.1550  0.1639
 2599SOL     OW19855   6.731   0.038   1.428  0.1633  0.2924 -0.1646
 2599SOL    HW119856   6.788   0.056   1.347  2.1053 -2.1200  0.6020
 2599SOL    HW219857   6.691  -0.053   1.420 -0.3678  0.4050  1.1675
 2600SOL     OW19858   9.152   1.831   8.655  0.0018 -0.0341 -0.4601
 2600SOL    HW119859   9.201   1.758   8.609  0.8660  0.5985 -0.5597
 2600SOL    HW219860   9.217   1.898   8.691 -0.6521 -0.5193  1.6983
 2601SOL     OW19861   8.558   2.101   8.132  0.0366  0.4962  0.5981
 2601SOL    HW119862   8.498   2.067   8.205 -2.1789  1.4687 -0.7197
 2601SOL    HW219863   8.585   2.195   8.152  0.3256  0.3936  0.6953
 2602SOL     OW19864   3.688   5.340   2.351 -0.3605 -0.0347 -0.5013
 2602SOL    HW119865   3.723   5.384   2.269  1.1273 -2.6786 -1.3477
 2602SOL    HW219866   3.588   5.334   2.345 -0.3123  0.3070 -1.8482
 2603SOL     OW19867   4.147   4.137   8.129 -0.3201 -0.3368  0.4345
 2603SOL    HW119868   4.223   4.198   8.152 -1.1391  0.0426  2.2584
 2603SOL    HW219869   4.139   4.128   8.030  1.0890  0.9035  0.2019
 2604SOL     OW19870   2.237   2.861   8.470  0.0314  0.1637 -0.1192
 2604SOL    HW119871   2.174   2.874   8.547  0.9191  0.0977  0.6290
 2604SOL    HW219872   2.325   2.827   8.504  0.0552 -1.0182 -1.2803
 2605SOL     OW19873   4.010   3.681   9.086  0.6087 -0.0378 -0.3210
 2605SOL    HW119874   4.016   3.635   9.174  1.0548  0.4159 -0.1112
 2605SOL    HW219875   3.935   3.749   9.089  2.6183  2.2011  0.7607
 2606SOL     OW19876   7.769   3.467   0.188  0.2703 -0.2909  0.0470
 2606SOL    HW119877   7.857   3.497   0.151 -0.7145  0.3284 -1.8703
 2606SOL    HW219878   7.695   3.515   0.141 -1.1360 -1.4057  1.0633
 2607SOL     OW19879   7.840   7.976   7.014 -0.0009  0.3823  0.5888
 2607SOL    HW119880   7.854   8.075   7.018  1.4386  0.1622  1.3636
 2607SOL    HW219881   7.778   7.948   7.087 -0.8032  0.7657  0.0642
 2608SOL     OW19882   9.646   4.170   1.911 -0.2906 -1.2693  0.3739
 2608SOL    HW119883   9.641   4.202   1.816 -0.5048 -0.3012  0.7021
 2608SOL    HW219884   9.742   4.154   1.935 -0.0850  0.1092  0.5110
 2609SOL     OW19885   5.418   5.861   3.910 -0.1279  0.2010 -0.2842
 2609SOL    HW119886   5.452   5.809   3.832  0.7139  2.2871 -1.3389
 2609SOL    HW219887   5.494   5.907   3.956 -0.9480  1.2132  0.0894
 2610SOL     OW19888   0.820   5.258   9.596 -0.4154 -0.4838  0.6671
 2610SOL    HW119889   0.888   5.185   9.590 -0.0671 -0.1473  0.4734
 2610SOL    HW219890   0.781   5.275   9.505  1.5171  1.4670  0.1663
 2611SOL     OW19891   4.760   6.246   1.736 -0.5730  0.2985 -0.1462
 2611SOL    HW119892   4.700   6.189   1.680 -1.0489 -0.3233  0.9854
 2611SOL    HW219893   4.706   6.291   1.807 -0.2000  2.1443 -1.0000
 2612SOL     OW19894   6.467   3.332   8.547 -0.4140  0.1746 -0.5522
 2612SOL    HW119895   6.526   3.352   8.468 -1.4910  1.2612 -1.0864
 2612SOL    HW219896   6.512   3.265   8.605  0.5215 -0.4445 -1.9559
 2613SOL     OW19897   0.615   4.650   8.849  0.1882  0.1907 -0.4171
 2613SOL    HW119898   0.516   4.650   8.865 -0.0974  1.0698 -2.0491
 2613SOL    HW219899   0.657   4.577   8.902 -1.2452  0.2634  0.8483
 2614SOL     OW19900   2.698   3.461   9.608 -0.0512 -0.0407 -0.4487
 2614SOL    HW119901   2.674   3.476   9.704 -0.7729  0.2050 -0.6589
 2614SOL    HW219902   2.733   3.547   9.568  0.0322 -0.0819 -0.4639
 2615SOL     OW19903   9.137   4.253   8.345  0.3019  0.1315 -0.3228
 2615SOL    HW119904   9.148   4.241   8.246  1.8414  0.3730 -0.2023
 2615SOL    HW219905   9.104   4.168   8.385 -0.2036 -0.0110 -1.0321
 2616SOL     OW19906   0.018   3.096   6.000  0.2740 -0.6599  0.3603
 2616SOL    HW119907   0.064   3.009   6.018 -0.0524 -0.7010  1.0374
 2616SOL    HW219908   0.018   3.151   6.083 -0.7375 -0.5908  0.3268
 2617SOL     OW19909   9.052   3.286   0.798  0.1894  0.3952  0.7466
 2617SOL    HW119910   9.131   3.346   0.784 -1.4519  2.8062  1.3427
 2617SOL    HW219911   8.983   3.335   0.851 -1.4106 -1.9302  0.8848
 2618SOL     OW19912   0.625   3.573   2.446  1.0223 -0.1654 -0.0238
 2618SOL    HW119913   0.720   3.557   2.421  1.1168  1.2645 -0.6606
 2618SOL    HW219914   0.615   3.667   2.481 -0.2375 -0.1282 -0.4474
 2619SOL     OW19915   0.347   9.976   5.373 -0.1881  0.3949 -0.2081
 2619SOL    HW119916   0.380  10.071   5.369 -1.4095  0.9531  1.9955
 2619SOL    HW219917   0.271   9.964   5.310 -0.8142  1.2214  0.3807
 2620SOL     OW19918   1.380   1.429   9.720 -0.5773 -0.4672 -0.0171
 2620SOL    HW119919   1.391   1.513   9.666 -1.5352  0.1040  0.6418
 2620SOL    HW219920   1.450   1.425   9.790  0.2229 -0.8424 -0.8283
 2621SOL     OW19921   5.158   3.822   1.549  0.1196 -0.1556  0.5248
 2621SOL    HW119922   5.142   3.729   1.516  0.1476 -0.1760  0.5681
 2621SOL    HW219923   5.160   3.822   1.649  0.9193 -0.2504  0.5170
 2622SOL     OW19924   3.008   5.321   1.667 -0.6180  0.4516  0.3200
 2622SOL    HW119925   3.035   5.395   1.605 -0.2314  1.2848  1.4585
 2622SOL    HW219926   2.929   5.274   1.630 -0.4512  0.9956 -0.7642
 2623SOL     OW19927   6.228   2.798   2.422  0.0524  0.6033 -0.3832
 2623SOL    HW119928   6.179   2.747   2.493 -0.2793 -0.6078 -1.4723
 2623SOL    HW219929   6.275   2.734   2.361  0.7120  1.6551 -0.9954
 2624SOL     OW19930   1.436   2.933   3.711  0.3295  0.4778  0.2819
 2624SOL    HW119931   1.493   2.934   3.629  1.4646  1.3629  1.0702
 2624SOL    HW219932   1.377   3.015   3.712 -1.5608 -0.8196 -0.9225
 2625SOL     OW19933   2.722   1.563   1.252  0.1373 -0.1391  0.1117
 2625SOL    HW119934   2.707   1.563   1.153 -1.4838  1.6388  0.3301
 2625SOL    HW219935   2.658   1.499   1.295  0.3501 -0.3767  0.0743
 2626SOL     OW19936   3.016   3.329   9.416 -0.1235 -0.4247 -0.0716
 2626SOL    HW119937   3.031   3.305   9.512  2.0763 -0.8158 -0.4794
 2626SOL    HW219938   2.953   3.264   9.374  1.1934 -1.9967  0.3572
 2627SOL     OW19939   0.096   6.117   2.153 -0.3423 -0.0412 -0.1590
 2627SOL    HW119940   0.170   6.073   2.204  0.3590  1.9050  0.5429
 2627SOL    HW219941   0.126   6.132   2.058  0.1409  0.6557  0.0991
 2628SOL     OW19942   0.687   5.790   4.392 -0.0839 -0.0822  0.4531
 2628SOL    HW119943   0.704   5.786   4.294 -1.6062  1.6341  0.1076
 2628SOL    HW219944   0.592   5.767   4.411  0.3163 -0.8697  1.5733
 2629SOL     OW19945   9.563   5.802   4.461  0.1980 -0.1650  0.1943
 2629SOL    HW119946   9.594   5.740   4.533  1.4429  0.0382 -0.1483
 2629SOL    HW219947   9.643   5.839   4.413 -0.5553  1.0747 -0.1245
 2630SOL     OW19948   0.297   8.396   8.329 -0.4466 -0.4868 -0.1531
 2630SOL    HW119949   0.360   8.445   8.390  0.0704 -2.2190  0.7257
 2630SOL    HW219950   0.234   8.341   8.383 -0.7134 -1.1650 -1.1516
 2631SOL     OW19951   1.713   4.231   4.832 -0.1930 -0.0560  0.3848
 2631SOL    HW119952   1.614   4.223   4.844 -0.2245  0.0929  0.2274
 2631SOL    HW219953   1.743   4.322   4.862 -0.5741  1.1174 -2.5413
 2632SOL     OW19954   5.974   3.271   8.327  0.4573 -0.3396  0.4619
 2632SOL    HW119955   6.052   3.266   8.389  1.9131  0.8187 -1.2398
 2632SOL    HW219956   5.894   3.303   8.377  1.0987 -1.3125  2.1749
 2633SOL     OW19957   1.246   5.700   7.760 -0.5552 -0.0253  0.1199
 2633SOL    HW119958   1.273   5.613   7.718 -2.1923 -0.5867  0.1719
 2633SOL    HW219959   1.326   5.743   7.803  0.4524 -1.0587 -0.6970
 2634SOL     OW19960   0.853   6.650   3.216  0.3287  0.4512  0.8929
 2634SOL    HW119961   0.776   6.643   3.281  0.2294 -1.3761  0.5937
 2634SOL    HW219962   0.818   6.679   3.127  0.2254  1.2104  1.1696
 2635SOL     OW19963   4.966   8.827   6.875 -0.4793 -0.0375  0.3805
 2635SOL    HW119964   4.950   8.786   6.786  0.9045 -1.0971  0.5904
 2635SOL    HW219965   5.036   8.898   6.867 -1.9178  1.3749  0.2507
 2636SOL     OW19966   2.303   3.529   0.167 -0.1845 -0.1313 -0.0255
 2636SOL    HW119967   2.313   3.479   0.253 -0.7194  0.5672  0.4594
 2636SOL    HW219968   2.332   3.624   0.181  0.3294 -0.1729 -0.7886
 2637SOL     OW19969   9.477   3.911   0.647  0.4260 -0.2597 -0.6819
 2637SOL    HW119970   9.498   4.009   0.639  0.3384 -0.2333 -0.5791
 2637SOL    HW219971   9.391   3.899   0.696  0.5355 -0.3974 -0.5236
 2638SOL     OW19972   9.935   0.695   5.627 -0.7135  0.1040 -0.5358
 2638SOL    HW119973   9.918   0.751   5.709  1.9955  0.3512 -0.1074
 2638SOL    HW219974   9.965   0.604   5.655  2.3708  0.8635 -1.2076
 2639SOL     OW19975   0.579   2.380   3.205 -0.0272  0.0162  0.5167
 2639SOL    HW119976   0.666   2.333   3.219 -0.2095 -0.2383  0.7977
 2639SOL    HW219977   0.522   2.370   3.287 -0.7890 -0.8123 -0.0995
 2640SOL     OW19978   3.486   6.793   1.449  0.6935 -0.1611  0.4471
 2640SOL    HW119979   3.505   6.696   1.434  0.7015 -0.0725 -0.1554
 2640SOL    HW219980   3.499   6.843   1.363 -0.3268  0.2058  0.4898
 2641SOL     OW19981   7.145   1.588   1.635 -0.4784 -0.4640 -0.0349
 2641SOL    HW119982   7.233   1.598   1.681  0.0762  0.5403 -1.3210
 2641SOL    HW219983   7.103   1.678   1.622 -1.4269 -0.8876  0.0196
 2642SOL     OW19984   2.188   1.753   2.489 -0.1606  0.4919  0.1383
 2642SOL    HW119985   2.227   1.845   2.484  1.4855 -0.1719  0.4438
 2642SOL    HW219986   2.249   1.694   2.541 -0.7290 -1.0332 -0.8867
 2643SOL     OW19987   1.273   5.214   1.708  0.0954 -0.1287 -0.6023
 2643SOL    HW119988   1.349   5.276   1.728 -1.5460  1.4681  0.8436
 2643SOL    HW219989   1.220   5.249   1.631  0.4348 -0.9206 -1.2104
 2644SOL     OW19990   3.943   4.386   9.852 -0.1969 -0.7667  0.3085
 2644SOL    HW119991   3.990   4.370   9.765  0.8039  0.1815  0.6685
 2644SOL    HW219992   3.970   4.316   9.918 -0.6467 -1.2497 -0.0138
 2645SOL     OW19993   9.628   2.177   4.120  0.6892  0.3157  1.2349
 2645SOL    HW119994   9.558   2.109   4.096  2.1441 -0.9319  0.4066
 2645SOL    HW219995   9.586   2.267   4.126 -1.1134 -0.5048  1.3944
 2646SOL     OW19996   8.247   4.754   3.336 -0.2345  0.1685  1.1503
 2646SOL    HW119997   8.232   4.832   3.396 -1.8442 -0.6375  1.8299
 2646SOL    HW219998   8.256   4.671   3.391 -1.6938 -0.5691  0.2942
 2647SOL     OW19999   9.433   4.558   1.219  0.7531  0.2860  0.5160
 2647SOL    HW120000   9.405   4.464   1.200 -0.4386  0.5193  1.0740
 2647SOL    HW220001   9.386   4.592   1.300  1.8373  1.0764  0.8411
 2648SOL     OW20002   1.836   6.897   9.489 -0.2274  0.8664  0.3691
 2648SOL    HW120003   1.787   6.822   9.446 -0.8645  1.9099 -0.7708
 2648SOL    HW220004   1.773   6.948   9.548  0.0626  0.8480  0.6980
 2649SOL     OW20005   1.864   1.316   2.524  0.0002  0.3396 -0.2952
 2649SOL    HW120006   1.864   1.233   2.467  1.0075  1.4530 -1.9566
 2649SOL    HW220007   1.947   1.368   2.506 -0.5033  1.5942  0.9489
 2650SOL     OW20008   6.579   4.851   8.903 -0.8817  0.6182  0.3685
 2650SOL    HW120009   6.631   4.862   8.818  2.2296 -0.4913  2.0325
 2650SOL    HW220010   6.548   4.756   8.911 -0.1239  0.4194  1.0177
 2651SOL     OW20011   0.822   5.478   1.296 -0.4275 -0.1014  0.2632
 2651SOL    HW120012   0.731   5.450   1.328  0.0331  0.0232  1.7223
 2651SOL    HW220013   0.891   5.416   1.332 -0.0383 -0.9849 -1.9319
 2652SOL     OW20014   5.142   6.707   1.484 -0.1897  0.3824 -0.1903
 2652SOL    HW120015   5.099   6.702   1.394  0.2229  0.1149 -0.3725
 2652SOL    HW220016   5.241   6.701   1.474 -0.1743 -0.2536  0.3303
 2653SOL     OW20017   3.866   0.038   9.053 -0.3134  0.2141  0.2671
 2653SOL    HW120018   3.893  -0.057   9.037  0.5176  0.6375 -0.9368
 2653SOL    HW220019   3.782   0.041   9.107  1.9036 -1.1671  4.0020
 2654SOL     OW20020   1.324   6.641   2.559 -0.1774  0.1353 -0.4803
 2654SOL    HW120021   1.381   6.645   2.477  2.3588 -1.0658  1.1621
 2654SOL    HW220022   1.323   6.547   2.594 -2.5783  0.2901 -0.0213
 2655SOL     OW20023   5.828   9.639   2.353 -0.3280 -0.0810  0.2228
 2655SOL    HW120024   5.907   9.642   2.292 -0.3415  1.6111  0.2657
 2655SOL    HW220025   5.780   9.726   2.350  0.9022  0.8499  4.2222
 2656SOL     OW20026   3.415   3.800   8.305 -0.2606  0.1081 -0.2423
 2656SOL    HW120027   3.416   3.763   8.211 -0.5062 -0.4762 -0.0217
 2656SOL    HW220028   3.473   3.880   8.310  0.8041 -0.6294 -0.5879
 2657SOL     OW20029   8.259   2.870   8.608 -0.0422  0.1481 -0.0912
 2657SOL    HW120030   8.183   2.875   8.543 -0.4539 -1.0772  0.2952
 2657SOL    HW220031   8.320   2.796   8.582  0.4457  0.4307  0.2375
 2658SOL     OW20032   8.640   4.983   7.520 -0.5607  0.4292  0.4805
 2658SOL    HW120033   8.648   5.071   7.471  2.0858 -0.1459 -0.2045
 2658SOL    HW220034   8.722   4.929   7.503 -2.2332 -2.2693  0.7785
 2659SOL     OW20035   9.337   2.460   2.682  0.1884  0.5148  0.4837
 2659SOL    HW120036   9.324   2.553   2.717  1.9742  0.3026  1.7093
 2659SOL    HW220037   9.319   2.394   2.754  3.1450  0.0549  0.8461
 2660SOL     OW20038   0.129   6.822   0.381 -0.8795  0.2667 -0.4127
 2660SOL    HW120039   0.036   6.798   0.353 -1.1874  2.6208 -1.5081
 2660SOL    HW220040   0.142   6.920   0.372  1.1140  0.2183  1.6127
 2661SOL     OW20041   1.422   6.287   8.343 -0.2433 -0.1174 -0.1320
 2661SOL    HW120042   1.436   6.190   8.322 -0.4005 -0.3932  1.0210
 2661SOL    HW220043   1.367   6.296   8.426  0.2028  0.9672  0.0548
 2662SOL     OW20044   1.151   1.507   3.531 -0.4905 -0.2123  0.8104
 2662SOL    HW120045   1.077   1.495   3.465  0.3895  1.7281 -0.5807
 2662SOL    HW220046   1.159   1.604   3.555  1.7261 -0.3457  0.7555
 2663SOL     OW20047   9.762   1.245   7.290  0.4229  0.1201  0.2523
 2663SOL    HW120048   9.718   1.210   7.372 -0.4982 -0.2128 -0.3740
 2663SOL    HW220049   9.748   1.180   7.215  1.0713  0.5206 -0.2155
 2664SOL     OW20050   0.655   3.750   9.250 -0.1549 -0.1886 -0.5390
 2664SOL    HW120051   0.626   3.660   9.282 -0.1496  0.1620  0.4710
 2664SOL    HW220052   0.612   3.821   9.306  1.1191  0.3826 -0.2649
 2665SOL     OW20053   0.285   5.853   9.262  0.3759 -0.0994  0.3631
 2665SOL    HW120054   0.326   5.762   9.258  0.1414 -0.2618  1.5166
 2665SOL    HW220055   0.266   5.877   9.357  0.2361  1.0682  0.0497
 2666SOL     OW20056   7.192   9.691   8.198 -0.0863  0.0952 -0.2980
 2666SOL    HW120057   7.227   9.602   8.226 -0.3104 -0.0601 -0.5047
 2666SOL    HW220058   7.092   9.689   8.198 -0.1065  0.8573  1.3009
 2667SOL     OW20059   7.902   1.833   3.957  0.3984 -0.6083  0.3864
 2667SOL    HW120060   7.946   1.767   3.895 -1.3380 -2.2715  0.8598
 2667SOL    HW220061   7.822   1.790   3.999 -0.0962  1.4563  1.6086
 2668SOL     OW20062   0.321   5.264   6.157  0.6421  0.1385  0.4376
 2668SOL    HW120063   0.227   5.248   6.127  0.6545  0.4324  0.2430
 2668SOL    HW220064   0.375   5.181   6.142  0.1394 -0.4051  1.6058
 2669SOL     OW20065   1.316   5.030   1.001 -0.2402  0.7679  0.0207
 2669SOL    HW120066   1.264   5.000   0.921 -0.8423  1.1426  0.2709
 2669SOL    HW220067   1.272   5.110   1.042  0.9382  1.5648 -0.2108
 2670SOL     OW20068   2.150   0.847   4.656  0.1095  0.1729  0.3457
 2670SOL    HW120069   2.202   0.821   4.738 -0.3338  0.6319  0.7813
 2670SOL    HW220070   2.073   0.906   4.683 -1.2287 -1.2962 -0.1657
 2671SOL     OW20071   9.646   7.116   3.741  0.3350 -0.5062  0.0595
 2671SOL    HW120072   9.623   7.018   3.742  0.7834 -0.6535 -1.6782
 2671SOL    HW220073   9.579   7.167   3.796 -0.7402 -1.6136 -0.2021
 2672SOL     OW20074   7.465   4.151   6.136 -0.1491 -0.2194  0.1682
 2672SOL    HW120075   7.535   4.080   6.143 -1.0066 -1.1083 -0.2602
 2672SOL    HW220076   7.377   4.110   6.114 -0.2936  1.1199 -1.9137
 2673SOL     OW20077   0.905   0.589   5.896  0.6350  0.0170 -0.5363
 2673SOL    HW120078   0.938   0.628   5.810  2.2386  0.7113  0.3598
 2673SOL    HW220079   0.978   0.533   5.937 -0.3608 -0.8922  0.0238
 2674SOL     OW20080   1.799   4.637   3.114 -0.0558 -0.4654  0.3294
 2674SOL    HW120081   1.761   4.572   3.180 -0.1889 -1.7298 -0.9788
 2674SOL    HW220082   1.874   4.594   3.064 -0.6751  0.1130 -1.1260
 2675SOL     OW20083   9.726   7.086   9.778 -0.7061 -0.0959 -0.0249
 2675SOL    HW120084   9.704   7.021   9.851 -0.1425  1.1310  1.2564
 2675SOL    HW220085   9.739   7.177   9.817 -2.2186  0.9589 -1.8878
 2676SOL     OW20086   9.227   4.161   8.076  0.3213  0.1317  0.1477
 2676SOL    HW120087   9.181   4.166   7.987 -0.3980  0.1279  0.5197
 2676SOL    HW220088   9.230   4.066   8.106  0.7102  0.1141  0.0527
 2677SOL     OW20089   9.938   6.317   0.405  0.0560 -0.0521  0.8827
 2677SOL    HW120090   9.903   6.290   0.315  1.4165  0.8858  0.0678
 2677SOL    HW220091  10.021   6.265   0.425 -1.4816 -1.9549  2.6294
 2678SOL     OW20092   9.786   5.802   8.009 -0.2984  0.2108  0.0687
 2678SOL    HW120093   9.748   5.709   8.008  0.4979 -0.1174  0.0810
 2678SOL    HW220094   9.858   5.808   8.078 -0.3785  0.8580  0.1011
 2679SOL     OW20095   0.038   8.204   6.352 -0.3065 -0.2163  0.2212
 2679SOL    HW120096   0.041   8.304   6.340 -0.0825 -0.2737 -0.1999
 2679SOL    HW220097  -0.048   8.169   6.313 -0.6046 -0.1329  0.7935
 2680SOL     OW20098   0.516   3.463   3.342 -0.0288  0.0672 -0.5349
 2680SOL    HW120099   0.549   3.454   3.248  0.7530  1.3090 -0.3847
 2680SOL    HW220100   0.428   3.510   3.341 -0.7969 -1.3259 -0.7553
 2681SOL     OW20101   2.546   2.204   6.807  0.3035 -0.3896  0.2308
 2681SOL    HW120102   2.640   2.169   6.809  0.8837  1.0394 -0.9471
 2681SOL    HW220103   2.485   2.139   6.852  1.6251 -2.0398 -0.3092
 2682SOL     OW20104   2.133   6.084   9.585 -0.7800 -0.4359  0.1402
 2682SOL    HW120105   2.156   6.147   9.659 -1.8858  0.8335 -0.5924
 2682SOL    HW220106   2.208   6.018   9.574  2.4344  3.3335 -1.9566
 2683SOL     OW20107   9.479   4.099   9.646  0.2177 -0.1836 -0.3818
 2683SOL    HW120108   9.458   4.003   9.663  1.7863 -0.2924  1.0426
 2683SOL    HW220109   9.469   4.119   9.549 -1.9835 -1.3019 -0.4180
 2684SOL     OW20110   0.858   2.910   7.841 -0.8681 -0.2511  0.3367
 2684SOL    HW120111   0.902   2.959   7.766 -0.5806  0.0687  0.7108
 2684SOL    HW220112   0.921   2.841   7.877 -0.4886  0.5365  1.1922
 2685SOL     OW20113   4.499   5.598   2.942  0.4419  0.2816 -0.1341
 2685SOL    HW120114   4.550   5.556   2.868  0.6768  2.8066 -1.4473
 2685SOL    HW220115   4.553   5.595   3.026  1.0565 -0.6698 -0.5555
 2686SOL     OW20116   8.816   7.733   6.976  0.3359  0.5984 -0.3804
 2686SOL    HW120117   8.889   7.761   6.915  0.6320  1.0695  0.1853
 2686SOL    HW220118   8.814   7.793   7.056 -0.5698  0.4920 -0.3172
 2687SOL     OW20119   2.375   4.390   0.587  0.7361  0.5008 -0.0801
 2687SOL    HW120120   2.423   4.406   0.673 -0.8398  1.3640  0.6537
 2687SOL    HW220121   2.311   4.464   0.570 -1.7301 -1.5630 -0.0620
 2688SOL     OW20122   7.584   1.286   5.891 -0.0434 -0.1280 -0.0667
 2688SOL    HW120123   7.679   1.313   5.906  0.2206 -0.1131 -1.6437
 2688SOL    HW220124   7.525   1.366   5.901  0.5101  0.6563 -2.6294
 2689SOL     OW20125   0.433   3.281   9.710  0.0136 -0.1507  0.0698
 2689SOL    HW120126   0.517   3.270   9.657 -0.8834  1.9856 -1.8505
 2689SOL    HW220127   0.457   3.302   9.805  1.6312 -1.1461 -0.0883
 2690SOL     OW20128   9.268   6.035   4.014  0.4639  0.3512 -0.5953
 2690SOL    HW120129   9.195   6.033   3.945 -1.3254  1.2610  1.2317
 2690SOL    HW220130   9.272   6.126   4.054  1.1324 -0.3191  0.8707
 2691SOL     OW20131   1.191   4.064   6.607 -0.2082 -0.0713 -0.0183
 2691SOL    HW120132   1.156   4.151   6.642  0.4039 -0.0445  0.5311
 2691SOL    HW220133   1.291   4.064   6.610 -0.1903 -0.5979 -0.4945
 2692SOL     OW20134   9.193   3.439   3.548 -0.1788 -0.0320 -0.0265
 2692SOL    HW120135   9.195   3.455   3.647 -1.2741 -0.4012  0.0571
 2692SOL    HW220136   9.265   3.373   3.524  0.7378  0.8000  0.3781
 2693SOL     OW20137   3.795   4.167   8.850  0.5730  0.0167 -0.0587
 2693SOL    HW120138   3.700   4.136   8.853  0.3395  0.6593 -1.0564
 2693SOL    HW220139   3.851   4.097   8.805  0.7902 -0.8965  1.5747
 2694SOL     OW20140   6.643   7.286   0.095 -0.7770 -0.1325 -0.5334
 2694SOL    HW120141   6.743   7.288   0.091 -0.7314  0.0786  0.5048
 2694SOL    HW220142   6.608   7.230   0.020  0.0745  0.5213 -1.4442
 2695SOL     OW20143   0.747   0.596   8.723  0.7115  0.2743  0.2667
 2695SOL    HW120144   0.828   0.554   8.765 -0.3260 -0.7605  1.2648
 2695SOL    HW220145   0.700   0.653   8.791  0.8952  1.3293 -0.4741
 2696SOL     OW20146   6.042   3.515   8.611 -0.1039 -0.6108  0.9736
 2696SOL    HW120147   5.991   3.496   8.694  0.7070 -1.5575  1.2665
 2696SOL    HW220148   6.091   3.432   8.582  1.2101  0.2583  0.6761
 2697SOL     OW20149   8.505   9.069   7.477 -0.2037  0.1348 -1.0327
 2697SOL    HW120150   8.604   9.060   7.466 -0.2953 -0.3960 -1.4751
 2697SOL    HW220151   8.459   8.997   7.425 -0.7177 -1.7491  1.8928
 2698SOL     OW20152   9.897   3.963   2.255  0.4992 -0.2661 -0.3423
 2698SOL    HW120153   9.855   3.874   2.240 -0.5258  0.1010  0.2814
 2698SOL    HW220154   9.882   3.992   2.350  2.5002 -0.2929  0.0136
 2699SOL     OW20155   0.846   2.075   9.488  0.1227  0.4513  0.6627
 2699SOL    HW120156   0.921   2.138   9.465  0.9461 -0.3741  1.0500
 2699SOL    HW220157   0.884   1.987   9.516 -1.0676 -0.6924 -1.2073
 2700SOL     OW20158   1.586   3.979   3.730 -0.0013 -0.2760 -0.1225
 2700SOL    HW120159   1.592   3.894   3.781  0.4016  0.6092  1.3509
 2700SOL    HW220160   1.557   3.960   3.637  0.5201 -2.0640  0.0589
 2701SOL     OW20161   7.162   0.469   3.774 -0.1634  0.0031 -0.4317
 2701SOL    HW120162   7.097   0.463   3.698  0.2439  0.7347 -0.8453
 2701SOL    HW220163   7.251   0.436   3.744 -0.4415 -1.4023  0.2605
 2702SOL     OW20164   0.518   4.441   8.386  0.0977 -0.2537 -0.0866
 2702SOL    HW120165   0.574   4.489   8.318  0.7511  0.3022  0.8240
 2702SOL    HW220166   0.483   4.507   8.453  0.0451 -0.8870  0.5147
 2703SOL     OW20167   0.090   7.654   0.684  0.1733  0.1919 -0.2636
 2703SOL    HW120168  -0.002   7.669   0.722 -0.0369  0.4432 -0.8703
 2703SOL    HW220169   0.089   7.674   0.586  1.1886  1.4938 -0.0154
 2704SOL     OW20170   0.019   5.604   0.677 -0.0018  0.0624 -0.2432
 2704SOL    HW120171   0.042   5.686   0.624 -3.1669  2.4701  1.9182
 2704SOL    HW220172   0.103   5.566   0.717  1.5659  2.1820 -1.3793
 2705SOL     OW20173   2.074   1.709   8.096 -0.0237 -0.5203  0.1499
 2705SOL    HW120174   2.029   1.635   8.145  1.6790 -0.6181  1.6378
 2705SOL    HW220175   2.173   1.703   8.112  0.1668  1.8153 -0.0523
 2706SOL     OW20176   8.092   3.560   9.438 -0.8115 -0.1136 -0.6924
 2706SOL    HW120177   8.061   3.647   9.476  0.8047  0.4433 -0.6083
 2706SOL    HW220178   8.147   3.511   9.505  0.2274 -0.1342 -1.5406
 2707SOL     OW20179   1.071   4.256   2.500 -0.9941 -0.3228  0.7338
 2707SOL    HW120180   1.011   4.328   2.465 -0.8379 -0.1368  0.8405
 2707SOL    HW220181   1.082   4.267   2.598  1.2303  1.2065  0.3686
 2708SOL     OW20182   9.097   4.591   3.301  0.3885  0.4730  0.1758
 2708SOL    HW120183   9.127   4.622   3.391  0.9722  0.3697  0.0207
 2708SOL    HW220184   9.094   4.491   3.299 -1.6572  0.4892  0.7291
 2709SOL     OW20185   0.956   1.421   1.221 -0.0176  0.6519 -0.3694
 2709SOL    HW120186   0.899   1.344   1.249  0.0460  1.0629  0.9150
 2709SOL    HW220187   1.005   1.397   1.137  0.9496 -1.1773  0.6893
 2710SOL     OW20188   8.291   3.434   3.104  0.1240 -0.0094 -0.1865
 2710SOL    HW120189   8.296   3.476   3.014  0.5787 -0.1787 -0.2414
 2710SOL    HW220190   8.381   3.439   3.148  0.3491 -1.5756 -0.4788
 2711SOL     OW20191   8.901   3.948   0.203  0.3161 -0.0924 -0.0625
 2711SOL    HW120192   8.996   3.922   0.188  0.0330 -0.5954 -1.0113
 2711SOL    HW220193   8.864   3.990   0.120 -0.0717  0.7833  0.5403
 2712SOL     OW20194   9.429   5.004   7.041 -0.7647 -0.0302  0.6647
 2712SOL    HW120195   9.351   5.047   7.086 -0.6320 -1.2362  2.0816
 2712SOL    HW220196   9.470   4.937   7.102  1.5202  0.7336  0.0005
 2713SOL     OW20197   8.448   3.034   1.897  0.9520  0.2373 -0.2283
 2713SOL    HW120198   8.544   3.046   1.870  0.9194  0.9251 -0.0713
 2713SOL    HW220199   8.394   3.109   1.860  0.4022 -0.3652 -0.6380
 2714SOL     OW20200   1.939   5.944   2.197 -0.2365 -0.2044  0.5154
 2714SOL    HW120201   1.985   6.002   2.130 -0.0079 -1.2706 -0.2654
 2714SOL    HW220202   1.910   5.858   2.153 -0.3082 -0.8093  1.7176
 2715SOL     OW20203   4.106   2.781   7.505  0.2654  0.2194  0.4176
 2715SOL    HW120204   4.067   2.698   7.544  2.1239 -1.0723 -0.3653
 2715SOL    HW220205   4.153   2.833   7.576  0.0882 -0.0057  0.6982
 2716SOL     OW20206   2.479   6.059   8.919 -0.2110 -0.2091 -0.0398
 2716SOL    HW120207   2.476   6.155   8.892  2.1774 -0.8489 -2.9278
 2716SOL    HW220208   2.570   6.038   8.956 -0.2375 -1.6784 -0.7831
 2717SOL     OW20209   3.302   6.894   2.422 -0.1749  0.3323  0.3371
 2717SOL    HW120210   3.283   6.980   2.374 -1.5941  0.3925  1.0002
 2717SOL    HW220211   3.328   6.824   2.355 -2.7160  0.2482 -0.6005
 2718SOL     OW20212   5.056   3.873   8.440  0.5153 -0.2545 -0.0168
 2718SOL    HW120213   5.084   3.818   8.519 -2.3658 -0.7820  0.6785
 2718SOL    HW220214   4.981   3.828   8.392  0.2361  1.5228 -1.3223
 2719SOL     OW20215   9.259   4.672   3.523  0.0153  0.1359 -0.0786
 2719SOL    HW120216   9.225   4.625   3.605  0.5026  1.0690  0.6672
 2719SOL    HW220217   9.358   4.684   3.530  0.1718 -0.5004 -1.1805
 2720SOL     OW20218   1.309   2.856   5.173  0.6030 -0.4193 -0.3346
 2720SOL    HW120219   1.272   2.847   5.265 -2.2778  0.4729 -1.3505
 2720SOL    HW220220   1.319   2.766   5.132  0.4779 -0.7299  0.3053
 2721SOL     OW20221   0.835   5.542   7.478 -0.3441 -0.4359  0.6378
 2721SOL    HW120222   0.754   5.515   7.530  0.3249  1.0051  2.4719
 2721SOL    HW220223   0.913   5.487   7.507 -0.1584 -0.2261  0.5387
 2722SOL     OW20224   8.072   4.527   2.539  0.1971 -0.1800 -0.4794
 2722SOL    HW120225   8.128   4.581   2.601 -1.0422 -0.2052  0.6714
 2722SOL    HW220226   8.006   4.586   2.492  2.3558  0.1642 -3.2203
 2723SOL     OW20227   1.212   3.797   4.334 -0.9556  0.0102  0.2847
 2723SOL    HW120228   1.216   3.844   4.246  2.2571 -0.0331  0.3730
 2723SOL    HW220229   1.264   3.848   4.402 -1.5163 -1.1346  1.5906
 2724SOL     OW20230   4.836   3.875   1.280  0.5589 -0.1478 -0.1127
 2724SOL    HW120231   4.909   3.840   1.222  1.9913  0.5861  1.1852
 2724SOL    HW220232   4.782   3.943   1.230  0.9575 -0.4764 -0.9912
 2725SOL     OW20233   9.160   3.706   5.549 -0.0422  0.5073  0.6717
 2725SOL    HW120234   9.120   3.655   5.473 -0.3024 -0.5266  1.4850
 2725SOL    HW220235   9.254   3.675   5.563  0.1385  0.9834  0.5134
 2726SOL     OW20236   3.388   0.619   0.652  0.0077 -0.5693 -0.7075
 2726SOL    HW120237   3.417   0.713   0.632  0.2633 -0.7653 -1.2326
 2726SOL    HW220238   3.467   0.565   0.680 -0.3070 -0.3438  0.7022
 2727SOL     OW20239   2.682   4.049   4.506  0.3002  0.1264 -0.6872
 2727SOL    HW120240   2.733   4.132   4.528  1.3307 -0.5828 -0.3660
 2727SOL    HW220241   2.586   4.062   4.528  0.3829  1.3766 -1.0157
 2728SOL     OW20242   1.077   0.394   0.594  0.5168  0.5928 -0.3184
 2728SOL    HW120243   1.082   0.342   0.509  4.1983 -0.5310  0.5012
 2728SOL    HW220244   1.165   0.388   0.642 -1.4608  1.2016  3.5718
 2729SOL     OW20245   5.016   4.572   6.517  0.3668 -0.0988 -0.7552
 2729SOL    HW120246   4.959   4.641   6.472  0.4526  0.1659 -0.4648
 2729SOL    HW220247   5.034   4.497   6.454 -2.3984 -1.4012 -0.0802
 2730SOL     OW20248   1.249   4.918   7.582 -0.0254  0.4555  0.0060
 2730SOL    HW120249   1.316   4.889   7.649  0.0504  2.2975  0.7440
 2730SOL    HW220250   1.296   4.957   7.502 -0.1425 -0.9818 -0.7902
 2731SOL     OW20251   8.154   8.564   2.670 -0.2831  0.2340  0.6446
 2731SOL    HW120252   8.118   8.610   2.588  0.1348  0.0176  0.3367
 2731SOL    HW220253   8.129   8.468   2.668  1.6814 -0.2832 -0.3935
 2732SOL     OW20254   9.670   6.128   5.171 -0.0856  0.0155  0.6357
 2732SOL    HW120255   9.623   6.069   5.238  1.1203 -0.9993  0.6004
 2732SOL    HW220256   9.768   6.115   5.178  0.0867  0.4642 -0.8394
 2733SOL     OW20257   0.523   7.131   0.821 -0.3644  0.4024  0.3146
 2733SOL    HW120258   0.594   7.079   0.773 -0.2537 -0.0584  0.9787
 2733SOL    HW220259   0.464   7.175   0.754 -0.7604 -0.9816 -0.2583
 2734SOL     OW20260   3.714   7.635   3.795  0.0537  0.0235 -0.1445
 2734SOL    HW120261   3.715   7.634   3.695 -1.2359  1.3975 -0.1793
 2734SOL    HW220262   3.795   7.683   3.829  0.2606 -0.0487 -0.5355
 2735SOL     OW20263   4.705   5.806   0.258  0.3331  0.0150 -0.0170
 2735SOL    HW120264   4.738   5.791   0.350 -1.4097 -2.4761  0.2721
 2735SOL    HW220265   4.614   5.765   0.248  0.0554  1.1054 -2.5499
 2736SOL     OW20266   0.823   3.845   9.873  0.0247  0.9661 -0.9046
 2736SOL    HW120267   0.898   3.904   9.903 -0.4698  1.1102  0.1060
 2736SOL    HW220268   0.846   3.802   9.786  1.1327  1.2677 -0.7656
 2737SOL     OW20269   4.946   4.007   4.854  0.2764 -0.6642 -0.2959
 2737SOL    HW120270   4.868   3.954   4.889 -0.3368  0.1254 -0.4433
 2737SOL    HW220271   4.951   4.093   4.903  0.5042 -0.3182 -0.9288
 2738SOL     OW20272   9.927   5.403   4.453  0.1289 -0.3726 -0.1850
 2738SOL    HW120273   9.853   5.371   4.512  0.4282  0.4231  0.6430
 2738SOL    HW220274   9.935   5.344   4.373 -0.6816 -1.1082  0.2777
 2739SOL     OW20275   0.830   2.678   3.370 -0.1039  0.3073  0.0434
 2739SOL    HW120276   0.875   2.761   3.336  1.8788 -0.5560  0.5255
 2739SOL    HW220277   0.761   2.703   3.438  1.5091  1.4750  1.2851
 2740SOL     OW20278   0.465   4.640   0.275 -0.1318 -0.2498 -0.1824
 2740SOL    HW120279   0.509   4.705   0.336  0.5266  0.0616 -0.9780
 2740SOL    HW220280   0.535   4.584   0.230 -0.5133  0.4436 -1.6744
 2741SOL     OW20281   3.152   5.641   2.878  0.1008  0.2122  0.0209
 2741SOL    HW120282   3.092   5.713   2.843 -0.8162 -0.7348 -0.4119
 2741SOL    HW220283   3.207   5.604   2.803  0.2642  0.1878  0.1532
 2742SOL     OW20284   1.871   9.752   0.873 -0.0016  0.3637  0.0133
 2742SOL    HW120285   1.858   9.730   0.969 -1.7631  0.3075 -0.2205
 2742SOL    HW220286   1.853   9.670   0.817 -2.2201  1.1895 -0.5565
 2743SOL     OW20287   3.556   5.470   7.254 -0.4757  0.4239 -0.1084
 2743SOL    HW120288   3.488   5.396   7.253  0.4628 -0.4731  0.8415
 2743SOL    HW220289   3.626   5.449   7.322 -0.9078  2.8412  1.1434
 2744SOL     OW20290   3.578   3.569   7.886  0.1346 -0.0649  0.5715
 2744SOL    HW120291   3.544   3.475   7.876  0.7639 -0.3030  0.6632
 2744SOL    HW220292   3.606   3.603   7.796  1.3657 -0.5207  0.7825
 2745SOL     OW20293   0.182   0.058   8.057  0.0073  0.2808 -1.1315
 2745SOL    HW120294   0.203   0.087   7.964 -0.5529 -0.2522 -1.4212
 2745SOL    HW220295   0.146   0.136   8.109  0.6585  0.6669 -1.2483
 2746SOL     OW20296   2.871   4.409   9.999  0.0268  0.3985  0.5073
 2746SOL    HW120297   2.789   4.355  10.016  0.8183 -0.6286  1.1610
 2746SOL    HW220298   2.857   4.502  10.032 -1.2032  0.4950 -0.2552
 2747SOL     OW20299   1.018   9.200   6.108 -0.4609  0.2983  0.3803
 2747SOL    HW120300   0.973   9.244   6.186  0.1483  0.9778  0.3522
 2747SOL    HW220301   1.091   9.140   6.140  2.0894  3.1873  0.2274
 2748SOL     OW20302   4.753   6.517   3.342 -0.0029 -0.1259  0.0514
 2748SOL    HW120303   4.763   6.481   3.434  0.6891 -0.8662 -0.3049
 2748SOL    HW220304   4.840   6.556   3.312 -0.0248 -0.5368 -0.5528
 2749SOL     OW20305   4.149   6.099   0.505 -0.2705 -0.4523 -0.6726
 2749SOL    HW120306   4.051   6.110   0.487 -0.7317  0.4543  2.1265
 2749SOL    HW220307   4.161   6.046   0.589  1.6130  0.4487 -0.3640
 2750SOL     OW20308   1.264   5.815   0.374 -0.2729 -0.2241  0.0799
 2750SOL    HW120309   1.256   5.720   0.404 -0.3798  0.2760  1.6891
 2750SOL    HW220310   1.227   5.824   0.281 -1.2935 -1.5430  0.3381
 2751SOL     OW20311   0.475   9.992   7.713 -0.6244  0.2167 -0.3505
 2751SOL    HW120312   0.490  10.082   7.754  0.2255 -0.4242  0.7865
 2751SOL    HW220313   0.389   9.954   7.747 -0.6647  0.3235 -0.3331
 2752SOL     OW20314   9.797   2.096   3.401 -0.1844 -0.2058  0.4312
 2752SOL    HW120315   9.764   2.095   3.307  0.2580  0.5810  0.2656
 2752SOL    HW220316   9.787   2.005   3.441  1.6375 -1.0838 -1.0722
 2753SOL     OW20317   1.381   6.025   4.616 -0.0817  0.6049  0.7252
 2753SOL    HW120318   1.449   5.975   4.562 -0.8454 -0.3969  0.6848
 2753SOL    HW220319   1.416   6.117   4.636  0.2436  0.9745 -1.4016
 2754SOL     OW20320   4.985   5.101   5.304 -0.2984  0.1015  0.0291
 2754SOL    HW120321   5.058   5.038   5.330 -1.3724 -0.5633  1.5247
 2754SOL    HW220322   4.930   5.061   5.232  0.6446  0.4878 -0.9129
 2755SOL     OW20323   0.429   6.290   9.348 -0.1179  0.0722 -0.7424
 2755SOL    HW120324   0.345   6.259   9.302 -0.1730 -1.8680  0.6007
 2755SOL    HW220325   0.506   6.285   9.284 -0.5983 -0.4433 -1.2905
 2756SOL     OW20326   3.974   1.783   9.130  0.3422  0.2242  0.1333
 2756SOL    HW120327   3.932   1.725   9.201 -3.2127  2.7777  0.2409
 2756SOL    HW220328   4.045   1.841   9.172  0.1563 -0.2054  1.0583
 2757SOL     OW20329   9.438   4.293   4.906 -0.5141 -0.5009 -0.2862
 2757SOL    HW120330   9.480   4.253   4.825  0.1676  0.3137 -0.3466
 2757SOL    HW220331   9.356   4.241   4.931 -0.9049 -0.5663 -1.6740
 2758SOL     OW20332   9.305   3.420   9.134 -0.1883 -0.6505 -0.5116
 2758SOL    HW120333   9.399   3.433   9.166 -0.4532  0.4408 -0.1615
 2758SOL    HW220334   9.257   3.507   9.134 -2.2132 -1.6774  2.5092
 2759SOL     OW20335   2.337   4.986   8.680  0.1968 -0.0871 -0.5008
 2759SOL    HW120336   2.355   4.923   8.755  0.9502  0.4540 -0.2168
 2759SOL    HW220337   2.256   4.956   8.629  0.6386 -1.3749 -0.4713
 2760SOL     OW20338   1.951   8.681   5.309  0.4748  0.2300  0.0540
 2760SOL    HW120339   2.049   8.684   5.331  0.7145 -2.9730 -0.2033
 2760SOL    HW220340   1.898   8.666   5.392  0.4399 -0.4732 -0.0853
 2761SOL     OW20341   6.087   6.282   0.128  0.2280  0.3266 -0.3647
 2761SOL    HW120342   6.128   6.191   0.138  0.2270  0.3468 -0.1863
 2761SOL    HW220343   6.009   6.276   0.066 -0.1559  0.0890  0.1389
 2762SOL     OW20344   0.288   7.769   7.994 -0.4042 -0.1893  0.2191
 2762SOL    HW120345   0.274   7.853   8.046  0.4585  0.1717 -0.1328
 2762SOL    HW220346   0.257   7.783   7.900 -0.0437 -0.1907  0.1000
 2763SOL     OW20347   9.162   2.867   9.968 -0.4018 -0.2384  0.6943
 2763SOL    HW120348   9.227   2.831   9.901  1.5670  1.1569  1.8080
 2763SOL    HW220349   9.151   2.965   9.953 -2.6386 -0.5431  0.2271
 2764SOL     OW20350   2.739   2.079   6.250  0.0388  0.3376 -0.6496
 2764SOL    HW120351   2.695   2.127   6.175 -0.4137  0.1031 -0.5356
 2764SOL    HW220352   2.829   2.047   6.221  0.6306  1.8483 -0.5130
 2765SOL     OW20353   0.840   5.559   3.708 -0.2122  0.3185  0.2578
 2765SOL    HW120354   0.935   5.588   3.700 -0.2544  0.1299 -1.0067
 2765SOL    HW220355   0.780   5.626   3.664 -0.6364  0.2657  0.7453
 2766SOL     OW20356   8.223   5.246   4.652 -0.0859  0.2148 -0.7119
 2766SOL    HW120357   8.218   5.189   4.570  2.3055 -1.8607  0.4931
 2766SOL    HW220358   8.252   5.190   4.730  1.3631  2.8535  0.7393
 2767SOL     OW20359   9.005   0.861   0.524  0.2542 -0.3554  0.1250
 2767SOL    HW120360   9.054   0.881   0.439  1.7611  0.1575  1.0886
 2767SOL    HW220361   9.058   0.895   0.601 -1.4324 -0.1972  1.2372
 2768SOL     OW20362   5.084   8.313   5.798 -0.0965  0.3605  0.1390
 2768SOL    HW120363   5.109   8.407   5.821 -1.2664  0.8448 -0.5025
 2768SOL    HW220364   5.046   8.310   5.706  1.9720 -1.1078 -0.6963
 2769SOL     OW20365   2.978   2.598   7.457  0.1765  0.2758 -0.4683
 2769SOL    HW120366   3.077   2.589   7.452  0.3439  1.4933  0.4691
 2769SOL    HW220367   2.945   2.561   7.543 -0.2908 -0.8667 -1.1196
 2770SOL     OW20368   2.137   2.272   2.098  0.5491 -0.6690 -0.1486
 2770SOL    HW120369   2.182   2.300   2.183  0.9404 -0.4996 -0.4140
 2770SOL    HW220370   2.056   2.330   2.083  2.3813  1.5772 -1.6545
 2771SOL     OW20371   2.635   0.705   7.193  0.2155  0.3006 -0.3765
 2771SOL    HW120372   2.560   0.638   7.186  0.9878 -0.7107  0.7371
 2771SOL    HW220373   2.599   0.792   7.225 -0.2817 -0.6159  1.6292
 2772SOL     OW20374   4.442   5.095   4.805  0.1568  0.2147  0.2981
 2772SOL    HW120375   4.516   5.145   4.761 -1.0983  0.4358 -1.6076
 2772SOL    HW220376   4.476   5.051   4.888  2.1229  1.2824  0.0727
 2773SOL     OW20377   0.369   7.008   3.939  0.1439 -0.1948 -0.4813
 2773SOL    HW120378   0.270   7.011   3.953  0.3264  1.5657  0.6472
 2773SOL    HW220379   0.389   7.001   3.841 -1.0973  0.8481 -0.8299
 2774SOL     OW20380   6.919   1.440   4.129  0.1907  0.8574 -0.0933
 2774SOL    HW120381   6.996   1.424   4.192  0.0888 -1.4374 -0.4899
 2774SOL    HW220382   6.843   1.481   4.180  0.2985 -0.4838  1.1964
 2775SOL     OW20383   1.519   8.750   6.418  0.0808 -0.3562  0.1125
 2775SOL    HW120384   1.451   8.707   6.478 -0.5730  0.5774  0.0615
 2775SOL    HW220385   1.569   8.680   6.367 -0.2389 -1.0945  0.8074
 2776SOL     OW20386   1.613   5.099   0.375  0.1408  0.0172  0.1758
 2776SOL    HW120387   1.589   5.195   0.391 -0.1677 -0.2798  1.4892
 2776SOL    HW220388   1.708   5.094   0.343 -0.0942  0.8166 -0.6926
 2777SOL     OW20389   9.150   9.306   3.235 -0.0023 -0.5541  0.0482
 2777SOL    HW120390   9.120   9.401   3.237  1.8492  0.1006 -1.3166
 2777SOL    HW220391   9.071   9.245   3.243 -1.3029  1.0919 -0.0531
 2778SOL     OW20392   9.869   9.825   9.394 -0.1742 -0.6720  0.5637
 2778SOL    HW120393   9.949   9.771   9.421 -1.3895 -2.9873 -0.2706
 2778SOL    HW220394   9.809   9.836   9.473  0.6028  0.4531  1.0146
 2779SOL     OW20395   0.696   3.978   3.010 -0.0884 -0.3373 -0.2906
 2779SOL    HW120396   0.724   3.884   2.988  2.0694 -0.5081  2.8603
 2779SOL    HW220397   0.630   3.977   3.085 -2.3359  0.5740 -2.1839
 2780SOL     OW20398   6.119   3.708   1.303 -0.2623 -0.0054  0.3066
 2780SOL    HW120399   6.153   3.702   1.209 -2.6766 -0.7432 -0.5628
 2780SOL    HW220400   6.132   3.621   1.349 -2.2852 -0.7583 -0.5105
 2781SOL     OW20401   7.183   3.372   2.379  0.3764 -0.0811  0.1617
 2781SOL    HW120402   7.189   3.407   2.473  0.3187  0.7050 -0.1289
 2781SOL    HW220403   7.167   3.448   2.316 -2.6028 -0.9365 -0.1863
 2782SOL     OW20404   8.786   4.160   6.817  0.0567  0.9210  0.5153
 2782SOL    HW120405   8.851   4.115   6.878  3.4599  1.6764 -2.3727
 2782SOL    HW220406   8.775   4.256   6.844  2.5671  1.6014 -0.7710
 2783SOL     OW20407   9.589   6.840   4.576  0.2759 -0.3757 -0.5214
 2783SOL    HW120408   9.501   6.794   4.585  0.9394 -1.2946  1.6043
 2783SOL    HW220409   9.579   6.920   4.517 -1.5722 -1.4725 -1.7541
 2784SOL     OW20410   9.154   7.393   9.581 -0.4150  0.5260 -0.0543
 2784SOL    HW120411   9.237   7.370   9.632 -0.6120 -1.5522 -0.5967
 2784SOL    HW220412   9.165   7.365   9.486 -1.1971  1.5885 -0.4694
 2785SOL     OW20413   8.165   4.261   9.967 -0.4010  0.2150 -0.0032
 2785SOL    HW120414   8.235   4.254  10.039  0.6427  0.9789 -0.9208
 2785SOL    HW220415   8.196   4.212   9.886  0.0057  2.2381 -1.1136
 2786SOL     OW20416   2.224   4.622   0.554 -0.3852  0.3476  0.6753
 2786SOL    HW120417   2.187   4.617   0.461  3.1336  0.6628 -0.8257
 2786SOL    HW220418   2.226   4.717   0.585  0.0912  0.4556  0.3288
 2787SOL     OW20419   7.347   1.539   5.186  0.3983  0.1816 -0.1843
 2787SOL    HW120420   7.363   1.623   5.239  1.3053 -0.4887  0.6246
 2787SOL    HW220421   7.412   1.534   5.110 -0.4221  0.7798 -0.9349
 2788SOL     OW20422   0.680   2.919   1.832 -0.2235  0.0676 -0.4367
 2788SOL    HW120423   0.690   3.018   1.824  2.0555 -0.0591  0.3055
 2788SOL    HW220424   0.648   2.896   1.924 -1.5799  0.1477 -0.8805
 2789SOL     OW20425   0.184   3.513   5.207 -0.6233 -0.3336 -0.2314
 2789SOL    HW120426   0.212   3.585   5.145 -0.9427  0.3453  0.4056
 2789SOL    HW220427   0.150   3.553   5.292  0.9534 -1.2754  0.8803
 2790SOL     OW20428   7.299   3.391   4.323 -0.1627 -0.2669 -0.1057
 2790SOL    HW120429   7.340   3.314   4.371 -0.3596 -1.0219 -1.1171
 2790SOL    HW220430   7.337   3.397   4.231 -0.5024  0.5442 -0.1953
 2791SOL     OW20431   6.002   0.274   1.716  0.4205  0.0291 -0.0199
 2791SOL    HW120432   5.972   0.203   1.780  1.2749 -0.8853 -0.6150
 2791SOL    HW220433   5.932   0.285   1.645  0.5616 -0.6496 -0.2646
 2792SOL     OW20434   2.807   3.252   8.212 -0.0533  0.0301  0.0905
 2792SOL    HW120435   2.756   3.334   8.187 -0.1355 -0.0043  0.1425
 2792SOL    HW220436   2.744   3.186   8.255 -0.1019 -0.2805 -0.4497
 2793SOL     OW20437   0.890   7.675   4.356 -0.0944 -0.1992 -0.5688
 2793SOL    HW120438   0.914   7.661   4.260 -1.0816 -0.4679 -0.7820
 2793SOL    HW220439   0.873   7.587   4.399  0.6995 -0.1003 -0.0512
 2794SOL     OW20440   9.331   6.399   2.490  0.3314  0.4751 -0.6873
 2794SOL    HW120441   9.261   6.466   2.514  0.0573 -0.2752  0.6508
 2794SOL    HW220442   9.366   6.355   2.573 -0.0563 -1.6121 -1.5901
 2795SOL     OW20443   9.578   0.652   2.251  0.1492  0.0303 -0.2739
 2795SOL    HW120444   9.483   0.646   2.220  0.5175  1.6642 -1.7999
 2795SOL    HW220445   9.613   0.745   2.236  1.8562 -0.4238  0.6760
 2796SOL     OW20446   7.966   4.566   3.633  0.2651 -0.5859  0.0511
 2796SOL    HW120447   7.892   4.550   3.699 -0.2240  0.9427 -0.1215
 2796SOL    HW220448   7.927   4.585   3.543  0.8319  1.1843  0.1677
 2797SOL     OW20449   2.129   0.521   6.195  0.1342 -0.0513 -0.5845
 2797SOL    HW120450   2.185   0.494   6.117  1.1563 -0.4356  0.2672
 2797SOL    HW220451   2.155   0.613   6.223 -0.2136  0.0755 -0.6811
 2798SOL     OW20452   9.216   9.500   8.892 -0.0755 -0.3178 -0.6109
 2798SOL    HW120453   9.255   9.458   8.810 -0.0306  0.4289 -0.9765
 2798SOL    HW220454   9.287   9.548   8.942 -0.4544  0.7858 -1.1172
 2799SOL     OW20455   3.376   4.593   1.936 -0.1927  0.3623 -0.1024
 2799SOL    HW120456   3.331   4.571   2.022  1.8611 -0.3377  0.8250
 2799SOL    HW220457   3.405   4.508   1.891 -1.8649  0.6733 -1.8580
 2800SOL     OW20458   1.774   7.976   7.828  0.3089 -0.1830  0.3837
 2800SOL    HW120459   1.838   7.989   7.753  0.3144  1.2874  0.6278
 2800SOL    HW220460   1.816   7.918   7.898 -0.0656 -2.3924 -1.1636
 2801SOL     OW20461   7.471   1.636   2.862  0.0532  0.4768 -0.2575
 2801SOL    HW120462   7.372   1.643   2.872 -0.0014  2.2320 -1.7932
 2801SOL    HW220463   7.500   1.542   2.880 -2.0195 -0.3066 -0.8611
 2802SOL     OW20464   4.293   4.927   2.378  0.8789 -0.3151  0.3280
 2802SOL    HW120465   4.296   4.856   2.449  0.7120 -1.5124 -0.8525
 2802SOL    HW220466   4.387   4.955   2.356  0.9482 -0.2368  0.7076
 2803SOL     OW20467   1.388   5.656   2.438 -0.1927  0.1704 -0.2988
 2803SOL    HW120468   1.320   5.627   2.371  0.6495 -1.4246 -0.5014
 2803SOL    HW220469   1.451   5.721   2.396 -1.3693  1.3921 -0.2077
 2804SOL     OW20470   7.598   0.094   1.898  0.6354 -0.3501 -0.5026
 2804SOL    HW120471   7.535   0.039   1.842  0.5707  0.9301 -1.7164
 2804SOL    HW220472   7.588   0.068   1.994 -0.9972 -0.9161 -0.7975
 2805SOL     OW20473   4.984   6.513   3.736 -0.4494 -0.5088  0.4033
 2805SOL    HW120474   5.014   6.584   3.673 -1.6399  0.3638  0.8116
 2805SOL    HW220475   5.003   6.423   3.696 -0.5313  0.0373 -0.8722
 2806SOL     OW20476   2.999   2.812   4.162  0.0718 -0.1123 -0.1251
 2806SOL    HW120477   2.951   2.813   4.075 -0.7005 -1.6725  0.2628
 2806SOL    HW220478   2.932   2.807   4.237  0.6918  2.0310  0.5965
 2807SOL     OW20479   9.192   2.551   1.516 -0.2222  0.5164  0.6635
 2807SOL    HW120480   9.180   2.609   1.435  1.9568  1.3770  0.9352
 2807SOL    HW220481   9.153   2.461   1.498 -0.9682  1.1151 -0.8447
 2808SOL     OW20482   7.257   3.349   2.662 -0.1155 -0.1004  0.4124
 2808SOL    HW120483   7.235   3.266   2.610  1.5497 -0.5614  0.4299
 2808SOL    HW220484   7.181   3.370   2.724 -1.0008 -1.0128 -0.3406
 2809SOL     OW20485   2.046   3.977   1.793  0.0593  0.1458 -0.2008
 2809SOL    HW120486   2.046   4.075   1.812 -0.3291  0.4563 -1.7211
 2809SOL    HW220487   2.115   3.956   1.724  0.3141 -0.7023  0.2929
 2810SOL     OW20488   1.628   8.746   5.644 -0.2850  0.2671 -0.0726
 2810SOL    HW120489   1.702   8.812   5.629 -1.5269  1.9022  0.8182
 2810SOL    HW220490   1.576   8.735   5.559 -0.3618  0.7837 -0.0936
 2811SOL     OW20491   0.613   2.867   2.090 -0.2748 -0.0417  0.0951
 2811SOL    HW120492   0.692   2.894   2.146  0.6727  0.6362 -1.5239
 2811SOL    HW220493   0.597   2.769   2.100  1.3188 -0.3537 -0.1890
 2812SOL     OW20494   9.532   5.994   3.975  0.3471  0.2448 -0.1472
 2812SOL    HW120495   9.433   6.010   3.972  0.5615  1.6841  0.0883
 2812SOL    HW220496   9.565   6.013   4.067  0.7479 -0.8453 -0.0665
 2813SOL     OW20497   2.080   6.169   3.052  0.1004  0.1159 -0.5365
 2813SOL    HW120498   2.007   6.222   3.096 -0.6045  1.5550 -3.3159
 2813SOL    HW220499   2.046   6.077   3.031 -0.1323  0.0065  0.2732
 2814SOL     OW20500   2.067   8.423   9.771  0.1915 -0.3471 -0.2649
 2814SOL    HW120501   2.003   8.381   9.835  1.0449 -0.6559  0.4071
 2814SOL    HW220502   2.106   8.506   9.813 -0.1313  0.1002 -0.8550
 2815SOL     OW20503   4.456   6.585   4.307  0.2884  0.1399 -0.2408
 2815SOL    HW120504   4.536   6.547   4.261  0.3118  1.7319 -1.5299
 2815SOL    HW220505   4.374   6.564   4.254  0.3959  2.6116 -1.4689
 2816SOL     OW20506   4.096   8.186   8.312  0.4468  0.4967  0.4330
 2816SOL    HW120507   4.110   8.097   8.269 -0.8170 -0.1254  1.2830
 2816SOL    HW220508   4.022   8.180   8.379 -0.7533  2.5776 -0.6548
 2817SOL     OW20509   0.396   7.511   3.819  0.2622 -0.0131  0.0220
 2817SOL    HW120510   0.356   7.571   3.888  2.1198  1.6276 -0.3111
 2817SOL    HW220511   0.322   7.463   3.771 -1.1295  0.0580  1.9906
 2818SOL     OW20512   7.235   5.592   3.118 -0.1551  0.0102 -0.1838
 2818SOL    HW120513   7.292   5.652   3.174  0.0804  1.8825 -2.3391
 2818SOL    HW220514   7.140   5.621   3.123 -0.0308  0.6404 -1.2931
 2819SOL     OW20515   6.145   5.844   3.474 -0.4875 -0.1964 -0.1254
 2819SOL    HW120516   6.065   5.797   3.437 -2.0147  1.4728  0.9416
 2819SOL    HW220517   6.135   5.853   3.574  1.3958 -0.6462  0.1056
 2820SOL     OW20518   5.837   7.532   4.169  0.0146  0.3929 -0.3938
 2820SOL    HW120519   5.825   7.591   4.089  2.1868  1.0961 -0.2442
 2820SOL    HW220520   5.885   7.448   4.143  2.1962  1.3483  0.4218
 2821SOL     OW20521   8.971   6.154   6.377  0.3775 -0.5087 -0.4129
 2821SOL    HW120522   9.052   6.180   6.324  0.2009 -0.2879 -0.5782
 2821SOL    HW220523   8.891   6.200   6.339  0.2885 -0.1467  0.1978
 2822SOL     OW20524   1.982   1.353   0.240  0.3896  0.2547  0.1490
 2822SOL    HW120525   1.884   1.352   0.257  0.4671 -1.9021  0.5252
 2822SOL    HW220526   2.031   1.333   0.325  1.0809 -1.0512 -0.5460
 2823SOL     OW20527   3.377   9.489   1.017  0.0220  0.1058 -0.6864
 2823SOL    HW120528   3.477   9.483   1.028  0.0814  0.8739 -0.7699
 2823SOL    HW220529   3.352   9.583   0.996 -0.4228 -0.6176 -3.6768
 2824SOL     OW20530   3.514   1.796   1.939  0.4494  0.3175 -0.1874
 2824SOL    HW120531   3.517   1.745   1.853 -2.2178 -0.8787  0.3557
 2824SOL    HW220532   3.421   1.829   1.954  1.0327  1.0581  1.9329
 2825SOL     OW20533   7.073   2.792   9.222  0.5854  0.6859  0.1299
 2825SOL    HW120534   7.171   2.805   9.211  1.2613 -1.3463  3.2341
 2825SOL    HW220535   7.040   2.848   9.298  0.2481 -1.9557  2.0183
 2826SOL     OW20536   0.959   9.866   5.168 -0.1926 -0.2186 -0.8046
 2826SOL    HW120537   0.890   9.839   5.101 -0.3876 -0.4346 -0.5218
 2826SOL    HW220538   0.948   9.963   5.191 -0.4504 -0.2677 -0.7107
 2827SOL     OW20539   1.378   4.251   0.579 -0.1661 -0.4400 -0.0755
 2827SOL    HW120540   1.394   4.293   0.668 -0.9168  0.5747 -0.4119
 2827SOL    HW220541   1.312   4.306   0.528  1.7369  0.0739 -2.0474
 2828SOL     OW20542   1.361   5.239   2.376  0.0673 -0.0604 -0.3835
 2828SOL    HW120543   1.355   5.141   2.397 -1.8206 -0.1028 -1.0141
 2828SOL    HW220544   1.340   5.292   2.459 -2.5510 -0.2288 -0.8729
 2829SOL     OW20545   3.208   1.029   4.792 -0.0942  0.1645  0.0921
 2829SOL    HW120546   3.110   1.009   4.794  0.0231 -0.3115  1.2988
 2829SOL    HW220547   3.260   0.945   4.781  0.1583  0.5098 -1.4759
 2830SOL     OW20548   3.399   9.356   1.418  0.3119 -0.0874 -0.6121
 2830SOL    HW120549   3.313   9.387   1.377 -0.9606 -0.1301  1.8702
 2830SOL    HW220550   3.422   9.265   1.384 -0.7464 -0.1558 -1.1539
 2831SOL     OW20551   0.525   5.537   7.576 -0.4991 -0.1396  0.3363
 2831SOL    HW120552   0.510   5.526   7.675 -2.9031  0.4720  0.0735
 2831SOL    HW220553   0.452   5.490   7.526  0.3685  0.0698 -1.1617
 2832SOL     OW20554   8.866   8.464   3.519 -0.5347  0.2150 -0.3908
 2832SOL    HW120555   8.834   8.557   3.537 -0.1280  0.5647 -1.4600
 2832SOL    HW220556   8.787   8.404   3.508 -0.7986  0.3954  0.4653
 2833SOL     OW20557   7.096   7.479   5.270  0.1426  0.2062 -0.3380
 2833SOL    HW120558   7.121   7.439   5.182  1.5795  1.2170 -0.4007
 2833SOL    HW220559   6.997   7.469   5.283  0.4112 -3.2346 -0.3822
 2834SOL     OW20560   9.217   4.973   1.797  0.0403 -0.3560 -0.4047
 2834SOL    HW120561   9.211   5.071   1.781 -0.3035 -0.2268  0.4669
 2834SOL    HW220562   9.313   4.945   1.797  0.1880  0.1379  0.2022
 2835SOL     OW20563   0.111   4.397   0.153  0.0994 -0.2633 -0.0226
 2835SOL    HW120564   0.196   4.345   0.144  1.0538  1.5205 -1.8407
 2835SOL    HW220565   0.050   4.375   0.076  0.1533  0.6368 -0.3303
 2836SOL     OW20566   2.862   3.993   5.751 -0.9128 -0.1614 -0.4904
 2836SOL    HW120567   2.846   4.092   5.751 -2.2673 -0.3621 -0.2002
 2836SOL    HW220568   2.779   3.947   5.783  0.0848 -1.3317  0.4595
 2837SOL     OW20569   9.349   6.883   2.053  0.2375 -0.0669  0.2212
 2837SOL    HW120570   9.271   6.865   1.993  1.0188  1.0867 -1.1672
 2837SOL    HW220571   9.427   6.827   2.026  0.1290 -0.6738  1.1375
 2838SOL     OW20572   9.509   6.005   2.242 -0.2642 -0.1988 -0.3292
 2838SOL    HW120573   9.577   6.048   2.301  0.6961 -1.3101 -0.5994
 2838SOL    HW220574   9.516   5.905   2.249 -1.2069 -0.3360 -1.1076
 2839SOL     OW20575   1.236   3.870   5.293  0.1043  0.1184 -0.5502
 2839SOL    HW120576   1.332   3.844   5.284  0.7477  1.7441  1.1803
 2839SOL    HW220577   1.179   3.788   5.294  1.6410 -0.9590  0.2023
 2840SOL     OW20578   8.580   8.505   3.823 -0.7936 -0.2133 -0.2739
 2840SOL    HW120579   8.495   8.455   3.807 -0.6677 -0.4178 -0.3124
 2840SOL    HW220580   8.607   8.554   3.741 -1.7014  1.1291  0.2134
 2841SOL     OW20581   9.965   4.768   2.424  0.0089 -0.2350  0.4694
 2841SOL    HW120582   9.886   4.709   2.436  0.6476 -1.0959  0.4786
 2841SOL    HW220583   9.978   4.825   2.505  0.6723 -1.6334  1.3572
 2842SOL     OW20584   0.733   3.165   1.284  0.1116 -0.5721 -0.3006
 2842SOL    HW120585   0.764   3.229   1.354 -0.9063 -0.3440 -0.0457
 2842SOL    HW220586   0.695   3.216   1.207  0.9873 -0.8299 -0.9080
 2843SOL     OW20587   6.226   3.394   0.948 -0.0196 -0.4697 -0.9363
 2843SOL    HW120588   6.215   3.366   1.043 -0.3513  1.2220 -0.4584
 2843SOL    HW220589   6.187   3.325   0.887 -1.2173 -0.8170  0.2186
 2844SOL     OW20590   1.838   6.841   1.473 -0.3509 -0.0139  0.0929
 2844SOL    HW120591   1.908   6.839   1.544  1.1513 -0.2084 -1.3429
 2844SOL    HW220592   1.811   6.747   1.450  2.0632 -0.2010 -2.2979
 2845SOL     OW20593   0.468   5.927   8.879  0.1165 -0.0853  0.2033
 2845SOL    HW120594   0.508   5.850   8.830  1.7278  1.6454 -1.2808
 2845SOL    HW220595   0.510   6.012   8.847 -2.2544  1.4926  1.1626
 2846SOL     OW20596   7.726   3.800   2.880  0.0968  0.0227  0.5184
 2846SOL    HW120597   7.638   3.808   2.927 -0.7305 -0.1737 -0.9392
 2846SOL    HW220598   7.743   3.883   2.826  0.5149 -0.1784  0.3357
 2847SOL     OW20599   7.511   5.830   2.866 -0.0250 -0.4061  0.1476
 2847SOL    HW120600   7.457   5.835   2.782  0.4689  1.2174 -0.0964
 2847SOL    HW220601   7.608   5.833   2.844  0.1477 -1.7871  0.6786
 2848SOL     OW20602   0.512   2.694   8.037  0.1652  0.0686 -0.0464
 2848SOL    HW120603   0.451   2.619   8.065  0.1709  0.3851  0.8285
 2848SOL    HW220604   0.601   2.683   8.082  0.8253 -0.4886 -1.4542
 2849SOL     OW20605   3.906   7.463   4.998 -0.2355  0.6502  0.5438
 2849SOL    HW120606   3.964   7.492   4.922 -0.0317  0.6808  0.7086
 2849SOL    HW220607   3.852   7.540   5.030 -0.2552  0.6592  0.4891
 2850SOL     OW20608   0.073   7.654   3.777  0.3140 -0.6034 -0.4912
 2850SOL    HW120609   0.103   7.668   3.871 -0.3300  0.9450 -0.4953
 2850SOL    HW220610   0.117   7.721   3.718  0.5072 -1.3989 -1.2469
 2851SOL     OW20611   7.718   5.198   8.291 -0.1811 -0.0660  0.4788
 2851SOL    HW120612   7.688   5.119   8.345  1.3804 -0.8089  0.2836
 2851SOL    HW220613   7.688   5.186   8.196 -2.6956  1.1157  1.0793
 2852SOL     OW20614   2.153   2.759   5.738 -0.7543  0.0380 -0.0515
 2852SOL    HW120615   2.176   2.842   5.687 -0.1184 -0.1577 -0.0826
 2852SOL    HW220616   2.080   2.710   5.689  0.3477 -0.5205 -1.1651
 2853SOL     OW20617   1.029   8.383   8.710  0.3198  0.1407 -0.4660
 2853SOL    HW120618   1.035   8.382   8.610 -1.6873  0.2821 -0.5981
 2853SOL    HW220619   1.119   8.404   8.748  1.2691 -0.6111 -2.2142
 2854SOL     OW20620   5.300   5.112   3.492  0.5432  0.8579 -0.3658
 2854SOL    HW120621   5.223   5.091   3.553  0.8163  0.3640 -0.1829
 2854SOL    HW220622   5.333   5.204   3.511 -0.0578  1.1065 -0.5066
 2855SOL     OW20623   9.859   4.616   1.077 -0.4653 -0.7057 -0.8332
 2855SOL    HW120624   9.878   4.683   1.005 -1.4932 -0.5843 -1.0008
 2855SOL    HW220625   9.908   4.531   1.058 -0.4506 -0.5515 -1.4934
 2856SOL     OW20626   3.586   1.585   3.834 -0.3999 -0.1461 -0.2605
 2856SOL    HW120627   3.644   1.627   3.904  2.3166  0.7966 -2.9470
 2856SOL    HW220628   3.497   1.630   3.833  0.4581  1.6243  0.8406
 2857SOL     OW20629   7.330   5.347   2.456 -0.6329  0.1445  0.0399
 2857SOL    HW120630   7.315   5.445   2.443 -0.2925  0.4928  2.1907
 2857SOL    HW220631   7.270   5.313   2.529  0.0284 -1.0284  0.0481
 2858SOL     OW20632   9.956   1.972   5.358  0.1631 -0.2293 -0.0465
 2858SOL    HW120633   9.922   2.062   5.331  2.3832  1.0008  1.1079
 2858SOL    HW220634  10.054   1.978   5.377  0.3913 -2.9652 -0.2169
 2859SOL     OW20635   8.368   4.466   0.272 -0.2961 -0.3632  0.0035
 2859SOL    HW120636   8.357   4.541   0.206  3.9589  2.5941  2.4131
 2859SOL    HW220637   8.304   4.479   0.348 -0.2911  0.2143 -0.0888
 2860SOL     OW20638   1.100   4.180   3.846  0.3868 -0.0135 -0.1900
 2860SOL    HW120639   1.051   4.095   3.864 -0.7082  0.5973 -0.2541
 2860SOL    HW220640   1.061   4.253   3.902  1.1142  0.5203 -0.3704
 2861SOL     OW20641   0.715   2.094   0.661  0.9828 -0.3356 -0.2338
 2861SOL    HW120642   0.698   2.177   0.607 -0.0567  0.0725  0.7076
 2861SOL    HW220643   0.675   2.016   0.613  1.1374 -0.1600 -0.6595
 2862SOL     OW20644   0.498   5.335   5.065  0.1187 -0.1813  0.3303
 2862SOL    HW120645   0.445   5.250   5.072  0.2687 -0.5837 -2.7905
 2862SOL    HW220646   0.582   5.326   5.119 -0.9399 -1.1505  1.8455
 2863SOL     OW20647   6.085   5.074   2.647  0.0260  0.1000 -0.0809
 2863SOL    HW120648   6.012   5.016   2.611 -0.2272  0.2222  0.2272
 2863SOL    HW220649   6.107   5.046   2.741  0.8292 -0.3539 -0.4008
 2864SOL     OW20650   4.018   2.915   8.604 -0.3490 -0.2703 -0.3657
 2864SOL    HW120651   3.954   2.966   8.547 -0.6492  0.2952  0.4591
 2864SOL    HW220652   4.106   2.962   8.607 -0.8041  0.5335  0.8663
 2865SOL     OW20653   5.209   8.813   5.601 -0.3179  0.5120  0.4022
 2865SOL    HW120654   5.288   8.871   5.621 -0.6386  0.6881  1.1564
 2865SOL    HW220655   5.234   8.748   5.529  1.0643 -0.5981  1.8372
 2866SOL     OW20656   0.452   1.896   7.680 -0.5059  0.4752 -0.3460
 2866SOL    HW120657   0.533   1.954   7.689 -1.7747  2.8191 -3.2177
 2866SOL    HW220658   0.456   1.846   7.594 -2.2074  0.8103 -0.6448
 2867SOL     OW20659   0.535   2.091   4.339 -0.4087  0.6982 -0.0087
 2867SOL    HW120660   0.528   2.176   4.287 -1.6559 -0.9280 -2.5939
 2867SOL    HW220661   0.443   2.052   4.351  0.3949 -1.6625 -1.2429
 2868SOL     OW20662   6.708   4.432   7.432 -0.7715 -0.3286 -0.0574
 2868SOL    HW120663   6.740   4.452   7.340 -0.0553 -0.3852  0.1757
 2868SOL    HW220664   6.655   4.509   7.467 -0.8058 -0.1940 -0.4060
 2869SOL     OW20665   8.588   2.234   4.968 -0.0702  0.1773 -0.5703
 2869SOL    HW120666   8.506   2.272   4.926 -0.0806  2.3220  1.3101
 2869SOL    HW220667   8.668   2.286   4.939  0.2350  0.0241 -0.0134
 2870SOL     OW20668   8.741   6.470   4.576  0.4671 -0.2321 -0.7629
 2870SOL    HW120669   8.768   6.395   4.515  2.2525 -0.0346 -0.2269
 2870SOL    HW220670   8.711   6.432   4.664  0.3570 -0.3678 -0.8581
 2871SOL     OW20671   9.586   6.095   4.240  0.7889  0.3834  0.2015
 2871SOL    HW120672   9.658   6.080   4.309  0.8042 -1.4221 -0.1685
 2871SOL    HW220673   9.497   6.076   4.280  0.7519 -0.1216 -0.1146
 2872SOL     OW20674   3.899   6.850   3.288 -0.0418 -0.5369  0.6404
 2872SOL    HW120675   3.914   6.940   3.247 -0.4356  0.5024  2.7105
 2872SOL    HW220676   3.805   6.844   3.323  0.9068 -0.5784  3.2942
 2873SOL     OW20677   5.900   5.358   2.073  0.1907 -0.0770  0.2305
 2873SOL    HW120678   5.842   5.385   1.997 -1.4360 -2.2628  0.6641
 2873SOL    HW220679   5.985   5.317   2.038 -1.2007 -2.4537 -0.4637
 2874SOL     OW20680   1.476   9.325   5.675 -0.3733  0.3381 -0.6151
 2874SOL    HW120681   1.383   9.361   5.671 -0.2851  0.4977 -1.2883
 2874SOL    HW220682   1.477   9.240   5.726 -0.7008  0.9349  0.3996
 2875SOL     OW20683   1.264   3.145   0.512 -0.3821 -0.6853  0.1206
 2875SOL    HW120684   1.299   3.051   0.503 -0.8561 -1.0744  2.0600
 2875SOL    HW220685   1.165   3.145   0.500 -0.3499 -0.3780 -0.1605
 2876SOL     OW20686   9.106   0.210   1.213 -0.0365 -0.2114  0.4356
 2876SOL    HW120687   9.020   0.230   1.166  1.1354  4.1361 -0.0673
 2876SOL    HW220688   9.089   0.191   1.309 -1.5808 -0.0299  0.2042
 2877SOL     OW20689   8.989   3.793   4.755 -0.3040  0.2546  0.2096
 2877SOL    HW120690   9.030   3.844   4.679  1.3300 -0.0679  0.8459
 2877SOL    HW220691   8.903   3.837   4.782  0.1713  1.6225 -0.4279
 2878SOL     OW20692   0.399   8.617   9.745  0.1404  0.3115 -0.0458
 2878SOL    HW120693   0.428   8.678   9.818 -1.9511  1.4703 -0.1328
 2878SOL    HW220694   0.384   8.670   9.661 -0.1515 -0.5782 -0.5685
 2879SOL     OW20695   0.491   1.654   0.468 -0.8460 -0.0592 -0.3440
 2879SOL    HW120696   0.549   1.691   0.541  0.3174  1.2931 -1.8918
 2879SOL    HW220697   0.438   1.577   0.503  2.1953 -1.6200  1.0274
 2880SOL     OW20698   9.588   7.855   2.400 -0.3182  0.2217  0.0994
 2880SOL    HW120699   9.670   7.890   2.354  0.3437  0.1270  1.1898
 2880SOL    HW220700   9.603   7.759   2.424 -0.3817  0.4722  1.1523
 2881SOL     OW20701   7.155   2.739   2.804  0.2184 -0.5548 -1.0890
 2881SOL    HW120702   7.081   2.766   2.866 -0.6807 -2.2718 -1.3977
 2881SOL    HW220703   7.117   2.714   2.715  1.1031 -2.0141 -1.0678
 2882SOL     OW20704   9.195   6.639   7.135 -0.1607 -0.2509 -0.1366
 2882SOL    HW120705   9.133   6.586   7.077 -1.2982  3.0477 -2.1135
 2882SOL    HW220706   9.280   6.658   7.086 -0.6640  1.5898 -0.3412
 2883SOL     OW20707   9.701   4.155   1.273  0.3614  0.1102  0.4074
 2883SOL    HW120708   9.617   4.161   1.220  1.8039  1.7888 -1.7625
 2883SOL    HW220709   9.780   4.165   1.212  2.1016  0.7738  2.6886
 2884SOL     OW20710   4.873   6.019   1.864  0.5079  0.2740 -0.0934
 2884SOL    HW120711   4.969   6.028   1.834  0.5599  0.1545  0.0379
 2884SOL    HW220712   4.824   6.103   1.841  0.6767  0.3889 -0.0452
 2885SOL     OW20713   2.742   2.175   7.754  0.3369  0.1957  0.3390
 2885SOL    HW120714   2.703   2.184   7.663 -0.5410  1.8027  0.8656
 2885SOL    HW220715   2.676   2.131   7.815  0.5074  0.1388  0.4846
 2886SOL     OW20716   0.299   3.287   9.275  0.4121  0.3064  0.7509
 2886SOL    HW120717   0.281   3.302   9.372 -0.8906  2.6635  0.1761
 2886SOL    HW220718   0.393   3.315   9.253  0.9621 -0.9416  1.4497
 2887SOL     OW20719   3.112   9.438   0.187 -0.1155  0.6937  0.4541
 2887SOL    HW120720   3.076   9.531   0.182 -0.0600  0.6770 -0.4771
 2887SOL    HW220721   3.176   9.424   0.111  1.3848  0.5261  1.7210
 2888SOL     OW20722   5.586   3.979   1.585 -0.7254 -0.8903 -0.2448
 2888SOL    HW120723   5.644   3.904   1.553 -0.6850 -0.5184 -1.0787
 2888SOL    HW220724   5.642   4.060   1.599 -0.9454 -0.6991 -0.4645
 2889SOL     OW20725   5.458   6.946   2.372 -0.5486  0.6438 -0.2969
 2889SOL    HW120726   5.361   6.959   2.352 -0.7747 -1.0765 -0.4312
 2889SOL    HW220727   5.489   6.860   2.330  0.9669  1.0571 -0.0478
 2890SOL     OW20728   4.650   9.471   7.624 -0.4340 -0.4491  0.0139
 2890SOL    HW120729   4.560   9.428   7.635 -0.2620 -0.5843  0.9480
 2890SOL    HW220730   4.695   9.478   7.713  0.1842  0.2826 -0.3472
 2891SOL     OW20731   1.307   1.943   1.146  0.2445  0.1725  0.0537
 2891SOL    HW120732   1.296   1.926   1.048 -0.0402  1.9094 -0.2296
 2891SOL    HW220733   1.235   2.004   1.178 -0.5007 -1.5091  1.6654
 2892SOL     OW20734   3.347   3.024   6.682  0.8888  0.3613 -0.7337
 2892SOL    HW120735   3.287   2.971   6.742  0.3922  0.7558 -0.8861
 2892SOL    HW220736   3.392   2.962   6.618  0.9863  0.0099 -0.3265
 2893SOL     OW20737   0.065   4.451   1.025  0.2616  0.0791 -0.1138
 2893SOL    HW120738   0.130   4.454   0.949 -0.1220  0.8817 -0.4185
 2893SOL    HW220739   0.109   4.485   1.108 -0.1979  2.0472 -0.6516
 2894SOL     OW20740   2.211   6.837   3.161  0.0361 -0.0656 -0.2733
 2894SOL    HW120741   2.242   6.742   3.169  0.6073  0.2709  1.8687
 2894SOL    HW220742   2.151   6.858   3.238  1.5543  1.9211  0.3929
 2895SOL     OW20743   9.930   2.450   3.935  0.2947  0.6921 -0.1847
 2895SOL    HW120744   9.881   2.521   3.986 -0.2386 -1.5075  2.4502
 2895SOL    HW220745   9.877   2.425   3.854 -1.9124 -0.0703  1.4534
 2896SOL     OW20746   2.987   8.785   7.428  0.8501  0.0187  0.2030
 2896SOL    HW120747   2.959   8.767   7.334  0.2322  0.5842  0.2789
 2896SOL    HW220748   3.055   8.717   7.456  2.4938  1.0152 -1.3063
 2897SOL     OW20749   4.485   6.408   2.974 -0.1715 -0.4640 -0.6375
 2897SOL    HW120750   4.563   6.450   3.020 -0.3632  0.3868 -1.0719
 2897SOL    HW220751   4.508   6.391   2.878  0.4825 -2.9105 -0.0759
 2898SOL     OW20752   3.382   1.080   7.064  0.0473 -0.1555  0.1668
 2898SOL    HW120753   3.361   1.130   7.148 -0.9591 -0.2204 -0.0369
 2898SOL    HW220754   3.297   1.045   7.024  0.3676  0.9594 -1.5651
 2899SOL     OW20755   3.943   8.452   2.351  0.1517  0.6370 -0.1141
 2899SOL    HW120756   3.935   8.533   2.294  1.7513  1.2833  0.5554
 2899SOL    HW220757   3.902   8.471   2.441 -2.3466 -0.3708 -0.9875
 2900SOL     OW20758   0.646   2.000   4.975 -0.0404 -0.3174  0.0263
 2900SOL    HW120759   0.683   1.920   4.930 -1.8779 -1.4006  0.3829
 2900SOL    HW220760   0.567   2.034   4.923  0.0027  0.5342  0.5111
 2901SOL     OW20761   5.893   4.325   0.862  0.4702  0.1894 -0.1849
 2901SOL    HW120762   5.991   4.313   0.878  0.6085  1.3361 -0.1074
 2901SOL    HW220763   5.858   4.248   0.808  1.4806 -0.0641 -0.4924
 2902SOL     OW20764   8.555   3.301   5.105  0.2152 -0.1799  0.2894
 2902SOL    HW120765   8.552   3.321   5.203  1.1131  0.3925  0.2037
 2902SOL    HW220766   8.553   3.386   5.053 -0.8417 -0.5058 -0.2080
 2903SOL     OW20767   0.750   3.425   6.342  0.3004 -0.2032  0.0689
 2903SOL    HW120768   0.771   3.333   6.377 -0.0216 -0.2450  0.1485
 2903SOL    HW220769   0.683   3.418   6.269  0.3713 -0.0412 -0.0110
 2904SOL     OW20770   4.913   6.070   1.223  0.4715  0.1041 -0.2226
 2904SOL    HW120771   4.972   6.077   1.142 -1.2483  0.4751 -1.4796
 2904SOL    HW220772   4.908   5.975   1.252  2.1290  0.1441  0.2564
 2905SOL     OW20773   8.793   3.564   6.097 -0.1226 -0.0939 -0.1143
 2905SOL    HW120774   8.798   3.639   6.164  0.2324 -0.5288  0.3506
 2905SOL    HW220775   8.776   3.478   6.145  2.0254 -0.6931 -0.3898
 2906SOL     OW20776   2.896   5.457   3.286  0.1338  0.0189  0.2442
 2906SOL    HW120777   2.957   5.456   3.206  0.0409  1.8080  0.1308
 2906SOL    HW220778   2.804   5.484   3.257 -0.2027 -0.6048  0.7444
 2907SOL     OW20779   7.992   3.912   2.793  0.4685  0.4808  0.6317
 2907SOL    HW120780   7.905   3.924   2.746 -1.7039  0.5826  4.4569
 2907SOL    HW220781   8.045   3.996   2.787 -0.7936  1.2713  0.3543
 2908SOL     OW20782   0.366   2.850   4.761 -0.8306  0.4444 -0.7645
 2908SOL    HW120783   0.300   2.803   4.820  1.3186 -0.8050  0.6829
 2908SOL    HW220784   0.414   2.920   4.814  1.2849 -0.8501 -0.9596
 2909SOL     OW20785   2.508   2.334   3.359  0.0110 -0.0234 -0.3829
 2909SOL    HW120786   2.538   2.402   3.426  0.5810  1.1183 -1.7785
 2909SOL    HW220787   2.567   2.338   3.278  0.9567 -3.1558  0.0532
 2910SOL     OW20788   8.239   1.505   6.134  0.5471  0.1877  0.3741
 2910SOL    HW120789   8.191   1.579   6.087 -1.1871 -0.6008  0.8581
 2910SOL    HW220790   8.223   1.512   6.232  1.1677 -0.2705  0.5066
 2911SOL     OW20791   5.449   2.706   9.613 -0.3819 -0.1914  0.2742
 2911SOL    HW120792   5.527   2.644   9.615  0.4965  0.8927  0.0175
 2911SOL    HW220793   5.390   2.689   9.692  0.2215 -0.8615  0.5837
 2912SOL     OW20794   0.880   0.803   3.407  0.1965  0.8417 -0.2526
 2912SOL    HW120795   0.887   0.891   3.360  0.9986  0.5340 -0.7199
 2912SOL    HW220796   0.814   0.745   3.359 -3.5349  2.6513  2.4195
 2913SOL     OW20797   8.182   3.379   4.335  0.0693  0.2772 -0.5194
 2913SOL    HW120798   8.224   3.423   4.414  0.6939  1.4604 -1.4878
 2913SOL    HW220799   8.252   3.339   4.277 -0.2858  0.4265 -1.0626
 2914SOL     OW20800   4.663   1.238   3.185  0.0223  0.0281  0.3513
 2914SOL    HW120801   4.720   1.279   3.114  2.3843 -0.5492  1.8500
 2914SOL    HW220802   4.567   1.254   3.164  0.7556  2.3450 -1.4653
 2915SOL     OW20803   7.485   1.889   2.987 -0.4424 -0.2121  0.7504
 2915SOL    HW120804   7.483   1.805   2.934  0.6154  0.0806  0.2283
 2915SOL    HW220805   7.565   1.889   3.047  0.8157  1.3332 -0.8367
 2916SOL     OW20806   0.454   2.377   7.417 -0.4735  0.1010  0.0391
 2916SOL    HW120807   0.505   2.463   7.405  0.7144 -0.5798  0.1063
 2916SOL    HW220808   0.395   2.385   7.497  0.2418  0.5701  0.5253
 2917SOL     OW20809   3.581   3.682   5.363 -0.2778  0.4266  0.0235
 2917SOL    HW120810   3.569   3.607   5.298  1.1379  1.1817 -1.1399
 2917SOL    HW220811   3.569   3.648   5.456 -1.1897 -0.9103 -0.5747
 2918SOL     OW20812   3.811   9.054   2.489  0.5683 -0.1537 -0.4480
 2918SOL    HW120813   3.900   9.034   2.531  0.5690 -1.5536 -1.0831
 2918SOL    HW220814   3.750   9.094   2.558  0.0918 -3.7659  1.3674
 2919SOL     OW20815   9.876   4.236   6.049 -0.0469  0.0149  0.1922
 2919SOL    HW120816   9.826   4.320   6.070  0.2114  0.9538 -2.6763
 2919SOL    HW220817   9.937   4.213   6.125  0.5360  2.9304  0.6637
 2920SOL     OW20818   2.650   3.266   7.820 -0.1303 -0.0252  0.1099
 2920SOL    HW120819   2.675   3.193   7.884  0.6950  1.7834  1.9169
 2920SOL    HW220820   2.730   3.293   7.767 -0.2878 -0.0207 -0.1269
 2921SOL     OW20821   8.109   2.379   0.239  0.1087 -0.2996 -0.2540
 2921SOL    HW120822   8.208   2.372   0.230  0.0089 -2.4310  0.1829
 2921SOL    HW220823   8.080   2.339   0.326 -1.1938 -0.2084 -0.6373
 2922SOL     OW20824   0.780   5.450   7.111 -0.5627 -0.4676 -0.6494
 2922SOL    HW120825   0.753   5.361   7.148  0.3444 -0.7976 -0.7625
 2922SOL    HW220826   0.775   5.448   7.012  1.2178 -0.9873 -0.7428
 2923SOL     OW20827   9.348   1.141   2.426 -0.2068 -0.4230 -0.3436
 2923SOL    HW120828   9.294   1.158   2.344 -1.9965  0.1101  0.9077
 2923SOL    HW220829   9.326   1.049   2.462  0.4887 -0.6155 -0.4164
 2924SOL     OW20830   3.556   6.141   8.117  0.1941  0.4535 -0.1229
 2924SOL    HW120831   3.477   6.203   8.112 -0.4782 -0.3402  0.4842
 2924SOL    HW220832   3.605   6.142   8.030 -2.3164 -1.4410 -1.6170
 2925SOL     OW20833   8.275   3.150   7.824  0.1304 -0.2269 -0.1194
 2925SOL    HW120834   8.224   3.218   7.876 -0.2271 -0.9198  0.4502
 2925SOL    HW220835   8.321   3.088   7.887  1.3577  0.1457 -0.6296
 2926SOL     OW20836   0.971   9.482   3.075 -0.9524 -0.0342  0.0735
 2926SOL    HW120837   0.936   9.574   3.090 -1.2911 -0.2465  0.5949
 2926SOL    HW220838   1.069   9.486   3.058 -1.3853  0.6838 -2.5306
 2927SOL     OW20839   1.602   1.135   6.201 -0.4300 -0.0577 -0.5487
 2927SOL    HW120840   1.676   1.196   6.229 -0.7254 -0.8635  2.2126
 2927SOL    HW220841   1.528   1.187   6.160 -0.2109  1.3336  0.7780
 2928SOL     OW20842   3.104   6.104   9.785 -0.3769 -0.7450 -0.3009
 2928SOL    HW120843   3.062   6.015   9.805  0.0851 -1.3500 -1.8910
 2928SOL    HW220844   3.095   6.164   9.864 -1.4745 -1.9165  0.4898
 2929SOL     OW20845   4.351   2.096   6.471 -0.2871  0.2697 -0.3587
 2929SOL    HW120846   4.402   2.183   6.471  0.3848 -0.1183 -1.2936
 2929SOL    HW220847   4.290   2.093   6.392 -0.7275  0.1263 -0.0169
 2930SOL     OW20848   2.488   1.678   3.483  0.0797  0.0776  0.0206
 2930SOL    HW120849   2.391   1.675   3.458  0.4400 -1.7334 -1.2590
 2930SOL    HW220850   2.533   1.751   3.431 -0.1389 -0.6075 -1.1498
 2931SOL     OW20851   4.114   1.352   3.551  0.1095 -0.2840 -0.4953
 2931SOL    HW120852   4.151   1.416   3.619 -0.7925 -0.3831  0.0907
 2931SOL    HW220853   4.168   1.268   3.553  0.5273 -0.0155 -0.3908
 2932SOL     OW20854   1.049   4.313   5.991 -0.1100 -0.3513  0.2899
 2932SOL    HW120855   1.097   4.352   5.912 -0.2470 -0.7093  0.0297
 2932SOL    HW220856   0.999   4.232   5.963 -1.1631  0.2238  0.4811
 2933SOL     OW20857   0.947   5.673   0.644  0.2098  0.0209  0.1934
 2933SOL    HW120858   0.908   5.763   0.662 -1.3110 -0.2637 -1.5500
 2933SOL    HW220859   0.889   5.603   0.685  0.4145 -0.2624 -0.0048
 2934SOL     OW20860   9.444   2.334   3.229  0.3619 -0.1492  0.3277
 2934SOL    HW120861   9.386   2.411   3.202 -2.1157 -2.1092 -0.1470
 2934SOL    HW220862   9.537   2.366   3.245 -0.3716  2.7398 -0.9243
 2935SOL     OW20863   3.905   4.182   6.787 -0.5434 -0.0313  0.1323
 2935SOL    HW120864   3.835   4.115   6.764  0.1076 -0.3889 -0.8825
 2935SOL    HW220865   3.995   4.145   6.763 -0.0148  0.4685  1.2967
 2936SOL     OW20866   0.938   2.011   1.748 -0.5224  0.1023 -0.1290
 2936SOL    HW120867   0.977   2.092   1.793 -0.3408  1.0961 -2.0418
 2936SOL    HW220868   0.849   1.991   1.788 -1.6129  2.6539 -1.1681
 2937SOL     OW20869   0.322   0.454   4.040  0.3484 -0.4994  0.3894
 2937SOL    HW120870   0.417   0.430   4.019  0.2365 -0.6939  0.1105
 2937SOL    HW220871   0.295   0.535   3.987  0.7396  0.2864  1.3598
 2938SOL     OW20872   0.369   0.727   2.327  0.2363 -0.0343  0.0988
 2938SOL    HW120873   0.384   0.800   2.394  1.1531 -0.3145  0.2110
 2938SOL    HW220874   0.271   0.709   2.319 -0.0422  1.6065 -0.3649
 2939SOL     OW20875   8.668   3.619   0.452 -0.1101  0.0215  0.2748
 2939SOL    HW120876   8.597   3.603   0.521 -0.0660  0.7175  0.4794
 2939SOL    HW220877   8.741   3.552   0.465 -0.4298 -0.2940  0.4667
 2940SOL     OW20878   1.518   9.801   5.057  0.3370  0.6477 -0.3581
 2940SOL    HW120879   1.535   9.743   5.137 -2.5839  0.1001 -0.0707
 2940SOL    HW220880   1.549   9.755   4.975 -0.0554 -0.4300  0.0903
 2941SOL     OW20881   0.363   3.955   1.320  0.8133 -0.1940 -0.2731
 2941SOL    HW120882   0.359   4.007   1.406 -1.7801 -3.3641  1.6404
 2941SOL    HW220883   0.423   3.876   1.332 -0.0345 -0.9911 -1.1848
 2942SOL     OW20884   9.085   4.327   3.340 -0.2448  0.4375 -0.4210
 2942SOL    HW120885   9.110   4.258   3.408  1.3743  1.9639  0.5389
 2942SOL    HW220886   9.099   4.289   3.248 -2.4799 -1.6422  0.0211
 2943SOL     OW20887   0.056   6.314   4.295 -0.4454 -0.2538  0.2772
 2943SOL    HW120888   0.085   6.219   4.308 -1.4604 -0.6027 -0.0313
 2943SOL    HW220889   0.089   6.369   4.372  0.3751 -0.7994  0.3266
 2944SOL     OW20890   4.198   7.299   2.190  0.3896 -0.4354 -1.2410
 2944SOL    HW120891   4.145   7.373   2.148 -2.8142 -2.3070 -0.6195
 2944SOL    HW220892   4.209   7.224   2.125 -0.3063 -1.2735 -0.4052
 2945SOL     OW20893   1.864   0.482   6.952  0.7291 -0.5067  0.6683
 2945SOL    HW120894   1.841   0.390   6.919  1.1438  0.4390 -2.4284
 2945SOL    HW220895   1.791   0.546   6.928  1.8401  0.5435  0.0532
 2946SOL     OW20896   1.421   5.971   7.575 -0.3689 -0.5136  0.6052
 2946SOL    HW120897   1.519   5.960   7.565 -0.0367  0.0822  2.9175
 2946SOL    HW220898   1.400   6.063   7.606 -1.5536 -1.0437  1.4486
 2947SOL     OW20899   1.696   6.065   6.868 -0.2415  0.4580 -0.8492
 2947SOL    HW120900   1.784   6.085   6.825  0.6489 -0.2974  0.5672
 2947SOL    HW220901   1.632   6.030   6.799  0.6333  0.8091 -1.8500
 2948SOL     OW20902   8.519   6.521   6.610 -0.0461 -0.1064 -0.3738
 2948SOL    HW120903   8.502   6.612   6.572  3.1031 -0.0543 -1.7852
 2948SOL    HW220904   8.484   6.451   6.548  1.1204  0.0807 -1.2552
 2949SOL     OW20905   3.101   9.857   3.940 -0.1313  0.1841  0.1562
 2949SOL    HW120906   3.038   9.883   4.013  2.4822 -0.4649  2.7457
 2949SOL    HW220907   3.099   9.757   3.929  0.2799  0.1841  0.0811
 2950SOL     OW20908   7.697   2.634   0.891 -0.8089  0.0801  0.6871
 2950SOL    HW120909   7.642   2.717   0.902  1.1150  1.3450  1.0001
 2950SOL    HW220910   7.763   2.628   0.965  0.8024 -0.3749 -0.7596
 2951SOL     OW20911   3.438   5.526   7.720 -0.6403 -0.2212 -0.2076
 2951SOL    HW120912   3.498   5.473   7.659 -0.1755  0.6083 -0.4720
 2951SOL    HW220913   3.345   5.524   7.686 -0.6366 -0.9240 -0.1844
 2952SOL     OW20914   2.804   1.449   0.452  0.7938 -0.0119  0.0139
 2952SOL    HW120915   2.853   1.427   0.536  0.3145  0.7533  0.5016
 2952SOL    HW220916   2.792   1.366   0.398  0.4277 -0.6514  1.0637
 2953SOL     OW20917   6.011   4.815   5.891 -0.1042 -0.0441  0.0132
 2953SOL    HW120918   6.014   4.859   5.801  0.3032 -1.6296 -0.7707
 2953SOL    HW220919   5.922   4.831   5.934 -0.3915  0.4976 -0.7870
 2954SOL     OW20920   1.877   1.346   1.375  0.2016  0.3371 -0.1183
 2954SOL    HW120921   1.871   1.257   1.422 -0.7249  0.1269 -0.6242
 2954SOL    HW220922   1.890   1.418   1.443 -1.2206  0.0444  0.4932
 2955SOL     OW20923   7.352   6.387   2.570 -0.0786  0.2981 -0.5043
 2955SOL    HW120924   7.394   6.413   2.482 -0.6501  0.8389 -0.6195
 2955SOL    HW220925   7.304   6.466   2.608 -1.2229 -0.3877 -0.4997
 2956SOL     OW20926   5.466   6.147   3.342 -0.0248 -0.0451 -0.2991
 2956SOL    HW120927   5.551   6.199   3.348 -0.1555  0.1064  0.3041
 2956SOL    HW220928   5.439   6.117   3.433 -1.6758  1.6262 -0.2020
 2957SOL     OW20929   9.138   3.689   0.525  0.3954 -0.1077 -0.0939
 2957SOL    HW120930   9.183   3.615   0.475  1.7433  1.0717 -0.6709
 2957SOL    HW220931   9.146   3.774   0.472 -0.9893  0.4826  0.6368
 2958SOL     OW20932   5.303   0.693   4.540  0.6246  0.1243  0.4225
 2958SOL    HW120933   5.331   0.701   4.444  1.0052 -0.4029  0.4864
 2958SOL    HW220934   5.327   0.777   4.589 -0.1485  0.6376 -0.0914
 2959SOL     OW20935   6.833   3.357   2.091  0.0233  0.1812 -0.0782
 2959SOL    HW120936   6.843   3.414   2.010  0.3536 -0.7943 -0.7225
 2959SOL    HW220937   6.738   3.328   2.100  0.2580 -0.8387 -0.8749
 2960SOL     OW20938   1.689   4.481   3.458 -0.1824 -0.0879 -0.7918
 2960SOL    HW120939   1.653   4.424   3.532  1.1739 -0.2897 -0.2742
 2960SOL    HW220940   1.736   4.560   3.496 -0.1028  0.1872 -1.4533
 2961SOL     OW20941   8.907   5.514   5.754  0.4237  0.3125 -0.1413
 2961SOL    HW120942   8.951   5.581   5.814 -2.3086  2.5365 -0.4993
 2961SOL    HW220943   8.891   5.555   5.665 -0.1464 -1.2695 -0.7837
 2962SOL     OW20944   0.558   3.405   9.264  0.5469  0.1344  0.0225
 2962SOL    HW120945   0.624   3.337   9.297  1.0758  0.2882 -0.7105
 2962SOL    HW220946   0.514   3.450   9.342  1.4941  0.2141  0.5129
 2963SOL     OW20947   7.321   6.222   4.546 -0.0153  0.3376 -0.2644
 2963SOL    HW120948   7.322   6.269   4.634 -1.0084  0.7453 -0.4577
 2963SOL    HW220949   7.376   6.139   4.551  0.0925  0.4626  0.6770
 2964SOL     OW20950   8.279   3.000   8.083  0.0260  0.3103  0.2070
 2964SOL    HW120951   8.335   2.918   8.071 -0.8187 -0.0542 -1.4597
 2964SOL    HW220952   8.183   2.973   8.094 -0.2932  1.0647 -0.6595
 2965SOL     OW20953   2.104   1.812   6.813 -0.0165 -0.0623 -0.2636
 2965SOL    HW120954   2.122   1.874   6.890  0.6966  0.6298 -0.9701
 2965SOL    HW220955   2.188   1.798   6.761 -0.3819 -0.9157 -0.6333
 2966SOL     OW20956   0.278   0.638   5.596  0.0238 -0.0476 -0.5501
 2966SOL    HW120957   0.337   0.558   5.603  0.4075  0.2783 -0.0454
 2966SOL    HW220958   0.192   0.612   5.552 -1.0652 -1.3943  2.2278
 2967SOL     OW20959   1.791   7.110   4.066  0.3153 -0.1525 -0.4128
 2967SOL    HW120960   1.721   7.107   3.995  1.3924  1.0137 -1.5308
 2967SOL    HW220961   1.756   7.160   4.145  0.2859  1.4474 -1.4239
 2968SOL     OW20962   2.596   3.808   8.412  0.3631 -0.0155  0.3865
 2968SOL    HW120963   2.555   3.744   8.477  0.9201 -0.1424  0.6132
 2968SOL    HW220964   2.631   3.887   8.461 -1.1965  0.9300  0.0068
 2969SOL     OW20965   1.450   0.064   0.810  0.0317 -0.1281 -0.0385
 2969SOL    HW120966   1.443   0.109   0.721  1.0342  0.2692  0.0751
 2969SOL    HW220967   1.492  -0.026   0.799  1.9599  0.7109  0.2630
 2970SOL     OW20968   9.239   2.445   3.038 -0.4994  0.0350 -0.7288
 2970SOL    HW120969   9.150   2.485   3.017 -2.4537 -2.8807  1.5631
 2970SOL    HW220970   9.257   2.369   2.975  0.8083  1.1753 -1.7533
 2971SOL     OW20971   0.920   1.765   8.769  0.1244 -0.3943 -0.0100
 2971SOL    HW120972   0.974   1.696   8.722  0.0201  0.7403 -1.8280
 2971SOL    HW220973   0.961   1.855   8.754 -2.0375  0.4384 -1.1175
 2972SOL     OW20974   3.756   9.843   5.796 -0.3504 -0.0135  0.3030
 2972SOL    HW120975   3.678   9.857   5.857 -1.0315  0.3114 -0.6347
 2972SOL    HW220976   3.774   9.927   5.744  0.4791 -0.1583  0.3469
 2973SOL     OW20977   0.696   2.229   2.325  0.4057  0.2789 -0.4077
 2973SOL    HW120978   0.704   2.154   2.391 -0.0783  0.6924  0.1265
 2973SOL    HW220979   0.787   2.252   2.290  0.5759 -0.4515 -0.4664
 2974SOL     OW20980   4.198   1.010   5.879  0.4196  0.5428 -0.2984
 2974SOL    HW120981   4.112   0.973   5.915  0.3217 -1.0382 -2.0870
 2974SOL    HW220982   4.187   1.108   5.861 -1.1531  0.2690 -0.9125
 2975SOL     OW20983   6.239   9.223   7.718  0.1097 -0.4986  0.2038
 2975SOL    HW120984   6.164   9.176   7.672  1.8349 -1.1456 -2.0443
 2975SOL    HW220985   6.306   9.156   7.751  0.5967  0.1582  0.5688
 2976SOL     OW20986   0.695   3.924   6.045  0.4625 -0.9410 -0.0078
 2976SOL    HW120987   0.783   3.971   6.043 -1.0517  1.9848 -0.1493
 2976SOL    HW220988   0.637   3.964   6.116 -1.6978 -1.0408 -1.6498
 2977SOL     OW20989   9.202   3.977   5.046  0.3938  0.2107  0.4477
 2977SOL    HW120990   9.127   3.958   5.109  0.6912 -0.2463  0.6644
 2977SOL    HW220991   9.289   3.962   5.092  0.6292  1.2957  0.3750
 2978SOL     OW20992   1.837   0.051   5.653 -0.0917 -0.0599 -0.2085
 2978SOL    HW120993   1.809   0.072   5.560  0.1263  0.0017 -0.2597
 2978SOL    HW220994   1.758   0.019   5.705 -0.5770  1.5570  0.0686
 2979SOL     OW20995   1.268   5.028   4.167 -0.1230  0.7864  0.0435
 2979SOL    HW120996   1.273   5.127   4.154  0.6791  1.1108  2.6144
 2979SOL    HW220997   1.360   4.989   4.164 -0.4554  0.0606 -1.1823
 2980SOL     OW20998   6.336   2.860   3.627  0.0860  0.0215 -0.2951
 2980SOL    HW120999   6.402   2.883   3.556 -1.0096  1.0089 -1.0020
 2980SOL    HW221000   6.295   2.943   3.664 -0.8511 -0.5855  0.0582
 2981SOL     OW21001   0.090   5.206   6.871  0.0861  0.6311 -0.3633
 2981SOL    HW121002   0.006   5.189   6.923  0.5897  0.3377  0.3672
 2981SOL    HW221003   0.083   5.293   6.824 -0.2114  1.1026  0.5426
 2982SOL     OW21004   8.496   3.177   7.659 -0.1640 -0.2811 -0.1146
 2982SOL    HW121005   8.479   3.112   7.585  0.6353  0.5086 -1.0035
 2982SOL    HW221006   8.410   3.196   7.707 -1.1003  0.7465 -2.1249
 2983SOL     OW21007   5.855   7.936   3.628 -0.5065  0.4129 -0.0663
 2983SOL    HW121008   5.766   7.954   3.670 -0.5259 -0.8289  0.4297
 2983SOL    HW221009   5.848   7.947   3.528 -1.1824  0.4084 -0.0192
 2984SOL     OW21010   1.748   4.869   3.373 -0.1412 -0.3169  0.4742
 2984SOL    HW121011   1.768   4.794   3.310 -1.1358 -0.1321 -0.0704
 2984SOL    HW221012   1.677   4.839   3.438  0.5170 -0.3372  1.1912
 2985SOL     OW21013   0.323   0.540   6.567 -0.3754 -0.1513  0.6933
 2985SOL    HW121014   0.314   0.485   6.650 -3.2218 -0.1328  0.4507
 2985SOL    HW221015   0.330   0.637   6.591 -0.9797 -0.1667  0.9506
 2986SOL     OW21016   7.750   6.746   2.423 -0.0682  0.0008  0.5902
 2986SOL    HW121017   7.772   6.838   2.389  2.9015 -0.8761  0.0399
 2986SOL    HW221018   7.750   6.682   2.347 -1.0463 -0.6795  1.1472
 2987SOL     OW21019   3.013   7.521   6.530 -0.4953  0.1808 -0.0810
 2987SOL    HW121020   2.946   7.557   6.595 -0.5758  1.3626 -0.7972
 2987SOL    HW221021   3.056   7.597   6.482  2.1442 -0.4919  1.1322
 2988SOL     OW21022   2.446   2.794   6.513 -0.5089  0.3147  0.4486
 2988SOL    HW121023   2.489   2.884   6.516 -0.5618  0.4013 -1.3979
 2988SOL    HW221024   2.426   2.769   6.419 -1.0373 -1.3823  0.9950
 2989SOL     OW21025   9.374   4.468   9.483 -0.5322  0.3772  0.0186
 2989SOL    HW121026   9.322   4.384   9.469  0.9623 -0.4321 -0.7922
 2989SOL    HW221027   9.472   4.449   9.476 -0.0969  1.8781  1.4838
 2990SOL     OW21028   8.574   6.249   2.662 -0.1773 -0.2397 -0.4862
 2990SOL    HW121029   8.606   6.180   2.597  0.1344  1.2127 -1.9192
 2990SOL    HW221030   8.653   6.303   2.693 -0.2992 -1.0380  1.2558
 2991SOL     OW21031   9.023   4.137   1.079 -0.6014  0.2848  0.1927
 2991SOL    HW121032   8.933   4.102   1.055 -0.9627  0.9294  0.6020
 2991SOL    HW221033   9.014   4.213   1.143  0.2085  0.6756 -0.1451
 2992SOL     OW21034   0.793   5.881   3.101  0.2486 -0.4459  0.1048
 2992SOL    HW121035   0.889   5.882   3.071  0.0560 -0.0294 -0.5026
 2992SOL    HW221036   0.741   5.819   3.041 -0.2073  0.6493 -0.6341
 2993SOL     OW21037   9.352   7.084   2.518 -0.5122 -0.3270 -0.4409
 2993SOL    HW121038   9.341   7.050   2.425  0.9285  1.3337 -1.2470
 2993SOL    HW221039   9.326   7.180   2.521 -2.7936 -0.9563  1.4017
 2994SOL     OW21040   2.068   3.548   0.902  0.0702  0.4862  0.5898
 2994SOL    HW121041   2.140   3.502   0.849  0.8241  0.0308  1.9825
 2994SOL    HW221042   1.994   3.483   0.922  0.3617  0.3157  1.1349
 2995SOL     OW21043   5.023   4.511   1.391 -0.0060 -0.2486 -0.2900
 2995SOL    HW121044   5.095   4.443   1.408 -0.6843 -0.8282  0.3318
 2995SOL    HW221045   4.935   4.464   1.382  0.0227  0.2073 -3.6190
 2996SOL     OW21046   7.461   4.158   7.006 -0.2409  0.0750  0.0994
 2996SOL    HW121047   7.481   4.076   6.951 -0.8383 -0.1951  0.2809
 2996SOL    HW221048   7.403   4.133   7.083 -0.4444  0.6739  0.1443
 2997SOL     OW21049   1.515   5.712   0.114  0.1872  0.3029 -0.2869
 2997SOL    HW121050   1.477   5.708   0.021  2.9232  1.1115 -1.4686
 2997SOL    HW221051   1.555   5.623   0.137 -2.5829 -0.6519  1.0875
 2998SOL     OW21052   9.459   3.609   1.452  0.1407  0.1284  0.2355
 2998SOL    HW121053   9.389   3.666   1.496 -0.1615 -2.1313  2.8016
 2998SOL    HW221054   9.417   3.525   1.418  1.3346 -0.5939  0.5141
 2999SOL     OW21055   7.241   6.941   1.772 -0.6479  0.6206 -0.6980
 2999SOL    HW121056   7.229   6.913   1.867 -0.7694 -0.4206 -1.0112
 2999SOL    HW221057   7.223   7.039   1.764  2.3328  1.3347  0.8748
 3000SOL     OW21058   8.326   4.778   2.517 -0.0212  0.3637  0.3947
 3000SOL    HW121059   8.361   4.767   2.609  1.5246  2.1466  0.0298
 3000SOL    HW221060   8.253   4.846   2.516 -0.8765 -0.5244  0.4742
 3001SOL     OW21061   6.186   5.487   2.489  0.0071 -0.5162  0.3196
 3001SOL    HW121062   6.225   5.447   2.572  1.1951  1.5589  0.7784
 3001SOL    HW221063   6.258   5.502   2.422 -0.8157 -1.3610 -0.7902
 3002SOL     OW21064   5.112   6.673   5.295  0.0395  0.1566 -0.3214
 3002SOL    HW121065   5.051   6.752   5.303  0.0799  0.3296 -1.5890
 3002SOL    HW221066   5.188   6.683   5.359 -1.8020 -0.5851  2.0420
 3003SOL     OW21067   9.644   3.861   2.464  0.0539 -0.2030  0.0635
 3003SOL    HW121068   9.619   3.956   2.485  0.4224 -0.5469  2.1417
 3003SOL    HW221069   9.641   3.847   2.365 -1.3118  1.6113 -0.1769
 3004SOL     OW21070   0.076   3.186   5.753  0.4600  0.7564  0.3349
 3004SOL    HW121071   0.019   3.266   5.739 -2.0966 -1.0615 -0.0136
 3004SOL    HW221072   0.061   3.150   5.845 -0.2525 -0.6987 -0.3327
 3005SOL     OW21073   7.346   3.848   3.003  0.0623  0.0390 -0.0538
 3005SOL    HW121074   7.276   3.846   3.074 -1.1348 -2.1831 -1.2394
 3005SOL    HW221075   7.436   3.845   3.045 -0.6181 -0.3682  1.4100
 3006SOL     OW21076   1.663   5.044   5.898  0.2706 -0.2970 -0.1457
 3006SOL    HW121077   1.634   4.984   5.972  1.4282 -0.8454 -0.1195
 3006SOL    HW221078   1.658   5.139   5.929  0.7367 -0.5216  0.6364
 3007SOL     OW21079   9.220   5.153   2.104  0.3683 -0.5933  0.7039
 3007SOL    HW121080   9.219   5.200   2.015 -0.7960  0.3387  1.1962
 3007SOL    HW221081   9.307   5.106   2.116  1.0025  0.2794 -0.4243
 3008SOL     OW21082   2.878   5.904   6.994  0.3464 -0.2053  0.3376
 3008SOL    HW121083   2.836   5.968   6.929 -0.0803  0.0613  0.8669
 3008SOL    HW221084   2.811   5.882   7.065  0.8223 -0.4759  0.6974
 3009SOL     OW21085   9.878   5.841   3.812  0.0262  0.1155  0.0947
 3009SOL    HW121086   9.908   5.933   3.837  0.9553 -0.3639  0.7524
 3009SOL    HW221087   9.906   5.776   3.882 -0.9036 -0.6358 -0.2069
 3010SOL     OW21088   6.463   2.950   2.454 -0.3737  0.3741  0.3186
 3010SOL    HW121089   6.371   2.923   2.427 -0.4117  1.3384 -0.5532
 3010SOL    HW221090   6.527   2.875   2.434 -0.5615  0.6834 -1.5379
 3011SOL     OW21091   2.109   7.870   4.893 -0.0942 -0.0336  0.3265
 3011SOL    HW121092   2.081   7.917   4.809 -0.6715 -1.5118 -0.3202
 3011SOL    HW221093   2.060   7.909   4.971 -1.1752 -0.0934 -0.3131
 3012SOL     OW21094   0.832   4.304   7.010 -0.6272 -0.3689  0.3149
 3012SOL    HW121095   0.821   4.300   7.109  1.0223 -1.0389  0.4796
 3012SOL    HW221096   0.826   4.211   6.971 -1.0060 -0.1417 -0.1808
 3013SOL     OW21097   5.167   2.969   3.216 -0.9256 -0.4442 -0.6806
 3013SOL    HW121098   5.258   2.929   3.201 -0.5196  0.0759  0.3284
 3013SOL    HW221099   5.175   3.068   3.225 -1.7132 -0.3033 -1.4406
 3014SOL     OW21100   8.485   3.297   2.699  0.3330  0.1028  0.1092
 3014SOL    HW121101   8.397   3.272   2.658  0.3894  0.6396 -0.3453
 3014SOL    HW221102   8.470   3.365   2.771  0.1238 -1.6030  1.7089
 3015SOL     OW21103   3.626   0.311   0.939 -0.0884  0.3790  0.1489
 3015SOL    HW121104   3.607   0.216   0.914  0.0780  0.3163  0.2600
 3015SOL    HW221105   3.554   0.344   1.001 -0.2520  0.3890 -0.0441
 3016SOL     OW21106   2.667   4.219   0.642 -0.8286 -0.0886 -0.9307
 3016SOL    HW121107   2.597   4.156   0.673  0.6681 -1.5663 -0.4780
 3016SOL    HW221108   2.671   4.298   0.704 -1.2696 -0.5714 -0.2848
 3017SOL     OW21109   5.929   1.925   2.518  0.3971 -0.7643 -0.1995
 3017SOL    HW121110   5.912   2.022   2.535  0.6093 -1.0933  1.9342
 3017SOL    HW221111   6.016   1.898   2.559 -0.4355 -2.2339  0.6460
 3018SOL     OW21112   3.425   3.118   6.136 -0.5132  0.2782  0.4730
 3018SOL    HW121113   3.381   3.166   6.060  0.5277  0.1491 -0.2256
 3018SOL    HW221114   3.383   3.028   6.147 -0.9490  0.4619  0.3267
 3019SOL     OW21115   1.270   9.627   5.749 -0.2090 -0.0300  0.2284
 3019SOL    HW121116   1.233   9.552   5.693 -1.8707 -1.3514  3.0106
 3019SOL    HW221117   1.205   9.702   5.752  0.6168  0.7584 -0.9482
 3020SOL     OW21118   1.196   1.677   7.890 -0.8647 -0.1012 -0.5733
 3020SOL    HW121119   1.098   1.698   7.892 -0.6340  0.8829  0.1636
 3020SOL    HW221120   1.249   1.761   7.889 -0.0238 -0.6131 -2.0903
 3021SOL     OW21121   9.675   0.949   4.290 -0.2176  0.0746  0.1447
 3021SOL    HW121122   9.719   1.013   4.227 -2.3672  2.4678  0.9940
 3021SOL    HW221123   9.709   0.857   4.273  1.4614  1.1293 -2.4735
 3022SOL     OW21124   3.820   5.720   5.969 -0.3345 -0.5157  0.1021
 3022SOL    HW121125   3.877   5.648   5.928  0.6528  0.2863  0.0432
 3022SOL    HW221126   3.818   5.710   6.068 -0.3768 -0.7569  0.0756
 3023SOL     OW21127   9.105   1.099   2.909 -0.3563  0.0101  0.4618
 3023SOL    HW121128   9.097   1.045   2.825  3.1428 -0.7146  0.5073
 3023SOL    HW221129   9.094   1.196   2.888  1.0589 -0.1206 -0.9784
 3024SOL     OW21130   9.811   5.175   6.357 -0.3767 -0.1318  0.2950
 3024SOL    HW121131   9.762   5.118   6.422  0.6532  0.5187  1.6827
 3024SOL    HW221132   9.909   5.172   6.377 -0.2760  1.9284  0.2529
 3025SOL     OW21133   4.824   3.544   5.180  0.3501 -0.1847  0.0708
 3025SOL    HW121134   4.810   3.643   5.171 -2.2535 -0.5163  0.0122
 3025SOL    HW221135   4.763   3.496   5.116  1.9505 -1.8235 -0.2574
 3026SOL     OW21136   9.708   4.416   2.261 -0.1058 -0.6724 -0.4760
 3026SOL    HW121137   9.613   4.384   2.267 -0.1317 -0.7699 -1.3691
 3026SOL    HW221138   9.767   4.339   2.239  0.0570 -0.4283 -0.8971
 3027SOL     OW21139   2.300   1.086   6.594  0.4849  0.1378 -0.2930
 3027SOL    HW121140   2.309   0.986   6.595 -1.3801 -0.0379  1.2793
 3027SOL    HW221141   2.391   1.127   6.595  1.2851 -1.5328 -1.5101
 3028SOL     OW21142   0.001   2.009   4.127  0.2878  0.2637  0.6096
 3028SOL    HW121143   0.048   1.933   4.083 -0.2594  1.2375 -1.7505
 3028SOL    HW221144  -0.076   2.038   4.070  0.4494  2.5234  1.4903
 3029SOL     OW21145   7.943   5.541   7.110  0.1069 -0.1727  0.6090
 3029SOL    HW121146   8.037   5.520   7.137 -0.0976 -0.6760  0.9374
 3029SOL    HW221147   7.897   5.458   7.080 -0.2110  0.0849  0.3754
 3030SOL     OW21148   3.054   4.680   6.512 -0.0112 -0.4985 -0.1943
 3030SOL    HW121149   3.053   4.776   6.487  3.1219 -0.5996 -0.8953
 3030SOL    HW221150   3.047   4.671   6.612  1.0178  0.5391 -0.0203
 3031SOL     OW21151   0.119   2.690   4.027 -0.2564 -0.0441  0.6193
 3031SOL    HW121152   0.187   2.628   3.988  1.0853  1.0567  1.1288
 3031SOL    HW221153   0.043   2.700   3.964  0.6557 -0.3213 -0.5499
 3032SOL     OW21154   1.399   6.434   0.503 -0.0719 -0.5870 -0.8374
 3032SOL    HW121155   1.471   6.503   0.496 -1.9186  1.4545 -0.2132
 3032SOL    HW221156   1.423   6.355   0.446  3.0622 -0.3465  0.0643
 3033SOL     OW21157   4.477   5.175   3.238  0.4805 -0.2453 -0.6714
 3033SOL    HW121158   4.418   5.166   3.158  0.5232 -1.0986 -0.6035
 3033SOL    HW221159   4.571   5.190   3.208  0.0974  2.2076 -0.7899
 3034SOL     OW21160   8.367   5.639   3.205  0.0721  0.4006 -0.2378
 3034SOL    HW121161   8.344   5.552   3.250 -0.2040  0.4585 -0.2697
 3034SOL    HW221162   8.443   5.624   3.142  0.5820  0.3549  0.3800
 3035SOL     OW21163   0.250   8.553   4.639  0.1387  0.0709  0.1321
 3035SOL    HW121164   0.314   8.483   4.670  0.1335  0.0601  0.1175
 3035SOL    HW221165   0.287   8.644   4.659 -0.0242  0.0579  0.4848
 3036SOL     OW21166   1.249   3.668   4.675  0.0797  0.2215 -0.7324
 3036SOL    HW121167   1.256   3.568   4.672 -0.4611  0.1165  0.9902
 3036SOL    HW221168   1.160   3.697   4.640 -0.9434 -0.1064  1.5433
 3037SOL     OW21169   6.203   3.594   1.995 -0.7379 -0.6491  0.3469
 3037SOL    HW121170   6.285   3.547   1.961 -1.0417 -0.9516  0.0371
 3037SOL    HW221171   6.172   3.660   1.927 -2.5302 -2.6724 -0.8650
 3038SOL     OW21172   1.741   4.434   7.136  0.6271  0.0498 -0.3685
 3038SOL    HW121173   1.670   4.493   7.175  0.6369  0.2132 -0.5942
 3038SOL    HW221174   1.755   4.354   7.195 -1.4973 -1.2504 -1.5493
 3039SOL     OW21175   1.023   4.606   0.504 -0.2201 -0.3088 -1.0196
 3039SOL    HW121176   1.008   4.629   0.601 -2.4836  0.2400 -1.4859
 3039SOL    HW221177   1.106   4.550   0.496 -0.4946 -1.1072  1.3271
 3040SOL     OW21178   9.265   0.673   1.094 -0.1281  0.3289  0.3317
 3040SOL    HW121179   9.284   0.580   1.124  0.1230  0.3437  0.2188
 3040SOL    HW221180   9.169   0.680   1.066 -0.3404  0.2866  1.0224
 3041SOL     OW21181   9.319   0.416   1.946  0.2802 -0.4725  0.0349
 3041SOL    HW121182   9.419   0.410   1.953  0.5308  1.3804 -1.3654
 3041SOL    HW221183   9.279   0.326   1.961  2.0633 -0.9576  2.0505
 3042SOL     OW21184   3.356   8.168   4.763  0.5673  0.0966  0.1440
 3042SOL    HW121185   3.403   8.193   4.848  0.1322  1.0947  0.1017
 3042SOL    HW221186   3.421   8.172   4.687  0.6384  0.5366  0.2265
 3043SOL     OW21187   9.578   1.650   7.691 -0.3576 -0.4575 -0.2598
 3043SOL    HW121188   9.553   1.687   7.781 -0.8493 -1.0394 -0.1546
 3043SOL    HW221189   9.513   1.684   7.623  0.8506  1.1289 -0.6463
 3044SOL     OW21190   2.905   3.037   6.714 -0.0346 -0.3863 -0.3989
 3044SOL    HW121191   2.938   2.947   6.745  0.0892  0.0641  0.7870
 3044SOL    HW221192   2.928   3.106   6.781 -1.5122  0.2965 -0.5681
 3045SOL     OW21193   2.376   3.835   2.980 -0.3873 -0.1051 -0.1633
 3045SOL    HW121194   2.308   3.853   3.052  0.1115  1.1132  0.0293
 3045SOL    HW221195   2.459   3.797   3.022 -0.3023  0.0775 -0.1650
 3046SOL     OW21196   2.680   3.735   4.613 -0.0243 -0.6520  0.2740
 3046SOL    HW121197   2.710   3.773   4.525  0.5144  0.4965  0.9475
 3046SOL    HW221198   2.704   3.798   4.687  0.5611 -2.1365  1.3816
 3047SOL     OW21199   2.506   2.771   3.863 -0.1744  0.1137  0.1750
 3047SOL    HW121200   2.540   2.812   3.947  0.9255  0.8616 -0.6203
 3047SOL    HW221201   2.421   2.722   3.881  0.1409  0.1369  1.7451
 3048SOL     OW21202   0.436   3.542   4.441  0.5303  0.5330  0.1345
 3048SOL    HW121203   0.531   3.563   4.416  0.8879  0.9190  1.7404
 3048SOL    HW221204   0.395   3.621   4.486  0.1767 -0.4045  1.4839
 3049SOL     OW21205   6.994   4.754   5.351  0.1157  0.2787 -0.0124
 3049SOL    HW121206   6.929   4.778   5.423  0.7116 -2.3253  1.4648
 3049SOL    HW221207   7.071   4.705   5.391  1.8963  1.3128 -2.0620
 3050SOL     OW21208   8.645   5.026   7.104 -0.1275  0.1846 -0.2799
 3050SOL    HW121209   8.603   4.953   7.158  0.9581  0.6897  1.2696
 3050SOL    HW221210   8.711   4.987   7.040 -1.3028 -0.4006 -1.1641
 3051SOL     OW21211   0.317   1.988   8.496 -0.2147  0.1369  0.3139
 3051SOL    HW121212   0.381   2.019   8.566  1.1741 -4.3497  1.1771
 3051SOL    HW221213   0.254   1.921   8.534 -0.2226 -1.5051 -2.4380
 3052SOL     OW21214   2.227   2.214   9.888 -0.1971  0.1861  0.2065
 3052SOL    HW121215   2.135   2.250   9.896  1.2812  4.2787  0.0496
 3052SOL    HW221216   2.271   2.252   9.806  1.5379 -1.9015  0.1193
 3053SOL     OW21217   4.980   8.604   7.076 -0.4070  0.1455  0.5444
 3053SOL    HW121218   4.890   8.598   7.120 -0.1198  0.6405  1.2027
 3053SOL    HW221219   4.983   8.686   7.019 -0.2715  0.2847  0.7507
 3054SOL     OW21220   9.320   7.783   3.580 -0.2658 -0.0243 -0.4038
 3054SOL    HW121221   9.370   7.818   3.659 -0.2124 -3.2187  1.0302
 3054SOL    HW221222   9.357   7.824   3.497  1.4106  1.4267  1.0253
 3055SOL     OW21223   1.135   6.961   3.435 -0.5300  0.9065 -0.7750
 3055SOL    HW121224   1.183   7.036   3.389 -2.1155  1.8027 -0.9935
 3055SOL    HW221225   1.117   6.887   3.370  0.5972  0.5259 -0.6738
 3056SOL     OW21226   0.618   1.362   2.595  0.1810 -0.0700 -0.0374
 3056SOL    HW121227   0.589   1.297   2.665 -2.1462  1.1643  0.1913
 3056SOL    HW221228   0.710   1.395   2.616 -0.4545  0.2223  2.3980
 3057SOL     OW21229   3.443   7.194   1.534  0.4145  0.4282 -0.4099
 3057SOL    HW121230   3.459   7.107   1.581  0.2589  0.7993  0.3322
 3057SOL    HW221231   3.401   7.259   1.597  0.7353  1.1172 -0.8963
 3058SOL     OW21232   0.063   4.681   1.563  0.2525 -0.2495 -0.9720
 3058SOL    HW121233   0.041   4.704   1.657 -0.5171  1.4042 -1.5350
 3058SOL    HW221234   0.101   4.762   1.517  0.9151 -1.1244 -1.9880
 3059SOL     OW21235   3.248   0.749   6.749  0.5678  0.3452  0.1231
 3059SOL    HW121236   3.269   0.832   6.696 -2.8654  1.1966 -0.0573
 3059SOL    HW221237   3.170   0.703   6.708  1.9484 -2.6058  0.7079
 3060SOL     OW21238   1.118   9.924   5.708 -0.6369  0.5273 -0.2560
 3060SOL    HW121239   1.093  10.020   5.721  2.1320  1.1236  1.0621
 3060SOL    HW221240   1.143   9.909   5.613  1.8483  1.8948  0.1273
 3061SOL     OW21241   5.481   1.958   0.723  0.0541 -0.3568  0.1219
 3061SOL    HW121242   5.457   1.881   0.664 -1.3151 -1.0519  1.5696
 3061SOL    HW221243   5.397   2.001   0.758  0.8443 -0.3289  2.0488
 3062SOL     OW21244   8.942   9.335   4.916  0.3427  0.0220  0.1295
 3062SOL    HW121245   8.860   9.284   4.942  1.7562 -1.8316  1.0177
 3062SOL    HW221246   9.016   9.315   4.980  1.2242  2.4736 -0.0558
 3063SOL     OW21247   6.834   3.776   1.131  0.6611 -0.0897 -0.5768
 3063SOL    HW121248   6.815   3.720   1.050  0.5092 -0.5934 -0.1977
 3063SOL    HW221249   6.838   3.717   1.211  1.4913  0.3196 -0.3147
 3064SOL     OW21250   8.921   5.302   1.070 -0.0719  0.0927  0.1347
 3064SOL    HW121251   8.873   5.257   0.995 -0.4722  0.5434  0.1201
 3064SOL    HW221252   9.017   5.272   1.071 -0.3327 -0.7490  0.1193
 3065SOL     OW21253   1.626   4.703   0.817 -0.2429 -0.5190 -0.3073
 3065SOL    HW121254   1.700   4.747   0.767 -1.3375  0.8499 -0.7368
 3065SOL    HW221255   1.638   4.718   0.915 -0.7424  0.9850 -0.4603
 3066SOL     OW21256   7.844   6.365   5.949  0.0477 -0.0452  0.5227
 3066SOL    HW121257   7.828   6.438   6.017 -0.4108 -1.8352  2.3860
 3066SOL    HW221258   7.845   6.405   5.857  1.8200  2.6024  1.6319
 3067SOL     OW21259   9.943   9.954   1.433  0.2048 -0.2160 -0.4802
 3067SOL    HW121260   9.962   9.868   1.480  0.4663 -0.4915 -1.0821
 3067SOL    HW221261  10.001   9.961   1.352  0.9711  1.0517  0.1838
 3068SOL     OW21262   1.287   1.333   1.639  0.3170 -0.1206  0.2347
 3068SOL    HW121263   1.303   1.258   1.703 -1.7272  0.9105  2.0246
 3068SOL    HW221264   1.221   1.304   1.569  1.1995 -0.6603 -0.3999
 3069SOL     OW21265   2.811   8.077   5.522  0.0254  0.1268 -0.5100
 3069SOL    HW121266   2.881   8.114   5.583 -1.7383  1.4469  0.7388
 3069SOL    HW221267   2.829   7.980   5.506  2.3213  0.5182 -0.4911
 3070SOL     OW21268   2.604   0.392   1.056 -0.4172  0.0849 -0.1199
 3070SOL    HW121269   2.682   0.413   0.997  0.1003  0.0144  0.5201
 3070SOL    HW221270   2.549   0.320   1.015 -0.3113  0.3507 -0.7254
 3071SOL     OW21271   1.488   1.706   7.188  0.5449  0.2903 -0.0916
 3071SOL    HW121272   1.484   1.694   7.287  0.0567 -0.5724 -0.2029
 3071SOL    HW221273   1.506   1.801   7.166  1.1272  0.3980  0.8352
 3072SOL     OW21274   0.374   5.846   0.013  0.3241  0.4214  0.8665
 3072SOL    HW121275   0.304   5.785  -0.025 -1.0900  2.1381  0.6524
 3072SOL    HW221276   0.465   5.809  -0.007 -0.4435 -0.0920 -1.8517
 3073SOL     OW21277   0.609   5.864   5.053  0.2879  0.1997 -0.3625
 3073SOL    HW121278   0.550   5.787   5.028 -0.5468 -0.1218  2.4295
 3073SOL    HW221279   0.705   5.834   5.052 -0.0406 -0.9792  0.8714
 3074SOL     OW21280   1.738   6.238   7.302  0.6168 -0.0541  0.4021
 3074SOL    HW121281   1.707   6.320   7.254  1.5157  0.5637  0.8519
 3074SOL    HW221282   1.725   6.158   7.243  2.8456  0.8522 -1.3910
 3075SOL     OW21283   2.449   7.602   8.708  0.2386  0.3356  0.3506
 3075SOL    HW121284   2.484   7.667   8.775  1.9917 -0.7771  0.5304
 3075SOL    HW221285   2.360   7.567   8.739 -0.0379  1.5361  0.9514
 3076SOL     OW21286   4.744   6.583   7.019  0.1142 -0.0723 -0.1928
 3076SOL    HW121287   4.738   6.679   7.048  0.2743  0.2679 -1.2600
 3076SOL    HW221288   4.763   6.525   7.099  0.2788  0.8104  0.4174
 3077SOL     OW21289   2.937   6.118   8.436  0.1889 -0.3180  0.7857
 3077SOL    HW121290   2.856   6.151   8.484 -0.5300  1.2384 -1.4530
 3077SOL    HW221291   2.921   6.025   8.403  0.5981 -1.3090  3.2788
 3078SOL     OW21292   0.349   0.431   5.179 -0.4500  0.7683 -0.1090
 3078SOL    HW121293   0.334   0.524   5.214 -1.1239  1.6476 -2.5883
 3078SOL    HW221294   0.412   0.436   5.101 -2.0223 -0.5922 -1.4967
 3079SOL     OW21295   3.157   1.821   3.330  0.7128  0.1360 -0.1887
 3079SOL    HW121296   3.149   1.750   3.261  1.5199  2.0230 -2.2740
 3079SOL    HW221297   3.107   1.903   3.300  1.9013  1.3184  0.9828
 3080SOL     OW21298   4.623   4.824   0.414 -0.2893 -0.7621  0.0111
 3080SOL    HW121299   4.540   4.784   0.374  0.5734 -1.0739 -1.4944
 3080SOL    HW221300   4.675   4.753   0.461 -0.7054 -0.6366  0.6588
 3081SOL     OW21301   7.251   4.491   3.706 -0.4321  0.4474  0.2965
 3081SOL    HW121302   7.195   4.493   3.624 -1.5911  1.5108  1.0952
 3081SOL    HW221303   7.204   4.440   3.778 -0.0839  0.7975  0.7781
 3082SOL     OW21304   8.577   9.160   5.546 -0.4456  0.4417 -0.4610
 3082SOL    HW121305   8.482   9.127   5.550 -0.4869  0.5040 -0.9945
 3082SOL    HW221306   8.579   9.254   5.511 -0.1593  0.3465 -0.6994
 3083SOL     OW21307   8.346   2.326   0.785 -0.0727 -0.0671  0.0551
 3083SOL    HW121308   8.356   2.311   0.687  1.9072 -1.3178  0.4229
 3083SOL    HW221309   8.430   2.366   0.822 -1.0813  1.1075  1.1075
 3084SOL     OW21310   0.754   6.608   4.049 -0.1293  0.5203 -0.3613
 3084SOL    HW121311   0.703   6.690   4.023 -0.8825  0.1382 -0.0994
 3084SOL    HW221312   0.742   6.590   4.146 -0.6248 -0.3481 -0.5705
 3085SOL     OW21313   7.965   2.600   9.770 -0.2854 -0.5705 -0.6821
 3085SOL    HW121314   7.965   2.698   9.789  2.0658 -0.4964 -0.8360
 3085SOL    HW221315   7.960   2.549   9.856  1.4879 -0.2800 -0.3892
 3086SOL     OW21316   1.291   4.737   6.977 -0.1645  0.0942 -0.0424
 3086SOL    HW121317   1.253   4.681   7.051  0.2758 -2.3233 -1.5867
 3086SOL    HW221318   1.377   4.779   7.008 -0.5416 -0.0059  1.1682
 3087SOL     OW21319   6.249   2.730   8.681 -0.1036  0.3739  0.2375
 3087SOL    HW121320   6.332   2.773   8.646  0.2082  0.5781  1.2165
 3087SOL    HW221321   6.266   2.634   8.702 -0.3241  0.2193 -0.2758
 3088SOL     OW21322   1.342   8.130   7.912 -0.2064 -0.5604 -0.3616
 3088SOL    HW121323   1.285   8.141   7.993  0.9153  0.6812  0.2661
 3088SOL    HW221324   1.365   8.033   7.901  3.2603 -0.3066  3.3501
 3089SOL     OW21325   3.185   3.906   8.440  0.5454  0.2143  0.3089
 3089SOL    HW121326   3.253   3.880   8.372  1.5181 -0.0615  1.3675
 3089SOL    HW221327   3.229   3.915   8.529 -0.6609  0.8524  0.8479
 3090SOL     OW21328   9.869   4.527   6.502 -0.3372 -0.1352  0.0729
 3090SOL    HW121329   9.937   4.472   6.551 -0.3801 -0.1776  0.0862
 3090SOL    HW221330   9.778   4.505   6.537 -0.1594  1.6727  1.7522
 3091SOL     OW21331   0.069   6.233   7.470 -0.1656  0.0769 -0.4982
 3091SOL    HW121332   0.026   6.286   7.397  1.7403 -0.3320 -1.9606
 3091SOL    HW221333   0.100   6.145   7.435  1.3322  0.1236  0.6399
 3092SOL     OW21334   2.252   4.969   6.919  0.1850  0.4076  0.2509
 3092SOL    HW121335   2.276   4.906   6.992 -0.9554  0.6464  0.8338
 3092SOL    HW221336   2.203   4.920   6.847 -0.6347  0.6170  0.6684
 3093SOL     OW21337   7.037   6.020   7.204 -0.0008 -0.4887 -0.0547
 3093SOL    HW121338   7.037   6.097   7.268 -0.9647  1.3153 -2.1650
 3093SOL    HW221339   6.951   6.019   7.154  0.1180 -2.8150 -0.2548
 3094SOL     OW21340   1.583   2.633   8.466  0.5299  0.8331 -0.1688
 3094SOL    HW121341   1.644   2.712   8.478  0.0010  1.3008 -0.5232
 3094SOL    HW221342   1.515   2.654   8.396  0.4673  0.0043 -0.3599
 3095SOL     OW21343   0.765   8.513   8.189  0.0530 -0.3004 -0.0815
 3095SOL    HW121344   0.671   8.539   8.211  0.6623  2.0822 -0.1757
 3095SOL    HW221345   0.786   8.541   8.096  1.4056  0.7375  0.5230
 3096SOL     OW21346   0.218   8.586   8.122  0.0540  0.2114 -0.2445
 3096SOL    HW121347   0.226   8.682   8.146  1.5047 -0.5452  2.4893
 3096SOL    HW221348   0.158   8.540   8.187 -0.3183 -0.8172 -1.2931
 3097SOL     OW21349   2.020   4.259   5.818 -0.1638 -0.5826  0.1561
 3097SOL    HW121350   2.010   4.160   5.815  1.5917 -0.7858  0.7402
 3097SOL    HW221351   1.987   4.294   5.906 -0.8469 -0.6197 -0.0778
 3098SOL     OW21352   2.622   3.636   5.013 -0.1067 -0.3708 -0.1002
 3098SOL    HW121353   2.715   3.614   4.982  0.2144 -0.1973  0.7451
 3098SOL    HW221354   2.578   3.553   5.047  0.5024 -0.0415  1.5041
 3099SOL     OW21355   9.416   2.154   9.046  0.1915 -0.6371  0.4944
 3099SOL    HW121356   9.318   2.151   9.027  0.4157 -0.6656 -0.6970
 3099SOL    HW221357   9.440   2.245   9.080 -0.1804 -0.4874  0.3662
 3100SOL     OW21358   0.420   4.988   0.706  0.3289  0.4231 -0.1212
 3100SOL    HW121359   0.434   5.041   0.623  1.1407  1.1429  0.4751
 3100SOL    HW221360   0.352   5.033   0.764  0.8004  0.6634  0.2493
 3101SOL     OW21361   8.920   5.176   0.489 -0.5259  0.1398 -0.7294
 3101SOL    HW121362   8.908   5.212   0.397 -3.1404  1.8447  0.2201
 3101SOL    HW221363   8.869   5.091   0.499 -1.2854  0.6191 -0.4953
 3102SOL     OW21364   9.431   2.866   0.330  0.2832  0.0829 -0.1424
 3102SOL    HW121365   9.418   2.782   0.278 -0.9577 -0.7594  1.4681
 3102SOL    HW221366   9.343   2.912   0.341  0.5082  0.2097  1.2241
 3103SOL     OW21367   4.964   9.239   5.206  0.4622  0.1648  0.1716
 3103SOL    HW121368   4.920   9.200   5.124 -0.5055  1.7364 -0.0688
 3103SOL    HW221369   4.979   9.166   5.273 -1.1685 -0.6706 -0.3389
 3104SOL     OW21370   3.184   9.167   1.688  0.7607  0.1300  0.0631
 3104SOL    HW121371   3.153   9.094   1.749  0.3681  0.0558 -0.2271
 3104SOL    HW221372   3.117   9.181   1.615  1.4269 -0.0669 -0.5946
 3105SOL     OW21373   8.339   4.665   7.030 -0.0557  0.5336 -0.8120
 3105SOL    HW121374   8.319   4.761   7.046 -0.8902  0.3361 -0.6723
 3105SOL    HW221375   8.254   4.615   7.014  0.4509 -0.0131 -1.8042
 3106SOL     OW21376   6.654   4.566   9.409  0.1011  0.0444  0.2331
 3106SOL    HW121377   6.618   4.522   9.326  1.9889 -0.8936 -0.1104
 3106SOL    HW221378   6.635   4.507   9.488 -1.7710  0.9765  0.5172
 3107SOL     OW21379   8.565   7.054   4.133  0.0484  0.2689  0.5164
 3107SOL    HW121380   8.504   7.011   4.066  0.8796  0.4590 -0.3708
 3107SOL    HW221381   8.648   6.998   4.142  0.7731  1.2425 -0.0282
 3108SOL     OW21382   1.659   0.792   8.930 -0.0361 -0.0546 -0.0054
 3108SOL    HW121383   1.630   0.731   9.003  0.8108  0.1447  0.4992
 3108SOL    HW221384   1.743   0.839   8.956 -0.1812  0.6467 -0.7622
 3109SOL     OW21385   2.422   3.703   1.183  0.3437  0.1279  0.1792
 3109SOL    HW121386   2.407   3.686   1.086  0.4068  0.3441  0.1323
 3109SOL    HW221387   2.335   3.718   1.229  0.2703 -0.4766  0.2511
 3110SOL     OW21388   1.868   5.407   4.902  0.6655 -0.0777 -0.1928
 3110SOL    HW121389   1.783   5.355   4.909  1.4879 -1.3409  0.4928
 3110SOL    HW221390   1.924   5.392   4.983  2.0964 -0.2492 -1.1865
 3111SOL     OW21391   0.204   3.330   1.211 -0.2931 -0.2391  0.5635
 3111SOL    HW121392   0.190   3.249   1.153 -1.4619  0.5908 -0.3463
 3111SOL    HW221393   0.137   3.330   1.285 -1.7538  1.0064 -0.7174
 3112SOL     OW21394   0.518   1.658   3.902 -0.2456  0.1041 -0.7258
 3112SOL    HW121395   0.566   1.633   3.819 -0.4269  0.3287 -0.8993
 3112SOL    HW221396   0.532   1.588   3.972  0.2300  0.1097 -0.8166
 3113SOL     OW21397   5.055   7.422   3.147  0.2339  0.2581 -0.2896
 3113SOL    HW121398   5.099   7.444   3.060  0.4448  0.1646 -0.2065
 3113SOL    HW221399   5.125   7.404   3.216  0.0708  0.5089 -0.0557
 3114SOL     OW21400   1.411   3.611   0.572  0.6158  0.0153  0.5081
 3114SOL    HW121401   1.453   3.524   0.547 -1.0780 -0.5574 -0.4576
 3114SOL    HW221402   1.323   3.594   0.617  0.0170  1.2350 -0.1685
 3115SOL     OW21403   5.224   3.597   0.534 -0.9082  0.4636  0.9365
 3115SOL    HW121404   5.237   3.541   0.453 -1.4768 -0.4761  1.4859
 3115SOL    HW221405   5.312   3.614   0.578 -0.7193  0.1379  0.6853
 3116SOL     OW21406   3.201   5.323   6.181 -0.3385  0.0911  0.3271
 3116SOL    HW121407   3.257   5.257   6.132  0.9510  0.7714  0.8739
 3116SOL    HW221408   3.211   5.413   6.140 -0.5073  0.3449  0.8288
 3117SOL     OW21409   2.664   2.154   2.491 -0.0091  0.2745  0.5049
 3117SOL    HW121410   2.701   2.061   2.493 -0.6339  0.0270  0.6204
 3117SOL    HW221411   2.726   2.215   2.541  0.3269 -0.1081  0.5576
 3118SOL     OW21412   4.941   6.087   6.558 -0.3180 -0.4306 -0.2503
 3118SOL    HW121413   4.922   6.109   6.654  0.3910 -1.8746  0.2305
 3118SOL    HW221414   5.021   6.028   6.553 -0.5819 -0.6684 -1.7107
 3119SOL     OW21415   1.040   6.129   8.996 -0.4285  0.4825  0.1782
 3119SOL    HW121416   0.998   6.173   9.075 -0.9714  0.3563 -0.0385
 3119SOL    HW221417   0.973   6.121   8.922 -0.4170 -0.9208  0.3034
 3120SOL     OW21418   3.712   3.695   5.601  0.5902  0.1851  0.6933
 3120SOL    HW121419   3.764   3.717   5.684  1.5824  0.4827 -0.0042
 3120SOL    HW221420   3.699   3.778   5.547  1.4214 -0.3236 -0.2908
 3121SOL     OW21421   1.253   8.042   9.952  0.3517  0.3277 -0.5045
 3121SOL    HW121422   1.247   8.060   9.854  0.8392  0.6137 -0.4846
 3121SOL    HW221423   1.170   7.997   9.983  0.7109 -0.8854 -1.2780
 3122SOL     OW21424   5.371   0.199   5.884 -0.1251  0.1793 -0.4353
 3122SOL    HW121425   5.388   0.148   5.968 -0.8318  0.0982 -0.3451
 3122SOL    HW221426   5.440   0.272   5.876  0.4781 -0.3608 -0.2367
 3123SOL     OW21427   1.391   5.871   2.871  0.0220 -0.5136  0.6480
 3123SOL    HW121428   1.377   5.799   2.938  1.9665  0.0953  1.7840
 3123SOL    HW221429   1.360   5.958   2.909  0.6824 -0.2434  0.5814
 3124SOL     OW21430   8.956   2.578   4.737  0.0136  0.6473  0.5998
 3124SOL    HW121431   9.031   2.518   4.709  0.6672  1.9640 -0.5615
 3124SOL    HW221432   8.905   2.608   4.656 -0.6242  1.2379  1.2089
 3125SOL     OW21433   9.570   4.799   6.062 -0.2005  0.3168  0.3993
 3125SOL    HW121434   9.628   4.879   6.081 -0.0845  0.3313 -0.0228
 3125SOL    HW221435   9.478   4.816   6.097 -1.0961  1.9967 -2.6084
 3126SOL     OW21436   1.291   3.921   7.506  0.2717  0.1034  0.0716
 3126SOL    HW121437   1.311   4.015   7.536 -1.6247  0.6755 -0.3701
 3126SOL    HW221438   1.276   3.921   7.407 -2.7450 -0.0987  0.4888
 3127SOL     OW21439   2.982   4.947   0.031 -0.2784 -0.0830  0.4602
 3127SOL    HW121440   2.936   5.028  -0.004 -1.9635 -0.4762  1.7354
 3127SOL    HW221441   3.016   4.965   0.124 -1.5783 -1.1430  1.1630
 3128SOL     OW21442   0.056   6.171   9.978  0.4192  0.3366 -0.1707
 3128SOL    HW121443  -0.011   6.151   9.907 -0.2660 -2.1493  1.1124
 3128SOL    HW221444   0.012   6.222  10.052 -0.8010 -3.3416  1.7926
 3129SOL     OW21445   0.578   1.148   2.414  0.0096 -0.1344 -0.3832
 3129SOL    HW121446   0.612   1.212   2.482  0.7652 -1.2928  0.3408
 3129SOL    HW221447   0.547   1.199   2.333 -0.6075  1.2180  0.6845
 3130SOL     OW21448   1.173   8.033   6.760 -0.2794  0.4851 -0.1981
 3130SOL    HW121449   1.100   8.084   6.714 -1.9704 -1.0730  0.7228
 3130SOL    HW221450   1.185   7.944   6.715  1.2404  0.8063 -0.4822
 3131SOL     OW21451   6.793   6.788   1.267 -0.5611 -0.1601  0.1106
 3131SOL    HW121452   6.878   6.836   1.289  0.0341 -1.1610  0.0502
 3131SOL    HW221453   6.754   6.825   1.182 -0.5988  0.8208  0.5529
 3132SOL     OW21454   1.302   5.237   5.945 -0.5568 -0.1502  0.2578
 3132SOL    HW121455   1.303   5.337   5.934  0.4045 -0.1561  0.2609
 3132SOL    HW221456   1.329   5.194   5.859  1.5830 -0.3389  1.0109
 3133SOL     OW21457   3.532   3.877   0.793 -0.6991  0.7089  0.7793
 3133SOL    HW121458   3.441   3.908   0.823  0.1975  2.5199  1.6730
 3133SOL    HW221459   3.600   3.901   0.861  0.6019  0.0717 -0.2620
 3134SOL     OW21460   1.906   6.362   3.149  0.0246 -0.0786 -0.6907
 3134SOL    HW121461   1.933   6.458   3.150  1.5730 -0.4957 -1.3710
 3134SOL    HW221462   1.836   6.346   3.220 -0.6851  1.6546 -0.9828
 3135SOL     OW21463   7.662   2.133   6.139  0.0935  0.1459 -0.3918
 3135SOL    HW121464   7.752   2.110   6.174  0.3792  2.5608  0.5602
 3135SOL    HW221465   7.592   2.112   6.208  0.1416  0.2473 -0.3128
 3136SOL     OW21466   2.972   9.591   5.851  1.0258 -0.0725  0.3354
 3136SOL    HW121467   2.933   9.594   5.943 -0.3393 -0.7112 -0.2080
 3136SOL    HW221468   3.035   9.668   5.839 -0.9704  1.6738  0.8387
 3137SOL     OW21469   3.391   0.433   3.144 -0.3862  0.0915  0.0936
 3137SOL    HW121470   3.436   0.522   3.158  1.4023 -0.9822  1.3598
 3137SOL    HW221471   3.347   0.404   3.229 -1.4294  0.0018 -0.4699
 3138SOL     OW21472   2.237   3.923   4.114 -0.2765 -0.5367  0.0745
 3138SOL    HW121473   2.207   4.014   4.084 -1.3802 -0.6159  0.8768
 3138SOL    HW221474   2.235   3.920   4.214 -0.6707 -1.5836  0.0380
 3139SOL     OW21475   2.828   2.645   9.617  0.0761 -0.1259  0.4513
 3139SOL    HW121476   2.832   2.687   9.708 -0.1154 -1.1005  0.9113
 3139SOL    HW221477   2.843   2.715   9.548  0.7557  0.5266  1.2533
 3140SOL     OW21478   3.606   3.442   9.819  0.3800 -0.3344  0.1449
 3140SOL    HW121479   3.549   3.365   9.791  0.5108 -0.1864 -0.5189
 3140SOL    HW221480   3.643   3.424   9.910  0.2078 -0.9406  0.0973
 3141SOL     OW21481   1.870   4.674   7.363 -0.2037 -0.0697  0.0614
 3141SOL    HW121482   1.947   4.663   7.302  0.9117  1.3073  1.1907
 3141SOL    HW221483   1.870   4.600   7.431 -0.3724 -0.5422 -0.4539
 3142SOL     OW21484   9.834   2.250   5.718 -0.5260 -1.1049 -0.5240
 3142SOL    HW121485   9.868   2.156   5.714  2.0104 -0.3479  1.7018
 3142SOL    HW221486   9.883   2.306   5.651 -1.6033 -1.2172 -1.4216
 3143SOL     OW21487   8.972   5.732   5.913 -0.2217 -0.3444  0.1521
 3143SOL    HW121488   8.973   5.710   6.010  0.4206  3.0547  0.9658
 3143SOL    HW221489   8.884   5.772   5.888 -0.1184 -0.5251 -0.5261
 3144SOL     OW21490   2.136   3.550   1.503 -0.5511  0.1788 -0.0569
 3144SOL    HW121491   2.074   3.555   1.582  0.6523  0.3937  0.8993
 3144SOL    HW221492   2.230   3.566   1.534  0.1344 -1.3776 -1.2831
 3145SOL     OW21493   2.997   2.977   9.988 -0.0854 -1.0079  0.4555
 3145SOL    HW121494   3.006   2.878   9.974  1.2002 -0.5199 -2.4473
 3145SOL    HW221495   3.083   3.014  10.023 -0.6127 -0.9187  1.6784
 3146SOL     OW21496   7.723   2.104   1.543  0.0949 -0.0019 -0.1827
 3146SOL    HW121497   7.820   2.129   1.547 -0.0114  0.1976  1.3736
 3146SOL    HW221498   7.667   2.187   1.547 -0.1565 -0.1509 -0.5703
 3147SOL     OW21499   6.066   0.462   5.362 -0.0753  0.4139  0.1049
 3147SOL    HW121500   6.057   0.553   5.402  1.0576 -0.1370  1.6732
 3147SOL    HW221501   6.114   0.469   5.275  3.1926  0.9793  1.8712
 3148SOL     OW21502   3.413   4.784   9.088  0.0064  0.0755 -0.3805
 3148SOL    HW121503   3.442   4.788   8.993  1.5469  1.1350  0.1143
 3148SOL    HW221504   3.322   4.743   9.094  0.1320 -0.5005 -2.2487
 3149SOL     OW21505   1.461   3.757   0.324 -0.1507 -0.0093 -0.3226
 3149SOL    HW121506   1.531   3.716   0.265  0.7329 -0.6032  1.1048
 3149SOL    HW221507   1.427   3.688   0.388 -1.5182  0.4749 -0.5087
 3150SOL     OW21508   0.025   5.044   0.700  0.2452  0.8901 -0.2644
 3150SOL    HW121509   0.065   5.023   0.789  1.2663 -0.6558 -1.0732
 3150SOL    HW221510  -0.005   4.959   0.656 -1.3520  1.7522 -0.8893
 3151SOL     OW21511   8.207   2.315   8.404  0.6859  0.4037 -0.0850
 3151SOL    HW121512   8.292   2.325   8.456  0.9487 -1.0365 -0.2308
 3151SOL    HW221513   8.132   2.297   8.467  1.1011 -1.9193 -0.2327
 3152SOL     OW21514   5.679   8.061   6.710 -0.3636 -0.1771 -0.1121
 3152SOL    HW121515   5.728   7.982   6.749 -1.4225 -0.9951 -0.4134
 3152SOL    HW221516   5.667   8.130   6.781  0.0366 -0.5476  0.3232
 3153SOL     OW21517   4.036   4.135   5.736 -0.7903 -0.1203  0.0968
 3153SOL    HW121518   4.036   4.209   5.669 -1.4745 -1.3591 -1.3015
 3153SOL    HW221519   4.114   4.074   5.718 -0.0902  0.3765  1.3871
 3154SOL     OW21520   4.875   4.451   4.197 -0.1344  0.3609 -0.2591
 3154SOL    HW121521   4.824   4.397   4.130  1.3947 -2.2100  0.5427
 3154SOL    HW221522   4.973   4.442   4.179  0.2848 -0.1240  2.0821
 3155SOL     OW21523   4.509   2.233   7.130 -0.1718  0.2077  0.0658
 3155SOL    HW121524   4.522   2.249   7.032 -0.4537  1.1382  0.1677
 3155SOL    HW221525   4.414   2.205   7.146 -0.6091  1.7321  0.2489
 3156SOL     OW21526   1.051   4.928   6.025 -0.3490  0.5386  0.2376
 3156SOL    HW121527   1.007   5.010   5.991  2.4460  0.9057 -2.7545
 3156SOL    HW221528   1.125   4.953   6.088 -0.6660  0.2041  0.7522
 3157SOL     OW21529   2.735   3.847   9.913  0.2912 -0.0431  0.7588
 3157SOL    HW121530   2.799   3.774   9.889 -0.1940 -0.1186 -0.3704
 3157SOL    HW221531   2.653   3.838   9.857  0.8536  2.2526 -0.5166
 3158SOL     OW21532   4.123   1.958   5.353 -0.3710  0.7837  0.1957
 3158SOL    HW121533   4.073   2.003   5.427  1.8593  1.1193  1.5527
 3158SOL    HW221534   4.061   1.940   5.277 -3.3692 -2.0170  3.1387
 3159SOL     OW21535   2.173   8.296   7.456  0.2516 -0.3533  0.0579
 3159SOL    HW121536   2.261   8.297   7.409 -0.2863  2.5554 -1.0146
 3159SOL    HW221537   2.104   8.252   7.399  0.0122  1.5444 -1.1812
 3160SOL     OW21538   9.755   4.361   9.247 -0.3451  0.1723  0.1251
 3160SOL    HW121539   9.705   4.308   9.179  0.8322 -0.6256 -0.1355
 3160SOL    HW221540   9.769   4.454   9.213  0.7656 -0.3878 -0.9963
 3161SOL     OW21541   8.419   2.057   9.296 -0.3322 -0.0906  0.4865
 3161SOL    HW121542   8.417   2.076   9.198 -0.5690  1.0530  0.7066
 3161SOL    HW221543   8.411   2.143   9.347  1.2189 -0.5180  1.5068
 3162SOL     OW21544   8.411   9.197   6.266  0.6315 -0.3682  0.8170
 3162SOL    HW121545   8.338   9.217   6.331  0.4030  1.9700 -0.0937
 3162SOL    HW221546   8.399   9.255   6.185  2.4862 -1.2396 -0.0963
 3163SOL     OW21547   7.995   2.834   2.299 -0.1403  0.0759  0.2606
 3163SOL    HW121548   7.942   2.893   2.238 -1.0331 -1.3558 -0.3700
 3163SOL    HW221549   7.942   2.752   2.320  0.9629 -0.3595  1.3789
 3164SOL     OW21550   7.673   3.724   4.553  0.0348  0.0908 -0.6862
 3164SOL    HW121551   7.694   3.774   4.637  2.3933 -0.7496 -0.7388
 3164SOL    HW221552   7.574   3.717   4.542 -0.2954  1.7443  1.0995
 3165SOL     OW21553   7.692   2.706   8.052 -0.5507 -0.1265  0.1966
 3165SOL    HW121554   7.781   2.663   8.066 -0.6170 -0.3532 -0.0841
 3165SOL    HW221555   7.657   2.682   7.962 -0.9884 -0.1988  0.3849
 3166SOL     OW21556   0.441   4.317   7.000  0.0793 -0.0467  0.6920
 3166SOL    HW121557   0.510   4.356   6.939 -0.0327 -0.3913  0.3469
 3166SOL    HW221558   0.486   4.263   7.071  0.1551 -0.4111  0.3665
 3167SOL     OW21559   5.707   9.204   2.034 -0.3270 -0.2337 -0.0574
 3167SOL    HW121560   5.716   9.132   2.103 -0.1332 -1.0171 -0.9002
 3167SOL    HW221561   5.798   9.236   2.008 -0.4162  0.4015  0.3980
 3168SOL     OW21562   3.659   3.535   5.817  0.2544  1.0751  0.3680
 3168SOL    HW121563   3.562   3.524   5.838  0.6589  1.1667  2.4154
 3168SOL    HW221564   3.670   3.593   5.736 -1.3739  1.8495  0.6897
 3169SOL     OW21565   3.590   5.281   7.714  0.5671  0.1297 -0.4499
 3169SOL    HW121566   3.559   5.189   7.689  0.3856 -0.1281  0.7029
 3169SOL    HW221567   3.629   5.280   7.806  2.4502  0.8047 -1.2153
 3170SOL     OW21568   4.808   4.133   0.004  0.2469  0.2235  0.1647
 3170SOL    HW121569   4.768   4.152  -0.086  0.6282 -3.7369 -0.8950
 3170SOL    HW221570   4.738   4.146   0.074 -0.6165  1.3072 -0.8680
 3171SOL     OW21571   9.678   5.545   7.984 -0.2174 -0.0572  0.1577
 3171SOL    HW121572   9.598   5.578   8.035 -1.3143 -0.9885 -0.9435
 3171SOL    HW221573   9.656   5.459   7.939  1.6863 -0.7720  0.5406
 3172SOL     OW21574   4.457   5.819   3.093  0.0103 -0.0485 -0.5179
 3172SOL    HW121575   4.439   5.898   3.035 -0.9663 -0.5123 -0.8625
 3172SOL    HW221576   4.472   5.738   3.036  0.7535 -0.1708 -0.1615
 3173SOL     OW21577   7.083   5.875   5.298 -0.1359 -0.1469  0.1062
 3173SOL    HW121578   7.066   5.968   5.331  1.3012  0.5143 -0.9783
 3173SOL    HW221579   6.996   5.826   5.290 -0.9010  1.0913  0.6812
 3174SOL     OW21580   6.771   5.268   1.375  0.2533  0.2062 -0.2320
 3174SOL    HW121581   6.671   5.269   1.370  0.2269  0.0154  0.3010
 3174SOL    HW221582   6.804   5.180   1.339  0.2139  0.1348 -0.0944
 3175SOL     OW21583   5.120   1.841   2.235  0.3045 -0.0104 -0.5549
 3175SOL    HW121584   5.033   1.886   2.257  0.0054 -0.6242 -0.4725
 3175SOL    HW221585   5.120   1.813   2.139  1.3232  2.0197 -1.1672
 3176SOL     OW21586   9.326   4.648   3.124  0.4039 -0.0466 -0.2327
 3176SOL    HW121587   9.259   4.675   3.054  0.1719  0.1027  0.0444
 3176SOL    HW221588   9.281   4.647   3.213  0.8419  0.3146 -0.0087
 3177SOL     OW21589   5.773   3.276   8.506  0.4706  0.0357 -0.5227
 3177SOL    HW121590   5.683   3.312   8.481  0.4862  1.1359  0.9359
 3177SOL    HW221591   5.763   3.186   8.549  0.0175  0.4455  0.2254
 3178SOL     OW21592   7.786   6.950   4.884 -0.0829 -0.4924  0.2844
 3178SOL    HW121593   7.741   6.934   4.972  2.2739 -0.6251  1.5147
 3178SOL    HW221594   7.767   6.873   4.823 -0.1642 -1.3368  1.3573
 3179SOL     OW21595   0.762   5.993   6.438  0.2575  0.1809 -0.6693
 3179SOL    HW121596   0.790   6.080   6.480 -0.1302  0.5805 -1.2177
 3179SOL    HW221597   0.719   5.935   6.507  0.1681  0.5840 -0.3832
 3180SOL     OW21598   8.939   2.122   8.063  0.0896  0.1761 -0.0495
 3180SOL    HW121599   8.914   2.026   8.076 -1.8875  0.5885 -0.6649
 3180SOL    HW221600   8.874   2.165   8.000 -0.0637  2.3530  1.5438
 3181SOL     OW21601   4.271   3.436   5.944  0.4767 -0.1843 -0.3289
 3181SOL    HW121602   4.370   3.433   5.930  0.1414 -0.6135 -2.9097
 3181SOL    HW221603   4.229   3.353   5.908 -0.8252 -0.0207  0.7647
 3182SOL     OW21604   2.498   2.284   7.197 -0.0524 -0.5081  0.2439
 3182SOL    HW121605   2.556   2.202   7.190 -0.3174 -0.5043 -2.1510
 3182SOL    HW221606   2.552   2.365   7.173 -0.4853 -0.2655  0.0913
 3183SOL     OW21607   4.861   8.260   3.771  0.0345 -0.0482  0.1747
 3183SOL    HW121608   4.925   8.198   3.725  0.7969  0.8114  0.0594
 3183SOL    HW221609   4.826   8.326   3.705 -0.1658  0.1401  0.4700
 3184SOL     OW21610   2.079   4.966   6.365  0.2654 -0.0023 -0.3817
 3184SOL    HW121611   2.061   5.016   6.280 -0.9776 -1.6584 -1.1061
 3184SOL    HW221612   2.148   4.895   6.348 -0.5005 -0.7998 -0.1831
 3185SOL     OW21613   0.605   4.011   9.903 -0.4154 -0.4372 -0.5820
 3185SOL    HW121614   0.682   3.967   9.857 -1.6999 -2.1278 -1.1465
 3185SOL    HW221615   0.631   4.032   9.998  1.1900  0.2816 -1.1507
 3186SOL     OW21616   0.387   6.208   5.683  0.5981  0.3457 -0.1416
 3186SOL    HW121617   0.362   6.131   5.742  0.7327  0.7387  0.4327
 3186SOL    HW221618   0.486   6.220   5.684  0.7586 -0.7383 -1.8235
 3187SOL     OW21619   4.385   4.686   7.938 -0.0534  0.0277  0.0661
 3187SOL    HW121620   4.367   4.673   7.841  1.3514 -1.5223 -0.0174
 3187SOL    HW221621   4.451   4.760   7.951  0.5942 -0.4973 -0.2346
 3188SOL     OW21622   2.863   2.065   7.009 -0.4770 -0.3766 -0.7317
 3188SOL    HW121623   2.870   2.161   6.982 -0.8242  0.1400  0.9379
 3188SOL    HW221624   2.792   2.020   6.954 -0.1521  0.2495 -1.6841
 3189SOL     OW21625   7.616   6.902   5.786  0.4810  0.1347  0.0370
 3189SOL    HW121626   7.662   6.880   5.872  0.3063  1.2796  0.4315
 3189SOL    HW221627   7.651   6.989   5.751 -0.6856  0.5263 -0.1631
 3190SOL     OW21628   1.576   3.821   6.148 -0.2365  0.2553 -0.2381
 3190SOL    HW121629   1.550   3.725   6.139 -1.5510  0.3076  2.6664
 3190SOL    HW221630   1.494   3.877   6.162  0.5514  1.7758 -1.5105
 3191SOL     OW21631   6.737   6.095   6.486  0.0626  0.0487  0.4731
 3191SOL    HW121632   6.743   6.018   6.422 -3.3049 -1.5660  1.9620
 3191SOL    HW221633   6.743   6.181   6.435  1.7714 -1.1748 -1.4716
 3192SOL     OW21634   0.312   3.433   5.937 -0.6057 -0.0832  0.5941
 3192SOL    HW121635   0.247   3.461   5.866 -1.0896  0.0377  1.0843
 3192SOL    HW221636   0.263   3.417   6.022  0.0378  0.1958  1.0170
 3193SOL     OW21637   9.602   7.338   2.283 -0.2899 -0.2975 -0.0974
 3193SOL    HW121638   9.673   7.354   2.352  0.6727 -0.4026 -1.0445
 3193SOL    HW221639   9.601   7.241   2.258 -1.1985 -0.4092  0.3721
 3194SOL     OW21640   4.769   4.293   7.104  0.1572 -0.9292  0.0157
 3194SOL    HW121641   4.804   4.255   7.190  0.2804 -0.6868  0.0742
 3194SOL    HW221642   4.846   4.320   7.047  0.0879 -1.9395 -0.5520
 3195SOL     OW21643   8.576   6.251   7.153  0.1080 -0.3227  0.0418
 3195SOL    HW121644   8.601   6.238   7.057 -0.9952 -0.3556 -0.2468
 3195SOL    HW221645   8.622   6.182   7.208  0.5650 -0.4531 -0.4950
 3196SOL     OW21646   1.444   8.088   6.708 -0.1651  0.1876 -0.1250
 3196SOL    HW121647   1.344   8.088   6.710 -0.1509  0.0579  0.3840
 3196SOL    HW221648   1.479   8.012   6.761  0.2091  0.3298 -0.1682
 3197SOL     OW21649   2.325   4.446   6.509 -0.2849  0.2282 -0.4622
 3197SOL    HW121650   2.344   4.467   6.413 -2.5806  3.4875 -0.2920
 3197SOL    HW221651   2.404   4.473   6.565 -0.0972  1.0897 -1.1328
 3198SOL     OW21652   0.634   9.585   0.334 -0.0603  0.1740  0.2540
 3198SOL    HW121653   0.672   9.669   0.371 -1.7575  1.2578 -0.3826
 3198SOL    HW221654   0.689   9.555   0.256 -1.0315  2.2663 -1.2823
 3199SOL     OW21655   0.510   3.242   5.905 -0.0164 -0.0580 -0.3393
 3199SOL    HW121656   0.475   3.148   5.907 -0.0828 -0.0002  2.2690
 3199SOL    HW221657   0.433   3.305   5.893 -0.1035 -0.2437 -0.8162
 3200SOL     OW21658   9.076   6.506   5.493 -0.0096  0.3150  0.0768
 3200SOL    HW121659   9.079   6.570   5.569  1.1841  1.1805 -0.6962
 3200SOL    HW221660   8.980   6.486   5.470 -0.3718  0.6707  1.2702
 3201SOL     OW21661   2.130   2.956   5.542 -0.3737  0.3575  0.1489
 3201SOL    HW121662   2.034   2.960   5.513 -0.3476  0.0173  0.0184
 3201SOL    HW221663   2.159   3.047   5.572 -0.4559  0.6794 -0.7226
 3202SOL     OW21664   6.873   3.471   4.649 -0.5444 -0.1887  0.1842
 3202SOL    HW121665   6.972   3.467   4.633 -0.3688 -2.5094  1.5358
 3202SOL    HW221666   6.827   3.410   4.585 -0.7403 -1.8328  1.8377
 3203SOL     OW21667   5.984   0.951   2.021 -0.4911 -0.0929 -0.0302
 3203SOL    HW121668   5.943   0.999   2.099 -1.8632 -1.0800 -0.1484
 3203SOL    HW221669   6.076   0.988   2.005 -0.0279 -0.1364  2.2930
 3204SOL     OW21670   8.916   2.255   5.922  0.1244 -0.2567 -0.4795
 3204SOL    HW121671   8.855   2.334   5.915  1.2956  0.5835 -1.6438
 3204SOL    HW221672   8.870   2.173   5.888 -0.5905  0.2340 -0.6959
 3205SOL     OW21673   2.715   9.764   4.937 -0.0436 -0.0136 -0.4436
 3205SOL    HW121674   2.763   9.676   4.941 -2.4068 -1.3673 -0.8946
 3205SOL    HW221675   2.755   9.827   5.003  0.5674 -2.0087  1.1327
 3206SOL     OW21676   3.479   6.241   8.786 -0.3216 -0.2556 -0.0190
 3206SOL    HW121677   3.473   6.185   8.704 -2.1664  2.2363 -1.6699
 3206SOL    HW221678   3.399   6.301   8.791  1.9742  2.8265  1.2287
 3207SOL     OW21679   5.373   7.598   9.892 -0.1916 -0.5856  0.2746
 3207SOL    HW121680   5.356   7.597   9.794  0.3411  0.1246  0.1768
 3207SOL    HW221681   5.357   7.506   9.929 -1.1721 -0.6722 -0.3389
 3208SOL     OW21682   1.654   1.148   6.565 -0.1989  0.1024 -0.1596
 3208SOL    HW121683   1.653   1.056   6.603 -3.4303 -0.8741 -2.4070
 3208SOL    HW221684   1.567   1.193   6.584  0.4343  1.8142 -1.1692
 3209SOL     OW21685   9.726   7.182   7.939  0.2234 -0.1464 -0.3038
 3209SOL    HW121686   9.744   7.121   8.016  4.1848  2.4342  0.9822
 3209SOL    HW221687   9.684   7.267   7.973  0.7301  0.4566 -1.1601
 3210SOL     OW21688   0.646   2.373   6.230  0.0793 -0.2186 -0.3984
 3210SOL    HW121689   0.602   2.291   6.192 -2.5713  0.9706  0.0386
 3210SOL    HW221690   0.734   2.347   6.269 -0.1035 -2.6316 -1.4722
 3211SOL     OW21691   2.270   3.875   8.104  0.0116  0.3385  0.1935
 3211SOL    HW121692   2.235   3.956   8.056  1.9382  0.5617 -0.9249
 3211SOL    HW221693   2.307   3.811   8.036  0.5512 -0.4610  1.2399
 3212SOL     OW21694   1.653   2.590   0.768  0.2764  0.2682  0.3854
 3212SOL    HW121695   1.589   2.540   0.710  2.0133 -1.4499 -0.1299
 3212SOL    HW221696   1.687   2.530   0.841  0.6142  1.4079  1.1897
 3213SOL     OW21697   7.342   1.082   1.509  0.3624  0.8364  0.0827
 3213SOL    HW121698   7.349   1.171   1.464 -0.0662  1.1746  0.6790
 3213SOL    HW221699   7.292   1.019   1.449  0.3263  1.1072 -0.1744
 3214SOL     OW21700   5.433   4.928   7.006  0.2180  0.0421  0.3989
 3214SOL    HW121701   5.346   4.906   7.051  1.2175 -1.3464  1.7151
 3214SOL    HW221702   5.417   4.944   6.909 -1.6297  0.6124  0.7727
 3215SOL     OW21703   0.526   6.069   1.566  0.5452  0.4900 -0.5215
 3215SOL    HW121704   0.488   6.048   1.476  0.1014  1.6450 -0.6221
 3215SOL    HW221705   0.482   6.152   1.602  1.0330  0.2933  0.5627
 3216SOL     OW21706   8.524   8.403   7.260 -0.3878 -0.6790 -0.3307
 3216SOL    HW121707   8.512   8.376   7.355 -1.3020 -0.6924 -0.4482
 3216SOL    HW221708   8.454   8.360   7.204  0.1951 -0.7326 -1.0262
 3217SOL     OW21709   1.945   3.181   5.304 -0.7100 -0.0634  0.1437
 3217SOL    HW121710   1.878   3.112   5.329 -1.0419 -0.3211 -1.4487
 3217SOL    HW221711   1.914   3.231   5.223 -0.3892  1.8274  1.1346
 3218SOL     OW21712   1.738   1.304   5.664 -0.7371  0.9165  0.0831
 3218SOL    HW121713   1.837   1.294   5.652 -0.6039 -1.1658  2.4542
 3218SOL    HW221714   1.690   1.255   5.591  0.0022 -1.0842  0.9097
 3219SOL     OW21715   2.775   4.444   9.572  0.2956  0.2054 -0.5692
 3219SOL    HW121716   2.699   4.437   9.637 -0.3205  0.7570 -1.2210
 3219SOL    HW221717   2.845   4.505   9.610 -2.3464  4.6969 -2.5365
 3220SOL     OW21718   2.781   5.592   9.891  0.1173  0.4641  0.2293
 3220SOL    HW121719   2.762   5.513   9.833  0.7272  0.4806  0.0059
 3220SOL    HW221720   2.706   5.658   9.882  0.2591  0.5130 -0.6171
 3221SOL     OW21721   4.189   5.976   0.741  0.7085  0.5913 -0.2003
 3221SOL    HW121722   4.106   5.987   0.795  0.7034  1.1376 -0.3238
 3221SOL    HW221723   4.269   5.985   0.801  0.6698 -1.4108  0.2020
 3222SOL     OW21724   1.240   3.063   3.392 -0.5428  0.0112  0.0639
 3222SOL    HW121725   1.275   3.090   3.302 -0.3618 -2.4016 -0.6067
 3222SOL    HW221726   1.241   2.964   3.400 -2.6471  0.1030  1.9009
 3223SOL     OW21727   2.371   3.765   6.553  1.0288  0.3680  0.5756
 3223SOL    HW121728   2.299   3.761   6.623  1.2555  0.9188  0.8364
 3223SOL    HW221729   2.342   3.827   6.480  0.0786 -1.4279 -0.6254
 3224SOL     OW21730   9.329   9.059   7.742 -0.2996  0.3990  0.0678
 3224SOL    HW121731   9.357   9.005   7.822 -0.8399 -2.1457 -1.3925
 3224SOL    HW221732   9.385   9.142   7.737 -1.1183  1.2796  3.7796
 3225SOL     OW21733   9.544   8.193   9.272 -0.4792 -0.1792  0.1695
 3225SOL    HW121734   9.588   8.165   9.357 -2.3479 -0.2712  1.1458
 3225SOL    HW221735   9.527   8.112   9.215  0.0103 -0.2184  0.0753
 3226SOL     OW21736   2.254   4.588   9.020 -0.1476  0.0179 -0.4798
 3226SOL    HW121737   2.230   4.495   8.993 -0.6911 -0.2506  0.8462
 3226SOL    HW221738   2.308   4.586   9.104 -0.8772  0.9214  0.0330
 3227SOL     OW21739   4.896   4.255   0.815 -0.4114 -0.0405 -0.0020
 3227SOL    HW121740   4.895   4.175   0.755  1.6312 -0.6958  0.8037
 3227SOL    HW221741   4.984   4.303   0.807 -0.7174  0.7781  1.2684
 3228SOL     OW21742   1.617   5.128   3.625 -0.4829  0.0783  0.6372
 3228SOL    HW121743   1.560   5.062   3.577 -0.1931 -0.7031  1.3567
 3228SOL    HW221744   1.672   5.179   3.559 -1.0280 -0.0958  0.0479
 3229SOL     OW21745   1.262   7.813   6.603 -0.0126  0.0430 -0.1240
 3229SOL    HW121746   1.286   7.789   6.509 -0.4906 -0.5256 -0.1024
 3229SOL    HW221747   1.189   7.754   6.635 -0.1308  0.5051  0.4712
 3230SOL     OW21748   6.068   8.301   6.314 -0.1766  0.0903 -0.5329
 3230SOL    HW121749   6.061   8.314   6.413 -1.2714  0.2425 -0.6251
 3230SOL    HW221750   5.976   8.297   6.274  0.2655  2.4177 -1.8572
 3231SOL     OW21751   0.683   2.847   0.320 -0.1147 -0.4641 -0.0936
 3231SOL    HW121752   0.592   2.889   0.317 -1.6005 -3.4894 -0.0519
 3231SOL    HW221753   0.694   2.798   0.406  0.6550 -1.9756 -1.0257
 3232SOL     OW21754   0.152   2.015   6.631  0.1558  0.2372  0.5520
 3232SOL    HW121755   0.108   2.044   6.546  2.7339 -1.2836 -1.3749
 3232SOL    HW221756   0.094   1.947   6.677 -0.3956 -0.3658 -0.9892
 3233SOL     OW21757   1.435   3.434   7.471 -0.3645  0.2739  0.1192
 3233SOL    HW121758   1.413   3.427   7.374 -2.0646  0.5762  0.4745
 3233SOL    HW221759   1.373   3.499   7.515 -0.4122 -0.7821  1.6590
 3234SOL     OW21760   0.384   8.321   5.693  0.2476 -0.0365 -0.2177
 3234SOL    HW121761   0.435   8.270   5.763 -0.5586 -0.3245  0.1731
 3234SOL    HW221762   0.351   8.257   5.624  2.0445  0.4004 -1.5108
 3235SOL     OW21763   5.925   4.303   8.708 -0.3167 -0.8723 -0.0859
 3235SOL    HW121764   5.961   4.396   8.722  0.8837 -1.6845  2.5453
 3235SOL    HW221765   5.903   4.291   8.611 -0.5332  2.1539 -0.4871
 3236SOL     OW21766   9.795   7.608   5.612 -0.1564  0.3140  0.1500
 3236SOL    HW121767   9.889   7.577   5.627 -0.6059 -0.9588  0.4071
 3236SOL    HW221768   9.741   7.531   5.578 -0.5357  1.6352 -2.3665
 3237SOL     OW21769   2.878   4.630   5.342  0.2994 -0.5412  0.0362
 3237SOL    HW121770   2.861   4.638   5.243 -1.4105  0.0716  0.3689
 3237SOL    HW221771   2.967   4.669   5.363  0.5849 -0.4731 -1.2396
 3238SOL     OW21772   5.194   2.085   3.556 -0.1128 -0.2737 -0.2773
 3238SOL    HW121773   5.193   1.986   3.568 -0.0912 -0.2453 -0.0300
 3238SOL    HW221774   5.124   2.126   3.614  0.8564 -0.0250  0.7297
 3239SOL     OW21775   9.890   5.203   7.952 -0.2505 -0.5271  0.0290
 3239SOL    HW121776   9.792   5.214   7.934  0.0242  1.2467 -0.4658
 3239SOL    HW221777   9.927   5.288   7.989  1.2215 -1.0173 -0.2737
 3240SOL     OW21778   2.830   1.465   7.145 -0.1051 -0.1803 -0.2212
 3240SOL    HW121779   2.912   1.417   7.176 -0.2269 -1.1988 -1.3980
 3240SOL    HW221780   2.856   1.552   7.104  0.5985 -1.2121 -2.0816
 3241SOL     OW21781   7.484   6.241   6.459 -0.1166  0.2003  0.0788
 3241SOL    HW121782   7.421   6.270   6.386 -0.7429 -0.0390  0.5247
 3241SOL    HW221783   7.524   6.152   6.435  0.0603  0.3515 -0.2031
 3242SOL     OW21784   0.266   5.939   3.453 -0.8449  0.2583 -0.0633
 3242SOL    HW121785   0.268   5.955   3.354  0.8170 -0.7728 -0.2222
 3242SOL    HW221786   0.195   5.873   3.474 -1.7437  1.0845 -0.4685
 3243SOL     OW21787   9.959   6.895   6.085  0.0898  0.3361  0.1228
 3243SOL    HW121788   9.930   6.857   5.997 -0.3770  0.9469  0.0075
 3243SOL    HW221789   9.983   6.820   6.147 -2.4389 -0.2622  0.4602
 3244SOL     OW21790   5.926   4.153   8.933  0.7781  0.1344 -0.0124
 3244SOL    HW121791   5.931   4.187   8.839  0.1288 -1.2755 -0.5673
 3244SOL    HW221792   6.010   4.104   8.955  0.3283 -0.7983 -0.3596
 3245SOL     OW21793   2.251   4.131   2.229 -0.3348 -0.0083  0.2829
 3245SOL    HW121794   2.311   4.067   2.276  1.3645  0.8873 -0.6279
 3245SOL    HW221795   2.305   4.188   2.166 -2.0949  0.9728 -0.3782
 3246SOL     OW21796   0.551   5.713   5.316 -0.1590  0.2910 -0.1319
 3246SOL    HW121797   0.524   5.697   5.221  0.9651 -0.3074 -0.3676
 3246SOL    HW221798   0.471   5.739   5.370 -1.2838 -1.8584 -0.6958
 3247SOL     OW21799   7.095   2.252   1.525 -0.1319  0.3591 -0.3621
 3247SOL    HW121800   7.095   2.314   1.447  0.1015  0.2116 -0.4800
 3247SOL    HW221801   7.035   2.174   1.506 -0.0993  0.3390 -0.3820
 3248SOL     OW21802   4.433   6.997   5.209 -0.2819  0.4264  0.0431
 3248SOL    HW121803   4.346   6.992   5.259  0.2282  1.7313  1.0979
 3248SOL    HW221804   4.436   7.082   5.157  0.7485  0.8516  0.7789
 3249SOL     OW21805   2.572   5.574   9.315  0.5068  0.5048 -0.3433
 3249SOL    HW121806   2.493   5.557   9.374  0.1943 -0.7661 -1.1130
 3249SOL    HW221807   2.557   5.657   9.262  0.4742  1.2556  0.8300
 3250SOL     OW21808   1.654   4.563   1.547 -0.1068  0.0476  0.0475
 3250SOL    HW121809   1.568   4.523   1.579  0.1543  0.2269  0.9938
 3250SOL    HW221810   1.657   4.660   1.574 -0.3598  0.4969 -1.4837
 3251SOL     OW21811   8.626   6.923   8.799  0.0268  0.4161 -0.2124
 3251SOL    HW121812   8.575   6.848   8.841  0.7208  0.4132  0.6422
 3251SOL    HW221813   8.713   6.935   8.846  0.6125  0.7307 -1.3574
 3252SOL     OW21814   0.841   2.686   9.498 -0.4399  0.2629 -0.2366
 3252SOL    HW121815   0.767   2.729   9.448  0.4139 -0.5570 -2.2393
 3252SOL    HW221816   0.822   2.588   9.510 -0.9462  0.5710  1.6374
 3253SOL     OW21817   9.352   8.422   9.566  0.0364 -0.4066  0.0586
 3253SOL    HW121818   9.296   8.432   9.484  0.6635 -1.2528 -0.4705
 3253SOL    HW221819   9.307   8.359   9.630 -0.1495 -0.2155  0.1212
 3254SOL     OW21820   9.637   3.667   4.089  0.0113  0.9902 -0.4993
 3254SOL    HW121821   9.648   3.585   4.146 -1.3214 -0.9886 -2.9485
 3254SOL    HW221822   9.574   3.730   4.133  1.2465  0.8358  1.5515
 3255SOL     OW21823   0.600   4.314   7.700  0.1910 -0.5360  0.0140
 3255SOL    HW121824   0.631   4.408   7.683  1.0489 -0.7883  0.2101
 3255SOL    HW221825   0.567   4.307   7.794  0.2788 -0.4768  0.0490
 3256SOL     OW21826   0.839   4.147   8.320  0.3728 -0.5686 -0.0747
 3256SOL    HW121827   0.917   4.149   8.383 -0.3963 -2.3477  0.9550
 3256SOL    HW221828   0.832   4.057   8.278 -3.1102 -1.5835  2.4351
 3257SOL     OW21829   6.458   8.415   3.007 -0.4733 -0.3883 -0.0006
 3257SOL    HW121830   6.409   8.387   3.090 -0.0477 -0.5547  0.1931
 3257SOL    HW221831   6.556   8.398   3.018 -0.4942 -1.1052 -0.8234
 3258SOL     OW21832   2.237   5.152   4.960 -0.1231 -0.2970 -0.0525
 3258SOL    HW121833   2.332   5.176   4.977 -0.3424  0.6700 -0.1431
 3258SOL    HW221834   2.198   5.109   5.042 -0.5829  2.4554  1.2450
 3259SOL     OW21835   0.093   9.632   9.778  0.2827  0.2951 -0.1639
 3259SOL    HW121836   0.132   9.540   9.776  2.8282  1.3549 -1.1547
 3259SOL    HW221837   0.160   9.696   9.815 -0.3852  2.2240 -2.1707
 3260SOL     OW21838   0.101   6.935   8.738  0.4774 -0.2526  0.5789
 3260SOL    HW121839   0.153   6.891   8.665  0.3368 -0.3295  0.5230
 3260SOL    HW221840   0.070   7.025   8.709 -0.0093 -0.4888  0.3560
 3261SOL     OW21841   4.693   3.912   8.882  0.1266 -0.5491 -0.2492
 3261SOL    HW121842   4.652   3.846   8.945 -0.2000 -0.3951 -0.3022
 3261SOL    HW221843   4.629   3.932   8.808  0.3838 -0.4818 -0.4569
 3262SOL     OW21844   1.571   4.593   9.618 -0.7754  0.2607 -0.3684
 3262SOL    HW121845   1.540   4.498   9.617  0.9801 -0.3760  0.8334
 3262SOL    HW221846   1.596   4.622   9.526  1.7681 -1.5675 -0.3215
 3263SOL     OW21847   8.360   5.888   9.072  0.2038  0.5006  0.1659
 3263SOL    HW121848   8.381   5.807   9.017  0.0420  0.2748  0.4386
 3263SOL    HW221849   8.298   5.948   9.021  1.0042  0.8652 -0.3891
 3264SOL     OW21850   9.774   8.300   8.895  0.0334  0.0528  0.2163
 3264SOL    HW121851   9.830   8.382   8.903  0.5886 -0.2750 -0.2506
 3264SOL    HW221852   9.680   8.320   8.924  0.1094  0.9162 -0.1187
 3265SOL     OW21853   3.140   3.848   9.922 -0.2381  0.4785 -0.2933
 3265SOL    HW121854   3.214   3.901   9.880 -0.3544 -0.2823 -1.4805
 3265SOL    HW221855   3.138   3.866  10.021  1.4118  0.6487 -0.2759
 3266SOL     OW21856   3.090   7.586   1.083  0.2040 -0.0756 -0.1209
 3266SOL    HW121857   3.105   7.683   1.062  0.8051 -0.2390 -0.4414
 3266SOL    HW221858   3.105   7.571   1.181  1.1196 -0.0354 -0.2476
 3267SOL     OW21859   4.184   8.715   9.402 -0.4964 -0.0057 -0.6459
 3267SOL    HW121860   4.168   8.639   9.465 -3.2356 -0.1381 -1.4241
 3267SOL    HW221861   4.282   8.735   9.398  0.0556 -2.1161  1.1517
 3268SOL     OW21862   3.155   9.320   9.344 -0.0729 -0.4397  0.2561
 3268SOL    HW121863   3.182   9.229   9.375  0.8532  0.5636  2.4888
 3268SOL    HW221864   3.177   9.388   9.414 -4.0354  1.0656  0.1771
 3269SOL     OW21865   6.825   5.055   2.552 -0.5309  0.3195  0.3427
 3269SOL    HW121866   6.883   5.136   2.552 -0.2607  0.1816 -2.4512
 3269SOL    HW221867   6.752   5.067   2.484 -1.3237 -1.2015  0.9114
 3270SOL     OW21868   9.943   6.833   8.352 -0.5386  0.6131 -0.1759
 3270SOL    HW121869   9.936   6.930   8.376 -0.8950  0.6908 -0.5895
 3270SOL    HW221870   9.979   6.824   8.259 -1.2633  0.3719 -0.4379
 3271SOL     OW21871   0.363   3.506   7.695  0.0931 -0.4995 -0.2779
 3271SOL    HW121872   0.369   3.571   7.620 -0.6454  0.3407  0.3787
 3271SOL    HW221873   0.427   3.431   7.680  0.5228  0.0768 -1.3360
 3272SOL     OW21874   2.189   4.128   9.784 -0.1304 -0.4731  0.3305
 3272SOL    HW121875   2.280   4.167   9.771 -0.3326  0.5389  1.9062
 3272SOL    HW221876   2.195   4.028   9.780  1.0384 -0.4078  0.4216
 3273SOL     OW21877   8.629   2.732   9.156 -0.0638 -0.0176  0.2254
 3273SOL    HW121878   8.647   2.825   9.187  1.5894  0.4649 -2.0241
 3273SOL    HW221879   8.533   2.710   9.169 -0.4289  1.9436  0.9560
 3274SOL     OW21880   5.719   0.495   9.392  0.0705  0.2464  0.1689
 3274SOL    HW121881   5.663   0.577   9.384 -0.8403 -0.4476 -0.6836
 3274SOL    HW221882   5.790   0.510   9.461  0.9912  2.3572 -1.1977
 3275SOL     OW21883   2.177   6.938   1.867  0.6050  0.0990 -0.3701
 3275SOL    HW121884   2.148   6.997   1.943  0.8582 -2.0026  1.3897
 3275SOL    HW221885   2.263   6.972   1.831 -0.3831  2.1472 -0.8921
 3276SOL     OW21886   4.770   2.989   8.291 -0.0484  0.3793  0.3146
 3276SOL    HW121887   4.738   2.944   8.374  0.7385 -2.0510 -0.6337
 3276SOL    HW221888   4.848   3.048   8.312  0.2934 -0.4138  1.2626
 3277SOL     OW21889   9.244   2.478   1.120 -0.3416 -0.5544  0.0068
 3277SOL    HW121890   9.324   2.529   1.091  0.0862 -1.0834  0.2493
 3277SOL    HW221891   9.183   2.538   1.172  0.3669 -0.3997  0.6715
 3278SOL     OW21892   3.060   4.578   0.301 -0.5037 -0.8220 -0.2070
 3278SOL    HW121893   2.975   4.527   0.311 -1.1688 -0.1505 -2.2520
 3278SOL    HW221894   3.087   4.579   0.205  0.4557  1.1685  0.0656
 3279SOL     OW21895   0.068   6.181   7.061 -0.0703  0.1667 -0.3129
 3279SOL    HW121896   0.091   6.155   6.967 -1.5354  2.0995 -1.2222
 3279SOL    HW221897   0.144   6.232   7.102 -0.4156  1.4650 -1.2939
 3280SOL     OW21898   1.867   3.200   2.438 -0.4002  0.0257 -0.0068
 3280SOL    HW121899   1.785   3.143   2.441  0.1904 -0.8418 -0.2087
 3280SOL    HW221900   1.841   3.296   2.442 -1.3483 -0.2767  1.3519
 3281SOL     OW21901   5.137   2.936   9.347 -0.5812 -0.1192  0.1491
 3281SOL    HW121902   5.186   2.973   9.426  1.1885  0.8404 -1.3532
 3281SOL    HW221903   5.046   2.907   9.375  0.3859 -0.7634  2.7532
 3282SOL     OW21904   9.719   3.541   1.451  0.3487  0.0309 -0.0600
 3282SOL    HW121905   9.627   3.579   1.450  1.1875  2.1336  0.2792
 3282SOL    HW221906   9.723   3.463   1.389 -2.0457 -1.0678  1.1192
 3283SOL     OW21907   2.014   2.054   6.521 -0.1459 -0.2804  0.1970
 3283SOL    HW121908   1.939   1.987   6.523  0.2829 -0.7138  2.3218
 3283SOL    HW221909   2.080   2.027   6.451 -0.4799 -1.5193  0.3390
 3284SOL     OW21910   2.495   2.424   0.503  0.4656  0.0570 -0.1252
 3284SOL    HW121911   2.404   2.393   0.531 -0.5907  2.3401 -0.8884
 3284SOL    HW221912   2.555   2.345   0.492 -0.4078 -1.2607  3.8061
 3285SOL     OW21913   3.231   6.083   4.725  1.0113  0.1298 -0.3656
 3285SOL    HW121914   3.204   6.095   4.629  1.2467  0.9372 -0.3305
 3285SOL    HW221915   3.188   6.000   4.761  2.7676 -1.4840 -1.8549
 3286SOL     OW21916   3.730   9.945   9.858 -0.0282 -0.2322 -0.2369
 3286SOL    HW121917   3.640   9.965   9.896 -0.2868 -0.6199 -0.6483
 3286SOL    HW221918   3.788   9.904   9.929 -0.2600 -0.2249 -0.0447
 3287SOL     OW21919   8.463   4.444   8.144  0.3431 -0.1367 -0.2275
 3287SOL    HW121920   8.448   4.365   8.084 -2.6374 -0.4345  0.8232
 3287SOL    HW221921   8.441   4.419   8.238  1.5167  1.3537  0.4661
 3288SOL     OW21922   0.455   7.207   1.059 -0.1910 -0.1243 -0.1463
 3288SOL    HW121923   0.357   7.225   1.064  0.0358  0.5106  2.8341
 3288SOL    HW221924   0.480   7.182   0.965 -3.3782 -1.4501 -0.6760
 3289SOL     OW21925   7.430   4.327   3.344 -0.0024 -0.1103 -0.0868
 3289SOL    HW121926   7.469   4.239   3.371 -0.2310  0.1679  1.1406
 3289SOL    HW221927   7.424   4.331   3.244  4.6087  0.4522 -0.4749
 3290SOL     OW21928   2.174   3.467   7.795 -0.1558 -0.1568 -0.2500
 3290SOL    HW121929   2.198   3.389   7.854 -2.7179 -0.5740  0.2963
 3290SOL    HW221930   2.179   3.551   7.848  0.0450 -0.2394 -0.1331
 3291SOL     OW21931   4.623   1.588   5.084  0.0225  0.0566  0.2584
 3291SOL    HW121932   4.699   1.650   5.065  1.0684 -1.3900 -0.3241
 3291SOL    HW221933   4.609   1.582   5.183 -0.2026  1.3539  0.3110
 3292SOL     OW21934   1.212   7.011   7.380  0.4081  0.0551 -0.6935
 3292SOL    HW121935   1.252   6.920   7.390 -0.0441 -0.1251 -0.5013
 3292SOL    HW221936   1.157   7.014   7.296  1.2957  0.4773 -1.2595
 3293SOL     OW21937   2.276   0.392   4.728  0.4361  0.3751 -0.0907
 3293SOL    HW121938   2.272   0.383   4.629  0.5776 -0.6099 -0.0185
 3293SOL    HW221939   2.183   0.394   4.765  0.3820  0.8622 -0.2493
 3294SOL     OW21940   9.579   6.481   0.854 -0.5374 -0.4271 -0.0693
 3294SOL    HW121941   9.605   6.574   0.877 -0.0381 -0.6505  0.2756
 3294SOL    HW221942   9.592   6.465   0.757 -0.3426 -0.2303 -0.0747
 3295SOL     OW21943   2.820   2.785   4.362 -0.2805  0.6688  0.4141
 3295SOL    HW121944   2.722   2.777   4.347 -0.3299 -0.5224  1.2975
 3295SOL    HW221945   2.841   2.877   4.395 -1.3624  0.3320  2.1156
 3296SOL     OW21946   9.990   5.190   2.302 -0.2293  0.5165  0.7700
 3296SOL    HW121947   9.935   5.247   2.363 -0.4205  1.4216 -0.2468
 3296SOL    HW221948  10.057   5.246   2.254 -0.5866 -0.0535 -0.4246
 3297SOL     OW21949   1.967   2.408   9.233 -0.1520 -0.3596 -0.4051
 3297SOL    HW121950   1.997   2.460   9.153  1.6034  0.3414  0.6754
 3297SOL    HW221951   2.043   2.352   9.266 -0.4629  0.3367  1.5275
 3298SOL     OW21952   1.917   8.687   6.755 -0.8421  0.1565  0.1321
 3298SOL    HW121953   1.916   8.617   6.685 -2.5514 -0.8071  1.0757
 3298SOL    HW221954   1.887   8.648   6.842 -0.7219  1.7785  0.9299
 3299SOL     OW21955   9.996   2.817   3.780 -0.5624 -0.7648 -0.0197
 3299SOL    HW121956   9.956   2.784   3.694 -0.1779 -1.2916 -0.0031
 3299SOL    HW221957  10.024   2.912   3.770  0.3686 -1.1048 -0.8002
 3300SOL     OW21958   1.449   5.758   9.383 -0.1133 -0.0228  0.0160
 3300SOL    HW121959   1.456   5.790   9.289 -1.2404 -0.3545 -0.1890
 3300SOL    HW221960   1.535   5.774   9.430  0.4427  0.1892 -1.0565
 3301SOL     OW21961   2.517   8.907   1.108 -0.8977 -0.1766  0.0400
 3301SOL    HW121962   2.488   8.903   1.013 -3.2675 -0.5639  0.7612
 3301SOL    HW221963   2.605   8.956   1.114 -0.5675 -0.4276 -2.3462
 3302SOL     OW21964   9.863   6.136   9.809  0.9974  0.3492  0.1196
 3302SOL    HW121965   9.810   6.161   9.890  1.2497 -0.7225  0.6199
 3302SOL    HW221966   9.832   6.047   9.775  1.8860  0.1179 -0.0925
 3303SOL     OW21967   5.342   4.804   1.864  0.1746 -0.0361  0.2759
 3303SOL    HW121968   5.313   4.709   1.854 -0.4093  0.0808  0.8172
 3303SOL    HW221969   5.283   4.863   1.808  0.8397 -0.0408 -0.4345
 3304SOL     OW21970   0.007   4.277   7.818 -0.4600 -0.2349  0.3074
 3304SOL    HW121971   0.096   4.263   7.775  0.4880  0.4663  1.9890
 3304SOL    HW221972  -0.034   4.189   7.839  0.0922 -0.5585  0.0523
 3305SOL     OW21973   8.476   7.886   5.462  0.3723 -0.0136 -0.0800
 3305SOL    HW121974   8.555   7.835   5.497  1.6325  1.5000 -0.6478
 3305SOL    HW221975   8.440   7.945   5.534 -1.5447 -2.1919  0.8030
 3306SOL     OW21976   0.032   7.104   8.345  0.0787  0.2582  0.0870
 3306SOL    HW121977   0.128   7.114   8.371 -0.1513  0.6117  0.8103
 3306SOL    HW221978   0.018   7.144   8.255  0.6157  0.1729 -0.0401
 3307SOL     OW21979   7.091   2.887   8.237 -0.1139 -0.6013  0.3225
 3307SOL    HW121980   7.049   2.879   8.328  0.1501 -2.0376  0.3351
 3307SOL    HW221981   7.036   2.835   8.171  1.7108 -2.6579  0.3764
 3308SOL     OW21982   4.438   5.152   7.901  0.5994  0.2822 -0.3552
 3308SOL    HW121983   4.367   5.134   7.970  0.4566 -0.5745 -0.7135
 3308SOL    HW221984   4.402   5.216   7.833 -0.7055 -1.9441 -1.8431
 3309SOL     OW21985   0.128   2.737   9.856 -0.0248  0.4281 -0.2520
 3309SOL    HW121986   0.078   2.745   9.942  0.4509 -0.6898  0.1396
 3309SOL    HW221987   0.074   2.777   9.782 -0.1527  2.0174  0.6581
 3310SOL     OW21988   6.547   8.961   9.424 -0.4957 -0.2663  0.1123
 3310SOL    HW121989   6.499   9.018   9.357 -1.0694 -0.7441  0.1196
 3310SOL    HW221990   6.596   9.020   9.489  0.5761  0.2026 -1.0881
 3311SOL     OW21991   7.825   4.557   5.963  0.0823  0.4088  0.0293
 3311SOL    HW121992   7.748   4.513   6.008  1.0972 -1.1753  0.2606
 3311SOL    HW221993   7.852   4.638   6.015 -1.2664  0.8463  0.0667
 3312SOL     OW21994   2.894   4.922   1.027 -0.4250  0.3702 -0.0011
 3312SOL    HW121995   2.913   4.966   0.939  0.8499  3.3934  1.6890
 3312SOL    HW221996   2.814   4.966   1.068 -0.4350 -0.3840  0.7857
 3313SOL     OW21997   1.632   3.190   9.553  1.1550  0.3327  0.0905
 3313SOL    HW121998   1.552   3.146   9.594  1.8852 -1.0980  0.0073
 3313SOL    HW221999   1.608   3.284   9.525 -0.9985 -0.6389 -1.4932
 3314SOL     OW22000   7.449   2.964   9.996 -0.6505 -0.0587  0.2305
 3314SOL    HW122001   7.475   3.035   9.931  0.8732 -1.1042 -0.3238
 3314SOL    HW222002   7.417   2.883   9.946 -0.0769 -0.6364  0.7881
 3315SOL     OW22003   4.108   3.456   8.386  0.4481  0.3981  0.5798
 3315SOL    HW122004   4.127   3.499   8.298  2.5568 -0.2685  0.6792
 3315SOL    HW222005   4.044   3.381   8.373  0.1548  0.7938 -0.2791
 3316SOL     OW22006   1.901   0.076   4.870  0.4784  0.6362  0.9072
 3316SOL    HW122007   1.906  -0.023   4.863 -1.1265  0.5535  0.8111
 3316SOL    HW222008   1.818   0.102   4.920  0.6844  1.9321  0.5916
 3317SOL     OW22009   8.357   3.622   2.494  0.8590  0.3792  0.0882
 3317SOL    HW122010   8.292   3.625   2.570  0.8628  0.5091  0.0866
 3317SOL    HW222011   8.307   3.632   2.407  0.6446 -1.7480 -0.0474
 3318SOL     OW22012   9.379   2.896   9.370 -0.5275 -0.0209  0.2645
 3318SOL    HW122013   9.410   2.811   9.412 -0.7950 -1.0099 -1.5129
 3318SOL    HW222014   9.280   2.906   9.385 -0.4934  0.0077  0.4816
 3319SOL     OW22015   9.778   4.181   4.546  0.2605 -0.1714 -0.1106
 3319SOL    HW122016   9.841   4.259   4.538  0.6776 -0.5125 -0.1918
 3319SOL    HW222017   9.723   4.192   4.629 -0.7719  0.9872 -0.9183
 3320SOL     OW22018   1.533   7.660   8.179  0.2897 -0.1449 -0.1228
 3320SOL    HW122019   1.629   7.678   8.200  0.2914 -0.7515  0.3908
 3320SOL    HW222020   1.520   7.563   8.162 -0.1962 -0.0328 -0.4003
 3321SOL     OW22021   0.134   1.179   2.367 -0.4104  0.1869  0.5138
 3321SOL    HW122022   0.072   1.102   2.383 -2.3873  1.4354 -0.9143
 3321SOL    HW222023   0.112   1.253   2.431 -2.8440  2.0130 -2.3287
 3322SOL     OW22024   0.177   2.517   9.558  0.1060 -0.4287 -0.2433
 3322SOL    HW122025   0.199   2.516   9.461 -1.1277 -1.0300 -0.5282
 3322SOL    HW222026   0.152   2.610   9.586  3.3897  0.3788  0.2053
 3323SOL     OW22027   2.506   9.223   5.803  0.1696  0.0043  0.2114
 3323SOL    HW122028   2.543   9.134   5.775 -0.4915 -0.1465 -0.2039
 3323SOL    HW222029   2.493   9.223   5.902 -0.0422 -0.4537  0.1890
 3324SOL     OW22030   9.370   3.167   3.214 -0.4597  0.2972 -0.0179
 3324SOL    HW122031   9.447   3.127   3.163 -0.7331  0.7425 -0.7924
 3324SOL    HW222032   9.292   3.178   3.152 -2.0703 -2.6496  1.3388
 3325SOL     OW22033   7.435   3.370   0.250 -0.1441  0.0736  0.6763
 3325SOL    HW122034   7.385   3.413   0.326 -0.4194  1.3767 -0.2203
 3325SOL    HW222035   7.480   3.441   0.196 -0.5062 -0.7772 -0.7802
 3326SOL     OW22036   0.032   1.468   0.167  0.3709  0.3388  0.1189
 3326SOL    HW122037   0.060   1.564   0.173  1.1432  0.3117 -2.2892
 3326SOL    HW222038   0.085   1.423   0.095  0.9766 -2.2663  2.1384
 3327SOL     OW22039   2.974   1.989   9.328  0.1994 -0.1012 -0.6408
 3327SOL    HW122040   3.015   1.977   9.418  1.5937 -2.5816 -1.5557
 3327SOL    HW222041   2.877   2.012   9.338  0.7717  1.5007  1.4894
 3328SOL     OW22042   2.353   5.638   5.260  0.9854 -0.2535  0.2038
 3328SOL    HW122043   2.388   5.568   5.322 -0.9257 -1.2834  0.1726
 3328SOL    HW222044   2.338   5.598   5.170  0.3146  0.3259  0.0544
 3329SOL     OW22045   0.490   4.083   1.098  0.0080 -0.5757  0.1773
 3329SOL    HW122046   0.451   4.044   1.181  0.6691  0.6238  1.0743
 3329SOL    HW222047   0.523   4.010   1.038 -1.0368 -1.4646  0.6876
 3330SOL     OW22048   1.418   2.155   0.314  0.4408  0.1534  0.1782
 3330SOL    HW122049   1.398   2.058   0.298  1.6189 -0.1235  0.3411
 3330SOL    HW222050   1.516   2.166   0.330  0.1728  1.2507  1.0972
 3331SOL     OW22051   6.785   3.647   9.494 -0.7508 -0.1272  0.4387
 3331SOL    HW122052   6.749   3.737   9.472 -0.2485 -0.0401 -0.0376
 3331SOL    HW222053   6.710   3.580   9.497 -0.6625 -0.4333 -2.9872
 3332SOL     OW22054   9.964   4.296   1.437  0.0601  0.0767 -0.0624
 3332SOL    HW122055   9.911   4.361   1.492  0.7076  1.5341 -1.1444
 3332SOL    HW222056   9.901   4.231   1.394 -0.7258  0.8180 -0.0555
 3333SOL     OW22057   0.485   3.012   3.648 -0.5861 -0.7771 -0.0955
 3333SOL    HW122058   0.545   2.970   3.715  0.3955  0.5393 -0.1316
 3333SOL    HW222059   0.498   2.968   3.559 -0.6647 -1.4043  0.2054
 3334SOL     OW22060   9.296   5.998   3.601 -0.3790  0.2840 -0.1444
 3334SOL    HW122061   9.253   5.920   3.555 -0.3847  0.7958 -1.0190
 3334SOL    HW222062   9.232   6.040   3.665  0.5221 -2.1748  2.5119
 3335SOL     OW22063   4.984   5.747   5.886  0.2880  0.1426 -0.1040
 3335SOL    HW122064   4.894   5.786   5.908  1.1631  1.0219  2.1653
 3335SOL    HW222065   5.026   5.801   5.813 -1.2404 -0.6253 -1.5887
 3336SOL     OW22066   1.806   6.582   7.373 -0.0590 -0.8135  0.1005
 3336SOL    HW122067   1.815   6.517   7.298  0.1419 -0.3145 -0.3126
 3336SOL    HW222068   1.882   6.647   7.371 -0.1546 -0.6808  0.6235
 3337SOL     OW22069   3.527   8.254   5.381  0.0221  0.5716  0.3105
 3337SOL    HW122070   3.577   8.174   5.348 -0.8219  0.1342  0.0754
 3337SOL    HW222071   3.478   8.296   5.304 -0.8220  0.3728  0.7335
 3338SOL     OW22072   3.551   5.902   2.411 -0.3254 -0.2291  0.7112
 3338SOL    HW122073   3.539   5.921   2.508 -0.0627  2.5695  0.2377
 3338SOL    HW222074   3.467   5.863   2.374 -0.5624 -0.9336  1.9598
 3339SOL     OW22075   1.554   9.624   7.016 -0.0717  0.3156  0.2858
 3339SOL    HW122076   1.500   9.545   7.044 -1.6462  1.9820  2.0967
 3339SOL    HW222077   1.496   9.706   7.017  1.8450  1.7056 -0.2500
 3340SOL     OW22078   7.803   1.312   2.694 -0.0614 -0.5552  0.0750
 3340SOL    HW122079   7.885   1.311   2.637 -0.4866  1.7732 -0.6113
 3340SOL    HW222080   7.828   1.332   2.789  0.4828 -2.9705  0.4711
 3341SOL     OW22081   3.988   0.641   5.081 -0.0493 -0.1607 -0.4155
 3341SOL    HW122082   3.894   0.668   5.060  0.0307  0.5522  0.1361
 3341SOL    HW222083   3.986   0.570   5.152 -0.2201 -1.0908 -1.3261
 3342SOL     OW22084   6.190   1.322   4.607 -0.0658  0.1369  0.0655
 3342SOL    HW122085   6.108   1.377   4.624  1.2172  1.9696  0.4024
 3342SOL    HW222086   6.236   1.302   4.693  1.5971  1.8751 -0.3981
 3343SOL     OW22087   0.334   4.234   7.478 -0.1198  0.0327 -0.0648
 3343SOL    HW122088   0.406   4.170   7.451 -0.0048  0.2625 -0.3022
 3343SOL    HW222089   0.322   4.230   7.577 -1.9701 -2.3215 -0.3590
 3344SOL     OW22090   4.126   0.644   6.971  0.1052 -0.5801  0.2216
 3344SOL    HW122091   4.190   0.704   6.923  1.0239 -2.4479 -0.9281
 3344SOL    HW222092   4.033   0.677   6.956  0.5562  0.2758 -0.8046
 3345SOL     OW22093   3.901   3.175   6.438  0.5205 -0.1460  0.7958
 3345SOL    HW122094   3.941   3.266   6.450  1.4850 -0.7326  2.1837
 3345SOL    HW222095   3.858   3.169   6.349  2.2067  1.0193 -0.1211
 3346SOL     OW22096   4.622   4.237   0.295 -0.0005 -0.4101  0.3575
 3346SOL    HW122097   4.570   4.294   0.359  0.4514 -0.5415  0.8405
 3346SOL    HW222098   4.605   4.269   0.202 -1.9805 -1.2630  0.3919
 3347SOL     OW22099   1.229   4.186   0.161  0.3457 -0.4598  0.1039
 3347SOL    HW122100   1.290   4.113   0.193 -0.5998 -1.1843  0.2739
 3347SOL    HW222101   1.274   4.274   0.173  1.1835 -0.9558  0.6535
 3348SOL     OW22102   9.570   0.838   7.893 -0.1398 -0.1654  0.0214
 3348SOL    HW122103   9.599   0.750   7.929  0.6116 -0.4570 -1.2813
 3348SOL    HW222104   9.617   0.911   7.942 -0.4116 -0.4930  0.7823
 3349SOL     OW22105   2.592   0.860   2.819  0.2535  0.3595  0.5768
 3349SOL    HW122106   2.645   0.796   2.875  1.7541  0.5072 -0.6331
 3349SOL    HW222107   2.545   0.809   2.747  1.6437  0.6121 -0.5363
 3350SOL     OW22108   8.434   8.051   7.073  0.2271 -0.2084 -0.0164
 3350SOL    HW122109   8.363   7.980   7.070  1.5613 -1.5739 -0.1223
 3350SOL    HW222110   8.480   8.048   7.161 -0.2666  1.1064  0.2937
 3351SOL     OW22111   6.987   2.971   0.487 -0.1568  0.6965  0.0931
 3351SOL    HW122112   6.912   2.963   0.421  0.9389 -1.0016 -0.9908
 3351SOL    HW222113   6.957   2.936   0.575 -0.3810 -0.8659 -0.5803
 3352SOL     OW22114   1.362   8.840   4.694  0.5870 -0.6984 -0.1221
 3352SOL    HW122115   1.421   8.884   4.762  0.1928 -0.0308 -0.2126
 3352SOL    HW222116   1.270   8.878   4.700  0.6720 -0.2778 -1.3695
 3353SOL     OW22117   9.181   2.059   2.484 -0.4533  0.0513 -0.2980
 3353SOL    HW122118   9.279   2.077   2.496 -0.5390  0.2800  0.0756
 3353SOL    HW222119   9.156   1.978   2.537 -0.0620 -1.2067 -2.0065
 3354SOL     OW22120   2.022   3.926   4.899  0.2494 -0.1824  0.0629
 3354SOL    HW122121   2.113   3.961   4.876  0.6646 -0.5051  1.1819
 3354SOL    HW222122   2.028   3.829   4.923 -0.4881 -0.3596 -0.4528
 3355SOL     OW22123   6.999   4.676   0.081 -0.0786  0.0699  0.4311
 3355SOL    HW122124   6.922   4.614   0.097 -0.5469 -0.1493 -2.5299
 3355SOL    HW222125   6.967   4.771   0.087 -0.3831 -0.0108  0.0446
 3356SOL     OW22126   3.005   3.141   0.684  0.9180 -0.3298  0.1247
 3356SOL    HW122127   3.041   3.066   0.629  1.3223  1.0310 -1.4887
 3356SOL    HW222128   3.044   3.228   0.653 -1.5902  0.8702  0.1902
 3357SOL     OW22129   1.251   4.019   0.578 -0.2947  0.9247 -0.3938
 3357SOL    HW122130   1.233   3.987   0.671  1.0750  0.7207 -0.1811
 3357SOL    HW222131   1.301   4.106   0.582 -0.9267  1.3152 -0.9455
 3358SOL     OW22132   3.009   3.185   3.617  0.1259  0.0922 -0.0365
 3358SOL    HW122133   3.065   3.268   3.620  0.4105 -0.0909 -0.2736
 3358SOL    HW222134   3.011   3.141   3.707  1.3047 -0.5276 -0.3435
 3359SOL     OW22135   8.926   5.758   8.487 -0.0869 -0.2087  0.0630
 3359SOL    HW122136   8.829   5.742   8.471 -0.1525  0.5900 -0.3553
 3359SOL    HW222137   8.937   5.815   8.569 -0.0044  0.3057 -0.3053
 3360SOL     OW22138   4.122   3.148   0.287 -0.3487  0.0761 -0.7041
 3360SOL    HW122139   4.195   3.116   0.226  0.4195 -1.3921  0.9446
 3360SOL    HW222140   4.159   3.219   0.348 -0.0944 -1.1117  0.5584
 3361SOL     OW22141   3.487   7.859   6.995 -0.1803  0.0448  0.5424
 3361SOL    HW122142   3.515   7.896   6.907  0.0828  3.1949  1.8596
 3361SOL    HW222143   3.440   7.772   6.982  1.7436 -0.6202 -2.4836
 3362SOL     OW22144   8.647   0.305   7.264  0.2759  0.6422 -0.4343
 3362SOL    HW122145   8.698   0.382   7.227  1.2170  0.6399  0.7931
 3362SOL    HW222146   8.688   0.278   7.352  0.4774 -1.7684 -1.2316
 3363SOL     OW22147   3.332   0.404   1.749 -0.0392  0.0820  0.0560
 3363SOL    HW122148   3.242   0.378   1.786  0.6542 -0.8963  1.0721
 3363SOL    HW222149   3.394   0.326   1.753  1.0477  0.9271 -0.0704
 3364SOL     OW22150   0.014   0.624   0.796 -0.1588 -0.3092  0.2771
 3364SOL    HW122151  -0.062   0.629   0.732  0.4246 -1.7903 -0.5597
 3364SOL    HW222152  -0.021   0.630   0.890 -1.2594 -0.5954 -0.1107
 3365SOL     OW22153   1.063   3.535   6.278  0.0441 -0.7539  0.1538
 3365SOL    HW122154   0.986   3.496   6.228 -1.1655  1.6721  0.0564
 3365SOL    HW222155   1.031   3.571   6.366  1.1890 -0.3046  0.3969
 3366SOL     OW22156   3.426   6.157   1.402  0.2730  0.0194  0.0535
 3366SOL    HW122157   3.343   6.194   1.444 -0.8230 -1.6521 -0.5695
 3366SOL    HW222158   3.431   6.186   1.307  1.6619  2.0705  0.7215
 3367SOL     OW22159   2.148   5.271   6.930 -0.3856 -0.4398  0.6520
 3367SOL    HW122160   2.212   5.195   6.942  0.6627  0.4247  0.6196
 3367SOL    HW222161   2.102   5.262   6.842 -0.9443 -1.5331  1.0490
 3368SOL     OW22162   6.401   4.205   9.975 -0.2940  0.3520  0.4052
 3368SOL    HW122163   6.497   4.195   9.951 -0.2691  1.0175  0.2272
 3368SOL    HW222164   6.344   4.168   9.902 -0.1754 -0.3272  0.6460
 3369SOL     OW22165   3.181   0.976   6.240 -0.1095 -0.0297 -0.0760
 3369SOL    HW122166   3.158   0.949   6.146  1.3676 -2.0676  0.1142
 3369SOL    HW222167   3.130   1.058   6.264  0.6790  1.4470 -3.2065
 3370SOL     OW22168   7.975   7.830   4.776  0.2071  0.2696 -0.1378
 3370SOL    HW122169   7.971   7.930   4.773  0.4428  0.3019  0.5304
 3370SOL    HW222170   8.046   7.802   4.840  0.1405 -0.3262 -0.3282
 3371SOL     OW22171   0.529   1.023   3.834 -0.1226  0.2739 -0.1954
 3371SOL    HW122172   0.448   1.079   3.852  0.3296  1.7083 -2.4445
 3371SOL    HW222173   0.608   1.060   3.883 -0.3091  0.3014  0.0811
 3372SOL     OW22174   1.685   6.027   7.148  0.2439 -0.1607  0.6626
 3372SOL    HW122175   1.586   6.026   7.162 -0.0712 -3.3603 -1.2650
 3372SOL    HW222176   1.705   6.003   7.053  2.8803  0.1656  1.1064
 3373SOL     OW22177   9.645   3.526   9.574 -0.3765 -0.2228  0.0595
 3373SOL    HW122178   9.698   3.553   9.493 -0.1651 -1.7380 -0.3280
 3373SOL    HW222179   9.673   3.582   9.652  0.0459  0.6614 -0.7126
 3374SOL     OW22180   0.624   8.657   4.253  0.5299 -0.4660 -0.1145
 3374SOL    HW122181   0.533   8.624   4.278  0.4096 -0.7960 -0.9925
 3374SOL    HW222182   0.690   8.627   4.323  0.0142 -0.4447  0.3830
 3375SOL     OW22183   7.462   3.133   6.994  0.1512 -0.1033 -0.9575
 3375SOL    HW122184   7.434   3.098   6.905 -0.5093 -1.3795 -0.2585
 3375SOL    HW222185   7.430   3.071   7.066 -2.1840  2.5474  0.3991
 3376SOL     OW22186   4.196   5.459   6.023  0.1609 -0.0631  0.3040
 3376SOL    HW122187   4.244   5.518   5.957 -0.6855 -1.9261 -2.0703
 3376SOL    HW222188   4.166   5.514   6.101  0.0595  2.5007 -1.4502
 3377SOL     OW22189   0.577   6.278   3.105  0.0235 -0.3036 -0.0181
 3377SOL    HW122190   0.673   6.302   3.087  0.6722 -2.1174  0.9181
 3377SOL    HW222191   0.555   6.299   3.200 -0.6245  0.3885 -0.3098
 3378SOL     OW22192   2.009   3.731   7.456 -0.0342  0.0411  0.3207
 3378SOL    HW122193   1.945   3.666   7.415  0.8399 -0.7405  0.1808
 3378SOL    HW222194   2.002   3.727   7.555 -1.0368  0.8090  0.2890
 3379SOL     OW22195   7.622   4.528   2.723 -0.2633  0.4799 -0.0706
 3379SOL    HW122196   7.717   4.511   2.749 -0.5786 -1.8529 -0.3545
 3379SOL    HW222197   7.571   4.556   2.804 -0.1462 -1.9840  0.9278
 3380SOL     OW22198   5.471   4.408   1.026  0.6437 -0.3206  0.2457
 3380SOL    HW122199   5.550   4.411   1.086  0.1772  0.0423  0.8560
 3380SOL    HW222200   5.387   4.410   1.081  0.2016  1.3665 -0.4354
 3381SOL     OW22201   1.109   6.736   3.292  0.3857 -0.3615  0.0264
 3381SOL    HW122202   1.144   6.756   3.200  0.0155  1.5696  0.2881
 3381SOL    HW222203   1.015   6.702   3.285  0.5631 -0.7786 -0.3447
 3382SOL     OW22204   3.683   2.435   0.481  0.4068 -0.2914 -0.0962
 3382SOL    HW122205   3.762   2.376   0.465  0.7620 -0.0678  0.8141
 3382SOL    HW222206   3.612   2.384   0.528  0.3389 -0.2653 -0.1714
 3383SOL     OW22207   9.762   5.912   9.685  0.2656  0.5501 -0.3996
 3383SOL    HW122208   9.802   5.823   9.663 -0.9767 -0.0990 -0.0617
 3383SOL    HW222209   9.666   5.913   9.659 -0.1536  1.2142  1.1049
 3384SOL     OW22210   0.519   3.411   4.804  0.1090  0.1621 -0.0264
 3384SOL    HW122211   0.443   3.351   4.829 -1.4319  1.7452 -0.7548
 3384SOL    HW222212   0.554   3.385   4.714  1.1136 -1.2109  0.7515
 3385SOL     OW22213   9.623   3.602   4.596  0.0011 -0.6043 -0.0573
 3385SOL    HW122214   9.653   3.528   4.656 -1.2436 -0.7945  0.3298
 3385SOL    HW222215   9.704   3.652   4.563  0.7101 -0.2238  2.1073
 3386SOL     OW22216   6.090   7.378   0.761  0.2828 -0.0556 -0.0912
 3386SOL    HW122217   6.160   7.441   0.727  1.0855  0.1996  1.9664
 3386SOL    HW222218   6.083   7.386   0.860 -0.9332 -1.8719 -0.0046
 3387SOL     OW22219   7.409   7.441   7.240  0.7802 -0.7749 -0.6732
 3387SOL    HW122220   7.365   7.479   7.159 -0.0615  0.7704  0.4693
 3387SOL    HW222221   7.339   7.406   7.303  1.3654 -1.1896 -0.2425
 3388SOL     OW22222   1.650   3.318   6.777 -0.5093  0.3799 -0.6078
 3388SOL    HW122223   1.696   3.257   6.842 -1.5143 -0.3592 -0.5785
 3388SOL    HW222224   1.605   3.392   6.828 -1.0708 -0.0487 -0.4753
 3389SOL     OW22225   1.257   1.839   0.883 -0.1618  0.3861  0.1985
 3389SOL    HW122226   1.342   1.786   0.882 -0.7007 -0.4710 -0.7135
 3389SOL    HW222227   1.210   1.828   0.796 -1.3546  0.6336  0.8054
 3390SOL     OW22228   4.258   4.284   9.006  0.0248 -0.9272  0.7199
 3390SOL    HW122229   4.217   4.222   8.940  0.7720  0.2979 -0.9283
 3390SOL    HW222230   4.191   4.305   9.078 -0.9325 -1.9558  0.1448
 3391SOL     OW22231   2.372   2.613   4.809  0.7923 -0.2398 -0.0282
 3391SOL    HW122232   2.456   2.665   4.821  0.8253 -0.4842  0.8089
 3391SOL    HW222233   2.298   2.675   4.782  0.8890  0.1991  0.7151
 3392SOL     OW22234   0.953   8.616   8.358  0.2357 -0.1162  0.7575
 3392SOL    HW122235   1.009   8.690   8.322  0.1064 -0.7884 -0.8777
 3392SOL    HW222236   0.891   8.584   8.287 -1.1606 -0.4095  2.0849
 3393SOL     OW22237   3.166   2.111   4.467  0.0656  0.3393 -0.3951
 3393SOL    HW122238   3.181   2.177   4.393  0.4237  0.2198 -0.4338
 3393SOL    HW222239   3.078   2.065   4.453 -0.4688  1.2364 -0.0294
 3394SOL     OW22240   7.267   5.551   6.035 -0.5005 -0.4171 -0.0980
 3394SOL    HW122241   7.251   5.650   6.044 -1.2759 -0.7165  2.1412
 3394SOL    HW222242   7.179   5.505   6.023 -0.1557 -0.8621 -0.9045
 3395SOL     OW22243   6.572   5.674   0.604  0.0868 -0.2554  0.2579
 3395SOL    HW122244   6.476   5.700   0.613  0.6636  2.1704 -0.2547
 3395SOL    HW222245   6.626   5.754   0.578  2.3288 -1.4840  1.0001
 3396SOL     OW22246   1.063   8.222   0.687  0.0444  0.1437 -0.5660
 3396SOL    HW122247   1.033   8.254   0.598  0.5594 -0.5778 -1.0089
 3396SOL    HW222248   1.133   8.151   0.675  0.5450  0.4529  0.4111
 3397SOL     OW22249   9.083   2.669   1.249 -0.0477 -0.0185  0.3555
 3397SOL    HW122250   9.008   2.715   1.297  0.2531 -0.7525  1.5762
 3397SOL    HW222251   9.121   2.730   1.179 -1.3433  0.6028  0.1824
 3398SOL     OW22252   2.899   1.650   4.701  0.1727 -0.5280  0.3432
 3398SOL    HW122253   2.803   1.661   4.727 -0.2745 -3.9069  0.3999
 3398SOL    HW222254   2.939   1.575   4.754  2.1774 -0.6648 -1.3169
 3399SOL     OW22255   1.798   7.656   8.241 -0.0244  0.2537  0.0812
 3399SOL    HW122256   1.864   7.599   8.193  2.4698  1.7498  1.5839
 3399SOL    HW222257   1.788   7.623   8.335 -3.3105 -1.4219 -0.7981
 3400SOL     OW22258   9.507   9.619   6.017 -0.0584  0.3686 -0.2543
 3400SOL    HW122259   9.446   9.697   6.028  0.4836  0.7986 -0.2342
 3400SOL    HW222260   9.520   9.600   5.920  1.9554  2.0534 -0.3755
 3401SOL     OW22261   6.913   0.242   6.764 -0.9135 -0.3999  0.8194
 3401SOL    HW122262   6.830   0.241   6.708 -0.2687 -1.2564 -0.1401
 3401SOL    HW222263   6.976   0.312   6.728  0.2517 -2.1521 -0.6875
 3402SOL     OW22264   5.752   9.274   0.890  0.2101 -0.2441 -0.2715
 3402SOL    HW122265   5.656   9.248   0.883  0.2836 -0.2090 -1.5287
 3402SOL    HW222266   5.806   9.221   0.824  0.4711  2.4158 -2.2961
 3403SOL     OW22267   1.601   4.885   8.852 -0.2392 -0.4891 -0.9541
 3403SOL    HW122268   1.697   4.860   8.867  0.2198  1.1056 -1.1573
 3403SOL    HW222269   1.551   4.806   8.816 -0.0403 -2.6683  3.2802
 3404SOL     OW22270   0.202   2.064   3.380 -0.0869  0.0795  0.0890
 3404SOL    HW122271   0.164   1.975   3.407 -0.1835 -0.0199 -0.3772
 3404SOL    HW222272   0.300   2.055   3.365 -0.3490 -0.2955 -1.4550
 3405SOL     OW22273   3.783   2.584   9.565  0.0959  0.1846 -0.1561
 3405SOL    HW122274   3.705   2.588   9.502 -1.3065 -0.8853  1.4529
 3405SOL    HW222275   3.814   2.676   9.585 -0.6236  0.6157 -0.9768
 3406SOL     OW22276   8.626   3.692   3.582  0.2493 -0.4604  0.1737
 3406SOL    HW122277   8.713   3.703   3.629  0.0461  0.1954  0.4014
 3406SOL    HW222278   8.641   3.677   3.485  0.5549  1.1417 -0.0292
 3407SOL     OW22279   2.509   7.667   6.561  0.1276  0.2157  0.0461
 3407SOL    HW122280   2.465   7.753   6.534  2.6352  1.2913 -0.7127
 3407SOL    HW222281   2.506   7.602   6.485 -0.5722  0.1016  0.1664
 3408SOL     OW22282   1.117   5.311   9.779  0.2658  0.0132 -0.6223
 3408SOL    HW122283   1.152   5.217   9.784  1.2852  0.3846 -0.6199
 3408SOL    HW222284   1.072   5.334   9.866  2.3015  0.3958  0.3493
 3409SOL     OW22285   5.863   1.513   2.438  0.1622 -0.3974  0.2638
 3409SOL    HW122286   5.782   1.518   2.497 -0.0457 -2.0522  0.1421
 3409SOL    HW222287   5.873   1.599   2.388 -1.8299 -0.3662 -0.1211
 3410SOL     OW22288   9.182   7.615   0.226  0.0730  0.3371  0.1694
 3410SOL    HW122289   9.212   7.580   0.137 -1.3898 -1.5488  0.3756
 3410SOL    HW222290   9.215   7.708   0.238  1.3883  0.1597 -1.7945
 3411SOL     OW22291   3.068   3.900   7.235 -0.0241 -0.0455 -0.3732
 3411SOL    HW122292   2.987   3.872   7.286 -0.1727 -0.8320 -1.0145
 3411SOL    HW222293   3.041   3.963   7.162 -0.0081  0.0039 -0.3354
 3412SOL     OW22294   0.760   5.358   9.328 -0.1377 -0.0954  0.2774
 3412SOL    HW122295   0.764   5.311   9.239 -1.9695 -0.5637  0.4293
 3412SOL    HW222296   0.752   5.456   9.313 -1.9330 -0.2796 -0.1172
 3413SOL     OW22297   1.050   7.858   3.324  0.0344 -1.2175 -0.1265
 3413SOL    HW122298   1.054   7.928   3.254 -0.9134 -0.5600  0.4758
 3413SOL    HW222299   1.054   7.767   3.281  0.3359 -0.8133 -0.9557
 3414SOL     OW22300   3.457   3.772   1.113  0.5237 -0.0789 -0.3156
 3414SOL    HW122301   3.407   3.805   1.034 -0.7407  0.3926  0.6627
 3414SOL    HW222302   3.519   3.843   1.146  1.0888 -0.2960 -0.9207
 3415SOL     OW22303   6.125   7.267   6.301 -0.1531 -0.7955 -0.3923
 3415SOL    HW122304   6.206   7.225   6.260  0.3992 -1.2786  1.1819
 3415SOL    HW222305   6.150   7.354   6.343 -0.4211 -1.0121  0.2189
 3416SOL     OW22306   9.355   1.957   0.903 -0.0263 -0.0445 -0.3535
 3416SOL    HW122307   9.421   2.026   0.872  0.6779 -0.0756  1.0455
 3416SOL    HW222308   9.351   1.958   1.003  1.0187 -2.9608 -0.2415
 3417SOL     OW22309   2.577   6.908   9.789  0.3268 -0.1803 -0.5498
 3417SOL    HW122310   2.592   6.895   9.691 -0.8772  0.6411 -0.8581
 3417SOL    HW222311   2.480   6.929   9.806  0.9999  2.3764  0.5211
 3418SOL     OW22312   7.783   6.711   5.649 -0.2028 -0.6030  0.1924
 3418SOL    HW122313   7.715   6.770   5.692 -0.7173  0.7825 -2.4266
 3418SOL    HW222314   7.750   6.617   5.646 -1.5853 -0.1110 -0.1761
 3419SOL     OW22315   3.746   5.715   5.500 -0.1003  0.0173 -0.1647
 3419SOL    HW122316   3.804   5.647   5.453 -0.4342 -0.4208  0.0534
 3419SOL    HW222317   3.800   5.797   5.517  0.3696 -0.2632 -0.2577
 3420SOL     OW22318   1.988   4.593   7.129  0.1445  0.2101 -0.1873
 3420SOL    HW122319   2.028   4.545   7.052  1.0009 -0.9539  0.9752
 3420SOL    HW222320   1.894   4.562   7.143  0.9650 -1.7619  1.0755
 3421SOL     OW22321   0.745   6.521   0.868 -0.5184 -0.1826 -0.1239
 3421SOL    HW122322   0.650   6.546   0.848 -0.5905 -1.3924 -1.3863
 3421SOL    HW222323   0.806   6.571   0.806 -0.1775  1.8667  1.7872
 3422SOL     OW22324   1.150   6.820   7.046 -0.0256 -0.2825  0.1858
 3422SOL    HW122325   1.113   6.728   7.059  0.9563 -0.4688  1.8018
 3422SOL    HW222326   1.086   6.888   7.082 -0.6588 -0.3467 -0.8209
 3423SOL     OW22327   9.347   3.873   4.808  0.5135  0.1626  0.3971
 3423SOL    HW122328   9.277   3.934   4.844  0.9000  0.4063  0.7249
 3423SOL    HW222329   9.309   3.781   4.799  1.0085 -0.3818  3.3705
 3424SOL     OW22330   1.751   1.949   6.534  0.1206 -0.3177 -0.2446
 3424SOL    HW122331   1.662   1.967   6.575  0.0884  0.4131 -0.6269
 3424SOL    HW222332   1.799   1.879   6.587  0.1239  0.6826  1.1077
 3425SOL     OW22333   9.724   7.547   9.398  0.3150  0.1009 -0.1047
 3425SOL    HW122334   9.699   7.454   9.374 -0.9004  0.3947 -0.0125
 3425SOL    HW222335   9.681   7.611   9.334  0.5545  0.6331  0.2581
 3426SOL     OW22336   3.841   9.203   4.562  0.2883 -0.0158 -0.5596
 3426SOL    HW122337   3.882   9.290   4.537 -0.4784  0.4509 -0.2144
 3426SOL    HW222338   3.753   9.219   4.608  1.7025 -0.8628  2.5420
 3427SOL     OW22339   3.311   3.637   1.637  0.5441  0.0974 -0.3341
 3427SOL    HW122340   3.254   3.590   1.705 -0.1399 -1.6710 -2.0840
 3427SOL    HW222341   3.334   3.728   1.671 -0.3092 -0.4989  1.9868
 3428SOL     OW22342   9.197   2.735   9.648 -0.0630 -0.8939 -0.7888
 3428SOL    HW122343   9.202   2.637   9.630 -1.5615 -1.2193  0.4614
 3428SOL    HW222344   9.282   2.765   9.690  0.7904 -1.4548 -2.0867
 3429SOL     OW22345   3.717   5.551   1.344 -0.5080 -0.4500 -0.1776
 3429SOL    HW122346   3.815   5.552   1.367 -0.6776 -2.4560  0.7252
 3429SOL    HW222347   3.705   5.582   1.250  0.7941  1.8871  0.3883
 3430SOL     OW22348   2.571   5.040   6.125 -0.2464  1.3128 -0.6263
 3430SOL    HW122349   2.487   5.088   6.147  0.3527  2.6435 -1.1789
 3430SOL    HW222350   2.556   4.980   6.047 -1.3118 -0.3524  0.8218
 3431SOL     OW22351   8.574   1.502   3.982  0.1606  0.4481 -0.0672
 3431SOL    HW122352   8.598   1.597   3.967  1.4476  0.1654  0.1822
 3431SOL    HW222353   8.560   1.456   3.894 -3.7000  1.6545 -0.1689
 3432SOL     OW22354   7.456   5.217   3.003 -0.0662 -0.2065  0.0746
 3432SOL    HW122355   7.469   5.311   2.970 -0.1035 -0.1178  0.3129
 3432SOL    HW222356   7.380   5.215   3.068  0.2726 -0.3122  0.4652
 3433SOL     OW22357   3.153   4.986   8.997  0.7836  0.1935  0.6006
 3433SOL    HW122358   3.220   5.041   8.948 -1.4566  1.7988 -0.7663
 3433SOL    HW222359   3.128   4.907   8.942  2.4250 -1.1161  1.6587
 3434SOL     OW22360   4.627   6.425   9.562  0.7335  0.1242 -1.1342
 3434SOL    HW122361   4.714   6.378   9.579 -0.1186 -0.8530  0.7574
 3434SOL    HW222362   4.553   6.357   9.560 -0.4395  1.3047  1.0074
 3435SOL     OW22363   0.905   5.121   1.343 -0.1249  0.9485  0.2032
 3435SOL    HW122364   0.849   5.049   1.385  1.1819 -0.1047  0.1999
 3435SOL    HW222365   0.888   5.123   1.244  2.5173 -1.9282 -0.4039
 3436SOL     OW22366   2.629   7.467   8.246 -0.2124 -0.1292 -0.3103
 3436SOL    HW122367   2.638   7.367   8.248 -2.4249 -0.3383  0.0942
 3436SOL    HW222368   2.607   7.500   8.338  1.9328  0.9004 -0.1328
 3437SOL     OW22369   6.143   9.560   8.438  0.5428 -0.1412 -0.2746
 3437SOL    HW122370   6.230   9.543   8.484  0.1206  0.0351  0.6031
 3437SOL    HW222371   6.114   9.478   8.389  1.1320 -0.2451 -0.4426
 3438SOL     OW22372   0.188   1.228   8.644  0.2430  0.0581 -0.1370
 3438SOL    HW122373   0.107   1.244   8.700  0.6106 -3.1343  1.4511
 3438SOL    HW222374   0.269   1.259   8.693  0.3671 -0.7655  0.1864
 3439SOL     OW22375   9.352   7.806   7.858 -0.1527 -0.2521 -0.2770
 3439SOL    HW122376   9.404   7.732   7.901 -0.8618  0.1458  1.2877
 3439SOL    HW222377   9.408   7.888   7.853 -0.5095  0.1054  1.1938
 3440SOL     OW22378   6.054   9.513   0.413  0.5361 -0.8201 -0.2947
 3440SOL    HW122379   6.072   9.600   0.458 -0.1658 -0.6928 -0.2514
 3440SOL    HW222380   6.119   9.499   0.338 -0.6889  0.7437 -1.6949
 3441SOL     OW22381   1.622   3.259   1.666  0.7241 -0.2655 -0.1740
 3441SOL    HW122382   1.547   3.295   1.609 -0.4294 -1.3919  0.6269
 3441SOL    HW222383   1.677   3.196   1.612  0.9645  0.3683 -0.6874
 3442SOL     OW22384   2.253   1.027   1.096 -0.0480  0.6056  0.1715
 3442SOL    HW122385   2.178   0.968   1.066  0.7187 -0.9522  1.1944
 3442SOL    HW222386   2.326   1.025   1.028  0.6662 -0.9752  0.9555
 3443SOL     OW22387   9.035   0.954   2.686  0.8257  0.6104  0.3060
 3443SOL    HW122388   9.096   0.934   2.610 -0.2995  1.6081 -0.8944
 3443SOL    HW222389   8.984   0.872   2.711 -0.3396  0.7715 -1.4439
 3444SOL     OW22390   0.267   4.165   7.763 -0.5090  0.2198  0.3956
 3444SOL    HW122391   0.279   4.148   7.861  0.5937  0.2611  0.2694
 3444SOL    HW222392   0.290   4.082   7.712 -0.5214  0.3766  0.1344
 3445SOL     OW22393   9.242   4.142   2.397 -0.4898 -0.2112 -0.0148
 3445SOL    HW122394   9.322   4.161   2.454  0.4021 -1.0361 -0.9574
 3445SOL    HW222395   9.195   4.228   2.376  0.4894  0.3549  0.0629
 3446SOL     OW22396   1.099   2.934   1.049 -0.7206 -0.3420  0.8556
 3446SOL    HW122397   1.194   2.932   1.018 -0.9805 -0.1725  0.0258
 3446SOL    HW222398   1.094   2.902   1.144  0.1625 -0.3314  0.9106
 3447SOL     OW22399   1.380   1.792   4.638  0.1178 -0.1562  0.3138
 3447SOL    HW122400   1.347   1.761   4.549 -3.4237  0.2884  1.3953
 3447SOL    HW222401   1.411   1.887   4.632  1.3497 -0.6285 -0.7764
 3448SOL     OW22402   8.494   4.671   0.754  0.5058  0.1243 -0.0479
 3448SOL    HW122403   8.400   4.641   0.733  1.1651 -1.5022 -0.7766
 3448SOL    HW222404   8.519   4.745   0.691 -0.1641  0.3459 -0.0680
 3449SOL     OW22405   8.844   8.199   8.721  0.7296  0.4897  0.1598
 3449SOL    HW122406   8.759   8.193   8.669  0.5003  2.4985  0.2627
 3449SOL    HW222407   8.922   8.193   8.658  0.4868 -0.1250 -0.0783
 3450SOL     OW22408   4.295   2.177   0.422 -0.6732  0.3087  0.2551
 3450SOL    HW122409   4.348   2.234   0.484  0.3143  0.4668 -0.7224
 3450SOL    HW222410   4.357   2.118   0.370 -1.2683  1.8097 -2.2462
 3451SOL     OW22411   0.021   7.084   0.325  0.3206 -0.0089  0.5654
 3451SOL    HW122412  -0.046   7.047   0.260  2.5297 -0.6499 -1.3994
 3451SOL    HW222413  -0.027   7.140   0.392 -2.6080 -3.1784  1.2671
 3452SOL     OW22414   1.406   9.462   9.937 -0.1595  0.2156 -0.1289
 3452SOL    HW122415   1.491   9.429   9.977 -0.6197 -0.7624  0.0569
 3452SOL    HW222416   1.423   9.547   9.888  1.1961 -0.6835 -1.2535
 3453SOL     OW22417   0.701   8.050   0.224 -0.2953 -0.0226 -0.6692
 3453SOL    HW122418   0.789   8.040   0.271 -0.8353  1.2549  0.6617
 3453SOL    HW222419   0.702   8.135   0.171 -0.4680 -0.3765 -1.2381
 3454SOL     OW22420   0.798   0.821   9.064  0.4457  0.2658 -0.4401
 3454SOL    HW122421   0.852   0.895   9.024 -1.1004  1.4730 -0.3641
 3454SOL    HW222422   0.795   0.833   9.164  2.2095 -1.3044 -0.1755
 3455SOL     OW22423   4.670   4.447   9.700 -0.1942  0.4696 -0.2402
 3455SOL    HW122424   4.683   4.488   9.790 -0.5996  0.5193 -0.2060
 3455SOL    HW222425   4.578   4.407   9.694 -0.2018  0.5466 -0.6626
 3456SOL     OW22426   4.192   7.847   3.823  0.4651  0.4601 -0.1263
 3456SOL    HW122427   4.263   7.917   3.813  0.9738 -0.1704 -0.9382
 3456SOL    HW222428   4.210   7.772   3.761 -1.4984  0.7814 -1.1297
 3457SOL     OW22429   1.354   9.555   6.715  0.1900  0.0695  0.3078
 3457SOL    HW122430   1.305   9.606   6.785  1.2590 -1.5736  2.3118
 3457SOL    HW222431   1.326   9.458   6.719  3.2152 -0.8100  1.1879
 3458SOL     OW22432   0.261   1.818   0.277  0.1742  0.5103 -0.6702
 3458SOL    HW122433   0.287   1.905   0.235 -0.6910  0.6377 -0.9416
 3458SOL    HW222434   0.308   1.743   0.230  0.6646  0.7951 -0.6452
 3459SOL     OW22435   2.141   3.765   0.733 -0.2664  0.1886 -0.1391
 3459SOL    HW122436   2.122   3.703   0.809  0.2801  1.4197  1.0163
 3459SOL    HW222437   2.066   3.761   0.667 -1.8405  0.7762  1.5635
 3460SOL     OW22438   2.626   6.813   3.082 -0.1711  0.2642  0.1610
 3460SOL    HW122439   2.601   6.717   3.071 -0.9173  0.1036  2.8762
 3460SOL    HW222440   2.544   6.870   3.078  0.2951  0.8413 -1.6912
 3461SOL     OW22441   3.656   2.213   6.486 -0.4283  0.1773 -0.0750
 3461SOL    HW122442   3.731   2.279   6.476 -1.0218  0.3271 -4.0993
 3461SOL    HW222443   3.694   2.122   6.501  0.5971  0.2655 -1.9959
 3462SOL     OW22444   3.423   9.185   0.522 -0.1805 -0.5715  0.2025
 3462SOL    HW122445   3.364   9.111   0.489  0.6907 -0.2030 -2.3297
 3462SOL    HW222446   3.379   9.273   0.505  0.6706 -0.3351 -0.8312
 3463SOL     OW22447   2.927   6.568   1.580  0.5591 -0.3924  0.5162
 3463SOL    HW122448   2.933   6.663   1.609 -0.4277 -0.5796  1.3837
 3463SOL    HW222449   2.998   6.514   1.627  1.2795 -0.0428 -0.1674
 3464SOL     OW22450   2.305   9.746   0.433  0.1962 -0.2719  0.0412
 3464SOL    HW122451   2.365   9.720   0.509  0.5471  1.3995  0.3495
 3464SOL    HW222452   2.294   9.845   0.431  0.6803 -0.2283 -2.4704
 3465SOL     OW22453   0.236   4.231   2.295 -0.4242 -0.0079 -0.0085
 3465SOL    HW122454   0.167   4.303   2.291  0.1268  0.5942  1.2071
 3465SOL    HW222455   0.191   4.142   2.296 -1.3344  0.4206  3.4919
 3466SOL     OW22456   4.610   6.054   5.983 -0.2004 -1.2090 -0.4965
 3466SOL    HW122457   4.641   6.135   6.033  0.3621 -1.1788 -0.8857
 3466SOL    HW222458   4.595   5.979   6.048 -0.4148 -0.8863 -0.1704
 3467SOL     OW22459   0.026   3.739   5.724 -0.1395  0.4018  0.3022
 3467SOL    HW122460   0.079   3.654   5.726  0.0134  0.4936  0.2046
 3467SOL    HW222461  -0.031   3.745   5.806  0.1774  0.4145  0.5225
 3468SOL     OW22462   1.396   3.650   8.607 -0.6810 -0.3495  0.0961
 3468SOL    HW122463   1.340   3.579   8.565 -0.2435 -0.5446 -0.1690
 3468SOL    HW222464   1.434   3.709   8.536 -1.1647  0.2431  0.3276
 3469SOL     OW22465   8.891   4.792   6.300 -0.3918  0.1572  0.1389
 3469SOL    HW122466   8.821   4.751   6.358 -0.7262  0.6813  0.1033
 3469SOL    HW222467   8.885   4.754   6.208  0.1154 -0.6480  0.4291
 3470SOL     OW22468   2.627   1.497   3.308 -0.1532  0.5191  0.6710
 3470SOL    HW122469   2.615   1.485   3.407 -0.6390 -2.2930  0.2976
 3470SOL    HW222470   2.573   1.575   3.277  1.3347  2.5183  2.8786
 3471SOL     OW22471   9.160   0.057   8.158 -0.2265 -0.3577  0.0517
 3471SOL    HW122472   9.104   0.050   8.241  1.2100  0.8745  1.1443
 3471SOL    HW222473   9.169   0.153   8.132  3.0620 -0.3650  1.0525
 3472SOL     OW22474   2.253   4.063   7.694 -0.3586  0.2697  0.0411
 3472SOL    HW122475   2.177   4.047   7.631 -0.8928  0.5569  0.6164
 3472SOL    HW222476   2.281   4.159   7.689  2.1222 -0.5294 -2.5948
 3473SOL     OW22477   3.244   2.440   0.408  0.0224 -0.0889 -0.5390
 3473SOL    HW122478   3.238   2.356   0.461  1.0926  0.3776  0.3782
 3473SOL    HW222479   3.218   2.423   0.313  0.0302 -1.3960 -0.3133
 3474SOL     OW22480   0.609   0.658   2.965 -0.1313 -0.0966  0.0515
 3474SOL    HW122481   0.612   0.741   2.909  1.9111 -0.5700 -0.5633
 3474SOL    HW222482   0.523   0.656   3.016 -0.6153  1.9317 -0.6355
 3475SOL     OW22483   6.921   2.319   9.908 -0.5027 -0.8705 -0.1676
 3475SOL    HW122484   7.000   2.380   9.913 -1.2490  0.0157  1.0824
 3475SOL    HW222485   6.886   2.318   9.814 -0.2183  0.2840 -0.2947
 3476SOL     OW22486   3.520   8.063   7.163 -0.4379  0.4163 -0.5856
 3476SOL    HW122487   3.507   7.998   7.088 -0.0949 -0.7395  0.3510
 3476SOL    HW222488   3.455   8.042   7.236 -1.2866  2.0044 -0.8533
 3477SOL     OW22489   2.772   4.201   4.827 -0.0665 -0.1082 -0.2169
 3477SOL    HW122490   2.701   4.266   4.801  0.1045 -0.4245 -1.5221
 3477SOL    HW222491   2.740   4.144   4.902  0.3948  2.5758  2.1399
 3478SOL     OW22492   5.822   1.966   1.265  0.3027 -0.4032  0.0246
 3478SOL    HW122493   5.878   1.910   1.204  1.9651 -0.0162  1.1613
 3478SOL    HW222494   5.790   1.910   1.342  2.0508  0.1981  1.2163
 3479SOL     OW22495   7.072   1.027   9.023  0.2151 -0.3351 -0.0706
 3479SOL    HW122496   7.064   0.990   8.931  1.0903 -0.0995 -0.2489
 3479SOL    HW222497   7.093   1.124   9.018  0.7653 -0.4275  0.3678
 3480SOL     OW22498   7.392   4.267   0.246  0.5653  0.1381  0.2254
 3480SOL    HW122499   7.461   4.198   0.266  0.9626  0.5225  0.1908
 3480SOL    HW222500   7.304   4.238   0.282  0.9145  0.0176  0.9745
 3481SOL     OW22501   1.621   5.674   7.347  0.1640 -0.5254 -0.8435
 3481SOL    HW122502   1.573   5.693   7.261  0.6673  0.2697 -0.9532
 3481SOL    HW222503   1.653   5.760   7.387  0.9329 -0.9907 -0.4451
 3482SOL     OW22504   8.077   2.692   7.863 -0.6430  0.4093  0.0916
 3482SOL    HW122505   8.030   2.622   7.917 -1.5714  0.3427 -0.7924
 3482SOL    HW222506   8.154   2.651   7.815 -1.2682 -0.0441 -0.5381
 3483SOL     OW22507   5.637   5.320   1.646  0.4835 -0.2556 -0.4906
 3483SOL    HW122508   5.638   5.339   1.548 -1.3636 -1.7696 -0.8395
 3483SOL    HW222509   5.684   5.233   1.663  0.8345  0.0231 -0.0189
 3484SOL     OW22510   0.764   7.155   1.037 -0.4143 -0.2448 -0.6477
 3484SOL    HW122511   0.777   7.124   1.132 -0.9067 -0.3271 -0.6016
 3484SOL    HW222512   0.671   7.191   1.027 -0.4095 -0.3646 -1.1347
 3485SOL     OW22513   3.224   4.229   5.443  0.2737 -0.0651 -0.1713
 3485SOL    HW122514   3.211   4.221   5.344 -0.9349 -1.8599  0.1216
 3485SOL    HW222515   3.176   4.155   5.490 -0.5125  1.6543  1.8665
 3486SOL     OW22516   3.840   3.690   6.646 -0.8464 -0.2142  0.1693
 3486SOL    HW122517   3.922   3.741   6.674  0.3602 -0.6961 -2.3975
 3486SOL    HW222518   3.866   3.596   6.623 -2.5378 -1.0821  1.6421
 3487SOL     OW22519   0.899   5.862   7.058 -0.3069 -0.1050 -0.1144
 3487SOL    HW122520   0.927   5.953   7.026 -1.2108  0.3530  0.3934
 3487SOL    HW222521   0.978   5.814   7.096  0.1052  0.5875 -0.0933
 3488SOL     OW22522   2.151   2.578   1.008  0.2649 -0.1514  0.2684
 3488SOL    HW122523   2.205   2.655   1.041  0.0384  0.0014  0.2788
 3488SOL    HW222524   2.061   2.579   1.051 -0.2689  0.4244 -0.8319
 3489SOL     OW22525   3.205   0.895   8.616  0.0017 -0.1259  0.1356
 3489SOL    HW122526   3.166   0.805   8.635 -0.9080  0.7375  2.5915
 3489SOL    HW222527   3.296   0.900   8.657 -1.0042  0.9422  2.2845
 3490SOL     OW22528   0.054   4.731   3.361 -0.0225 -0.4954 -0.2052
 3490SOL    HW122529  -0.028   4.691   3.404  0.3991 -1.3588 -0.1945
 3490SOL    HW222530   0.026   4.795   3.290 -0.7193 -0.1015  0.4193
 3491SOL     OW22531   2.733   5.307   7.288 -0.0045  0.4852  0.2079
 3491SOL    HW122532   2.666   5.233   7.284 -0.5625  0.8945  1.5203
 3491SOL    HW222533   2.825   5.270   7.279 -0.3249 -0.2777  0.0685
 3492SOL     OW22534   0.034   5.468   7.211 -0.5537 -0.2948  0.6233
 3492SOL    HW122535   0.041   5.518   7.298  0.1526  0.5951  0.0647
 3492SOL    HW222536   0.014   5.532   7.137 -1.2332 -1.0641  0.1348
 3493SOL     OW22537   9.832   5.885   7.728 -0.4103 -0.0587  0.1557
 3493SOL    HW122538   9.807   5.868   7.823  2.1264  0.2256  0.9336
 3493SOL    HW222539   9.786   5.967   7.695 -0.3722  0.5300  1.5370
 3494SOL     OW22540   1.966   2.412   2.945 -0.1001  0.0255  0.2402
 3494SOL    HW122541   1.885   2.415   3.004  0.7422 -1.8161  1.5412
 3494SOL    HW222542   2.049   2.423   3.001  0.6419 -0.0979 -0.8168
 3495SOL     OW22543   0.043   2.467   1.007  0.3397 -0.5132  0.1771
 3495SOL    HW122544   0.041   2.456   1.106 -0.3311  1.0857  0.3517
 3495SOL    HW222545   0.124   2.422   0.970 -0.1326 -2.3422  1.2891
 3496SOL     OW22546   7.379   2.095   9.096 -0.2507  0.3021  0.0585
 3496SOL    HW122547   7.339   2.083   9.005 -0.5706  1.3485  0.0613
 3496SOL    HW222548   7.458   2.034   9.105 -0.0879  0.3399 -0.9989
 3497SOL     OW22549   6.236   1.270   0.858 -0.3671 -0.0938 -0.2238
 3497SOL    HW122550   6.158   1.209   0.878  1.4900 -2.5274 -0.1199
 3497SOL    HW222551   6.205   1.346   0.802 -2.5756 -1.7834 -1.3905
 3498SOL     OW22552   0.027   6.271   5.510  0.1350  0.2801 -0.0852
 3498SOL    HW122553   0.045   6.344   5.576 -1.5717  1.8281 -1.2797
 3498SOL    HW222554   0.078   6.288   5.426  2.3399 -1.7094  0.7982
 3499SOL     OW22555   2.832   7.032   8.105  0.3125 -0.1689  0.1132
 3499SOL    HW122556   2.925   6.998   8.122  0.3588  0.2182  0.6256
 3499SOL    HW222557   2.832   7.089   8.023  0.1263 -1.8765 -1.1090
 3500SOL     OW22558   4.465   8.056   7.136  0.0392  0.2037 -0.1926
 3500SOL    HW122559   4.418   8.068   7.049 -2.4360 -1.3121  0.8868
 3500SOL    HW222560   4.563   8.040   7.120 -0.2513  0.7171 -2.6138
 3501SOL     OW22561   9.333   4.251   8.536 -0.5743 -0.3110  0.8768
 3501SOL    HW122562   9.270   4.254   8.458 -0.1660 -1.1583  0.5072
 3501SOL    HW222563   9.281   4.255   8.621 -1.0241  0.6086  0.5721
 3502SOL     OW22564   3.624   2.375   6.152 -0.4816  0.2544  0.5520
 3502SOL    HW122565   3.712   2.420   6.169 -0.0748 -0.5728  0.6882
 3502SOL    HW222566   3.613   2.359   6.054 -0.1336 -0.3010  0.5957
 3503SOL     OW22567   4.641   1.110   7.892  0.6478  0.1961 -0.3555
 3503SOL    HW122568   4.632   1.181   7.822 -0.0987 -0.6445 -1.1279
 3503SOL    HW222569   4.551   1.071   7.912  1.2822 -1.7990 -1.2812
 3504SOL     OW22570   2.941   5.542   5.875 -0.6005  0.1369  0.7819
 3504SOL    HW122571   2.877   5.467   5.889 -0.8648  0.3991  0.9983
 3504SOL    HW222572   2.897   5.629   5.901  0.0906  0.2322  1.6690
 3505SOL     OW22573   4.435   4.689   0.295  0.0741  0.0324 -0.5276
 3505SOL    HW122574   4.476   4.629   0.364  1.1097  1.0798 -0.2161
 3505SOL    HW222575   4.457   4.654   0.203 -1.5323 -1.5143 -0.3636
 3506SOL     OW22576   7.641   5.971   2.279  0.1343  0.0112  0.7425
 3506SOL    HW122577   7.632   6.067   2.252  1.5363 -0.1859 -0.4407
 3506SOL    HW222578   7.563   5.920   2.243  0.4209  0.3291 -0.3507
 3507SOL     OW22579   2.369   5.919   8.716 -0.4030  0.5864 -0.6445
 3507SOL    HW122580   2.436   5.886   8.650  0.0706  0.0629  0.0958
 3507SOL    HW222581   2.407   5.999   8.764 -0.2442  0.1929 -0.1136
 3508SOL     OW22582   0.142   3.263   5.313  0.0240  0.8814  0.1112
 3508SOL    HW122583   0.115   3.217   5.229  1.2304  1.0892 -0.4040
 3508SOL    HW222584   0.171   3.356   5.293 -1.8718  1.6920  1.0780
 3509SOL     OW22585   5.625   3.890   9.228  0.0681  0.2950 -0.6863
 3509SOL    HW122586   5.667   3.973   9.193  0.5218  0.1543 -0.4726
 3509SOL    HW222587   5.574   3.912   9.312 -0.5227  0.5160 -1.0988
 3510SOL     OW22588   0.652   3.343   8.639  0.6989  0.4160 -0.0037
 3510SOL    HW122589   0.653   3.436   8.602  1.0987 -0.3067 -1.8340
 3510SOL    HW222590   0.727   3.332   8.704  0.9604  1.2094 -0.1694
 3511SOL     OW22591   0.503   4.742   8.215  0.8090 -0.0060  0.2655
 3511SOL    HW122592   0.458   4.725   8.303  1.2568 -3.0592 -0.0262
 3511SOL    HW222593   0.439   4.721   8.141  1.7755 -1.5630 -0.1401
 3512SOL     OW22594   1.172   7.056   0.875  0.4020  0.8967 -0.1952
 3512SOL    HW122595   1.266   7.073   0.904  0.6716 -0.1634 -0.4061
 3512SOL    HW222596   1.160   7.086   0.780  1.0959 -0.7907 -0.8379
 3513SOL     OW22597   7.904   2.746   0.476 -0.0886  0.2958  0.2588
 3513SOL    HW122598   7.929   2.673   0.539 -0.5202 -0.6957 -0.6988
 3513SOL    HW222599   7.873   2.826   0.528 -1.7316 -0.9730  1.2858
 3514SOL     OW22600   4.186   8.907   6.087 -0.5849  0.4584  0.5172
 3514SOL    HW122601   4.177   8.853   6.003  0.4901  1.4948 -0.3055
 3514SOL    HW222602   4.175   9.004   6.065  1.8899  0.9282  1.1619
 3515SOL     OW22603   2.148   5.869   2.914 -0.2005  0.1066  0.2045
 3515SOL    HW122604   2.052   5.866   2.940  0.2201 -1.0865  1.6464
 3515SOL    HW222605   2.200   5.800   2.965  1.1262 -0.4383 -1.7865
 3516SOL     OW22606   6.611   4.771   6.823  0.4910  0.3972  0.1544
 3516SOL    HW122607   6.569   4.681   6.820  0.0530  0.5877  0.5555
 3516SOL    HW222608   6.555   4.833   6.878  1.1826  0.7023  0.5352
 3517SOL     OW22609   4.296   5.630   6.382 -0.0269  0.0155 -0.4620
 3517SOL    HW122610   4.383   5.620   6.429 -0.5325 -0.1108  0.4727
 3517SOL    HW222611   4.225   5.653   6.449 -1.0112 -1.4790 -0.9658
 3518SOL     OW22612   0.108   8.273   7.587  0.1696 -0.1570  0.0065
 3518SOL    HW122613   0.150   8.216   7.516  3.0411  0.4264  1.1781
 3518SOL    HW222614   0.150   8.253   7.675 -4.1909 -1.7149  1.8292
 3519SOL     OW22615   2.150   5.960   9.233 -0.2165 -0.0572 -0.2564
 3519SOL    HW122616   2.055   5.931   9.243 -0.0146 -0.5373  0.2695
 3519SOL    HW222617   2.171   5.974   9.136 -0.8481  0.1493 -0.3667
 3520SOL     OW22618   0.590   2.942   9.988  0.7400 -0.6158 -0.1608
 3520SOL    HW122619   0.578   2.976  10.081  0.4119  1.3381 -0.8961
 3520SOL    HW222620   0.502   2.909   9.953  0.4086  0.5756 -0.4943
 3521SOL     OW22621   0.327   5.198   3.354  0.0658  0.4908 -0.0827
 3521SOL    HW122622   0.398   5.191   3.424 -0.5080  0.6487  0.5119
 3521SOL    HW222623   0.367   5.174   3.265  0.5680 -0.6526  0.4333
 3522SOL     OW22624   0.284   2.084   0.182 -0.0125 -0.1085 -0.2367
 3522SOL    HW122625   0.235   2.165   0.215 -0.3171 -0.2257 -0.4109
 3522SOL    HW222626   0.302   2.094   0.084  0.1756 -0.1385 -0.2065
 3523SOL     OW22627   9.023   9.200   5.677  0.2070 -0.3893  0.5644
 3523SOL    HW122628   8.991   9.295   5.677 -0.7929 -0.7197  2.2805
 3523SOL    HW222629   9.092   9.188   5.748 -0.5523 -1.2266  1.1767
 3524SOL     OW22630   7.140   3.055   9.367  0.0450  0.1577 -0.3187
 3524SOL    HW122631   7.236   3.041   9.343 -0.3980  0.1869 -2.1997
 3524SOL    HW222632   7.127   3.038   9.465  1.5898 -1.7798 -0.4130
 3525SOL     OW22633   3.483   1.707   4.256 -0.1788  0.2200  0.7204
 3525SOL    HW122634   3.395   1.718   4.208 -0.2108 -0.4987  0.6057
 3525SOL    HW222635   3.533   1.631   4.215  0.1275  0.0884  1.3424
 3526SOL     OW22636   9.311   4.026   3.201 -0.6596 -0.1090  0.2235
 3526SOL    HW122637   9.296   3.937   3.244  1.3162 -1.0201 -0.9144
 3526SOL    HW222638   9.380   4.018   3.129 -0.0560  2.4518  0.4474
 3527SOL     OW22639   7.371   7.923   7.310 -0.0297  0.4024 -0.1633
 3527SOL    HW122640   7.274   7.906   7.295  0.4184 -1.4657 -1.0777
 3527SOL    HW222641   7.406   7.856   7.376  1.0805 -0.2867 -1.4256
 3528SOL     OW22642   6.344   4.107   4.365  0.4594 -0.3909 -0.2936
 3528SOL    HW122643   6.341   4.191   4.418  0.2421 -1.1063  0.8587
 3528SOL    HW222644   6.342   4.028   4.428  2.7517 -1.2371 -1.2593
 3529SOL     OW22645   1.527   1.523   0.444  0.5356 -0.2996  0.1251
 3529SOL    HW122646   1.447   1.508   0.386  1.7816 -0.4220 -1.6288
 3529SOL    HW222647   1.610   1.517   0.387  1.7581  0.1921  1.8308
 3530SOL     OW22648   2.693   5.912   9.359  0.6354  0.9942 -0.2417
 3530SOL    HW122649   2.701   5.834   9.422  1.3662  0.5374 -0.8943
 3530SOL    HW222650   2.654   5.881   9.272 -0.8018  1.7094  0.1191
 3531SOL     OW22651   7.693   2.360   7.963  0.1171 -0.2052 -0.9735
 3531SOL    HW122652   7.667   2.432   7.899  0.2383  0.0948 -0.6881
 3531SOL    HW222653   7.624   2.287   7.963 -0.4570  0.3374 -0.6029
 3532SOL     OW22654   3.445   6.835   7.672 -0.6550  0.8079 -0.2629
 3532SOL    HW122655   3.466   6.739   7.652 -2.5055  0.0500  1.2996
 3532SOL    HW222656   3.524   6.892   7.648  1.0733 -1.2905  0.2929
 3533SOL     OW22657   8.159   4.157   2.285  0.5437 -0.0864  0.2184
 3533SOL    HW122658   8.092   4.193   2.220  2.0042  0.6214 -0.9393
 3533SOL    HW222659   8.136   4.188   2.377  0.3057  1.6814 -0.4100
 3534SOL     OW22660   1.931   5.065   9.488  0.0183 -0.0547  0.3244
 3534SOL    HW122661   1.895   5.049   9.395 -0.7718  3.0702  0.0443
 3534SOL    HW222662   2.030   5.077   9.484  0.0587 -0.4825 -0.0338
 3535SOL     OW22663   3.712   3.128   9.124 -0.2474  0.3938  0.1077
 3535SOL    HW122664   3.717   3.098   9.220  0.4008  0.8222  0.2065
 3535SOL    HW222665   3.673   3.054   9.069 -0.0588 -0.0826  0.6034
 3536SOL     OW22666   7.279   3.101   2.939 -0.1266  0.4081  0.1284
 3536SOL    HW122667   7.213   3.070   3.006 -1.1052  2.9286  0.4029
 3536SOL    HW222668   7.241   3.091   2.847 -0.4997  0.8784  0.2260
 3537SOL     OW22669   1.428   5.954   8.564  0.0207 -0.0131  0.5472
 3537SOL    HW122670   1.330   5.972   8.563  0.3713  2.1125  0.7034
 3537SOL    HW222671   1.464   5.960   8.471 -0.0876 -1.3800  0.4118
 3538SOL     OW22672   9.112   4.392   2.271  0.0529 -0.0621  0.4302
 3538SOL    HW122673   9.107   4.401   2.172  1.2118 -1.4814  0.2242
 3538SOL    HW222674   9.022   4.409   2.311 -0.7409 -0.8246 -0.9865
 3539SOL     OW22675   0.008   9.863   8.138  0.4102 -0.1238  0.0681
 3539SOL    HW122676  -0.068   9.885   8.076  1.4357 -0.7404 -1.4402
 3539SOL    HW222677   0.086   9.921   8.118  0.4447  0.3197  1.4323
 3540SOL     OW22678   1.684   5.822   5.745 -0.0807  0.1007 -0.2352
 3540SOL    HW122679   1.723   5.890   5.807 -1.8340  0.7180  0.2068
 3540SOL    HW222680   1.718   5.838   5.652 -0.4719  1.5547 -0.1288
 3541SOL     OW22681   8.198   3.747   2.980  0.3438  0.1980 -0.3287
 3541SOL    HW122682   8.117   3.803   2.961 -0.1503  0.0979  1.4574
 3541SOL    HW222683   8.237   3.772   3.068  1.2230 -0.9920 -0.3682
 3542SOL     OW22684   9.725   6.009   4.717  0.2208 -0.6797  0.6354
 3542SOL    HW122685   9.804   5.995   4.656  0.1302  2.8124 -0.4259
 3542SOL    HW222686   9.642   6.018   4.662 -0.4719 -1.3088  1.5674
 3543SOL     OW22687   0.441   3.592   9.435 -0.3784  0.4747 -0.0716
 3543SOL    HW122688   0.465   3.677   9.482 -1.4439 -0.4173  2.1800
 3543SOL    HW222689   0.344   3.573   9.448  0.3164 -2.2946  1.5809
 3544SOL     OW22690   1.904   5.067   7.905  0.5078 -0.3836  0.6675
 3544SOL    HW122691   1.921   5.046   8.001 -0.3841  0.9795  1.1356
 3544SOL    HW222692   1.985   5.045   7.851  1.9115  1.2204  2.1022
 3545SOL     OW22693   8.503   2.169   6.067  0.6976 -0.5584 -0.4067
 3545SOL    HW122694   8.421   2.113   6.067  0.8270 -0.7493 -0.6460
 3545SOL    HW222695   8.529   2.191   5.972  2.1897 -2.3611 -0.4489
 3546SOL     OW22696   9.350   4.314   7.553  0.3967 -0.1226 -0.5710
 3546SOL    HW122697   9.321   4.255   7.628 -0.3956  1.4070  0.3511
 3546SOL    HW222698   9.289   4.300   7.475 -0.3969  0.1807 -0.0112
 3547SOL     OW22699   0.758   9.691   4.159  0.7233  0.0854 -0.1710
 3547SOL    HW122700   0.660   9.689   4.140  0.3715  0.3046  1.5514
 3547SOL    HW222701   0.797   9.775   4.121 -0.0749  0.8238  0.6281
 3548SOL     OW22702   4.673   8.250   3.992  0.1212  0.0821 -0.5873
 3548SOL    HW122703   4.679   8.320   4.063  1.4375 -0.7741  0.1696
 3548SOL    HW222704   4.750   8.258   3.930  1.1491 -1.6257  0.4097
 3549SOL     OW22705   9.807   2.660   4.062 -0.2126  0.2770 -0.7663
 3549SOL    HW122706   9.792   2.658   4.161 -0.0772  0.0940 -0.7488
 3549SOL    HW222707   9.834   2.752   4.034 -1.3410  0.6165 -0.7903
 3550SOL     OW22708   0.329   5.997   6.667  0.3453  0.2821 -0.2231
 3550SOL    HW122709   0.265   6.057   6.714  2.4424  1.8180  0.7463
 3550SOL    HW222710   0.393   5.958   6.733 -0.2129 -2.1172 -1.0099
 3551SOL     OW22711   8.326   4.644   7.767 -0.0851 -0.0355 -0.5745
 3551SOL    HW122712   8.275   4.563   7.797 -0.1260  0.4975  0.8375
 3551SOL    HW222713   8.413   4.616   7.727 -0.7890 -0.8635 -1.5570
 3552SOL     OW22714   9.615   8.345   9.639  0.4114 -0.6803  0.4321
 3552SOL    HW122715   9.641   8.404   9.715 -0.0405 -2.6023  2.1404
 3552SOL    HW222716   9.515   8.346   9.628  0.4640 -0.5114 -0.0537
 3553SOL     OW22717   3.756   3.280   2.887  0.0792  0.3823 -0.0972
 3553SOL    HW122718   3.702   3.233   2.956  0.4529 -0.7076 -0.5491
 3553SOL    HW222719   3.706   3.279   2.800 -0.6011  2.1501  0.2503
 3554SOL     OW22720   4.583   6.870   5.396 -0.2489  0.4257  0.2217
 3554SOL    HW122721   4.638   6.795   5.359 -0.0326  0.4044  0.5808
 3554SOL    HW222722   4.555   6.930   5.322 -2.3180 -1.2298 -0.3881
 3555SOL     OW22723   9.527   8.014   7.889 -0.6249 -0.1439 -0.1629
 3555SOL    HW122724   9.622   7.983   7.895 -0.5143  0.3326  0.6558
 3555SOL    HW222725   9.498   8.049   7.978 -1.0078  1.3291 -0.8606
 3556SOL     OW22726   3.613   6.692   2.628 -0.0382  0.3306 -0.4061
 3556SOL    HW122727   3.565   6.620   2.579 -1.3146  0.8054  0.1205
 3556SOL    HW222728   3.556   6.774   2.631  1.1005  1.1312 -0.3737
 3557SOL     OW22729   0.328   5.784   3.068  0.7931 -0.0543 -0.5948
 3557SOL    HW122730   0.356   5.708   3.125  1.7343  1.2319  0.7046
 3557SOL    HW222731   0.347   5.870   3.116  0.8629  1.0283 -2.5191
 3558SOL     OW22732   9.662   4.447   0.563 -0.1364 -0.0703  0.0492
 3558SOL    HW122733   9.761   4.439   0.557 -0.2276 -0.3163 -1.3170
 3558SOL    HW222734   9.629   4.513   0.496 -0.9656 -0.5125  0.0072
 3559SOL     OW22735   1.763   3.393   0.097 -0.1778 -0.2425  0.3056
 3559SOL    HW122736   1.724   3.392   0.189 -0.7833 -1.3182  0.0519
 3559SOL    HW222737   1.863   3.391   0.103 -0.2275 -2.3671  0.9456
 3560SOL     OW22738   0.338   1.348   2.701 -0.5321 -0.4065  0.2865
 3560SOL    HW122739   0.403   1.355   2.625  0.4821 -0.3847  1.1473
 3560SOL    HW222740   0.246   1.368   2.667  0.0134  0.3991 -0.7770
 3561SOL     OW22741   0.163   1.076   1.295  0.0093  0.3003 -0.0236
 3561SOL    HW122742   0.226   1.009   1.334  0.5870  0.5027 -0.6006
 3561SOL    HW222743   0.088   1.092   1.359  1.1761  0.9657  1.1990
 3562SOL     OW22744   3.661   5.326   5.710 -0.0666  0.0860  0.0307
 3562SOL    HW122745   3.616   5.332   5.799  1.9534 -0.5126  1.1411
 3562SOL    HW222746   3.724   5.248   5.710  1.2113  1.0919 -1.3028
 3563SOL     OW22747   5.633   5.891   5.779 -0.5744 -0.3342 -0.0928
 3563SOL    HW122748   5.548   5.896   5.727 -0.7876 -0.1718  0.2669
 3563SOL    HW222749   5.711   5.888   5.716 -0.7511  1.2703 -0.4080
 3564SOL     OW22750   2.801   5.958   3.179  0.1354  0.3651 -0.8488
 3564SOL    HW122751   2.775   5.917   3.091  1.0321  0.2445 -1.0697
 3564SOL    HW222752   2.860   6.037   3.161  0.4807  0.2215 -0.3504
 3565SOL     OW22753   3.101   9.355   8.896  0.0459 -0.4088 -0.1142
 3565SOL    HW122754   3.106   9.370   8.797 -2.3300 -2.6963 -0.6330
 3565SOL    HW222755   3.036   9.420   8.936 -1.1012 -1.2898 -0.5110
 3566SOL     OW22756   1.956   2.085   3.081  0.3374 -0.4490  0.0869
 3566SOL    HW122757   1.997   2.136   3.157  0.9872  0.2234 -0.7112
 3566SOL    HW222758   1.969   1.987   3.095 -0.4341 -0.3863  1.3572
 3567SOL     OW22759   7.427   3.485   6.355  0.2507 -0.2282  0.7090
 3567SOL    HW122760   7.392   3.428   6.430  0.3055 -2.5386 -0.9815
 3567SOL    HW222761   7.527   3.494   6.364  0.3643 -1.1916  0.4678
 3568SOL     OW22762   2.711   1.689   6.394  0.1177  0.1514 -0.0609
 3568SOL    HW122763   2.752   1.696   6.303 -0.9606 -1.9177 -0.7501
 3568SOL    HW222764   2.670   1.776   6.420 -0.0122  0.6168 -1.7737
 3569SOL     OW22765   7.166   3.791   7.480  0.3007  0.3938 -0.0043
 3569SOL    HW122766   7.109   3.796   7.562 -2.0147  0.8941 -1.6213
 3569SOL    HW222767   7.230   3.868   7.480  0.1564  0.5283  1.2068
 3570SOL     OW22768   3.619   2.574   5.082  0.3584  0.2389 -0.8515
 3570SOL    HW122769   3.689   2.555   5.151 -0.8736 -2.1050 -0.2057
 3570SOL    HW222770   3.538   2.611   5.127 -0.0128 -0.1666 -1.1894
 3571SOL     OW22771   3.950   5.802   1.032 -0.1033 -0.3300 -0.0200
 3571SOL    HW122772   4.003   5.737   0.979  1.0968 -0.9512  1.8751
 3571SOL    HW222773   4.000   5.825   1.116 -3.0050 -1.3107  2.0814
 3572SOL     OW22774   2.894   2.320   9.052  0.2588  0.2286  0.2262
 3572SOL    HW122775   2.979   2.293   9.099 -0.2039  0.7786  1.3783
 3572SOL    HW222776   2.845   2.238   9.024 -0.3454 -0.1490  2.3017
 3573SOL     OW22777   0.992   5.242   4.673 -0.2585 -0.3731  0.8348
 3573SOL    HW122778   1.036   5.155   4.651 -1.9225 -1.4595  1.6918
 3573SOL    HW222779   0.893   5.234   4.659 -0.3071  1.8150 -0.4020
 3574SOL     OW22780   4.687   6.706   4.867 -0.1915 -0.4250 -0.2810
 3574SOL    HW122781   4.617   6.715   4.938  1.8237 -0.9052  1.8490
 3574SOL    HW222782   4.756   6.641   4.897  1.0339 -0.1797 -2.4602
 3575SOL     OW22783   0.699   7.212   4.472  0.0295  0.2873 -0.2788
 3575SOL    HW122784   0.634   7.226   4.398 -1.7402  0.2329  1.2412
 3575SOL    HW222785   0.723   7.115   4.478 -1.3118 -0.0040  0.4455
 3576SOL     OW22786   0.156   1.142   0.430 -0.2175 -0.0140  0.5965
 3576SOL    HW122787   0.186   1.063   0.484 -2.2550 -0.0852  1.6872
 3576SOL    HW222788   0.056   1.152   0.438 -0.0037  2.6752  0.5168
 3577SOL     OW22789   2.647   7.992   0.263  0.7479  0.0363 -0.6354
 3577SOL    HW122790   2.739   8.023   0.287  1.0430  1.0021 -2.9031
 3577SOL    HW222791   2.582   8.020   0.334  1.9411  0.7939  0.1548
 3578SOL     OW22792   9.830   4.277   0.015  0.1294 -0.1922 -0.1127
 3578SOL    HW122793   9.838   4.197   0.074  0.2215 -0.5971 -0.6704
 3578SOL    HW222794   9.799   4.249  -0.076  0.7313  0.3340 -0.4850
 3579SOL     OW22795   1.297   7.821   8.821  0.2305  0.3289  0.1760
 3579SOL    HW122796   1.267   7.777   8.736  0.0714 -0.3643  0.5802
 3579SOL    HW222797   1.217   7.845   8.875  0.3231  1.0561 -0.0120
 3580SOL     OW22798   0.815   7.346   1.286  0.5405  0.3129  0.3186
 3580SOL    HW122799   0.825   7.250   1.311  1.5171  0.4521  0.4980
 3580SOL    HW222800   0.746   7.355   1.214  0.2773 -0.4908  0.4685
 3581SOL     OW22801   2.397   6.875   4.987 -0.2756  0.0598 -0.4061
 3581SOL    HW122802   2.364   6.874   5.082 -1.2004  0.3284 -0.7190
 3581SOL    HW222803   2.400   6.969   4.954  0.3738 -0.0050 -0.5330
 3582SOL     OW22804   2.345   3.562   6.836  0.3604  0.0095  0.1758
 3582SOL    HW122805   2.339   3.522   6.927  0.6033  0.4636  0.3912
 3582SOL    HW222806   2.441   3.565   6.806  0.2227 -0.6976 -0.3427
 3583SOL     OW22807   5.593   4.650   8.469  1.0968  0.5153  0.3622
 3583SOL    HW122808   5.586   4.552   8.488  0.7716  0.4749  0.0467
 3583SOL    HW222809   5.673   4.668   8.412  0.5396  0.2926 -0.4999
 3584SOL     OW22810   1.908   6.839   8.000  0.1595  0.4209 -0.0161
 3584SOL    HW122811   1.837   6.770   7.989  1.3204 -0.7760 -0.1526
 3584SOL    HW222812   1.888   6.918   7.942 -0.4352 -0.4062 -0.9499
 3585SOL     OW22813   9.559   5.558   5.043  0.2202 -0.2984  0.9446
 3585SOL    HW122814   9.492   5.500   5.089 -0.7077 -0.8065 -0.9790
 3585SOL    HW222815   9.572   5.526   4.949  1.1913  1.4061  0.4664
 3586SOL     OW22816   2.101   8.118   9.966 -0.3883  0.1334 -0.4178
 3586SOL    HW122817   2.201   8.122   9.960 -0.3849 -1.1475 -1.3108
 3586SOL    HW222818   2.061   8.132   9.876 -0.9976 -0.1354 -0.1906
 3587SOL     OW22819   2.262   3.705   6.096 -0.2254  0.0484  0.0835
 3587SOL    HW122820   2.195   3.631   6.101 -1.3945  1.1049  0.3013
 3587SOL    HW222821   2.287   3.721   6.001  0.4509 -0.9995  0.0862
 3588SOL     OW22822   0.506   2.290   9.321 -0.1536  0.1779 -0.0030
 3588SOL    HW122823   0.548   2.359   9.380 -0.1645  1.8060 -1.8792
 3588SOL    HW222824   0.407   2.305   9.317 -0.3441 -0.8028  0.6609
 3589SOL     OW22825   8.596   2.305   3.530 -0.2736  0.7443 -0.7121
 3589SOL    HW122826   8.562   2.382   3.478  0.3948  0.5819 -1.3961
 3589SOL    HW222827   8.608   2.226   3.469 -0.6488  0.1994 -0.0847
 3590SOL     OW22828   0.422   3.193   2.339  0.7583 -0.3854  1.0898
 3590SOL    HW122829   0.332   3.229   2.366  0.4215  0.2268 -0.7755
 3590SOL    HW222830   0.479   3.268   2.306  1.4109 -1.0065  0.7982
 3591SOL     OW22831   1.547   2.158   0.750  0.2122 -0.2882 -0.0960
 3591SOL    HW122832   1.519   2.248   0.716  0.4817 -0.3270 -0.4258
 3591SOL    HW222833   1.566   2.163   0.848 -0.0538 -0.0532 -0.0557
 3592SOL     OW22834   2.019   8.602   8.508 -0.1334  0.3414 -0.0639
 3592SOL    HW122835   2.024   8.683   8.566 -1.3052  0.1659  0.3026
 3592SOL    HW222836   1.924   8.574   8.498  0.2375 -0.8587 -0.3744
 3593SOL     OW22837   1.909   8.372   0.138 -0.1086  0.0335 -0.6434
 3593SOL    HW122838   1.889   8.411   0.228  1.7415  1.0896 -0.6633
 3593SOL    HW222839   2.002   8.395   0.112  0.0670 -2.0262 -1.9376
 3594SOL     OW22840   3.847   2.385   8.221  0.1680 -0.0495 -0.2845
 3594SOL    HW122841   3.882   2.340   8.303 -0.3880  2.7942  1.6258
 3594SOL    HW222842   3.765   2.338   8.189  0.3441 -1.1579  0.8635
 3595SOL     OW22843   2.985   1.674   9.247  0.3603  0.0107  0.0835
 3595SOL    HW122844   2.971   1.773   9.250  0.8505  0.0340  1.4996
 3595SOL    HW222845   2.916   1.634   9.186 -0.6564  1.0717  0.5014
 3596SOL     OW22846   2.158   3.778   2.145  0.3786 -0.1815 -0.1851
 3596SOL    HW122847   2.215   3.760   2.226 -0.4516  0.6669  0.6015
 3596SOL    HW222848   2.211   3.761   2.062  1.4721 -0.3341  0.5355
 3597SOL     OW22849   3.942   5.707   0.117  0.0111 -0.5581 -0.5007
 3597SOL    HW122850   3.881   5.662   0.052  0.6686  0.2782 -1.7242
 3597SOL    HW222851   3.920   5.804   0.122  0.3432 -0.5092  0.0947
 3598SOL     OW22852   8.618   6.867   6.627  0.0420 -0.6065 -0.0722
 3598SOL    HW122853   8.594   6.960   6.600 -1.0864 -0.8638  0.0278
 3598SOL    HW222854   8.718   6.856   6.625  0.1712  0.5653 -0.1880
 3599SOL     OW22855   4.806   4.577   0.802  0.5858  0.2363  0.1273
 3599SOL    HW122856   4.804   4.486   0.761 -2.0560  0.6235 -0.6697
 3599SOL    HW222857   4.902   4.605   0.814  1.4428 -1.6342 -1.8666
 3600SOL     OW22858   9.998   6.502   3.855 -0.2319 -0.0437 -0.3138
 3600SOL    HW122859   9.989   6.425   3.919 -1.2611 -0.2329 -0.6929
 3600SOL    HW222860  10.078   6.487   3.797  0.0706 -0.4092  0.1914
 3601SOL     OW22861   0.247   7.236   8.039 -0.2413  0.2842  0.0131
 3601SOL    HW122862   0.247   7.319   8.095 -2.5029 -0.6691  1.5208
 3601SOL    HW222863   0.281   7.257   7.948 -0.0266  2.6842  0.6140
 3602SOL     OW22864   3.392   2.527   4.556 -0.2183 -0.6871  0.3457
 3602SOL    HW122865   3.306   2.475   4.548  0.5193 -1.8866  0.0787
 3602SOL    HW222866   3.468   2.463   4.569  0.5869  0.3975  0.9810
 3603SOL     OW22867   3.137   4.788   1.017  0.4243 -0.3228 -0.0478
 3603SOL    HW122868   3.186   4.811   1.101 -0.5299  0.4661  0.3022
 3603SOL    HW222869   3.041   4.816   1.025  0.1740 -0.8163 -1.1563
 3604SOL     OW22870   7.795   3.048   8.418  0.0889  0.0406 -0.2171
 3604SOL    HW122871   7.747   3.066   8.503 -1.4832 -1.4916 -0.7407
 3604SOL    HW222872   7.731   3.014   8.349  1.8904 -2.1363 -0.9180
 3605SOL     OW22873   5.139   8.048   8.722  0.3484  0.0570  0.2536
 3605SOL    HW122874   5.091   7.969   8.683  0.5924  0.4879 -0.9552
 3605SOL    HW222875   5.197   8.090   8.652 -2.1230  3.1508 -0.0606
 3606SOL     OW22876   0.933   7.848   6.554 -0.4275  0.0079  0.6294
 3606SOL    HW122877   0.882   7.770   6.591  1.4093 -1.2325  0.5778
 3606SOL    HW222878   1.019   7.816   6.516 -0.4369  1.8431 -0.9867
 3607SOL     OW22879   1.069   4.295   4.419 -0.0680  0.1704 -0.5502
 3607SOL    HW122880   1.122   4.218   4.457 -1.8980 -1.5176 -1.3062
 3607SOL    HW222881   1.017   4.338   4.493 -0.1120 -0.2159 -0.3516
 3608SOL     OW22882   6.048   7.245   2.115 -0.5713 -0.4685  0.2409
 3608SOL    HW122883   6.052   7.293   2.202  0.4903  1.0337 -0.6060
 3608SOL    HW222884   6.062   7.310   2.040  1.7331 -2.1963 -0.9003
 3609SOL     OW22885   3.202   6.679   9.260  0.4596 -0.7500 -0.4581
 3609SOL    HW122886   3.127   6.660   9.196  1.4024 -0.1887 -1.7438
 3609SOL    HW222887   3.203   6.777   9.281  0.7860 -0.7745 -0.3612
 3610SOL     OW22888   1.562   4.747   3.560 -0.3665  0.2196  0.5150
 3610SOL    HW122889   1.504   4.825   3.585 -0.3379  0.0060  1.2612
 3610SOL    HW222890   1.505   4.676   3.519 -0.5258  0.2908  0.6078
 3611SOL     OW22891   8.227   5.262   5.153  0.1546 -0.7079  0.2012
 3611SOL    HW122892   8.260   5.246   5.060  0.1617 -1.5416  0.3494
 3611SOL    HW222893   8.305   5.268   5.215  0.0846 -1.3450  0.3442
 3612SOL     OW22894   6.010   8.461   0.732  0.5048  1.0629 -0.1635
 3612SOL    HW122895   6.014   8.376   0.784  1.7237  1.1532 -0.1009
 3612SOL    HW222896   5.927   8.462   0.677  0.1404  0.1372  0.3551
 3613SOL     OW22897   8.946   3.607   4.013 -0.2768 -0.4829 -0.4837
 3613SOL    HW122898   8.890   3.687   3.992  1.0173  0.8883  1.0840
 3613SOL    HW222899   8.891   3.537   4.058 -0.7231  0.8699  1.0859
 3614SOL     OW22900   1.144   5.528   1.411 -0.2212 -0.5638  0.6501
 3614SOL    HW122901   1.096   5.504   1.495 -1.1893 -2.1286 -0.3266
 3614SOL    HW222902   1.103   5.479   1.334  0.0474  1.5793 -0.8844
 3615SOL     OW22903   2.648   5.399   5.611 -0.3420 -0.9384  0.1271
 3615SOL    HW122904   2.642   5.307   5.648 -2.3477 -1.0006 -0.2795
 3615SOL    HW222905   2.645   5.466   5.685  1.4366 -1.1897  0.4447
 3616SOL     OW22906   0.899   7.990   9.992 -0.1008 -0.7363  0.1093
 3616SOL    HW122907   0.836   8.057   9.952  1.1777 -0.6067 -1.7760
 3616SOL    HW222908   0.944   8.029  10.072 -0.5131  0.1055 -0.0682
 3617SOL     OW22909   0.384   7.421   0.570  0.1154 -0.2281 -0.2036
 3617SOL    HW122910   0.446   7.343   0.584 -0.5799 -1.1761 -2.2911
 3617SOL    HW222911   0.438   7.505   0.560  0.9484 -0.6912  0.3323
 3618SOL     OW22912   3.238   3.027   9.514  0.2168 -0.1793  0.5815
 3618SOL    HW122913   3.143   3.007   9.537  0.0677  2.3356  2.2965
 3618SOL    HW222914   3.294   2.947   9.535 -1.3697 -1.3594  0.4486
 3619SOL     OW22915   1.877   7.637   5.390 -0.1701 -0.2999  0.4563
 3619SOL    HW122916   1.954   7.698   5.370  0.1208 -1.0329 -0.7356
 3619SOL    HW222917   1.904   7.543   5.370 -0.2482 -0.9697  3.3066
 3620SOL     OW22918   1.593   8.785   3.435  0.0939 -0.1293 -0.7291
 3620SOL    HW122919   1.646   8.848   3.491 -0.3659 -0.0940 -0.3380
 3620SOL    HW222920   1.496   8.796   3.454  0.0615 -1.6732  0.1080
 3621SOL     OW22921   2.792   0.382   4.205  0.1953  0.1676  0.4589
 3621SOL    HW122922   2.733   0.422   4.134 -1.1766 -1.0726  0.8661
 3621SOL    HW222923   2.763   0.416   4.295  2.1138  1.9609  0.4468
 3622SOL     OW22924   3.401   4.824   7.770 -0.3918 -0.2693  0.0743
 3622SOL    HW122925   3.472   4.811   7.839 -0.2851 -1.6074 -0.2797
 3622SOL    HW222926   3.409   4.753   7.700 -1.3331  0.2881 -0.6080
 3623SOL     OW22927   2.083   6.637   0.925 -0.4763  0.0239 -0.6984
 3623SOL    HW122928   2.135   6.556   0.951 -0.2779  0.8361  1.4902
 3623SOL    HW222929   2.144   6.701   0.877  0.2124  0.3713  0.6326
 3624SOL     OW22930   3.139   4.518   3.380 -0.2446 -0.2922  0.3234
 3624SOL    HW122931   3.172   4.608   3.408 -1.5618  0.1163  0.6123
 3624SOL    HW222932   3.108   4.467   3.460  1.8919 -1.5921  0.3331
 3625SOL     OW22933   0.287   0.071   0.221 -0.0220  0.5212 -0.3508
 3625SOL    HW122934   0.222   0.042   0.291  0.2928  0.9384  0.1163
 3625SOL    HW222935   0.371   0.017   0.229  0.2181  0.9364 -0.0631
 3626SOL     OW22936   7.767   0.844   5.178 -0.0499 -0.2871 -0.2769
 3626SOL    HW122937   7.725   0.822   5.090  0.0082  2.5431 -1.0515
 3626SOL    HW222938   7.867   0.843   5.168 -0.0354 -0.3768 -0.1247
 3627SOL     OW22939   4.106   4.942   9.482  0.3833 -0.3376  0.5144
 3627SOL    HW122940   4.083   4.847   9.504 -1.7363 -0.0393 -0.2512
 3627SOL    HW222941   4.028   5.000   9.503  1.3750  1.1214  0.1896
 3628SOL     OW22942   1.494   9.338   1.219  0.0831 -0.1994  0.3368
 3628SOL    HW122943   1.582   9.368   1.257  0.1428 -1.5865  1.3465
 3628SOL    HW222944   1.437   9.301   1.293 -1.3787  0.7293 -0.3076
 3629SOL     OW22945   8.831   9.302   8.218  0.4831 -0.1382 -0.5784
 3629SOL    HW122946   8.892   9.373   8.252 -0.9845  1.3985 -1.0815
 3629SOL    HW222947   8.748   9.344   8.181 -0.8861 -2.1739  0.0740
 3630SOL     OW22948   1.024   4.699   9.861  0.2367 -0.0449 -0.1071
 3630SOL    HW122949   1.042   4.654   9.949  1.7262  1.0692  0.1816
 3630SOL    HW222950   1.019   4.798   9.875  0.4061  0.1302 -1.2663
 3631SOL     OW22951   1.725   6.484   1.657 -0.1535 -0.0344 -0.3117
 3631SOL    HW122952   1.680   6.515   1.741 -0.9527  0.1470 -0.7988
 3631SOL    HW222953   1.666   6.420   1.608  0.9048 -1.2429 -0.0308
 3632SOL     OW22954   5.253   3.213   9.849  1.0946 -0.1332  0.5039
 3632SOL    HW122955   5.175   3.275   9.855  0.7075 -0.1886 -2.9882
 3632SOL    HW222956   5.328   3.247   9.906  0.0940  2.3353  0.3784
 3633SOL     OW22957   8.469   2.151   1.190  0.2333 -0.0681  0.3037
 3633SOL    HW122958   8.408   2.092   1.138  1.2397 -1.4021  0.5975
 3633SOL    HW222959   8.457   2.246   1.160 -0.7931 -0.5203 -0.7753
 3634SOL     OW22960   9.131   3.075   0.644  0.0111 -0.5548  0.1609
 3634SOL    HW122961   9.095   2.987   0.675 -1.2137 -0.4088 -0.8167
 3634SOL    HW222962   9.093   3.148   0.700 -1.6144 -0.3588 -1.1692
 3635SOL     OW22963   1.360   8.516   8.400  0.7282 -0.8401  0.0160
 3635SOL    HW122964   1.264   8.486   8.402  0.3734  0.1401 -1.7620
 3635SOL    HW222965   1.408   8.477   8.479 -0.8216 -2.3433  0.2577
 3636SOL     OW22966   1.471   5.608   8.394  0.0971 -0.4206 -0.1266
 3636SOL    HW122967   1.520   5.627   8.309 -0.3387  0.7683 -0.1291
 3636SOL    HW222968   1.536   5.600   8.469  0.4515 -1.0576 -0.4979
 3637SOL     OW22969   2.740   6.135   9.840  0.0334  0.4954 -0.0037
 3637SOL    HW122970   2.821   6.109   9.789 -0.3355  0.7030 -0.7098
 3637SOL    HW222971   2.668   6.163   9.776 -1.2044 -1.3871  0.5224
 3638SOL     OW22972   2.850   0.531   5.825  0.7791 -0.5936  0.5110
 3638SOL    HW122973   2.899   0.445   5.815  0.9791 -0.5583  1.1858
 3638SOL    HW222974   2.804   0.534   5.913  1.1311  0.1637  0.6783
 3639SOL     OW22975   2.870   8.673   0.612  0.2507 -0.2339 -0.0706
 3639SOL    HW122976   2.945   8.642   0.670  0.7618  1.5432  0.2602
 3639SOL    HW222977   2.904   8.688   0.519  0.3472  0.6351  0.0945
 3640SOL     OW22978   9.524   3.400   0.622 -0.4306  0.1977 -0.6905
 3640SOL    HW122979   9.486   3.308   0.630  1.1078 -0.5793 -1.9378
 3640SOL    HW222980   9.594   3.413   0.692 -1.1770  0.7122 -0.0255
 3641SOL     OW22981   4.953   0.312   1.128 -0.2464  0.8543 -0.1702
 3641SOL    HW122982   5.002   0.266   1.053  0.1709  0.9057  0.0670
 3641SOL    HW222983   4.975   0.409   1.127 -0.9302  1.0049 -0.5151
 3642SOL     OW22984   3.290   3.907   1.333 -0.2238  0.3060  0.3810
 3642SOL    HW122985   3.389   3.910   1.321 -0.2520 -1.5511 -0.4254
 3642SOL    HW222986   3.260   3.812   1.340 -2.1227  0.8071 -0.7075
 3643SOL     OW22987   0.053   1.299   0.716 -0.5691  0.1567 -0.1811
 3643SOL    HW122988   0.025   1.345   0.632  1.0084 -0.7016 -1.2016
 3643SOL    HW222989   0.044   1.200   0.704  0.0768  0.0094  0.5151
 3644SOL     OW22990   4.297   7.030   0.751 -0.8198  0.3881  0.4948
 3644SOL    HW122991   4.260   7.051   0.842  0.3444  1.5695  0.6987
 3644SOL    HW222992   4.235   7.066   0.681 -2.3416 -1.5733  0.7875
 3645SOL     OW22993   9.243   6.070   0.686 -0.5138  0.3747 -0.5696
 3645SOL    HW122994   9.252   6.136   0.761  0.0876  0.1366 -0.4231
 3645SOL    HW222995   9.273   5.980   0.718 -1.2689  0.0478 -0.7904
 3646SOL     OW22996   0.819   6.061   3.297  0.4834  0.1760 -0.3400
 3646SOL    HW122997   0.834   5.999   3.220 -1.0561 -1.6297  0.7479
 3646SOL    HW222998   0.825   6.156   3.266  0.9159 -0.5145 -2.4510
 3647SOL     OW22999   2.168   5.796   7.252  0.0591 -0.5863  0.0527
 3647SOL    HW123000   2.119   5.758   7.330 -0.0094  1.7588  1.2063
 3647SOL    HW223001   2.113   5.869   7.210  1.8650  1.0186  0.4094
 3648SOL     OW23002   0.949   5.942   4.728 -0.1303 -0.1019 -0.2622
 3648SOL    HW123003   0.900   5.983   4.651 -2.5893 -2.3004  0.0290
 3648SOL    HW223004   0.930   5.844   4.730  2.8989 -0.6973  0.9884
 3649SOL     OW23005   8.225   7.633   2.428  0.5752  0.0961  0.1956
 3649SOL    HW123006   8.188   7.679   2.509 -0.0326  1.0262 -0.6047
 3649SOL    HW223007   8.307   7.681   2.397  0.9225 -0.3806  0.3619
 3650SOL     OW23008   9.760   8.458   9.394  0.2059 -0.3299 -0.5196
 3650SOL    HW123009   9.720   8.377   9.437  0.2851 -1.1174 -1.8825
 3650SOL    HW223010   9.764   8.533   9.460  1.0179 -1.7186  1.0163
 3651SOL     OW23011   9.754   6.014   9.399 -0.3068 -0.1056 -0.1770
 3651SOL    HW123012   9.724   6.070   9.322 -0.0622  0.0322 -0.1721
 3651SOL    HW223013   9.674   5.980   9.448 -0.4979  3.0822  1.8881
 3652SOL     OW23014   1.993   2.016   5.871 -0.0019 -0.3254 -0.7510
 3652SOL    HW123015   2.072   2.046   5.819  0.1212  3.0395  1.2119
 3652SOL    HW223016   1.913   2.011   5.811  0.6264  1.2324 -1.7382
 3653SOL     OW23017   2.907   7.382   4.547  0.2105  0.3479 -0.0719
 3653SOL    HW123018   2.854   7.454   4.501 -2.9613 -0.0551  2.7257
 3653SOL    HW223019   2.962   7.422   4.620  0.1341  0.2036  0.0660
 3654SOL     OW23020   9.805   1.945   0.168  0.0446  0.7590  0.1614
 3654SOL    HW123021   9.838   1.921   0.077  0.4148 -1.3794  0.8356
 3654SOL    HW223022   9.705   1.942   0.169  0.0705 -0.0709  0.0541
 3655SOL     OW23023   4.608   6.505   5.930  0.1532 -0.0679  0.2831
 3655SOL    HW123024   4.538   6.575   5.921  0.8939  0.6740  0.2375
 3655SOL    HW223025   4.591   6.432   5.864 -0.6652  0.0269  0.3909
 3656SOL     OW23026   9.115   4.009   1.567  0.3037 -0.0158  0.2352
 3656SOL    HW123027   9.092   3.934   1.630  0.2440  0.5367  0.8700
 3656SOL    HW223028   9.168   3.972   1.490 -1.2682 -1.0192 -0.3942
 3657SOL     OW23029   6.919   9.109   1.919  0.8704 -0.2567  0.0621
 3657SOL    HW123030   6.935   9.129   1.822  0.2146 -0.9151 -0.1845
 3657SOL    HW223031   6.825   9.079   1.932  0.4564  1.4524  1.1730
 3658SOL     OW23032   2.119   0.263   1.708  0.1104 -0.4619  0.0339
 3658SOL    HW123033   2.197   0.320   1.678  0.8277 -0.9236  1.0031
 3658SOL    HW223034   2.149   0.169   1.719  0.1684 -0.1229  3.2871
 3659SOL     OW23035   2.895   6.190   4.434 -0.3021  0.0089 -0.6334
 3659SOL    HW123036   2.886   6.257   4.360 -0.7361  0.5140 -0.1303
 3659SOL    HW223037   2.807   6.146   4.450 -0.3766  0.4018  0.0518
 3660SOL     OW23038   4.247   5.972   9.453 -0.7386  0.1386 -0.7828
 3660SOL    HW123039   4.221   6.023   9.371 -1.4185 -0.0517 -0.6822
 3660SOL    HW223040   4.230   6.027   9.534 -2.2024 -0.5432 -0.6259
 3661SOL     OW23041   9.712   6.396   9.162  0.1109 -0.1979 -0.1764
 3661SOL    HW123042   9.763   6.444   9.233 -0.5680 -0.5967  0.5855
 3661SOL    HW223043   9.622   6.439   9.151  0.7341  0.7461 -1.7848
 3662SOL     OW23044   1.188   5.656   9.358 -0.2584  0.3328  0.0804
 3662SOL    HW123045   1.130   5.735   9.340 -1.2016 -0.3485  0.0498
 3662SOL    HW223046   1.282   5.685   9.372 -0.4310  1.3654 -0.8506
 3663SOL     OW23047   0.478   8.683   9.354 -0.0044  0.0883  0.2059
 3663SOL    HW123048   0.545   8.747   9.391  0.5301 -0.3757  0.0607
 3663SOL    HW223049   0.512   8.589   9.367 -0.1821 -0.1077 -0.7341
 3664SOL     OW23050   0.057   7.816   8.308  0.2469 -0.4605 -0.1014
 3664SOL    HW123051   0.104   7.798   8.395  0.8829 -2.2422 -0.7962
 3664SOL    HW223052  -0.025   7.758   8.302  1.3206 -1.8865 -1.5673
 3665SOL     OW23053   1.513   5.364   1.737  0.5227 -0.0740  0.1543
 3665SOL    HW123054   1.471   5.445   1.697  0.3461 -0.4940 -0.5124
 3665SOL    HW223055   1.606   5.353   1.702  0.3356 -0.4935 -0.2083
 3666SOL     OW23056   1.050   2.804   0.593 -0.1433  0.8607  0.0231
 3666SOL    HW123057   1.137   2.853   0.605  0.2359  0.0832  0.5080
 3666SOL    HW223058   1.046   2.766   0.501  1.1957 -1.3104  0.8237
 3667SOL     OW23059   2.864   2.187   5.233 -0.2439 -0.4748 -0.1827
 3667SOL    HW123060   2.836   2.196   5.329 -1.1479 -0.8644 -0.4053
 3667SOL    HW223061   2.947   2.131   5.227  0.7982  0.9616  0.5165
 3668SOL     OW23062   1.970   2.491   9.518 -0.3431  0.6960 -0.0301
 3668SOL    HW123063   1.968   2.478   9.418  0.9748 -1.9432  0.2348
 3668SOL    HW223064   1.893   2.549   9.545 -1.9687 -0.2500 -2.3653
 3669SOL     OW23065   2.513   5.193   9.574 -0.0071  0.3113  0.1168
 3669SOL    HW123066   2.534   5.143   9.490 -0.2353 -0.5175  0.5466
 3669SOL    HW223067   2.563   5.152   9.650  0.4230  1.2387  0.3395
 3670SOL     OW23068   4.501   4.316   8.859 -0.1202  0.7397 -0.2275
 3670SOL    HW123069   4.422   4.324   8.920  0.8668 -0.4665  1.2440
 3670SOL    HW223070   4.478   4.256   8.782 -0.2313 -0.7730  0.9461
 3671SOL     OW23071   3.021   2.456   8.814 -0.3742  0.1835 -0.5000
 3671SOL    HW123072   3.057   2.547   8.831 -1.4197  0.7783 -1.4194
 3671SOL    HW223073   2.961   2.429   8.889 -1.4217  0.9661 -1.0433
 3672SOL     OW23074   3.576   7.720   1.556  0.2585 -0.2585 -0.1735
 3672SOL    HW123075   3.610   7.636   1.513 -0.2070 -1.5008  1.7816
 3672SOL    HW223076   3.637   7.745   1.631 -0.5309  0.1986  0.3217
 3673SOL     OW23077   1.540   9.044   8.259  0.3566 -0.2101 -0.0855
 3673SOL    HW123078   1.534   8.946   8.276  2.0780 -0.6876 -2.0739
 3673SOL    HW223079   1.619   9.063   8.201 -0.4894  2.2472 -0.4859
 3674SOL     OW23080   0.782   4.340   8.687 -0.0997  0.1572  0.3690
 3674SOL    HW123081   0.690   4.302   8.695 -0.4735  0.5372 -1.8323
 3674SOL    HW223082   0.842   4.295   8.753 -1.2340 -2.0558 -0.0480
 3675SOL     OW23083   2.006   3.010   1.788  0.1594 -0.3703 -0.0633
 3675SOL    HW123084   2.052   2.955   1.858  0.0905  0.8573  0.9480
 3675SOL    HW223085   2.055   3.096   1.775 -1.2196  0.4764  0.2458
 3676SOL     OW23086   0.299   4.771   0.538  0.0482 -0.6194  0.5364
 3676SOL    HW123087   0.353   4.852   0.559  1.0030 -1.1043 -0.0427
 3676SOL    HW223088   0.342   4.690   0.578 -0.5337 -0.9402  0.5252
 3677SOL     OW23089   0.501   7.458   2.721 -0.5858  0.1232  0.2133
 3677SOL    HW123090   0.574   7.501   2.668  0.2757 -0.2951  1.0312
 3677SOL    HW223091   0.500   7.496   2.814 -0.4532 -0.9008  0.6440
 3678SOL     OW23092   7.180   8.825   5.435  0.9074 -0.0071 -0.5582
 3678SOL    HW123093   7.131   8.838   5.521 -0.0235  0.5982 -1.1802
 3678SOL    HW223094   7.196   8.914   5.392 -1.3833 -0.4959 -2.5315
 3679SOL     OW23095   9.623   5.664   6.925 -0.0624  0.3770 -0.0974
 3679SOL    HW123096   9.673   5.584   6.960  1.2369  1.5376  0.7368
 3679SOL    HW223097   9.680   5.713   6.859 -0.5016  1.1518  0.0915
 3680SOL     OW23098   8.834   5.900   7.329  0.4601  0.1505 -0.4321
 3680SOL    HW123099   8.827   5.811   7.374 -1.7167 -0.2698 -1.5045
 3680SOL    HW223100   8.915   5.903   7.272 -0.0349 -1.5821 -1.2650
 3681SOL     OW23101   3.960   5.129   9.172 -0.7978 -0.2428  0.3486
 3681SOL    HW123102   4.012   5.147   9.088  0.6054  1.2159  1.5050
 3681SOL    HW223103   3.913   5.041   9.163 -0.1187 -0.4364 -1.6907
 3682SOL     OW23104   6.336   4.836   9.611  0.4629  0.5606  0.5232
 3682SOL    HW123105   6.269   4.889   9.560 -0.0066 -0.5245 -0.0165
 3682SOL    HW223106   6.418   4.891   9.627  1.8093  0.0627 -3.9568
 3683SOL     OW23107   1.481   6.591   4.389 -0.4685 -0.5269 -0.0523
 3683SOL    HW123108   1.416   6.516   4.403  0.4579 -0.8666  2.7061
 3683SOL    HW223109   1.431   6.674   4.364 -1.8084 -1.1691  0.4612
 3684SOL     OW23110   1.396   1.502   0.693 -0.3649 -0.7012  0.0023
 3684SOL    HW123111   1.423   1.558   0.771  0.8683 -1.1973 -0.0572
 3684SOL    HW223112   1.445   1.533   0.611 -0.6403 -1.0376 -0.2890
 3685SOL     OW23113   3.182   4.115   0.428 -0.2830 -0.1483  0.0800
 3685SOL    HW123114   3.210   4.210   0.436 -0.9837  0.1380 -0.7604
 3685SOL    HW223115   3.119   4.105   0.351 -1.9120 -0.9057  1.4644
 3686SOL     OW23116   2.846   0.412   0.066  0.9635  0.4074  0.0204
 3686SOL    HW123117   2.796   0.498   0.054  1.3487  0.4905 -1.0454
 3686SOL    HW223118   2.922   0.426   0.130  1.2902  0.9730 -0.4850
 3687SOL     OW23119   4.334   3.875   9.865 -0.0901 -0.1597 -0.1957
 3687SOL    HW123120   4.265   3.872   9.937  1.3813  1.0697  1.3119
 3687SOL    HW223121   4.338   3.966   9.825  0.3503 -0.3414 -0.5854
 3688SOL     OW23122   1.571   9.192   1.729  0.3758  0.0283  0.1270
 3688SOL    HW123123   1.573   9.101   1.770 -2.3281  0.2381  0.8676
 3688SOL    HW223124   1.569   9.184   1.630  1.9282 -0.6560  0.1423
 3689SOL     OW23125   3.643   9.162   0.345 -0.4960  0.5536  0.5041
 3689SOL    HW123126   3.615   9.235   0.282 -0.5307  1.5529  1.6678
 3689SOL    HW223127   3.579   9.157   0.421 -0.3377 -0.5177  0.5717
 3690SOL     OW23128   0.596   6.798   7.618  0.7699 -0.5620  1.0195
 3690SOL    HW123129   0.691   6.829   7.622  1.1138 -1.6126  1.1495
 3690SOL    HW223130   0.594   6.698   7.615 -0.2783 -0.4979 -0.8233
 3691SOL     OW23131   0.898   2.703   2.903 -0.2296  0.2554 -0.4954
 3691SOL    HW123132   0.860   2.790   2.874 -0.0764  0.6188  0.3917
 3691SOL    HW223133   0.837   2.661   2.971  0.1898  0.1265 -0.2019
 3692SOL     OW23134   9.771   2.027   9.018 -0.1645  0.5561  0.1599
 3692SOL    HW123135   9.865   2.012   9.048 -0.4395  0.9345  1.2061
 3692SOL    HW223136   9.729   2.100   9.071 -2.4891 -2.5072  2.7735
 3693SOL     OW23137   7.142   4.346   8.198 -0.7494 -0.1547  0.0462
 3693SOL    HW123138   7.077   4.311   8.265 -0.9742  0.5426  0.1855
 3693SOL    HW223139   7.225   4.376   8.245 -1.1612  0.9449  0.0855
 3694SOL     OW23140   6.742   2.668   4.155  0.6881  0.2097 -0.2135
 3694SOL    HW123141   6.696   2.580   4.144 -0.7808  0.8759  0.4895
 3694SOL    HW223142   6.780   2.675   4.247 -2.3334  1.7325  0.9831
 3695SOL     OW23143   9.131   6.882   3.780 -0.2911 -0.1714 -0.4478
 3695SOL    HW123144   9.138   6.842   3.689  1.0317 -0.5192 -0.2081
 3695SOL    HW223145   9.151   6.980   3.776 -0.2768 -0.1789 -0.5400
 3696SOL     OW23146   5.833   2.354   0.193 -0.3632  0.0363  0.2696
 3696SOL    HW123147   5.792   2.276   0.240  0.5812 -2.1247 -2.3912
 3696SOL    HW223148   5.924   2.372   0.230 -0.3982 -0.4046  0.5745
 3697SOL     OW23149   0.114   7.115   3.241  0.0414 -0.8377 -0.4655
 3697SOL    HW123150   0.210   7.140   3.229  0.3857 -1.0871  1.6024
 3697SOL    HW223151   0.067   7.121   3.153  1.7039  0.3165 -1.3104
 3698SOL     OW23152   1.754   6.172   4.178 -0.5280 -0.2730 -0.3352
 3698SOL    HW123153   1.663   6.208   4.199 -0.8954 -0.8290 -0.9509
 3698SOL    HW223154   1.796   6.227   4.106 -0.2201  0.2186  0.2213
 3699SOL     OW23155   7.773   4.677   0.616 -0.5066 -0.3605 -0.1073
 3699SOL    HW123156   7.737   4.729   0.693  0.6216 -2.2299  1.7562
 3699SOL    HW223157   7.870   4.659   0.631 -0.2657 -0.7330 -1.9964
 3700SOL     OW23158   6.708   0.196   6.223 -0.1613 -0.3924  0.5219
 3700SOL    HW123159   6.755   0.177   6.310 -1.4350 -1.7679  0.9248
 3700SOL    HW223160   6.621   0.148   6.221 -0.0329 -0.5868 -1.6334
 3701SOL     OW23161   9.890   5.697   9.900  0.1506 -0.3978 -0.1148
 3701SOL    HW123162   9.811   5.635   9.903 -0.0155 -0.2338 -0.9708
 3701SOL    HW223163   9.959   5.660   9.838  0.8255 -0.6354  0.7830
 3702SOL     OW23164   9.999   1.045   0.640 -0.0775  0.4230 -0.0831
 3702SOL    HW123165   9.921   1.030   0.580  0.9426 -0.5219 -1.1852
 3702SOL    HW223166  10.059   0.965   0.637  1.1583  1.3255  0.4265
 3703SOL     OW23167   0.394   5.628   3.520  0.3736 -0.4760 -0.3335
 3703SOL    HW123168   0.400   5.628   3.420  0.8194  0.7769 -0.3127
 3703SOL    HW223169   0.460   5.692   3.558 -0.0421 -0.6754  0.7555
 3704SOL     OW23170   0.022   6.566   3.204 -0.3344  0.1766 -0.2324
 3704SOL    HW123171   0.101   6.547   3.146  1.0506  2.5605  0.8420
 3704SOL    HW223172   0.036   6.524   3.293 -0.4648  0.2889 -0.1599
 3705SOL     OW23173   6.405   6.298   0.400  0.2895 -0.1249 -0.2887
 3705SOL    HW123174   6.427   6.238   0.477 -1.0798  1.8817  1.7194
 3705SOL    HW223175   6.490   6.325   0.354  1.0170 -2.4458 -0.3848
 3706SOL     OW23176   2.480   5.932   3.557 -0.0396  0.2231  0.0063
 3706SOL    HW123177   2.501   5.992   3.480 -0.8082 -0.3951 -0.6897
 3706SOL    HW223178   2.428   5.983   3.626 -3.2837 -0.3947 -1.9085
 3707SOL     OW23179   4.440   2.649   7.562 -0.0603 -1.0867 -0.1251
 3707SOL    HW123180   4.423   2.724   7.626  0.1141 -0.8938 -0.3022
 3707SOL    HW223181   4.530   2.662   7.521  0.5929 -2.1734  0.9233
 3708SOL     OW23182   0.546   6.582   8.772 -0.1303 -0.0925  0.3418
 3708SOL    HW123183   0.549   6.658   8.836  1.1759  0.9093 -0.8703
 3708SOL    HW223184   0.455   6.577   8.730 -0.2178  0.8332  0.4132
 3709SOL     OW23185   7.226   4.190   1.474 -0.0425  0.6036  0.1944
 3709SOL    HW123186   7.213   4.218   1.569 -0.4764  0.1942  0.2571
 3709SOL    HW223187   7.158   4.121   1.450  0.8462 -0.2017 -0.0386
 3710SOL     OW23188   2.430   7.416   4.851 -0.0615 -0.4673  0.4454
 3710SOL    HW123189   2.442   7.511   4.879  0.8308  0.6295 -3.2952
 3710SOL    HW223190   2.493   7.396   4.775 -1.4892 -3.5140  0.0086
 3711SOL     OW23191   1.643   5.809   9.814  0.3843  0.1174 -0.1672
 3711SOL    HW123192   1.731   5.791   9.857  0.6481 -0.3018 -0.8836
 3711SOL    HW223193   1.640   5.904   9.784  0.7408  0.0239 -0.4968
 3712SOL     OW23194   6.478   7.810   2.863  0.3641 -0.7836  0.2258
 3712SOL    HW123195   6.527   7.767   2.939 -1.1114  0.3286  1.8475
 3712SOL    HW223196   6.447   7.739   2.799  1.4928 -1.7419  0.7190
 3713SOL     OW23197   8.895   6.836   0.031 -0.1288  0.4491 -0.3806
 3713SOL    HW123198   8.918   6.748  -0.011  1.6322  0.8951 -0.4216
 3713SOL    HW223199   8.946   6.908  -0.016  1.4889  1.0236  2.1728
 3714SOL     OW23200   0.970   4.252   0.400 -0.2675  0.1182  0.2028
 3714SOL    HW123201   0.933   4.239   0.493  0.3539 -1.1715  0.2800
 3714SOL    HW223202   0.984   4.163   0.357 -0.4810  0.7080 -1.1176
 3715SOL     OW23203   3.244   7.799   2.547 -0.0417  0.2864 -0.6094
 3715SOL    HW123204   3.205   7.890   2.536 -0.0370  0.3004 -0.5132
 3715SOL    HW223205   3.224   7.765   2.639  0.6852  0.5368 -0.3576
 3716SOL     OW23206   8.014   6.308   7.360  0.0573  0.5072  0.0592
 3716SOL    HW123207   7.944   6.363   7.405  1.8888  2.1441  0.9713
 3716SOL    HW223208   8.095   6.303   7.418  1.1383 -0.3596 -1.4930
 3717SOL     OW23209   0.624   6.120   5.090  0.3480 -0.1608  0.2185
 3717SOL    HW123210   0.692   6.159   5.152  0.1235  0.7472 -0.0858
 3717SOL    HW223211   0.623   6.021   5.099  2.9177 -0.3375 -0.9893
 3718SOL     OW23212   0.162   2.810   2.932  0.3096 -0.1702 -0.3340
 3718SOL    HW123213   0.082   2.833   2.989 -0.8835  0.2413 -2.1386
 3718SOL    HW223214   0.180   2.712   2.939  0.7635  0.0228  1.4873
 3719SOL     OW23215   1.477   4.929   9.154  0.1544 -0.4498 -0.1708
 3719SOL    HW123216   1.552   4.984   9.118 -0.3704 -0.2382 -0.9370
 3719SOL    HW223217   1.405   4.990   9.188 -0.1526 -0.6654 -0.4431
 3720SOL     OW23218   5.520   5.728   8.678  0.7757 -0.5926  0.0229
 3720SOL    HW123219   5.501   5.752   8.583 -0.3796 -0.5487  0.2669
 3720SOL    HW223220   5.527   5.628   8.686 -1.0861 -0.7264  0.2412
 3721SOL     OW23221   0.532   6.765   8.970 -0.1268  0.4703 -0.4122
 3721SOL    HW123222   0.437   6.741   8.992  0.3873  0.0845  1.4633
 3721SOL    HW223223   0.552   6.856   9.006  0.5403  0.1028  0.1347
 3722SOL     OW23224   7.147   0.247   0.046 -0.6297  0.3499 -0.2242
 3722SOL    HW123225   7.102   0.302   0.115 -0.1590 -0.6342  0.8782
 3722SOL    HW223226   7.085   0.175   0.014 -0.4890  0.1649 -0.0796
 3723SOL     OW23227   6.367   9.492   8.601  0.0139 -0.0116  0.1419
 3723SOL    HW123228   6.462   9.460   8.602  0.0559  0.1119  2.2369
 3723SOL    HW223229   6.362   9.584   8.639 -0.9637 -0.0363  0.0849
 3724SOL     OW23230   9.607   4.129   9.189 -0.2878  0.0429  0.0506
 3724SOL    HW123231   9.550   4.132   9.271 -1.2177  0.3381 -0.5937
 3724SOL    HW223232   9.554   4.160   9.110  0.2955 -1.1292 -0.8381
 3725SOL     OW23233   1.981   9.206   5.945  0.1905  0.1884 -0.2907
 3725SOL    HW123234   2.015   9.299   5.932  0.4194  0.0268 -0.8428
 3725SOL    HW223235   1.912   9.186   5.876 -0.0004  0.0177 -0.0480
 3726SOL     OW23236   5.341   3.632   5.587 -0.3093 -0.5631  0.2892
 3726SOL    HW123237   5.424   3.662   5.539  0.6059 -2.7759  0.4222
 3726SOL    HW223238   5.274   3.599   5.520 -1.2303  1.5000  0.1582
 3727SOL     OW23239   1.007   9.626   0.282  0.0618  0.1214 -0.6843
 3727SOL    HW123240   0.997   9.680   0.198  0.3657  1.1369 -0.0705
 3727SOL    HW223241   0.967   9.535   0.268 -1.2836  0.8213 -1.4080
 3728SOL     OW23242   8.527   6.570   2.397  0.1576 -0.2808 -0.4517
 3728SOL    HW123243   8.458   6.532   2.458 -1.7111  0.9969 -1.7135
 3728SOL    HW223244   8.617   6.564   2.441 -0.7587 -1.7385  1.3186
 3729SOL     OW23245   1.323   8.605   1.192 -0.2283  0.4610 -0.2940
 3729SOL    HW123246   1.332   8.703   1.173 -2.1450  0.5880 -0.6886
 3729SOL    HW223247   1.254   8.566   1.131  1.0097 -1.2886 -0.5963
 3730SOL     OW23248   9.143   3.491   9.417 -0.0001 -0.2024  0.2068
 3730SOL    HW123249   9.161   3.394   9.401 -1.1017 -0.5554  1.0616
 3730SOL    HW223250   9.162   3.542   9.333 -1.0263 -1.3795 -0.7758
 3731SOL     OW23251   0.948   3.969   7.838 -0.2183 -0.2867 -0.1618
 3731SOL    HW123252   0.959   4.002   7.744 -2.0103  2.0315  0.3928
 3731SOL    HW223253   0.867   3.911   7.844 -1.2452  1.1657  0.3159
 3732SOL     OW23254   1.939   7.284   1.270  0.0485  0.1534 -0.1020
 3732SOL    HW123255   1.840   7.299   1.265 -0.2240 -1.4178  0.3019
 3732SOL    HW223256   1.981   7.357   1.325 -0.9303  0.5768  0.0968
 3733SOL     OW23257   2.337   5.268   0.636  0.3746  0.0135  0.4859
 3733SOL    HW123258   2.323   5.235   0.729  1.7254 -0.5443  0.4969
 3733SOL    HW223259   2.409   5.337   0.635 -0.3370  0.7690 -0.0020
 3734SOL     OW23260   2.034   4.836   4.686  0.2909  0.1973  0.0521
 3734SOL    HW123261   2.029   4.930   4.722  1.7086  0.1954  0.2908
 3734SOL    HW223262   2.060   4.774   4.759 -0.6282 -0.3928 -0.1137
 3735SOL     OW23263   2.446   6.233   9.164  0.2739 -0.8649  0.2836
 3735SOL    HW123264   2.350   6.260   9.168  0.6603  0.4700  0.9547
 3735SOL    HW223265   2.468   6.200   9.072 -0.2576  1.0248 -0.5394
 3736SOL     OW23266   6.164   5.044   5.099  0.0668 -0.2134 -0.2221
 3736SOL    HW123267   6.202   4.975   5.160  0.6929 -0.6170 -1.0602
 3736SOL    HW223268   6.084   5.007   5.052 -1.2976  0.5744  1.4045
 3737SOL     OW23269   4.035   7.083   1.952  0.8562  0.1304 -0.2700
 3737SOL    HW123270   4.057   6.986   1.938  0.7122  0.1551 -0.6942
 3737SOL    HW223271   4.006   7.097   2.047 -1.3733 -0.7038 -0.7734
 3738SOL     OW23272   8.933   7.061   3.348 -0.8376 -0.3638  0.0770
 3738SOL    HW123273   9.027   7.032   3.331 -0.7377 -0.7889  1.3156
 3738SOL    HW223274   8.925   7.159   3.333  0.2771  0.0257  1.8741
 3739SOL     OW23275   2.101   1.442   3.636 -0.0165  0.4114 -0.0829
 3739SOL    HW123276   2.020   1.491   3.669 -0.7889 -0.0527 -1.2687
 3739SOL    HW223277   2.183   1.487   3.670 -0.7348  1.8503 -0.2313
 3740SOL     OW23278   0.971   5.142   9.264  0.3204  0.1512 -0.2486
 3740SOL    HW123279   0.972   5.068   9.331  2.3051 -0.5591 -1.0137
 3740SOL    HW223280   1.028   5.217   9.298  1.6458 -0.3699 -1.2760
 3741SOL     OW23281   1.424   9.024   4.222 -0.0263 -0.1622  0.4224
 3741SOL    HW123282   1.514   9.012   4.263  0.4770 -0.2294 -0.6707
 3741SOL    HW223283   1.414   9.120   4.193 -1.5914  0.6500  3.4826
 3742SOL     OW23284   0.753   9.091   3.926  0.3262  0.0202 -0.0460
 3742SOL    HW123285   0.682   9.089   3.997  1.1238 -1.1330  0.7483
 3742SOL    HW223286   0.780   9.185   3.908 -1.4324  0.4825 -0.3963
 3743SOL     OW23287   3.569   0.482   0.375  0.0866 -0.8266 -0.1156
 3743SOL    HW123288   3.573   0.419   0.453  2.4849 -1.1249 -0.4375
 3743SOL    HW223289   3.660   0.520   0.358 -0.8610  0.9564 -1.3942
 3744SOL     OW23290   6.272   3.826   3.159 -0.5939  0.4013  0.1982
 3744SOL    HW123291   6.191   3.859   3.207  0.2306  2.2543  0.3475
 3744SOL    HW223292   6.272   3.860   3.065  0.4378  1.1446  0.4528
 3745SOL     OW23293   4.309   6.744   9.168 -0.4958  0.0143  0.1933
 3745SOL    HW123294   4.240   6.732   9.097 -1.0792  0.9438  0.5809
 3745SOL    HW223295   4.278   6.701   9.253 -0.6154  0.4419  0.3700
 3746SOL     OW23296   1.585   3.697   3.203  0.2653 -0.9356  0.1161
 3746SOL    HW123297   1.555   3.771   3.143 -1.1138 -0.6019  1.1798
 3746SOL    HW223298   1.642   3.734   3.276  0.5419 -1.0954 -0.0179
 3747SOL     OW23299   1.896   9.526   6.742 -0.1252  0.0776 -0.2048
 3747SOL    HW123300   1.802   9.548   6.715  0.1277  1.2848 -0.1559
 3747SOL    HW223301   1.959   9.583   6.688  0.5692 -0.6141 -0.1256
 3748SOL     OW23302   2.936   3.955   8.348 -0.0738 -0.4049  0.5241
 3748SOL    HW123303   2.882   4.032   8.382 -0.8935 -0.5036 -0.5443
 3748SOL    HW223304   3.029   3.963   8.382  0.5646  2.4920 -1.6817
 3749SOL     OW23305   2.751   8.309   3.906  0.2842  0.1845 -0.5651
 3749SOL    HW123306   2.737   8.302   4.005  0.7884 -0.1320 -0.5129
 3749SOL    HW223307   2.665   8.290   3.859 -0.2346  1.4477 -0.1577
 3750SOL     OW23308   2.449   6.464   2.263 -0.1421 -0.3820  0.3452
 3750SOL    HW123309   2.357   6.491   2.235  0.1141  0.8538  0.6569
 3750SOL    HW223310   2.503   6.439   2.182 -0.8302 -1.3846  0.1909
 3751SOL     OW23311   0.580   8.826   3.021  0.2044  0.1011  0.5583
 3751SOL    HW123312   0.609   8.921   3.017 -1.6216  0.6137 -1.3796
 3751SOL    HW223313   0.536   8.808   3.109 -0.8004  1.4429  0.3366
 3752SOL     OW23314   2.295   0.649   1.831  0.4843  0.2956  0.1973
 3752SOL    HW123315   2.239   0.663   1.913 -1.7845 -0.3455 -1.1732
 3752SOL    HW223316   2.265   0.713   1.760  2.1881  0.5991 -0.2626
 3753SOL     OW23317   0.396   4.996   4.126 -0.0529  0.4137  0.1371
 3753SOL    HW123318   0.350   5.010   4.039 -0.1667 -1.6040 -0.1488
 3753SOL    HW223319   0.330   4.966   4.195  0.3528  0.1785  0.4270
 3754SOL     OW23320   2.425   7.664   4.217 -0.3414 -0.0396 -0.3377
 3754SOL    HW123321   2.340   7.614   4.204 -0.9084  0.4780  1.2582
 3754SOL    HW223322   2.502   7.600   4.211 -0.7864 -0.4214 -2.2950
 3755SOL     OW23323   9.261   6.789   8.136  0.1728 -0.0874 -0.4322
 3755SOL    HW123324   9.204   6.791   8.218 -0.6442  0.0644 -0.9913
 3755SOL    HW223325   9.240   6.869   8.079  0.2343 -0.5511 -1.1147
 3756SOL     OW23326   9.687   2.156   6.097 -0.4174  0.4090 -0.2213
 3756SOL    HW123327   9.600   2.131   6.139 -0.3166  0.4030 -0.0164
 3756SOL    HW223328   9.672   2.226   6.028 -0.9835 -1.5986 -2.1938
 3757SOL     OW23329   9.900   5.571   3.196 -0.5149 -0.4440 -0.8365
 3757SOL    HW123330   9.930   5.651   3.144 -0.4087 -1.5762 -2.5696
 3757SOL    HW223331   9.874   5.598   3.288  3.3574  0.9838 -0.0884
 3758SOL     OW23332   2.903   6.563   5.311  0.2058  0.8061 -0.5752
 3758SOL    HW123333   2.814   6.535   5.348  3.0011 -4.9121  2.5949
 3758SOL    HW223334   2.962   6.591   5.387  3.2322 -2.3478 -1.6300
 3759SOL     OW23335   2.222   5.350   1.226 -0.0431 -0.0723 -0.0591
 3759SOL    HW123336   2.137   5.402   1.215  0.5640  1.3913  1.9927
 3759SOL    HW223337   2.209   5.279   1.295  0.3842  0.0688  0.1651
 3760SOL     OW23338   8.249   5.775   6.942 -0.7000  0.2297 -0.1271
 3760SOL    HW123339   8.159   5.733   6.933 -0.6631  0.1551 -0.1473
 3760SOL    HW223340   8.242   5.856   7.001 -0.9618  0.8004 -0.9342
 3761SOL     OW23341   4.047   9.470   3.429  0.4519  0.1227  0.0772
 3761SOL    HW123342   4.073   9.423   3.513  3.1070 -1.7517 -1.7194
 3761SOL    HW223343   4.114   9.541   3.408  0.5483 -0.3266 -1.1738
 3762SOL     OW23344   5.787   5.845   1.747 -0.0523  0.0939  0.6053
 3762SOL    HW123345   5.769   5.786   1.825 -2.5887 -0.2302 -0.1836
 3762SOL    HW223346   5.787   5.791   1.663 -0.1953  0.8501  0.1109
 3763SOL     OW23347   2.694   2.086   5.675 -0.4321  0.3134 -1.1001
 3763SOL    HW123348   2.624   2.101   5.745 -0.6277  0.7001 -1.3779
 3763SOL    HW223349   2.655   2.104   5.584 -0.2201 -0.3289 -1.3206
 3764SOL     OW23350   5.543   3.707   5.410  0.0670  0.5665  0.4627
 3764SOL    HW123351   5.539   3.790   5.354  0.9798  1.3053  1.4758
 3764SOL    HW223352   5.631   3.661   5.396  0.5576  1.0882  1.7344
 3765SOL     OW23353   2.328   3.283   2.582 -0.0100  0.0544  0.1183
 3765SOL    HW123354   2.398   3.231   2.631 -0.4362 -0.5842  0.0494
 3765SOL    HW223355   2.252   3.223   2.558  0.6136  0.1377 -2.1876
 3766SOL     OW23356   9.382   4.557   1.714 -0.2583  0.2540 -0.0321
 3766SOL    HW123357   9.407   4.563   1.811 -0.4326  0.0262  0.0267
 3766SOL    HW223358   9.431   4.628   1.663  0.9834 -0.5587 -0.0084
 3767SOL     OW23359   1.832   4.324   9.610 -0.0097 -0.1761 -0.4157
 3767SOL    HW123360   1.765   4.299   9.680  0.7114  0.2266  0.4375
 3767SOL    HW223361   1.791   4.316   9.519 -1.3298  0.4920  0.1148
 3768SOL     OW23362   1.405   4.205   1.501 -0.1940 -0.0160  0.0848
 3768SOL    HW123363   1.368   4.146   1.429 -2.7487  0.0635  1.2672
 3768SOL    HW223364   1.403   4.155   1.588 -0.0423  0.9637  0.6522
 3769SOL     OW23365   0.655   5.514   1.906 -0.1256  0.5047 -0.7205
 3769SOL    HW123366   0.618   5.595   1.951  0.0180  0.9025 -1.3098
 3769SOL    HW223367   0.702   5.541   1.822 -1.4451 -0.3285 -1.7663
 3770SOL     OW23368   9.782   3.875   2.821 -0.0497  0.3198 -0.4381
 3770SOL    HW123369   9.686   3.875   2.849 -0.0448  1.3413 -0.4081
 3770SOL    HW223370   9.839   3.910   2.895  0.1999  0.9893 -0.9429
 3771SOL     OW23371   8.919   6.557   3.983  0.0414 -0.2077 -0.5729
 3771SOL    HW123372   8.890   6.628   4.048  1.1348 -0.6557  0.4225
 3771SOL    HW223373   8.875   6.470   4.007  1.9615 -0.8335  0.7983
 3772SOL     OW23374   2.515   7.748   3.604 -0.0502  0.0589 -0.4978
 3772SOL    HW123375   2.422   7.774   3.579  0.7871  3.0174 -0.6730
 3772SOL    HW223376   2.512   7.674   3.671 -2.5270  0.8619  0.3189
 3773SOL     OW23377   5.376   5.135   9.327  0.6275 -0.0299 -0.3676
 3773SOL    HW123378   5.374   5.094   9.418  0.0431 -0.3759 -0.5377
 3773SOL    HW223379   5.284   5.136   9.288  1.1713 -1.7036 -1.7558
 3774SOL     OW23380   5.299   1.162   9.960  0.2762  0.1379 -0.3086
 3774SOL    HW123381   5.376   1.154   9.896 -0.0908  0.9931 -0.8746
 3774SOL    HW223382   5.327   1.214  10.040  0.2324  0.6523 -0.6227
 3775SOL     OW23383   7.871   9.034   9.667 -0.1455  0.3752  0.2594
 3775SOL    HW123384   7.827   8.946   9.685 -3.0998  1.0824 -2.9296
 3775SOL    HW223385   7.912   9.033   9.576  0.2502  2.1097  0.3954
 3776SOL     OW23386   8.005   6.708   7.470  0.0111 -0.7612 -0.4418
 3776SOL    HW123387   7.983   6.729   7.375  4.0683 -0.9780 -1.5165
 3776SOL    HW223388   8.071   6.775   7.504  0.6616 -2.2806  1.3470
 3777SOL     OW23389   7.491   1.868   4.219  0.1636  0.6023  0.0231
 3777SOL    HW123390   7.439   1.920   4.151 -0.5997  1.9486  1.6069
 3777SOL    HW223391   7.486   1.914   4.307  0.2726 -1.6654  1.2445
 3778SOL     OW23392   1.421   9.472   4.352  0.1891  0.5169  0.1506
 3778SOL    HW123393   1.376   9.444   4.436 -0.9019 -3.1710 -1.5656
 3778SOL    HW223394   1.353   9.487   4.280  1.2847  0.7190 -0.8759
 3779SOL     OW23395   1.602   6.482   2.198 -0.8159  0.2043 -0.3509
 3779SOL    HW123396   1.665   6.415   2.158  0.3400  0.5262  0.8945
 3779SOL    HW223397   1.573   6.546   2.127  2.1001  1.4641 -0.4812
 3780SOL     OW23398   0.681   7.396   7.810 -0.1904 -0.0072  0.5526
 3780SOL    HW123399   0.602   7.456   7.825 -0.0768  0.1005  0.7186
 3780SOL    HW223400   0.760   7.432   7.860 -0.0322 -0.1065  0.3735
 3781SOL     OW23401   4.712   4.876   9.467  0.0047  0.7788 -0.3270
 3781SOL    HW123402   4.699   4.777   9.474  1.0132  0.8212  2.5452
 3781SOL    HW223403   4.783   4.895   9.399  0.5968 -0.5130 -0.0830
 3782SOL     OW23404   0.811   9.675   4.658  0.1331 -0.0929 -0.5040
 3782SOL    HW123405   0.892   9.641   4.608  1.2610  1.2603  0.3719
 3782SOL    HW223406   0.746   9.713   4.592  0.6897 -0.2190 -1.1427
 3783SOL     OW23407   3.535   9.852   0.135  0.2824 -0.0729 -0.0402
 3783SOL    HW123408   3.583   9.898   0.210 -0.3071  0.1264  0.2226
 3783SOL    HW223409   3.492   9.920   0.076  1.3270 -0.2006 -0.9674
 3784SOL     OW23410   7.709   1.080   3.991 -0.1605  0.4106 -0.1688
 3784SOL    HW123411   7.774   1.102   4.063  0.7194 -0.5170 -0.6638
 3784SOL    HW223412   7.662   0.994   4.014 -0.4241  0.5065 -0.3428
 3785SOL     OW23413   6.144   2.920   9.447  0.1615  0.4026 -0.5156
 3785SOL    HW123414   6.181   2.838   9.404 -2.1528 -1.2264  0.4931
 3785SOL    HW223415   6.117   2.985   9.377  1.4461  0.0682 -1.3422
 3786SOL     OW23416   1.417   4.364   0.292  0.2847 -0.5366 -0.2457
 3786SOL    HW123417   1.480   4.393   0.364 -0.8974  1.1851  0.1405
 3786SOL    HW223418   1.462   4.373   0.203  1.4531 -1.8397  0.1911
 3787SOL     OW23419   8.557   4.815   7.299  0.2250  0.0132 -0.4163
 3787SOL    HW123420   8.637   4.800   7.358 -0.2706 -0.8771  0.0466
 3787SOL    HW223421   8.487   4.864   7.351  0.0865 -0.0859 -0.5092
 3788SOL     OW23422   8.411   9.531   5.969  0.1615  0.6857 -0.2592
 3788SOL    HW123423   8.427   9.630   5.970  2.0520  0.3944 -0.1280
 3788SOL    HW223424   8.487   9.486   5.922  0.1994 -0.8543  1.2429
 3789SOL     OW23425   9.212   7.466   6.152 -0.3125  0.4175  0.5543
 3789SOL    HW123426   9.283   7.473   6.222 -0.1139  1.2551  0.2810
 3789SOL    HW223427   9.240   7.399   6.083  1.6018  2.7839 -1.0916
 3790SOL     OW23428   0.947   3.200   3.053  0.3479 -0.2639  0.2813
 3790SOL    HW123429   0.894   3.239   2.977 -1.9941 -0.9800  1.4711
 3790SOL    HW223430   1.031   3.252   3.066  0.4630  0.2460 -2.3856
 3791SOL     OW23431   2.152   4.957   8.476 -0.3012  0.1627  0.5502
 3791SOL    HW123432   2.068   5.010   8.490  1.2720  2.6788  0.8487
 3791SOL    HW223433   2.200   4.992   8.396  0.2527 -1.5451  0.1244
 3792SOL     OW23434   1.360   6.324   4.678  0.3377  0.0838  0.7839
 3792SOL    HW123435   1.278   6.307   4.734  0.4635 -1.2023  0.5857
 3792SOL    HW223436   1.334   6.333   4.582  0.4355 -0.3896  0.7125
 3793SOL     OW23437   3.051   7.949   3.396  0.1075 -0.0898  0.0615
 3793SOL    HW123438   3.038   7.957   3.297  0.2845 -0.8228 -0.0276
 3793SOL    HW223439   3.128   8.005   3.424  0.1091  0.0539 -0.2284
 3794SOL     OW23440   0.110   6.934   6.419  0.3903  0.5309  0.3054
 3794SOL    HW123441   0.022   6.941   6.371  0.1883  0.3053  0.6368
 3794SOL    HW223442   0.136   7.024   6.454  1.1687  0.9574 -1.3147
 3795SOL     OW23443   1.944   8.602   7.806 -0.1995 -0.5123 -0.3007
 3795SOL    HW123444   1.910   8.540   7.878  1.5810 -0.3056  0.7497
 3795SOL    HW223445   2.039   8.626   7.825 -0.4973  1.6104 -1.3535
 3796SOL     OW23446   1.050   5.872   9.290 -0.0775  0.3362 -0.4405
 3796SOL    HW123447   1.042   5.850   9.193  0.4809  0.4224 -0.5085
 3796SOL    HW223448   0.970   5.924   9.319  0.4958  1.7020 -1.2398
 3797SOL     OW23449   3.328   9.536   6.791 -0.2686 -0.3337 -0.4192
 3797SOL    HW123450   3.275   9.454   6.770  1.3398 -0.7135 -3.3096
 3797SOL    HW223451   3.266   9.614   6.801 -1.6745 -1.5494  0.5067
 3798SOL     OW23452   0.744   3.238   3.632  0.3849 -0.1925 -0.6497
 3798SOL    HW123453   0.746   3.145   3.596  1.6626 -0.7024  0.6526
 3798SOL    HW223454   0.674   3.245   3.703  1.5495 -0.7097  0.5838
 3799SOL     OW23455   1.251   4.079   0.970 -0.0082  0.4841  0.2031
 3799SOL    HW123456   1.324   4.013   0.988 -0.0988 -0.3460 -2.2064
 3799SOL    HW223457   1.287   4.172   0.984  0.6177  0.0073  1.9427
 3800SOL     OW23458   2.921   2.769   6.919 -0.4167  0.3811 -0.2567
 3800SOL    HW123459   2.904   2.718   7.003  0.4157  2.5800  1.2809
 3800SOL    HW223460   2.854   2.844   6.911 -0.8175 -0.1189 -1.8344
 3801SOL     OW23461   3.083   1.153   0.984  0.0719  0.2483 -0.6785
 3801SOL    HW123462   3.006   1.144   1.048 -0.9863  0.9715 -1.8160
 3801SOL    HW223463   3.149   1.080   1.001  0.1069  0.7742  1.6245
 3802SOL     OW23464   1.309   2.668   0.698 -0.2840 -0.1268  0.1532
 3802SOL    HW123465   1.345   2.732   0.766 -0.0272  0.4441 -0.5048
 3802SOL    HW223466   1.239   2.610   0.739  0.0275  0.0667  0.9530
 3803SOL     OW23467   2.341   2.535   2.722  0.1213 -0.4635  0.2744
 3803SOL    HW123468   2.374   2.453   2.768 -0.6605 -0.6897  0.4483
 3803SOL    HW223469   2.316   2.604   2.791  0.7490 -0.0941  0.1296
 3804SOL     OW23470   0.552   4.526   4.399 -0.1854 -0.0925 -0.0435
 3804SOL    HW123471   0.593   4.618   4.401  0.3787 -0.3573  1.6924
 3804SOL    HW223472   0.619   4.461   4.363  0.2929 -0.2072  1.0141
 3805SOL     OW23473   1.134   1.152   0.008 -0.2345  0.1373  0.3095
 3805SOL    HW123474   1.188   1.204  -0.058 -0.2970  1.3406  1.1879
 3805SOL    HW223475   1.174   1.163   0.100  0.1077 -1.8567  0.4355
 3806SOL     OW23476   5.498   5.725   4.664 -0.1776 -0.1342 -0.0655
 3806SOL    HW123477   5.506   5.816   4.622  0.4719  0.0553  0.4612
 3806SOL    HW223478   5.461   5.734   4.756  0.4365 -0.3468  0.2056
 3807SOL     OW23479   8.284   0.145   5.369 -0.2705 -0.2501  0.0598
 3807SOL    HW123480   8.338   0.189   5.440 -0.2006 -1.1143  0.5483
 3807SOL    HW223481   8.209   0.094   5.411  0.1267 -1.2650 -0.4533
 3808SOL     OW23482   0.358   6.398   6.033 -0.1943  0.3881 -0.2268
 3808SOL    HW123483   0.456   6.379   6.028 -0.1650  0.5416 -0.2298
 3808SOL    HW223484   0.307   6.316   6.006 -0.0698  0.2248  0.0261
 3809SOL     OW23485   9.075   6.383   2.261 -0.5206  0.5865 -0.0816
 3809SOL    HW123486   9.012   6.402   2.337  0.7334  1.4398  0.7560
 3809SOL    HW223487   9.147   6.321   2.292 -0.3539  0.4509 -0.7485
 3810SOL     OW23488   6.134   8.539   0.468 -0.2371  0.4054 -0.5215
 3810SOL    HW123489   6.098   8.520   0.559 -0.7561  2.2249 -0.3269
 3810SOL    HW223490   6.232   8.558   0.474  0.1953 -1.6802 -0.6616
 3811SOL     OW23491   0.595   2.904   3.865  0.3686 -0.7903  0.0135
 3811SOL    HW123492   0.577   2.806   3.878  1.5149 -1.0217 -0.0781
 3811SOL    HW223493   0.694   2.919   3.857  0.0591  0.0279 -2.8331
 3812SOL     OW23494   9.740   2.877   2.606 -0.3033 -0.3325 -0.3040
 3812SOL    HW123495   9.779   2.899   2.695 -1.5679 -1.0494  0.4374
 3812SOL    HW223496   9.704   2.784   2.607 -1.4377  0.0818 -1.1688
 3813SOL     OW23497   6.702   6.042   4.663  0.1622  0.2936 -0.4294
 3813SOL    HW123498   6.789   5.996   4.645  0.4459  0.9140 -0.6566
 3813SOL    HW223499   6.712   6.101   4.743 -0.3846 -0.5237  0.2595
 3814SOL     OW23500   2.937   5.286   3.489  0.3630  0.1975 -0.0043
 3814SOL    HW123501   2.973   5.344   3.417 -0.0418  1.1659  0.5673
 3814SOL    HW223502   2.841   5.306   3.504  0.5095  0.2012  0.9845
 3815SOL     OW23503   5.395   1.211   2.383  0.0409  0.7049 -0.1039
 3815SOL    HW123504   5.429   1.160   2.462  1.2491  1.4004 -0.1462
 3815SOL    HW223505   5.307   1.252   2.404  0.2803  0.7460  0.8349
 3816SOL     OW23506   0.209   4.300   5.704  0.1488 -0.9844 -0.4246
 3816SOL    HW123507   0.243   4.244   5.628  0.1269 -1.2694 -0.2241
 3816SOL    HW223508   0.199   4.243   5.785  0.4047 -0.6269 -0.1414
 3817SOL     OW23509   2.011   3.729   1.086  0.0297 -0.0593 -0.1764
 3817SOL    HW123510   1.918   3.705   1.116 -0.4697  0.8619 -0.9418
 3817SOL    HW223511   2.042   3.663   1.018  0.5578 -1.2648  1.2209
 3818SOL     OW23512   0.603   7.102   4.054  0.2466 -0.1487 -0.6051
 3818SOL    HW123513   0.513   7.068   4.027  0.3680 -1.1569  0.2308
 3818SOL    HW223514   0.597   7.144   4.144  0.7116 -0.6992 -0.3132
 3819SOL     OW23515   9.342   1.557   3.111 -0.6463 -0.6447 -0.0030
 3819SOL    HW123516   9.371   1.637   3.164 -1.8011 -0.7090  0.7414
 3819SOL    HW223517   9.302   1.489   3.172 -1.7952 -0.8157 -0.9238
 3820SOL     OW23518   3.134   2.215   6.358  0.3940 -0.9585 -0.4215
 3820SOL    HW123519   3.075   2.143   6.395 -0.2024 -1.5068 -2.3805
 3820SOL    HW223520   3.227   2.180   6.350  0.2650 -1.2640 -0.6197
 3821SOL     OW23521   1.612   8.377   9.498 -0.4629  0.5973  0.2231
 3821SOL    HW123522   1.636   8.435   9.420  1.2117 -0.1817  0.1535
 3821SOL    HW223523   1.695   8.351   9.548 -1.4571  0.6062  1.9333
 3822SOL     OW23524   8.909   5.291   5.001  0.6561  0.3883  0.1998
 3822SOL    HW123525   8.885   5.292   4.904 -3.1834 -0.1600  1.0802
 3822SOL    HW223526   8.905   5.384   5.038  1.7317  0.5417 -0.0399
 3823SOL     OW23527   4.112   6.550   5.382 -0.4575 -0.3051  0.3832
 3823SOL    HW123528   4.154   6.544   5.472 -1.8330  0.2932  1.0774
 3823SOL    HW223529   4.022   6.595   5.390  0.9648  3.1136 -1.7676
 3824SOL     OW23530   8.792   6.164   3.245 -0.0275  0.1532  0.0369
 3824SOL    HW123531   8.751   6.255   3.238  2.1403  1.1392 -0.2640
 3824SOL    HW223532   8.784   6.117   3.158  0.5746  0.8395 -0.3967
 3825SOL     OW23533   0.756   3.765   1.298  0.1322  0.2196 -0.4405
 3825SOL    HW123534   0.657   3.757   1.310  0.2895  2.0245  2.5620
 3825SOL    HW223535   0.776   3.842   1.237 -0.3043 -0.2282 -1.1550
 3826SOL     OW23536   2.919   8.694   2.587  0.3902  0.4128 -0.2452
 3826SOL    HW123537   2.847   8.628   2.606 -0.5643  1.0899 -1.4256
 3826SOL    HW223538   2.917   8.718   2.490  2.5293  0.0649 -0.3952
 3827SOL     OW23539   5.933   6.464   0.798  0.2663  0.2136  0.2056
 3827SOL    HW123540   5.979   6.403   0.862 -0.8588  0.3518  1.1708
 3827SOL    HW223541   5.974   6.555   0.802  2.0885 -0.5056 -1.3911
 3828SOL     OW23542   8.309   6.740   2.787 -0.1433  0.0795  0.1867
 3828SOL    HW123543   8.372   6.799   2.737 -0.1237  0.6878  0.9104
 3828SOL    HW223544   8.216   6.778   2.782 -0.8490 -1.9209 -2.6205
 3829SOL     OW23545   9.350   3.300   1.991 -0.1693 -0.1871 -0.0519
 3829SOL    HW123546   9.328   3.387   1.946 -1.0409 -0.0519  0.6347
 3829SOL    HW223547   9.433   3.312   2.046  0.2550 -0.0472 -0.7204
 3830SOL     OW23548   9.977   7.015   5.110  0.1771 -0.0072  0.3882
 3830SOL    HW123549   9.992   6.934   5.053 -2.7667 -1.1902  1.2327
 3830SOL    HW223550   9.950   7.092   5.053 -1.6233 -0.8806  0.0371
 3831SOL     OW23551   0.759   0.313   4.658  0.4857  0.0792  0.3678
 3831SOL    HW123552   0.764   0.283   4.563 -0.4834 -0.0720  0.3587
 3831SOL    HW223553   0.802   0.402   4.667 -1.3687  1.1117 -0.6597
 3832SOL     OW23554   6.039   4.187   2.034 -0.0975  0.1593 -0.3810
 3832SOL    HW123555   6.020   4.212   2.129  1.6661  1.3896 -0.3300
 3832SOL    HW223556   5.983   4.108   2.008 -2.2913  1.2266  0.9572
 3833SOL     OW23557   7.763   5.819   2.733  0.2948 -0.4553 -0.0759
 3833SOL    HW123558   7.755   5.914   2.703 -1.4390 -0.7154 -0.4768
 3833SOL    HW223559   7.824   5.770   2.671  0.9523  0.3149 -0.0462
 3834SOL     OW23560   4.250   5.971   3.227  0.1498  0.2933 -0.0829
 3834SOL    HW123561   4.179   5.935   3.166  1.4814 -2.4224 -0.0535
 3834SOL    HW223562   4.273   6.065   3.198 -2.6055  0.8030 -0.7866
 3835SOL     OW23563   8.800   3.490   5.805  0.0737 -0.5600  0.0942
 3835SOL    HW123564   8.824   3.571   5.752  1.2524 -0.4832  0.7289
 3835SOL    HW223565   8.784   3.516   5.900 -0.1396 -0.9842  0.1742
 3836SOL     OW23566   1.224   5.856   7.413 -0.1155 -0.1149  0.1838
 3836SOL    HW123567   1.149   5.864   7.479 -0.3004  0.8537 -0.1390
 3836SOL    HW223568   1.306   5.898   7.451  0.0210 -0.3544  0.1571
 3837SOL     OW23569   1.627   2.020   4.206  0.2794  0.6329 -0.1846
 3837SOL    HW123570   1.549   2.078   4.229  0.3575  0.3478  0.8724
 3837SOL    HW223571   1.707   2.049   4.260  0.0745 -1.0090  1.0573
 3838SOL     OW23572   4.255   9.715   0.037 -0.0760 -1.2493 -0.1388
 3838SOL    HW123573   4.349   9.705   0.067 -0.6225 -2.9460  1.0595
 3838SOL    HW223574   4.204   9.768   0.105 -1.0359 -4.1250  1.4745
 3839SOL     OW23575   8.168   7.471   4.829 -0.9738 -0.5225 -0.1587
 3839SOL    HW123576   8.256   7.459   4.782 -1.4915  2.1183 -1.9334
 3839SOL    HW223577   8.094   7.436   4.771 -1.4165  0.7072 -0.3605
 3840SOL     OW23578   1.051   5.159   7.240  0.6941 -0.0680 -0.1617
 3840SOL    HW123579   1.037   5.135   7.144 -1.3929  1.0040 -0.1458
 3840SOL    HW223580   1.034   5.257   7.252  0.5177 -0.2846  1.3870
 3841SOL     OW23581   4.736   6.940   5.033  0.2962  0.1906  0.1660
 3841SOL    HW123582   4.805   6.976   5.096  0.1731  0.6415  0.0388
 3841SOL    HW223583   4.653   6.918   5.084  0.4885 -0.2456  0.2995
 3842SOL     OW23584   0.934   1.797   0.240  0.4831  0.3918 -0.0058
 3842SOL    HW123585   0.835   1.781   0.241  0.3983  0.9002  0.8535
 3842SOL    HW223586   0.953   1.888   0.277  1.3399 -0.1916  1.0301
 3843SOL     OW23587   1.672   4.365   2.517  0.2068  0.0596 -0.6952
 3843SOL    HW123588   1.694   4.416   2.433 -1.4714  0.6767 -0.7880
 3843SOL    HW223589   1.585   4.318   2.505  0.4294 -0.6310  0.3740
 3844SOL     OW23590   1.088   1.609   0.077  0.1250 -0.2509 -0.6723
 3844SOL    HW123591   1.049   1.519   0.098  1.0063 -0.3563  0.5380
 3844SOL    HW223592   1.035   1.680   0.122  1.3445 -0.3993  1.0331
 3845SOL     OW23593   8.776   5.318   3.674 -0.1552 -0.7978 -0.6916
 3845SOL    HW123594   8.679   5.335   3.691  0.5493  0.0467  3.0482
 3845SOL    HW223595   8.819   5.401   3.639 -0.3440 -0.4251 -0.0569
 3846SOL     OW23596   6.969   9.703   7.400  0.0099  0.0480  0.5150
 3846SOL    HW123597   6.959   9.680   7.497 -0.4666 -0.4089  0.3552
 3846SOL    HW223598   7.053   9.756   7.388 -0.0073  0.2456  1.2020
 3847SOL     OW23599   9.518   1.345   8.492  0.8044 -0.7566  0.2374
 3847SOL    HW123600   9.513   1.388   8.402  1.3256 -0.1774  0.4783
 3847SOL    HW223601   9.609   1.305   8.505  1.1358  0.1841  0.9503
 3848SOL     OW23602   0.358   0.445   3.200  0.1851 -0.0291 -0.2649
 3848SOL    HW123603   0.264   0.411   3.198 -0.4034  1.5777 -0.8831
 3848SOL    HW223604   0.366   0.514   3.272  0.5277  0.8316 -1.1288
 3849SOL     OW23605   9.622   6.759   0.436 -0.9439 -0.1347  0.2535
 3849SOL    HW123606   9.605   6.854   0.412  0.9210 -0.1620 -1.3065
 3849SOL    HW223607   9.705   6.753   0.491 -0.1161 -1.0064 -1.0654
 3850SOL     OW23608   9.268   6.378   3.312  0.0017 -0.3003  0.0643
 3850SOL    HW123609   9.314   6.459   3.276 -0.4873 -0.9697 -2.0923
 3850SOL    HW223610   9.336   6.310   3.340  0.3821  0.3457  0.7361
 3851SOL     OW23611   1.072   4.257   2.778 -0.4642  0.1425  0.0411
 3851SOL    HW123612   1.008   4.184   2.801 -0.6510  0.5850  0.9486
 3851SOL    HW223613   1.165   4.228   2.801 -0.4935  0.0253  0.0088
 3852SOL     OW23614   8.888   1.033   5.833 -0.0826  0.2134  0.3983
 3852SOL    HW123615   8.968   0.983   5.798 -0.0458  0.5183  0.0430
 3852SOL    HW223616   8.842   1.078   5.757 -0.7662 -0.2039  0.5591
 3853SOL     OW23617   1.566   4.476   5.626  0.5647  0.0176 -0.4120
 3853SOL    HW123618   1.472   4.472   5.592  0.7282  1.1898 -1.0304
 3853SOL    HW223619   1.629   4.444   5.555  0.6416 -0.7678  0.0019
 3854SOL     OW23620   8.478   2.215   5.427 -0.0508  0.0623  0.4134
 3854SOL    HW123621   8.555   2.238   5.367  0.5905 -2.4183  0.2538
 3854SOL    HW223622   8.443   2.125   5.403 -0.8446 -0.2651  2.7196
 3855SOL     OW23623   9.253   6.952   8.596 -0.3015 -0.5418  0.5374
 3855SOL    HW123624   9.196   7.023   8.637 -0.0842 -0.9764  1.6029
 3855SOL    HW223625   9.345   6.956   8.635 -0.0630 -0.9038  0.0254
 3856SOL     OW23626   4.375   8.755   2.541 -0.2169  0.4040 -0.6072
 3856SOL    HW123627   4.413   8.752   2.633 -1.0671 -0.2880 -0.2670
 3856SOL    HW223628   4.449   8.763   2.474  0.4858 -0.4086  0.0652
 3857SOL     OW23629   4.195   7.281   2.862  0.3581 -0.4274  0.0435
 3857SOL    HW123630   4.135   7.325   2.928 -1.2001 -2.7117  0.1922
 3857SOL    HW223631   4.157   7.289   2.771  1.0211  0.1679 -0.1828
 3858SOL     OW23632   8.585   4.195   9.262 -0.3916 -0.1645 -0.2569
 3858SOL    HW123633   8.606   4.157   9.171 -0.4825  0.1237 -0.3995
 3858SOL    HW223634   8.516   4.139   9.307 -0.2928 -0.3505 -0.3357
 3859SOL     OW23635   5.015   4.334   0.342 -0.1706  0.3041  0.0035
 3859SOL    HW123636   5.105   4.305   0.310 -0.1489  0.1226  0.2250
 3859SOL    HW223637   4.970   4.257   0.388  0.4695  1.0136  1.8720
 3860SOL     OW23638   9.305   5.020   7.378  0.5920  0.0006  0.0254
 3860SOL    HW123639   9.294   5.066   7.466  0.4743 -0.4505  0.2442
 3860SOL    HW223640   9.368   5.073   7.321  0.1715  0.6314  0.1382
 3861SOL     OW23641   9.975   9.661   1.548  0.3217  0.0302  0.1184
 3861SOL    HW123642  10.015   9.593   1.487  1.2760 -0.9105  1.7415
 3861SOL    HW223643   9.876   9.664   1.536  0.4820 -0.2355 -1.3529
 3862SOL     OW23644   9.010   4.680   4.414  0.2742  0.3628 -0.0720
 3862SOL    HW123645   8.993   4.779   4.409  0.5893  0.4531  0.5864
 3862SOL    HW223646   8.935   4.636   4.462 -0.0773  0.2246 -0.7501
 3863SOL     OW23647   0.787   7.627   6.651 -0.0896  0.2653 -0.3181
 3863SOL    HW123648   0.693   7.646   6.622  0.2932  0.7220 -1.2621
 3863SOL    HW223649   0.791   7.626   6.751 -0.5778  2.8654 -0.2409
 3864SOL     OW23650   0.517   1.347   0.786  0.1697  0.2705 -0.1941
 3864SOL    HW123651   0.514   1.443   0.813  0.4772  0.0093  0.8048
 3864SOL    HW223652   0.609   1.323   0.756 -0.1098  0.4950 -1.2371
 3865SOL     OW23653   0.782   0.206   4.915 -0.3007  0.1579 -0.0067
 3865SOL    HW123654   0.792   0.233   4.820  0.3801 -0.4754 -0.1152
 3865SOL    HW223655   0.868   0.221   4.964 -0.2032 -0.8678  0.1610
 3866SOL     OW23656   1.256   8.015   0.710 -0.4506 -0.6334 -0.0006
 3866SOL    HW123657   1.298   8.031   0.799  2.9569 -0.9191 -1.4843
 3866SOL    HW223658   1.223   7.921   0.704  1.7488 -1.4270  0.0365
 3867SOL     OW23659   3.575   8.437   2.500 -0.0240  0.4884 -0.2868
 3867SOL    HW123660   3.583   8.467   2.405 -2.3163 -0.8570 -0.9536
 3867SOL    HW223661   3.519   8.501   2.552 -0.6331  0.0751 -0.4229
 3868SOL     OW23662   2.205   7.383   2.073 -0.0861  0.2543  0.6723
 3868SOL    HW123663   2.142   7.444   2.025  0.7441  1.3730  0.9806
 3868SOL    HW223664   2.256   7.329   2.006 -0.8018 -0.0786  0.3943
 3869SOL     OW23665   6.976   6.420   4.746 -0.1233  0.4892  0.1114
 3869SOL    HW123666   6.992   6.322   4.763 -0.2941  0.4536  0.0663
 3869SOL    HW223667   7.048   6.455   4.686 -0.8506  0.0553 -1.0374
 3870SOL     OW23668   0.669   9.930   0.902  0.1022  0.4065  0.0589
 3870SOL    HW123669   0.596   9.887   0.955  0.4753 -0.2120  0.0823
 3870SOL    HW223670   0.691   9.872   0.824 -0.7890  1.5463 -1.0701
 3871SOL     OW23671   9.746   2.508   3.677  0.1461 -0.4931  0.2881
 3871SOL    HW123672   9.837   2.515   3.636 -0.2179  1.5156 -0.2544
 3871SOL    HW223673   9.697   2.431   3.637  1.2225 -0.9416 -0.1860
 3872SOL     OW23674   2.835   7.531   5.326 -0.4436  0.2085 -0.2170
 3872SOL    HW123675   2.791   7.536   5.237 -0.8444 -1.3049 -0.1095
 3872SOL    HW223676   2.934   7.542   5.315 -0.4972  0.0688 -0.8391
 3873SOL     OW23677   3.274   2.890   4.821  0.4158 -0.3373  0.0404
 3873SOL    HW123678   3.228   2.847   4.899 -0.0658 -0.1771 -0.1547
 3873SOL    HW223679   3.363   2.925   4.850  0.0787  0.0521  0.6114
 3874SOL     OW23680   5.708   5.735   9.667  0.5783 -0.6108 -0.3363
 3874SOL    HW123681   5.637   5.667   9.648 -1.2240  1.2041 -0.2763
 3874SOL    HW223682   5.794   5.688   9.686 -0.6466 -2.8790 -0.1411
 3875SOL     OW23683   1.016   6.908   2.646 -0.1781 -0.0793  0.4960
 3875SOL    HW123684   1.083   6.935   2.714 -0.4775  1.4976  0.1882
 3875SOL    HW223685   0.952   6.984   2.630 -0.1444 -0.4457 -1.4857
 3876SOL     OW23686   2.012   9.050   0.944 -0.0826 -0.5214  0.3439
 3876SOL    HW123687   1.937   9.055   0.878  0.7952  0.1013 -0.6307
 3876SOL    HW223688   2.099   9.045   0.895  0.4393 -2.8971  1.4623
 3877SOL     OW23689   2.436   6.629   7.140 -0.3855  0.1112  0.7562
 3877SOL    HW123690   2.450   6.675   7.228 -1.1701  0.1150  0.8803
 3877SOL    HW223691   2.463   6.534   7.147  1.0738  0.5037  0.5534
 3878SOL     OW23692   9.816   0.707   6.345  0.1995 -0.3347 -0.1994
 3878SOL    HW123693   9.763   0.646   6.404  0.4294 -0.3897 -0.0466
 3878SOL    HW223694   9.839   0.790   6.395 -0.1289 -0.1131 -0.4139
 3879SOL     OW23695   9.791   9.710   1.855 -0.5792  0.2672 -0.4292
 3879SOL    HW123696   9.722   9.717   1.927  0.9620  0.1434  1.0743
 3879SOL    HW223697   9.754   9.750   1.770 -2.2395  0.8093  0.5211
 3880SOL     OW23698   0.474   6.296   3.360 -0.0950 -0.0278 -0.7754
 3880SOL    HW123699   0.534   6.222   3.389 -0.4182 -0.0621 -0.1697
 3880SOL    HW223700   0.380   6.263   3.356 -0.1463  0.1669 -1.1786
 3881SOL     OW23701   9.157   5.932   4.691 -1.0753 -0.1493 -0.3524
 3881SOL    HW123702   9.133   5.964   4.599 -1.2643 -0.5791 -0.4532
 3881SOL    HW223703   9.249   5.895   4.691 -0.7658  0.6051 -0.1818
 3882SOL     OW23704   7.520   4.753   9.264 -0.7172  0.6089  1.0182
 3882SOL    HW123705   7.523   4.850   9.286 -0.1028  0.5728  1.1050
 3882SOL    HW223706   7.429   4.729   9.228 -0.2214  1.6393 -0.9694
 3883SOL     OW23707   9.801   3.944   5.720  0.2902  0.6922  0.3326
 3883SOL    HW123708   9.822   4.039   5.745 -3.2524  1.4854  0.5697
 3883SOL    HW223709   9.782   3.891   5.803  0.1569  0.3274  0.0714
 3884SOL     OW23710   4.832   7.248   3.114  0.5506  0.5106 -0.0415
 3884SOL    HW123711   4.791   7.307   3.044  2.7329 -0.0842 -1.8954
 3884SOL    HW223712   4.929   7.270   3.123  1.0878 -1.8742  0.2204
 3885SOL     OW23713   2.773   6.623   2.000 -0.3455 -0.0385 -0.4067
 3885SOL    HW123714   2.717   6.565   2.058 -0.1813 -2.2594 -2.3805
 3885SOL    HW223715   2.715   6.673   1.935 -0.2817  0.0331 -0.4094
 3886SOL     OW23716   2.024   6.993   4.030 -0.1841 -0.0041  0.1795
 3886SOL    HW123717   2.089   7.017   3.958  0.6553 -0.7018  0.6881
 3886SOL    HW223718   1.938   7.040   4.015  0.2842  0.5481 -0.7847
 3887SOL     OW23719   4.611   6.099   2.582  0.1104 -0.0002  0.2554
 3887SOL    HW123720   4.617   6.088   2.681  0.9201  0.9387  0.3151
 3887SOL    HW223721   4.628   6.011   2.538  0.4815 -0.2676  0.9209
 3888SOL     OW23722   8.673   7.476   7.880  0.0694 -0.7233  0.0796
 3888SOL    HW123723   8.736   7.500   7.806 -1.2314  1.6588 -0.3253
 3888SOL    HW223724   8.653   7.378   7.877  1.3199 -0.9494 -1.7075
 3889SOL     OW23725   5.136   9.484   1.957 -0.2852  0.0551  0.2031
 3889SOL    HW123726   5.186   9.424   1.896  0.9216  1.1986  0.0432
 3889SOL    HW223727   5.194   9.509   2.035 -1.2673 -0.1481  1.0141
 3890SOL     OW23728   0.976   2.059   0.784  0.1790  0.5180  0.1992
 3890SOL    HW123729   0.975   2.100   0.876  0.1689  1.0754 -0.0442
 3890SOL    HW223730   0.882   2.045   0.753  0.1829  0.1487  0.3515
 3891SOL     OW23731   8.772   8.339   7.217  0.1223  0.4228  0.4308
 3891SOL    HW123732   8.831   8.359   7.295  0.6482  0.1956  0.0980
 3891SOL    HW223733   8.676   8.347   7.244  0.3029  0.3830  1.0873
 3892SOL     OW23734   1.652   9.659   5.269 -0.0766  0.1444  0.3589
 3892SOL    HW123735   1.724   9.671   5.337 -0.6629  1.5806  0.7494
 3892SOL    HW223736   1.563   9.654   5.314 -0.2699 -1.2333 -0.1492
 3893SOL     OW23737   7.876   2.519   5.404  0.4145  0.5607 -0.4878
 3893SOL    HW123738   7.833   2.581   5.338 -1.6654 -0.6098 -0.2867
 3893SOL    HW223739   7.896   2.431   5.360  0.9256  0.4774 -0.0944
 3894SOL     OW23740   7.718   1.684   1.213 -0.0418  0.0746  0.0853
 3894SOL    HW123741   7.663   1.600   1.212 -1.2329  0.8424 -0.2435
 3894SOL    HW223742   7.657   1.763   1.214  1.0780  0.9367  0.6055
 3895SOL     OW23743   0.288   6.203   4.753 -0.3002  0.4662  0.4259
 3895SOL    HW123744   0.360   6.178   4.689  0.3168  0.7573  0.9960
 3895SOL    HW223745   0.272   6.128   4.816 -0.7336  0.2750  0.0897
 3896SOL     OW23746   3.207   4.602   2.912 -0.0589 -0.1739 -0.0444
 3896SOL    HW123747   3.181   4.619   3.007 -0.2158  1.1224 -0.3077
 3896SOL    HW223748   3.245   4.510   2.903 -0.5316 -0.4858  1.1720
 3897SOL     OW23749   1.998   8.774   1.971  0.2026  0.1325  0.6276
 3897SOL    HW123750   1.968   8.800   1.879 -0.8238  0.0947  0.9513
 3897SOL    HW223751   2.025   8.856   2.021  2.3635 -0.0073 -0.2618
 3898SOL     OW23752   5.017   6.275   0.608 -0.1196 -0.0668  0.2893
 3898SOL    HW123753   5.046   6.333   0.685 -1.3172 -2.0324  2.2677
 3898SOL    HW223754   5.077   6.195   0.602 -1.5156 -1.1579  0.7241
 3899SOL     OW23755   3.272   6.681   3.315 -0.1992  0.6462 -0.3655
 3899SOL    HW123756   3.193   6.671   3.255 -0.6239 -2.2602  0.6253
 3899SOL    HW223757   3.242   6.717   3.404 -1.0885 -4.0834  1.3519
 3900SOL     OW23758   2.687   5.029   1.579  0.3761  0.3846 -0.0422
 3900SOL    HW123759   2.773   5.001   1.537  0.5177  1.2542 -0.3255
 3900SOL    HW223760   2.620   4.955   1.569  1.0371 -0.2384  0.0588
 3901SOL     OW23761   5.753   5.433   2.745  0.3823 -0.6255  0.1385
 3901SOL    HW123762   5.744   5.376   2.664 -0.4854 -0.9436  0.4501
 3901SOL    HW223763   5.722   5.526   2.724  1.9624 -0.2142 -0.4181
 3902SOL     OW23764   1.447   5.913   2.612  0.5213 -0.5855  0.2734
 3902SOL    HW123765   1.531   5.962   2.591  2.0962 -2.7749  1.3610
 3902SOL    HW223766   1.442   5.896   2.710 -1.7491  0.4798  0.3848
 3903SOL     OW23767   1.894   2.596   7.174  0.2619 -0.4344 -0.2487
 3903SOL    HW123768   1.962   2.609   7.246  1.3839 -1.8836 -1.0123
 3903SOL    HW223769   1.803   2.592   7.214  0.8665 -1.1818  1.0765
 3904SOL     OW23770   9.108   5.710   2.235  0.5892 -0.0861 -0.2120
 3904SOL    HW123771   9.024   5.659   2.213  0.5721 -0.2328  0.1847
 3904SOL    HW223772   9.134   5.767   2.157 -1.0611  1.5793  0.4294
 3905SOL     OW23773   2.023   8.716   5.575 -0.3207 -0.1576 -0.3013
 3905SOL    HW123774   2.107   8.667   5.554  0.0080  0.5860 -0.7339
 3905SOL    HW223775   2.021   8.740   5.672 -0.5621 -1.1717 -0.0539
 3906SOL     OW23776   7.013   3.786   4.002  0.4432  0.3133 -0.0572
 3906SOL    HW123777   6.914   3.781   3.986  0.3718  0.4361  0.3414
 3906SOL    HW223778   7.042   3.709   4.058  0.4915  0.5346  0.2265
 3907SOL     OW23779   6.531   6.586   4.855  0.4746 -0.0863 -0.4860
 3907SOL    HW123780   6.575   6.505   4.817  0.4249 -1.2356  1.7986
 3907SOL    HW223781   6.459   6.558   4.919 -0.3748  1.7686 -0.6027
 3908SOL     OW23782   5.367   5.453   1.164  0.2623 -0.0093  0.1356
 3908SOL    HW123783   5.341   5.453   1.067  1.1217 -0.8499 -0.1035
 3908SOL    HW223784   5.467   5.459   1.171  0.1033  2.0151  1.0106
 3909SOL     OW23785   3.932   2.706   4.470  0.2982  0.1270 -0.3191
 3909SOL    HW123786   3.911   2.792   4.423 -1.2195  0.4452  0.8842
 3909SOL    HW223787   3.877   2.700   4.554  1.7986 -1.1401  0.5955
 3910SOL     OW23788   2.877   6.837   7.667  0.8387 -0.1073 -0.1217
 3910SOL    HW123789   2.969   6.875   7.653  1.2251 -0.8309  0.4613
 3910SOL    HW223790   2.819   6.906   7.709  0.8584  0.6562 -1.2998
 3911SOL     OW23791   2.044   1.665   4.173  0.0740  0.6624 -0.0179
 3911SOL    HW123792   2.098   1.693   4.093 -2.1069  2.9222 -0.7739
 3911SOL    HW223793   2.068   1.572   4.198  1.3510  0.1632 -2.8648
 3912SOL     OW23794   7.664   4.731   5.808  0.3275 -0.2844 -0.3773
 3912SOL    HW123795   7.570   4.715   5.837 -0.4209  2.2442 -1.2231
 3912SOL    HW223796   7.726   4.673   5.860 -1.5989 -1.1253  1.0325
 3913SOL     OW23797   1.394   6.729   6.486 -0.0675  0.7908 -0.4183
 3913SOL    HW123798   1.391   6.686   6.396 -2.0297 -0.1834  0.0809
 3913SOL    HW223799   1.474   6.694   6.537 -0.9393 -1.3752 -0.4735
 3914SOL     OW23800   8.403   5.322   7.396 -0.2863  0.0417  0.3073
 3914SOL    HW123801   8.369   5.299   7.488 -0.3482  0.8297  0.4850
 3914SOL    HW223802   8.399   5.421   7.383  0.6251  0.0187 -0.1871
 3915SOL     OW23803   4.396   2.246   5.046 -1.0682  0.2911  0.3875
 3915SOL    HW123804   4.465   2.311   5.078  0.1044 -1.1686  0.8865
 3915SOL    HW223805   4.427   2.153   5.065 -1.8718 -0.5040 -1.9864
 3916SOL     OW23806   2.227   6.322   0.016  0.4213  1.0081  0.1335
 3916SOL    HW123807   2.306   6.320   0.077 -1.0024 -2.1962  2.0396
 3916SOL    HW223808   2.172   6.404   0.034  0.7564  0.8036  2.2315
 3917SOL     OW23809   8.559   7.916   0.008 -0.5164  0.1826  0.1918
 3917SOL    HW123810   8.467   7.935   0.043 -0.8204  2.2786 -1.6083
 3917SOL    HW223811   8.558   7.920  -0.092  1.8074  1.7662  0.1743
 3918SOL     OW23812   8.042   6.228   4.416  0.1040  0.5689 -0.2902
 3918SOL    HW123813   8.073   6.170   4.341  0.7044  0.9000 -0.3022
 3918SOL    HW223814   8.095   6.209   4.498 -2.6189 -2.0350  0.9867
 3919SOL     OW23815   1.017   4.946   4.169 -0.1333 -0.1900 -0.0568
 3919SOL    HW123816   0.977   5.024   4.122 -0.1648 -1.1190 -1.6025
 3919SOL    HW223817   1.116   4.959   4.179 -0.6596  1.8735  3.3103
 3920SOL     OW23818   3.116   2.790   9.810 -0.1289  0.4747 -0.1859
 3920SOL    HW123819   3.094   2.694   9.792 -0.2279  0.1842  1.3535
 3920SOL    HW223820   3.083   2.847   9.735 -1.0586 -0.5792 -0.5914
 3921SOL     OW23821   3.392   6.529   9.398 -0.7986  0.4206 -0.4359
 3921SOL    HW123822   3.356   6.444   9.437 -0.5997  0.0861 -0.9739
 3921SOL    HW223823   3.337   6.554   9.318 -1.7743  1.5885  0.5802
 3922SOL     OW23824   0.652   5.185   3.798 -0.1836  0.7925  0.2220
 3922SOL    HW123825   0.631   5.088   3.809  3.3741 -0.0811 -0.0398
 3922SOL    HW223826   0.680   5.223   3.887  2.5714  0.4636 -0.4702
 3923SOL     OW23827   0.346   6.486   5.225  0.3694  0.1819  0.0554
 3923SOL    HW123828   0.428   6.463   5.172  0.1247 -0.3237 -0.0948
 3923SOL    HW223829   0.366   6.474   5.323  0.1786 -0.8592 -0.0288
 3924SOL     OW23830   2.829   2.917   1.897  0.2070 -0.3477 -0.2916
 3924SOL    HW123831   2.785   2.941   1.811 -0.0476 -0.6685 -0.2514
 3924SOL    HW223832   2.874   2.828   1.888  0.3163 -0.3080 -0.1426
 3925SOL     OW23833   9.982   6.395   6.089  0.4268 -0.6504  0.4064
 3925SOL    HW123834  10.051   6.383   6.160 -0.6953 -1.7955  1.3345
 3925SOL    HW223835   9.896   6.352   6.118  0.6969 -3.5476 -2.7670
 3926SOL     OW23836   0.392   6.953   6.367 -0.3296  0.3132 -0.4125
 3926SOL    HW123837   0.297   6.924   6.364  0.1441 -1.2380 -0.9868
 3926SOL    HW223838   0.418   6.973   6.462 -0.8948 -0.4092 -0.0998
 3927SOL     OW23839   9.706   3.977   7.343  0.1555 -0.3644 -0.2220
 3927SOL    HW123840   9.745   4.049   7.400 -1.8602  1.4903 -1.1118
 3927SOL    HW223841   9.777   3.912   7.318  2.6546  2.7560 -1.6013
 3928SOL     OW23842   8.779   1.653   4.412  0.1996 -0.7052 -0.1687
 3928SOL    HW123843   8.704   1.632   4.475 -0.2022 -2.2282 -1.1206
 3928SOL    HW223844   8.771   1.595   4.331  2.7375 -1.2670 -0.0468
 3929SOL     OW23845   4.512   5.624   6.525  0.3858  0.4228 -0.0253
 3929SOL    HW123846   4.523   5.565   6.605 -0.0620 -1.3289 -1.2467
 3929SOL    HW223847   4.595   5.678   6.512  0.2306  1.1843  1.9745
 3930SOL     OW23848   1.896   1.153   2.292 -0.4385 -0.6612 -0.0915
 3930SOL    HW123849   1.839   1.159   2.211  0.4488  0.2777 -0.6603
 3930SOL    HW223850   1.924   1.058   2.306  0.8706 -0.5706 -1.9259
 3931SOL     OW23851   5.011   7.822   8.663  0.1871 -0.0465  0.7102
 3931SOL    HW123852   4.961   7.798   8.580 -0.1558  2.1913  0.2290
 3931SOL    HW223853   5.002   7.748   8.730 -1.1901 -1.0154 -0.5009
 3932SOL     OW23854   4.949   3.381   2.001  0.5487  0.6766 -0.1746
 3932SOL    HW123855   5.030   3.404   2.054  0.9045  0.6722 -0.7163
 3932SOL    HW223856   4.970   3.305   1.939 -0.1133  0.0907  0.3158
 3933SOL     OW23857   0.012   1.723   6.635 -0.5553  0.3667  0.0398
 3933SOL    HW123858  -0.026   1.631   6.624 -0.7704  0.4506  0.0724
 3933SOL    HW223859  -0.039   1.772   6.706 -0.2236  0.3938  0.2578
 3934SOL     OW23860   8.293   2.921   7.192 -0.0999  0.4319  0.6998
 3934SOL    HW123861   8.308   2.824   7.172  1.7164  0.4949  1.5821
 3934SOL    HW223862   8.217   2.955   7.138 -0.7001 -1.4624  0.2989
 3935SOL     OW23863   1.179   5.235   3.279  0.7128  0.0426 -0.6042
 3935SOL    HW123864   1.100   5.175   3.294  1.3973 -0.3983  1.3051
 3935SOL    HW223865   1.263   5.182   3.287  1.2771  0.9417 -0.5130
 3936SOL     OW23866   0.927   0.500   7.296 -0.2601 -0.6464 -0.0519
 3936SOL    HW123867   0.871   0.455   7.226  1.5873 -2.9452 -0.0739
 3936SOL    HW223868   0.906   0.461   7.386  0.0716 -0.3054  0.1748
 3937SOL     OW23869   9.796   7.550   9.006  0.1048  0.0807 -0.3105
 3937SOL    HW123870   9.876   7.536   9.063  0.2079  2.4697  0.1763
 3937SOL    HW223871   9.752   7.462   8.988  1.2734 -0.9382  1.6740
 3938SOL     OW23872   7.591   2.219   3.882 -0.4163 -0.2708 -0.0529
 3938SOL    HW123873   7.544   2.145   3.931 -1.9824  0.0638 -1.0230
 3938SOL    HW223874   7.524   2.286   3.852  0.6568  0.0165 -1.8345
 3939SOL     OW23875   9.981   0.825   5.859 -0.3253 -0.0825  0.2337
 3939SOL    HW123876  10.078   0.801   5.860 -0.0101  1.0591 -1.0271
 3939SOL    HW223877   9.970   0.920   5.889 -1.0578 -0.2194  0.4016
 3940SOL     OW23878   9.057   6.060   5.133  0.4763 -0.4128  0.0808
 3940SOL    HW123879   9.126   6.001   5.091 -1.5136 -0.9764 -2.5456
 3940SOL    HW223880   9.054   6.044   5.232  1.6297 -2.9573 -0.2602
 3941SOL     OW23881   1.509   2.425   7.520 -0.8290  0.3228 -0.4206
 3941SOL    HW123882   1.454   2.439   7.603 -1.4662 -0.9768 -0.6042
 3941SOL    HW223883   1.450   2.394   7.446 -0.1534  0.8643 -1.1854
 3942SOL     OW23884   6.745   5.084   7.729 -0.0439 -0.0413  0.1577
 3942SOL    HW123885   6.675   5.101   7.660 -0.0984  0.3614  0.3101
 3942SOL    HW223886   6.827   5.049   7.685 -0.7465 -1.6997  0.1044
 3943SOL     OW23887   9.270   7.356   8.624 -0.1486 -0.2466  0.2900
 3943SOL    HW123888   9.216   7.272   8.622  1.8812 -1.6358  1.6778
 3943SOL    HW223889   9.234   7.417   8.695 -1.3379 -0.1286 -0.4035
 3944SOL     OW23890   7.861   8.826   2.980  0.3895  0.3011 -0.4736
 3944SOL    HW123891   7.809   8.826   2.894  1.0014  0.9121 -0.8442
 3944SOL    HW223892   7.926   8.750   2.980 -0.4062 -0.3987 -0.0563
 3945SOL     OW23893   4.527   7.056   1.532 -0.6613 -0.5151  0.3857
 3945SOL    HW123894   4.462   6.998   1.580 -3.4223  0.7069 -1.7627
 3945SOL    HW223895   4.568   7.005   1.456  0.2557 -1.0142  1.2088
 3946SOL     OW23896   2.636   4.363   8.258  0.1275  0.0005  0.0565
 3946SOL    HW123897   2.597   4.408   8.339 -0.2165 -0.4682  0.1538
 3946SOL    HW223898   2.735   4.360   8.267  0.0712 -0.3118  0.5996
 3947SOL     OW23899   3.511   4.623   6.997  0.5979  0.0481  0.3431
 3947SOL    HW123900   3.537   4.544   6.943 -0.6975 -0.5489  0.5955
 3947SOL    HW223901   3.516   4.601   7.094  2.6321  1.0272  0.4972
 3948SOL     OW23902   5.366   5.487   3.749 -0.2913  0.5969 -0.1902
 3948SOL    HW123903   5.360   5.584   3.726  2.9952  1.0322  0.4626
 3948SOL    HW223904   5.334   5.473   3.843  0.1146  1.2196  0.0439
 3949SOL     OW23905   1.726   7.179   5.227 -0.0596  0.6598  0.5737
 3949SOL    HW123906   1.809   7.202   5.178 -0.1403 -0.2578  0.0066
 3949SOL    HW223907   1.729   7.083   5.256 -0.6828  0.7676  1.0210
 3950SOL     OW23908   4.776   5.956   7.660  0.0459  0.1801  0.3953
 3950SOL    HW123909   4.866   5.978   7.696 -0.5888  1.6558  1.1507
 3950SOL    HW223910   4.716   5.926   7.735 -0.6962  1.3028  0.2715
 3951SOL     OW23911   5.736   7.118   5.583  0.0328 -0.1966  0.3892
 3951SOL    HW123912   5.812   7.053   5.582  0.5685  0.3996  1.8306
 3951SOL    HW223913   5.756   7.192   5.647 -0.4549  1.5341 -1.4128
 3952SOL     OW23914   1.425   0.968   6.798  0.0112  0.3649 -0.0125
 3952SOL    HW123915   1.517   0.937   6.774  0.3691  2.2267 -1.1697
 3952SOL    HW223916   1.396   1.038   6.733 -2.4875 -0.6504 -0.0169
 3953SOL     OW23917   1.553   4.948   5.564  0.4529 -0.1924 -0.4402
 3953SOL    HW123918   1.570   4.952   5.466  1.5928 -0.1963 -0.2572
 3953SOL    HW223919   1.639   4.965   5.613  0.0549 -0.9627  0.5449
 3954SOL     OW23920   5.073   6.554   4.331 -0.0104  0.0909 -0.2332
 3954SOL    HW123921   5.054   6.614   4.253  0.6659  0.3867 -0.1806
 3954SOL    HW223922   4.987   6.524   4.372 -0.3611  1.3432 -0.0244
 3955SOL     OW23923   0.573   6.174   9.989  0.2065 -0.4364  0.1245
 3955SOL    HW123924   0.474   6.173   9.995  0.2231 -0.1497  0.4542
 3955SOL    HW223925   0.602   6.222   9.906  0.1002  0.6216  0.6989
 3956SOL     OW23926   6.680   7.776   4.270  0.6501 -0.1764  0.2252
 3956SOL    HW123927   6.699   7.810   4.363 -0.0581  2.4945 -0.5444
 3956SOL    HW223928   6.594   7.727   4.269 -0.2387  1.3344  0.6649
 3957SOL     OW23929   1.436   2.106   9.963 -0.1461 -0.7411 -0.2251
 3957SOL    HW123930   1.494   2.179   9.928 -1.6245  0.5749 -0.0027
 3957SOL    HW223931   1.345   2.143   9.983 -0.7858 -2.5555  0.2944
 3958SOL     OW23932   6.734   3.013   3.778  0.1340  0.1868  0.2325
 3958SOL    HW123933   6.753   2.915   3.776  0.4757  0.2769 -1.7374
 3958SOL    HW223934   6.814   3.063   3.743 -0.4675  1.0952  0.1406
 3959SOL     OW23935   4.348   5.544   3.548 -0.2848 -0.6980 -0.2719
 3959SOL    HW123936   4.336   5.621   3.486 -0.4447  0.8519  1.6494
 3959SOL    HW223937   4.427   5.490   3.518  1.2156  1.4891 -0.3802
 3960SOL     OW23938   9.080   8.426   7.060 -0.1901  0.1127  0.1614
 3960SOL    HW123939   9.155   8.375   7.017 -0.0875  1.5035 -1.3352
 3960SOL    HW223940   9.011   8.362   7.092  0.9875 -1.1058  0.3207
 3961SOL     OW23941   9.671   4.088   4.818 -0.2698  0.0661  0.2371
 3961SOL    HW123942   9.677   4.109   4.916 -1.1675  2.3818 -0.1712
 3961SOL    HW223943   9.655   3.990   4.806  0.2331 -0.3122  2.3901
 3962SOL     OW23944   1.360   4.751   5.670  0.1567 -0.4529  0.3766
 3962SOL    HW123945   1.444   4.803   5.653  0.2597 -0.0176  2.1646
 3962SOL    HW223946   1.373   4.690   5.748 -1.0945 -0.5979  0.4817
 3963SOL     OW23947   5.562   6.548   2.837  0.0114 -0.2004 -0.3214
 3963SOL    HW123948   5.560   6.598   2.751 -1.3803  0.4683  0.0891
 3963SOL    HW223949   5.473   6.555   2.882  0.0947 -2.2369  0.2072
 3964SOL     OW23950   1.147   4.420   9.818  0.3990 -0.3289  0.2603
 3964SOL    HW123951   1.066   4.367   9.792 -0.8219  1.5849  0.0862
 3964SOL    HW223952   1.138   4.451   9.913 -0.6564  2.6686 -0.7513
 3965SOL     OW23953   3.776   1.647   7.982 -0.9351  0.6749 -0.3940
 3965SOL    HW123954   3.852   1.613   8.037 -0.9184 -0.3544 -1.0326
 3965SOL    HW223955   3.781   1.606   7.891 -2.1713  0.7200 -0.4827
 3966SOL     OW23956   4.081   6.285   3.033 -0.2919  0.1544 -0.4845
 3966SOL    HW123957   4.088   6.359   2.967 -0.7611 -1.4241 -2.3460
 3966SOL    HW223958   4.051   6.201   2.987 -0.8186 -0.9395  1.7545
 3967SOL     OW23959   1.760   5.934   5.511  0.0780  0.6508 -0.3475
 3967SOL    HW123960   1.760   5.905   5.416 -0.4116 -0.0929 -0.1287
 3967SOL    HW223961   1.840   5.991   5.529  1.0187 -0.5011 -0.8079
 3968SOL     OW23962   1.556   4.389   0.778  0.0075 -0.2065  0.1623
 3968SOL    HW123963   1.645   4.343   0.785 -0.8210 -1.5517  2.6769
 3968SOL    HW223964   1.567   4.486   0.798  0.6828 -0.6959  2.3677
 3969SOL     OW23965   0.733   1.024   2.036  0.1875  0.4433  0.2678
 3969SOL    HW123966   0.767   1.106   1.989 -0.3167  0.9596  0.7891
 3969SOL    HW223967   0.650   0.992   1.992 -0.4616  1.1135  0.9832
 3970SOL     OW23968   0.878   3.629   9.104  0.6901 -0.1260  0.3228
 3970SOL    HW123969   0.918   3.699   9.045  0.2165  0.0801  0.2403
 3970SOL    HW223970   0.805   3.669   9.159 -0.7511 -0.9235 -0.9689
 3971SOL     OW23971   2.260   5.853   4.845  0.4954  0.2231  0.2697
 3971SOL    HW123972   2.213   5.885   4.763 -1.5847 -0.6200  1.0904
 3971SOL    HW223973   2.314   5.928   4.884 -2.3863  2.1124  0.8192
 3972SOL     OW23974   9.471   6.865   3.127  0.1566  0.2436 -0.0519
 3972SOL    HW123975   9.526   6.891   3.207  1.5916 -1.0192 -0.6121
 3972SOL    HW223976   9.471   6.940   3.061  2.3011 -0.2160 -0.6080
 3973SOL     OW23977   0.214   8.484   2.733 -0.3439  0.2590  0.0891
 3973SOL    HW123978   0.308   8.492   2.700  0.2834 -1.0192  1.4474
 3973SOL    HW223979   0.194   8.560   2.794  0.0138  0.2410  0.2331
 3974SOL     OW23980   7.169   7.544   6.212 -0.9361  0.7979 -0.4589
 3974SOL    HW123981   7.221   7.582   6.289 -1.0457 -0.1336  0.0707
 3974SOL    HW223982   7.186   7.446   6.205 -1.6343  0.7180 -1.0618
 3975SOL     OW23983   2.739   9.331   5.647  0.0984  0.2684 -0.4777
 3975SOL    HW123984   2.770   9.424   5.625 -0.6907 -0.0079 -2.8619
 3975SOL    HW223985   2.758   9.312   5.743  1.1426  2.5514 -0.1961
 3976SOL     OW23986   9.186   6.905   3.027  0.2718  0.2997  0.0592
 3976SOL    HW123987   9.284   6.887   3.034  0.7911  2.0253 -2.1887
 3976SOL    HW223988   9.166   6.996   3.063 -0.0322  1.1157 -2.1061
 3977SOL     OW23989   1.200   1.472   7.277  0.0062  0.4110  0.1587
 3977SOL    HW123990   1.176   1.494   7.183  0.9131 -0.4766 -0.2850
 3977SOL    HW223991   1.183   1.552   7.335  0.6843  1.3907 -0.9686
 3978SOL     OW23992   1.212   9.341   1.720  0.0035  0.0270 -0.5593
 3978SOL    HW123993   1.149   9.276   1.762  2.6525 -1.4222  1.2965
 3978SOL    HW223994   1.239   9.410   1.786  0.8263  0.2855 -1.1545
 3979SOL     OW23995   9.402   2.098   6.140 -0.1295  0.2359 -0.2728
 3979SOL    HW123996   9.396   2.005   6.102 -1.2038 -0.1531  0.8457
 3979SOL    HW223997   9.317   2.147   6.122  0.4759  1.0489 -0.9487
 3980SOL     OW23998   5.169   4.027   2.371 -0.2837  0.1067  0.0272
 3980SOL    HW123999   5.240   4.074   2.318 -0.4406 -1.0360 -1.2254
 3980SOL    HW224000   5.203   4.011   2.464  0.4780  1.0095 -0.0813
 3981SOL     OW24001   1.021   4.854   1.766  0.5120  0.5004  0.0032
 3981SOL    HW124002   0.961   4.932   1.748 -0.6252 -0.5215 -0.6951
 3981SOL    HW224003   1.031   4.800   1.682 -0.9385 -1.6296  1.1686
 3982SOL     OW24004   8.761   3.249   9.648  0.1328  0.3970  0.1092
 3982SOL    HW124005   8.831   3.312   9.615 -1.1216  0.9890 -1.4732
 3982SOL    HW224006   8.705   3.218   9.571 -1.7539  0.4496  1.4305
 3983SOL     OW24007   7.241   2.495   3.537  0.3888 -0.2094 -0.4274
 3983SOL    HW124008   7.281   2.575   3.493  1.0759  0.5803  1.5669
 3983SOL    HW224009   7.307   2.455   3.601 -1.5553  0.5410  2.1866
 3984SOL     OW24010   9.132   5.118   6.967  0.4956  0.2540 -0.1120
 3984SOL    HW124011   9.110   5.174   7.046  0.9395  0.4668 -0.1404
 3984SOL    HW224012   9.130   5.021   6.993  0.1978  0.3030  0.0491
 3985SOL     OW24013   1.145   8.719   5.229 -0.3441 -0.6001  0.0263
 3985SOL    HW124014   1.125   8.767   5.144  1.2552 -2.5982 -1.5367
 3985SOL    HW224015   1.195   8.780   5.290 -0.6220  0.5383 -0.8644
 3986SOL     OW24016   9.180   4.747   2.931  0.3673 -0.1328  0.1386
 3986SOL    HW124017   9.249   4.748   2.858  1.2346 -0.4995  0.9515
 3986SOL    HW224018   9.091   4.721   2.892  0.7520  0.0124 -0.8508
 3987SOL     OW24019   3.164   5.913   1.023 -0.2149  0.2213  0.3717
 3987SOL    HW124020   3.089   5.884   1.083 -0.0950 -0.9434 -0.0473
 3987SOL    HW224021   3.249   5.868   1.050  0.1439  0.8177  0.2487
 3988SOL     OW24022   7.806   2.027   2.851 -0.0423 -0.4069 -0.1808
 3988SOL    HW124023   7.769   1.989   2.936  0.3373  0.6491  0.4708
 3988SOL    HW224024   7.773   2.121   2.840  0.2518 -0.3985 -0.9787
 3989SOL     OW24025   8.096   4.503   7.343  0.6289 -0.2200  0.1715
 3989SOL    HW124026   8.085   4.598   7.375 -1.8723 -0.3671 -0.1313
 3989SOL    HW224027   8.104   4.502   7.244 -1.0697 -0.4393  0.0304
 3990SOL     OW24028   1.814   8.069   5.631 -0.4713  0.3122 -0.1229
 3990SOL    HW124029   1.748   8.132   5.590  0.6242  1.7259  0.2776
 3990SOL    HW224030   1.800   8.066   5.730 -0.3988  0.0344 -0.1187
 3991SOL     OW24031   5.435   5.342   2.128  0.2282 -0.3360 -0.0161
 3991SOL    HW124032   5.410   5.327   2.224  2.2112 -0.9197  0.4427
 3991SOL    HW224033   5.492   5.266   2.097 -0.8104 -0.4033 -1.8299
 3992SOL     OW24034   6.790   3.948   8.762 -0.4760 -0.2029 -0.0018
 3992SOL    HW124035   6.704   3.921   8.718 -0.7233 -0.1268  0.4270
 3992SOL    HW224036   6.787   4.046   8.781  0.1078 -0.0129 -0.8677
 3993SOL     OW24037   0.703   4.281   0.008 -0.5432  0.6904 -0.7867
 3993SOL    HW124038   0.730   4.205   0.067 -0.0256  1.4377 -0.0521
 3993SOL    HW224039   0.604   4.279  -0.005 -0.5739  0.0964 -0.4787
 3994SOL     OW24040   2.887   6.891   2.511 -0.5409 -0.6274  0.2668
 3994SOL    HW124041   2.856   6.969   2.457 -0.7523 -1.0307 -0.1946
 3994SOL    HW224042   2.913   6.816   2.450  0.2433 -0.7049  0.6823
 3995SOL     OW24043   3.161   6.723   5.385 -0.2601 -0.0298 -1.0795
 3995SOL    HW124044   3.152   6.822   5.393 -1.1236 -0.2287  0.4533
 3995SOL    HW224045   3.194   6.700   5.293 -2.3467  1.5459 -2.2793
 3996SOL     OW24046   1.445   0.135   0.264  0.2333 -0.2322  0.3391
 3996SOL    HW124047   1.389   0.216   0.246  0.9492 -0.0141 -0.9145
 3996SOL    HW224048   1.527   0.138   0.208  1.4772 -0.5990  2.0883
 3997SOL     OW24049   8.664   9.349   3.771 -0.1551 -0.3962 -0.0621
 3997SOL    HW124050   8.571   9.314   3.783  0.2447 -0.8503  1.7532
 3997SOL    HW224051   8.719   9.281   3.721 -0.2222 -1.0498  0.7398
 3998SOL     OW24052   5.918   4.802   6.802 -0.6742  0.3890  0.0126
 3998SOL    HW124053   5.880   4.886   6.841  0.6624  0.7793  0.5284
 3998SOL    HW224054   5.918   4.730   6.872 -1.1114  0.1822 -0.1991
 3999SOL     OW24055   3.820   0.113   4.768 -0.4221 -0.1775 -0.4708
 3999SOL    HW124056   3.857   0.204   4.787  1.4279 -1.4165  2.2898
 3999SOL    HW224057   3.795   0.107   4.671  2.8522  2.1135 -1.5856
 4000SOL     OW24058   5.689   0.324   1.957 -0.4081 -0.0180 -0.1140
 4000SOL    HW124059   5.656   0.360   2.044 -3.7258 -2.2692 -0.3345
 4000SOL    HW224060   5.759   0.255   1.974 -0.7735 -0.1750  0.7976
 4001SOL     OW24061   5.519   8.129   4.694  0.1174  0.6105 -0.0667
 4001SOL    HW124062   5.525   8.149   4.792  0.0254 -0.8973  0.2588
 4001SOL    HW224063   5.438   8.074   4.677 -0.3731  1.6403 -1.1437
 4002SOL     OW24064   3.532   9.208   4.318  0.8879  0.0686  0.0299
 4002SOL    HW124065   3.434   9.221   4.311  0.8891 -0.0467 -0.2058
 4002SOL    HW224066   3.577   9.296   4.334  0.6604 -0.0101  1.1126
 4003SOL     OW24067   1.884   6.142   4.866 -0.7285  0.4283  0.1559
 4003SOL    HW124068   1.785   6.132   4.855 -0.6847  0.6784 -0.5124
 4003SOL    HW224069   1.929   6.131   4.777 -0.0978 -0.3495  0.5613
 4004SOL     OW24070   6.633   7.772   5.770 -0.2283 -0.4484 -0.7554
 4004SOL    HW124071   6.651   7.817   5.857  0.8905 -2.1514 -0.0764
 4004SOL    HW224072   6.605   7.677   5.787 -0.9687 -0.4976 -2.2047
 4005SOL     OW24073   8.905   0.912   1.736  0.1672 -0.4148 -0.0378
 4005SOL    HW124074   9.001   0.897   1.713  0.1830  0.2804 -0.4514
 4005SOL    HW224075   8.889   0.886   1.832  1.0832  0.7537  0.4454
 4006SOL     OW24076   9.311   9.176   5.487 -0.0878 -0.1556 -0.0172
 4006SOL    HW124077   9.221   9.206   5.454  0.1875  2.7572  1.7151
 4006SOL    HW224078   9.299   9.096   5.546 -1.2988 -0.9947 -1.3470
 4007SOL     OW24079   2.134   3.342   6.019 -0.0366  0.0732 -0.4490
 4007SOL    HW124080   2.076   3.398   6.078 -0.3811  1.6289 -2.2173
 4007SOL    HW224081   2.219   3.321   6.067 -1.8674 -1.9735  2.0556
 4008SOL     OW24082   0.215   5.059   3.914  0.4417 -0.5501 -0.1240
 4008SOL    HW124083   0.254   5.036   3.824  1.0371  1.4069 -0.3886
 4008SOL    HW224084   0.189   5.155   3.915  0.1702 -0.6360  1.7153
 4009SOL     OW24085   1.644   9.879   5.758 -0.0554  0.1070 -0.1310
 4009SOL    HW124086   1.587   9.878   5.841 -1.1618  0.1892 -0.8833
 4009SOL    HW224087   1.628   9.796   5.705  0.7266  0.0068 -0.2179
 4010SOL     OW24088   2.849   8.227   3.159  0.5938 -0.0057 -0.1661
 4010SOL    HW124089   2.802   8.142   3.185 -0.0824  0.3145 -0.3191
 4010SOL    HW224090   2.859   8.230   3.060 -0.1752  0.4954 -0.2336
 4011SOL     OW24091   3.121   3.081   6.205 -0.3914 -0.3986  0.5896
 4011SOL    HW124092   3.138   3.076   6.303 -0.1449 -1.1471  0.5111
 4011SOL    HW224093   3.172   3.009   6.159 -0.1690  0.2145 -0.1337
 4012SOL     OW24094   0.488   8.829   6.338  0.1041  0.1996 -0.2801
 4012SOL    HW124095   0.472   8.753   6.400  1.9333  0.2943  0.3478
 4012SOL    HW224096   0.559   8.888   6.376  0.4980  0.8400 -1.9727
 4013SOL     OW24097   1.150   5.499   0.753 -0.4923 -0.0332  0.4301
 4013SOL    HW124098   1.069   5.548   0.721 -1.2352 -0.9525  0.8774
 4013SOL    HW224099   1.140   5.402   0.734  0.0732 -0.2866  1.3618
 4014SOL     OW24100   1.172   4.400   5.753  0.0559  0.0897 -0.0299
 4014SOL    HW124101   1.142   4.397   5.657 -1.9690  0.9294  0.5643
 4014SOL    HW224102   1.256   4.453   5.759 -0.1762  0.6343 -1.2562
 4015SOL     OW24103   2.449   6.163   1.311 -0.2186  0.2023 -0.0890
 4015SOL    HW124104   2.476   6.234   1.245 -1.0514  1.2125  0.6297
 4015SOL    HW224105   2.449   6.202   1.403 -2.4901 -0.1969  0.1148
 4016SOL     OW24106   4.224   2.397   5.378 -0.1244 -0.4265 -0.6292
 4016SOL    HW124107   4.270   2.308   5.381  1.3339  0.3007 -0.8834
 4016SOL    HW224108   4.134   2.390   5.422 -0.0921 -2.0551 -0.7877
 4017SOL     OW24109   9.119   4.597   3.753 -0.1694  0.4092  0.6600
 4017SOL    HW124110   9.150   4.614   3.847 -0.5982 -1.4376  1.1548
 4017SOL    HW224111   9.141   4.503   3.727 -0.8735  0.6246 -0.7825
 4018SOL     OW24112   7.103   0.241   3.959  0.0082 -0.7713 -0.3304
 4018SOL    HW124113   7.130   0.316   3.897  1.2230 -0.6631  0.3209
 4018SOL    HW224114   7.183   0.211   4.011 -0.6699 -1.9597  0.0204
 4019SOL     OW24115   2.229   8.837   7.593  0.1224  0.3205 -0.5160
 4019SOL    HW124116   2.156   8.875   7.649 -1.0509 -1.3123 -0.9313
 4019SOL    HW224117   2.191   8.774   7.526  1.7672  0.4945 -1.6423
 4020SOL     OW24118   4.524   6.144   9.675  0.4474 -0.4389 -0.1333
 4020SOL    HW124119   4.541   6.212   9.746  1.8523 -1.7924  0.8687
 4020SOL    HW224120   4.606   6.088   9.662 -0.5175 -1.6278 -1.2708
 4021SOL     OW24121   0.777   4.013   3.305 -0.5661 -0.1189 -0.2019
 4021SOL    HW124122   0.706   3.949   3.333 -1.2276  1.0082  0.7666
 4021SOL    HW224123   0.861   3.997   3.357 -1.0287  0.4040  0.7115
 4022SOL     OW24124   8.074   3.473   2.868 -0.0612 -0.4222  0.3524
 4022SOL    HW124125   8.131   3.534   2.813 -0.1752  0.1826  0.8884
 4022SOL    HW224126   8.124   3.388   2.887  0.2893 -0.2918  0.0081
 4023SOL     OW24127   0.971   7.591   4.096 -0.4843  0.0980 -0.0693
 4023SOL    HW124128   1.066   7.580   4.124 -0.8272 -2.1288  0.2939
 4023SOL    HW224129   0.952   7.532   4.017 -1.7932 -0.1744  0.4257
 4024SOL     OW24130   2.049   4.007   2.745 -0.0172  0.3239  0.1761
 4024SOL    HW124131   2.068   4.024   2.842  1.7322 -0.3426 -0.0416
 4024SOL    HW224132   2.080   4.085   2.691  1.3914 -0.4231 -0.1020
 4025SOL     OW24133   8.132   4.954   2.477 -0.0276 -0.1456 -0.2180
 4025SOL    HW124134   8.061   4.884   2.482 -0.6898  0.5836  0.8304
 4025SOL    HW224135   8.110   5.020   2.405 -1.0438  0.7558  0.9120
 4026SOL     OW24136   4.907   0.581   7.556 -0.0994 -0.6022 -0.4197
 4026SOL    HW124137   4.883   0.660   7.499 -1.2900 -1.3140 -0.9335
 4026SOL    HW224138   4.828   0.520   7.563  1.1995 -2.3970 -1.1008
 4027SOL     OW24139   2.506   4.553   4.211 -0.0610 -0.3758  0.0429
 4027SOL    HW124140   2.575   4.481   4.207 -1.7911 -2.0229 -0.8479
 4027SOL    HW224141   2.509   4.607   4.127  1.0222  0.4117  0.5758
 4028SOL     OW24142   0.809   5.070   4.891 -0.3964  0.1388  0.0973
 4028SOL    HW124143   0.794   5.107   4.800 -3.3191 -0.1574  0.4259
 4028SOL    HW224144   0.836   4.974   4.885 -3.6064 -0.7894 -0.4095
 4029SOL     OW24145   9.576   8.669   6.402 -0.0793 -0.1297  0.3660
 4029SOL    HW124146   9.607   8.577   6.378  0.6054 -0.0600  0.9655
 4029SOL    HW224147   9.490   8.688   6.355 -0.4791 -1.2626  0.6045
 4030SOL     OW24148   3.813   8.203   5.816 -0.3018 -0.2136  0.7700
 4030SOL    HW124149   3.728   8.166   5.778 -1.0727  0.5345  1.7220
 4030SOL    HW224150   3.825   8.297   5.785  0.9212 -0.7838 -0.5078
 4031SOL     OW24151   9.235   8.664   4.888 -0.4995 -0.0383  0.3372
 4031SOL    HW124152   9.245   8.673   4.789  1.7441 -2.2326  0.3298
 4031SOL    HW224153   9.195   8.575   4.909 -0.6284  0.2743  1.4341
 4032SOL     OW24154   0.060   1.135   9.128  0.2110  0.2154  0.2005
 4032SOL    HW124155   0.039   1.040   9.107  0.8047  0.0633  0.3039
 4032SOL    HW224156  -0.026   1.187   9.136 -0.0669 -0.0655 -0.9641
 4033SOL     OW24157   9.360   6.154   6.527  0.5201 -0.3561  0.3286
 4033SOL    HW124158   9.360   6.154   6.627 -0.3994  1.6376  0.3572
 4033SOL    HW224159   9.452   6.133   6.493  0.7518 -1.3949  1.5762
 4034SOL     OW24160   1.533   0.712   8.051 -0.8401 -0.3456 -0.0593
 4034SOL    HW124161   1.484   0.755   8.126 -1.3538 -0.5116 -0.2990
 4034SOL    HW224162   1.614   0.767   8.028  0.2961 -1.2291  1.7719
 4035SOL     OW24163   1.270   0.129   7.034 -0.1727 -0.1941  0.2595
 4035SOL    HW124164   1.334   0.182   6.979  1.4842 -0.3254  2.0056
 4035SOL    HW224165   1.177   0.139   6.997  0.5281  1.6878 -1.0486
 4036SOL     OW24166   4.117   8.376   5.023 -0.0229  0.3538  0.1918
 4036SOL    HW124167   4.183   8.304   5.045 -0.2667 -0.2042 -0.8680
 4036SOL    HW224168   4.108   8.383   4.923 -1.7171  0.3008  0.3409
 4037SOL     OW24169   1.447   5.749   5.831 -0.4422  0.1500 -0.3986
 4037SOL    HW124170   1.534   5.752   5.782  0.7110  0.3547  1.6086
 4037SOL    HW224171   1.391   5.827   5.805  0.0361  0.1099 -1.5699
 4038SOL     OW24172   7.902   2.412   3.451 -0.0471 -0.0833  0.3278
 4038SOL    HW124173   7.882   2.341   3.383 -3.3675 -0.3858  1.5239
 4038SOL    HW224174   7.928   2.368   3.537  0.8779  0.2353  0.2147
 4039SOL     OW24175   0.780   7.457   9.230  0.4088 -0.4657 -0.0044
 4039SOL    HW124176   0.827   7.398   9.165  2.0407  0.6616  0.1334
 4039SOL    HW224177   0.792   7.553   9.203  1.7105  0.0623  2.3291
 4040SOL     OW24178   9.922   2.852   0.646 -0.0956 -0.3530 -0.1777
 4040SOL    HW124179   9.988   2.797   0.697  0.9548 -0.8836 -2.0492
 4040SOL    HW224180   9.921   2.945   0.682 -0.0809 -0.9540  1.4101
 4041SOL     OW24181   2.477   8.232   5.014 -0.3679 -0.0920 -0.0991
 4041SOL    HW124182   2.554   8.168   5.005  0.2602  0.5336  0.7992
 4041SOL    HW224183   2.406   8.190   5.070  0.6394  0.5191  1.6843
 4042SOL     OW24184   1.045   7.003   3.067  0.5617 -0.2712  0.0320
 4042SOL    HW124185   1.072   7.100   3.066  0.9752 -0.3855 -0.4545
 4042SOL    HW224186   0.946   6.996   3.061  0.4737  0.1427  0.9108
 4043SOL     OW24187   2.814   7.613   3.791 -0.5748  0.2536  0.4793
 4043SOL    HW124188   2.883   7.666   3.742 -0.5294  0.8941  1.2366
 4043SOL    HW224189   2.727   7.620   3.742 -0.4610  0.6551  0.3292
 4044SOL     OW24190   2.231   4.218   8.696 -0.3340 -0.7814 -0.0259
 4044SOL    HW124191   2.308   4.270   8.736  0.0975 -1.9526  0.7086
 4044SOL    HW224192   2.228   4.234   8.598  0.8972 -0.7467 -0.0775
 4045SOL     OW24193   8.190   5.381   7.595 -0.3957 -0.3322  0.1831
 4045SOL    HW124194   8.192   5.480   7.593 -2.0365 -0.2759  0.1660
 4045SOL    HW224195   8.200   5.349   7.690  0.9108 -0.1838  0.0956
 4046SOL     OW24196   0.384   5.110   4.391 -0.4129 -0.0539 -0.0483
 4046SOL    HW124197   0.421   5.082   4.302 -0.9766 -2.5975  0.4890
 4046SOL    HW224198   0.440   5.070   4.464  0.7942  3.0235  0.7842
 4047SOL     OW24199   4.630   0.573   2.458  0.0411  0.3857  0.0829
 4047SOL    HW124200   4.621   0.559   2.557  1.3348 -1.1377  0.0154
 4047SOL    HW224201   4.651   0.485   2.414 -2.0722  0.7281 -1.7555
 4048SOL     OW24202   1.151   5.172   7.642  0.2891 -0.0803 -0.2701
 4048SOL    HW124203   1.201   5.089   7.619  2.0904  0.5211  1.3233
 4048SOL    HW224204   1.161   5.190   7.740 -1.6300  1.0057 -0.2604
 4049SOL     OW24205   5.438   5.217   4.717  0.1140 -0.3867  0.1350
 4049SOL    HW124206   5.409   5.255   4.629 -0.5082 -1.8518 -0.3067
 4049SOL    HW224207   5.509   5.276   4.756  0.0997  0.5181 -1.1385
 4050SOL     OW24208   0.115   9.971   3.510  0.0534  0.3111  0.4289
 4050SOL    HW124209   0.154   9.940   3.424  0.2575  0.9217  0.2961
 4050SOL    HW224210   0.044  10.039   3.491  0.7750  1.1676  0.7829
 4051SOL     OW24211   4.154   7.320   8.932  0.0078  0.1810 -0.2401
 4051SOL    HW124212   4.055   7.328   8.921 -0.1621 -1.7633 -0.3082
 4051SOL    HW224213   4.190   7.403   8.973 -2.0646 -0.2282  2.5716
 4052SOL     OW24214   3.422   4.185   7.724 -0.5414  0.3298  0.4538
 4052SOL    HW124215   3.486   4.146   7.657 -1.4589 -2.6880  1.2677
 4052SOL    HW224216   3.469   4.255   7.777  0.7321  1.4768 -2.0646
 4053SOL     OW24217   0.960   4.543   7.834 -0.0195  0.3837 -0.7353
 4053SOL    HW124218   1.014   4.520   7.915  1.1723  1.2961 -1.2467
 4053SOL    HW224219   1.002   4.622   7.788 -2.0525  1.3903 -0.9021
 4054SOL     OW24220   0.325   6.178   6.277  0.4049 -0.0537 -0.4148
 4054SOL    HW124221   0.297   6.179   6.181  1.7598 -0.4003 -0.8140
 4054SOL    HW224222   0.325   6.084   6.311 -2.2113  0.2503  0.5750
 4055SOL     OW24223   1.623   2.686   8.019 -0.3783  0.1932  0.0851
 4055SOL    HW124224   1.528   2.670   8.047 -0.1771 -1.4639 -0.0959
 4055SOL    HW224225   1.657   2.770   8.061 -1.8466  0.6707  0.3424
 4056SOL     OW24226   1.539   8.499   3.629 -0.3261  0.2674 -0.0366
 4056SOL    HW124227   1.626   8.536   3.598  1.7332 -1.5283  3.1994
 4056SOL    HW224228   1.486   8.468   3.551  1.4664  2.3746 -2.1576
 4057SOL     OW24229   2.516   6.059   0.348 -0.2541 -0.2022 -0.4091
 4057SOL    HW124230   2.578   6.054   0.269 -0.7544  1.2930 -0.9153
 4057SOL    HW224231   2.518   6.152   0.386 -1.6330 -0.3388  0.0170
 4058SOL     OW24232   8.288   6.782   4.371  0.1243 -0.4289  0.0083
 4058SOL    HW124233   8.375   6.733   4.372  0.2058 -0.2872 -0.1536
 4058SOL    HW224234   8.215   6.722   4.404  0.2085 -0.6864 -0.2793
 4059SOL     OW24235   9.035   5.388   7.879  0.9231 -0.1651 -0.2406
 4059SOL    HW124236   8.973   5.427   7.947  1.1977 -1.0652  0.5386
 4059SOL    HW224237   9.126   5.377   7.920  0.8653 -1.5551 -0.4662
 4060SOL     OW24238   1.318   5.887   6.270  0.1129 -0.0258  0.2262
 4060SOL    HW124239   1.228   5.845   6.267  0.1663 -0.2777  1.8339
 4060SOL    HW224240   1.387   5.820   6.241 -0.3057  0.5131 -2.1380
 4061SOL     OW24241   2.279   0.016   7.794 -0.1197 -0.3498  0.2590
 4061SOL    HW124242   2.222   0.011   7.877 -1.0885 -1.2956 -0.4466
 4061SOL    HW224243   2.240   0.082   7.731  0.6343  0.3883  0.5611
 4062SOL     OW24244   1.691   9.202   3.785 -0.4185 -0.1722  0.0891
 4062SOL    HW124245   1.770   9.263   3.792 -1.5761  1.2850  0.6197
 4062SOL    HW224246   1.677   9.155   3.872  0.2790 -0.9665 -0.2214
 4063SOL     OW24247   0.068   6.922   3.680 -0.0771 -0.2497 -0.0735
 4063SOL    HW124248   0.014   6.845   3.714 -0.1305 -0.5060 -0.7257
 4063SOL    HW224249   0.056   7.001   3.740 -0.1774 -0.6916  0.4886
 4064SOL     OW24250   4.710   9.832   3.236 -0.7284  0.7916 -0.2881
 4064SOL    HW124251   4.613   9.856   3.243 -1.8721 -1.8290 -4.9561
 4064SOL    HW224252   4.721   9.734   3.251  0.8766  0.7004 -1.8734
 4065SOL     OW24253   5.275   9.656   5.605  0.4902  0.3682  0.0430
 4065SOL    HW124254   5.300   9.681   5.512 -1.1654  0.3225 -0.4307
 4065SOL    HW224255   5.226   9.732   5.648  0.9761  0.2744  0.7665
 4066SOL     OW24256   6.606   9.033   5.794  0.2132 -0.0742  0.0628
 4066SOL    HW124257   6.571   9.023   5.700 -0.5315 -1.1878  0.4499
 4066SOL    HW224258   6.610   9.130   5.817  0.7151  0.2301 -1.2448
 4067SOL     OW24259   3.546   6.556   7.617 -0.2078 -0.4802  0.7235
 4067SOL    HW124260   3.628   6.500   7.630 -0.1020 -0.3551  0.6091
 4067SOL    HW224261   3.512   6.543   7.524 -1.3215 -1.8514  1.3164
 4068SOL     OW24262   2.142   4.998   0.267 -0.2325  0.2794  0.4973
 4068SOL    HW124263   2.188   5.073   0.220 -0.7946  1.4732  1.8222
 4068SOL    HW224264   2.185   4.983   0.356 -0.8211 -0.2491  0.6958
 4069SOL     OW24265   4.347   4.678   6.271 -0.6608 -0.0272 -0.0149
 4069SOL    HW124266   4.358   4.613   6.346 -0.5132 -0.7432 -0.6524
 4069SOL    HW224267   4.369   4.770   6.303  0.1166 -0.4325  0.6240
 4070SOL     OW24268   9.907   6.215   0.660  0.0981 -0.0893  1.0008
 4070SOL    HW124269   9.990   6.269   0.675 -0.3575  0.6380  0.9505
 4070SOL    HW224270   9.876   6.228   0.566  1.5077 -2.6079  0.1430
 4071SOL     OW24271   4.481   1.014   7.545  0.0358  0.4698 -0.8742
 4071SOL    HW124272   4.563   1.073   7.552  1.0207 -0.5645 -3.2764
 4071SOL    HW224273   4.507   0.919   7.560 -0.8589  0.2022 -0.9958
 4072SOL     OW24274   4.161   1.619   7.963 -0.4263 -0.2761  0.1354
 4072SOL    HW124275   4.133   1.523   7.967  0.4230 -0.5207  0.2074
 4072SOL    HW224276   4.151   1.652   7.869  1.0599 -0.9804 -0.2837
 4073SOL     OW24277   1.651   6.350   6.877  0.0164  0.3773  0.6424
 4073SOL    HW124278   1.584   6.372   6.806  1.9649 -1.7332 -1.9595
 4073SOL    HW224279   1.653   6.251   6.891  0.8145  0.6399  2.5338
 4074SOL     OW24280   2.115   5.411   5.828  0.4524  0.4027 -0.1909
 4074SOL    HW124281   2.094   5.349   5.904  0.9161 -1.0740 -1.2456
 4074SOL    HW224282   2.031   5.433   5.778  0.2249  0.9686  0.4351
 4075SOL     OW24283   5.507   4.425   5.777 -0.4194  0.0005  0.1439
 4075SOL    HW124284   5.549   4.340   5.808  0.7600  0.6625  0.3601
 4075SOL    HW224285   5.549   4.455   5.692 -3.1794 -1.4441 -1.8281
 4076SOL     OW24286   2.924   2.395   0.464 -0.3525  0.6189  0.2238
 4076SOL    HW124287   2.972   2.451   0.532  0.3597  0.9394 -0.5382
 4076SOL    HW224288   2.897   2.452   0.386 -1.5719  0.3464  0.4270
 4077SOL     OW24289   7.650   6.153   4.398  0.1139 -0.1024  0.4061
 4077SOL    HW124290   7.669   6.061   4.432 -0.9905  0.4333  2.5910
 4077SOL    HW224291   7.579   6.149   4.328  0.0301 -0.8936  0.5335
 4078SOL     OW24292   1.901   6.379   9.566  0.0220  0.2396  0.3211
 4078SOL    HW124293   1.926   6.447   9.497  0.0669 -0.9863 -0.9000
 4078SOL    HW224294   1.900   6.289   9.524 -1.7759 -0.3067  1.4921
 4079SOL     OW24295   9.888   1.090   7.889 -0.1142 -0.0426 -0.0783
 4079SOL    HW124296   9.964   1.070   7.951 -1.4152 -0.6600  1.3599
 4079SOL    HW224297   9.815   1.135   7.939 -0.7333  0.5117 -1.4411
 4080SOL     OW24298   5.034   0.264   8.404  0.2739  0.3542 -0.1604
 4080SOL    HW124299   4.998   0.355   8.421 -0.8985 -0.3129  0.9418
 4080SOL    HW224300   5.092   0.235   8.481 -0.7514 -0.5164  0.3015
 4081SOL     OW24301   3.235   5.705   0.832 -0.5606  0.7260  0.0035
 4081SOL    HW124302   3.331   5.735   0.838 -0.3531 -0.0954  0.8779
 4081SOL    HW224303   3.198   5.696   0.924 -1.2862  0.3856 -0.3218
 4082SOL     OW24304   3.645   8.942   7.824 -0.2155 -0.5664 -0.6756
 4082SOL    HW124305   3.563   8.998   7.837 -0.7943 -1.8939  1.8537
 4082SOL    HW224306   3.722   8.985   7.870  0.4330  0.4809 -2.7132
 4083SOL     OW24307   0.007   6.017   5.649  0.2779  0.4860 -0.1129
 4083SOL    HW124308   0.017   6.113   5.623 -0.4326  0.2438 -1.3041
 4083SOL    HW224309  -0.022   5.964   5.570 -2.9252 -0.1278  1.3993
 4084SOL     OW24310   4.653   5.680   1.212 -0.2592  0.4785  0.6484
 4084SOL    HW124311   4.659   5.621   1.131 -0.5159 -0.0285  0.9981
 4084SOL    HW224312   4.630   5.773   1.183 -1.0991  0.1355  0.2006
 4085SOL     OW24313   9.003   4.393   0.002  0.0370 -0.2993  0.1810
 4085SOL    HW124314   9.092   4.408   0.046  0.3834  0.1696 -0.6813
 4085SOL    HW224315   9.014   4.335  -0.078 -0.9115 -2.9716  1.9179
 4086SOL     OW24316   7.441   2.387   7.060 -0.4734  0.5004  0.2161
 4086SOL    HW124317   7.514   2.442   7.100 -0.1745  0.2830 -0.0234
 4086SOL    HW224318   7.355   2.408   7.104  0.0027 -0.3798  1.5889
 4087SOL     OW24319   9.837   0.219   7.865 -0.6860 -0.1319 -0.2749
 4087SOL    HW124320   9.908   0.208   7.935 -0.7920 -0.1216 -0.1654
 4087SOL    HW224321   9.846   0.309   7.823 -1.3356  0.3128  0.5222
 4088SOL     OW24322   1.710   8.313   8.688  0.2226 -0.2407 -0.1483
 4088SOL    HW124323   1.737   8.248   8.618  1.9494  0.3650 -0.0728
 4088SOL    HW224324   1.790   8.341   8.741 -0.9421 -0.1904  1.6416
 4089SOL     OW24325   2.004   0.403   3.390  0.4458  0.3734 -0.5760
 4089SOL    HW124326   2.041   0.463   3.461  0.5567 -0.3405 -0.0269
 4089SOL    HW224327   2.027   0.439   3.300 -0.3017  1.6653 -0.2621
 4090SOL     OW24328   8.638   7.958   9.694  0.2697  1.2836  0.4055
 4090SOL    HW124329   8.692   7.874   9.696 -2.2625 -0.4195 -0.4195
 4090SOL    HW224330   8.677   8.022   9.628  2.3541  0.8960  1.2106
 4091SOL     OW24331   4.167   9.844   8.404 -0.1681 -0.4045  0.4063
 4091SOL    HW124332   4.172   9.895   8.318 -0.3783 -1.0914 -0.0230
 4091SOL    HW224333   4.209   9.897   8.477 -0.7673  0.5599  0.0611
 4092SOL     OW24334   8.568   3.797   8.365 -0.4921  0.3953 -0.0396
 4092SOL    HW124335   8.636   3.725   8.353 -0.0509  0.6714  0.7928
 4092SOL    HW224336   8.482   3.756   8.398 -0.2143  0.2552  0.5233
 4093SOL     OW24337   9.149   9.347   7.112  0.6235  0.3883  0.1856
 4093SOL    HW124338   9.070   9.310   7.159  0.0203  0.6895 -0.5782
 4093SOL    HW224339   9.213   9.385   7.179  1.7269 -2.8966  1.0614
 4094SOL     OW24340   8.744   0.386   8.096  0.5667 -0.4462  0.1775
 4094SOL    HW124341   8.663   0.425   8.052 -0.4620 -1.7111  0.9134
 4094SOL    HW224342   8.820   0.451   8.090  0.2582 -0.2746 -2.8237
 4095SOL     OW24343   6.529   9.469   8.287  0.2549 -0.7547  0.3957
 4095SOL    HW124344   6.480   9.382   8.289  0.0732 -0.6563  0.3779
 4095SOL    HW224345   6.496   9.524   8.210  0.4731 -0.7329  0.3187
 4096SOL     OW24346   6.402   7.259   2.607  0.1600 -0.0059  0.0804
 4096SOL    HW124347   6.369   7.333   2.548 -0.2431  0.2315  0.5937
 4096SOL    HW224348   6.346   7.177   2.592 -0.2289  0.1884  0.4502
 4097SOL     OW24349   2.840   3.885   7.395  0.3355  0.1938 -0.3041
 4097SOL    HW124350   2.880   3.821   7.461 -0.7854 -0.6833 -0.4615
 4097SOL    HW224351   2.844   3.978   7.431  0.6486 -0.1559  0.5640
 4098SOL     OW24352   9.221   4.615   5.526  0.5621 -0.0093  0.0882
 4098SOL    HW124353   9.237   4.637   5.623 -1.9207 -2.5175  1.1245
 4098SOL    HW224354   9.152   4.677   5.489  2.1485  1.5295 -0.3858
 4099SOL     OW24355   2.594   4.360   3.946 -0.1834  0.0297 -0.0140
 4099SOL    HW124356   2.616   4.314   4.032 -0.7813  1.2357  0.8111
 4099SOL    HW224357   2.671   4.354   3.884 -0.1132 -1.7144  0.2410
 4100SOL     OW24358   7.748   3.626   6.671  0.4478  0.1351  0.0536
 4100SOL    HW124359   7.653   3.651   6.651 -0.2043 -0.8330  1.8424
 4100SOL    HW224360   7.802   3.708   6.686 -0.0965  0.6941 -0.9712
 4101SOL     OW24361   3.962   8.650   2.143 -0.6417  0.6693  0.1828
 4101SOL    HW124362   4.000   8.729   2.191  1.5441  0.2837 -0.8711
 4101SOL    HW224363   3.961   8.668   2.045  1.4883 -1.2480 -0.2355
 4102SOL     OW24364   2.524   8.088   7.051 -0.6416  0.4531 -0.1572
 4102SOL    HW124365   2.491   8.018   6.988 -0.6665  0.2869  0.0405
 4102SOL    HW224366   2.493   8.178   7.020 -0.7683  0.3588 -0.3051
 4103SOL     OW24367   3.158   8.252   6.794 -0.1025  0.0129  0.2627
 4103SOL    HW124368   3.146   8.350   6.809  0.1667 -0.1118  1.3216
 4103SOL    HW224369   3.072   8.213   6.759 -0.1511  0.6573 -0.3380
 4104SOL     OW24370   1.483   2.547   0.044  0.1603  0.1796 -0.3245
 4104SOL    HW124371   1.403   2.603   0.065  0.6118  1.3261 -1.6505
 4104SOL    HW224372   1.542   2.594  -0.021  1.2941 -1.2009 -0.3361
 4105SOL     OW24373   8.959   4.641   6.643  0.1311 -0.6589  0.0628
 4105SOL    HW124374   8.879   4.684   6.602  0.1884  1.3638  1.9630
 4105SOL    HW224375   8.941   4.543   6.655 -2.1245 -0.2289  0.5263
 4106SOL     OW24376   3.888   0.778   2.559 -0.1330  0.0171  0.1158
 4106SOL    HW124377   3.926   0.746   2.646  1.1446 -0.0342 -0.4575
 4106SOL    HW224378   3.945   0.851   2.522 -0.7984  0.1989 -0.5664
 4107SOL     OW24379   6.354   7.475   7.147  0.1293 -0.2606 -0.3676
 4107SOL    HW124380   6.283   7.433   7.090 -3.0178  1.3273  2.2196
 4107SOL    HW224381   6.375   7.415   7.224 -0.1614  0.3585  0.1920
 4108SOL     OW24382   0.488   6.796   9.648  0.1020 -0.1865  0.1689
 4108SOL    HW124383   0.406   6.750   9.681  0.1663  0.5072  1.3350
 4108SOL    HW224384   0.474   6.826   9.554 -0.8003 -0.5252  0.1950
 4109SOL     OW24385   0.933   2.128   6.911  0.0549 -0.4422  0.3100
 4109SOL    HW124386   0.958   2.042   6.955 -1.6141 -1.8744 -1.4072
 4109SOL    HW224387   1.005   2.155   6.847  0.5582 -0.5788  0.8112
 4110SOL     OW24388   9.883   7.017   4.318 -0.6417  0.1921  0.0536
 4110SOL    HW124389   9.953   7.024   4.389 -0.9798 -0.8804  0.5121
 4110SOL    HW224390   9.842   7.107   4.303 -1.0095  0.3253  1.6951
 4111SOL     OW24391   2.524   4.618   7.371  0.1631  0.4270 -0.7318
 4111SOL    HW124392   2.480   4.529   7.356 -0.0106  0.4072 -0.1015
 4111SOL    HW224393   2.456   4.691   7.367  0.3310  0.5496 -1.4089
 4112SOL     OW24394   2.521   3.106   6.281  0.1196 -0.1389  0.4961
 4112SOL    HW124395   2.590   3.098   6.210  0.8538 -0.3224  1.2249
 4112SOL    HW224396   2.539   3.188   6.336 -0.2234 -0.2065  0.7077
 4113SOL     OW24397   9.483   5.677   8.178 -0.3342 -0.0930 -0.4108
 4113SOL    HW124398   9.565   5.675   8.234  0.9739  0.3070 -2.2636
 4113SOL    HW224399   9.450   5.772   8.171 -0.6026 -0.1681 -0.1664
 4114SOL     OW24400   8.855   8.340   9.689 -0.2342  0.7125 -0.2935
 4114SOL    HW124401   8.797   8.288   9.752 -1.5048  0.4145 -1.6609
 4114SOL    HW224402   8.946   8.300   9.687 -0.3246  0.4200  0.9591
 4115SOL     OW24403   0.452   3.832   6.499 -0.2728 -0.5995 -0.0661
 4115SOL    HW124404   0.479   3.737   6.481 -0.4669 -0.6375 -0.1585
 4115SOL    HW224405   0.532   3.891   6.492 -0.6801 -0.3346 -3.0841
 4116SOL     OW24406   6.726   9.699   0.101 -0.3032  0.7732  0.1537
 4116SOL    HW124407   6.757   9.605   0.085 -1.6246  0.4605 -0.6859
 4116SOL    HW224408   6.729   9.719   0.199  0.2384 -0.0609  0.3130
 4117SOL     OW24409   6.325   3.333   7.874 -0.3386 -0.2246  0.0232
 4117SOL    HW124410   6.259   3.339   7.949 -1.1464  0.5031 -0.7293
 4117SOL    HW224411   6.362   3.424   7.855  1.6649 -0.7868  1.1150
 4118SOL     OW24412   1.428   7.035   7.591  0.3448  0.3526 -0.1280
 4118SOL    HW124413   1.374   7.111   7.556 -0.0587 -0.4323 -1.2431
 4118SOL    HW224414   1.407   6.952   7.539  1.0948 -0.4279  0.7833
 4119SOL     OW24415   7.180   9.439   9.740 -0.9209 -0.0579 -0.1934
 4119SOL    HW124416   7.216   9.426   9.832 -0.8930  0.9330 -0.0567
 4119SOL    HW224417   7.221   9.521   9.699 -0.7835 -0.6053 -1.1634
 4120SOL     OW24418   6.244   8.552   4.301 -0.0795 -0.1598  0.2233
 4120SOL    HW124419   6.325   8.590   4.347  0.5288 -0.1633 -0.8377
 4120SOL    HW224420   6.164   8.606   4.326  0.7927  1.9606 -1.3967
 4121SOL     OW24421   8.192   5.444   7.196 -0.0226 -0.4840  0.3258
 4121SOL    HW124422   8.238   5.444   7.107 -2.3505 -1.2442 -0.9033
 4121SOL    HW224423   8.251   5.489   7.264  2.6665 -1.7407 -1.0969
 4122SOL     OW24424   3.186   1.955   5.877  0.0523 -0.4307 -0.0086
 4122SOL    HW124425   3.259   2.012   5.839 -0.9390  0.8333 -0.0486
 4122SOL    HW224426   3.226   1.879   5.928  1.3923  0.0804 -0.2768
 4123SOL     OW24427   8.689   3.130   5.577  0.4321 -0.1421 -0.4383
 4123SOL    HW124428   8.662   3.141   5.482  2.3885  0.1899 -0.9624
 4123SOL    HW224429   8.787   3.116   5.583  0.4362  0.5511  1.5858
 4124SOL     OW24430   1.199   8.764   0.837 -0.4188 -0.7105  0.0679
 4124SOL    HW124431   1.122   8.736   0.780 -1.8579  0.2223  1.4914
 4124SOL    HW224432   1.186   8.860   0.864  0.4895 -1.0006  1.5496
 4125SOL     OW24433   0.403   8.824   7.698  0.6314 -0.2878  0.3115
 4125SOL    HW124434   0.353   8.911   7.705  0.1423 -0.5293 -0.1503
 4125SOL    HW224435   0.417   8.787   7.790 -0.7713 -0.6278  0.3991
 4126SOL     OW24436   0.834   5.672   8.991  0.0322  0.0747 -0.0728
 4126SOL    HW124437   0.801   5.700   8.901 -0.5025 -0.4641 -0.0424
 4126SOL    HW224438   0.926   5.710   9.006  0.0622  0.2855 -0.7844
 4127SOL     OW24439   7.091   9.971   8.154  0.4955 -0.0112 -0.0759
 4127SOL    HW124440   7.075   9.873   8.166  1.6622 -0.3427 -1.2151
 4127SOL    HW224441   7.186   9.993   8.177 -0.6050  1.4417  3.5109
 4128SOL     OW24442   7.876   5.783   5.732  0.0004 -0.0417  0.6058
 4128SOL    HW124443   7.822   5.821   5.657 -1.4973 -1.9226  0.6861
 4128SOL    HW224444   7.909   5.857   5.790 -0.6980  1.2842 -0.6582
 4129SOL     OW24445   3.615   5.947   4.291  0.3137  0.8213  0.3964
 4129SOL    HW124446   3.668   5.900   4.219 -2.7637 -0.4641 -1.1073
 4129SOL    HW224447   3.632   5.902   4.379  2.5951  1.1819  0.1908
 4130SOL     OW24448   2.008   0.295   7.332 -0.2447 -0.0990 -0.1382
 4130SOL    HW124449   1.928   0.298   7.392 -0.2056  0.3870 -0.1082
 4130SOL    HW224450   1.990   0.230   7.257 -1.0606  0.7138 -0.6689
 4131SOL     OW24451   9.942   8.763   9.373 -0.2870  0.2750  0.2379
 4131SOL    HW124452   9.860   8.769   9.431 -0.5322  0.1821 -0.0972
 4131SOL    HW224453   9.917   8.722   9.285  0.8037 -3.3411  1.5220
 4132SOL     OW24454   2.025   0.433   8.402 -0.4821 -0.6638 -0.6050
 4132SOL    HW124455   1.955   0.473   8.342 -1.6919  0.0548  1.2297
 4132SOL    HW224456   1.998   0.340   8.427  1.0361 -1.7238 -2.7699
 4133SOL     OW24457   1.413   5.502   7.935 -0.3380 -0.6032  0.1779
 4133SOL    HW124458   1.480   5.558   7.984  1.3975 -2.6289  0.1502
 4133SOL    HW224459   1.442   5.490   7.840 -0.5140 -1.8700  0.2771
 4134SOL     OW24460   3.992   0.034   5.262 -0.1472 -0.3802  0.4140
 4134SOL    HW124461   3.981   0.045   5.163  0.7733 -0.4858  0.2998
 4134SOL    HW224462   3.902   0.039   5.306 -0.8109 -2.2659 -0.6272
 4135SOL     OW24463   5.305   0.445   6.462 -0.2211  0.1372 -0.6516
 4135SOL    HW124464   5.318   0.361   6.410  0.1811  0.3815 -0.9567
 4135SOL    HW224465   5.278   0.519   6.400 -2.5753 -0.2252 -0.1025
 4136SOL     OW24466   2.310   8.198   9.508  0.1936  0.0516 -0.2120
 4136SOL    HW124467   2.289   8.295   9.510 -1.3296 -0.2503 -0.6744
 4136SOL    HW224468   2.355   8.175   9.422  1.4289  0.5046  0.3038
 4137SOL     OW24469   1.428   3.911   7.754  0.0257  0.3079 -0.3696
 4137SOL    HW124470   1.427   3.859   7.668 -1.4258 -0.7855  0.2902
 4137SOL    HW224471   1.387   4.001   7.738  0.0019  0.2105 -0.8735
 4138SOL     OW24472   3.215   1.749   6.375  0.0462  0.4886 -0.6723
 4138SOL    HW124473   3.264   1.751   6.463 -1.0983  1.5567 -0.0528
 4138SOL    HW224474   3.279   1.773   6.302  1.1867 -1.0834 -0.2330
 4139SOL     OW24475   8.503   8.857   5.483 -0.0764  0.1234 -0.0268
 4139SOL    HW124476   8.441   8.900   5.549 -1.1111 -1.0794 -0.1891
 4139SOL    HW224477   8.452   8.833   5.400  0.5615 -1.0018 -0.1040
 4140SOL     OW24478   4.789   3.176   0.950  0.3020  0.1442  0.0750
 4140SOL    HW124479   4.771   3.082   0.978  1.2461 -1.0449 -3.1111
 4140SOL    HW224480   4.703   3.219   0.922 -0.1110  0.1916  1.4038
 4141SOL     OW24481   2.896   4.943   7.250  0.2166 -0.0381 -0.5671
 4141SOL    HW124482   2.842   4.967   7.331  0.3388 -0.8051 -0.2577
 4141SOL    HW224483   2.982   4.995   7.251  1.1202 -1.5332  0.8471
 4142SOL     OW24484   5.794   6.345   3.929  0.5602 -0.9562  0.4601
 4142SOL    HW124485   5.884   6.329   3.970  0.2250 -2.9826  0.4558
 4142SOL    HW224486   5.723   6.312   3.991 -0.0875 -1.2872 -0.4482
 4143SOL     OW24487   3.470   9.210   0.068 -0.2226  0.3014  0.3785
 4143SOL    HW124488   3.447   9.284   0.132  0.0095 -0.5397  1.4346
 4143SOL    HW224489   3.465   9.245  -0.025 -1.7405  1.2203  0.7891
 4144SOL     OW24490   6.452   0.642   6.236  0.7481 -0.0487 -0.3016
 4144SOL    HW124491   6.382   0.691   6.184  0.7789  1.3394  0.9103
 4144SOL    HW224492   6.533   0.628   6.179  1.2977  2.6485 -0.2778
 4145SOL     OW24493   4.326   8.860   7.219 -0.2325  0.5144  0.3224
 4145SOL    HW124494   4.395   8.931   7.202  0.1964  0.3841  1.4408
 4145SOL    HW224495   4.239   8.904   7.242 -0.2170  0.6857  0.0498
 4146SOL     OW24496   8.033   2.055   0.317 -0.6993  0.1206 -0.4769
 4146SOL    HW124497   8.030   1.957   0.296 -1.3643 -0.0686  0.4960
 4146SOL    HW224498   8.004   2.070   0.411  0.6844  1.1274 -0.1877
 4147SOL     OW24499   9.999   9.339   7.566  0.6001 -0.2665 -0.5801
 4147SOL    HW124500   9.909   9.307   7.536  0.1470  1.4442 -1.1535
 4147SOL    HW224501  10.070   9.288   7.519 -0.0941 -0.6130 -1.2665
 4148SOL     OW24502   9.010   5.726   6.186  0.1242  0.3574 -0.7098
 4148SOL    HW124503   9.007   5.661   6.262 -0.3370  0.8677 -0.2941
 4148SOL    HW224504   9.098   5.773   6.186 -0.3401  1.2535  0.2615
 4149SOL     OW24505   1.605   5.689   6.659  0.1698 -0.0585  1.0844
 4149SOL    HW124506   1.665   5.676   6.580  0.6728  0.3582  1.3933
 4149SOL    HW224507   1.536   5.617   6.661  0.3624 -0.2614  0.4514
 4150SOL     OW24508   1.407   2.233   5.636 -0.4257  0.0859 -0.1266
 4150SOL    HW124509   1.439   2.199   5.725  0.9893  0.8787 -0.3066
 4150SOL    HW224510   1.448   2.322   5.619  0.9655 -0.9588 -2.4868
 4151SOL     OW24511   0.126   4.374   4.209 -0.4758  0.4318 -0.2927
 4151SOL    HW124512   0.111   4.276   4.222 -0.7486  0.3566 -1.1049
 4151SOL    HW224513   0.179   4.389   4.125 -0.0446  0.9550  0.0677
 4152SOL     OW24514   7.145   7.472   2.185 -0.1546  0.4818 -0.0380
 4152SOL    HW124515   7.138   7.566   2.151 -0.1553  0.4164 -0.2183
 4152SOL    HW224516   7.181   7.473   2.278  2.0266  0.5205 -0.8614
 4153SOL     OW24517   5.945   7.620   6.454 -0.2840 -0.6618  0.4638
 4153SOL    HW124518   6.015   7.553   6.479  0.5538 -0.1520 -0.4356
 4153SOL    HW224519   5.922   7.608   6.357 -0.8767 -0.3192  0.5629
 4154SOL     OW24520   8.291   5.892   4.136  0.1454  0.6182 -0.2570
 4154SOL    HW124521   8.359   5.923   4.070 -1.1735 -0.1187 -1.9860
 4154SOL    HW224522   8.337   5.851   4.215  1.6885 -0.0452 -1.4916
 4155SOL     OW24523   9.650   6.135   6.996 -0.0735 -0.4908  0.5627
 4155SOL    HW124524   9.621   6.039   7.001 -1.8727  0.0714  1.6252
 4155SOL    HW224525   9.731   6.148   7.054 -1.0315 -0.9699  2.0454
 4156SOL     OW24526   6.946   4.264   2.191  1.0080  0.0384 -0.5394
 4156SOL    HW124527   7.046   4.266   2.186  1.1388 -0.7810  1.3901
 4156SOL    HW224528   6.917   4.283   2.285 -0.5301 -2.6523 -0.4424
 4157SOL     OW24529   1.298   4.077   8.545 -0.0780  0.2992 -0.0580
 4157SOL    HW124530   1.310   4.173   8.521  0.5393 -0.0287 -1.0802
 4157SOL    HW224531   1.208   4.046   8.516  0.0060  0.3708 -0.3957
 4158SOL     OW24532   5.188   6.293   3.251  0.1079  0.1563  0.5013
 4158SOL    HW124533   5.246   6.362   3.294  0.1041  1.2270 -1.1852
 4158SOL    HW224534   5.202   6.205   3.297  0.4642  1.1568  2.3647
 4159SOL     OW24535   2.978   2.006   8.525  0.2590 -0.0562 -0.0093
 4159SOL    HW124536   2.950   2.080   8.464  0.6192 -0.0814 -0.2097
 4159SOL    HW224537   3.015   2.045   8.610  1.0917  0.0169 -0.3962
 4160SOL     OW24538   7.010   8.542   2.470  0.1291  0.1619 -0.6218
 4160SOL    HW124539   6.933   8.606   2.476  1.6253  1.8636  0.7632
 4160SOL    HW224540   7.059   8.539   2.557  1.6593 -0.8893 -1.4871
 4161SOL     OW24541   2.021   9.183   5.098  0.1317 -0.6372 -0.3427
 4161SOL    HW124542   1.989   9.113   5.162 -0.5500  0.5987  0.6862
 4161SOL    HW224543   1.960   9.187   5.019 -1.2729  0.5066  0.7852
 4162SOL     OW24544   2.473   5.402   1.380 -0.0951 -0.0099  0.1734
 4162SOL    HW124545   2.485   5.342   1.459 -1.6265 -0.1486  0.3233
 4162SOL    HW224546   2.410   5.359   1.315  0.5572  0.4445 -0.7689
 4163SOL     OW24547   0.301   4.480   6.503 -0.1237  0.1250 -0.1289
 4163SOL    HW124548   0.349   4.524   6.580  0.3238 -0.6211  0.0241
 4163SOL    HW224549   0.331   4.385   6.496 -0.1685  0.1904 -1.2286
 4164SOL     OW24550   1.743   5.082   6.761  0.6023  0.2592 -0.3450
 4164SOL    HW124551   1.675   5.026   6.807  1.4595 -0.4995  0.0281
 4164SOL    HW224552   1.733   5.071   6.662 -0.3718  0.8318 -0.3069
 4165SOL     OW24553   3.703   7.268   7.825 -0.0272  0.1188  0.4734
 4165SOL    HW124554   3.756   7.342   7.866  0.7655  0.4265 -1.0679
 4165SOL    HW224555   3.684   7.289   7.729 -1.7429 -0.6432  0.6265
 4166SOL     OW24556   9.625   1.399   3.267 -0.3364 -0.5672 -0.0601
 4166SOL    HW124557   9.701   1.339   3.290 -0.5329 -1.1532 -0.9127
 4166SOL    HW224558   9.543   1.344   3.251 -0.3831 -0.1144 -1.3836
 4167SOL     OW24559   9.806   7.066   0.105  0.1905  0.0268 -0.1133
 4167SOL    HW124560   9.839   7.151   0.064  2.1327 -0.7167 -0.1436
 4167SOL    HW224561   9.712   7.079   0.137 -0.5826  1.3210 -2.6956
 4168SOL     OW24562   8.826   2.008   5.842 -0.8350 -0.1039  0.6064
 4168SOL    HW124563   8.734   1.977   5.815 -1.5846  1.1549  1.6771
 4168SOL    HW224564   8.890   1.931   5.837 -1.4480 -0.5029 -2.3467
 4169SOL     OW24565   1.818   8.463   5.448  0.0707  0.2278 -0.8128
 4169SOL    HW124566   1.889   8.393   5.445 -0.5694 -0.4496 -0.4158
 4169SOL    HW224567   1.834   8.523   5.526 -1.1882 -1.4466  0.7711
 4170SOL     OW24568   3.303   9.541   2.349 -0.3137  0.1927  0.2721
 4170SOL    HW124569   3.370   9.470   2.331  0.4172  0.9050  0.1417
 4170SOL    HW224570   3.346   9.614   2.402 -1.0451  0.5519  0.3779
 4171SOL     OW24571   5.795   6.405   1.659 -0.2907  0.9488 -0.8697
 4171SOL    HW124572   5.810   6.473   1.731  0.0569  0.6020 -0.6091
 4171SOL    HW224573   5.697   6.394   1.643 -0.4802 -0.7915  1.3029
 4172SOL     OW24574   2.705   7.179   1.700  0.1878 -0.2701  0.3039
 4172SOL    HW124575   2.707   7.125   1.784 -1.5622 -0.2663  0.3624
 4172SOL    HW224576   2.798   7.188   1.664  0.5835 -2.7987  0.6085
 4173SOL     OW24577   0.611   8.029   7.909 -0.8211  0.0967 -0.8333
 4173SOL    HW124578   0.663   8.015   7.993  0.0581 -0.7580 -1.5088
 4173SOL    HW224579   0.625   8.122   7.875 -3.2016  1.2987  1.3225
 4174SOL     OW24580   6.936   3.113   6.577  0.0652 -0.8097 -0.0947
 4174SOL    HW124581   6.919   3.181   6.506  0.9221 -0.9368 -0.4249
 4174SOL    HW224582   6.930   3.021   6.537  1.4561 -0.8575 -0.2045
 4175SOL     OW24583   1.240   9.526   3.029 -0.2601 -0.0211 -0.3634
 4175SOL    HW124584   1.258   9.614   2.984 -2.1753  0.3435 -0.4710
 4175SOL    HW224585   1.253   9.452   2.963  1.6424  0.1258 -0.2001
 4176SOL     OW24586   1.169   0.404   6.899  0.0379  0.1995  0.0024
 4176SOL    HW124587   1.089   0.448   6.858  0.8662  2.3467  0.6295
 4176SOL    HW224588   1.182   0.439   6.992  1.2945 -0.6702  0.1618
 4177SOL     OW24589   1.586   5.304   8.293 -0.1090  0.3927  0.2236
 4177SOL    HW124590   1.501   5.261   8.263 -0.1523 -0.1739  1.1631
 4177SOL    HW224591   1.648   5.235   8.329  0.5220  0.8813  0.0725
 4178SOL     OW24592   4.232   8.541   4.103 -0.6411 -0.4785  0.0079
 4178SOL    HW124593   4.276   8.629   4.118 -0.1264 -0.8246  0.5484
 4178SOL    HW224594   4.173   8.547   4.023  0.1147  0.0905 -0.5167
 4179SOL     OW24595   8.911   5.521   0.452  0.2726 -0.2333 -0.5902
 4179SOL    HW124596   8.863   5.465   0.384 -0.1559 -2.0529  1.1853
 4179SOL    HW224597   8.988   5.469   0.489  1.9889  1.6613 -1.4169
 4180SOL     OW24598   2.765   8.279   8.836 -0.1229  0.2622 -0.4323
 4180SOL    HW124599   2.711   8.213   8.889  2.1688 -0.5837  0.8850
 4180SOL    HW224600   2.822   8.231   8.770 -0.0448  1.0697 -0.9668
 4181SOL     OW24601   1.775   5.642   4.655 -0.2237 -0.3758  0.3282
 4181SOL    HW124602   1.870   5.644   4.687 -0.0921 -1.0599 -0.0130
 4181SOL    HW224603   1.720   5.589   4.720 -0.0594 -1.3216 -0.2976
 4182SOL     OW24604   9.313   3.155   3.919  0.8315  0.4810 -0.3314
 4182SOL    HW124605   9.227   3.205   3.932 -0.6824 -1.7531 -1.4197
 4182SOL    HW224606   9.323   3.132   3.822  1.7603 -0.8459  0.0737
 4183SOL     OW24607   1.063   6.145   6.455  0.0696  0.5258 -0.6418
 4183SOL    HW124608   1.016   6.067   6.414  0.1329 -0.0861  0.4428
 4183SOL    HW224609   0.997   6.215   6.480 -0.2345 -0.1769  0.5396
 4184SOL     OW24610   1.905   4.479   7.567  0.2486 -0.1901  0.2067
 4184SOL    HW124611   1.994   4.511   7.598  0.2605 -0.3530  0.3423
 4184SOL    HW224612   1.918   4.401   7.505  0.1561 -0.8677  1.0316
 4185SOL     OW24613   1.302   4.436   8.742 -0.4220  0.0050  0.2350
 4185SOL    HW124614   1.311   4.392   8.832 -1.8878  3.1474  2.0307
 4185SOL    HW224615   1.206   4.460   8.728  0.0390  0.8285 -1.5474
 4186SOL     OW24616   0.145   7.914   6.750 -0.3892  0.2747 -0.0764
 4186SOL    HW124617   0.099   7.889   6.664 -0.3056 -2.2581  0.5680
 4186SOL    HW224618   0.244   7.909   6.738 -0.3697  0.4155  0.0241
 4187SOL     OW24619   4.263   4.265   9.999  0.0722 -0.0388 -0.1262
 4187SOL    HW124620   4.191   4.201   9.972  1.2173 -1.2981 -0.2369
 4187SOL    HW224621   4.266   4.341   9.935  1.0305 -1.6689 -2.0781
 4188SOL     OW24622   2.150   6.785   8.376 -0.1783  0.4003 -0.2855
 4188SOL    HW124623   2.243   6.816   8.393  0.3620  0.0052 -2.3188
 4188SOL    HW224624   2.105   6.847   8.312 -0.9839  0.0787 -0.0395
 4189SOL     OW24625   2.377   3.423   7.093 -0.6116 -0.6927 -0.1723
 4189SOL    HW124626   2.301   3.475   7.133  0.3100 -0.4858  1.3729
 4189SOL    HW224627   2.354   3.326   7.095 -2.1053 -0.4166 -2.5543
 4190SOL     OW24628   6.587   5.537   7.928  0.1081  0.2141 -0.0874
 4190SOL    HW124629   6.655   5.464   7.922  2.4982  2.4303 -0.7561
 4190SOL    HW224630   6.603   5.603   7.855 -2.5695  0.9632 -0.0255
 4191SOL     OW24631   9.037   4.866   7.055  0.0708 -0.3893  0.3919
 4191SOL    HW124632   9.040   4.848   7.153 -2.3648 -2.5873  0.0998
 4191SOL    HW224633   9.085   4.792   7.006  0.7196  0.3660 -0.1318
 4192SOL     OW24634   4.922   1.057   7.828 -0.2816  0.5583  0.0512
 4192SOL    HW124635   4.827   1.051   7.857  0.2090 -0.4612  1.5279
 4192SOL    HW224636   4.928   1.109   7.743 -2.2955 -0.5417 -0.7942
 4193SOL     OW24637   1.166   3.205   1.483 -0.3918  0.0988  0.1494
 4193SOL    HW124638   1.228   3.127   1.475 -2.0465 -1.3515  1.1287
 4193SOL    HW224639   1.124   3.223   1.395  0.0946 -0.0371 -0.1113
 4194SOL     OW24640   0.725   7.346   1.649 -0.4448  0.3549  0.2034
 4194SOL    HW124641   0.748   7.422   1.588  0.9878  1.2383  1.7782
 4194SOL    HW224642   0.780   7.266   1.624 -1.9578 -0.1831 -1.4616
 4195SOL     OW24643   2.284   0.171   7.398 -0.1019  0.1315  0.6488
 4195SOL    HW124644   2.333   0.087   7.377  1.0530  0.5245  1.6482
 4195SOL    HW224645   2.208   0.183   7.335 -0.3126 -1.6807  0.5423
 4196SOL     OW24646   4.583   7.253   7.747 -0.3104  0.3579  0.3132
 4196SOL    HW124647   4.622   7.229   7.658 -2.6961  0.6616 -0.8526
 4196SOL    HW224648   4.528   7.177   7.781 -0.9555  0.9530  0.6186
 4197SOL     OW24649   8.986   0.390   8.884 -0.3715  0.9793  0.6527
 4197SOL    HW124650   8.902   0.337   8.869  0.0880  0.3489  0.2771
 4197SOL    HW224651   9.050   0.372   8.810  0.0372  1.5858  0.8578
 4198SOL     OW24652   0.512   8.838   7.438  0.6433 -0.3732 -1.3669
 4198SOL    HW124653   0.587   8.901   7.457  2.0489 -2.2248 -0.5912
 4198SOL    HW224654   0.461   8.822   7.522 -1.7662  2.2562 -2.2619
 4199SOL     OW24655   1.019   0.581   0.872 -0.0541  0.1517 -0.1707
 4199SOL    HW124656   0.957   0.592   0.794 -3.2933 -1.5813  2.0188
 4199SOL    HW224657   1.044   0.671   0.908 -1.2218  0.8809 -1.1409
 4200SOL     OW24658   9.281   8.430   6.460 -0.4424  0.0718  0.7403
 4200SOL    HW124659   9.369   8.431   6.508  0.3803 -1.3483 -0.6612
 4200SOL    HW224660   9.230   8.513   6.483  1.6101  1.3352  0.9536
 4201SOL     OW24661   0.122   5.445   8.969  0.0813  0.0539  0.5606
 4201SOL    HW124662   0.156   5.381   8.900 -0.0983  1.1436 -0.5472
 4201SOL    HW224663   0.154   5.415   9.059  3.7195  0.8187 -0.3861
 4202SOL     OW24664   0.956   4.293   1.080  0.0680 -0.1355 -0.0765
 4202SOL    HW124665   1.054   4.294   1.101 -0.1508  0.3066  0.9823
 4202SOL    HW224666   0.931   4.205   1.039  0.6885 -0.7126  0.7666
 4203SOL     OW24667   3.242   5.660   2.609  0.1621 -0.5285 -0.5920
 4203SOL    HW124668   3.171   5.592   2.592  0.6523 -1.2068  0.0270
 4203SOL    HW224669   3.316   5.649   2.543  0.6044 -1.1081 -0.0012
 4204SOL     OW24670   0.011   3.951   7.599 -0.4226 -0.0594  0.7668
 4204SOL    HW124671   0.107   3.931   7.617 -0.5610 -0.8153  0.6963
 4204SOL    HW224672  -0.045   3.917   7.674 -0.7567 -0.8345  0.1769
 4205SOL     OW24673   0.441   8.819   3.257 -0.1397  0.8184 -0.1583
 4205SOL    HW124674   0.529   8.772   3.263 -0.8207 -0.4698  0.1245
 4205SOL    HW224675   0.370   8.759   3.293 -1.4685  0.9350 -2.5205
 4206SOL     OW24676   2.172   4.728   7.796 -0.0221  0.4702 -0.1943
 4206SOL    HW124677   2.144   4.675   7.715  1.9179 -0.5480 -0.2378
 4206SOL    HW224678   2.115   4.702   7.874  0.0908 -0.8154 -0.5174
 4207SOL     OW24679   4.064   7.978   4.513  0.2412  0.5279  0.3679
 4207SOL    HW124680   4.039   8.072   4.491  0.9427  0.5914 -0.2155
 4207SOL    HW224681   4.046   7.959   4.609  0.5133  1.3969  0.5875
 4208SOL     OW24682   6.033   5.302   6.394  0.5932 -0.0453  0.2246
 4208SOL    HW124683   6.125   5.270   6.413  0.9165  1.9467  2.1723
 4208SOL    HW224684   5.975   5.285   6.474 -0.7072 -1.1084 -0.9095
 4209SOL     OW24685   7.316   9.018   6.244  0.5554  0.5413 -0.3555
 4209SOL    HW124686   7.356   9.001   6.154  2.1098 -0.6396  0.5183
 4209SOL    HW224687   7.232   8.965   6.254  3.2622 -3.7578  0.8513
 4210SOL     OW24688   7.587   6.739   7.935 -0.1490  0.7069  0.0936
 4210SOL    HW124689   7.550   6.817   7.884 -1.1819 -0.4214 -0.9199
 4210SOL    HW224690   7.653   6.772   8.003  0.6506  2.3071 -1.4194
 4211SOL     OW24691   0.844   8.646   0.468  0.9822  0.0828  0.1543
 4211SOL    HW124692   0.899   8.670   0.388  0.6746  0.3730  0.0297
 4211SOL    HW224693   0.760   8.602   0.438  0.5909  0.7305  0.2892
 4212SOL     OW24694   1.773   3.637   5.152 -0.0177  0.0105  0.8754
 4212SOL    HW124695   1.811   3.729   5.143  1.2279 -0.5457  0.4134
 4212SOL    HW224696   1.740   3.625   5.246  0.0142  0.8500  1.0022
 4213SOL     OW24697   4.483   6.107   8.729 -0.6682  0.1601  0.9887
 4213SOL    HW124698   4.414   6.179   8.740 -0.9887  0.1037 -0.5529
 4213SOL    HW224699   4.488   6.080   8.633  0.3935 -0.9527  1.3457
 4214SOL     OW24700   9.963   8.095   8.019 -0.2299  0.4762 -0.0308
 4214SOL    HW124701  10.016   8.142   8.090  2.4015 -1.1448 -0.8447
 4214SOL    HW224702   9.907   8.161   7.970  0.6132  2.1689  1.2236
 4215SOL     OW24703   5.402   5.821   1.144  0.0086  0.2169  0.3767
 4215SOL    HW124704   5.387   5.901   1.085 -1.0649 -0.4422 -0.2745
 4215SOL    HW224705   5.319   5.805   1.198  0.5870  0.1437  1.2405
 4216SOL     OW24706   5.079   9.720   7.710  0.0980  0.3738  0.5669
 4216SOL    HW124707   4.989   9.708   7.669  0.3286  0.3403  0.0633
 4216SOL    HW224708   5.144   9.659   7.665  0.4430  0.6439  0.6985
 4217SOL     OW24709   2.071   9.402   4.337  0.0199  0.3691 -0.3267
 4217SOL    HW124710   2.063   9.484   4.394 -0.7010  0.7272 -0.9405
 4217SOL    HW224711   2.165   9.396   4.301  0.6214 -0.1233  1.2738
 4218SOL     OW24712   3.065   1.964   7.712 -0.1125  0.1241 -0.2054
 4218SOL    HW124713   3.069   1.975   7.612  1.1117  2.9845  0.0934
 4218SOL    HW224714   3.043   2.052   7.754 -1.9756 -1.3433  2.0159
 4219SOL     OW24715   9.130   8.470   8.835 -0.4473  0.1826  0.2021
 4219SOL    HW124716   9.031   8.460   8.843 -0.6013  1.9930  0.6124
 4219SOL    HW224717   9.154   8.488   8.740 -0.5488  0.1397  0.1678
 4220SOL     OW24718   0.762   7.719   8.989 -0.2610  0.3768  0.3127
 4220SOL    HW124719   0.725   7.784   9.056 -0.8784 -0.9437  1.2892
 4220SOL    HW224720   0.692   7.699   8.921  0.3077  1.5844 -0.6368
 4221SOL     OW24721   0.268   2.634   2.588  0.1982  0.1345 -0.1105
 4221SOL    HW124722   0.216   2.636   2.503  0.6954  0.6868 -0.4057
 4221SOL    HW224723   0.338   2.706   2.586  2.5576 -2.1041 -0.7254
 4222SOL     OW24724   4.031   4.868   8.663 -0.0765 -0.3871  0.0804
 4222SOL    HW124725   4.027   4.771   8.684  0.7881 -0.0508  1.8585
 4222SOL    HW224726   4.029   4.881   8.563 -1.0951 -2.1592 -0.1406
 4223SOL     OW24727   3.106   0.223   6.203  0.0478 -0.3020  0.1705
 4223SOL    HW124728   3.133   0.305   6.152  0.7316  0.7112  2.0907
 4223SOL    HW224729   3.063   0.158   6.141 -0.0658  1.3044 -1.4925
 4224SOL     OW24730   5.205   9.538   6.450 -1.0334  0.3130  0.7266
 4224SOL    HW124731   5.215   9.632   6.483 -1.0460 -0.4856  3.0971
 4224SOL    HW224732   5.268   9.478   6.500 -1.2743 -0.9956 -0.5133
 4225SOL     OW24733   3.406   1.993   6.652 -0.1979  0.1455 -0.4474
 4225SOL    HW124734   3.396   1.907   6.603 -0.4688  0.2602 -0.5947
 4225SOL    HW224735   3.473   1.982   6.725 -0.2186 -0.1865 -0.4771
 4226SOL     OW24736   9.381   0.004   4.132 -0.7568 -0.0462  0.1474
 4226SOL    HW124737   9.286  -0.009   4.161 -0.8407 -0.0381 -0.1212
 4226SOL    HW224738   9.424  -0.085   4.116 -1.1274 -0.0246 -1.0352
 4227SOL     OW24739   7.248   9.417   8.960  0.1615  0.4605  0.1529
 4227SOL    HW124740   7.150   9.425   8.980 -0.2368 -1.8495 -0.7577
 4227SOL    HW224741   7.267   9.460   8.871 -0.0416  0.8243  0.2830
 4228SOL     OW24742   4.585   2.435   0.054  0.7902  0.2920  0.1538
 4228SOL    HW124743   4.511   2.487   0.011  0.9421  0.5551  0.2166
 4228SOL    HW224744   4.575   2.338   0.030  2.9715  0.8938 -3.5369
 4229SOL     OW24745   0.425   8.638   8.893 -0.0509  0.3240 -0.3220
 4229SOL    HW124746   0.373   8.702   8.836  1.7858  0.9224 -1.3779
 4229SOL    HW224747   0.511   8.616   8.848  1.1587  0.2983  1.9499
 4230SOL     OW24748   9.313   5.926   9.750 -0.1017 -0.0305  0.1141
 4230SOL    HW124749   9.224   5.904   9.788  0.3671 -1.2751  0.5043
 4230SOL    HW224750   9.375   5.956   9.823 -0.2317  0.9776 -0.1753
 4231SOL     OW24751   9.769   1.036   8.408 -0.7406 -0.3094  0.0016
 4231SOL    HW124752   9.852   1.054   8.355 -0.0750  0.6029  1.3408
 4231SOL    HW224753   9.702   0.989   8.350  0.3472 -0.2041 -1.3577
 4232SOL     OW24754   2.375   7.533   0.333 -0.3770  0.5082  0.1208
 4232SOL    HW124755   2.289   7.575   0.359  0.2257  1.5260  0.5066
 4232SOL    HW224756   2.400   7.563   0.241  0.8082  2.2674  0.9687
 4233SOL     OW24757   0.072   5.412   6.641 -0.2757  0.7468  0.1316
 4233SOL    HW124758   0.160   5.448   6.672  0.6435  0.1870 -1.7874
 4233SOL    HW224759   0.079   5.382   6.546 -1.8830 -1.5961  0.7014
 4234SOL     OW24760   8.354   8.142   8.823 -0.1623  0.1500 -0.1455
 4234SOL    HW124761   8.404   8.113   8.905  0.7277 -0.7542 -0.9860
 4234SOL    HW224762   8.407   8.118   8.742 -1.1616  0.7891 -1.0044
 4235SOL     OW24763   0.430   4.336   9.934  0.5687 -0.0437  0.2118
 4235SOL    HW124764   0.346   4.285   9.915  1.1475 -1.6238  1.6885
 4235SOL    HW224765   0.410   4.434   9.938 -0.9758 -0.3062 -0.5578
 4236SOL     OW24766   0.844   7.897   6.915  0.1460  0.2451 -0.4199
 4236SOL    HW124767   0.800   7.984   6.893 -2.5066 -0.5086  1.5797
 4236SOL    HW224768   0.932   7.914   6.958 -0.0268  1.9346 -0.7196
 4237SOL     OW24769   0.033   1.161   2.030 -0.0385  0.5096 -0.3110
 4237SOL    HW124770  -0.013   1.245   2.059 -0.5213  0.2322 -0.2652
 4237SOL    HW224771   0.125   1.159   2.069 -0.6531  0.1863  1.1401
 4238SOL     OW24772   1.302   6.974   1.781  0.4023 -0.8898  0.5082
 4238SOL    HW124773   1.401   6.966   1.788  0.3529 -2.2014 -0.0556
 4238SOL    HW224774   1.278   7.055   1.728  1.1984 -0.8080  0.2692
 4239SOL     OW24775   3.343   4.905   3.080  0.5699  0.0875 -0.1952
 4239SOL    HW124776   3.300   4.822   3.116 -0.8659  0.8697 -0.0897
 4239SOL    HW224777   3.297   4.932   2.995 -0.1043  1.7333  0.6710
 4240SOL     OW24778   0.912   8.861   7.928  0.0749  0.0388 -0.0907
 4240SOL    HW124779   1.002   8.848   7.971 -0.4757 -3.4936  0.1587
 4240SOL    HW224780   0.922   8.857   7.829  0.0783 -1.4671 -0.0432
 4241SOL     OW24781   2.819   5.328   5.968 -1.0987 -0.2530 -0.1198
 4241SOL    HW124782   2.868   5.256   6.017  0.2716 -0.2620 -1.4629
 4241SOL    HW224783   2.722   5.303   5.961 -0.7798 -1.5890  0.1003
 4242SOL     OW24784   3.344   9.224   7.201 -0.2234  0.4961 -0.0562
 4242SOL    HW124785   3.326   9.306   7.146  0.8848  1.3151  0.7758
 4242SOL    HW224786   3.266   9.162   7.194 -1.4791  2.0259  0.0287
 4243SOL     OW24787   2.242   6.375   8.692  0.2321  0.8741  0.7182
 4243SOL    HW124788   2.209   6.418   8.608 -0.5869  0.9035  1.0516
 4243SOL    HW224789   2.192   6.412   8.770  0.8101  0.6567  1.1991
 4244SOL     OW24790   0.410   0.001   9.342 -0.0793 -0.5798 -0.4193
 4244SOL    HW124791   0.434   0.083   9.290 -1.1332  0.7674  1.1710
 4244SOL    HW224792   0.469  -0.006   9.422  0.1879 -1.5416 -0.6952
 4245SOL     OW24793   7.413   6.830   6.087 -0.1751 -0.2684 -0.1991
 4245SOL    HW124794   7.493   6.868   6.133  0.0609 -1.3546  0.3023
 4245SOL    HW224795   7.432   6.736   6.060 -0.1477  0.4729 -2.9365
 4246SOL     OW24796   3.866   2.408   6.467 -0.1508 -0.4233 -0.0851
 4246SOL    HW124797   3.872   2.422   6.368  0.6155 -1.3107 -0.1742
 4246SOL    HW224798   3.941   2.349   6.497 -1.5791 -1.8570  0.7177
 4247SOL     OW24799   2.060   5.481   7.660  0.6739  0.0643 -0.2299
 4247SOL    HW124800   2.156   5.462   7.682  0.1612  0.5486  2.5574
 4247SOL    HW224801   2.003   5.407   7.694 -0.2385  1.2864  0.9558
 4248SOL     OW24802   1.499   5.880   5.136  0.2420 -0.1347 -0.0143
 4248SOL    HW124803   1.495   5.890   5.036 -1.3317 -1.8141 -0.1403
 4248SOL    HW224804   1.595   5.874   5.165  0.6445 -3.5916 -1.8481
 4249SOL     OW24805   8.512   9.220   7.252 -0.4887 -0.2491  0.2003
 4249SOL    HW124806   8.504   9.314   7.286 -4.1354 -0.0024 -1.0856
 4249SOL    HW224807   8.504   9.156   7.328  0.7129  0.4400  0.9235
 4250SOL     OW24808   3.888   4.266   8.027 -0.6911  0.3702 -0.2046
 4250SOL    HW124809   3.892   4.167   8.045  0.8502  0.0269 -2.3533
 4250SOL    HW224810   3.873   4.314   8.113 -0.0287 -1.6436  1.0726
 4251SOL     OW24811   1.964   4.609   2.225  0.2139  0.7026  0.1139
 4251SOL    HW124812   2.026   4.556   2.167  1.6669  0.8490  1.5148
 4251SOL    HW224813   1.958   4.567   2.316 -1.0017  1.2366  0.2938
 4252SOL     OW24814   7.482   2.294   0.774  0.2053 -0.0182 -0.1668
 4252SOL    HW124815   7.535   2.358   0.719 -0.2749 -0.0269 -0.6447
 4252SOL    HW224816   7.436   2.343   0.848  0.9599 -0.0277  0.3166
 4253SOL     OW24817   7.048   8.205   9.128  0.2617  0.6204  0.0022
 4253SOL    HW124818   7.106   8.282   9.155  1.0916  0.5724 -1.6240
 4253SOL    HW224819   6.954   8.224   9.156  0.6283  1.7834  0.4915
 4254SOL     OW24820   2.839   8.740   9.548 -0.2141 -0.1365 -0.2368
 4254SOL    HW124821   2.829   8.823   9.493 -1.6487 -0.8156 -1.0123
 4254SOL    HW224822   2.800   8.755   9.639 -0.5460  0.0053 -0.4025
 4255SOL     OW24823   3.986   0.717   2.008 -0.3008 -0.6221  0.4169
 4255SOL    HW124824   3.926   0.653   1.960 -0.2777 -1.1267  1.0540
 4255SOL    HW224825   4.003   0.684   2.101 -0.3610  0.3508  0.7848
 4256SOL     OW24826   8.627   9.659   8.298 -0.2174 -0.8117 -0.0399
 4256SOL    HW124827   8.727   9.663   8.309 -0.0697  1.2208 -1.6792
 4256SOL    HW224828   8.589   9.750   8.315 -1.9576 -1.8299  1.7392
 4257SOL     OW24829   4.814   4.438   4.870 -0.4396  0.9924  0.6278
 4257SOL    HW124830   4.764   4.425   4.785  0.2200 -1.0293  0.5312
 4257SOL    HW224831   4.779   4.377   4.940  0.0879  1.4995  1.3477
 4258SOL     OW24832   3.746   5.640   9.009  0.2238  0.0761  0.1037
 4258SOL    HW124833   3.756   5.610   9.104  1.7424 -3.0877 -1.0002
 4258SOL    HW224834   3.822   5.605   8.955 -1.9348 -0.2504 -2.8043
 4259SOL     OW24835   3.797   3.895   7.678 -0.4964  0.0556 -0.0626
 4259SOL    HW124836   3.811   3.853   7.767 -0.8704  1.4651  0.6721
 4259SOL    HW224837   3.886   3.905   7.632 -0.0162  1.4905  1.1498
 4260SOL     OW24838   8.619   6.476   7.514 -0.0420  0.5178  0.2019
 4260SOL    HW124839   8.680   6.536   7.566  1.1720  0.3510 -1.0062
 4260SOL    HW224840   8.672   6.401   7.475 -1.0987  0.1458 -0.5225
 4261SOL     OW24841   3.250   6.289   0.182  0.0234  0.0673 -0.5132
 4261SOL    HW124842   3.220   6.378   0.216  0.5277  0.1170 -0.1880
 4261SOL    HW224843   3.240   6.221   0.255 -1.6488 -0.4300 -1.1746
 4262SOL     OW24844   0.658   6.299   9.772 -0.2121  0.0893  0.7208
 4262SOL    HW124845   0.738   6.280   9.714  0.5378  1.8758  1.1474
 4262SOL    HW224846   0.575   6.292   9.717  0.4324  0.9511 -0.3833
 4263SOL     OW24847   1.511   3.907   1.621  0.4212  0.4958  0.2063
 4263SOL    HW124848   1.602   3.942   1.598  2.1975 -1.8345  3.2515
 4263SOL    HW224849   1.473   3.960   1.696 -0.0051  0.3976  0.0613
 4264SOL     OW24850   4.714   3.680   6.810 -0.0600 -0.2156 -0.1699
 4264SOL    HW124851   4.799   3.729   6.830 -0.2209 -0.5683  1.5252
 4264SOL    HW224852   4.730   3.582   6.819 -0.3084 -0.3496 -1.2196
 4265SOL     OW24853   7.339   4.609   8.942 -0.4297  0.0046  0.0785
 4265SOL    HW124854   7.284   4.584   9.022 -0.4622 -1.9558 -0.5443
 4265SOL    HW224855   7.420   4.659   8.972 -0.7441 -0.1900  1.2906
 4266SOL     OW24856   6.725   3.911   9.535 -0.0911 -0.3215  0.1584
 4266SOL    HW124857   6.630   3.919   9.506  0.4521 -0.0412 -1.6012
 4266SOL    HW224858   6.742   3.973   9.611 -1.3437 -0.4615  0.5643
 4267SOL     OW24859   8.799   6.619   7.689 -0.5562  0.2211 -0.1774
 4267SOL    HW124860   8.759   6.707   7.716  0.5411 -0.5149  4.2735
 4267SOL    HW224861   8.895   6.631   7.666 -0.4999  0.2710  0.0794
 4268SOL     OW24862   4.228   8.200   5.687  0.2902  0.1133  0.1363
 4268SOL    HW124863   4.161   8.203   5.762  0.0764 -1.8148  0.0317
 4268SOL    HW224864   4.315   8.238   5.719 -0.3059  0.9268  0.8330
 4269SOL     OW24865   4.887   5.926   9.363 -0.6842  0.1221  0.3296
 4269SOL    HW124866   4.923   6.011   9.325 -0.7097  0.1195  0.2984
 4269SOL    HW224867   4.910   5.850   9.303 -1.9638  0.3169 -0.4287
 4270SOL     OW24868   3.979   6.094   9.371  0.3052  0.2691 -0.0650
 4270SOL    HW124869   3.963   6.011   9.319 -0.6854  0.0989  0.4997
 4270SOL    HW224870   3.919   6.095   9.451  0.6805  1.2786  0.2078
 4271SOL     OW24871   1.472   7.628   5.315  0.5627 -0.3182  0.0597
 4271SOL    HW124872   1.471   7.632   5.215 -0.2980  0.0203  0.0755
 4271SOL    HW224873   1.527   7.550   5.345  1.2038 -0.1505 -0.6665
 4272SOL     OW24874   2.738   9.431   9.697 -0.4082 -0.2795 -0.4584
 4272SOL    HW124875   2.834   9.402   9.700  0.1465  1.6338  1.4521
 4272SOL    HW224876   2.733   9.530   9.701 -2.4738 -0.3378 -1.1008
 4273SOL     OW24877   2.996   9.855   9.447 -0.0897  0.3804  0.0872
 4273SOL    HW124878   2.952   9.773   9.410 -2.0119  0.9943  0.9414
 4273SOL    HW224879   3.000   9.848   9.547  0.6021  0.9160  0.1002
 4274SOL     OW24880   2.373   4.084   0.955  0.0213  0.2079 -0.1980
 4274SOL    HW124881   2.345   4.091   0.860 -0.2076  1.5481 -0.0500
 4274SOL    HW224882   2.299   4.044   1.009 -0.3123  0.5576 -0.3907
 4275SOL     OW24883   1.426   4.153   7.346 -0.5963 -0.2956  0.1178
 4275SOL    HW124884   1.344   4.121   7.299 -0.0930 -0.1975 -0.8306
 4275SOL    HW224885   1.475   4.217   7.288  1.8740 -2.8153 -0.6856
 4276SOL     OW24886   3.698   1.026   1.060 -0.3618 -0.3678  0.0002
 4276SOL    HW124887   3.790   1.056   1.086 -0.8216  0.6638  0.4500
 4276SOL    HW224888   3.705   0.956   0.989  0.8077 -0.9836  0.6993
 4277SOL     OW24889   1.153   4.670   9.605  0.3206 -0.4772  0.1076
 4277SOL    HW124890   1.112   4.653   9.695  0.7673 -1.1179  0.1886
 4277SOL    HW224891   1.124   4.599   9.541  1.9582 -1.3983  0.3711
 4278SOL     OW24892   0.209   8.548   3.695 -0.6881  0.2054  0.8735
 4278SOL    HW124893   0.281   8.618   3.696 -0.1899 -0.3040  0.4843
 4278SOL    HW224894   0.184   8.527   3.600 -0.5992 -0.3994  0.9872
 4279SOL     OW24895   0.494   5.303   1.788  0.0013 -0.0057 -0.3533
 4279SOL    HW124896   0.512   5.394   1.826 -2.3640  0.0176  0.7937
 4279SOL    HW224897   0.425   5.310   1.717  2.7946 -0.3769 -3.2412
 4280SOL     OW24898   9.784   3.776   4.457  0.2515  0.0904 -0.0978
 4280SOL    HW124899   9.859   3.806   4.517  0.6298  0.8546 -0.9324
 4280SOL    HW224900   9.820   3.761   4.365 -0.2031 -1.6676 -0.0029
 4281SOL     OW24901   0.327   0.711   0.233  0.0114 -0.0189 -0.4430
 4281SOL    HW124902   0.324   0.618   0.269 -2.6944 -0.2228 -1.1130
 4281SOL    HW224903   0.398   0.763   0.282  1.5497 -2.3804 -0.0564
 4282SOL     OW24904   4.180   3.554   7.859 -0.0579 -0.5802  0.0191
 4282SOL    HW124905   4.215   3.641   7.825 -1.1477 -0.2716 -0.3477
 4282SOL    HW224906   4.208   3.541   7.954  0.3562  0.0281 -0.0199
 4283SOL     OW24907   7.873   5.739   4.909 -0.1589 -0.8215  0.2420
 4283SOL    HW124908   7.793   5.692   4.947 -1.0991 -0.1114 -0.7945
 4283SOL    HW224909   7.913   5.684   4.836 -0.8261 -0.3721 -0.4822
 4284SOL     OW24910   7.445   9.184   2.109 -0.4299 -0.3462  0.2623
 4284SOL    HW124911   7.473   9.156   2.017  1.1643  2.5763 -0.2100
 4284SOL    HW224912   7.357   9.230   2.105  0.3424  1.1424 -0.0756
 4285SOL     OW24913   9.408   5.388   5.870 -0.5882  0.0610  0.1280
 4285SOL    HW124914   9.344   5.460   5.896 -1.1126  0.0227 -1.0465
 4285SOL    HW224915   9.356   5.304   5.851 -0.1209 -0.1542 -0.1837
 4286SOL     OW24916   2.519   0.972   8.024 -0.1759  0.7639  0.5256
 4286SOL    HW124917   2.576   0.975   8.106 -0.3805  0.2566  0.6862
 4286SOL    HW224918   2.512   1.064   7.985 -0.5234  1.1029  1.3825
 4287SOL     OW24919   4.487   9.601   7.421 -0.2013  0.0089  0.4352
 4287SOL    HW124920   4.547   9.568   7.495  0.2320 -3.5867 -1.3669
 4287SOL    HW224921   4.392   9.589   7.448 -0.0457 -1.8888  0.2283
 4288SOL     OW24922   7.973   8.765   4.072 -0.1516 -0.2333 -0.3080
 4288SOL    HW124923   8.039   8.838   4.088 -0.2621  0.1314 -1.5326
 4288SOL    HW224924   7.933   8.737   4.160  0.7975  0.3171  0.3009
 4289SOL     OW24925   0.256   8.055   5.914  0.4296 -0.4170  0.0527
 4289SOL    HW124926   0.351   8.075   5.891  0.5669 -0.5860  0.4689
 4289SOL    HW224927   0.247   8.046   6.013 -0.1295  0.1385  0.0515
 4290SOL     OW24928   3.049   6.230   0.669 -0.0748  0.1681 -0.3112
 4290SOL    HW124929   3.098   6.144   0.682  1.4421  0.7929 -1.6600
 4290SOL    HW224930   3.084   6.276   0.587 -0.6670  2.1850  0.5269
 4291SOL     OW24931   2.336   2.954   1.096  0.3021 -0.3389  0.3710
 4291SOL    HW124932   2.409   2.936   1.161  0.1708 -0.1323  0.5734
 4291SOL    HW224933   2.342   2.888   1.020  1.4176  0.4555 -0.2255
 4292SOL     OW24934   7.267   6.384   6.246  0.6120 -0.9379  0.0783
 4292SOL    HW124935   7.352   6.434   6.261  0.6202  0.2478 -3.5069
 4292SOL    HW224936   7.192   6.431   6.292  1.5812 -0.9514  1.6901
 4293SOL     OW24937   0.304   9.631   9.437 -0.3312 -0.1608  0.2145
 4293SOL    HW124938   0.323   9.533   9.426 -0.5596  0.0807 -2.5548
 4293SOL    HW224939   0.263   9.667   9.354  1.0032  2.6178  0.7021
 4294SOL     OW24940   7.131   8.094   6.633 -0.8706 -0.3374  0.4312
 4294SOL    HW124941   7.100   8.186   6.655 -2.4033 -0.9947  1.0989
 4294SOL    HW224942   7.087   8.063   6.549 -0.2424 -0.4098  0.1231
 4295SOL     OW24943   0.935   4.278   7.490 -0.2094  0.2763 -0.4169
 4295SOL    HW124944   0.878   4.352   7.524  0.6859  0.5188  0.5826
 4295SOL    HW224945   1.001   4.313   7.424  1.8998  0.8612  1.9249
 4296SOL     OW24946   0.947   7.721   6.134  0.2908 -0.0045  0.1024
 4296SOL    HW124947   0.861   7.685   6.170  0.0378 -0.3528 -0.8399
 4296SOL    HW224948   0.931   7.767   6.047  1.1697 -0.7876 -0.4973
 4297SOL     OW24949   8.093   0.225   3.965 -0.1955  0.0267  0.4839
 4297SOL    HW124950   8.031   0.226   4.044 -0.2613  1.8309  0.4273
 4297SOL    HW224951   8.059   0.287   3.895  0.6481 -0.4591 -0.3643
 4298SOL     OW24952   9.578   4.327   2.744  0.0297  0.2123  0.2315
 4298SOL    HW124953   9.587   4.275   2.659 -1.1482 -1.5629  1.1612
 4298SOL    HW224954   9.649   4.300   2.808  2.6948  3.5628 -1.1145
 4299SOL     OW24955   8.910   8.261   9.115 -0.0927 -0.0483  0.2186
 4299SOL    HW124956   8.902   8.247   9.214 -0.3769  2.8698  0.6554
 4299SOL    HW224957   8.912   8.172   9.069  0.9824 -1.4739  2.9031
 4300SOL     OW24958   0.204   6.192   9.271  0.3166  0.2802 -0.2342
 4300SOL    HW124959   0.172   6.130   9.199  0.2754  0.2789 -0.2156
 4300SOL    HW224960   0.134   6.201   9.342 -0.6484  2.1404 -1.3709
 4301SOL     OW24961   2.092   5.373   9.674  0.2793 -0.4289 -0.2398
 4301SOL    HW124962   1.999   5.398   9.647  0.7351  0.8678 -0.6402
 4301SOL    HW224963   2.138   5.328   9.597  1.4366  2.8878 -1.5878
 4302SOL     OW24964   1.454   6.514   3.852  0.3794  0.0642 -0.8198
 4302SOL    HW124965   1.505   6.437   3.889 -0.1957 -1.0584 -2.2867
 4302SOL    HW224966   1.456   6.591   3.916 -1.4414 -2.1400  1.9685
 4303SOL     OW24967   5.923   0.099   9.355 -0.2832 -0.4314  0.0986
 4303SOL    HW124968   5.832   0.132   9.384 -1.0405 -1.3553 -1.1819
 4303SOL    HW224969   5.958   0.159   9.283  0.4158  0.2978  1.0353
 4304SOL     OW24970   2.033   7.926   9.257 -0.0249  0.1078  0.4648
 4304SOL    HW124971   2.045   7.893   9.351  1.5308  0.2344  0.3262
 4304SOL    HW224972   2.040   8.026   9.255  2.4783 -0.0419 -0.1128
 4305SOL     OW24973   6.922   9.576   8.569  0.7347  0.3084  0.0740
 4305SOL    HW124974   6.953   9.578   8.664  0.1563 -0.1207  0.2749
 4305SOL    HW224975   6.996   9.604   8.508  1.6738 -1.2338  0.4997
 4306SOL     OW24976   7.831   4.191   6.919  0.0707  0.0118 -0.2225
 4306SOL    HW124977   7.772   4.272   6.914 -1.9218 -1.4285 -0.5163
 4306SOL    HW224978   7.895   4.202   6.995 -1.4079  1.0651  0.9003
 4307SOL     OW24979   1.505   7.689   2.745 -0.0243  0.4024  0.0773
 4307SOL    HW124980   1.567   7.707   2.821 -0.7644  1.8429  0.3617
 4307SOL    HW224981   1.445   7.613   2.768  0.7295 -0.1220  0.3361
 4308SOL     OW24982   8.538   5.524   5.483 -0.2055 -0.7368  0.0150
 4308SOL    HW124983   8.568   5.429   5.490  0.2866 -0.5887 -0.0894
 4308SOL    HW224984   8.585   5.580   5.552 -2.7886 -1.1245  2.1778
 4309SOL     OW24985   8.068   6.235   7.941 -0.7793  0.0539 -0.3028
 4309SOL    HW124986   8.059   6.334   7.949 -0.7715  0.0888 -0.6969
 4309SOL    HW224987   7.979   6.192   7.957 -0.5811  0.0613  0.8260
 4310SOL     OW24988   3.201   7.205   8.327 -0.1792 -0.1730 -0.3285
 4310SOL    HW124989   3.227   7.166   8.416 -0.2540 -1.1210 -0.7178
 4310SOL    HW224990   3.130   7.274   8.341  1.7466  1.6806  0.6388
 4311SOL     OW24991   8.744   3.002   8.908  0.1008 -0.1316 -0.7040
 4311SOL    HW124992   8.649   2.996   8.878 -0.4623  2.9005  0.2909
 4311SOL    HW224993   8.747   2.996   9.008  1.0314 -0.7554 -0.7667
 4312SOL     OW24994   2.750   2.663   1.804  0.5442 -0.0716  0.9335
 4312SOL    HW124995   2.677   2.610   1.846 -0.8748  0.1967 -1.0915
 4312SOL    HW224996   2.712   2.745   1.762  2.0472  0.2114  0.0558
 4313SOL     OW24997   0.535   8.077   6.875  0.0394 -0.1542  0.4064
 4313SOL    HW124998   0.625   8.116   6.898  0.4506 -0.7026 -0.2701
 4313SOL    HW224999   0.482   8.145   6.825  1.1402 -0.8035 -1.6746
 4314SOL     OW25000   9.894   6.984   6.633 -0.2129  0.0887 -0.1207
 4314SOL    HW125001   9.982   7.028   6.654 -0.4194  0.7390 -0.5652
 4314SOL    HW225002   9.859   6.937   6.714  0.2958  0.2710  0.2069
 4315SOL     OW25003   2.634   8.587   9.410 -0.1317 -0.4646  0.1423
 4315SOL    HW125004   2.706   8.635   9.460  1.8159 -0.6755 -2.3593
 4315SOL    HW225005   2.650   8.489   9.415  1.5216 -0.4005 -2.8895
 4316SOL     OW25006   8.367   8.869   7.370 -0.1784 -0.2683 -0.5256
 4316SOL    HW125007   8.338   8.780   7.403 -0.2682 -0.2595 -0.5833
 4316SOL    HW225008   8.329   8.886   7.279  0.6635 -0.6014 -0.9477
 4317SOL     OW25009   4.041   3.577   9.531 -0.3940  0.0949  0.4320
 4317SOL    HW125010   4.137   3.592   9.557 -0.4726 -1.4567  1.6771
 4317SOL    HW225011   4.037   3.523   9.447 -0.1723 -0.2594  0.6471
 4318SOL     OW25012   4.988   8.714   7.701  0.0970  1.3188  0.3831
 4318SOL    HW125013   5.011   8.643   7.767 -0.9405  0.3191 -0.3147
 4318SOL    HW225014   5.017   8.803   7.737  0.9902  0.6086  1.4614
 4319SOL     OW25015   9.206   4.491   4.391  0.1797 -0.0347  0.1903
 4319SOL    HW125016   9.131   4.556   4.379  0.2830 -0.1308 -1.1219
 4319SOL    HW225017   9.239   4.494   4.485  0.0144  1.6330  0.2087
 4320SOL     OW25018   1.175   6.190   0.505  0.0274 -0.3214 -0.3758
 4320SOL    HW125019   1.205   6.248   0.581 -0.6629  0.7181 -0.8803
 4320SOL    HW225020   1.218   6.220   0.420 -2.2889  1.1359 -1.0909
 4321SOL     OW25021   3.458   8.992   2.603  0.0519 -0.1211  0.1878
 4321SOL    HW125022   3.540   9.039   2.637  0.4304 -0.3765 -0.3613
 4321SOL    HW225023   3.421   8.934   2.676  1.3310 -1.2865 -0.0531
 4322SOL     OW25024   1.485   0.249   7.941  0.4717  0.5015  0.6548
 4322SOL    HW125025   1.576   0.275   7.910  0.9023 -1.3858  0.2557
 4322SOL    HW225026   1.424   0.241   7.863  0.4463 -0.0266  0.7249
 4323SOL     OW25027   2.225   8.490   8.134 -0.2672 -0.1429 -0.1946
 4323SOL    HW125028   2.237   8.523   8.227 -1.7535  1.5809 -0.5701
 4323SOL    HW225029   2.195   8.395   8.135  0.4688 -0.3633  1.0458
 4324SOL     OW25030   3.445   0.665   4.223  0.5361  0.6378  0.2509
 4324SOL    HW125031   3.421   0.745   4.279 -1.3581  0.3834 -0.1422
 4324SOL    HW225032   3.438   0.689   4.126 -1.1693 -0.2828  0.1239
 4325SOL     OW25033   3.066   8.604   0.008 -0.0821  0.0737 -0.6398
 4325SOL    HW125034   3.151   8.655   0.018 -0.7900  0.9297  1.2952
 4325SOL    HW225035   2.992   8.654   0.053 -0.6456 -3.0276  2.0692
 4326SOL     OW25036   9.904   0.388   1.771 -0.0326 -0.6707  0.2808
 4326SOL    HW125037   9.941   0.296   1.758  0.8149 -0.2643 -0.2865
 4326SOL    HW225038   9.960   0.453   1.720 -0.6992  0.1443  0.5811
 4327SOL     OW25039   8.788   7.463   6.999 -0.9417 -0.1854  0.2250
 4327SOL    HW125040   8.798   7.562   6.990 -1.6107 -0.2294 -1.0896
 4327SOL    HW225041   8.853   7.429   7.066  0.0973  0.9947 -0.1691
 4328SOL     OW25042   7.530   8.358   6.661 -0.6953 -0.2087 -0.0810
 4328SOL    HW125043   7.571   8.404   6.582  1.6851 -0.4246  0.9882
 4328SOL    HW225044   7.548   8.260   6.655 -1.3095 -0.3438  0.2725
 4329SOL     OW25045   0.618   7.024   9.160 -0.0180  0.3116 -0.4464
 4329SOL    HW125046   0.530   7.053   9.199  0.6172 -1.2002  2.2882
 4329SOL    HW225047   0.683   7.009   9.234  1.7065 -1.3235 -2.2335
 4330SOL     OW25048   1.004   6.006   6.712 -0.4263 -0.0904  0.2779
 4330SOL    HW125049   1.021   6.044   6.622 -1.5069 -0.5938 -0.1520
 4330SOL    HW225050   0.952   6.072   6.767 -0.8006 -0.2608  0.1265
 4331SOL     OW25051   3.596   3.033   5.949  0.1434  0.3079 -0.1271
 4331SOL    HW125052   3.564   3.059   6.041 -1.8224  0.3151 -0.7810
 4331SOL    HW225053   3.689   2.998   5.955 -0.0180  0.1376  1.9078
 4332SOL     OW25054   5.876   6.892   6.300 -0.0589 -0.2517 -0.4932
 4332SOL    HW125055   5.858   6.930   6.391  0.3833 -0.2358 -0.4098
 4332SOL    HW225056   5.844   6.797   6.297  0.0540 -0.2974 -0.2733
 4333SOL     OW25057   1.102   5.365   8.424  0.4875  0.0079  0.0911
 4333SOL    HW125058   1.087   5.341   8.328 -0.6731  0.6798  0.0919
 4333SOL    HW225059   1.065   5.292   8.482 -0.7540  0.5899  0.0525
 4334SOL     OW25060   1.300   8.151   9.664 -0.1930 -0.8634 -0.4560
 4334SOL    HW125061   1.236   8.082   9.629  0.3132 -2.2563  1.3191
 4334SOL    HW225062   1.390   8.110   9.676  0.2577  0.2668  0.0509
 4335SOL     OW25063   8.704   3.885   0.375 -0.1303 -0.4096 -0.0853
 4335SOL    HW125064   8.699   3.790   0.406  1.6682  0.0179  1.6423
 4335SOL    HW225065   8.776   3.894   0.306  0.8522 -0.0236  0.9676
 4336SOL     OW25066   8.026   7.503   7.988  0.4981 -0.0874  0.2295
 4336SOL    HW125067   8.034   7.584   8.046 -3.3996 -0.0911  0.9690
 4336SOL    HW225068   8.031   7.421   8.045  2.1747 -0.2939 -0.2082
 4337SOL     OW25069   1.594   6.388   6.190 -0.2163  0.4218 -0.2899
 4337SOL    HW125070   1.637   6.379   6.100 -2.4898 -2.4678 -1.1601
 4337SOL    HW225071   1.623   6.311   6.248 -3.8616 -1.3959 -0.7857
 4338SOL     OW25072   1.234   4.300   1.150  0.1275 -0.5678  0.6724
 4338SOL    HW125073   1.286   4.219   1.176 -0.8102 -0.9410  1.4139
 4338SOL    HW225074   1.281   4.382   1.182 -0.7314 -0.9894  3.1401
 4339SOL     OW25075   2.840   5.674   0.833  1.2158  0.2994  0.3681
 4339SOL    HW125076   2.832   5.761   0.785  1.6685 -0.3641 -0.9472
 4339SOL    HW225077   2.816   5.599   0.771  0.4067 -0.4983  1.6033
 4340SOL     OW25078   3.339   8.701   0.050  0.9440  0.7731  0.3524
 4340SOL    HW125079   3.391   8.775   0.008  1.7796  0.3676  0.6479
 4340SOL    HW225080   3.402   8.630   0.082  0.2100  0.3099  0.8001
 4341SOL     OW25081   6.492   5.044   8.373  0.4509  0.2804  0.1685
 4341SOL    HW125082   6.440   5.064   8.290  0.2009  1.7038  0.6536
 4341SOL    HW225083   6.535   5.128   8.406  0.4567 -0.2580  1.5464
 4342SOL     OW25084   9.804   1.056   5.367  0.4006  0.2129  0.2296
 4342SOL    HW125085   9.903   1.048   5.358  0.3650 -0.6735  0.6298
 4342SOL    HW225086   9.777   1.041   5.462 -0.1747 -0.1725  0.0067
 4343SOL     OW25087   2.454   6.128   6.655  0.1654  0.5639 -0.6810
 4343SOL    HW125088   2.478   6.132   6.752  1.9097 -1.9085 -0.9565
 4343SOL    HW225089   2.359   6.098   6.645 -0.5691  2.4986  0.2733
 4344SOL     OW25090   2.442   7.572   0.078  0.0301 -0.3880 -0.1028
 4344SOL    HW125091   2.481   7.664   0.069  2.0244 -1.0637  1.1472
 4344SOL    HW225092   2.420   7.535  -0.012 -1.1041  1.4400 -0.5894
 4345SOL     OW25093   1.535   8.821   7.728  0.0000  0.5094 -0.0662
 4345SOL    HW125094   1.573   8.851   7.816  1.2162  0.9136 -0.7163
 4345SOL    HW225095   1.466   8.751   7.745  0.3270  0.4655  1.2168
 4346SOL     OW25096   7.469   9.410   8.081  0.7546  0.2941 -0.0132
 4346SOL    HW125097   7.409   9.462   8.143 -0.7937  1.8554 -2.7255
 4346SOL    HW225098   7.459   9.312   8.099 -0.9405  0.6456  1.0739
 4347SOL     OW25099   2.637   7.859   1.299 -0.5625 -0.3940 -1.1562
 4347SOL    HW125100   2.637   7.829   1.203  1.4893  0.4675 -1.4492
 4347SOL    HW225101   2.555   7.913   1.317 -1.2448 -1.0365 -2.2701
 4348SOL     OW25102   4.280   3.513   6.628  0.2968 -0.1280 -0.0505
 4348SOL    HW125103   4.322   3.429   6.663  2.0576  0.3000 -1.1123
 4348SOL    HW225104   4.213   3.489   6.557 -0.1461 -0.7052  0.5519
 4349SOL     OW25105   7.822   4.172   0.671 -0.0195 -0.0761 -0.8145
 4349SOL    HW125106   7.777   4.230   0.739 -1.8015 -0.8742 -1.2902
 4349SOL    HW225107   7.909   4.140   0.707 -0.2378  0.7725  0.4824
 4350SOL     OW25108   3.884   9.932   3.711  0.0882  0.9393  0.3287
 4350SOL    HW125109   3.910  10.025   3.736 -0.3259  0.5004  2.4581
 4350SOL    HW225110   3.964   9.872   3.716  0.2286  1.0551 -0.4607
 4351SOL     OW25111   7.864   3.519   9.273 -0.1079  0.5234  0.3141
 4351SOL    HW125112   7.939   3.522   9.340 -0.7803 -0.3275  1.1243
 4351SOL    HW225113   7.902   3.521   9.181  0.8643  1.2160  0.7186
 4352SOL     OW25114   6.846   7.901   7.893 -0.0503  0.0171  0.1421
 4352SOL    HW125115   6.899   7.852   7.825 -2.0167 -1.3002 -0.5052
 4352SOL    HW225116   6.790   7.836   7.945 -0.6080  1.2797  1.1538
 4353SOL     OW25117   6.040   4.493   9.534 -0.2172  0.0463  0.8074
 4353SOL    HW125118   6.125   4.545   9.536  0.7450 -1.4330 -0.9016
 4353SOL    HW225119   6.050   4.414   9.475 -2.9246  0.0846  0.2170
 4354SOL     OW25120   1.074   0.313   0.885 -0.2224 -0.1909 -0.4398
 4354SOL    HW125121   0.985   0.279   0.917  0.2389  0.7131  1.9618
 4354SOL    HW225122   1.067   0.410   0.864 -0.1911 -0.4914 -1.8700
 4355SOL     OW25123   4.361   7.095   2.095  0.1687  0.6496 -0.3417
 4355SOL    HW125124   4.350   6.997   2.080  0.5215  0.7830 -1.5472
 4355SOL    HW225125   4.373   7.141   2.007  1.4664  1.5868  0.2942
 4356SOL     OW25126   0.885   8.153   6.022  0.7060 -0.1298 -0.1890
 4356SOL    HW125127   0.831   8.220   5.971 -1.9463 -2.2173 -0.2712
 4356SOL    HW225128   0.914   8.079   5.961 -1.6929 -2.1667  1.0395
 4357SOL     OW25129   2.360   7.310   0.847  0.0761  0.0457  0.1221
 4357SOL    HW125130   2.284   7.254   0.881  0.0305  0.5332  0.8381
 4357SOL    HW225131   2.409   7.260   0.776  0.8350 -1.4420  1.6591
 4358SOL     OW25132   9.081   7.723   9.711 -0.2849 -0.9343 -0.2914
 4358SOL    HW125133   9.002   7.760   9.760  0.0045  0.3139 -0.7278
 4358SOL    HW225134   9.052   7.694   9.620 -0.2816 -0.6100 -0.3980
 4359SOL     OW25135   3.491   6.889   5.651 -0.3854 -0.3160  0.0977
 4359SOL    HW125136   3.513   6.887   5.748  1.1481 -0.7695 -0.2437
 4359SOL    HW225137   3.392   6.896   5.639 -0.4602  1.8927  1.6894
 4360SOL     OW25138   1.745   6.626   4.314 -0.5850 -0.5254  0.9634
 4360SOL    HW125139   1.652   6.610   4.345 -1.0073 -2.0959 -1.0078
 4360SOL    HW225140   1.807   6.560   4.357 -0.6667 -0.6158  0.9425
 4361SOL     OW25141   3.258   0.810   4.493  0.4273 -0.1044  0.0008
 4361SOL    HW125142   3.162   0.805   4.468 -0.2261  1.7264  1.9822
 4361SOL    HW225143   3.279   0.739   4.561 -0.0510  0.7791  1.0954
 4362SOL     OW25144   1.095   9.471   6.497  0.4509 -0.2833 -0.3491
 4362SOL    HW125145   1.192   9.468   6.473  0.0735 -0.0650 -1.9305
 4362SOL    HW225146   1.060   9.563   6.479 -0.3774 -0.7392 -1.1163
 4363SOL     OW25147   3.219   1.242   3.528 -0.1148  0.6517 -0.0856
 4363SOL    HW125148   3.188   1.322   3.476  0.3076  0.5861 -0.4392
 4363SOL    HW225149   3.316   1.227   3.511 -0.2355 -0.0459 -0.1492
 4364SOL     OW25150   5.144   6.001   5.106  0.0769 -0.0738  0.3125
 4364SOL    HW125151   5.123   5.944   5.186 -2.6950 -0.2065 -0.4353
 4364SOL    HW225152   5.103   6.091   5.118  0.2905  0.1496 -0.6239
 4365SOL     OW25153   8.330   7.505   7.926  0.3869 -0.3371 -0.3809
 4365SOL    HW125154   8.231   7.494   7.924  0.3568 -0.3967  0.8601
 4365SOL    HW225155   8.355   7.561   8.005  1.4311 -1.1656 -0.1248
 4366SOL     OW25156   9.976   6.947   9.363 -0.5444 -0.4963 -0.3994
 4366SOL    HW125157   9.975   6.960   9.264 -0.1941  0.2560 -0.3115
 4366SOL    HW225158  10.046   6.880   9.388  1.4367  1.4689 -0.4402
 4367SOL     OW25159   1.014   5.413   7.631 -0.1095  0.5277  0.4482
 4367SOL    HW125160   1.064   5.327   7.644 -1.2675 -0.3267 -0.6309
 4367SOL    HW225161   0.987   5.450   7.720  0.7071 -0.0413  0.9357
 4368SOL     OW25162   8.790   7.258   9.156  0.2217  0.1593 -0.1783
 4368SOL    HW125163   8.718   7.191   9.176 -0.6599  1.1694  0.0792
 4368SOL    HW225164   8.763   7.313   9.077  0.8912  0.2783 -0.3272
 4369SOL     OW25165   4.612   8.022   9.055 -0.3157  0.9305 -0.4103
 4369SOL    HW125166   4.679   7.989   8.989 -0.7549  0.1146 -0.4569
 4369SOL    HW225167   4.647   8.007   9.148  0.2701  2.0111 -0.4460
 4370SOL     OW25168   9.340   0.512   4.735  0.4522  0.3377  0.3726
 4370SOL    HW125169   9.279   0.527   4.657 -0.9682 -0.0218  1.3919
 4370SOL    HW225170   9.307   0.563   4.814  0.4051 -1.3220  1.4612
 4371SOL     OW25171   0.695   1.381   9.060 -0.1788 -0.6962  0.5472
 4371SOL    HW125172   0.707   1.444   9.137 -0.4948 -0.2055  0.2008
 4371SOL    HW225173   0.658   1.294   9.093  1.0743 -1.0159  1.1490
 4372SOL     OW25174   0.484   3.342   5.208 -0.0832 -0.4388  0.2906
 4372SOL    HW125175   0.569   3.394   5.195  0.5290 -1.8240 -1.5049
 4372SOL    HW225176   0.501   3.267   5.271 -0.5569  0.5599  1.6306
 4373SOL     OW25177   3.871   7.354   3.957 -0.4238 -0.6931 -0.3024
 4373SOL    HW125178   3.961   7.385   3.987 -0.1186 -3.2340  1.6134
 4373SOL    HW225179   3.800   7.397   4.012 -0.1844 -0.9748  0.2325
 4374SOL     OW25180   6.562   0.724   0.614 -0.5807  0.3421  0.3892
 4374SOL    HW125181   6.656   0.711   0.647  0.0401  0.3745 -1.3126
 4374SOL    HW225182   6.531   0.816   0.636 -0.0633  0.4635  0.6234
 4375SOL     OW25183   1.213   3.470   0.814 -0.1078  0.2690 -0.0619
 4375SOL    HW125184   1.301   3.492   0.857  1.8465 -0.4514 -3.4864
 4375SOL    HW225185   1.204   3.371   0.808 -0.1074  0.3587 -1.7079
 4376SOL     OW25186   9.843   7.666   8.240 -0.8250  0.0196 -0.2012
 4376SOL    HW125187   9.838   7.596   8.168 -2.1738  2.2878 -2.3981
 4376SOL    HW225188   9.755   7.673   8.286 -0.8814  0.6879 -0.4047
 4377SOL     OW25189   2.762   2.785   7.449  0.2690 -0.4142 -0.3945
 4377SOL    HW125190   2.841   2.724   7.459 -0.1084 -1.3376 -2.7258
 4377SOL    HW225191   2.790   2.867   7.399 -0.5202 -1.4295 -2.5912
 4378SOL     OW25192   0.070   4.072   5.105  0.0166 -0.2799 -0.0649
 4378SOL    HW125193   0.081   4.165   5.139 -0.2522 -0.3608  0.2484
 4378SOL    HW225194   0.096   4.068   5.008  0.5551  0.0006  0.0685
 4379SOL     OW25195   7.983   3.787   0.348  0.0238  0.1439  0.3203
 4379SOL    HW125196   8.030   3.782   0.259 -0.0177 -0.2217  0.3200
 4379SOL    HW225197   7.935   3.875   0.354  0.1532  0.2373  0.0448
 4380SOL     OW25198   4.154   4.229   0.862  0.6249 -0.1491 -0.1222
 4380SOL    HW125199   4.140   4.202   0.766 -1.2087 -0.7222  0.2813
 4380SOL    HW225200   4.095   4.307   0.883  0.8357 -0.1900  0.6027
 4381SOL     OW25201   0.794   6.139   6.193  0.5232 -0.3898  0.2793
 4381SOL    HW125202   0.821   6.077   6.119 -1.3717 -1.0720  0.1197
 4381SOL    HW225203   0.749   6.087   6.266  0.3655  0.5760  0.8816
 4382SOL     OW25204   0.012   6.115   9.442  0.1357 -0.0947  0.1195
 4382SOL    HW125205   0.022   6.081   9.535 -1.2718 -0.8863 -0.0009
 4382SOL    HW225206  -0.081   6.096   9.409  0.4563  0.6254 -1.2613
 4383SOL     OW25207   6.805   6.278   8.827  0.1376 -0.0055  0.4474
 4383SOL    HW125208   6.810   6.199   8.887  1.2121 -0.7007 -0.5338
 4383SOL    HW225209   6.732   6.265   8.760  0.9847 -0.6553 -0.3711
 4384SOL     OW25210   5.546   0.941   8.662  0.9575  0.3491 -0.5485
 4384SOL    HW125211   5.538   0.980   8.571  0.3305 -0.4233 -0.8330
 4384SOL    HW225212   5.548   0.841   8.656 -0.8012  0.2256  0.3855
 4385SOL     OW25213   2.142   6.135   5.267  0.1047  0.8276 -0.5285
 4385SOL    HW125214   2.192   6.220   5.252 -0.7429  1.7388  1.4579
 4385SOL    HW225215   2.194   6.076   5.329 -1.1623  1.7531  1.4926
 4386SOL     OW25216   8.798   9.193   8.607  0.0550 -0.4652  0.0922
 4386SOL    HW125217   8.762   9.177   8.698  1.0858  0.8936  0.7704
 4386SOL    HW225218   8.896   9.215   8.613 -0.3310  1.7689 -1.0902
 4387SOL     OW25219   6.763   4.063   9.088 -0.0315  0.1093  0.1814
 4387SOL    HW125220   6.681   4.120   9.079  0.0735  0.1796 -0.4025
 4387SOL    HW225221   6.736   3.969   9.109 -0.4465 -0.5114 -2.7972
 4388SOL     OW25222   7.299   2.617   9.367  0.2520  0.0083  0.1091
 4388SOL    HW125223   7.338   2.586   9.281 -0.0489 -0.1072  0.0139
 4388SOL    HW225224   7.209   2.659   9.350  1.0775  1.8373  0.0908
 4389SOL     OW25225   6.253   7.350   4.050 -0.2795 -0.4356  0.2158
 4389SOL    HW125226   6.252   7.384   3.956 -1.2013  0.7084  0.6285
 4389SOL    HW225227   6.233   7.425   4.113  2.5466 -0.6866  1.4900
 4390SOL     OW25228   3.598   9.972   9.117 -0.3718 -0.6609 -0.0203
 4390SOL    HW125229   3.546  10.035   9.174  0.0586 -0.7467  0.4693
 4390SOL    HW225230   3.535   9.910   9.070 -0.7065 -0.9129  0.7500
 4391SOL     OW25231   1.934   1.625   1.197  0.8469 -0.3593  0.0515
 4391SOL    HW125232   1.842   1.586   1.192  0.9736 -0.5060 -1.2934
 4391SOL    HW225233   1.927   1.724   1.211  0.4729 -0.2998 -0.5295
 4392SOL     OW25234   1.606   7.408   9.413  0.0722 -0.5236  0.0801
 4392SOL    HW125235   1.621   7.319   9.456 -0.1669 -0.8390 -0.4897
 4392SOL    HW225236   1.694   7.451   9.394  0.1812 -0.3399  0.9656
 4393SOL     OW25237   3.752   0.034   5.372 -0.4346  0.1727 -0.2958
 4393SOL    HW125238   3.694   0.103   5.329 -1.6063 -0.0708  0.8688
 4393SOL    HW225239   3.704  -0.053   5.376  1.0234 -0.7154 -1.7022
 4394SOL     OW25240   0.379   0.870   7.337 -0.3963  0.1436 -0.1842
 4394SOL    HW125241   0.417   0.846   7.247  1.4486  1.1126  0.3200
 4394SOL    HW225242   0.308   0.938   7.326  1.1395  1.6945 -0.7877
 4395SOL     OW25243   1.097   8.741   9.622  0.0958  0.3325  0.1413
 4395SOL    HW125244   1.172   8.722   9.686  0.4434 -0.3481 -0.4571
 4395SOL    HW225245   1.079   8.659   9.567 -2.2272 -0.0684  1.4232
 4396SOL     OW25246   6.171   3.959   8.596  0.0400  0.3918 -0.5285
 4396SOL    HW125247   6.191   4.028   8.527 -0.3029  1.6270  0.6052
 4396SOL    HW225248   6.072   3.947   8.603  0.0934 -0.1878 -0.6772
 4397SOL     OW25249   6.925   3.443   9.807  0.6685 -0.0225 -0.4786
 4397SOL    HW125250   6.853   3.413   9.870 -0.7894  1.1600 -1.5506
 4397SOL    HW225251   6.979   3.364   9.779  0.4208 -0.7814  1.1201
 4398SOL     OW25252   7.140   8.456   5.725  0.0088 -0.0362 -0.2799
 4398SOL    HW125253   7.159   8.358   5.713  3.7089  0.9440 -3.4296
 4398SOL    HW225254   7.082   8.488   5.650 -0.4135  0.4055  0.2325
 4399SOL     OW25255   2.496   6.214   9.687 -0.2475  0.1400 -0.3758
 4399SOL    HW125256   2.399   6.239   9.687 -0.1244  0.6532 -1.6469
 4399SOL    HW225257   2.521   6.176   9.598  0.3957 -1.3165  0.4082
 4400SOL     OW25258   1.527   7.029   8.869  0.0257 -0.2040  0.1999
 4400SOL    HW125259   1.522   7.039   8.968 -0.1558  1.0957  0.0709
 4400SOL    HW225260   1.621   7.045   8.838  0.1266 -0.8216  0.1808
 4401SOL     OW25261   1.990   7.854   5.614 -0.0461  0.1534  0.0128
 4401SOL    HW125262   1.918   7.923   5.627  0.7126  1.1350 -0.8818
 4401SOL    HW225263   2.069   7.878   5.670 -0.0197 -0.3508  0.1936
 4402SOL     OW25264   9.806   7.861   9.585 -0.0958  0.0258  0.0339
 4402SOL    HW125265   9.764   7.773   9.611  1.3541 -0.1502  1.9187
 4402SOL    HW225266   9.867   7.847   9.507  0.6065 -0.7833  0.7165
 4403SOL     OW25267   3.222   3.351   7.515 -0.1951  0.0129 -0.0011
 4403SOL    HW125268   3.150   3.360   7.446  1.4382  1.6101 -1.5522
 4403SOL    HW225269   3.236   3.438   7.561  0.3666 -0.4247  0.6725
 4404SOL     OW25270   2.744   3.414   0.521 -0.1792  0.7715  0.0165
 4404SOL    HW125271   2.832   3.449   0.554  0.5851  0.7232 -1.8535
 4404SOL    HW225272   2.759   3.327   0.475 -1.0846  1.1154 -0.9533
 4405SOL     OW25273   1.113   1.275   2.290  0.2673 -0.3527 -0.1544
 4405SOL    HW125274   1.199   1.325   2.287 -2.2172  4.3809  1.6202
 4405SOL    HW225275   1.068   1.279   2.201  1.3079 -1.8144 -0.7553
 4406SOL     OW25276   9.682   5.265   3.992  0.4764 -0.0260  0.9545
 4406SOL    HW125277   9.697   5.188   4.053 -1.2664 -0.7902  0.4639
 4406SOL    HW225278   9.604   5.319   4.024  0.6867  0.6073  0.4231
 4407SOL     OW25279   1.242   6.369   0.739  0.0975 -0.1683 -0.0902
 4407SOL    HW125280   1.206   6.442   0.796 -2.5000 -1.0782 -0.5054
 4407SOL    HW225281   1.296   6.408   0.664 -0.3899  1.2600  0.3019
 4408SOL     OW25282   1.924   7.944   6.195  0.1937  0.7279 -0.7914
 4408SOL    HW125283   1.947   7.972   6.102  0.7274  2.5593 -0.1190
 4408SOL    HW225284   1.838   7.893   6.194  1.5420 -1.6629 -2.6384
 4409SOL     OW25285   3.815   9.413   6.848  0.0600 -0.4735  0.6952
 4409SOL    HW125286   3.731   9.456   6.881 -0.0511 -0.0212 -0.1689
 4409SOL    HW225287   3.796   9.365   6.762  1.0123  0.8876 -0.2858
 4410SOL     OW25288   9.606   6.404   0.591  0.0056 -0.1192  0.4280
 4410SOL    HW125289   9.693   6.442   0.559 -0.1837 -1.8764 -2.2904
 4410SOL    HW225290   9.535   6.419   0.523 -1.1638 -1.2604  1.3682
 4411SOL     OW25291   9.213   6.404   0.197  0.0667  0.2737 -0.4943
 4411SOL    HW125292   9.245   6.439   0.109  2.4906 -1.4388 -0.3559
 4411SOL    HW225293   9.290   6.400   0.261 -0.8470 -2.0665  0.5252
 4412SOL     OW25294   1.634   5.804   0.921 -0.9082  0.3357 -0.5731
 4412SOL    HW125295   1.625   5.724   0.980  0.0644  1.8461  1.6999
 4412SOL    HW225296   1.638   5.775   0.825  0.7431 -2.4093  0.2852
 4413SOL     OW25297   7.726   1.805   3.075 -0.4890 -0.8081  1.0327
 4413SOL    HW125298   7.759   1.711   3.064  3.6988  0.9123 -2.3523
 4413SOL    HW225299   7.758   1.841   3.163 -0.1276 -1.7639  1.3060
 4414SOL     OW25300   1.612   5.505   9.461 -0.0469  1.0441  0.1824
 4414SOL    HW125301   1.633   5.598   9.492  0.1655  1.1262 -0.2092
 4414SOL    HW225302   1.556   5.509   9.379 -0.5867  0.8228  0.5325
 4415SOL     OW25303   0.906   4.245   9.793  0.4295  0.8408  0.9358
 4415SOL    HW125304   0.831   4.294   9.838  1.2046  2.7999  0.1653
 4415SOL    HW225305   0.950   4.183   9.859 -3.2558 -2.0774  0.8218
 4416SOL     OW25306   0.919   2.415   0.628  0.2225  0.2943 -0.1229
 4416SOL    HW125307   0.865   2.415   0.544  0.9704  3.8011 -0.6579
 4416SOL    HW225308   0.858   2.428   0.707 -0.2491 -0.8872 -0.2851
 4417SOL     OW25309   6.936   5.148   4.897  0.2273  0.2346 -0.4645
 4417SOL    HW125310   7.032   5.159   4.925  0.6627  0.8383 -2.1642
 4417SOL    HW225311   6.921   5.055   4.865  0.6998  0.6192 -1.8495
 4418SOL     OW25312   2.839   8.521   6.925 -0.1026  0.4488  0.0164
 4418SOL    HW125313   2.791   8.607   6.941 -0.7872 -0.1537  1.3347
 4418SOL    HW225314   2.815   8.456   6.997  1.8409 -0.2482  0.0687
 4419SOL     OW25315   7.348   6.271   1.396 -0.9058 -0.1272 -0.2044
 4419SOL    HW125316   7.280   6.336   1.361  0.2970  2.1226  1.5436
 4419SOL    HW225317   7.307   6.218   1.471 -0.4895  1.9334  1.5381
 4420SOL     OW25318   1.503   7.917   9.993  0.2229  0.2260  0.4146
 4420SOL    HW125319   1.535   7.923  10.087  0.7557  1.5314  0.1611
 4420SOL    HW225320   1.436   7.989   9.976  1.0519  0.7748 -0.5557
 4421SOL     OW25321   7.622   2.541   0.639 -0.1005 -0.3967  0.7616
 4421SOL    HW125322   7.580   2.608   0.578  0.0492 -0.2780  0.7899
 4421SOL    HW225323   7.666   2.588   0.715 -2.0661 -0.6500  2.0718
 4422SOL     OW25324   0.268   4.161   0.240  0.1245  0.3699  0.0955
 4422SOL    HW125325   0.213   4.082   0.212 -1.2374  0.5016  2.3423
 4422SOL    HW225326   0.358   4.156   0.196 -0.6300 -1.4098 -1.2882
 4423SOL     OW25327   8.036   8.782   2.226  0.0529 -0.3752  0.1457
 4423SOL    HW125328   8.009   8.734   2.310 -0.2921 -0.2140  0.1263
 4423SOL    HW225329   8.098   8.857   2.250  0.0043 -0.3680  0.2531
 4424SOL     OW25330   0.869   7.145   2.593  0.2688 -0.0389  0.1804
 4424SOL    HW125331   0.924   7.138   2.510  0.4846 -1.2715  0.4131
 4424SOL    HW225332   0.873   7.239   2.628 -0.3786  0.6472 -1.5610
 4425SOL     OW25333   2.220   6.158   8.039  0.5253 -0.1890  0.6415
 4425SOL    HW125334   2.312   6.193   8.022  0.9015 -0.9498  1.0632
 4425SOL    HW225335   2.216   6.061   8.013  0.1480 -0.4429  1.6375
 4426SOL     OW25336   0.868   7.262   9.424 -0.2000 -0.0402  0.2246
 4426SOL    HW125337   0.847   7.327   9.497 -2.2020 -0.9765  0.5113
 4426SOL    HW225338   0.833   7.297   9.337 -0.0252 -0.0821  0.1368
 4427SOL     OW25339   9.907   6.500   9.334  0.8412 -0.1727 -0.0871
 4427SOL    HW125340   9.868   6.436   9.399  1.0463  0.8286  1.0409
 4427SOL    HW225341  10.002   6.519   9.358  1.1395 -0.3566 -1.1032
 4428SOL     OW25342   1.382   6.212   5.979  0.3071 -0.1651  0.6627
 4428SOL    HW125343   1.315   6.180   6.046  0.5703 -0.6552  0.6991
 4428SOL    HW225344   1.394   6.311   5.988 -0.5162 -0.0575  0.5529
 4429SOL     OW25345   7.132   4.491   1.075  0.0927 -0.8481 -0.2281
 4429SOL    HW125346   7.170   4.455   0.990  0.6881  0.4485 -0.5229
 4429SOL    HW225347   7.192   4.562   1.111 -0.8101 -0.5013  0.6122
 4430SOL     OW25348   4.109   5.614   0.925 -0.4153 -0.2119 -0.6119
 4430SOL    HW125349   4.165   5.552   0.870 -0.7442 -0.2054 -0.9571
 4430SOL    HW225350   4.130   5.600   1.022 -0.5688 -0.9551 -0.6789
 4431SOL     OW25351   1.706   5.038   8.321 -0.4514 -0.5628 -0.1690
 4431SOL    HW125352   1.659   5.006   8.404  0.6088  1.2726  1.1746
 4431SOL    HW225353   1.655   5.008   8.241 -2.8277 -0.3577  1.1944
 4432SOL     OW25354   4.174   6.452   0.817 -0.0986 -0.2140 -0.0707
 4432SOL    HW125355   4.221   6.494   0.894 -0.2431  0.3759 -0.3057
 4432SOL    HW225356   4.159   6.520   0.745 -0.8325 -0.5225 -0.2164
 4433SOL     OW25357   1.056   7.129   8.924  0.0704  0.2878 -1.0407
 4433SOL    HW125358   1.086   7.034   8.938  2.5684  1.3990  1.8112
 4433SOL    HW225359   1.136   7.189   8.923 -1.6349  2.6612 -0.1558
 4434SOL     OW25360   3.293   6.064   7.242  0.1706 -0.1055  0.2697
 4434SOL    HW125361   3.379   6.021   7.214 -0.0786 -0.0097 -0.6699
 4434SOL    HW225362   3.312   6.133   7.313  1.2322  1.8366 -1.8368
 4435SOL     OW25363   0.544   0.541   6.802 -0.4295  0.0297  0.4208
 4435SOL    HW125364   0.596   0.511   6.882  0.1015  0.5162  0.2596
 4435SOL    HW225365   0.467   0.479   6.788 -0.2057 -0.3838  0.9782
 4436SOL     OW25366   6.558   8.378   6.006  0.5089  0.0060 -0.1929
 4436SOL    HW125367   6.618   8.336   5.938 -0.6188 -0.6676 -0.7875
 4436SOL    HW225368   6.536   8.312   6.077  0.8515  0.3959  0.2770
 4437SOL     OW25369   5.648   0.240   2.609 -0.2428  0.0756 -0.4758
 4437SOL    HW125370   5.643   0.335   2.640  0.0721 -0.0760  0.0563
 4437SOL    HW225371   5.669   0.181   2.688 -1.5943 -0.5594 -0.5779
 4438SOL     OW25372   1.181   2.571   9.948  0.0929  0.0885  0.2493
 4438SOL    HW125373   1.160   2.474   9.933 -0.6716  0.0731  1.3667
 4438SOL    HW225374   1.201   2.615   9.860 -0.4164 -0.8779 -0.3566
 4439SOL     OW25375   9.394   7.303   9.681 -0.3486 -0.5206  0.0618
 4439SOL    HW125376   9.395   7.219   9.735  0.4410 -1.4554 -1.3619
 4439SOL    HW225377   9.475   7.306   9.622 -0.2981  1.3088  0.1960
 4440SOL     OW25378   9.879   6.778   3.502  0.1601  0.8567  0.0721
 4440SOL    HW125379   9.927   6.852   3.549  0.9365 -0.1573  0.8826
 4440SOL    HW225380   9.787   6.768   3.539  0.8405 -0.0794  1.5413
 4441SOL     OW25381   7.481   5.417   0.790  0.4595  0.4747 -0.0272
 4441SOL    HW125382   7.447   5.374   0.873  1.3045  1.5752  0.9079
 4441SOL    HW225383   7.404   5.454   0.738 -0.0120  0.4304  0.6300
 4442SOL     OW25384   9.482   3.881   8.243  0.4548 -0.0739 -0.8443
 4442SOL    HW125385   9.494   3.971   8.284  0.6925  0.4717 -2.0905
 4442SOL    HW225386   9.548   3.817   8.283 -0.3746  0.0393  0.7557
 4443SOL     OW25387   7.944   9.161   9.906 -0.5744  0.6663  0.0316
 4443SOL    HW125388   7.912   9.104   9.830  2.7716 -1.8568  0.3918
 4443SOL    HW225389   8.013   9.226   9.872 -1.4209  1.7520  0.3613
 4444SOL     OW25390   4.743   7.410   2.916  0.9885  0.4965 -0.0397
 4444SOL    HW125391   4.774   7.497   2.956  1.0240  0.3769  0.1915
 4444SOL    HW225392   4.643   7.411   2.908  1.0460  0.9237 -0.8766
 4445SOL     OW25393   1.362   5.729   8.733 -0.0084  0.4774 -0.2899
 4445SOL    HW125394   1.395   5.797   8.668 -1.2080  0.7869 -0.5749
 4445SOL    HW225395   1.265   5.712   8.718 -0.0572 -0.2128  0.7451
 4446SOL     OW25396   1.391   4.697   5.218 -0.4402  0.8654  0.0160
 4446SOL    HW125397   1.393   4.756   5.137 -1.4180 -0.2666 -0.8566
 4446SOL    HW225398   1.319   4.730   5.280 -1.1452  0.4625 -0.5789
 4447SOL     OW25399   1.083   9.611   9.752  0.1922 -0.0416  0.6031
 4447SOL    HW125400   1.011   9.674   9.779 -2.3105 -1.8723 -1.6408
 4447SOL    HW225401   1.121   9.639   9.664  0.1922 -0.7893  0.3661
 4448SOL     OW25402   2.657   6.902   1.663  0.3312 -0.2378 -0.1472
 4448SOL    HW125403   2.634   6.926   1.758 -0.6618  2.4218 -1.0231
 4448SOL    HW225404   2.751   6.867   1.659  0.8060  0.7711  1.6473
 4449SOL     OW25405   0.919   4.069   4.327 -0.3065  0.5755  0.6865
 4449SOL    HW125406   0.961   4.159   4.340 -0.7244  0.5824  2.0226
 4449SOL    HW225407   0.821   4.075   4.344 -0.0947 -0.4663  2.4157
 4450SOL     OW25408   1.223   8.095   2.793  0.2148 -0.9956  0.2327
 4450SOL    HW125409   1.297   8.104   2.860  1.1152 -0.6412 -0.7972
 4450SOL    HW225410   1.218   8.178   2.737 -1.9373 -0.3973  1.2691
 4451SOL     OW25411   0.499   4.127   2.302  0.5493 -0.2993  0.7043
 4451SOL    HW125412   0.406   4.159   2.287  0.5655 -0.6089 -0.0727
 4451SOL    HW225413   0.561   4.174   2.239  1.0486  0.5428  1.8069
 4452SOL     OW25414   9.551   1.675   2.715 -0.1294  0.1572 -0.0108
 4452SOL    HW125415   9.524   1.651   2.621  0.7650  0.8282 -0.4416
 4452SOL    HW225416   9.571   1.591   2.766  0.5199 -0.1532 -0.7655
 4453SOL     OW25417   1.580   6.296   3.635 -0.2404  0.1068  0.0795
 4453SOL    HW125418   1.544   6.369   3.578 -2.3695 -1.8944 -1.2487
 4453SOL    HW225419   1.567   6.318   3.732 -2.2952  0.7778 -0.3403
 4454SOL     OW25420   4.532   9.932   9.815 -0.2708 -0.7907  0.4265
 4454SOL    HW125421   4.460   9.867   9.791 -1.6941 -0.6094  3.8815
 4454SOL    HW225422   4.490  10.017   9.847  1.5569  0.9870 -1.7565
 4455SOL     OW25423   6.660   1.547   4.441  0.1620  0.4326  0.7462
 4455SOL    HW125424   6.592   1.578   4.374  0.4709 -0.4452  0.0043
 4455SOL    HW225425   6.613   1.512   4.522 -0.2076  1.7715  1.1124
 4456SOL     OW25426   8.706   6.572   9.310 -0.3727 -0.2517  0.1893
 4456SOL    HW125427   8.733   6.667   9.326  1.0895 -0.4636 -0.8835
 4456SOL    HW225428   8.658   6.537   9.390  1.7510  0.4548  1.8407
 4457SOL     OW25429   0.579   4.699   6.342 -0.1305 -0.4748  0.5910
 4457SOL    HW125430   0.657   4.701   6.280 -1.1651 -1.3855 -0.7641
 4457SOL    HW225431   0.518   4.776   6.323  0.5042  0.3181  1.7433
 4458SOL     OW25432   2.126   7.522   7.500 -0.4610  0.1619  0.2772
 4458SOL    HW125433   2.224   7.524   7.478 -0.5955 -1.3199 -0.4816
 4458SOL    HW225434   2.079   7.461   7.437 -1.4343 -1.3899  2.4542
 4459SOL     OW25435   6.916   9.025   7.176 -0.2871 -0.3278 -0.1365
 4459SOL    HW125436   6.935   9.061   7.268  1.0471 -0.1940 -0.4533
 4459SOL    HW225437   6.829   9.063   7.143 -0.2971  0.3904  0.6817
 4460SOL     OW25438   0.334   5.310   9.180 -0.2976 -0.3319 -0.5376
 4460SOL    HW125439   0.312   5.321   9.277 -0.2403 -0.1317 -0.5474
 4460SOL    HW225440   0.371   5.218   9.166  0.4183 -0.0962 -0.2345
 4461SOL     OW25441   2.022   4.939   5.220  0.3148  0.2650  0.4778
 4461SOL    HW125442   2.116   4.927   5.188 -0.4292 -1.7698 -1.0568
 4461SOL    HW225443   2.001   4.872   5.291 -0.6983 -0.9031 -0.8900
 4462SOL     OW25444   3.336   3.408   8.027 -0.1662  0.2167 -0.5324
 4462SOL    HW125445   3.300   3.500   8.022  1.0263  0.6937 -0.5874
 4462SOL    HW225446   3.363   3.388   8.122 -0.8474 -0.2450 -0.4316
 4463SOL     OW25447   0.002   4.929   4.026 -0.4141  0.5762  0.5352
 4463SOL    HW125448   0.050   4.896   4.107  1.2721  1.1524 -0.2119
 4463SOL    HW225449   0.062   4.989   3.974 -2.1372  1.7423 -0.1471
 4464SOL     OW25450   6.405   9.659   7.567 -0.5045  0.1919 -0.1818
 4464SOL    HW125451   6.399   9.636   7.470 -0.8776 -0.3599 -0.0288
 4464SOL    HW225452   6.328   9.619   7.616  0.1562 -0.2710  0.4889
 4465SOL     OW25453   4.976   6.145   2.200 -0.2315  0.5552 -0.0601
 4465SOL    HW125454   4.885   6.102   2.192 -0.7799  1.2612  1.9344
 4465SOL    HW225455   4.979   6.227   2.143 -0.0864 -0.6723 -1.8395
 4466SOL     OW25456   5.067   1.721   0.203 -0.3848 -0.2113 -0.0358
 4466SOL    HW125457   4.990   1.694   0.262 -0.3349  0.4255  0.3144
 4466SOL    HW225458   5.057   1.817   0.177  0.6325  0.0430  0.5207
 4467SOL     OW25459   0.776   2.673   0.649 -0.2930 -0.3671  0.1627
 4467SOL    HW125460   0.747   2.768   0.661  1.0607  0.2906 -1.5156
 4467SOL    HW225461   0.876   2.668   0.653 -0.3021 -1.5760 -0.7605
 4468SOL     OW25462   4.863   6.627   7.972 -0.0449 -0.0974  0.1501
 4468SOL    HW125463   4.784   6.652   8.028 -0.5155  0.6228 -0.8134
 4468SOL    HW225464   4.861   6.528   7.955 -0.4299 -0.1694  0.5894
 4469SOL     OW25465   5.109   9.453   6.189  0.0843  0.5625  0.0093
 4469SOL    HW125466   5.025   9.403   6.210  1.6099 -1.3014  1.9791
 4469SOL    HW225467   5.146   9.492   6.274  2.2179 -0.2960 -0.5049
 4470SOL     OW25468   2.397   3.691   0.887 -0.6040 -0.0442  0.3017
 4470SOL    HW125469   2.473   3.639   0.849 -0.2733  0.3399  0.4348
 4470SOL    HW225470   2.323   3.696   0.819  0.4881  1.7473 -0.8372
 4471SOL     OW25471   1.009   1.482   9.522 -0.5295  0.3005  0.0721
 4471SOL    HW125472   0.988   1.392   9.560 -0.1268 -0.3747 -1.2543
 4471SOL    HW225473   0.925   1.535   9.512 -1.0309 -0.6899 -1.0371
 4472SOL     OW25474   0.177   9.082   7.793 -0.1798  0.1214 -0.7263
 4472SOL    HW125475   0.211   9.129   7.712 -2.1958  0.4502 -1.4054
 4472SOL    HW225476   0.097   9.027   7.769 -0.3258 -0.4135  0.8885
 4473SOL     OW25477   2.211   3.929   1.111 -0.0484  0.2534  0.2137
 4473SOL    HW125478   2.210   3.936   1.211  0.5936  0.9224  0.1824
 4473SOL    HW225479   2.146   3.859   1.081 -0.2787  0.0866  1.0970
 4474SOL     OW25480   3.195   1.691   5.194  0.2164  0.4950 -0.2344
 4474SOL    HW125481   3.272   1.627   5.185 -0.3446 -0.2700  0.3574
 4474SOL    HW225482   3.110   1.639   5.200 -0.2306  1.3005  0.3591
 4475SOL     OW25483   3.621   4.037   9.540  0.0196 -0.4492 -0.1438
 4475SOL    HW125484   3.595   3.949   9.580 -0.7339 -0.7570 -1.2981
 4475SOL    HW225485   3.715   4.032   9.507  0.3621 -0.4606  0.8156
 4476SOL     OW25486   5.922   9.798   9.431 -0.3109 -0.1901  0.2386
 4476SOL    HW125487   5.860   9.849   9.491  0.7754  0.2338  1.0082
 4476SOL    HW225488   5.925   9.841   9.341 -0.9548 -0.0826  0.2655
 4477SOL     OW25489   0.016   6.546   1.614 -0.4386  0.1579 -0.5430
 4477SOL    HW125490  -0.043   6.549   1.533  1.4357  0.9260 -1.9307
 4477SOL    HW225491   0.087   6.616   1.606  0.6257 -0.6953  1.1207
 4478SOL     OW25492   4.045   6.818   0.435  0.2756  0.1169  0.2274
 4478SOL    HW125493   4.097   6.747   0.482  0.9893  1.2423  1.1568
 4478SOL    HW225494   3.971   6.850   0.494 -0.6196 -0.4857 -0.5458
 4479SOL     OW25495   0.933   4.794   6.943 -0.1246  0.4023 -0.3266
 4479SOL    HW125496   0.981   4.723   6.891 -0.8871  0.2846 -0.8744
 4479SOL    HW225497   0.968   4.796   7.037  0.5000 -0.1142 -0.5469
 4480SOL     OW25498   1.301   7.264   0.268  0.4929  0.3433  0.1090
 4480SOL    HW125499   1.283   7.165   0.272 -2.0967  0.7970  0.4223
 4480SOL    HW225500   1.386   7.284   0.317 -0.3961 -1.3917  2.4758
 4481SOL     OW25501   1.195   6.935   0.509  0.3697  0.3552 -0.0069
 4481SOL    HW125502   1.220   6.902   0.418  1.5172  0.6869  0.1779
 4481SOL    HW225503   1.265   6.908   0.575  1.1167  2.7096  0.2366
 4482SOL     OW25504   0.733   5.756   8.738  0.0373  0.4074  0.2855
 4482SOL    HW125505   0.813   5.814   8.723  1.4429 -1.9220 -1.6942
 4482SOL    HW225506   0.678   5.753   8.654 -0.3568 -0.5700  0.5632
 4483SOL     OW25507   7.315   9.244   9.171 -0.2208 -0.1771  0.0079
 4483SOL    HW125508   7.305   9.316   9.102 -2.3901 -0.9774 -0.5646
 4483SOL    HW225509   7.245   9.174   9.156 -0.8066 -0.3183  3.0844
 4484SOL     OW25510   3.734   8.832   8.422  0.2400  0.2761  0.1916
 4484SOL    HW125511   3.763   8.897   8.492 -2.2791  0.5085  1.0621
 4484SOL    HW225512   3.757   8.868   8.331  0.0298  1.7590  0.7189
 4485SOL     OW25513   6.836   6.548   8.217  0.1233 -0.2276  0.2290
 4485SOL    HW125514   6.932   6.521   8.202  0.3022  0.3932  0.2226
 4485SOL    HW225515   6.807   6.518   8.307  0.6590  0.4891  0.6513
 4486SOL     OW25516   3.442   6.063   2.160 -0.3612  0.4302 -0.3591
 4486SOL    HW125517   3.501   6.023   2.091 -0.0048  0.3654 -0.0224
 4486SOL    HW225518   3.387   5.992   2.203  1.4198  0.0307  1.3476
 4487SOL     OW25519   0.717   4.848   1.506  0.2002  0.2843  0.0278
 4487SOL    HW125520   0.682   4.903   1.582 -2.0274 -0.6671 -0.2859
 4487SOL    HW225521   0.746   4.759   1.541 -0.6610 -0.0886 -0.2039
 4488SOL     OW25522   0.995   0.688   7.705  0.3645  0.5145 -0.2274
 4488SOL    HW125523   1.042   0.669   7.791  0.3252  0.1746 -0.2813
 4488SOL    HW225524   1.004   0.609   7.644  0.5626  0.8263 -0.6083
 4489SOL     OW25525   8.477   7.837   4.760 -0.3756 -0.2629 -0.0730
 4489SOL    HW125526   8.447   7.822   4.665 -1.1797  0.6165  0.0337
 4489SOL    HW225527   8.572   7.868   4.760 -0.0988 -1.1127 -0.5415
 4490SOL     OW25528   5.110   0.507   1.482 -0.8608 -0.0962 -0.5125
 4490SOL    HW125529   5.056   0.584   1.447  1.0607  0.5358 -2.2260
 4490SOL    HW225530   5.173   0.475   1.410  0.3703 -1.4052  1.1061
 4491SOL     OW25531   1.137   1.034   0.467  0.0342 -0.0037 -0.6233
 4491SOL    HW125532   1.067   1.104   0.454 -1.2743 -0.4221  3.5728
 4491SOL    HW225533   1.094   0.947   0.492  1.9100 -1.0587 -0.9753
 4492SOL     OW25534   0.120   6.462   0.236 -0.5844  0.0240 -0.2418
 4492SOL    HW125535   0.134   6.521   0.315 -2.8669  0.3748 -0.0417
 4492SOL    HW225536   0.046   6.398   0.255 -0.1747 -0.8634 -1.5594
 4493SOL     OW25537   9.533   9.725   4.399 -0.7323  0.3714  0.4411
 4493SOL    HW125538   9.535   9.758   4.494  0.0906 -0.4375  0.7101
 4493SOL    HW225539   9.564   9.630   4.396  0.9209  0.9321 -0.8595
 4494SOL     OW25540   9.840   1.453   8.563 -0.9050 -0.1530  0.1860
 4494SOL    HW125541   9.775   1.509   8.511 -1.2126 -0.6959 -0.0064
 4494SOL    HW225542   9.931   1.463   8.523 -1.0856 -0.3403 -0.2747
 4495SOL     OW25543   6.647   3.812   9.149 -0.2791 -0.8621  0.6173
 4495SOL    HW125544   6.566   3.789   9.094 -0.0298  0.5731 -0.3859
 4495SOL    HW225545   6.687   3.728   9.186  0.2682 -2.0418 -2.4693
 4496SOL     OW25546   2.482   5.805   3.266 -0.4028 -0.4102  0.3621
 4496SOL    HW125547   2.410   5.781   3.332 -0.5068 -0.9389  0.0622
 4496SOL    HW225548   2.559   5.743   3.278 -0.6306 -0.8342 -0.3500
 4497SOL     OW25549   3.519   9.552   9.244  0.6051 -0.3725  0.2781
 4497SOL    HW125550   3.531   9.454   9.231 -0.9814 -0.5581  0.1621
 4497SOL    HW225551   3.549   9.577   9.337  1.4482 -0.8745  0.1483
 4498SOL     OW25552   1.975   4.551   2.490 -0.2091 -0.5292  0.6219
 4498SOL    HW125553   1.989   4.650   2.492  1.3818 -0.6755 -1.5008
 4498SOL    HW225554   1.986   4.514   2.582  3.8946  0.6789  0.6816
 4499SOL     OW25555   1.865   7.759   1.365 -0.1805  0.0007 -0.2856
 4499SOL    HW125556   1.872   7.847   1.317 -0.5767  0.0897 -0.1845
 4499SOL    HW225557   1.787   7.708   1.330  0.7756 -0.8514 -1.1958
 4500SOL     OW25558   9.620   6.413   1.644  0.2506 -0.8693 -0.0144
 4500SOL    HW125559   9.609   6.513   1.648 -0.5400 -0.9797  0.7063
 4500SOL    HW225560   9.638   6.385   1.550 -1.8795 -0.2890 -0.6186
 4501SOL     OW25561   9.160   9.612   1.673 -0.0087  0.2849 -0.0063
 4501SOL    HW125562   9.140   9.621   1.771  1.8336  1.0724  0.3123
 4501SOL    HW225563   9.144   9.700   1.628 -3.0811 -0.6253 -0.8843
 4502SOL     OW25564   3.695   0.553   8.462 -0.0190  0.0905 -0.2950
 4502SOL    HW125565   3.758   0.535   8.538 -1.9252 -0.9624  1.0749
 4502SOL    HW225566   3.643   0.470   8.442 -3.0604  1.7191  0.5828
 4503SOL     OW25567   4.783   4.475   3.074  0.1091  0.4662  0.5737
 4503SOL    HW125568   4.713   4.546   3.066  0.6026  0.8550 -0.3636
 4503SOL    HW225569   4.790   4.425   2.988  0.7070  0.1684  0.7934
 4504SOL     OW25570   1.621   4.672   9.374 -0.4953  0.4237  0.6360
 4504SOL    HW125571   1.608   4.772   9.377 -3.1500  0.2658 -2.9473
 4504SOL    HW225572   1.700   4.651   9.317 -1.1692  0.4050 -0.2906
 4505SOL     OW25573   4.839   8.474   6.758  0.1551  0.3909 -0.2067
 4505SOL    HW125574   4.929   8.515   6.743 -0.1508  0.7987 -0.9311
 4505SOL    HW225575   4.834   8.387   6.710 -0.2491  0.9293 -1.1593
 4506SOL     OW25576   4.739   4.514   1.549 -0.0294 -0.1786  0.3011
 4506SOL    HW125577   4.646   4.545   1.569  0.2551  0.1512  1.1692
 4506SOL    HW225578   4.783   4.486   1.634  1.0053  0.6207  0.0315
 4507SOL     OW25579   2.895   6.115   1.111  0.5696  0.4307  0.1273
 4507SOL    HW125580   2.809   6.101   1.160  0.5059  1.3928  0.3004
 4507SOL    HW225581   2.876   6.125   1.014  0.3509  1.8470  0.3025
 4508SOL     OW25582   1.601   2.381   8.799  0.3372 -0.4097 -0.3482
 4508SOL    HW125583   1.646   2.332   8.874 -0.5985 -0.5043  0.1567
 4508SOL    HW225584   1.557   2.316   8.738 -1.2728 -0.1839  0.5592
 4509SOL     OW25585   1.576   5.679   3.369  0.3318 -0.1101 -0.2254
 4509SOL    HW125586   1.666   5.724   3.373  0.2488  0.0872 -0.5899
 4509SOL    HW225587   1.567   5.629   3.284 -0.2792  0.6629 -0.6228
 4510SOL     OW25588   1.036   8.481   9.502  0.5477 -0.0727 -0.3697
 4510SOL    HW125589   1.074   8.447   9.589 -0.2516  2.7318  1.1127
 4510SOL    HW225590   0.955   8.427   9.478  0.7140 -0.8117  0.6868
 4511SOL     OW25591   0.845   8.249   6.364  0.4927  0.1076 -0.1143
 4511SOL    HW125592   0.776   8.202   6.309  0.7400 -0.5549  0.1454
 4511SOL    HW225593   0.936   8.218   6.337  0.7343  1.3978 -0.8521
 4512SOL     OW25594   0.790   7.541   7.267 -0.4056 -0.6910  0.1567
 4512SOL    HW125595   0.743   7.584   7.344 -0.5168 -0.8298  0.1664
 4512SOL    HW225596   0.886   7.526   7.290  0.0609  1.2047 -0.5117
 4513SOL     OW25597   4.474   8.984   8.182 -0.2631  0.0047 -0.1817
 4513SOL    HW125598   4.468   9.084   8.190 -2.5151 -0.2631  2.5080
 4513SOL    HW225599   4.393   8.950   8.134 -1.6503 -0.8007  2.6206
 4514SOL     OW25600   3.532   5.908   7.196 -0.4646 -0.0963  0.0134
 4514SOL    HW125601   3.610   5.956   7.237 -0.0221 -0.2750 -0.6211
 4514SOL    HW225602   3.543   5.904   7.097 -1.9286  1.0064 -0.2042
 4515SOL     OW25603   1.219   9.070   6.857  0.5722 -0.2587 -0.6084
 4515SOL    HW125604   1.261   9.006   6.793  2.5070  1.7697 -1.4553
 4515SOL    HW225605   1.128   9.096   6.825  0.0637 -2.0212 -0.6139
 4516SOL     OW25606   2.365   5.343   8.131  0.0235 -0.1604  0.2372
 4516SOL    HW125607   2.359   5.338   8.231 -2.0830 -0.2074  0.1353
 4516SOL    HW225608   2.323   5.429   8.100  0.2248 -0.3791 -0.6401
 4517SOL     OW25609   7.713   7.413   2.622  0.0795  0.1170  0.0466
 4517SOL    HW125610   7.697   7.511   2.614  0.4208  0.1323 -0.4282
 4517SOL    HW225611   7.810   7.394   2.610  0.5434  0.0729  3.3310
 4518SOL     OW25612   5.572   6.945   2.668  0.1456  0.3332  0.3696
 4518SOL    HW125613   5.567   7.003   2.586  0.2562 -0.6533 -0.3380
 4518SOL    HW225614   5.666   6.944   2.702  0.2001  0.3462  0.2201
 4519SOL     OW25615   1.045   8.703   0.270 -0.0024 -0.0205 -0.0463
 4519SOL    HW125616   1.109   8.629   0.290 -0.8951  0.0178  3.1974
 4519SOL    HW225617   1.091   8.791   0.285 -0.3072  0.0272  0.6154
 4520SOL     OW25618   1.399   1.936   9.747  0.5955  0.6892 -0.3657
 4520SOL    HW125619   1.304   1.934   9.717  0.3782  1.8703  0.2007
 4520SOL    HW225620   1.405   1.980   9.837  1.3908 -1.5549  0.7234
 4521SOL     OW25621   0.488   5.551   2.170  0.0306  0.5609  0.2712
 4521SOL    HW125622   0.489   5.500   2.083 -1.5812 -1.7506  1.5698
 4521SOL    HW225623   0.569   5.526   2.223 -0.0722  0.3851  0.3439
 4522SOL     OW25624   2.275   7.294   2.897 -0.0760  0.1983 -0.0067
 4522SOL    HW125625   2.196   7.299   2.959  2.1711  1.0911  2.9077
 4522SOL    HW225626   2.309   7.387   2.879 -2.3116  0.2055 -4.8767
 4523SOL     OW25627   2.227   8.658   4.021  0.1278 -0.1800 -0.0998
 4523SOL    HW125628   2.220   8.706   4.108  1.8882  0.8157 -0.4727
 4523SOL    HW225629   2.248   8.723   3.948 -0.9639 -1.0495 -1.2211
 4524SOL     OW25630   8.944   4.064   9.352 -0.3087  0.2952 -0.2393
 4524SOL    HW125631   8.869   4.006   9.320 -1.2220  1.3942 -0.1319
 4524SOL    HW225632   8.907   4.149   9.390  0.7934 -0.5240  2.7977
 4525SOL     OW25633   6.910   8.173   0.169  0.0460 -0.4369  0.2985
 4525SOL    HW125634   6.951   8.233   0.237  0.1172 -1.7910  1.4870
 4525SOL    HW225635   6.945   8.080   0.182 -1.0380 -0.9926 -0.6636
 4526SOL     OW25636   9.428   5.629   3.410  0.1736 -0.0170  0.1710
 4526SOL    HW125637   9.396   5.574   3.487 -2.7644 -0.2840 -1.1780
 4526SOL    HW225638   9.486   5.573   3.351  0.5445 -0.4704  0.9550
 4527SOL     OW25639   1.872   4.958   9.736 -0.3157  0.6126  0.7587
 4527SOL    HW125640   1.780   4.919   9.736  0.7918 -2.0810  0.4827
 4527SOL    HW225641   1.896   4.988   9.644  0.6656 -2.6473 -0.1037
 4528SOL     OW25642   0.057   5.009   5.859  0.3639 -0.1159 -0.0294
 4528SOL    HW125643   0.146   4.995   5.816  1.3077  1.6571  1.2609
 4528SOL    HW225644   0.057   5.097   5.906 -1.0650 -1.3940  2.4600
 4529SOL     OW25645   0.766   1.134   8.042  0.4891  0.1834 -0.4425
 4529SOL    HW125646   0.832   1.165   8.110 -1.5730 -0.5297  1.9500
 4529SOL    HW225647   0.729   1.214   7.993  2.0467  0.6869 -0.8230
 4530SOL     OW25648   3.533   5.094   1.855  0.3143 -0.0526  0.4719
 4530SOL    HW125649   3.461   5.148   1.898  2.4159  1.4090  2.2743
 4530SOL    HW225650   3.523   4.998   1.882 -1.6456 -0.0836 -0.2862
 4531SOL     OW25651   1.858   9.725   3.597  0.1861  0.4448  0.2345
 4531SOL    HW125652   1.902   9.765   3.517 -0.0690  0.7277  0.2315
 4531SOL    HW225653   1.859   9.626   3.589  1.0943  0.4414  0.3887
 4532SOL     OW25654   1.682   7.445   1.897 -0.0909 -0.4019 -0.2849
 4532SOL    HW125655   1.746   7.407   1.963 -1.0427  0.1817  0.9905
 4532SOL    HW225656   1.698   7.543   1.887 -1.2823 -0.0892  0.6581
 4533SOL     OW25657   1.573   5.265   4.711 -0.1524 -0.4507  0.4446
 4533SOL    HW125658   1.502   5.248   4.643 -0.5824 -2.6865  1.4251
 4533SOL    HW225659   1.660   5.230   4.677 -0.2887 -1.2095  0.8743
 4534SOL     OW25660   6.693   0.764   5.240 -0.1905 -0.1840  0.3196
 4534SOL    HW125661   6.761   0.718   5.296  0.0418 -1.1598 -0.7494
 4534SOL    HW225662   6.630   0.815   5.299  0.0999 -1.1244  1.4553
 4535SOL     OW25663   6.318   3.992   0.975 -0.8800  0.3113 -0.5435
 4535SOL    HW125664   6.292   4.029   0.886 -2.4567  1.3433  0.3083
 4535SOL    HW225665   6.414   4.012   0.994 -0.3472 -0.5203 -2.2974
 4536SOL     OW25666   2.316   1.897   8.317 -0.5826  0.5859  0.0690
 4536SOL    HW125667   2.247   1.955   8.273 -0.6479  0.2363 -0.2935
 4536SOL    HW225668   2.367   1.950   8.384  1.9201  2.0594 -2.8910
 4537SOL     OW25669   0.958   8.888   6.696 -0.0082 -0.2975  0.3673
 4537SOL    HW125670   1.021   8.835   6.753 -0.3554 -2.0388 -0.7980
 4537SOL    HW225671   0.909   8.825   6.635 -0.0567  1.4535 -1.4285
 4538SOL     OW25672   2.642   4.872   8.008  0.3424  0.2803  0.2529
 4538SOL    HW125673   2.577   4.835   7.942 -1.9343  2.5489  1.1521
 4538SOL    HW225674   2.640   4.818   8.091  0.4740 -0.3369 -0.1400
 4539SOL     OW25675   0.731   4.622   4.646 -0.3608  0.1696 -0.2339
 4539SOL    HW125676   0.720   4.654   4.552  0.3314  2.1855  0.3426
 4539SOL    HW225677   0.646   4.635   4.696 -0.7468 -0.9587 -0.5936
 4540SOL     OW25678   0.383   3.548   0.213  0.5402 -0.2658 -0.2188
 4540SOL    HW125679   0.385   3.547   0.113 -0.3978 -0.1295 -0.2445
 4540SOL    HW225680   0.400   3.641   0.245  1.5357 -0.4392 -0.2274
 4541SOL     OW25681   6.313   0.651   1.041 -0.6749  0.1203  0.2080
 4541SOL    HW125682   6.391   0.602   1.002  0.1044 -0.5404  2.5063
 4541SOL    HW225683   6.324   0.749   1.024 -0.5780 -0.1814 -1.5595
 4542SOL     OW25684   8.796   6.499   6.470  0.2804 -0.4980 -0.2752
 4542SOL    HW125685   8.788   6.598   6.471 -0.8335 -0.5880  1.0332
 4542SOL    HW225686   8.832   6.467   6.557 -1.1158 -1.3707  0.0015
 4543SOL     OW25687   3.716   4.249   0.352  0.2494 -0.5719  0.2315
 4543SOL    HW125688   3.619   4.247   0.328 -0.4532 -3.3999  3.0188
 4543SOL    HW225689   3.732   4.325   0.416 -0.3101 -0.7007  0.5283
 4544SOL     OW25690   2.999   7.398   1.905  0.1000 -0.5471 -0.0091
 4544SOL    HW125691   2.976   7.493   1.884 -1.0763 -0.4470  1.6663
 4544SOL    HW225692   2.969   7.339   1.830 -1.0520  0.1633 -0.1150
 4545SOL     OW25693   5.093   5.610   0.141  0.3507 -0.1634  0.2677
 4545SOL    HW125694   5.109   5.688   0.202 -0.9264 -0.0488  0.4683
 4545SOL    HW225695   5.036   5.543   0.188 -0.0821 -0.3784 -0.5654
 4546SOL     OW25696   0.546   9.134   9.330  0.1273 -0.0601 -0.4597
 4546SOL    HW125697   0.637   9.165   9.303 -0.4614  2.4665  0.2677
 4546SOL    HW225698   0.499   9.095   9.251  0.4539  2.1936 -1.8352
 4547SOL     OW25699   0.556   5.643   8.512 -0.2724 -0.5313  0.3464
 4547SOL    HW125700   0.502   5.629   8.595  0.1898  0.5146  0.8414
 4547SOL    HW225701   0.588   5.555   8.477 -2.9427 -1.2274 -0.4096
 4548SOL     OW25702   1.595   7.612   3.390 -0.6689  0.6679 -0.4203
 4548SOL    HW125703   1.504   7.653   3.384 -1.3731 -1.0046 -1.5219
 4548SOL    HW225704   1.605   7.566   3.478 -1.2728  0.0007 -0.6929
 4549SOL     OW25705   9.990   8.649   4.699 -0.1890  0.1317 -0.4970
 4549SOL    HW125706  10.054   8.585   4.656 -1.0233 -1.8448  1.0959
 4549SOL    HW225707  10.037   8.734   4.720  1.9707 -1.3035  0.6716
 4550SOL     OW25708   2.347   5.000   1.201  0.1405 -0.0308 -0.0753
 4550SOL    HW125709   2.435   4.970   1.238 -0.4896  0.4481  1.9058
 4550SOL    HW225710   2.292   5.039   1.275 -2.5583 -2.2578 -0.8066
 4551SOL     OW25711   3.890   6.651   8.964 -0.0983 -0.0426 -0.2497
 4551SOL    HW125712   3.903   6.750   8.965  0.8848 -0.1600 -0.9261
 4551SOL    HW225713   3.792   6.631   8.962 -0.3235  0.8939  1.1594
 4552SOL     OW25714   9.644   6.892   6.993  0.4208 -0.0188 -0.4074
 4552SOL    HW125715   9.644   6.901   6.893 -1.9902  0.8708 -0.3656
 4552SOL    HW225716   9.627   6.981   7.035  1.0839 -0.4498  0.7978
 4553SOL     OW25717   2.695   7.247   1.161  0.2012 -0.2391  0.6812
 4553SOL    HW125718   2.771   7.219   1.103 -0.2872 -1.6742  0.7044
 4553SOL    HW225719   2.627   7.173   1.166 -0.0654  0.0834  2.5625
 4554SOL     OW25720   6.003   2.459   9.712 -0.1446  0.1324 -0.0957
 4554SOL    HW125721   5.941   2.469   9.790  0.5488 -2.3750  0.8370
 4554SOL    HW225722   5.972   2.516   9.636 -2.4311  0.4490  1.0544
 4555SOL     OW25723   1.715   2.831   6.786 -0.3224  1.1051 -0.0028
 4555SOL    HW125724   1.616   2.843   6.787 -0.4418  0.1328  0.5109
 4555SOL    HW225725   1.753   2.857   6.875 -0.4465 -1.0424  0.7214
 4556SOL     OW25726   3.421   4.213   7.114  0.2605  0.3608 -0.4492
 4556SOL    HW125727   3.365   4.228   7.032 -2.4579 -3.4912  0.5638
 4556SOL    HW225728   3.506   4.167   7.089 -0.3078 -0.2984 -1.1623
 4557SOL     OW25729   1.073   8.901   4.689  0.4949  0.5651  0.1985
 4557SOL    HW125730   1.088   8.992   4.651 -0.4958 -0.3586 -2.5195
 4557SOL    HW225731   0.975   8.884   4.695  0.6774 -0.3763  0.5293
 4558SOL     OW25732   3.137   7.441   2.510 -0.0279  0.6938  0.0510
 4558SOL    HW125733   3.054   7.479   2.550 -0.7216 -1.0534  0.3181
 4558SOL    HW225734   3.167   7.499   2.434 -2.6650  0.2349 -1.3814
 4559SOL     OW25735   7.894   0.431   0.547  0.0286  0.1964 -0.5146
 4559SOL    HW125736   7.861   0.472   0.631 -0.5610  1.2688 -1.2555
 4559SOL    HW225737   7.826   0.444   0.475 -0.1167 -1.9731 -0.7984
 4560SOL     OW25738   3.218   0.390   8.843 -0.3307  0.7170 -0.3441
 4560SOL    HW125739   3.280   0.313   8.857 -0.8622  0.1853 -0.8990
 4560SOL    HW225740   3.267   0.464   8.796  0.2066  0.7669  0.2832
 4561SOL     OW25741   1.296   3.072   9.352 -0.1559 -0.3033  0.7319
 4561SOL    HW125742   1.230   2.997   9.344  0.3874 -0.9450  2.1587
 4561SOL    HW225743   1.365   3.062   9.280 -1.3550  0.1476 -0.5186
 4562SOL     OW25744   9.502   0.628   1.709  0.1182  0.6159  0.0629
 4562SOL    HW125745   9.520   0.627   1.808 -0.0935 -1.5015  0.1059
 4562SOL    HW225746   9.589   0.627   1.659  0.2311  1.9782  0.2145
 4563SOL     OW25747   0.716   7.080   8.916 -0.2627 -0.0155  0.2526
 4563SOL    HW125748   0.807   7.116   8.936 -0.5836  0.9127  0.0639
 4563SOL    HW225749   0.669   7.058   9.001 -0.1213  0.1521  0.3724
 4564SOL     OW25750   5.522   4.963   3.801  0.0042  0.0954 -0.3235
 4564SOL    HW125751   5.449   4.900   3.775 -0.6168 -0.9076  3.6003
 4564SOL    HW225752   5.489   5.026   3.871  2.5117  0.4728  0.5645
 4565SOL     OW25753   7.024   5.960   2.891 -0.4857  0.2044  0.0569
 4565SOL    HW125754   7.047   5.976   2.796 -0.0867  0.1401  0.1419
 4565SOL    HW225755   6.932   5.994   2.910 -1.2085 -1.2462 -0.7540
 4566SOL     OW25756   1.479   4.693   4.944 -0.2478 -0.0672  0.4962
 4566SOL    HW125757   1.431   4.611   4.975 -1.8467  0.4266 -0.6043
 4566SOL    HW225758   1.473   4.699   4.844 -0.8169  1.7946  0.6261
 4567SOL     OW25759   3.364   8.383   5.206  0.0023 -0.1470  0.4691
 4567SOL    HW125760   3.273   8.342   5.203 -0.5912  1.0763  1.1042
 4567SOL    HW225761   3.362   8.472   5.159  0.5056  0.5639  1.7826
 4568SOL     OW25762   2.346   4.791   0.951 -0.3215 -0.1545  0.4839
 4568SOL    HW125763   2.392   4.876   0.924 -2.4234  0.9830  0.3200
 4568SOL    HW225764   2.365   4.772   1.047  2.3189 -0.9580 -0.1667
 4569SOL     OW25765   8.897   1.960   3.456  0.2631  0.3764  0.5153
 4569SOL    HW125766   8.849   1.957   3.544  1.7300  0.7871  1.3450
 4569SOL    HW225767   8.978   1.902   3.460 -0.3889 -0.6758 -1.0307
 4570SOL     OW25768   9.640   8.836   9.096  0.1340 -0.2997 -0.0801
 4570SOL    HW125769   9.567   8.905   9.101  0.6616  0.3487 -1.2307
 4570SOL    HW225770   9.610   8.753   9.144 -1.0487  0.2419  0.1471
 4571SOL     OW25771   2.984   1.717   2.690  0.1397  0.0188 -0.3539
 4571SOL    HW125772   2.955   1.671   2.606  1.4829 -1.4965 -0.0168
 4571SOL    HW225773   3.075   1.754   2.678  0.0296  0.4691  0.1876
 4572SOL     OW25774   3.472   5.002   2.447  0.4472 -0.0379 -0.3045
 4572SOL    HW125775   3.565   4.969   2.463  0.6827  0.4049 -0.7550
 4572SOL    HW225776   3.408   4.926   2.455  0.8857 -0.4140 -0.3643
 4573SOL     OW25777   1.296   6.757   4.838  0.1887 -0.5650  0.4302
 4573SOL    HW125778   1.261   6.738   4.930 -0.3278 -0.0871  0.3333
 4573SOL    HW225779   1.229   6.728   4.770  0.5712 -0.9167  0.1994
 4574SOL     OW25780   3.242   9.451   4.744  0.0297  0.2323  0.1814
 4574SOL    HW125781   3.209   9.364   4.780 -0.8450  1.5646  2.7314
 4574SOL    HW225782   3.172   9.491   4.684  0.0974 -0.4077 -0.3322
 4575SOL     OW25783   4.631   6.810   2.562  0.0925 -0.0501 -0.1125
 4575SOL    HW125784   4.660   6.878   2.629 -1.3713 -0.0565  0.5380
 4575SOL    HW225785   4.633   6.850   2.471  3.1174 -0.3495 -0.2339
 4576SOL     OW25786   0.820   0.826   1.179  0.1295 -0.1029 -0.2095
 4576SOL    HW125787   0.763   0.884   1.238  1.1574  2.0906 -1.3231
 4576SOL    HW225788   0.768   0.800   1.098  0.3253  1.0112 -0.7072
 4577SOL     OW25789   1.267   9.846   9.318 -0.1937  0.2372  0.5825
 4577SOL    HW125790   1.215   9.824   9.236  2.4946 -0.4843 -0.9929
 4577SOL    HW225791   1.294   9.942   9.315 -0.5089  0.3342  0.8605
 4578SOL     OW25792   7.032   8.222   2.173  0.0593  0.0297 -0.0572
 4578SOL    HW125793   7.050   8.139   2.226 -0.1112 -0.5045 -0.8346
 4578SOL    HW225794   7.062   8.302   2.225  2.6735 -0.6893 -0.4082
 4579SOL     OW25795   9.184   4.563   8.721  0.7152  0.7047  0.0769
 4579SOL    HW125796   9.133   4.531   8.641  0.0171 -0.1551  0.8437
 4579SOL    HW225797   9.242   4.489   8.756 -0.7966  0.2762  1.7823
 4580SOL     OW25798   9.460   6.322   2.732 -0.5236 -0.2999  0.0861
 4580SOL    HW125799   9.455   6.378   2.814  0.8446  0.5968 -0.4250
 4580SOL    HW225800   9.549   6.277   2.728  0.0135  0.8672 -1.6561
 4581SOL     OW25801   9.646   5.161   0.622  0.1234 -0.3174  0.0094
 4581SOL    HW125802   9.581   5.096   0.662  0.5649 -0.4662  0.4917
 4581SOL    HW225803   9.686   5.217   0.695 -0.7556  0.9647 -0.4684
 4582SOL     OW25804   4.688   9.577   8.566  0.1063  0.4343  0.2582
 4582SOL    HW125805   4.760   9.579   8.636 -1.3633  0.8908  1.7721
 4582SOL    HW225806   4.671   9.669   8.532 -2.4464  0.9534  2.7349
 4583SOL     OW25807   4.043   5.761   5.128 -0.1425  0.1800  0.5732
 4583SOL    HW125808   4.139   5.732   5.119  0.0267  0.4359  1.4371
 4583SOL    HW225809   3.997   5.753   5.040  1.1074  1.5977 -0.2492
 4584SOL     OW25810   1.131   0.087   0.167  0.1307 -0.2914 -0.1198
 4584SOL    HW125811   1.112  -0.001   0.123  0.5689 -0.3811 -0.1269
 4584SOL    HW225812   1.192   0.141   0.109  0.3512 -0.2283  0.1724
 4585SOL     OW25813   6.520   4.719   0.085  0.4369  0.1648 -0.0252
 4585SOL    HW125814   6.587   4.787   0.056 -0.2009  1.8181  2.1874
 4585SOL    HW225815   6.433   4.736   0.040  0.0663  1.3243  1.1058
 4586SOL     OW25816   3.644   6.954   8.862  0.1550  0.2032  0.1973
 4586SOL    HW125817   3.563   6.912   8.821  0.2695 -0.1951  0.3675
 4586SOL    HW225818   3.642   6.941   8.961  0.2152  0.5652  0.2430
 4587SOL     OW25819   8.518   4.344   2.973 -0.5924 -0.1485 -0.3490
 4587SOL    HW125820   8.470   4.426   3.003 -2.9196 -1.1527 -1.1458
 4587SOL    HW225821   8.600   4.330   3.029 -1.2230  1.6292  1.0652
 4588SOL     OW25822   1.679   1.457   5.233  0.0050 -0.0413 -0.0292
 4588SOL    HW125823   1.717   1.547   5.214 -0.2860 -0.0268 -0.5650
 4588SOL    HW225824   1.623   1.461   5.315  1.7975 -0.2518  1.2245
 4589SOL     OW25825   3.815   6.220   5.106  0.3073  0.6865  0.5463
 4589SOL    HW125826   3.761   6.281   5.164 -0.0831 -0.2060  1.1365
 4589SOL    HW225827   3.852   6.146   5.162  0.6423  0.2909 -0.1947
 4590SOL     OW25828   8.946   8.081   3.379 -0.1972  0.0540  0.0796
 4590SOL    HW125829   9.000   8.164   3.375  0.4895 -0.4268 -0.6855
 4590SOL    HW225830   8.880   8.087   3.454  2.1688 -0.1355  2.2217
 4591SOL     OW25831   2.125   8.009   0.689  0.2594  0.2947 -0.2605
 4591SOL    HW125832   2.028   7.987   0.701  0.4186  0.3133  1.1759
 4591SOL    HW225833   2.136   8.069   0.610 -0.8711  0.0712 -0.5986
 4592SOL     OW25834   0.798   7.799   4.046  0.2486 -0.4599 -0.1429
 4592SOL    HW125835   0.770   7.782   3.952  0.0275 -0.9219  0.0083
 4592SOL    HW225836   0.862   7.728   4.076  0.2065 -0.3932  0.1059
 4593SOL     OW25837   2.874   9.793   8.265 -0.3569  0.3388 -0.1647
 4593SOL    HW125838   2.863   9.818   8.168 -0.1848 -0.5919 -0.4245
 4593SOL    HW225839   2.801   9.836   8.318  0.1272  1.6880 -0.5524
 4594SOL     OW25840   2.141   7.521   0.106 -0.2356 -0.3773  0.1835
 4594SOL    HW125841   2.162   7.548   0.200  0.6323  0.7549 -0.3182
 4594SOL    HW225842   2.226   7.516   0.053 -0.6679 -1.5183 -0.4158
 4595SOL     OW25843   1.908   9.853   4.610  0.2671 -0.0863  0.0402
 4595SOL    HW125844   1.995   9.902   4.605  0.1689  0.0663 -0.1594
 4595SOL    HW225845   1.847   9.885   4.537  0.1180 -0.3384  0.0538
 4596SOL     OW25846   5.600   9.018   1.830  0.0281  0.1261 -0.3247
 4596SOL    HW125847   5.502   9.029   1.813  0.2793  1.2204 -1.0957
 4596SOL    HW225848   5.625   9.071   1.911  0.1747  0.7206 -0.7522
 4597SOL     OW25849   3.182   9.321   1.156 -0.1336 -0.1450  0.3510
 4597SOL    HW125850   3.260   9.360   1.107 -0.1502  0.0389  0.4686
 4597SOL    HW225851   3.168   9.226   1.127 -0.4588  0.1177 -0.3822
 4598SOL     OW25852   0.356   7.101   0.559  0.3261 -0.0172 -0.0683
 4598SOL    HW125853   0.424   7.031   0.535  0.1928 -0.5256  1.0249
 4598SOL    HW225854   0.264   7.067   0.536  0.3861  0.4427 -1.0141
 4599SOL     OW25855   2.287   2.577   9.392  0.0986  0.3403 -0.6867
 4599SOL    HW125856   2.203   2.626   9.414  0.3812  1.4023 -1.9170
 4599SOL    HW225857   2.321   2.607   9.303  0.8037 -1.4133 -1.0233
 4600SOL     OW25858   0.847   8.760   5.024 -0.0071  0.2872  0.6453
 4600SOL    HW125859   0.944   8.776   5.009  0.0653 -0.8792 -0.1614
 4600SOL    HW225860   0.833   8.702   5.104 -0.0447  0.3985  0.7203
 4601SOL     OW25861   0.463   7.359   3.238 -0.1196  0.5620 -0.3786
 4601SOL    HW125862   0.415   7.332   3.321  0.4737  0.5376 -0.0412
 4601SOL    HW225863   0.514   7.443   3.255  0.4115  0.2807 -0.5691
 4602SOL     OW25864   6.917   6.644   2.454  0.2204  0.0408 -0.5564
 4602SOL    HW125865   6.835   6.630   2.510  0.9343 -1.1309  0.2313
 4602SOL    HW225866   6.978   6.708   2.500  1.1273 -1.4598  0.4062
 4603SOL     OW25867   1.550   6.773   6.989  0.7422 -0.5401 -0.0526
 4603SOL    HW125868   1.465   6.781   6.936  0.9300  0.9684 -0.1333
 4603SOL    HW225869   1.611   6.848   6.967  0.6330  0.3990  2.6384
 4604SOL     OW25870   9.777   6.600   9.720  0.1311 -0.4412  0.3259
 4604SOL    HW125871   9.693   6.637   9.678 -0.2587  0.6079  1.9984
 4604SOL    HW225872   9.853   6.661   9.700  0.6298 -1.6280 -1.5807
 4605SOL     OW25873   2.913   4.794   5.656 -0.6999 -0.3778 -0.7329
 4605SOL    HW125874   2.964   4.880   5.651 -0.5165 -0.5007 -0.9396
 4605SOL    HW225875   2.970   4.724   5.700 -0.5226 -0.6424 -1.3842
 4606SOL     OW25876   0.441   9.472   0.962  0.1145  0.1573 -0.4039
 4606SOL    HW125877   0.416   9.388   1.011  0.4959 -0.3068 -0.9987
 4606SOL    HW225878   0.363   9.504   0.910 -0.4185  0.8769  0.8199
 4607SOL     OW25879   3.229   6.046   2.746  0.4587 -0.2135  0.8774
 4607SOL    HW125880   3.253   6.135   2.784  0.1130 -0.2835  1.2625
 4607SOL    HW225881   3.168   5.998   2.809  3.0113 -1.9734  2.0618
 4608SOL     OW25882   2.216   7.442   4.159  0.5213  0.3831  0.8776
 4608SOL    HW125883   2.227   7.407   4.066  1.3006 -1.2770  1.5669
 4608SOL    HW225884   2.130   7.407   4.197  1.2661 -0.7852  1.5415
 4609SOL     OW25885   6.277   9.566   9.265  0.7551 -0.4151  0.0390
 4609SOL    HW125886   6.214   9.605   9.333 -0.6809 -0.2896 -1.3323
 4609SOL    HW225887   6.371   9.592   9.288 -0.0916  3.4743 -0.5345
 4610SOL     OW25888   9.237   0.509   2.962 -0.3073  0.4993  0.8571
 4610SOL    HW125889   9.197   0.531   3.051 -1.5235 -2.1763  1.0189
 4610SOL    HW225890   9.196   0.566   2.892 -1.8807  0.2211  1.5300
 4611SOL     OW25891   1.273   9.681   3.765 -0.3996  0.1319  0.0252
 4611SOL    HW125892   1.311   9.745   3.833 -1.0348  2.1382 -1.4548
 4611SOL    HW225893   1.237   9.601   3.812  0.9715  0.5675  1.8906
 4612SOL     OW25894   0.370   2.788   9.421 -0.1049 -0.1854  0.6265
 4612SOL    HW125895   0.340   2.701   9.380  1.0018  0.6117 -1.9814
 4612SOL    HW225896   0.311   2.861   9.388  3.3051  1.1112 -3.0116
 4613SOL     OW25897   9.142   7.773   7.638  0.4968  0.8409 -0.4391
 4613SOL    HW125898   9.174   7.746   7.729 -0.4693 -0.0828 -0.3573
 4613SOL    HW225899   9.194   7.852   7.606  1.2411  0.8117  0.6705
 4614SOL     OW25900   6.479   5.997   5.925 -0.2424 -0.2885  0.2786
 4614SOL    HW125901   6.445   5.914   5.971  0.0792 -0.4030  0.3079
 4614SOL    HW225902   6.575   6.011   5.948 -0.4358  0.3862  0.6897
 4615SOL     OW25903   1.738   4.080   1.569 -0.3074  0.8270  0.2645
 4615SOL    HW125904   1.822   4.048   1.613 -0.6955 -1.0460 -0.3117
 4615SOL    HW225905   1.761   4.119   1.479 -0.0327  0.3745  0.1344
 4616SOL     OW25906   0.720   9.498   0.858 -0.4384  0.2331 -0.0333
 4616SOL    HW125907   0.774   9.465   0.935 -0.7233 -0.4626 -0.1268
 4616SOL    HW225908   0.624   9.507   0.886 -0.6793 -0.7495 -0.5092
 4617SOL     OW25909   7.625   4.859   0.041 -0.0130 -0.3914 -0.1938
 4617SOL    HW125910   7.676   4.778   0.013  0.0601 -0.5858  0.4948
 4617SOL    HW225911   7.678   4.911   0.108 -0.5067 -0.3245  0.1459
 4618SOL     OW25912   7.520   8.578   5.211 -0.3078 -0.3825  0.3266
 4618SOL    HW125913   7.458   8.657   5.201  0.0872 -0.3799 -2.5392
 4618SOL    HW225914   7.578   8.592   5.292  0.7300  3.0015 -0.8795
 4619SOL     OW25915   2.392   1.667   9.076 -0.3692  0.2582  0.2368
 4619SOL    HW125916   2.314   1.667   9.014  0.4796  0.1618 -0.8260
 4619SOL    HW225917   2.405   1.575   9.112  0.5922 -0.2044 -1.2714
 4620SOL     OW25918   3.543   0.541   5.807 -0.4506  0.0205 -0.3921
 4620SOL    HW125919   3.621   0.584   5.853 -0.4249 -1.6283  1.1647
 4620SOL    HW225920   3.567   0.447   5.782 -1.2416  0.1805 -1.7916
 4621SOL     OW25921   1.566   1.533   1.447  0.8368 -0.1102 -0.4190
 4621SOL    HW125922   1.518   1.540   1.534 -0.3001 -2.3815 -0.8064
 4621SOL    HW225923   1.558   1.619   1.397  2.0573  1.4300  1.9682
 4622SOL     OW25924   0.608   7.859   9.180  0.5908 -0.1138 -0.1316
 4622SOL    HW125925   0.540   7.787   9.189  0.9241 -0.5784 -1.1230
 4622SOL    HW225926   0.563   7.947   9.166  0.1768 -0.0646  1.5151
 4623SOL     OW25927   8.944   6.058   0.886  0.1329 -0.5126  0.4041
 4623SOL    HW125928   8.978   5.984   0.828  0.5443  0.6932 -0.9004
 4623SOL    HW225929   9.001   6.065   0.968 -0.3545 -2.1089  0.9207
 4624SOL     OW25930   8.704   5.841   5.778 -0.1261 -0.2981 -0.4304
 4624SOL    HW125931   8.712   5.827   5.679  1.9461 -0.7056 -0.2264
 4624SOL    HW225932   8.745   5.928   5.802  0.8275 -0.9341  0.2681
 4625SOL     OW25933   0.888   5.402   8.200 -0.4229  0.2217  0.0710
 4625SOL    HW125934   0.831   5.439   8.126 -0.5750  1.9326  1.0320
 4625SOL    HW225935   0.983   5.394   8.168 -0.5620  0.5796 -0.4332
 4626SOL     OW25936   6.799   1.290   3.920  0.6074 -0.4408 -0.6762
 4626SOL    HW125937   6.700   1.300   3.937  0.7534 -0.3841  0.1403
 4626SOL    HW225938   6.850   1.339   3.991  1.2123  0.5515 -1.7650
 4627SOL     OW25939   0.725   5.769   8.127  0.7328  0.1579 -0.0023
 4627SOL    HW125940   0.705   5.828   8.049  0.1563 -0.0317  0.0047
 4627SOL    HW225941   0.660   5.788   8.201  0.0984 -0.9956 -0.2603
 4628SOL     OW25942   0.452   4.566   6.072 -0.1083  0.7210  0.2836
 4628SOL    HW125943   0.502   4.594   6.154  0.4032  1.5270 -0.3023
 4628SOL    HW225944   0.356   4.548   6.097  0.2954 -0.1676  1.2709
 4629SOL     OW25945   3.043   0.985   0.062  0.3886 -0.5185  0.1558
 4629SOL    HW125946   2.996   1.072   0.080  0.1995 -0.6076  0.0977
 4629SOL    HW225947   3.039   0.928   0.144 -2.0594 -1.6576 -0.6958
 4630SOL     OW25948   8.105   5.020   2.736  0.0144  0.0625  0.5603
 4630SOL    HW125949   8.194   4.992   2.772 -1.3925 -2.5651  2.1244
 4630SOL    HW225950   8.102   5.002   2.638  2.4039  3.4351 -0.2233
 4631SOL     OW25951   0.168   8.602   0.817  0.2497  0.2796 -0.0585
 4631SOL    HW125952   0.100   8.643   0.757 -0.7742  1.4963  1.8805
 4631SOL    HW225953   0.123   8.538   0.880  1.2984 -0.9690 -0.5435
 4632SOL     OW25954   6.418   7.988   4.064  0.4631 -0.2816  0.1895
 4632SOL    HW125955   6.453   8.016   4.154 -0.5341 -1.1553  0.8594
 4632SOL    HW225956   6.318   7.995   4.063  0.3806 -1.3984 -0.4575
 4633SOL     OW25957   1.550   9.424   1.844  0.4232  0.0301 -0.0313
 4633SOL    HW125958   1.645   9.436   1.873  0.1110 -2.9316  2.5512
 4633SOL    HW225959   1.534   9.328   1.821 -1.5277  0.8116 -2.1244
 4634SOL     OW25960   6.055   7.992   1.162  0.7941  0.5415 -0.8067
 4634SOL    HW125961   6.092   7.997   1.069 -0.7483  0.8267 -1.4250
 4634SOL    HW225962   5.964   8.035   1.164 -0.4077 -1.9797  0.2101
 4635SOL     OW25963   0.746   4.384   3.841 -0.6011  0.0020  0.0612
 4635SOL    HW125964   0.737   4.284   3.843 -2.0203  0.1273  1.5235
 4635SOL    HW225965   0.841   4.409   3.856  0.1084 -1.1701 -2.2772
 4636SOL     OW25966   8.643   1.426   0.871  0.5754 -0.2628  0.0990
 4636SOL    HW125967   8.701   1.390   0.943 -0.6212 -0.8931  0.7704
 4636SOL    HW225968   8.568   1.362   0.854 -0.0322  0.6208 -0.6151
 4637SOL     OW25969   0.695   0.884   9.833 -0.4545  0.2829 -0.3641
 4637SOL    HW125970   0.697   0.888   9.933 -0.1963  1.6669 -0.4184
 4637SOL    HW225971   0.614   0.932   9.800 -0.0417  0.6360 -0.8629
 4638SOL     OW25972   0.021   9.028   3.853 -0.4438 -0.3094  0.1370
 4638SOL    HW125973  -0.038   9.036   3.772 -0.1975 -2.4411 -0.2718
 4638SOL    HW225974  -0.014   9.088   3.925 -1.3586  0.7127 -1.1270
 4639SOL     OW25975   0.028   6.721   8.088  0.6578  0.6468  0.0293
 4639SOL    HW125976   0.027   6.786   8.012  0.9776  0.4494 -0.1509
 4639SOL    HW225977  -0.055   6.666   8.086  1.5517 -0.6903 -1.3608
 4640SOL     OW25978   1.768   4.364   7.782  0.2489  0.0549  0.6969
 4640SOL    HW125979   1.802   4.422   7.708 -0.7491 -0.5012 -0.2056
 4640SOL    HW225980   1.846   4.327   7.833  0.8912  2.3107  1.4062
 4641SOL     OW25981   0.126   7.380   3.805  0.1483 -0.1093  0.1815
 4641SOL    HW125982   0.099   7.348   3.896  1.1090  0.0438  0.5228
 4641SOL    HW225983   0.104   7.477   3.795  0.5461  0.0107  0.4533
 4642SOL     OW25984   3.556   8.617   0.374 -0.1086  0.4104  0.4171
 4642SOL    HW125985   3.582   8.549   0.305  1.4216  0.0678  1.2976
 4642SOL    HW225986   3.537   8.704   0.330  0.1465  0.0007 -0.5040
 4643SOL     OW25987   3.846   8.042   1.634  0.0831 -0.5444  0.5355
 4643SOL    HW125988   3.933   8.033   1.681 -0.7123  0.6773  2.3010
 4643SOL    HW225989   3.840   8.133   1.592 -1.5676  0.6058  3.0998
 4644SOL     OW25990   1.446   0.139   2.061 -0.3011  0.0629  0.3942
 4644SOL    HW125991   1.508   0.202   2.107 -0.1134  0.3226 -0.2105
 4644SOL    HW225992   1.373   0.191   2.016 -0.7296 -0.2141  0.7588
 4645SOL     OW25993   3.879   4.035   8.158  0.1269 -0.1443  0.3933
 4645SOL    HW125994   3.860   3.949   8.109  0.6266 -0.9719  1.6371
 4645SOL    HW225995   3.856   4.024   8.255  0.4185  1.0565  0.6027
 4646SOL     OW25996   9.580   8.838   0.529 -0.2471  0.4389 -0.0234
 4646SOL    HW125997   9.632   8.856   0.613  1.8190  0.5190 -1.2676
 4646SOL    HW225998   9.584   8.919   0.470 -1.1384  0.1617 -0.4669
 4647SOL     OW25999   9.353   7.693   9.790  0.3849  0.1740  0.1981
 4647SOL    HW126000   9.425   7.669   9.725  0.2381  0.7949 -0.1973
 4647SOL    HW226001   9.263   7.680   9.748  0.3014  1.3539 -0.0132
 4648SOL     OW26002   5.295   6.280   2.005 -0.3858 -0.4968 -0.3576
 4648SOL    HW126003   5.282   6.244   2.098 -0.5264  0.6007  0.0600
 4648SOL    HW226004   5.388   6.262   1.975  0.0251  0.1829  0.4728
 4649SOL     OW26005   0.309   7.255   9.075 -0.1386 -0.1233  0.5694
 4649SOL    HW126006   0.319   7.182   9.007 -0.6156 -0.0533  0.4217
 4649SOL    HW226007   0.264   7.333   9.032  1.1810  0.5984  0.4731
 4650SOL     OW26008   4.589   7.304   8.344  0.2597  0.6309 -0.5077
 4650SOL    HW126009   4.522   7.279   8.273  0.0726  0.8059 -0.3924
 4650SOL    HW226010   4.616   7.222   8.394  2.4171  0.0258 -2.5272
 4651SOL     OW26011   2.918   6.266   3.380 -0.1005  0.5538  0.3474
 4651SOL    HW126012   2.975   6.324   3.438  1.7736 -0.6270 -0.2665
 4651SOL    HW226013   2.902   6.311   3.292 -0.2904  0.9833  0.6027
 4652SOL     OW26014   2.887   3.038   9.070 -0.0080 -0.6415  0.4716
 4652SOL    HW126015   2.902   2.940   9.065  0.1218 -0.7124  1.9384
 4652SOL    HW226016   2.971   3.083   9.103 -0.4517 -0.1751  0.9774
 4653SOL     OW26017   2.604   9.129   6.970 -0.3718  0.0675 -0.0983
 4653SOL    HW126018   2.504   9.132   6.967 -0.4394 -0.4814  1.2288
 4653SOL    HW226019   2.639   9.222   6.979 -0.8192  0.1874  0.4941
 4654SOL     OW26020   1.937   2.422   1.445  0.1387 -0.7907  0.0324
 4654SOL    HW126021   1.870   2.404   1.372  0.1604 -1.7610  0.2438
 4654SOL    HW226022   2.029   2.403   1.411  0.1823 -0.8552  0.1873
 4655SOL     OW26023   1.131   7.771   0.717  0.2640  0.4801 -0.3492
 4655SOL    HW126024   1.171   7.691   0.760 -0.5495  0.5307  0.5118
 4655SOL    HW226025   1.074   7.743   0.640  0.3411  0.2640 -0.3274
 4656SOL     OW26026   7.375   2.544   4.289  0.1799  0.0055  0.2795
 4656SOL    HW126027   7.389   2.448   4.312  0.3842  0.0732  0.4478
 4656SOL    HW226028   7.454   2.578   4.238 -0.5895 -0.3351 -1.1639
 4657SOL     OW26029   2.137   7.881   8.138 -0.3227  0.1682 -0.0943
 4657SOL    HW126030   2.207   7.847   8.074 -1.4765 -0.4680 -1.0302
 4657SOL    HW226031   2.151   7.840   8.228 -0.3474 -1.0411 -0.6377
 4658SOL     OW26032   6.511   0.284   6.904  0.2737 -0.3639  0.0158
 4658SOL    HW126033   6.510   0.188   6.931  1.3519 -0.1934  0.6817
 4658SOL    HW226034   6.486   0.341   6.982  0.5937 -0.0368 -0.1234
 4659SOL     OW26035   1.091   6.985   6.385 -0.2101  0.6908 -0.4757
 4659SOL    HW126036   1.147   7.059   6.347 -0.8581  0.5997 -1.6321
 4659SOL    HW226037   1.032   6.947   6.313  0.4710 -1.2882 -0.0302
 4660SOL     OW26038   2.841   7.619   1.827 -0.1811 -0.3477  0.9162
 4660SOL    HW126039   2.778   7.697   1.830 -2.1594 -1.9048  1.2500
 4660SOL    HW226040   2.824   7.566   1.743  2.0953  0.3214  0.0018
 4661SOL     OW26041   6.705   9.027   7.712  0.4145  0.9000 -0.1853
 4661SOL    HW126042   6.718   9.017   7.614  1.5959 -1.3776  0.1734
 4661SOL    HW226043   6.782   9.078   7.751  1.2225 -0.3704 -0.0965
 4662SOL     OW26044   3.662   0.468   1.577 -0.5912  0.0969  0.4089
 4662SOL    HW126045   3.739   0.529   1.593  0.2934 -1.1763  1.1069
 4662SOL    HW226046   3.576   0.520   1.582  0.1068  1.1786  1.4938
 4663SOL     OW26047   6.809   7.320   6.842  0.2850  0.2819 -0.2050
 4663SOL    HW126048   6.872   7.254   6.884  1.6226  2.0237  0.5465
 4663SOL    HW226049   6.859   7.374   6.774 -0.3867  1.7439  0.4688
 4664SOL     OW26050   7.874   9.309   7.435  0.2803 -0.2867 -0.6101
 4664SOL    HW126051   7.935   9.343   7.507 -1.0244 -0.6922  0.7367
 4664SOL    HW226052   7.922   9.242   7.379  1.1926 -0.3276  0.2085
 4665SOL     OW26053   0.077   0.004   7.687 -0.3860  0.2434  0.4190
 4665SOL    HW126054   0.045  -0.070   7.747 -1.6431  1.2401  0.9809
 4665SOL    HW226055   0.077  -0.028   7.592 -0.4218 -0.6496  0.7100
 4666SOL     OW26056   1.150   7.822   2.773 -0.1066  0.1784 -0.1596
 4666SOL    HW126057   1.112   7.782   2.856 -0.3374  2.2828  0.7654
 4666SOL    HW226058   1.169   7.919   2.787  1.7590  0.1188 -1.9287
 4667SOL     OW26059   0.240   0.798   5.822  0.0834 -0.1183  0.2901
 4667SOL    HW126060   0.246   0.893   5.792 -1.9273 -0.2445 -0.5139
 4667SOL    HW226061   0.272   0.737   5.749 -0.3974 -0.1715  0.1269
 4668SOL     OW26062   3.906   7.033   2.232 -0.1173 -0.4415  0.4346
 4668SOL    HW126063   3.870   6.942   2.253  0.9688 -0.8011  0.7772
 4668SOL    HW226064   3.998   7.041   2.268  1.0308 -0.3446 -2.3861
 4669SOL     OW26065   3.891   9.120   3.166  0.1094  0.1340  0.2323
 4669SOL    HW126066   3.862   9.082   3.078  0.5510  1.3567 -0.4476
 4669SOL    HW226067   3.923   9.213   3.153  1.7698 -0.2534  1.4099
 4670SOL     OW26068   9.089   1.282   6.738 -0.6524 -0.2819 -0.6408
 4670SOL    HW126069   9.184   1.252   6.752 -0.7795 -0.4961 -0.1983
 4670SOL    HW226070   9.027   1.205   6.757 -1.0948  0.7489  2.5197
 4671SOL     OW26071   0.604   6.224   4.102 -0.1514  0.2418 -0.2940
 4671SOL    HW126072   0.702   6.242   4.117 -0.0122 -1.0864  0.4638
 4671SOL    HW226073   0.574   6.273   4.021  0.9929  1.1927 -0.1644
 4672SOL     OW26074   8.993   9.292   7.374 -0.6967  0.3866 -0.3580
 4672SOL    HW126075   8.956   9.371   7.423  0.7985  2.1026 -1.9028
 4672SOL    HW226076   9.082   9.268   7.411 -0.5213  0.3224 -0.8133
 4673SOL     OW26077   1.832   9.013   9.761  0.1250  0.5752  0.5823
 4673SOL    HW126078   1.929   8.998   9.743 -0.2210  1.2349 -2.1185
 4673SOL    HW226079   1.779   8.984   9.681 -1.7721  1.7517  1.3827
 4674SOL     OW26080   5.661   5.650   5.133 -0.1851 -0.1920 -0.0558
 4674SOL    HW126081   5.634   5.719   5.066 -0.1168  0.2502  0.3695
 4674SOL    HW226082   5.696   5.569   5.086 -2.0517 -0.7032 -0.6310
 4675SOL     OW26083   2.931   7.283   8.686 -0.0800  0.0901 -0.6093
 4675SOL    HW126084   2.974   7.319   8.602 -0.8288  0.6988 -0.7334
 4675SOL    HW226085   2.845   7.330   8.702 -0.1405 -0.3222  0.2861
 4676SOL     OW26086   8.688   6.619   9.629  0.5144 -0.1060  0.5133
 4676SOL    HW126087   8.704   6.571   9.715  1.9586 -0.0915  0.2537
 4676SOL    HW226088   8.664   6.715   9.648 -0.8072 -0.5190  0.9617
 4677SOL     OW26089   2.474   9.139   1.457 -0.1629  1.1926 -0.1362
 4677SOL    HW126090   2.518   9.224   1.486  0.0232  1.0039  0.1312
 4677SOL    HW226091   2.448   9.146   1.361  1.0206  1.0660 -0.4669
 4678SOL     OW26092   2.369   0.894   2.501 -0.1645  0.2038  0.6499
 4678SOL    HW126093   2.440   0.953   2.464  0.5595  0.5926  2.6111
 4678SOL    HW226094   2.410   0.808   2.531 -1.0405 -0.8723 -1.1462
 4679SOL     OW26095   5.956   7.364   6.748  0.2313 -0.1345  0.1275
 4679SOL    HW126096   5.992   7.292   6.689 -0.5973  1.4301 -2.3671
 4679SOL    HW226097   5.869   7.334   6.789  0.9372 -1.3196  0.7883
 4680SOL     OW26098   3.662   0.877   0.806  0.1101  0.1736  0.0251
 4680SOL    HW126099   3.664   0.794   0.861  1.2517 -0.2860 -0.7022
 4680SOL    HW226100   3.602   0.865   0.728 -1.2185  0.6996  0.9386
 4681SOL     OW26101   3.255   0.342   8.170  0.4254  0.2225  0.1644
 4681SOL    HW126102   3.184   0.379   8.110  1.5097  1.5062 -0.3322
 4681SOL    HW226103   3.344   0.350   8.125  0.9815 -0.7698  1.0681
 4682SOL     OW26104   9.465   5.696   2.584  0.3332 -0.1368 -0.1083
 4682SOL    HW126105   9.430   5.705   2.490 -1.4377 -1.6918  0.3588
 4682SOL    HW226106   9.565   5.693   2.582  0.3119 -0.3773 -1.9790
 4683SOL     OW26107   0.026   8.062   0.988  0.3705  0.5497 -0.3095
 4683SOL    HW126108   0.051   7.983   1.044  1.0661  0.0742 -1.2706
 4683SOL    HW226109  -0.035   8.033   0.915 -0.4627  1.1527  0.1343
 4684SOL     OW26110   3.442   1.046   2.278  0.2182  0.0110  0.3617
 4684SOL    HW126111   3.443   0.996   2.191 -2.1397  0.3021  0.1208
 4684SOL    HW226112   3.494   0.995   2.346 -0.0522 -1.5353 -0.5502
 4685SOL     OW26113   9.404   6.729   0.681 -0.1856 -0.0648  0.1471
 4685SOL    HW126114   9.495   6.736   0.721  0.7666  0.3480 -1.9870
 4685SOL    HW226115   9.390   6.636   0.646 -0.8342 -0.3008  1.0181
 4686SOL     OW26116   4.425   6.002   0.909 -0.0919 -0.1355 -0.7379
 4686SOL    HW126117   4.413   6.101   0.910  1.4512  0.0550 -0.3705
 4686SOL    HW226118   4.490   5.976   0.837  0.4764 -0.7536 -0.0181
 4687SOL     OW26119   0.111   7.968   3.272 -0.0865 -0.1860 -0.7362
 4687SOL    HW126120   0.151   7.905   3.339  3.2711  0.9025 -1.6199
 4687SOL    HW226121   0.148   7.947   3.181  0.6477  2.6846 -1.1247
 4688SOL     OW26122   8.270   8.385   3.851 -0.1391 -0.7918 -0.0836
 4688SOL    HW126123   8.306   8.299   3.814  1.2669 -0.8341  1.3345
 4688SOL    HW226124   8.201   8.364   3.921 -0.1415 -0.7655 -0.0793
 4689SOL     OW26125   0.861   0.723   1.664  0.3108  0.4188  0.0251
 4689SOL    HW126126   0.810   0.671   1.732 -0.1894 -0.0564 -0.7057
 4689SOL    HW226127   0.959   0.717   1.683  0.2556 -0.8022 -0.0728
 4690SOL     OW26128   0.225   2.281   2.571 -0.7052 -0.2084  0.7634
 4690SOL    HW126129   0.229   2.332   2.485 -2.6732  0.2730  0.9350
 4690SOL    HW226130   0.304   2.305   2.628  0.2216  0.0138 -0.5922
 4691SOL     OW26131   2.677   8.750   9.762  0.0388  0.1996 -0.8971
 4691SOL    HW126132   2.642   8.796   9.844 -1.7978 -3.7717  0.6879
 4691SOL    HW226133   2.605   8.748   9.692  0.1776 -0.1303 -1.0293
 4692SOL     OW26134   4.930   5.813   1.303  0.0359 -0.3688  0.0000
 4692SOL    HW126135   4.997   5.740   1.293  0.8500  0.3559  0.0624
 4692SOL    HW226136   4.898   5.816   1.398 -0.0582 -0.6898 -0.0210
 4693SOL     OW26137   1.952   7.913   9.546  0.0516  0.1310 -0.3247
 4693SOL    HW126138   1.961   7.821   9.507  1.1400  0.9017 -1.9404
 4693SOL    HW226139   1.999   7.916   9.635 -2.7040 -1.7158  1.2666
 4694SOL     OW26140   8.046   0.658   3.917  0.4829 -0.2542 -0.4188
 4694SOL    HW126141   7.972   0.715   3.881  0.2076 -0.2021  0.2377
 4694SOL    HW226142   8.125   0.665   3.856 -0.4870 -1.3347 -1.8248
 4695SOL     OW26143   0.661   5.647   0.435  0.0774 -0.1128 -0.3140
 4695SOL    HW126144   0.628   5.738   0.458 -1.6663 -0.5799 -0.8763
 4695SOL    HW226145   0.700   5.648   0.343  1.6249  0.4229  0.3253
 4696SOL     OW26146   1.773   0.283   3.418 -0.4660  0.5175 -0.3270
 4696SOL    HW126147   1.772   0.202   3.360  0.3953  0.1040  0.2222
 4696SOL    HW226148   1.855   0.337   3.399 -1.0837  1.3165 -0.7581
 4697SOL     OW26149   5.609   7.451   1.563  0.6915 -0.0271 -0.4058
 4697SOL    HW126150   5.660   7.508   1.499  0.6900  0.5672  0.1142
 4697SOL    HW226151   5.627   7.482   1.657 -0.8836  0.4033 -0.2332
 4698SOL     OW26152   6.778   5.106   9.805  0.0828 -0.2445  0.6417
 4698SOL    HW126153   6.751   5.195   9.843 -2.0598 -0.3397 -0.5672
 4698SOL    HW226154   6.869   5.082   9.839  0.3666  2.0277  1.6249
 4699SOL     OW26155   5.156   6.077   1.055 -0.3920  0.7413  0.1963
 4699SOL    HW126156   5.115   5.998   1.010 -0.3321  1.5684 -1.3418
 4699SOL    HW226157   5.186   6.051   1.147  0.3553 -1.2475 -0.5758
 4700SOL     OW26158   1.130   1.242   5.760 -0.2084 -0.1091  0.4173
 4700SOL    HW126159   1.146   1.337   5.789  0.0080 -0.7959  2.6439
 4700SOL    HW226160   1.074   1.242   5.677  0.1662  1.9762  0.1150
 4701SOL     OW26161   7.584   4.440   7.772  0.5735 -0.0699  0.0155
 4701SOL    HW126162   7.580   4.539   7.760  0.9971  0.1636  1.6512
 4701SOL    HW226163   7.492   4.404   7.788  0.4336  0.0685 -0.4747
 4702SOL     OW26164   3.281   9.600   8.832  0.3549 -0.6299  0.1430
 4702SOL    HW126165   3.289   9.545   8.915 -1.1042 -0.7703  0.2134
 4702SOL    HW226166   3.241   9.544   8.759  0.4344 -0.1440 -0.2773
 4703SOL     OW26167   0.632   3.009   2.366 -0.2065  0.6821 -0.4566
 4703SOL    HW126168   0.568   3.084   2.381 -0.7273  0.1654 -0.0372
 4703SOL    HW226169   0.725   3.040   2.382 -0.6287  0.4926  2.6373
 4704SOL     OW26170   8.543   0.635   3.128 -0.2603 -0.3085  0.1366
 4704SOL    HW126171   8.502   0.656   3.217 -1.7744 -0.4562 -0.5017
 4704SOL    HW226172   8.481   0.665   3.056  0.5439 -1.0271 -0.8615
 4705SOL     OW26173   1.902   2.140   1.217 -0.1854  0.7438  0.0246
 4705SOL    HW126174   1.951   2.149   1.131  0.0666 -1.1336 -0.0649
 4705SOL    HW226175   1.832   2.211   1.224 -1.1786  0.0565 -2.4047
 4706SOL     OW26176   0.794   2.557   2.584 -0.1835  0.4775 -0.1445
 4706SOL    HW126177   0.754   2.619   2.517 -0.1385  0.3012 -0.3385
 4706SOL    HW226178   0.810   2.605   2.670  1.4396  1.1917 -0.8250
 4707SOL     OW26179   8.633   5.001   4.595  0.3840  0.6659 -0.1900
 4707SOL    HW126180   8.575   4.947   4.534 -1.7824  0.6845  1.7507
 4707SOL    HW226181   8.724   4.960   4.601 -0.9184 -2.2517  0.5041
 4708SOL     OW26182   4.468   4.069   1.992 -0.0251  0.3942  0.2685
 4708SOL    HW126183   4.539   4.104   1.931  1.1431  0.3193  1.5713
 4708SOL    HW226184   4.399   4.139   2.007 -0.1543  0.5200 -0.8936
 4709SOL     OW26185   1.439   6.995   4.810  0.1213 -0.4853  0.2221
 4709SOL    HW126186   1.506   6.985   4.737 -0.4537 -0.5246 -0.2999
 4709SOL    HW226187   1.390   6.909   4.822  0.7951 -0.7412  1.2306
 4710SOL     OW26188   2.925   2.951   2.613  0.2852  0.3950 -0.2921
 4710SOL    HW126189   2.876   2.945   2.526  0.3931  0.5762 -0.3669
 4710SOL    HW226190   2.885   3.023   2.669 -0.4094 -0.3751  0.2155
 4711SOL     OW26191   7.682   9.744   4.934 -0.1993 -0.6414 -0.4841
 4711SOL    HW126192   7.607   9.796   4.977 -0.4687 -1.6049  0.2332
 4711SOL    HW226193   7.729   9.690   5.004  0.9039 -0.3709 -1.0056
 4712SOL     OW26194   3.744   7.023   9.781  0.2327 -0.3983 -0.0830
 4712SOL    HW126195   3.672   6.988   9.841 -0.5116 -0.1812 -0.8421
 4712SOL    HW226196   3.814   6.952   9.769  0.2295 -0.5517  0.7802
 4713SOL     OW26197   7.734   6.290   7.789 -0.5712 -0.3808 -0.3519
 4713SOL    HW126198   7.677   6.287   7.871 -0.6325  0.1388 -0.3740
 4713SOL    HW226199   7.788   6.374   7.789  0.3634 -0.9802 -0.2218
 4714SOL     OW26200   3.261   8.366   1.872 -0.3293  0.1946 -0.6580
 4714SOL    HW126201   3.315   8.368   1.956 -2.2537  0.2109  0.6207
 4714SOL    HW226202   3.246   8.271   1.844 -0.2606  0.1656 -0.5959
 4715SOL     OW26203   1.775   3.622   5.875 -0.0001  0.3513  0.5585
 4715SOL    HW126204   1.735   3.561   5.943 -1.2608  1.0310  0.4504
 4715SOL    HW226205   1.720   3.706   5.870  1.5784  1.4052  0.5629
 4716SOL     OW26206   9.367   1.475   0.696  0.4077  0.2749 -0.3972
 4716SOL    HW126207   9.300   1.513   0.632  0.0152  0.6861  0.2599
 4716SOL    HW226208   9.402   1.547   0.756  2.5069  0.3653 -1.6596
 4717SOL     OW26209   1.403   1.820   3.308  0.0508 -0.3932  0.2518
 4717SOL    HW126210   1.485   1.770   3.280 -0.0862 -0.8047  0.5815
 4717SOL    HW226211   1.380   1.889   3.239  0.4708 -0.5177 -0.0085
 4718SOL     OW26212   4.101   6.464   2.831 -0.4385 -0.3682 -0.4578
 4718SOL    HW126213   4.154   6.541   2.868  0.9110 -1.7125  0.4756
 4718SOL    HW226214   4.023   6.499   2.780 -0.3934  1.6110  0.7760
 4719SOL     OW26215   7.692   1.127   2.461  0.2501 -0.1045  0.7446
 4719SOL    HW126216   7.737   1.172   2.538  3.3849 -0.5723 -0.7579
 4719SOL    HW226217   7.651   1.197   2.402  2.4882  0.6343  0.0216
 4720SOL     OW26218   2.373   2.112   6.141  0.0025  0.0662 -0.0210
 4720SOL    HW126219   2.377   2.212   6.136 -0.0794 -0.0473 -3.3472
 4720SOL    HW226220   2.465   2.075   6.143  0.0457  0.1799  0.0754
 4721SOL     OW26221   3.920   0.579   8.263 -0.0221 -0.1826  0.5774
 4721SOL    HW126222   3.978   0.508   8.302 -1.2790 -0.4231  2.0783
 4721SOL    HW226223   3.837   0.587   8.318 -0.6686  1.2619 -0.5913
 4722SOL     OW26224   9.059   3.562   5.290 -0.3718 -0.5592 -0.0411
 4722SOL    HW126225   9.154   3.549   5.260 -0.8293 -0.4458 -1.6074
 4722SOL    HW226226   9.010   3.615   5.221 -1.2833  0.3831  1.2994
 4723SOL     OW26227   3.576   8.775   8.030  0.2440 -0.0132  0.0312
 4723SOL    HW126228   3.623   8.816   7.951  1.2495 -0.8837  0.1642
 4723SOL    HW226229   3.508   8.839   8.065 -2.4014 -0.7757 -3.4372
 4724SOL     OW26230   1.424   4.492   1.216  0.3492  0.1887  0.2786
 4724SOL    HW126231   1.515   4.481   1.256  0.6311  1.9543  0.1595
 4724SOL    HW226232   1.433   4.527   1.123 -0.3711 -2.2747 -0.7590
 4725SOL     OW26233   1.569   7.765   9.359 -0.0878  0.2005 -0.2119
 4725SOL    HW126234   1.481   7.722   9.375  0.7950 -1.0777  1.3130
 4725SOL    HW226235   1.638   7.695   9.340  0.4631  1.2342 -2.1841
 4726SOL     OW26236   5.167   7.489   5.227  0.7722 -0.2125 -0.1853
 4726SOL    HW126237   5.206   7.439   5.150 -0.9155 -0.8914 -0.6101
 4726SOL    HW226238   5.156   7.585   5.202  0.5865 -0.3560 -0.6505
 4727SOL     OW26239   0.283   3.218   8.365  0.1814 -0.5570  0.3593
 4727SOL    HW126240   0.373   3.221   8.322 -0.6684  0.3974 -1.4091
 4727SOL    HW226241   0.243   3.127   8.355  0.5459 -0.7079  0.3019
 4728SOL     OW26242   8.842   0.224   4.169  0.1882 -0.1355  0.1271
 4728SOL    HW126243   8.836   0.312   4.215  0.4192  0.1110 -0.3111
 4728SOL    HW226244   8.829   0.150   4.236 -2.0201  0.2603  0.1786
 4729SOL     OW26245   0.263   1.624   5.807  0.5020 -0.1201 -0.6844
 4729SOL    HW126246   0.333   1.671   5.861 -0.7521  0.2070  0.7130
 4729SOL    HW226247   0.303   1.587   5.724  2.3336  0.0118  0.1287
 4730SOL     OW26248   4.960   0.657   3.228  0.4402 -0.0933 -0.2841
 4730SOL    HW126249   4.968   0.602   3.310 -1.6733 -2.9624 -1.9014
 4730SOL    HW226250   4.881   0.626   3.175  1.6626  1.7672 -3.3170
 4731SOL     OW26251   3.510   8.137   3.875  0.0488  0.5565  0.0774
 4731SOL    HW126252   3.552   8.151   3.786 -1.3782 -1.5335 -0.9903
 4731SOL    HW226253   3.565   8.072   3.929 -1.5458 -1.9437 -1.2020
 4732SOL     OW26254   3.994   8.767   3.917  0.2463  0.1099  0.7015
 4732SOL    HW126255   3.964   8.675   3.890  0.9538 -0.3736  1.5481
 4732SOL    HW226256   4.061   8.801   3.851 -0.6978  0.4024 -0.1221
 4733SOL     OW26257   1.727   6.646   3.692 -0.1219 -0.2514 -0.6676
 4733SOL    HW126258   1.656   6.609   3.631  0.2361 -0.2147 -1.1090
 4733SOL    HW226259   1.688   6.720   3.747  0.3182  1.9412 -3.1353
 4734SOL     OW26260   1.454   2.107   1.571 -0.7843 -0.3204  0.5583
 4734SOL    HW126261   1.414   2.100   1.479  1.1446  0.3472 -0.3521
 4734SOL    HW226262   1.552   2.090   1.566 -0.4171  1.1136  2.2988
 4735SOL     OW26263   3.288   8.697   4.060  0.1158 -0.4513  0.4553
 4735SOL    HW126264   3.253   8.756   3.987 -0.2280 -2.3491 -0.9692
 4735SOL    HW226265   3.212   8.667   4.117  0.3151  0.6060  1.2917
 4736SOL     OW26266   3.321   0.651   1.877  0.1115 -0.0989 -0.2065
 4736SOL    HW126267   3.332   0.554   1.854 -0.6572  0.1572 -1.6774
 4736SOL    HW226268   3.411   0.695   1.882  0.3687 -0.5103 -1.1953
 4737SOL     OW26269   2.849   8.334   0.825 -0.7346  0.2407  0.3412
 4737SOL    HW126270   2.824   8.374   0.913  2.4403  2.4016  0.3121
 4737SOL    HW226271   2.907   8.254   0.840  0.6242  1.2000  0.1814
 4738SOL     OW26272   3.432   4.717   5.881 -0.1065  0.4072 -0.2054
 4738SOL    HW126273   3.497   4.650   5.844 -1.8823 -0.5992 -1.5787
 4738SOL    HW226274   3.351   4.669   5.914  0.4576  1.5128  2.9289
 4739SOL     OW26275   7.173   7.828   0.531 -0.5627 -0.0783 -0.2480
 4739SOL    HW126276   7.191   7.843   0.628  0.9332  1.0918 -0.6838
 4739SOL    HW226277   7.152   7.732   0.515 -0.3204 -0.3727  1.1670
 4740SOL     OW26278   8.270   6.983   8.834  0.6245 -0.0467  0.0420
 4740SOL    HW126279   8.191   7.027   8.877  0.6691 -2.3852  2.6432
 4740SOL    HW226280   8.354   7.016   8.878  0.8197 -0.7518  0.1961
 4741SOL     OW26281   9.721   8.881   9.840  0.4081  0.5683  0.6001
 4741SOL    HW126282   9.646   8.815   9.845 -0.1051  1.0415 -0.6117
 4741SOL    HW226283   9.808   8.833   9.831  0.0458  0.0410 -0.1577
 4742SOL     OW26284   3.098   4.722   7.198 -0.1708 -0.3410  0.4415
 4742SOL    HW126285   3.124   4.641   7.147 -0.8813  0.3155 -1.0067
 4742SOL    HW226286   3.109   4.803   7.140  0.9750  0.6583  2.0098
 4743SOL     OW26287   8.537   8.264   5.816  0.1182 -0.2120  0.0544
 4743SOL    HW126288   8.524   8.173   5.855 -0.6091  0.4679  1.4242
 4743SOL    HW226289   8.465   8.325   5.849  0.5378  0.8339 -0.9375
 4744SOL     OW26290   2.296   0.058   0.750  0.1760 -0.5908 -0.3963
 4744SOL    HW126291   2.318   0.086   0.656  1.0875  1.3149  0.3471
 4744SOL    HW226292   2.197   0.054   0.761  0.0627 -0.7075 -1.4104
 4745SOL     OW26293   1.359   4.522   7.891  0.3308  0.7743  0.0477
 4745SOL    HW126294   1.271   4.495   7.931  0.6320  0.5852  0.5858
 4745SOL    HW226295   1.346   4.545   7.795 -0.1110 -0.3367 -0.1632
 4746SOL     OW26296   9.124   5.898   1.465  0.1291 -0.1338 -0.3575
 4746SOL    HW126297   9.201   5.845   1.500  0.0284  0.1046  0.2235
 4746SOL    HW226298   9.150   5.995   1.460  0.1076 -0.1506 -0.8393
 4747SOL     OW26299   9.652   5.604   9.925  0.0870 -0.2757 -0.1464
 4747SOL    HW126300   9.621   5.536   9.992  0.4255 -0.6333 -0.3527
 4747SOL    HW226301   9.610   5.692   9.946 -1.8845 -0.9734 -1.0292
 4748SOL     OW26302   5.724   8.588   5.196  0.0805  0.5206 -0.3454
 4748SOL    HW126303   5.641   8.595   5.251 -1.8508  0.6291 -3.1319
 4748SOL    HW226304   5.761   8.495   5.202  0.3216  0.7283  1.6435
 4749SOL     OW26305   0.455   8.995   0.567  0.2545 -0.1840 -0.1457
 4749SOL    HW126306   0.436   8.959   0.659  0.7302 -0.4670 -0.1567
 4749SOL    HW226307   0.401   8.945   0.500 -0.5321  0.4093  0.0386
 4750SOL     OW26308   3.528   0.842   5.668  0.2812 -0.1086  0.2977
 4750SOL    HW126309   3.545   0.767   5.604 -2.4848  1.8734 -2.9312
 4750SOL    HW226310   3.451   0.817   5.727  0.7804 -0.6862  0.7083
 4751SOL     OW26311   6.418   9.454   3.453 -0.0468 -0.3548  0.2111
 4751SOL    HW126312   6.322   9.447   3.424 -0.5726  3.3095  0.8262
 4751SOL    HW226313   6.422   9.495   3.545  2.1259  0.7419 -0.3433
 4752SOL     OW26314   1.329   7.248   2.070  0.1519 -0.2058 -0.2551
 4752SOL    HW126315   1.233   7.220   2.063 -0.2992  1.1448  0.3598
 4752SOL    HW226316   1.370   7.247   1.979 -0.7829  0.3592 -0.6931
 4753SOL     OW26317   0.814   2.743   6.703  0.8086 -0.2764 -0.6835
 4753SOL    HW126318   0.778   2.770   6.614  1.4712  2.9860 -0.0452
 4753SOL    HW226319   0.791   2.813   6.771  2.1411 -1.6546  1.2520
 4754SOL     OW26320   9.768   9.885   1.263 -0.2371  0.5116 -0.0533
 4754SOL    HW126321   9.827   9.928   1.332  1.2061 -0.6824 -0.5039
 4754SOL    HW226322   9.789   9.922   1.173  0.3468 -0.4298 -0.3142
 4755SOL     OW26323   7.253   9.381   2.852 -0.2148 -1.0408  0.4432
 4755SOL    HW126324   7.252   9.348   2.946  1.8852 -1.3854  0.3818
 4755SOL    HW226325   7.284   9.476   2.850  2.2962 -1.8100 -0.0519
 4756SOL     OW26326   1.693   3.973   7.102  0.1744  0.6827 -0.1331
 4756SOL    HW126327   1.687   4.034   7.024 -0.9476 -0.9238 -1.3369
 4756SOL    HW226328   1.744   3.891   7.077 -1.4070 -0.4872  0.3627
 4757SOL     OW26329   6.174   7.559   4.205  0.5716  0.2930  0.0714
 4757SOL    HW126330   6.142   7.537   4.297  0.6930  0.4023  0.1396
 4757SOL    HW226331   6.099   7.600   4.152  0.5960  0.5368  0.2269
 4758SOL     OW26332   4.774   9.552   2.337 -0.4743  0.1638 -0.3470
 4758SOL    HW126333   4.691   9.571   2.285  0.3269  1.1657 -1.2785
 4758SOL    HW226334   4.854   9.581   2.285  0.5358 -1.6159  0.1623
 4759SOL     OW26335   3.948   7.701   6.047  0.1215  0.1491  0.1872
 4759SOL    HW126336   3.994   7.624   6.004 -0.7800 -0.0472 -0.4291
 4759SOL    HW226337   4.013   7.776   6.059  0.8633 -0.5070  0.2987
 4760SOL     OW26338   0.563   0.259   7.814 -0.7737 -0.2622  0.1643
 4760SOL    HW126339   0.500   0.315   7.867 -0.8649 -0.9759  0.8205
 4760SOL    HW226340   0.631   0.218   7.875  0.0366  0.1098 -0.4658
 4761SOL     OW26341   0.040   6.494   7.025 -0.6667 -0.5459 -0.0014
 4761SOL    HW126342   0.021   6.564   7.094  0.1944  0.7831 -1.0771
 4761SOL    HW226343   0.107   6.429   7.061 -0.2660  0.1051  0.4376
 4762SOL     OW26344   4.813   9.399   3.231  0.1998  0.2684  0.2450
 4762SOL    HW126345   4.839   9.303   3.248  1.7804  1.0264  2.4043
 4762SOL    HW226346   4.868   9.435   3.156  1.5184  0.2369  1.1766
 4763SOL     OW26347   3.098   3.861   9.530  0.1410  1.0072  0.0037
 4763SOL    HW126348   3.125   3.849   9.435  0.5491  0.1907  0.2169
 4763SOL    HW226349   3.109   3.957   9.556  0.1529  1.2039 -0.7344
 4764SOL     OW26350   8.010   2.583   4.118  0.1647 -0.1563  0.3811
 4764SOL    HW126351   7.947   2.615   4.048 -0.8822  0.0974  1.4159
 4764SOL    HW226352   8.056   2.500   4.086 -0.2239  0.0148 -0.6388
 4765SOL     OW26353   9.913   0.167   1.033 -0.4520 -0.2739 -0.7860
 4765SOL    HW126354   9.987   0.223   0.996 -1.1270  1.2293  0.1083
 4765SOL    HW226355   9.880   0.104   0.962  1.0687 -0.3226 -1.4578
 4766SOL     OW26356   0.026   3.208   1.695  0.1605  0.0893  0.0072
 4766SOL    HW126357   0.079   3.130   1.728  0.6471  1.1586  1.8877
 4766SOL    HW226358   0.088   3.286   1.678 -0.3910  0.2739 -1.2110
 4767SOL     OW26359   8.522   7.734   4.010 -0.4107 -0.4451 -0.0859
 4767SOL    HW126360   8.438   7.682   3.992 -0.4992 -0.2077 -0.3643
 4767SOL    HW226361   8.599   7.670   4.019 -0.6363 -0.6702  0.2628
 4768SOL     OW26362   2.510   0.833   6.307  0.4681 -0.3092 -0.1656
 4768SOL    HW126363   2.455   0.822   6.390  0.8482  0.3013  0.1672
 4768SOL    HW226364   2.457   0.883   6.239  1.1437  1.6303  0.6971
 4769SOL     OW26365   1.381   4.580   3.442  0.5311  0.3131 -0.2790
 4769SOL    HW126366   1.369   4.485   3.414 -2.3957  0.4677  0.2669
 4769SOL    HW226367   1.353   4.641   3.368  0.4813  0.7441  0.0879
 4770SOL     OW26368   8.822   6.903   2.630 -0.2901  0.4488  0.0096
 4770SOL    HW126369   8.879   6.858   2.698 -0.0024 -1.2210 -1.3139
 4770SOL    HW226370   8.860   6.993   2.609  0.8858  0.0477  0.3933
 4771SOL     OW26371   9.296   4.710   4.254  0.0042  0.0041  0.0836
 4771SOL    HW126372   9.264   4.779   4.318 -1.1519  0.8746 -1.3960
 4771SOL    HW226373   9.273   4.619   4.288 -4.1857  0.5703 -0.8885
 4772SOL     OW26374   7.644   8.122   3.667 -0.0178 -0.3380 -0.0579
 4772SOL    HW126375   7.577   8.054   3.697  0.4821 -0.9435 -0.3131
 4772SOL    HW226376   7.604   8.177   3.594 -0.9471  0.6075  1.1298
 4773SOL     OW26377   3.279   9.412   0.453 -0.2435 -0.0938  0.0963
 4773SOL    HW126378   3.214   9.469   0.402  1.0118  0.0841 -1.3475
 4773SOL    HW226379   3.269   9.429   0.551 -0.4928  1.9737 -0.2705
 4774SOL     OW26380   3.442   7.244   0.294 -0.2607 -0.9181 -0.1606
 4774SOL    HW126381   3.438   7.219   0.391 -1.8535  0.9609  0.2831
 4774SOL    HW226382   3.537   7.264   0.269  0.1205 -1.1059  1.0869
 4775SOL     OW26383   2.862   7.903   4.726  0.3796 -0.1284  0.6572
 4775SOL    HW126384   2.779   7.859   4.760  0.4881 -1.3881 -0.6888
 4775SOL    HW226385   2.841   7.996   4.696 -0.2335  0.0790  1.6802
 4776SOL     OW26386   0.979   3.946   3.937  0.6144 -0.2337  0.2011
 4776SOL    HW126387   0.979   3.860   3.887 -1.1235 -0.7044  0.9657
 4776SOL    HW226388   1.066   3.957   3.985  0.7246 -1.7217  0.3569
 4777SOL     OW26389   4.446   7.750   8.301 -0.0083  0.3894 -0.0353
 4777SOL    HW126390   4.410   7.706   8.218  0.8897  1.1145 -0.8231
 4777SOL    HW226391   4.535   7.790   8.280 -0.1450  1.2730  1.0869
 4778SOL     OW26392   7.725   0.943   2.740  0.4947 -0.0944  0.0595
 4778SOL    HW126393   7.672   1.025   2.720  0.9026  0.2851  0.5062
 4778SOL    HW226394   7.787   0.924   2.664  0.1718 -0.1689 -0.1832
 4779SOL     OW26395   9.611   9.924   0.975  0.4504  0.0663 -0.1105
 4779SOL    HW126396   9.539   9.980   0.933 -0.6905 -2.9935 -2.3365
 4779SOL    HW226397   9.607   9.935   1.075 -0.6572  2.8027 -0.4107
 4780SOL     OW26398   9.362   0.368   0.871  0.2409  0.0588 -0.0142
 4780SOL    HW126399   9.333   0.435   0.803 -0.0172 -1.2359 -1.1864
 4780SOL    HW226400   9.462   0.368   0.878  0.2956 -0.1247 -0.7378
 4781SOL     OW26401   4.073   8.863   3.397 -0.3404  0.6077  0.4526
 4781SOL    HW126402   3.990   8.844   3.345  0.1294  0.9778 -0.4550
 4781SOL    HW226403   4.086   8.962   3.404 -0.2962  0.5574  1.1109
 4782SOL     OW26404   1.116   7.577   8.606 -0.0876  0.0761  0.2497
 4782SOL    HW126405   1.115   7.536   8.515  0.1049  1.4735 -0.3927
 4782SOL    HW226406   1.207   7.565   8.646  0.7004  1.9764 -0.9229
 4783SOL     OW26407   2.135   0.313   0.307  0.2312 -0.0849 -0.6010
 4783SOL    HW126408   2.109   0.245   0.239  0.6662 -1.3506  0.4845
 4783SOL    HW226409   2.123   0.405   0.269 -0.4900 -0.7616 -2.0219
 4784SOL     OW26410   1.817   5.166   6.146 -0.0883 -0.3078 -0.1201
 4784SOL    HW126411   1.786   5.259   6.166  1.0795 -0.2527  1.5186
 4784SOL    HW226412   1.894   5.170   6.083  1.3635 -0.0033  1.6185
 4785SOL     OW26413   8.902   0.745   8.344  0.2577 -0.3771 -0.1005
 4785SOL    HW126414   8.916   0.684   8.422  2.7959  0.1498 -0.0805
 4785SOL    HW226415   8.963   0.718   8.269 -0.0665  0.8733 -0.8368
 4786SOL     OW26416   8.851   4.439   0.873 -0.7197 -0.2639 -0.1644
 4786SOL    HW126417   8.868   4.463   0.968  1.5390 -0.8059 -0.4019
 4786SOL    HW226418   8.917   4.369   0.844  0.5642  2.0375 -2.9952
 4787SOL     OW26419   4.069   7.993   4.162 -0.6874  0.2813 -0.6101
 4787SOL    HW126420   4.032   7.943   4.083 -0.9707 -1.7340  0.7792
 4787SOL    HW226421   4.116   7.929   4.223  0.9208  2.0773  0.0829
 4788SOL     OW26422   7.176   0.206   1.296  0.2375  0.3248 -0.1581
 4788SOL    HW126423   7.144   0.155   1.216  1.4285 -1.0601  0.2203
 4788SOL    HW226424   7.109   0.198   1.369 -0.3324  0.6532 -0.6382
 4789SOL     OW26425   3.742   5.798   4.112  0.4255  0.0620  0.0638
 4789SOL    HW126426   3.778   5.706   4.126  0.9449  0.1839 -0.4674
 4789SOL    HW226427   3.692   5.801   4.026 -0.6698 -0.0458  0.6828
 4790SOL     OW26428   9.949   6.087   1.234  0.1793  0.3448  0.3574
 4790SOL    HW126429   9.956   6.160   1.166  2.5791 -0.0517  0.1273
 4790SOL    HW226430   9.967   5.999   1.191  3.4542  0.2455  1.7377
 4791SOL     OW26431   2.116   4.937   1.530 -0.2376  0.4507 -0.2185
 4791SOL    HW126432   2.136   4.902   1.621  1.4904 -1.0130 -1.1325
 4791SOL    HW226433   2.035   4.891   1.494 -0.3846  0.3644  0.2224
 4792SOL     OW26434   9.419   0.335   4.899  0.1810 -0.1944  0.6354
 4792SOL    HW126435   9.408   0.406   4.830 -1.8190  0.4761  1.6303
 4792SOL    HW226436   9.341   0.273   4.897  1.4746 -1.8612  0.3862
 4793SOL     OW26437   0.936   4.946   6.689  0.5351 -0.1884  0.0529
 4793SOL    HW126438   0.904   4.903   6.773  1.5623 -2.4951 -0.6821
 4793SOL    HW226439   0.858   4.975   6.634 -0.1464  0.7001  1.4709
 4794SOL     OW26440   3.898   4.971   6.956 -0.6603  0.2464 -0.2350
 4794SOL    HW126441   3.952   5.027   6.894 -1.3789  0.0137 -1.0696
 4794SOL    HW226442   3.896   5.014   7.047  0.5116  0.5032 -0.3286
 4795SOL     OW26443   2.584   9.080   4.012  0.5767 -0.0562  0.4539
 4795SOL    HW126444   2.633   8.994   4.000  0.2726  0.0085 -1.3647
 4795SOL    HW226445   2.537   9.104   3.927  1.3301  2.3082  0.6501
 4796SOL     OW26446   3.435   0.857   3.312 -0.6390  0.3784  0.0499
 4796SOL    HW126447   3.416   0.875   3.409  0.5936  2.0123  0.0034
 4796SOL    HW226448   3.359   0.890   3.256 -1.0009  0.1392  0.3970
 4797SOL     OW26449   1.396   0.246   6.692  0.5886 -0.0200  0.0741
 4797SOL    HW126450   1.418   0.251   6.789 -0.5551 -1.1229  0.4054
 4797SOL    HW226451   1.404   0.337   6.651 -0.7625  0.8160  1.6118
 4798SOL     OW26452   6.268   1.132   4.417 -1.1250  0.4325 -0.3455
 4798SOL    HW126453   6.249   1.202   4.485 -1.5263  0.2109 -0.2270
 4798SOL    HW226454   6.321   1.171   4.342  1.3128  0.1549  1.1675
 4799SOL     OW26455   4.913   5.228   2.879  0.4719 -0.4676 -0.4194
 4799SOL    HW126456   4.939   5.196   2.970  0.8122 -0.6588 -0.5851
 4799SOL    HW226457   4.991   5.222   2.817  0.1229 -0.7482 -0.8394
 4800SOL     OW26458   1.175   4.928   8.207  0.3583  0.1915 -0.2106
 4800SOL    HW126459   1.254   4.870   8.228  0.9344  1.5010  1.3383
 4800SOL    HW226460   1.159   4.928   8.108  0.8376 -1.9476 -0.3177
 4801SOL     OW26461   0.444   0.989   0.623 -0.3139  0.1081 -0.3655
 4801SOL    HW126462   0.377   0.915   0.631  1.0919 -1.1447 -0.0641
 4801SOL    HW226463   0.406   1.072   0.665 -0.9411 -1.0996  1.5485
 4802SOL     OW26464   3.156   8.348   4.737 -0.0227 -0.2230  0.4551
 4802SOL    HW126465   3.134   8.357   4.640  0.0217 -0.2449  0.4434
 4802SOL    HW226466   3.235   8.289   4.748  0.6177  0.6212  0.4391
 4803SOL     OW26467   1.378   2.167   4.235  0.3497 -0.2585 -0.4379
 4803SOL    HW126468   1.349   2.262   4.237 -0.5650 -0.4364 -3.1662
 4803SOL    HW226469   1.328   2.118   4.164  2.3490 -2.2476 -0.5444
 4804SOL     OW26470   0.338   5.491   2.452 -0.0194 -0.3454 -0.8152
 4804SOL    HW126471   0.371   5.563   2.512 -2.3979  1.2424 -1.3466
 4804SOL    HW226472   0.249   5.459   2.484  0.7066 -2.6436 -0.9520
 4805SOL     OW26473   9.284   9.585   8.459 -0.7462  0.6240 -0.6063
 4805SOL    HW126474   9.231   9.595   8.543 -0.5625  1.1025 -0.5468
 4805SOL    HW226475   9.273   9.667   8.403  0.3293  0.9468 -0.3593
 4806SOL     OW26476   1.202   0.855   8.899  0.0621  0.1086 -0.2226
 4806SOL    HW126477   1.233   0.823   8.989 -0.2345 -0.0936 -0.1921
 4806SOL    HW226478   1.214   0.782   8.832 -3.0409 -1.0064  0.3657
 4807SOL     OW26479   1.648   5.222   1.312  0.4729  0.2132  0.0996
 4807SOL    HW126480   1.722   5.286   1.331 -0.3147  1.1743  0.0122
 4807SOL    HW226481   1.570   5.242   1.372 -0.6122  0.8027 -1.4657
 4808SOL     OW26482   3.197   9.092   4.615  0.4598 -0.0716 -0.3067
 4808SOL    HW126483   3.226   8.996   4.619 -0.2384 -0.2500  0.7745
 4808SOL    HW226484   3.215   9.136   4.703  3.2179  1.5430 -1.6151
 4809SOL     OW26485   3.148   9.386   3.279  0.1494  0.3873 -0.4550
 4809SOL    HW126486   3.048   9.397   3.282 -0.1827 -2.5583  0.2677
 4809SOL    HW226487   3.190   9.442   3.350 -1.1784 -0.2736  0.8719
 4810SOL     OW26488   3.501   4.345   1.197 -0.2271  0.2510  0.4583
 4810SOL    HW126489   3.404   4.352   1.220 -0.1195  0.5987  0.8158
 4810SOL    HW226490   3.553   4.325   1.280 -0.0518 -0.4875  0.1742
 4811SOL     OW26491   3.997   9.275   2.778 -0.0462 -0.5275  0.5659
 4811SOL    HW126492   3.947   9.346   2.826  2.5897  2.0338 -0.3398
 4811SOL    HW226493   3.958   9.185   2.800 -2.2606  1.0238  3.1752
 4812SOL     OW26494   9.697   6.362   8.755 -0.5612  0.3851 -0.1729
 4812SOL    HW126495   9.726   6.287   8.815 -0.3500  0.6106  0.0044
 4812SOL    HW226496   9.774   6.425   8.741 -0.6024  0.3216 -0.6953
 4813SOL     OW26497   5.650   7.389   6.379  0.8241  0.3933  0.2785
 4813SOL    HW126498   5.744   7.371   6.407  1.3853 -0.1056 -1.8280
 4813SOL    HW226499   5.643   7.480   6.339  0.6925 -0.0359 -0.7011
 4814SOL     OW26500   1.865   1.428   3.968 -0.2855 -0.3505 -0.3315
 4814SOL    HW126501   1.931   1.362   3.933 -0.3905 -0.1908 -0.8349
 4814SOL    HW226502   1.773   1.388   3.967  0.0288 -1.1901  1.9866
 4815SOL     OW26503   6.232   3.054   1.696 -0.0397  0.2963  0.0770
 4815SOL    HW126504   6.279   3.116   1.758  0.9053 -0.8729  0.5656
 4815SOL    HW226505   6.239   3.089   1.602 -0.1122  1.2595  0.4251
 4816SOL     OW26506   4.453   1.427   3.120  0.2434  0.0597  0.3721
 4816SOL    HW126507   4.482   1.418   3.024  0.7435  0.8364  0.4410
 4816SOL    HW226508   4.353   1.422   3.125  0.1611  0.9209 -0.3019
 4817SOL     OW26509   2.156   7.485   5.422  0.4511  0.1635 -0.0783
 4817SOL    HW126510   2.129   7.579   5.405 -0.3941 -0.1088 -0.2394
 4817SOL    HW226511   2.204   7.479   5.509  0.9832  0.8308 -0.3241
 4818SOL     OW26512   2.563   1.589   7.024  0.0623  0.1116 -0.2257
 4818SOL    HW126513   2.517   1.503   7.002  1.3933 -0.5017 -0.6649
 4818SOL    HW226514   2.610   1.623   6.943 -0.5405  1.3298 -0.0863
 4819SOL     OW26515   1.632   0.859   0.901 -0.3351  0.0383 -0.1307
 4819SOL    HW126516   1.555   0.795   0.900  0.1740 -0.5620 -0.2642
 4819SOL    HW226517   1.696   0.834   0.973 -1.1053  1.5401  1.1191
 4820SOL     OW26518   4.220   9.573   5.813 -0.2239 -0.0039  0.3771
 4820SOL    HW126519   4.182   9.484   5.790 -0.8642 -0.4312  3.0057
 4820SOL    HW226520   4.151   9.644   5.796 -0.6322 -0.2912  0.8332
 4821SOL     OW26521   4.551   6.967   2.354  0.2347 -0.6986 -0.5794
 4821SOL    HW126522   4.473   7.011   2.398  1.7342  1.1553  0.2705
 4821SOL    HW226523   4.570   7.011   2.266  1.1844 -0.2222 -0.1404
 4822SOL     OW26524   3.287   8.288   5.562  0.0089 -0.0205  0.2216
 4822SOL    HW126525   3.362   8.289   5.496  0.3221 -0.5664  0.5635
 4822SOL    HW226526   3.208   8.242   5.522 -1.4343  3.7595 -1.5060
 4823SOL     OW26527   8.720   2.254   2.348 -0.1740 -0.0607 -0.2484
 4823SOL    HW126528   8.748   2.181   2.285 -1.2096 -0.1515 -0.6243
 4823SOL    HW226529   8.689   2.212   2.434  0.6331  0.0248  0.0843
 4824SOL     OW26530   9.466   5.325   8.178 -0.0897  0.0195  0.1111
 4824SOL    HW126531   9.410   5.282   8.250  0.2410  0.2213  0.4909
 4824SOL    HW226532   9.557   5.344   8.214  0.2198 -0.2951 -0.5047
 4825SOL     OW26533   0.287   7.257   6.861 -0.2201  0.0892 -0.9087
 4825SOL    HW126534   0.344   7.285   6.783  0.5385 -0.9405 -0.7421
 4825SOL    HW226535   0.254   7.339   6.908  3.9264  0.8307  1.0087
 4826SOL     OW26536   7.583   2.516   5.311  0.2455  0.2898 -0.1721
 4826SOL    HW126537   7.638   2.439   5.345  0.2750  0.5774  0.4374
 4826SOL    HW226538   7.572   2.584   5.384 -0.0345  0.7237 -0.6170
 4827SOL     OW26539   6.281   8.769   4.079  0.1387  0.7122  0.4364
 4827SOL    HW126540   6.198   8.811   4.115  0.7979  0.9238  1.7220
 4827SOL    HW226541   6.257   8.683   4.033 -0.7544  0.5663  1.1522
 4828SOL     OW26542   3.632   0.458   2.748  0.2166 -0.4631 -0.2865
 4828SOL    HW126543   3.547   0.416   2.718 -0.4399  0.5828  0.0749
 4828SOL    HW226544   3.689   0.479   2.669 -0.5997  0.3755 -0.6524
 4829SOL     OW26545   0.764   7.057   7.992  0.1303 -0.0524  0.4264
 4829SOL    HW126546   0.782   6.960   8.004  1.3605  0.1232  0.0919
 4829SOL    HW226547   0.676   7.081   8.035  0.7330 -0.9261  2.1696
 4830SOL     OW26548   0.365   8.402   3.023  0.3662 -0.0253 -0.3174
 4830SOL    HW126549   0.454   8.431   3.058  0.1904  0.7759 -0.5320
 4830SOL    HW226550   0.378   8.340   2.945  0.7396 -0.1853 -0.1253
 4831SOL     OW26551   3.169   7.035   1.529  0.0746  0.2237 -0.5536
 4831SOL    HW126552   3.237   7.100   1.494  0.1369 -0.1975 -1.2247
 4831SOL    HW226553   3.172   7.035   1.629 -0.6358  1.9977 -0.5112
 4832SOL     OW26554   2.923   6.973   3.543  0.1229 -0.4703 -0.3937
 4832SOL    HW126555   2.952   7.015   3.629  1.6478 -1.0977 -0.5829
 4832SOL    HW226556   2.830   6.936   3.553 -0.7309  1.7633  0.1682
 4833SOL     OW26557   2.230   0.799   4.922  0.1224 -0.2079  0.0040
 4833SOL    HW126558   2.290   0.722   4.942  0.9090  0.9007  2.1073
 4833SOL    HW226559   2.140   0.784   4.962 -0.0852 -0.5244 -0.5702
 4834SOL     OW26560   1.383   2.078   6.934 -0.1760  0.2412  0.0087
 4834SOL    HW126561   1.447   2.002   6.931  0.7290  0.8285  2.6609
 4834SOL    HW226562   1.368   2.105   7.029 -4.1247  0.3284 -0.5424
 4835SOL     OW26563   5.809   0.928   0.308 -0.2799 -0.3704  0.6060
 4835SOL    HW126564   5.800   0.913   0.407 -0.2003 -0.5336  0.5886
 4835SOL    HW226565   5.903   0.912   0.280 -0.4710 -1.1319  0.3697
 4836SOL     OW26566   1.488   7.622   1.638  0.4917 -0.0203  0.5196
 4836SOL    HW126567   1.441   7.601   1.723  1.9909  0.5359  1.5212
 4836SOL    HW226568   1.433   7.684   1.583 -0.6899 -0.7484  0.8750
 4837SOL     OW26569   2.202   7.999   3.736 -0.6095 -0.4780 -0.2785
 4837SOL    HW126570   2.165   8.049   3.814 -1.9713 -1.6660 -0.1271
 4837SOL    HW226571   2.235   7.909   3.766  1.2905  0.0775 -0.6334
 4838SOL     OW26572   2.914   5.936   2.502  0.1161 -0.1450  0.5904
 4838SOL    HW126573   2.920   5.856   2.444  0.4117  0.2760  0.0393
 4838SOL    HW226574   3.005   5.967   2.528  0.1137  1.5748 -1.3645
 4839SOL     OW26575   0.120   1.808   3.985 -0.1046  0.1170  0.4345
 4839SOL    HW126576   0.078   1.718   3.978  0.7744 -0.1901 -1.0562
 4839SOL    HW226577   0.185   1.820   3.910  1.6677  0.9945  2.0770
 4840SOL     OW26578   9.508   5.641   5.579  0.3890  0.4224  0.4271
 4840SOL    HW126579   9.412   5.654   5.603  0.2664 -0.9942  0.7226
 4840SOL    HW226580   9.560   5.615   5.661  0.4877 -1.6683 -0.2919
 4841SOL     OW26581   4.642   9.933   2.844  0.4043 -0.1600 -0.4076
 4841SOL    HW126582   4.599   9.903   2.758 -2.9639  0.5379  0.9428
 4841SOL    HW226583   4.676  10.026   2.834 -1.3426  0.4732 -0.5607
 4842SOL     OW26584   0.573   8.325   2.050 -0.3019 -0.9788 -1.0144
 4842SOL    HW126585   0.629   8.287   2.123  0.7402  0.6083 -0.9680
 4842SOL    HW226586   0.493   8.369   2.089  0.9648  1.1090 -0.6756
 4843SOL     OW26587   7.744   1.921   3.729  0.4276  0.0622  0.4376
 4843SOL    HW126588   7.699   1.998   3.684  2.4969  0.4352 -1.0438
 4843SOL    HW226589   7.815   1.955   3.791  0.7380 -0.6193  0.4642
 4844SOL     OW26590   0.207   8.969   4.361 -0.2757  0.2295 -0.3563
 4844SOL    HW126591   0.211   9.068   4.365  0.2483  0.1717  0.8049
 4844SOL    HW226592   0.288   8.934   4.314  0.3489  0.2866  0.6548
 4845SOL     OW26593   9.094   0.489   4.954  0.3760 -0.0950  0.5729
 4845SOL    HW126594   9.168   0.555   4.965  0.7039 -0.3876  0.1564
 4845SOL    HW226595   9.023   0.529   4.896  0.4951 -0.0401  0.4648
 4846SOL     OW26596   3.688   8.839   6.719 -0.2389 -0.2450  0.0059
 4846SOL    HW126597   3.748   8.759   6.720 -0.1131 -0.1627 -0.8740
 4846SOL    HW226598   3.735   8.917   6.759 -0.4027 -0.6309  0.9842
 4847SOL     OW26599   3.919   6.381   2.524  0.6711  0.0111  0.2119
 4847SOL    HW126600   3.906   6.475   2.494  1.4520  0.2707  0.6681
 4847SOL    HW226601   3.835   6.347   2.567  0.8983  1.0636  1.5365
 4848SOL     OW26602   4.672   9.270   5.759 -0.1135  0.0096 -0.3113
 4848SOL    HW126603   4.584   9.307   5.730 -0.0904 -0.2802 -0.7553
 4848SOL    HW226604   4.698   9.195   5.699  0.2101 -0.2194  0.1126
 4849SOL     OW26605   7.474   7.769   7.521 -0.2353  0.3798  0.6194
 4849SOL    HW126606   7.486   7.813   7.610 -0.6610 -0.6633  1.1911
 4849SOL    HW226607   7.396   7.707   7.523  1.1087 -1.3917  0.2155
 4850SOL     OW26608   0.471   9.341   0.345  0.1553 -0.2432 -1.1207
 4850SOL    HW126609   0.523   9.304   0.422 -1.8496  2.0158  1.4410
 4850SOL    HW226610   0.520   9.420   0.307  0.3333 -0.3186 -1.0493
 4851SOL     OW26611   9.544   1.263   5.138  0.4430  0.0621 -0.2054
 4851SOL    HW126612   9.464   1.221   5.180  0.8448 -0.2508  0.2535
 4851SOL    HW226613   9.604   1.299   5.209  1.0416 -0.3132 -0.5135
 4852SOL     OW26614   4.023   7.941   3.548 -0.0694 -0.1248 -0.1829
 4852SOL    HW126615   4.008   7.852   3.505  0.2814  0.2948 -1.1819
 4852SOL    HW226616   4.100   7.987   3.504 -0.1549  0.6142  0.4275
 4853SOL     OW26617   9.547   6.407   4.788 -0.3994  0.2659 -0.1136
 4853SOL    HW126618   9.537   6.383   4.691  1.1972  0.7913 -0.4193
 4853SOL    HW226619   9.622   6.355   4.828 -0.6844  0.4734  0.6987
 4854SOL     OW26620   9.808   8.139   6.178  0.1676  0.2900 -0.6815
 4854SOL    HW126621   9.729   8.133   6.118 -0.4047 -0.6524  0.1356
 4854SOL    HW226622   9.789   8.088   6.263  1.5264  0.3078 -0.3533
 4855SOL     OW26623   7.427   1.406   3.085  0.2960  0.3743 -0.0260
 4855SOL    HW126624   7.359   1.475   3.061  0.7577  0.8592  0.0455
 4855SOL    HW226625   7.381   1.321   3.108 -0.1988  0.1694 -1.7000
 4856SOL     OW26626   1.354   2.071   1.884  0.2094 -0.1337  0.1844
 4856SOL    HW126627   1.387   2.105   1.972  1.0861  0.8451 -0.5122
 4856SOL    HW226628   1.396   2.123   1.810 -0.5829 -0.8947 -0.8198
 4857SOL     OW26629   9.631   7.250   4.076 -0.1513 -0.0185 -0.2702
 4857SOL    HW126630   9.617   7.237   4.174 -0.7333  3.0954  0.1071
 4857SOL    HW226631   9.543   7.252   4.029  0.1670 -2.6340 -1.0616
 4858SOL     OW26632   9.952   9.880   9.149  0.2123 -0.0744  0.2701
 4858SOL    HW126633   9.925   9.863   9.244 -2.1086 -1.2796 -0.5682
 4858SOL    HW226634  10.010   9.962   9.145 -0.9603  0.9201  2.5201
 4859SOL     OW26635   2.677   7.811   4.962  0.1874 -0.6579 -0.4111
 4859SOL    HW126636   2.697   7.744   4.890  0.5029 -0.0712 -0.8751
 4859SOL    HW226637   2.607   7.775   5.023  0.1761 -1.3081 -0.8078
 4860SOL     OW26638   8.608   9.349   6.615  0.0017  0.2069  0.6187
 4860SOL    HW126639   8.625   9.355   6.714  1.1472  1.0632  0.3873
 4860SOL    HW226640   8.554   9.267   6.595  1.4886 -1.0759  1.7347
 4861SOL     OW26641   0.272   9.475   4.746  0.1532  0.0486  0.1354
 4861SOL    HW126642   0.214   9.405   4.788  1.0013 -0.3359  0.6918
 4861SOL    HW226643   0.216   9.552   4.717 -0.5379  0.0279  1.3864
 4862SOL     OW26644   1.897   0.929   3.941 -0.0938 -0.1498 -0.3409
 4862SOL    HW126645   1.825   0.864   3.966 -0.1489  0.1183  0.1950
 4862SOL    HW226646   1.858   1.020   3.932 -0.1664 -0.3131 -1.8734
 4863SOL     OW26647   0.531   0.182   9.177 -0.0605 -0.1146 -0.0161
 4863SOL    HW126648   0.460   0.245   9.145  1.2399  2.0908  1.2884
 4863SOL    HW226649   0.585   0.150   9.100 -0.2657  0.9815 -0.6254
 4864SOL     OW26650   3.609   3.258   8.124 -0.5900  0.1838  0.5637
 4864SOL    HW126651   3.527   3.249   8.180 -0.8261 -0.0233  0.1875
 4864SOL    HW226652   3.583   3.265   8.028 -0.0885 -2.0437  0.2339
 4865SOL     OW26653   0.390   5.445   5.367 -0.1295 -0.2777  0.5461
 4865SOL    HW126654   0.487   5.422   5.370 -0.3824 -1.1486  2.4439
 4865SOL    HW226655   0.378   5.532   5.318  1.1974 -2.0522 -3.1135
 4866SOL     OW26656   5.947   7.645   6.031  0.2186 -0.9591  0.2821
 4866SOL    HW126657   6.024   7.633   5.968  0.1013  1.6381 -0.3745
 4866SOL    HW226658   5.979   7.689   6.115 -0.4516 -0.4762  0.2808
 4867SOL     OW26659   9.396   5.923   8.149  0.5106  0.5135  0.5539
 4867SOL    HW126660   9.319   5.984   8.167 -0.8579 -1.7631  2.5929
 4867SOL    HW226661   9.478   5.959   8.193 -0.1664  1.1048  1.3374
 4868SOL     OW26662   9.246   9.691   5.589  0.5133  0.1241  0.3028
 4868SOL    HW126663   9.268   9.681   5.686 -1.1773 -1.2720  0.5623
 4868SOL    HW226664   9.163   9.640   5.568  1.0479  0.1230 -1.9582
 4869SOL     OW26665   5.384   0.071   1.931 -0.4228 -0.0187 -0.1736
 4869SOL    HW126666   5.426   0.064   2.022  1.3803 -2.1727 -1.1101
 4869SOL    HW226667   5.285   0.063   1.939 -0.3777  1.1430  1.7240
 4870SOL     OW26668   4.056   6.179   1.446  0.4544 -0.2763  0.1517
 4870SOL    HW126669   4.046   6.140   1.354  0.1707 -1.0583  0.5042
 4870SOL    HW226670   4.153   6.176   1.472  0.5236 -0.1338 -0.0871
 4871SOL     OW26671   0.013   0.724   3.702 -0.8109 -0.2978 -0.3576
 4871SOL    HW126672   0.045   0.716   3.608 -1.7287  0.1432 -0.7111
 4871SOL    HW226673   0.088   0.700   3.765 -0.0461 -0.1012 -1.1803
 4872SOL     OW26674   1.569   6.287   3.931  0.2300  0.2781 -0.0064
 4872SOL    HW126675   1.668   6.294   3.945  0.2557  0.0534 -0.0767
 4872SOL    HW226676   1.536   6.199   3.966 -0.0188  0.5482  0.4414
 4873SOL     OW26677   0.046   5.484   9.695 -0.6584  0.5196 -0.2368
 4873SOL    HW126678  -0.042   5.442   9.718 -0.8773  0.2481 -1.5462
 4873SOL    HW226679   0.113   5.413   9.673  0.5440  0.5952  2.8397
 4874SOL     OW26680   9.845   9.786   3.737  0.2497 -0.2358 -0.5544
 4874SOL    HW126681   9.804   9.827   3.656 -0.5964  0.6435  0.2997
 4874SOL    HW226682   9.813   9.691   3.746 -0.2314 -0.1058 -0.8592
 4875SOL     OW26683   5.205   8.643   7.516  0.1465 -0.8397 -0.0251
 4875SOL    HW126684   5.123   8.665   7.569 -0.7904 -1.8638 -1.0035
 4875SOL    HW226685   5.179   8.627   7.420  1.6655  0.0139 -0.5924
 4876SOL     OW26686   8.316   7.750   9.299 -0.4711 -0.0340  0.2237
 4876SOL    HW126687   8.339   7.786   9.389 -0.4266 -0.4327  0.3755
 4876SOL    HW226688   8.294   7.652   9.307  0.2895 -0.2522 -0.3138
 4877SOL     OW26689   9.408   8.099   4.777  0.5800  0.3227 -0.0498
 4877SOL    HW126690   9.457   8.076   4.861  2.1248  1.2689 -0.6754
 4877SOL    HW226691   9.379   8.015   4.731  3.2667 -0.3373 -0.6241
 4878SOL     OW26692   3.049   4.048   5.536  0.4224 -0.3921  0.8177
 4878SOL    HW126693   2.980   4.073   5.468  1.1079  1.3572  0.7499
 4878SOL    HW226694   3.004   4.023   5.622 -0.2620  1.9416  1.1579
 4879SOL     OW26695   0.682   1.768   6.997  0.1460  0.0209  0.0332
 4879SOL    HW126696   0.652   1.710   6.921  1.4788 -0.1886 -0.3401
 4879SOL    HW226697   0.692   1.712   7.079  0.3575 -0.0645 -0.0515
 4880SOL     OW26698   0.663   0.376   8.921 -0.4105  0.3342  0.3097
 4880SOL    HW126699   0.686   0.390   9.017  0.0593 -1.9164  0.5446
 4880SOL    HW226700   0.745   0.386   8.865 -0.0682 -1.3542  0.4810
 4881SOL     OW26701   3.117   8.172   1.507 -0.4258 -0.0655  0.1501
 4881SOL    HW126702   3.039   8.123   1.467  0.4818  0.4259 -2.2749
 4881SOL    HW226703   3.201   8.144   1.461  0.8236 -0.2827  2.4654
 4882SOL     OW26704   1.220   5.561   6.202  0.4771  0.3720  0.7126
 4882SOL    HW126705   1.201   5.573   6.300 -0.2885  1.9724  0.3779
 4882SOL    HW226706   1.157   5.617   6.149 -0.8739 -2.4720 -0.8104
 4883SOL     OW26707   5.009   2.612   6.391 -0.1421  0.9939 -0.1992
 4883SOL    HW126708   4.953   2.607   6.474 -2.2251 -1.4604 -1.6767
 4883SOL    HW226709   4.973   2.682   6.330 -0.4689  0.6568 -0.3859
 4884SOL     OW26710   4.730   6.045   4.296  0.0293 -0.3391 -0.5121
 4884SOL    HW126711   4.822   6.056   4.332 -0.2211 -0.2399  0.1115
 4884SOL    HW226712   4.670   6.115   4.337 -0.8494 -1.8875  0.9040
 4885SOL     OW26713   1.513   8.420   1.139 -0.5415  0.1867 -0.7938
 4885SOL    HW126714   1.501   8.330   1.180 -0.2175  1.2524  1.7348
 4885SOL    HW226715   1.437   8.480   1.166  0.0952  1.1582 -1.0997
 4886SOL     OW26716   1.095   1.878   2.946  0.7412  0.5706  0.2700
 4886SOL    HW126717   1.097   1.830   2.858 -2.2515 -0.4601  0.7118
 4886SOL    HW226718   1.049   1.966   2.935 -1.2320 -0.3269  1.1129
 4887SOL     OW26719   9.262   2.632   4.414 -0.1393 -0.0522  0.0877
 4887SOL    HW126720   9.212   2.552   4.448 -1.3218  0.8992  0.6411
 4887SOL    HW226721   9.208   2.715   4.431  1.0503  0.8671 -0.5102
 4888SOL     OW26722   8.408   9.055   2.476  0.0728 -0.1203  0.2660
 4888SOL    HW126723   8.313   9.031   2.493 -0.2112  0.5832 -0.2817
 4888SOL    HW226724   8.462   8.973   2.458 -0.3918 -0.5360  0.7859
 4889SOL     OW26725   3.227   6.577   7.926  0.0230 -0.0232 -0.1726
 4889SOL    HW126726   3.319   6.593   7.963 -0.2514  0.3786  0.3269
 4889SOL    HW226727   3.194   6.659   7.880  0.0371 -0.2687 -0.6309
 4890SOL     OW26728   3.143   1.262   4.612 -0.4005  0.5847  0.1109
 4890SOL    HW126729   3.176   1.185   4.666 -1.9161 -0.8861 -0.9859
 4890SOL    HW226730   3.159   1.348   4.661 -0.7301 -0.6229  2.3741
 4891SOL     OW26731   3.366   9.540   6.107  0.3293 -0.1124  0.0804
 4891SOL    HW126732   3.397   9.541   6.012 -3.7894  0.3107 -1.3578
 4891SOL    HW226733   3.374   9.447   6.144  0.0275 -0.7260 -1.3738
 4892SOL     OW26734   2.570   8.976   5.693 -0.1558 -0.7139  0.6302
 4892SOL    HW126735   2.523   8.891   5.719 -0.1830 -0.8657  0.0762
 4892SOL    HW226736   2.655   8.954   5.645 -0.6022 -0.4257 -0.2999
 4893SOL     OW26737   8.345   4.553   3.049 -0.2603 -0.1547  0.0105
 4893SOL    HW126738   8.409   4.624   3.021 -0.6809  1.1340  2.2032
 4893SOL    HW226739   8.253   4.590   3.053 -0.6209 -1.0631  0.3408
 4894SOL     OW26740   1.260   1.434   5.200  0.0097  0.1218 -0.0678
 4894SOL    HW126741   1.209   1.348   5.200  1.5129 -0.8214 -1.5896
 4894SOL    HW226742   1.267   1.470   5.293 -0.8864 -1.2472  0.5355
 4895SOL     OW26743   2.485   1.676   0.728  0.2287  0.3377 -0.3768
 4895SOL    HW126744   2.575   1.684   0.770  0.2566  0.0164 -0.3685
 4895SOL    HW226745   2.474   1.583   0.692  0.0114  0.4626 -0.6278
 4896SOL     OW26746   0.382   0.238   5.419  0.8174 -0.5378  0.1881
 4896SOL    HW126747   0.453   0.273   5.480  0.7072  0.2581 -0.1308
 4896SOL    HW226748   0.377   0.296   5.338 -0.0054 -0.7639  0.0735
 4897SOL     OW26749   1.648   4.421   9.035  0.4156 -0.3189 -0.2561
 4897SOL    HW126750   1.576   4.471   9.083  0.6566 -0.3381  0.1256
 4897SOL    HW226751   1.618   4.326   9.021 -0.4493  0.1868 -1.8649
 4898SOL     OW26752   6.391   1.491   9.040  0.2130  0.3088  0.1640
 4898SOL    HW126753   6.410   1.424   9.111  0.2506  0.2779  0.1249
 4898SOL    HW226754   6.452   1.570   9.050  1.3102 -0.3962 -0.7858
 4899SOL     OW26755   8.203   0.117   4.320  0.2351  0.1562  0.1289
 4899SOL    HW126756   8.284   0.082   4.366  1.3913 -0.3749 -2.2999
 4899SOL    HW226757   8.217   0.213   4.297  0.3875 -0.0732 -0.7484
 4900SOL     OW26758   9.174   0.524   3.233  0.2254 -0.5557  0.0584
 4900SOL    HW126759   9.262   0.571   3.232  1.4090 -2.7078 -1.5979
 4900SOL    HW226760   9.187   0.429   3.261 -1.4199 -1.1689 -1.1416
 4901SOL     OW26761   1.910   5.488   3.869 -0.1482 -0.3021 -0.0329
 4901SOL    HW126762   1.961   5.504   3.784  1.2143  1.3761  1.0564
 4901SOL    HW226763   1.959   5.421   3.925  0.7077  1.0223  0.8429
 4902SOL     OW26764   2.007   4.262   2.955 -0.0085 -0.6528 -0.0847
 4902SOL    HW126765   1.913   4.227   2.948  0.4828 -2.1281  0.3594
 4902SOL    HW226766   2.038   4.290   2.864 -0.5782 -0.9919 -0.3928
 4903SOL     OW26767   2.562   5.533   5.820  0.0141 -0.0342 -0.3901
 4903SOL    HW126768   2.494   5.465   5.847  1.2188 -0.5843  1.3671
 4903SOL    HW226769   2.557   5.612   5.882  2.7756 -1.2891  1.5366
 4904SOL     OW26770   8.410   5.880   5.109 -0.5480 -0.4084 -0.2743
 4904SOL    HW126771   8.363   5.866   5.022  0.8690  0.2153 -1.1539
 4904SOL    HW226772   8.377   5.965   5.151 -0.9483 -0.5029 -0.3951
 4905SOL     OW26773   9.212   1.392   8.541 -0.5864 -0.1878  0.0021
 4905SOL    HW126774   9.134   1.383   8.603 -0.6876 -0.7653 -0.2039
 4905SOL    HW226775   9.277   1.317   8.559  0.3381  0.7832  0.7654
 4906SOL     OW26776   1.056   0.618   6.769  0.3876  0.0227 -0.4736
 4906SOL    HW126777   1.125   0.602   6.698  0.5988 -0.0124 -0.2611
 4906SOL    HW226778   1.091   0.684   6.835  1.0083 -1.4886  0.7374
 4907SOL     OW26779   8.197   7.074   7.402 -0.3624 -0.5042  0.0459
 4907SOL    HW126780   8.110   7.123   7.402  0.3158  0.7256  0.3786
 4907SOL    HW226781   8.195   7.003   7.332 -1.1919  0.3141 -0.7837
 4908SOL     OW26782   8.341   1.184   3.516  0.5202 -0.1687  0.3753
 4908SOL    HW126783   8.379   1.263   3.467  1.8313  0.5455  2.4553
 4908SOL    HW226784   8.410   1.148   3.579  0.1751 -3.4387 -1.0326
 4909SOL     OW26785   0.554   7.493   7.097  0.3172 -0.2264 -0.3024
 4909SOL    HW126786   0.477   7.514   7.157  0.4340 -0.6885  0.0184
 4909SOL    HW226787   0.638   7.530   7.137  0.5259 -1.2819  0.2731
 4910SOL     OW26788   5.360   9.788   7.088  0.4213 -0.5963 -0.0570
 4910SOL    HW126789   5.358   9.885   7.064  0.7647 -0.7697 -0.8031
 4910SOL    HW226790   5.376   9.778   7.186 -0.7750  0.1227  0.2213
 4911SOL     OW26791   3.938   4.926   1.488 -1.0608 -0.1437  0.2764
 4911SOL    HW126792   3.918   4.988   1.564 -0.8489 -0.5827  0.6944
 4911SOL    HW226793   3.982   4.843   1.523 -0.0037  0.0919 -0.4351
 4912SOL     OW26794   3.762   8.035   4.475 -0.2195 -0.2921 -0.2912
 4912SOL    HW126795   3.750   7.943   4.440  1.3670 -0.5366 -0.2251
 4912SOL    HW226796   3.827   8.085   4.417  0.2803  0.2005  0.6699
 4913SOL     OW26797   3.622   6.269   3.373 -0.3022  0.1880  0.1774
 4913SOL    HW126798   3.594   6.187   3.322 -0.6635  0.6309 -0.3309
 4913SOL    HW226799   3.698   6.244   3.434  0.8037 -0.1442 -1.2801
 4914SOL     OW26800   8.354   6.457   2.596  0.3469 -0.2678  0.2028
 4914SOL    HW126801   8.416   6.398   2.647  1.1652  0.2758 -0.1547
 4914SOL    HW226802   8.284   6.494   2.657  1.2932  0.3478  0.9183
 4915SOL     OW26803   1.358   6.291   0.251  0.0970  0.2531  0.7899
 4915SOL    HW126804   1.373   6.192   0.251 -1.5507 -0.0094 -0.3699
 4915SOL    HW226805   1.335   6.321   0.159 -1.2042  1.4314  1.4770
 4916SOL     OW26806   0.514   2.248   7.049 -0.3573 -0.0059 -0.3310
 4916SOL    HW126807   0.446   2.296   6.994 -0.3330 -0.9832 -1.2363
 4916SOL    HW226808   0.528   2.156   7.012  0.3285 -0.3589  0.7704
 4917SOL     OW26809   5.236   9.812   1.370  0.0676  0.1233 -0.3043
 4917SOL    HW126810   5.192   9.735   1.322  1.3630 -0.4712 -0.5556
 4917SOL    HW226811   5.253   9.787   1.465 -0.2103  0.3846 -0.1852
 4918SOL     OW26812   1.434   0.043   5.251 -0.5274  0.2062  0.2044
 4918SOL    HW126813   1.437  -0.055   5.270  0.1617  0.4621  1.5095
 4918SOL    HW226814   1.501   0.066   5.181 -1.8340 -0.4940 -1.2962
 4919SOL     OW26815   9.468   7.589   3.355  0.4848 -0.5134 -0.4105
 4919SOL    HW126816   9.475   7.552   3.448 -1.3093 -1.0128 -0.4507
 4919SOL    HW226817   9.521   7.673   3.349 -0.1468  0.0325  1.3423
 4920SOL     OW26818   0.354   7.200   6.042  0.3666  0.0461  0.2910
 4920SOL    HW126819   0.327   7.212   6.138  3.7880 -1.5296  1.5054
 4920SOL    HW226820   0.314   7.115   6.006  1.1361 -0.6803  1.1274
 4921SOL     OW26821   1.367   8.337   0.642  0.8379 -0.1737  0.4024
 4921SOL    HW126822   1.351   8.239   0.653 -1.5517  0.4480  2.8274
 4921SOL    HW226823   1.425   8.370   0.716 -2.4798  1.1116  2.5597
 4922SOL     OW26824   9.770   9.537   3.839 -0.3306 -0.0678 -0.1695
 4922SOL    HW126825   9.828   9.464   3.802 -0.2676 -0.2562  0.3081
 4922SOL    HW226826   9.730   9.507   3.925 -0.1806  0.5247  0.1037
 4923SOL     OW26827   4.205   6.129   9.197 -0.2800  0.0391  0.0800
 4923SOL    HW126828   4.293   6.090   9.173  0.6714  0.8231  2.1810
 4923SOL    HW226829   4.193   6.217   9.150 -0.9067 -1.0647 -1.8889
 4924SOL     OW26830   1.446   6.347   3.099  0.0243 -0.3099  0.3564
 4924SOL    HW126831   1.384   6.416   3.063 -0.9292 -1.1558  0.3552
 4924SOL    HW226832   1.494   6.303   3.023  0.3746  0.1064  0.3352
 4925SOL     OW26833   7.485   8.956   5.997  0.0126  0.4358  0.3662
 4925SOL    HW126834   7.579   8.987   5.988  0.0240  0.4818  0.6167
 4925SOL    HW226835   7.426   9.007   5.935  0.3343 -0.4296 -0.6657
 4926SOL     OW26836   2.015   3.914   7.244  0.1717 -0.3873  0.4199
 4926SOL    HW126837   2.030   3.836   7.305  0.2807 -0.5591  0.1773
 4926SOL    HW226838   1.934   3.896   7.188  1.3788 -1.2646 -1.1016
 4927SOL     OW26839   0.514   2.381   8.686 -0.6090  0.1023 -0.5012
 4927SOL    HW126840   0.553   2.344   8.770 -1.3027 -2.0684 -1.1007
 4927SOL    HW226841   0.437   2.441   8.708 -0.0295  0.4842  0.4666
 4928SOL     OW26842   3.427   6.489   2.544  0.4249 -0.2165 -0.7171
 4928SOL    HW126843   3.344   6.544   2.552 -0.2486 -1.2577 -0.5244
 4928SOL    HW226844   3.467   6.504   2.453 -0.1322  0.0540 -0.9254
 4929SOL     OW26845   6.638   8.778   7.824 -0.4019 -0.1845  0.1056
 4929SOL    HW126846   6.654   8.872   7.793  1.9051 -0.4585  0.3224
 4929SOL    HW226847   6.703   8.717   7.778 -1.6902 -1.6279  0.1865
 4930SOL     OW26848   1.522   5.580   2.651 -0.7573 -0.3428  0.4229
 4930SOL    HW126849   1.591   5.531   2.598 -0.8861 -0.8342  0.7078
 4930SOL    HW226850   1.454   5.620   2.589 -0.6412 -0.5041  0.1917
 4931SOL     OW26851   7.087   5.587   6.945 -0.0380 -0.2695 -0.3557
 4931SOL    HW126852   7.154   5.539   6.889 -0.5035  0.4422 -1.5537
 4931SOL    HW226853   7.116   5.682   6.957 -0.9656  0.1160 -1.1186
 4932SOL     OW26854   0.206   9.636   7.462  0.0492 -0.1321 -0.2299
 4932SOL    HW126855   0.286   9.659   7.518 -0.4396 -1.6815  1.1349
 4932SOL    HW226856   0.218   9.545   7.424 -0.7054 -0.0376 -0.6906
 4933SOL     OW26857   9.289   2.244   2.868  0.2404 -0.0928 -0.0792
 4933SOL    HW126858   9.362   2.176   2.861 -0.1284 -0.4199 -0.8323
 4933SOL    HW226859   9.205   2.200   2.901 -0.3627 -0.2943 -1.8164
 4934SOL     OW26860   3.455   8.400   4.449  0.0925 -0.4776 -0.5129
 4934SOL    HW126861   3.446   8.415   4.547  3.2520  3.2635 -0.6899
 4934SOL    HW226862   3.375   8.437   4.402 -0.8097 -1.0811  0.5364
 4935SOL     OW26863   6.888   8.524   1.922  0.6433 -0.3733 -0.0164
 4935SOL    HW126864   6.831   8.451   1.884 -0.7254  0.8578 -0.4195
 4935SOL    HW226865   6.849   8.613   1.896  0.6893  0.5106  2.7667
 4936SOL     OW26866   0.102   5.714   6.382 -0.0309 -0.2960  0.1493
 4936SOL    HW126867   0.035   5.740   6.451 -0.0994 -0.7824  0.2685
 4936SOL    HW226868   0.055   5.675   6.303  0.1326 -1.0988  0.4368
 4937SOL     OW26869   4.816   7.383   4.740  0.0051 -0.4901  0.8142
 4937SOL    HW126870   4.782   7.289   4.738 -0.3315 -0.4053  2.5518
 4937SOL    HW226871   4.860   7.401   4.828 -1.1472  1.4183  1.0234
 4938SOL     OW26872   1.239   5.797   3.924 -0.4879 -0.0628 -0.2299
 4938SOL    HW126873   1.330   5.756   3.927 -0.5854 -0.2241  0.9752
 4938SOL    HW226874   1.174   5.737   3.971 -1.0276  0.5053 -0.2499
 4939SOL     OW26875   9.721   1.605   4.067  0.2835  0.5884  0.0777
 4939SOL    HW126876   9.686   1.667   3.997 -0.0750  0.5816  0.2473
 4939SOL    HW226877   9.682   1.631   4.156 -1.4679 -1.1135 -0.1527
 4940SOL     OW26878   4.398   0.357   3.492 -0.4009  0.1577  0.8360
 4940SOL    HW126879   4.354   0.279   3.536 -1.3431  0.9064  1.2619
 4940SOL    HW226880   4.390   0.437   3.552  0.8385  0.5060  0.5523
 4941SOL     OW26881   9.806   5.859   5.045 -0.0213 -0.2035 -0.3600
 4941SOL    HW126882   9.730   5.916   5.076  1.8478  2.4377 -0.5330
 4941SOL    HW226883   9.810   5.776   5.101 -1.6594  0.6827  1.1128
 4942SOL     OW26884   9.345   1.050   6.422  0.2106 -0.4016 -0.0616
 4942SOL    HW126885   9.279   1.005   6.484 -0.2846 -1.3191 -1.2324
 4942SOL    HW226886   9.309   1.138   6.393 -0.3947 -0.7907 -0.5013
 4943SOL     OW26887   3.671   9.142   2.946 -0.3091 -0.2462  0.1588
 4943SOL    HW126888   3.594   9.078   2.949 -2.6026  2.4429  1.1078
 4943SOL    HW226889   3.665   9.206   3.023  1.2881  1.7961 -1.3315
 4944SOL     OW26890   3.975   2.740   6.252 -0.4765  0.4544  0.5743
 4944SOL    HW126891   3.937   2.742   6.345  1.5934  1.8946  1.4473
 4944SOL    HW226892   4.016   2.829   6.232  2.7453 -1.1293 -0.1373
 4945SOL     OW26893   9.663   0.100   9.017 -0.4526  0.0154 -0.1416
 4945SOL    HW126894   9.632   0.033   9.085  1.7503 -0.4346  0.4462
 4945SOL    HW226895   9.672   0.055   8.928 -0.8919  0.0153 -0.1901
 4946SOL     OW26896   0.682   8.524   9.705 -0.1455  0.1246 -0.2394
 4946SOL    HW126897   0.712   8.434   9.735 -0.7880  0.0909  0.3177
 4946SOL    HW226898   0.583   8.523   9.692  0.1400  0.0734 -2.5675
 4947SOL     OW26899   7.487   7.944   5.888 -0.0699 -0.0674 -0.2405
 4947SOL    HW126900   7.401   7.903   5.919 -0.2496  0.5622  0.1051
 4947SOL    HW226901   7.488   7.948   5.789  0.0827 -1.1978 -0.2843
 4948SOL     OW26902   1.795   2.922   8.962 -0.0374 -0.4497  0.1592
 4948SOL    HW126903   1.754   2.942   9.051  0.5407  0.7833  0.1507
 4948SOL    HW226904   1.815   3.007   8.914 -1.2320 -1.1199 -1.5662
 4949SOL     OW26905   1.232   4.562   7.605  0.3297  0.5931  0.1847
 4949SOL    HW126906   1.177   4.645   7.609 -0.5985 -0.0154  0.1790
 4949SOL    HW226907   1.178   4.488   7.565  1.1262 -0.0275  0.2430
 4950SOL     OW26908   0.222   1.731   5.420  0.7159  0.1904 -0.2173
 4950SOL    HW126909   0.172   1.677   5.352 -1.7621  1.3561  0.6044
 4950SOL    HW226910   0.257   1.815   5.378 -1.1063  1.0758 -0.0227
 4951SOL     OW26911   9.033   1.143   3.192 -0.1410  0.1266  0.1693
 4951SOL    HW126912   8.943   1.104   3.213 -0.0874 -0.5002 -0.7037
 4951SOL    HW226913   9.061   1.112   3.101 -0.6963  3.3063 -1.1673
 4952SOL     OW26914   7.242   0.404   6.619 -0.2284 -0.1608 -0.1803
 4952SOL    HW126915   7.307   0.470   6.580 -1.3371  1.7820  1.1975
 4952SOL    HW226916   7.154   0.413   6.572 -1.2573  1.4523  1.9729
 4953SOL     OW26917   4.259   8.596   8.272 -0.4469 -0.3515  0.5241
 4953SOL    HW126918   4.273   8.612   8.370  2.8613 -0.5368  0.1277
 4953SOL    HW226919   4.206   8.511   8.260 -0.0995 -0.8167  2.1307
 4954SOL     OW26920   0.893   5.540   2.855  0.5015  0.3607  0.1104
 4954SOL    HW126921   0.821   5.598   2.895  1.3930  0.7150  1.2243
 4954SOL    HW226922   0.974   5.595   2.838  0.1310  0.2174 -2.2742
 4955SOL     OW26923   1.535   5.239   1.969  0.3910 -0.1689  0.2126
 4955SOL    HW126924   1.467   5.268   2.036  2.0306 -0.0952  1.8642
 4955SOL    HW226925   1.519   5.288   1.883 -1.1080  0.4735  0.8376
 4956SOL     OW26926   8.325   6.363   4.497 -0.0271  0.2975  0.4896
 4956SOL    HW126927   8.378   6.336   4.578  0.5981  1.1510  0.3747
 4956SOL    HW226928   8.359   6.451   4.463 -2.3540  1.4796  1.1477
 4957SOL     OW26929   3.885   9.123   9.026 -0.2899 -0.6490 -0.6289
 4957SOL    HW126930   3.956   9.102   9.093  0.4187  1.1315 -0.8117
 4957SOL    HW226931   3.908   9.082   8.938  0.4811 -0.1317 -0.6673
 4958SOL     OW26932   9.074   9.607   5.821  0.0496 -0.9586 -0.2556
 4958SOL    HW126933   9.055   9.535   5.887 -0.3220 -1.7723 -1.2258
 4958SOL    HW226934   9.047   9.576   5.730  0.9839 -0.0424 -0.8589
 4959SOL     OW26935   3.863   4.985   2.105 -0.2512 -0.3759 -0.3938
 4959SOL    HW126936   3.866   5.023   2.198 -1.1788  0.3077 -0.6474
 4959SOL    HW226937   3.771   4.953   2.085  0.0947 -1.0951 -0.8653
 4960SOL     OW26938   4.071   8.956   7.304 -0.2612  0.9257  0.8760
 4960SOL    HW126939   3.988   8.925   7.258 -0.2049 -2.3811  2.8604
 4960SOL    HW226940   4.057   8.953   7.403  2.7732 -1.4386  1.3161
 4961SOL     OW26941   9.840   2.784   8.091 -0.7401 -0.2156  0.5214
 4961SOL    HW126942   9.842   2.794   7.991 -0.6743 -0.3993  0.5037
 4961SOL    HW226943   9.756   2.824   8.127 -0.1653  1.0247  0.5160
 4962SOL     OW26944   1.196   9.612   0.505 -0.5823  0.1294  0.2555
 4962SOL    HW126945   1.127   9.583   0.571 -1.1760 -1.4026 -1.0093
 4962SOL    HW226946   1.175   9.704   0.473  0.1150  1.2032  2.7116
 4963SOL     OW26947   8.003   9.176   3.527 -0.0168 -0.2795 -0.3256
 4963SOL    HW126948   8.088   9.142   3.488  0.8898  1.4838  0.0490
 4963SOL    HW226949   8.001   9.157   3.625  0.7575  1.2303 -0.0064
 4964SOL     OW26950   6.717   2.193   0.394 -0.2419  0.0059  0.1199
 4964SOL    HW126951   6.732   2.278   0.343 -1.1202  0.6878  0.9766
 4964SOL    HW226952   6.620   2.169   0.390 -0.7015  1.2171  3.2602
 4965SOL     OW26953   8.117   8.592   8.271 -0.5835 -0.1806 -0.0537
 4965SOL    HW126954   8.130   8.514   8.332  1.8456 -0.2642 -0.6283
 4965SOL    HW226955   8.067   8.563   8.189  1.0279 -1.3452 -0.6496
 4966SOL     OW26956   5.131   7.163   1.312  0.1929  0.1671  0.1543
 4966SOL    HW126957   5.208   7.133   1.255 -0.0224 -1.5426  0.7436
 4966SOL    HW226958   5.074   7.227   1.261 -0.1702 -1.5717 -1.6677
 4967SOL     OW26959   0.106   2.291   0.284 -0.0004 -0.2112  0.2783
 4967SOL    HW126960   0.126   2.382   0.319  2.7715 -0.3754 -0.7668
 4967SOL    HW226961   0.075   2.297   0.189 -0.9704 -0.2870  0.5823
 4968SOL     OW26962   9.317   1.760   2.917  0.5177  0.0471 -0.1983
 4968SOL    HW126963   9.299   1.705   2.999  1.3861 -0.6716 -0.4919
 4968SOL    HW226964   9.367   1.706   2.850 -0.4210  0.5452 -1.3324
 4969SOL     OW26965   9.068   6.663   5.724 -0.2032 -0.6223  0.2828
 4969SOL    HW126966   9.003   6.735   5.700 -0.5306 -0.8258  0.5557
 4969SOL    HW226967   9.138   6.700   5.785  1.7827  0.4160 -2.4923
 4970SOL     OW26968   3.293   4.504   7.420 -0.3615 -0.2356  0.4372
 4970SOL    HW126969   3.240   4.583   7.391  0.4111 -0.3655 -1.3751
 4970SOL    HW226970   3.352   4.529   7.496  0.0607  1.0037 -0.2961
 4971SOL     OW26971   3.763   0.438   5.372  0.4169  0.1475 -0.1844
 4971SOL    HW126972   3.788   0.387   5.454 -0.2985  0.3083  0.1393
 4971SOL    HW226973   3.845   0.456   5.318  1.1612  1.5926  1.3796
 4972SOL     OW26974   4.965   7.007   3.524 -0.6458 -0.5408  0.6080
 4972SOL    HW126975   5.018   7.086   3.494  0.8850 -1.5832  0.5364
 4972SOL    HW226976   4.888   7.038   3.580 -0.4135  1.0364  0.0684
 4973SOL     OW26977   4.519   1.679   5.718  0.1719 -0.0734 -0.4224
 4973SOL    HW126978   4.595   1.664   5.654  0.6373  0.0150  0.1049
 4973SOL    HW226979   4.449   1.736   5.675  1.4838  1.8223 -0.0997
 4974SOL     OW26980   2.207   5.984   8.981  0.1542 -0.8224 -0.2510
 4974SOL    HW126981   2.303   5.987   8.955  0.0636  0.8861 -0.4542
 4974SOL    HW226982   2.154   5.937   8.911  0.6020 -0.2869 -0.9555
 4975SOL     OW26983   0.995   7.985   3.562 -0.2424  0.2610 -0.4760
 4975SOL    HW126984   1.006   7.939   3.473 -0.1158 -3.0632  1.1832
 4975SOL    HW226985   1.078   8.037   3.582  0.5481 -0.6146 -1.3997
 4976SOL     OW26986   3.260   7.380   3.899 -0.6096  0.0527  0.5972
 4976SOL    HW126987   3.348   7.424   3.887 -0.7763  0.2602  0.1099
 4976SOL    HW226988   3.252   7.344   3.992 -0.6807  1.5123  1.1695
 4977SOL     OW26989   1.980   1.031   8.737 -0.1006  0.0778 -0.1187
 4977SOL    HW126990   1.967   1.033   8.836  0.5046  1.2301 -0.0450
 4977SOL    HW226991   1.898   1.068   8.692 -0.5872 -0.9433 -0.0758
 4978SOL     OW26992   3.321   4.055   2.954 -0.0560  0.3312 -0.2887
 4978SOL    HW126993   3.420   4.048   2.947 -0.0032  0.3430  0.4218
 4978SOL    HW226994   3.279   3.970   2.921  0.1972  0.2573 -0.4185
 4979SOL     OW26995   3.841   9.076   7.948 -0.1663  0.4318 -0.6986
 4979SOL    HW126996   3.904   9.009   7.909  1.7591  1.5481  0.4247
 4979SOL    HW226997   3.887   9.164   7.955 -1.9956  1.3648 -0.2054
 4980SOL     OW26998   9.506   8.324   5.854 -0.2201  0.4089  0.4149
 4980SOL    HW126999   9.432   8.302   5.919  0.3466 -1.9291  0.3190
 4980SOL    HW227000   9.507   8.256   5.781  2.2083  0.2383  0.5702
 4981SOL     OW27001   2.695   8.205   2.472  0.6751  0.1825  0.3320
 4981SOL    HW127002   2.596   8.213   2.458  0.6984 -0.7020 -0.4579
 4981SOL    HW227003   2.742   8.258   2.401  0.7721  0.0599  0.3066
 4982SOL     OW27004   3.080   7.307   5.878 -0.1362  0.0539 -0.3414
 4982SOL    HW127005   3.073   7.213   5.912  0.3365  0.1586  0.0457
 4982SOL    HW227006   3.176   7.335   5.876 -0.2083  0.2602 -1.1948
 4983SOL     OW27007   1.921   7.321   0.408  0.4658 -0.7278 -0.6962
 4983SOL    HW127008   1.920   7.349   0.312  3.7001 -0.5028 -0.7214
 4983SOL    HW227009   1.982   7.382   0.459 -0.7533 -1.2286  1.3849
 4984SOL     OW27010   2.409   7.239   7.518  0.6286  0.1210  0.2907
 4984SOL    HW127011   2.323   7.188   7.522 -0.4478  1.7540 -1.0431
 4984SOL    HW227012   2.419   7.293   7.601  1.0116 -1.0735  1.0236
 4985SOL     OW27013   8.790   6.502   5.167 -0.1490  0.0186 -0.3022
 4985SOL    HW127014   8.843   6.435   5.115  0.8090  0.3549  0.2386
 4985SOL    HW227015   8.804   6.487   5.265  1.0440  1.7660 -0.1861
 4986SOL     OW27016   6.013   6.569   8.189  0.3480 -0.1731  0.2410
 4986SOL    HW127017   5.966   6.602   8.271  0.2277  0.9936 -0.2908
 4986SOL    HW227018   5.950   6.512   8.136 -1.1882  2.9875 -1.4792
 4987SOL     OW27019   0.761   0.583   4.353  0.1259  0.2266 -0.3916
 4987SOL    HW127020   0.734   0.602   4.447  0.9290 -1.9208  0.3108
 4987SOL    HW227021   0.698   0.517   4.313  0.8339 -0.2479 -0.7422
 4988SOL     OW27022   0.504   1.840   4.119  0.0096  0.3506  0.1575
 4988SOL    HW127023   0.560   1.923   4.117  1.4037 -0.5306  1.4736
 4988SOL    HW227024   0.523   1.785   4.038  0.1862  0.6007  0.0294
 4989SOL     OW27025   0.229   0.251   8.335 -0.5926 -0.0760  0.3813
 4989SOL    HW127026   0.316   0.262   8.383  0.2688 -3.3003 -0.3603
 4989SOL    HW227027   0.154   0.281   8.395  0.9012  1.7874  1.3909
 4990SOL     OW27028   9.944   1.851   8.785  0.3608  0.1782  0.1927
 4990SOL    HW127029   9.861   1.904   8.766  0.2813  0.0536  0.1842
 4990SOL    HW227030  10.002   1.849   8.704  0.2600  0.0690  0.1210
 4991SOL     OW27031   8.182   3.044   4.221 -0.4950 -0.2691 -0.1840
 4991SOL    HW127032   8.188   2.962   4.164 -0.3490 -1.2088  1.1731
 4991SOL    HW227033   8.212   3.123   4.167  1.5622 -1.4291 -0.8141
 4992SOL     OW27034   0.566   7.753   2.843 -0.2739 -0.3365 -0.1561
 4992SOL    HW127035   0.588   7.674   2.900 -3.1285 -0.4198  0.9147
 4992SOL    HW227036   0.515   7.820   2.897  2.6239  2.5425 -0.8782
 4993SOL     OW27037   9.321   2.442   8.819  0.5961 -0.4062 -0.2339
 4993SOL    HW127038   9.259   2.365   8.833 -0.4798  0.6601  1.0017
 4993SOL    HW227039   9.387   2.446   8.894 -0.2483  0.6978  0.4646
 4994SOL     OW27040   9.997   6.506   3.467  0.1825 -0.0201 -0.2633
 4994SOL    HW127041   9.933   6.582   3.461 -0.1791 -0.4306 -1.8239
 4994SOL    HW227042  10.054   6.517   3.548 -1.7040  0.4647  1.0399
 4995SOL     OW27043   6.989   9.422   5.833  0.1249 -0.0755  0.5850
 4995SOL    HW127044   6.995   9.438   5.931  0.4881 -2.1647  0.9171
 4995SOL    HW227045   7.029   9.333   5.811  0.5894  0.6343 -1.5345
 4996SOL     OW27046   9.349   3.965   4.560  0.4748 -0.0626 -0.2150
 4996SOL    HW127047   9.440   3.956   4.520  1.0307 -0.0653  1.0139
 4996SOL    HW227048   9.351   3.932   4.655 -1.2809 -1.9590 -0.7980
 4997SOL     OW27049   0.517   4.640   4.796 -0.2322 -0.1088 -0.0851
 4997SOL    HW127050   0.498   4.656   4.893 -0.2451 -1.0216  0.0620
 4997SOL    HW227051   0.437   4.668   4.742 -0.5234 -0.3149  0.2299
 4998SOL     OW27052   7.722   5.475   9.640  0.2598  0.5018  0.1005
 4998SOL    HW127053   7.769   5.524   9.713  0.2363 -1.8143  1.7140
 4998SOL    HW227054   7.655   5.412   9.679  0.6170 -1.1504 -1.8879
 4999SOL     OW27055   3.341   2.062   7.103 -0.3592  0.4577  0.2020
 4999SOL    HW127056   3.424   2.113   7.127 -0.5948  1.1472 -0.4338
 4999SOL    HW227057   3.316   2.001   7.179  0.2118  0.9167  0.7637
 5000SOL     OW27058   2.171   6.820   7.831  0.1451 -0.5440 -0.1603
 5000SOL    HW127059   2.189   6.748   7.765 -0.8032 -1.3782  0.4742
 5000SOL    HW227060   2.075   6.815   7.861  0.8746 -1.0337  2.2484
 5001SOL     OW27061   6.052   0.286   4.507 -0.1691  0.2201 -0.3375
 5001SOL    HW127062   6.104   0.372   4.514 -0.4677  0.3467  0.3226
 5001SOL    HW227063   5.959   0.300   4.541  1.0673 -1.4688  4.1583
 5002SOL     OW27064   2.880   6.168   1.569 -0.4458  0.0229 -0.1756
 5002SOL    HW127065   2.932   6.176   1.485 -1.8456  1.6936 -0.8992
 5002SOL    HW227066   2.932   6.113   1.635  1.7310  0.7712 -1.2289
 5003SOL     OW27067   3.185   0.019   3.739 -0.0810 -0.2501  0.1225
 5003SOL    HW127068   3.144  -0.048   3.801 -1.2634  0.2664 -0.0909
 5003SOL    HW227069   3.191   0.108   3.785  0.4215 -0.2229  0.0065
 5004SOL     OW27070   8.431   8.012   5.941 -0.0709 -0.2777 -0.4472
 5004SOL    HW127071   8.385   8.047   6.022  1.0584 -0.0573  0.1020
 5004SOL    HW227072   8.376   8.033   5.860  0.8269  3.2770 -0.2085
 5005SOL     OW27073   9.403   7.127   4.707  0.4549  0.7743  0.1950
 5005SOL    HW127074   9.497   7.144   4.739  1.2232  2.3560 -2.6984
 5005SOL    HW227075   9.395   7.033   4.676  1.2590  0.7744 -0.0313
 5006SOL     OW27076   6.963   9.926   5.757 -0.0857  0.1671  0.3412
 5006SOL    HW127077   6.940   9.836   5.720 -0.3710 -0.5037  2.1109
 5006SOL    HW227078   7.016   9.915   5.841 -0.6573  1.6431  0.9109
 5007SOL     OW27079   2.043   2.089   1.898  0.4654 -0.4573 -0.1843
 5007SOL    HW127080   2.019   2.153   1.825  1.9780 -1.3817 -1.5311
 5007SOL    HW227081   2.079   2.140   1.976 -2.7415  0.6743  0.6202
 5008SOL     OW27082   0.771   6.437   5.115  0.0444  0.4292 -0.1314
 5008SOL    HW127083   0.672   6.430   5.107  0.1518 -1.5765 -0.0944
 5008SOL    HW227084   0.813   6.350   5.086  1.8221  1.4814 -0.8004
 5009SOL     OW27085   2.949   0.396   8.772 -0.1552  0.2240  0.4687
 5009SOL    HW127086   3.042   0.399   8.809 -0.4863 -0.4961  1.3656
 5009SOL    HW227087   2.890   0.456   8.825 -0.4349 -0.1229  0.5509
 5010SOL     OW27088   9.360   0.525   6.547  0.8401  0.3284  0.4195
 5010SOL    HW127089   9.324   0.521   6.454 -0.7706 -3.1853  1.1039
 5010SOL    HW227090   9.287   0.555   6.610  1.2351  0.4068  0.8448
 5011SOL     OW27091   9.041   7.202   6.908  1.0885  0.0165 -0.3063
 5011SOL    HW127092   9.030   7.289   6.956 -0.0481  0.4694 -1.3585
 5011SOL    HW227093   8.972   7.137   6.941  1.9318 -0.4978  0.4765
 5012SOL     OW27094   5.815   6.327   5.826  0.2998 -0.4061  0.6280
 5012SOL    HW127095   5.753   6.282   5.890 -0.6569  0.4936  0.3497
 5012SOL    HW227096   5.775   6.327   5.734  1.3660 -1.1000  0.1527
 5013SOL     OW27097   9.830   2.429   0.083 -0.1719 -0.0344  0.1066
 5013SOL    HW127098   9.839   2.347   0.140  2.3872  1.2641  1.6523
 5013SOL    HW227099   9.797   2.505   0.139 -1.1381  0.3588 -0.9916
 5014SOL     OW27100   7.554   7.886   2.662  0.1838 -0.2816 -0.4713
 5014SOL    HW127101   7.643   7.853   2.630  0.3713  0.2440 -0.4932
 5014SOL    HW227102   7.548   7.984   2.647 -0.4853 -0.3522 -0.6644
 5015SOL     OW27103   2.438   0.096   2.941 -0.1704  0.4440 -0.0392
 5015SOL    HW127104   2.538   0.098   2.938 -0.1223  3.3236  1.5040
 5015SOL    HW227105   2.408   0.087   3.035 -1.3532  1.1153 -0.3396
 5016SOL     OW27106   5.381   7.889   8.336 -0.4381 -0.3509 -0.1118
 5016SOL    HW127107   5.379   7.825   8.259 -0.1360 -2.0016  1.2304
 5016SOL    HW227108   5.476   7.907   8.362 -0.5823 -0.8045  0.7109
 5017SOL     OW27109   6.541   7.180   2.837  0.0820 -0.4121 -0.0542
 5017SOL    HW127110   6.580   7.267   2.868 -2.4937  0.2708  1.4946
 5017SOL    HW227111   6.480   7.197   2.760 -0.4904 -0.8232  0.3045
 5018SOL     OW27112   2.569   1.312   3.116 -0.3780  0.2386 -0.2738
 5018SOL    HW127113   2.615   1.382   3.170  2.1941 -2.5487  1.3586
 5018SOL    HW227114   2.491   1.276   3.167 -0.2347  0.2421 -0.0511
 5019SOL     OW27115   1.649   4.857   7.312 -0.3508 -0.3246 -0.2295
 5019SOL    HW127116   1.736   4.809   7.323  0.2135  1.0942  1.7309
 5019SOL    HW227117   1.575   4.803   7.354 -0.1825 -0.8133 -0.5585
 5020SOL     OW27118   8.769   9.053   5.690  0.5169 -0.2640 -0.3679
 5020SOL    HW127119   8.706   9.093   5.624 -0.2460 -1.7097 -0.5371
 5020SOL    HW227120   8.843   9.118   5.710 -0.7250  1.2458 -0.5676
 5021SOL     OW27121   8.983   1.277   7.119  0.4156 -0.4085  0.5344
 5021SOL    HW127122   9.024   1.322   7.199  0.4196  1.9750 -0.7657
 5021SOL    HW227123   8.910   1.335   7.083  0.5094 -1.4021 -1.2835
 5022SOL     OW27124   1.166   9.322   7.495  0.5453 -0.1697 -0.1464
 5022SOL    HW127125   1.202   9.237   7.534 -0.6513  0.0982  1.6276
 5022SOL    HW227126   1.229   9.397   7.513  0.2193 -0.1378  0.9410
 5023SOL     OW27127   3.865   5.826   8.463 -0.1302  0.8714 -0.4840
 5023SOL    HW127128   3.826   5.796   8.550  0.6701 -0.1457 -0.4749
 5023SOL    HW227129   3.809   5.792   8.387  0.0631  0.4170 -0.4244
 5024SOL     OW27130   1.341   7.872   5.060  0.0087 -0.0430  0.2968
 5024SOL    HW127131   1.273   7.921   5.004  0.1326  0.0532  0.2308
 5024SOL    HW227132   1.322   7.774   5.057 -1.6056  0.1815  2.2466
 5025SOL     OW27133   5.230   0.615   3.479  0.3873  0.1947 -0.1991
 5025SOL    HW127134   5.163   0.541   3.477  2.2546 -1.5354 -0.2706
 5025SOL    HW227135   5.292   0.607   3.401  1.6779  0.8143  0.7329
 5026SOL     OW27136   0.529   8.888   8.711  0.5647 -0.3434 -0.2145
 5026SOL    HW127137   0.437   8.927   8.717 -0.1966 -2.1893  0.8434
 5026SOL    HW227138   0.528   8.811   8.647  1.1496 -0.9176  0.4542
 5027SOL     OW27139   0.966   1.281   2.829 -0.1392  0.0148  0.5388
 5027SOL    HW127140   1.066   1.280   2.834 -0.1307 -1.3787  0.3666
 5027SOL    HW227141   0.928   1.294   2.921  0.2046  1.7602  0.4399
 5028SOL     OW27142   2.772   8.540   5.207  0.8189  0.4091  0.6924
 5028SOL    HW127143   2.683   8.516   5.168  0.2392  2.2614  0.8346
 5028SOL    HW227144   2.797   8.473   5.276 -0.4384 -0.1551  0.6143
 5029SOL     OW27145   0.258   2.611   6.153 -0.6221 -0.4786  0.2574
 5029SOL    HW127146   0.311   2.617   6.068  0.5729  0.2084  1.0452
 5029SOL    HW227147   0.320   2.611   6.231 -1.8370  1.8303  1.2504
 5030SOL     OW27148   4.850   8.462   9.431 -0.2687 -0.4706 -0.0344
 5030SOL    HW127149   4.895   8.373   9.436 -2.2755 -1.4307  1.3625
 5030SOL    HW227150   4.764   8.453   9.381 -1.1743  0.4006  1.3471
 5031SOL     OW27151   6.621   6.925   5.534  0.2330 -0.0046 -0.1359
 5031SOL    HW127152   6.661   6.861   5.468 -0.6891 -2.0811  1.2628
 5031SOL    HW227153   6.693   6.959   5.595  1.1184  2.0593 -2.2506
 5032SOL     OW27154   8.403   8.555   2.262 -0.2115 -0.1289  0.2097
 5032SOL    HW127155   8.325   8.493   2.259  0.2900 -0.6871 -2.0769
 5032SOL    HW227156   8.381   8.639   2.214  0.1483  0.2541  0.7043
 5033SOL     OW27157   1.550   1.543   4.134  0.6464  0.0840  0.2732
 5033SOL    HW127158   1.563   1.586   4.044  2.3403 -0.3981  0.2719
 5033SOL    HW227159   1.588   1.602   4.205 -1.4081  0.8462  0.8018
 5034SOL     OW27160   2.408   9.108   0.742 -0.1525 -0.3423  0.0384
 5034SOL    HW127161   2.462   9.183   0.782  0.3744 -0.4509 -0.4617
 5034SOL    HW227162   2.353   9.144   0.667  0.6673 -0.5834 -0.6967
 5035SOL     OW27163   4.986   6.183   9.277 -0.0186 -0.5111 -0.2785
 5035SOL    HW127164   5.086   6.186   9.289  0.0769 -1.0002 -0.9369
 5035SOL    HW227165   4.957   6.260   9.221 -0.3209  1.0690  1.9586
 5036SOL     OW27166   6.800   1.286   3.397 -0.5508 -0.4607  0.1371
 5036SOL    HW127167   6.706   1.319   3.395 -0.1671  0.6398 -0.0243
 5036SOL    HW227168   6.839   1.302   3.487 -0.5259 -0.9489  0.2140
 5037SOL     OW27169   0.817   8.293   9.829  0.5399 -0.2404  0.0489
 5037SOL    HW127170   0.756   8.292   9.908  0.6241 -0.2741  0.1135
 5037SOL    HW227171   0.906   8.329   9.856  1.1117 -1.8403  0.3584
 5038SOL     OW27172   9.330   1.189   6.822 -0.0684  0.5846 -0.5893
 5038SOL    HW127173   9.413   1.150   6.783  0.3881 -1.1923  2.0182
 5038SOL    HW227174   9.347   1.218   6.916 -1.8096  2.3345 -0.7844
 5039SOL     OW27175   1.593   6.226   8.991  0.4641  0.6494 -0.0204
 5039SOL    HW127176   1.549   6.268   9.070  0.5322  0.1056  0.3103
 5039SOL    HW227177   1.577   6.282   8.910  2.4690  2.5402  0.8304
 5040SOL     OW27178   9.548   0.320   6.150 -0.5198 -0.2284 -0.8454
 5040SOL    HW127179   9.572   0.397   6.092  0.7964 -0.7215 -0.9684
 5040SOL    HW227180   9.629   0.289   6.200 -1.3280 -0.6820  0.2156
 5041SOL     OW27181   9.148   5.611   8.600  0.1753 -0.0094 -0.1901
 5041SOL    HW127182   9.202   5.553   8.538  0.6673 -0.2828  0.4785
 5041SOL    HW227183   9.054   5.618   8.566  0.0681 -1.3346 -0.2077
 5042SOL     OW27184   4.595   7.036   8.199 -0.6773 -0.2323 -0.0098
 5042SOL    HW127185   4.640   7.024   8.110 -2.0612 -1.8541 -0.5000
 5042SOL    HW227186   4.663   7.031   8.271  0.2750 -0.2661 -0.8962
 5043SOL     OW27187   0.340   0.373   6.794  0.0484 -0.0049  0.2521
 5043SOL    HW127188   0.357   0.275   6.795 -1.6198 -0.3173 -1.0099
 5043SOL    HW227189   0.261   0.394   6.851  1.1034  0.7810  1.4867
 5044SOL     OW27190   0.797   7.770   9.381 -0.4544 -0.1837  0.3258
 5044SOL    HW127191   0.777   7.811   9.292  0.6875 -2.2329 -0.9030
 5044SOL    HW227192   0.713   7.760   9.433 -0.9376  2.4777  0.1414
 5045SOL     OW27193   9.319   6.506   9.708 -0.2320 -0.3706 -0.6809
 5045SOL    HW127194   9.236   6.459   9.678 -0.0444 -1.1253 -0.0405
 5045SOL    HW227195   9.399   6.461   9.667 -0.0984 -0.0964 -0.7218
 5046SOL     OW27196   0.823   9.870   3.399  0.6862  0.4345 -0.0005
 5046SOL    HW127197   0.830   9.806   3.476  1.7295  0.9106  0.3190
 5046SOL    HW227198   0.727   9.884   3.376  0.4232 -0.7154  0.3743
 5047SOL     OW27199   6.623   9.099   7.437  0.0843 -0.1080 -0.0262
 5047SOL    HW127200   6.601   9.011   7.394 -1.6217  0.1043  0.3989
 5047SOL    HW227201   6.540   9.154   7.445  1.3065  1.9876 -1.2380
 5048SOL     OW27202   3.309   8.246   6.468 -0.3124 -0.1197  0.1400
 5048SOL    HW127203   3.375   8.263   6.541  0.4175  2.2279 -1.0040
 5048SOL    HW227204   3.280   8.333   6.428 -0.2002 -1.3335 -2.7660
 5049SOL     OW27205   0.393   9.641   5.997 -0.1346  0.7430  0.5264
 5049SOL    HW127206   0.348   9.601   5.917 -0.9070  2.3703  0.1169
 5049SOL    HW227207   0.482   9.678   5.970 -0.2926  1.0829  0.4749
 5050SOL     OW27208   9.286   0.665   5.428 -0.1626  0.5574  0.6059
 5050SOL    HW127209   9.208   0.727   5.423  0.0042  0.8030  0.9655
 5050SOL    HW227210   9.268   0.593   5.494 -1.4122 -1.3035 -1.6949
 5051SOL     OW27211   4.559   9.875   6.064  0.1123  0.2240 -0.4724
 5051SOL    HW127212   4.489   9.806   6.051 -0.0424  0.3653 -0.3892
 5051SOL    HW227213   4.563   9.901   6.161  1.4540 -1.0316 -0.1690
 5052SOL     OW27214   6.994   2.443   3.845  0.1969  0.5200  0.0078
 5052SOL    HW127215   7.081   2.484   3.873  0.2444  1.6196 -1.6706
 5052SOL    HW227216   6.977   2.361   3.899  0.7054  2.0595  2.6051
 5053SOL     OW27217   5.289   8.257   8.864  0.5269 -0.4199  0.1836
 5053SOL    HW127218   5.236   8.186   8.818 -1.1157  1.9790 -1.7535
 5053SOL    HW227219   5.322   8.324   8.796  2.1593  0.6044  1.9256
 5054SOL     OW27220   6.304   6.325   3.709 -0.0174  0.0110 -0.0057
 5054SOL    HW127221   6.293   6.420   3.680  1.6794  0.1377 -0.2417
 5054SOL    HW227222   6.338   6.271   3.632  2.9179  0.0222  1.2207
 5055SOL     OW27223   9.484   2.151   9.584  0.1557 -0.4286 -0.2655
 5055SOL    HW127224   9.434   2.107   9.509  1.7636  0.1107 -1.6957
 5055SOL    HW227225   9.573   2.107   9.594  1.9046  2.6336 -1.8779
 5056SOL     OW27226   7.644   8.459   3.924  0.4749  0.7566 -0.0402
 5056SOL    HW127227   7.677   8.550   3.950  0.7622  0.2348  1.4457
 5056SOL    HW227228   7.698   8.389   3.971 -1.0399 -0.1558  0.3862
 5057SOL     OW27229   3.955   6.056   4.048 -0.0354 -0.6191 -0.1477
 5057SOL    HW127230   3.888   6.040   4.120  0.7333 -1.6016  0.3661
 5057SOL    HW227231   3.992   5.969   4.017  1.5046 -0.0569  0.0657
 5058SOL     OW27232   3.499   6.870   0.814 -0.0530 -0.1245 -0.5203
 5058SOL    HW127233   3.409   6.881   0.770  0.3927 -1.6024 -1.8389
 5058SOL    HW227234   3.563   6.937   0.776 -0.7619  1.4471  0.9663
 5059SOL     OW27235   9.660   2.553   8.930 -0.7574 -0.6591  0.2757
 5059SOL    HW127236   9.724   2.610   8.983 -1.6789  1.1107 -0.4708
 5059SOL    HW227237   9.711   2.500   8.863 -0.0185  0.6135 -0.1986
 5060SOL     OW27238   9.765   8.893   4.977  0.2040  1.0721  0.0209
 5060SOL    HW127239   9.771   8.913   4.879 -0.8419 -0.7540 -0.4399
 5060SOL    HW227240   9.751   8.978   5.027 -1.8255  1.7796 -1.6602
 5061SOL     OW27241   3.514   0.032   5.153 -0.4257  0.3489 -0.3949
 5061SOL    HW127242   3.554  -0.013   5.073 -0.9254  0.1696 -0.5467
 5061SOL    HW227243   3.495   0.128   5.131 -0.2798  0.3797 -0.3894
 5062SOL     OW27244   8.528   0.460   2.036 -0.1068 -0.9289 -0.0166
 5062SOL    HW127245   8.547   0.411   1.951 -0.7593  0.1736 -0.8098
 5062SOL    HW227246   8.595   0.433   2.105  1.9201 -0.0814 -1.5774
 5063SOL     OW27247   0.333   2.640   8.654 -0.2958 -0.1311  0.1615
 5063SOL    HW127248   0.366   2.649   8.560 -0.6382 -1.7699 -0.1203
 5063SOL    HW227249   0.288   2.726   8.681 -0.1093  0.3888 -1.1221
 5064SOL     OW27250   2.973   4.740   8.090 -0.0140  0.0967  0.0180
 5064SOL    HW127251   2.982   4.805   8.015 -0.6809  0.8137  0.5516
 5064SOL    HW227252   3.063   4.721   8.129 -0.0728  2.5040  1.3784
 5065SOL     OW27253   1.562   3.754   1.162  0.4016  0.0434 -0.5465
 5065SOL    HW127254   1.646   3.703   1.179 -1.2214 -2.3939  0.4452
 5065SOL    HW227255   1.509   3.761   1.246 -0.8057  0.8175 -1.3415
 5066SOL     OW27256   4.781   0.136   6.903  0.5605  0.5975  0.0542
 5066SOL    HW127257   4.754   0.111   6.810  0.2214 -1.9933  0.8046
 5066SOL    HW227258   4.875   0.168   6.903  1.9927 -3.3353 -0.6613
 5067SOL     OW27259   2.666   9.965   8.416  0.1221 -0.3298 -0.6782
 5067SOL    HW127260   2.742  10.021   8.385  0.1239 -0.5913 -1.1445
 5067SOL    HW227261   2.660   9.969   8.516  2.9083 -3.0399 -0.3138
 5068SOL     OW27262   7.999   8.898   7.067 -0.4163  0.2674 -0.2923
 5068SOL    HW127263   7.951   8.814   7.041  1.0184 -0.4205 -0.7270
 5068SOL    HW227264   8.096   8.879   7.081 -0.3838  1.4870  1.3825
 5069SOL     OW27265   9.134   1.215   8.161 -0.6583  0.2555  0.0865
 5069SOL    HW127266   9.099   1.295   8.210 -1.8979  0.2538 -0.7897
 5069SOL    HW227267   9.159   1.144   8.228 -2.0398  0.3750  0.7537
 5070SOL     OW27268   0.972   8.686   9.236 -0.1515  0.2454  0.1910
 5070SOL    HW127269   1.069   8.665   9.247 -0.2693 -1.0932 -1.0899
 5070SOL    HW227270   0.918   8.627   9.296 -0.2506 -0.1272 -0.2591
 5071SOL     OW27271   3.436   7.238   8.134  0.5724 -0.2408 -0.2594
 5071SOL    HW127272   3.521   7.261   8.182  1.1271 -0.5851 -1.0547
 5071SOL    HW227273   3.360   7.235   8.199  1.2108 -0.1446  0.4946
 5072SOL     OW27274   9.312   2.071   1.181 -0.4764  0.4210 -0.1159
 5072SOL    HW127275   9.217   2.051   1.205  0.0662 -0.7682  1.1249
 5072SOL    HW227276   9.345   2.148   1.237 -0.5746  0.5513 -0.2364
 5073SOL     OW27277   1.270   8.171   5.594  0.1038  0.0964  0.1373
 5073SOL    HW127278   1.322   8.214   5.667  2.2649 -1.1682 -0.6199
 5073SOL    HW227279   1.296   8.075   5.586 -1.1994 -0.1637 -1.3115
 5074SOL     OW27280   2.527   8.453   8.448 -0.4716  0.1946  0.2357
 5074SOL    HW127281   2.562   8.418   8.361 -1.1013  2.6425 -1.0395
 5074SOL    HW227282   2.427   8.462   8.443 -0.7193 -1.2831  1.8384
 5075SOL     OW27283   9.860   0.940   2.080  0.4795 -0.2333 -0.1001
 5075SOL    HW127284   9.801   0.934   1.999  0.4155  0.2675 -0.0944
 5075SOL    HW227285   9.931   1.008   2.064 -1.2525  2.0001  1.3245
 5076SOL     OW27286   3.535   0.964   5.150 -0.1867 -0.1271 -0.5830
 5076SOL    HW127287   3.466   1.035   5.169  0.6409  0.8356 -1.1627
 5076SOL    HW227288   3.489   0.876   5.137 -1.0650 -0.2265  2.6688
 5077SOL     OW27289   1.648   2.684   9.854 -0.5244 -0.1478 -0.2788
 5077SOL    HW127290   1.716   2.713   9.922 -1.1460  0.7341 -0.0312
 5077SOL    HW227291   1.695   2.657   9.770  0.0990  1.1425 -0.3518
 5078SOL     OW27292   9.529   8.172   6.559  0.8584 -0.5900 -0.1900
 5078SOL    HW127293   9.539   8.271   6.566  1.6816 -0.6676 -0.1741
 5078SOL    HW227294   9.515   8.133   6.650 -0.8929 -0.3528 -0.3487
 5079SOL     OW27295   0.361   6.356   0.151  0.1763 -0.1281  0.2694
 5079SOL    HW127296   0.353   6.257   0.134  0.7924 -0.2225  0.5305
 5079SOL    HW227297   0.269   6.395   0.160 -0.3450  0.1678 -4.6387
 5080SOL     OW27298   1.710   9.013   7.879  0.0741  0.1985  0.1856
 5080SOL    HW127299   1.738   9.074   7.954 -1.4588  1.3730 -0.1703
 5080SOL    HW227300   1.730   9.057   7.792 -1.3856  0.3651 -0.0722
 5081SOL     OW27301   4.671   3.653   0.666 -0.5288 -0.5109 -0.7750
 5081SOL    HW127302   4.583   3.614   0.637 -2.1205  2.3596 -0.0647
 5081SOL    HW227303   4.707   3.711   0.593  0.1652 -0.7294 -0.6031
 5082SOL     OW27304   8.035   5.902   4.609 -0.8676 -0.2310  0.7523
 5082SOL    HW127305   8.090   5.893   4.526 -0.3016  1.7377  0.8930
 5082SOL    HW227306   8.095   5.922   4.686 -1.5980 -0.0953  1.2858
 5083SOL     OW27307   3.803   5.165   5.453  0.2734  0.3242  0.3586
 5083SOL    HW127308   3.711   5.201   5.467  0.2231 -0.1158  1.1734
 5083SOL    HW227309   3.843   5.139   5.540  0.5230 -1.0423 -0.1421
 5084SOL     OW27310   7.069   0.972   6.755 -0.1224  0.3718  0.1654
 5084SOL    HW127311   7.036   0.928   6.838  0.7836 -1.3569 -0.3614
 5084SOL    HW227312   7.083   0.903   6.683  0.2145  1.6732 -1.0532
 5085SOL     OW27313   3.229   9.308   3.970  0.6873 -0.1174  0.5700
 5085SOL    HW127314   3.301   9.278   4.033  0.2608  1.5868  1.9101
 5085SOL    HW227315   3.194   9.230   3.919  2.4977 -1.1899  0.9344
 5086SOL     OW27316   2.609   9.847   9.005  0.3219  0.2597  0.3967
 5086SOL    HW127317   2.633   9.805   8.917  0.9017 -0.7494  1.0201
 5086SOL    HW227318   2.517   9.886   9.000 -0.2023 -1.0416 -0.2320
 5087SOL     OW27319   9.047   6.741   7.686 -0.1071 -0.3346 -0.1571
 5087SOL    HW127320   9.106   6.816   7.717  1.5492 -1.3564 -0.7801
 5087SOL    HW227321   9.060   6.661   7.745 -1.3910 -0.3535  0.1158
 5088SOL     OW27322   3.256   0.079   6.800  0.0232  0.3150 -0.5458
 5088SOL    HW127323   3.348   0.105   6.770  0.4137 -0.8310 -0.3659
 5088SOL    HW227324   3.208   0.035   6.724 -0.2929  0.7030 -0.5690
 5089SOL     OW27325   8.227   6.483   5.172  0.1329  0.6572  0.5019
 5089SOL    HW127326   8.322   6.476   5.140 -0.4710 -1.1948 -0.9735
 5089SOL    HW227327   8.213   6.572   5.214  1.8883  1.9011 -1.4343
 5090SOL     OW27328   2.868   9.228   6.741 -0.3622  0.5747  0.1878
 5090SOL    HW127329   2.953   9.219   6.689  0.6175 -0.1186  1.8579
 5090SOL    HW227330   2.795   9.178   6.694  0.1425  1.1946 -1.2792
 5091SOL     OW27331   9.553   1.065   8.825  0.4724 -0.6216  0.3873
 5091SOL    HW127332   9.492   1.079   8.903 -0.7575 -2.2993 -0.2693
 5091SOL    HW227333   9.648   1.066   8.858  0.0963  1.1439  1.5266
 5092SOL     OW27334   1.203   8.538   9.280 -0.0301  0.4039 -0.3161
 5092SOL    HW127335   1.206   8.458   9.221 -0.4946  0.9159 -1.0377
 5092SOL    HW227336   1.162   8.512   9.368 -0.8812  0.0267 -0.8223
 5093SOL     OW27337   7.330   0.392   4.821 -0.3077  0.0130  0.6942
 5093SOL    HW127338   7.284   0.303   4.828  0.4811 -0.3515  1.1970
 5093SOL    HW227339   7.303   0.450   4.897 -0.5376  0.0826  0.5626
 5094SOL     OW27340   4.740   7.197   8.747 -0.0325  0.1897 -0.8485
 5094SOL    HW127341   4.671   7.263   8.719 -0.0961  0.9007  0.9133
 5094SOL    HW227342   4.828   7.244   8.759  0.2755 -0.3269 -1.0593
 5095SOL     OW27343   0.172   3.667   2.199 -0.6770 -0.2791 -0.3995
 5095SOL    HW127344   0.238   3.701   2.266 -0.8195  0.5791 -0.6800
 5095SOL    HW227345   0.214   3.667   2.108 -0.6323 -1.0095 -0.3846
 5096SOL     OW27346   6.500   8.622   9.769 -0.9116  0.2882 -0.4943
 5096SOL    HW127347   6.568   8.623   9.842  0.1305 -1.8034 -1.4061
 5096SOL    HW227348   6.411   8.597   9.808 -0.6297  0.4606  0.2824
 5097SOL     OW27349   9.010   5.264   7.452  0.9168  0.1050 -0.3861
 5097SOL    HW127350   9.023   5.350   7.501 -0.0077  0.7695 -1.2884
 5097SOL    HW227351   9.043   5.188   7.509 -0.0551  0.8563  1.2348
 5098SOL     OW27352   7.853   8.689   4.941  0.9635  0.4201  0.8296
 5098SOL    HW127353   7.814   8.601   4.969 -0.9103  0.8336 -0.4022
 5098SOL    HW227354   7.886   8.682   4.846  2.2856  0.5944  1.2669
 5099SOL     OW27355   7.617   8.929   3.075  0.0089  0.1701 -0.1937
 5099SOL    HW127356   7.584   8.992   3.004  1.3734  0.1741 -0.8349
 5099SOL    HW227357   7.702   8.886   3.045  0.3820 -0.1518  1.2721
 5100SOL     OW27358   0.679   3.931   8.731  0.2200  0.0565  0.1521
 5100SOL    HW127359   0.650   3.908   8.638 -0.2357 -0.3304  0.3895
 5100SOL    HW227360   0.773   3.966   8.728  0.4479 -0.5811 -0.3760
 5101SOL     OW27361   3.838   8.397   5.098  0.0135 -0.1459 -0.4763
 5101SOL    HW127362   3.786   8.344   5.031 -1.4463  0.6453 -0.0044
 5101SOL    HW227363   3.935   8.374   5.092 -0.8304 -4.5431  1.2340
 5102SOL     OW27364   0.865   8.440   6.560 -0.0174  0.4786 -0.2582
 5102SOL    HW127365   0.828   8.374   6.495 -0.8817  0.2960  0.4046
 5102SOL    HW227366   0.954   8.408   6.593  0.4957  0.6515 -1.4532
 5103SOL     OW27367   5.664   0.813   6.047  0.2476 -0.2230  0.5113
 5103SOL    HW127368   5.572   0.841   6.019 -0.3631 -1.4308  1.2682
 5103SOL    HW227369   5.660   0.776   6.140  1.7205  0.8837  1.0434
 5104SOL     OW27370   9.365   9.224   7.313 -0.2690 -0.2978  0.0953
 5104SOL    HW127371   9.364   9.145   7.252  1.2540 -0.1353 -0.1694
 5104SOL    HW227372   9.442   9.216   7.376  0.9108  1.7612 -1.0133
 5105SOL     OW27373   1.381   4.787   8.261  0.3254  0.0549  0.0938
 5105SOL    HW127374   1.402   4.757   8.354 -0.5378  1.2235  0.6776
 5105SOL    HW227375   1.424   4.725   8.196  0.1471 -1.3365  1.2642
 5106SOL     OW27376   9.657   7.139   4.819 -0.1468  0.4867 -0.1998
 5106SOL    HW127377   9.723   7.086   4.766  1.8532  0.4686  2.2574
 5106SOL    HW227378   9.634   7.089   4.902 -1.9152  1.3316 -0.1630
 5107SOL     OW27379   2.903   2.043   8.083 -0.7228 -0.1771  0.2560
 5107SOL    HW127380   2.973   2.004   8.142  0.3363 -2.7003 -2.5767
 5107SOL    HW227381   2.819   1.989   8.091 -1.1786  0.6184  0.8729
 5108SOL     OW27382   9.208   0.729   7.402  0.2192  0.7494  0.5227
 5108SOL    HW127383   9.150   0.655   7.369  0.1662  0.2380  1.7288
 5108SOL    HW227384   9.291   0.735   7.346  0.8645 -1.1109  1.2469
 5109SOL     OW27385   1.107   9.984   6.420  0.4084  0.6116  0.4555
 5109SOL    HW127386   1.042  10.042   6.372  0.2570  0.5533  0.5909
 5109SOL    HW227387   1.200  10.009   6.393  0.3427  0.8907  0.4866
 5110SOL     OW27388   1.937   1.557   1.561 -0.0154  0.3688 -0.0918
 5110SOL    HW127389   1.891   1.646   1.551 -0.2446  0.4435  1.5438
 5110SOL    HW227390   2.032   1.566   1.531 -0.2979  0.9183 -0.8517
 5111SOL     OW27391   6.249   8.163   1.442  0.2448 -0.2826  0.2842
 5111SOL    HW127392   6.245   8.164   1.542 -0.4025 -2.7714  0.3170
 5111SOL    HW227393   6.157   8.155   1.405  0.5501 -0.2087 -0.5015
 5112SOL     OW27394   3.516   0.805   7.030 -0.5474  0.4377 -0.1717
 5112SOL    HW127395   3.444   0.857   6.983 -0.4259 -0.3542 -1.2413
 5112SOL    HW227396   3.487   0.788   7.125 -1.5344  0.6005 -0.4316
 5113SOL     OW27397   0.267   9.675   5.212  0.4510 -0.7335  0.1950
 5113SOL    HW127398   0.229   9.766   5.193 -2.5433 -2.0736 -0.5172
 5113SOL    HW227399   0.307   9.674   5.304  1.4987  1.5794 -0.2045
 5114SOL     OW27400   3.229   9.861   7.406 -0.4021  0.0183 -0.7368
 5114SOL    HW127401   3.194   9.832   7.318 -1.4577  0.2435 -0.4024
 5114SOL    HW227402   3.260   9.781   7.458  0.5284 -0.0786 -1.4342
 5115SOL     OW27403   4.885   0.612   2.062 -0.2681  0.4847  0.7885
 5115SOL    HW127404   4.909   0.664   1.979 -2.5226  2.2273  1.1966
 5115SOL    HW227405   4.807   0.553   2.043  1.0874 -1.3740  0.8717
 5116SOL     OW27406   2.638   4.742   5.768 -1.2292  0.2582 -0.5712
 5116SOL    HW127407   2.714   4.740   5.704 -0.6952 -1.8465  0.0785
 5116SOL    HW227408   2.568   4.677   5.739 -0.4800 -1.5715  1.5210
 5117SOL     OW27409   0.614   5.917   4.730 -0.3646  0.2652  0.4268
 5117SOL    HW127410   0.704   5.876   4.746  0.1117  1.2210  0.2169
 5117SOL    HW227411   0.624   6.016   4.720 -1.5825  0.4937  1.4514
 5118SOL     OW27412   9.420   8.144   9.913 -0.0648  0.6514  0.3549
 5118SOL    HW127413   9.487   8.082   9.872  0.4099  2.1606 -1.2499
 5118SOL    HW227414   9.458   8.237   9.914 -1.6850  1.3245  0.4944
 5119SOL     OW27415   2.027   8.752   4.386 -0.1435 -0.2641  0.3719
 5119SOL    HW127416   2.118   8.784   4.359 -0.0702  0.1460  1.0996
 5119SOL    HW227417   2.029   8.723   4.482 -0.8463  0.0108  0.4731
 5120SOL     OW27418   8.532   4.013   5.599 -0.1825  0.0861  0.2594
 5120SOL    HW127419   8.519   3.927   5.549  0.5609 -0.3933  0.8970
 5120SOL    HW227420   8.479   4.085   5.554 -2.6832 -1.1807  1.0403
 5121SOL     OW27421   2.385   2.269   4.798 -0.5238 -0.4854 -0.2069
 5121SOL    HW127422   2.301   2.313   4.767 -0.7983 -0.9253 -0.0989
 5121SOL    HW227423   2.441   2.244   4.719  0.7301  2.1641 -0.1816
 5122SOL     OW27424   0.598   5.813   9.092  0.0903 -0.2801  0.6360
 5122SOL    HW127425   0.689   5.803   9.051 -0.1918  0.9603 -0.3072
 5122SOL    HW227426   0.543   5.876   9.038 -1.0868 -0.4239  1.6299
 5123SOL     OW27427   0.388   8.326   3.721  0.5282  0.1559 -0.4631
 5123SOL    HW127428   0.343   8.412   3.696  0.0639  0.1076  0.1933
 5123SOL    HW227429   0.355   8.296   3.810  1.7000  0.0042 -0.0754
 5124SOL     OW27430   7.681   9.530   3.353 -0.1367 -0.1501  0.0380
 5124SOL    HW127431   7.772   9.525   3.394  0.9805 -0.5312 -2.3500
 5124SOL    HW227432   7.672   9.459   3.283 -3.3586 -1.9947  2.1958
 5125SOL     OW27433   3.030   9.832   4.598  0.4144  0.6331 -0.0279
 5125SOL    HW127434   3.060   9.766   4.666 -1.3945 -1.3657 -1.1154
 5125SOL    HW227435   3.106   9.855   4.537  0.8411 -1.1051 -0.1596
 5126SOL     OW27436   9.721   8.786   6.675 -0.1530 -0.3656 -0.5334
 5126SOL    HW127437   9.669   8.733   6.608  1.0849 -2.4908  0.1445
 5126SOL    HW227438   9.665   8.802   6.756 -0.7925  0.0232 -1.0486
 5127SOL     OW27439   2.899   3.953   1.157 -0.6368  0.3939 -0.7868
 5127SOL    HW127440   2.861   3.955   1.249 -0.6739  0.2346 -0.7985
 5127SOL    HW227441   2.833   3.911   1.094 -1.1086  1.6173 -1.1137
 5128SOL     OW27442   1.622   5.554   8.176 -0.6061 -0.1649  0.1173
 5128SOL    HW127443   1.694   5.554   8.107 -0.2810  0.6210  0.4460
 5128SOL    HW227444   1.600   5.460   8.202  0.5000 -0.4003  0.2182
 5129SOL     OW27445   1.941   3.261   0.418  0.3651  0.3349  0.2744
 5129SOL    HW127446   1.918   3.220   0.330 -0.0863 -0.8865  0.9463
 5129SOL    HW227447   1.970   3.356   0.404  0.8485 -0.0148 -1.2443
 5130SOL     OW27448   1.855   5.564   5.814 -0.0734 -0.0979  0.2767
 5130SOL    HW127449   1.844   5.550   5.716 -0.6737 -0.6596  0.4232
 5130SOL    HW227450   1.796   5.639   5.844 -0.5292 -0.4977  0.3659
 5131SOL     OW27451   2.859   0.048   4.541  0.2411  0.2209 -0.2035
 5131SOL    HW127452   2.790   0.030   4.471 -0.3415 -0.1958  0.4641
 5131SOL    HW227453   2.904  -0.038   4.566  0.7341  0.4320 -0.3558
 5132SOL     OW27454   5.245   9.623   6.869 -0.5928  0.1723 -0.1632
 5132SOL    HW127455   5.291   9.675   6.941  1.4688 -0.7623 -0.7485
 5132SOL    HW227456   5.263   9.525   6.883  0.8383  0.0605 -2.5869
 5133SOL     OW27457   8.803   9.088   7.420  0.3627 -0.4931 -0.2287
 5133SOL    HW127458   8.854   9.027   7.360  0.1655  1.8168 -2.8368
 5133SOL    HW227459   8.848   9.178   7.422 -0.8805  0.1225  1.3432
 5134SOL     OW27460   0.259   6.575   7.638 -0.0865  0.1295  0.2153
 5134SOL    HW127461   0.302   6.491   7.672 -0.3554 -1.0987 -2.4118
 5134SOL    HW227462   0.162   6.559   7.622 -0.2955  1.1712  0.4079
 5135SOL     OW27463   1.587   5.641   5.451 -0.6184 -0.4716 -0.0998
 5135SOL    HW127464   1.625   5.640   5.359 -1.3387 -0.9108 -0.3966
 5135SOL    HW227465   1.611   5.557   5.499  0.4247  0.1055  0.3905
 5136SOL     OW27466   6.145   8.346   7.052  0.3426  0.3741  0.1781
 5136SOL    HW127467   6.122   8.253   7.084 -1.1808  0.8786  0.6065
 5136SOL    HW227468   6.112   8.358   6.959  2.2311 -0.1286 -0.5777
 5137SOL     OW27469   7.621   2.189   9.392 -0.2853  0.3360  0.1781
 5137SOL    HW127470   7.589   2.264   9.335  0.4845  1.6028  1.4013
 5137SOL    HW227471   7.713   2.163   9.364  0.3257  1.3546  1.2157
 5138SOL     OW27472   2.896   7.037   8.791  0.2255  0.5062  0.6835
 5138SOL    HW127473   2.910   7.121   8.738  2.2756  1.2532  2.3598
 5138SOL    HW227474   2.935   6.959   8.742  0.4736  0.9084  0.2439
 5139SOL     OW27475   1.548   3.810   5.872  0.2578 -0.1991  0.2070
 5139SOL    HW127476   1.466   3.756   5.854  0.8858 -0.7992 -0.8941
 5139SOL    HW227477   1.564   3.814   5.971 -0.4920 -0.9618  0.3665
 5140SOL     OW27478   9.122   2.430   4.567  0.2882 -0.4664 -0.0984
 5140SOL    HW127479   9.188   2.425   4.641  1.2705  0.7395 -0.8788
 5140SOL    HW227480   9.092   2.337   4.542 -0.1305 -0.8629  1.8523
 5141SOL     OW27481   8.510   1.133   1.288  0.2148  0.4592  0.1672
 5141SOL    HW127482   8.473   1.198   1.222  4.1522  0.9067 -1.7937
 5141SOL    HW227483   8.457   1.048   1.285 -0.4546  0.9150 -2.7047
 5142SOL     OW27484   9.846   9.294   0.491 -0.2371  0.7428  0.0663
 5142SOL    HW127485   9.763   9.343   0.464 -0.7199 -0.3320 -0.4177
 5142SOL    HW227486   9.897   9.266   0.410 -0.5148 -0.4929  0.3073
 5143SOL     OW27487   0.211   8.635   5.374  0.0604  0.0042  0.1242
 5143SOL    HW127488   0.288   8.638   5.311 -1.5630 -1.3552 -1.9985
 5143SOL    HW227489   0.154   8.717   5.361  0.7654  0.6847  1.2303
 5144SOL     OW27490   6.953   0.020   8.381  0.4961 -0.1756 -0.2167
 5144SOL    HW127491   6.962   0.004   8.282 -0.4056 -0.4359 -0.2613
 5144SOL    HW227492   7.042   0.006   8.425  0.4256 -2.2139 -0.6915
 5145SOL     OW27493   2.762   8.522   8.710 -0.6048 -0.0185  0.3403
 5145SOL    HW127494   2.690   8.495   8.646  0.0810 -0.8842 -0.0789
 5145SOL    HW227495   2.769   8.454   8.783  1.5998 -1.4236 -1.0985
 5146SOL     OW27496   3.400   9.255   3.126  0.3488  0.0160 -0.2881
 5146SOL    HW127497   3.358   9.247   3.036 -0.0667 -0.9892 -0.0034
 5146SOL    HW227498   3.332   9.287   3.192  0.1239 -1.2266  0.0911
 5147SOL     OW27499   6.446   9.059   0.678 -0.7804 -0.2075  0.4612
 5147SOL    HW127500   6.422   8.968   0.712 -0.1973  0.0366  1.5638
 5147SOL    HW227501   6.369   9.121   0.693 -1.4395 -0.6717 -0.9311
 5148SOL     OW27502   5.778   0.226   7.513 -0.3401  0.0638  0.5614
 5148SOL    HW127503   5.691   0.244   7.558 -1.3666  0.4638 -1.5112
 5148SOL    HW227504   5.766   0.157   7.442  0.9606  0.3679  0.0227
 5149SOL     OW27505   2.683   8.279   9.306  0.0341 -0.2243  0.0665
 5149SOL    HW127506   2.584   8.286   9.312 -0.0735 -1.5696 -0.1349
 5149SOL    HW227507   2.714   8.198   9.355  0.8430 -1.0281 -1.7484
 5150SOL     OW27508   0.604   0.777   8.860 -0.2742  0.0425  0.1310
 5150SOL    HW127509   0.576   0.863   8.819  1.0921  1.3700  1.8718
 5150SOL    HW227510   0.664   0.796   8.939  1.7781 -2.5311 -0.7409
 5151SOL     OW27511   1.855   5.509   7.257  0.3398 -0.0791  0.4664
 5151SOL    HW127512   1.776   5.551   7.302  0.2405  1.2914 -0.9587
 5151SOL    HW227513   1.836   5.412   7.241 -1.6705  0.5194 -1.1189
 5152SOL     OW27514   1.593   8.007   2.570  0.2515  0.2079  0.2276
 5152SOL    HW127515   1.509   7.967   2.606  0.3675 -0.2033  0.0431
 5152SOL    HW227516   1.636   7.942   2.507 -0.2161  1.1320 -1.0527
 5153SOL     OW27517   1.541   8.703   8.050 -0.3992  0.6850 -0.1332
 5153SOL    HW127518   1.626   8.722   8.001 -0.5582 -0.5058 -0.8838
 5153SOL    HW227519   1.545   8.744   8.142  1.8411 -1.1828  0.6372
 5154SOL     OW27520   7.831   7.693   0.175  0.4609 -0.6230  0.5851
 5154SOL    HW127521   7.910   7.656   0.225  0.2866 -0.0227  1.3037
 5154SOL    HW227522   7.839   7.668   0.078  1.7626 -0.1977  0.5670
 5155SOL     OW27523   2.448   9.391   7.399  0.0726 -0.0994 -0.1967
 5155SOL    HW127524   2.533   9.355   7.436 -0.5659 -0.0589  1.3682
 5155SOL    HW227525   2.379   9.318   7.398 -1.1156  0.9062  2.6215
 5156SOL     OW27526   7.308   0.146   5.210 -0.0933  0.6083  0.4794
 5156SOL    HW127527   7.357   0.120   5.293 -0.1749 -0.6984  0.1179
 5156SOL    HW227528   7.350   0.228   5.171  1.4555 -0.1632  0.4828
 5157SOL     OW27529   8.092   3.326   7.001  0.4092 -0.9815  0.1648
 5157SOL    HW127530   8.049   3.416   6.991  1.5858 -0.6705 -2.4442
 5157SOL    HW227531   8.139   3.322   7.089  0.0800  0.8565  0.4505
 5158SOL     OW27532   2.347   9.980   9.049 -0.2480  0.4309 -0.0683
 5158SOL    HW127533   2.336   9.931   9.135 -1.0043 -0.7926 -0.8357
 5158SOL    HW227534   2.262   9.976   8.997  0.2355  1.0488 -0.9247
 5159SOL     OW27535   0.924   0.219   9.336  0.3892 -0.2770  0.3885
 5159SOL    HW127536   0.876   0.238   9.422 -0.5525  1.1193 -0.4289
 5159SOL    HW227537   1.023   0.224   9.351  0.2637 -1.3725  1.6834
 5160SOL     OW27538   4.978   5.560   4.708  0.3659 -0.1809  0.0211
 5160SOL    HW127539   5.022   5.601   4.787 -0.7705  0.2169  0.4501
 5160SOL    HW227540   4.880   5.550   4.725  0.6741 -3.6197  0.1837
 5161SOL     OW27541   0.638   5.163   8.915 -0.2362 -0.3263  0.0086
 5161SOL    HW127542   0.678   5.243   8.958 -1.4032  0.9674 -1.2490
 5161SOL    HW227543   0.707   5.116   8.859  0.4210 -0.1436  0.6674
 5162SOL     OW27544   4.520   3.292   6.977  0.8261  0.1526 -0.2904
 5162SOL    HW127545   4.536   3.262   7.071  0.3021  0.5183 -0.0781
 5162SOL    HW227546   4.433   3.341   6.973 -0.0837 -1.5293 -1.3476
 5163SOL     OW27547   2.341   6.692   9.655 -0.2363 -0.1701 -0.5747
 5163SOL    HW127548   2.266   6.715   9.717 -1.2968 -0.0937 -1.8633
 5163SOL    HW227549   2.331   6.744   9.570  1.9504  0.7371 -0.3040
 5164SOL     OW27550   7.925   8.233   3.877 -0.3157  0.1504  0.0409
 5164SOL    HW127551   7.948   8.326   3.906  1.7517  0.6228 -2.8749
 5164SOL    HW227552   7.911   8.231   3.778 -0.4905 -2.6163  0.0784
 5165SOL     OW27553   3.103   2.247   2.735  0.3539 -0.9024 -0.0973
 5165SOL    HW127554   3.170   2.310   2.773 -1.3398  0.4202  0.7302
 5165SOL    HW227555   3.084   2.271   2.640 -0.7364  0.2254  0.3971
 5166SOL     OW27556   5.556   6.576   7.048  0.4912  0.7159 -0.0868
 5166SOL    HW127557   5.477   6.636   7.037  0.8382  1.0815 -0.5649
 5166SOL    HW227558   5.608   6.604   7.129 -0.0086  0.3138  0.3789
 5167SOL     OW27559   3.732   0.390   6.426 -0.4002 -0.4815 -0.1678
 5167SOL    HW127560   3.668   0.419   6.498  0.8616 -1.2822  1.3198
 5167SOL    HW227561   3.757   0.469   6.370 -2.5131 -0.1169 -0.6579
 5168SOL     OW27562   3.554   7.978   6.766  0.0803 -0.4383  0.1320
 5168SOL    HW127563   3.568   7.970   6.667  0.9867 -1.3500  0.3307
 5168SOL    HW227564   3.547   8.075   6.790 -2.0129 -0.2632 -1.0663
 5169SOL     OW27565   1.136   6.777   6.567  0.2771  0.1526  0.0157
 5169SOL    HW127566   1.228   6.745   6.545  0.3230  0.1087  0.2665
 5169SOL    HW227567   1.112   6.855   6.509  0.1438 -0.3779 -0.6431
 5170SOL     OW27568   0.251   5.783   9.529  0.3668 -0.2105 -0.3310
 5170SOL    HW127569   0.181   5.835   9.578 -0.4171 -0.2048 -1.4426
 5170SOL    HW227570   0.339   5.796   9.574 -0.1611  0.6009  0.4881
 5171SOL     OW27571   1.610   9.007   5.369  0.1973 -0.1278  0.1924
 5171SOL    HW127572   1.694   8.983   5.418  0.7852  0.5954 -0.4522
 5171SOL    HW227573   1.612   8.964   5.278 -0.2828 -0.3815  0.3031
 5172SOL     OW27574   3.187   9.007   2.981 -0.4373  0.0537 -0.5438
 5172SOL    HW127575   3.139   9.082   3.026  0.3618 -0.0471  0.5176
 5172SOL    HW227576   3.124   8.957   2.921 -1.3049  0.7462 -0.2150
 5173SOL     OW27577   0.325   7.263   2.688  0.7072  0.0327 -0.0250
 5173SOL    HW127578   0.378   7.345   2.712 -0.3926  0.8240 -0.2220
 5173SOL    HW227579   0.228   7.287   2.684  0.6219 -0.6428 -2.9041
 5174SOL     OW27580   1.914   5.429   8.617 -0.1116 -0.3708 -0.3872
 5174SOL    HW127581   2.008   5.409   8.590  0.2725  1.6070 -0.5731
 5174SOL    HW227582   1.909   5.440   8.716  0.1216  0.8574 -0.5062
 5175SOL     OW27583   8.522   8.779   7.591  0.2790  0.5553 -0.2965
 5175SOL    HW127584   8.486   8.868   7.562 -0.6742  0.5073  0.6958
 5175SOL    HW227585   8.450   8.710   7.581  1.3944 -0.3646 -2.2653
 5176SOL     OW27586   9.692   0.669   4.367  0.3026  0.2649 -0.2082
 5176SOL    HW127587   9.723   0.586   4.322  0.2525 -0.5767  1.2614
 5176SOL    HW227588   9.747   0.685   4.449  0.4892  1.8290 -0.6312
 5177SOL     OW27589   0.749   0.907   5.959 -0.4206 -0.0273 -0.9318
 5177SOL    HW127590   0.756   0.807   5.949 -2.6560 -0.1565 -1.4767
 5177SOL    HW227591   0.830   0.950   5.920  0.1732 -1.5949 -1.4713
 5178SOL     OW27592   4.305   8.063   3.536 -0.0767  0.4924  0.1906
 5178SOL    HW127593   4.395   8.027   3.511  0.6004  1.3570  1.2966
 5178SOL    HW227594   4.302   8.161   3.516 -0.7968  0.4526  0.0991
 5179SOL     OW27595   8.702   7.574   8.647 -1.3628  0.1475 -0.5187
 5179SOL    HW127596   8.654   7.616   8.724 -2.9044  0.0009 -1.3666
 5179SOL    HW227597   8.665   7.610   8.561  2.5899  2.7766 -1.2167
 5180SOL     OW27598   9.922   7.287   7.748 -0.0023 -0.5532  0.6754
 5180SOL    HW127599   9.935   7.376   7.791 -1.0504  0.5706 -1.2743
 5180SOL    HW227600   9.888   7.222   7.816 -0.1967  0.7863  1.8889
 5181SOL     OW27601   9.800   6.539   6.292 -0.0741 -0.0048 -0.5755
 5181SOL    HW127602   9.899   6.526   6.297 -0.0433  0.4245  0.0538
 5181SOL    HW227603   9.760   6.471   6.230  0.4265 -1.1940  0.3864
 5182SOL     OW27604   6.771   5.100   5.277 -0.2918 -0.3295  0.5205
 5182SOL    HW127605   6.704   5.096   5.202  0.3567  1.5485 -0.2099
 5182SOL    HW227606   6.724   5.092   5.365 -1.0194 -3.0018 -0.0749
 5183SOL     OW27607   0.176   0.509   2.820  0.0215  0.4487 -0.3786
 5183SOL    HW127608   0.224   0.477   2.738 -0.1340  2.1740 -1.1627
 5183SOL    HW227609   0.089   0.461   2.829  0.7126 -0.8321 -0.3736
 5184SOL     OW27610   0.727   8.909   2.486 -0.8857  0.0897 -0.2835
 5184SOL    HW127611   0.691   8.816   2.492 -0.5508  0.0130  0.6174
 5184SOL    HW227612   0.665   8.965   2.431 -1.0152 -0.7024 -0.9517
 5185SOL     OW27613   0.388   0.535   9.588 -0.1988 -0.4670 -0.0133
 5185SOL    HW127614   0.454   0.463   9.565  1.0806  0.6669 -0.0184
 5185SOL    HW227615   0.295   0.501   9.576  0.3634 -2.6039  1.5322
 5186SOL     OW27616   2.142   8.104   2.539  0.0598 -0.3321  0.1029
 5186SOL    HW127617   2.062   8.102   2.600 -1.3943 -1.4520 -1.7742
 5186SOL    HW227618   2.208   8.171   2.573 -1.3965  0.1796  2.0405
 5187SOL     OW27619   4.272   8.079   1.411 -0.1183 -0.4297 -0.4973
 5187SOL    HW127620   4.281   8.145   1.336  0.8165 -4.0236 -3.7545
 5187SOL    HW227621   4.184   8.032   1.403  0.3806 -1.4772  0.0874
 5188SOL     OW27622   2.955   1.745   0.955 -0.3942  0.4368  0.4667
 5188SOL    HW127623   2.957   1.831   0.904 -1.2536  0.9869  1.3373
 5188SOL    HW227624   2.943   1.765   1.052 -1.0498 -0.6762  0.6207
 5189SOL     OW27625   4.187   4.838   0.372 -0.2184 -0.2104  0.8437
 5189SOL    HW127626   4.194   4.918   0.313  0.2229  1.5466  3.1917
 5189SOL    HW227627   4.261   4.774   0.352 -0.4833  0.0248 -0.9456
 5190SOL     OW27628   8.883   9.715   8.367 -1.1703  0.1725 -0.1042
 5190SOL    HW127629   8.935   9.696   8.450 -1.1265 -1.4457 -0.4934
 5190SOL    HW227630   8.879   9.814   8.353  1.5493  0.3689  0.1079
 5191SOL     OW27631   2.081   9.696   5.812 -0.3523  0.0297 -0.6670
 5191SOL    HW127632   2.064   9.742   5.724  1.0708  3.2093  0.6256
 5191SOL    HW227633   2.012   9.724   5.878  0.5686  0.3954  0.1634
 5192SOL     OW27634   4.489   9.387   8.515 -0.2760  0.0615 -0.5677
 5192SOL    HW127635   4.523   9.476   8.547 -1.0771  0.1108  0.1916
 5192SOL    HW227636   4.502   9.319   8.588 -1.5293  0.0249 -0.3680
 5193SOL     OW27637   0.160   6.786   9.456  0.3367 -0.1341 -0.2570
 5193SOL    HW127638   0.250   6.825   9.438  0.6800 -1.5677 -1.7899
 5193SOL    HW227639   0.170   6.689   9.478 -0.7723 -0.1386  0.2527
 5194SOL     OW27640   9.691   5.267   8.397  0.3369 -0.2144 -0.1979
 5194SOL    HW127641   9.628   5.192   8.416 -1.1298  0.9593 -0.2784
 5194SOL    HW227642   9.749   5.284   8.477 -0.0970 -0.7028  0.2205
 5195SOL     OW27643   7.763   8.388   0.599  0.4118  0.2893 -0.5129
 5195SOL    HW127644   7.818   8.471   0.597  0.3432  0.5559  3.4432
 5195SOL    HW227645   7.667   8.412   0.611  0.1297 -0.3234 -1.5043
 5196SOL     OW27646   9.857   1.453   6.692  0.1481  0.0071  0.2368
 5196SOL    HW127647   9.864   1.390   6.616  0.9014  1.2094 -0.7206
 5196SOL    HW227648   9.940   1.448   6.747  0.6388  0.8642 -0.4124
 5197SOL     OW27649   4.482   9.826   1.791  0.4651 -0.7660 -0.0757
 5197SOL    HW127650   4.407   9.775   1.747  0.7077 -0.4487 -0.8708
 5197SOL    HW227651   4.478   9.812   1.890 -1.2742  0.0521  0.0021
 5198SOL     OW27652   3.486   9.453   5.862 -0.5785  0.7846  0.1833
 5198SOL    HW127653   3.579   9.483   5.841  0.4452 -1.3109  1.4988
 5198SOL    HW227654   3.453   9.393   5.789  0.0068 -0.2759  0.7628
 5199SOL     OW27655   0.856   1.645   2.300  0.3638 -0.0188 -0.5148
 5199SOL    HW127656   0.890   1.600   2.217  0.7261  0.7473 -0.7854
 5199SOL    HW227657   0.759   1.625   2.311  0.5362 -0.9304 -0.5908
 5200SOL     OW27658   1.054   8.684   8.704  0.2207  0.0324  0.6190
 5200SOL    HW127659   1.025   8.593   8.675 -0.0346 -0.5722  2.7096
 5200SOL    HW227660   0.994   8.753   8.662 -0.8605 -0.8825  0.6401
 5201SOL     OW27661   9.042   7.019   5.166 -0.8760 -0.1579  0.0362
 5201SOL    HW127662   9.004   6.981   5.251  0.8405 -2.1533 -0.0455
 5201SOL    HW227663   9.121   7.076   5.188  0.2540 -1.5793 -0.2856
 5202SOL     OW27664   4.695   6.354   6.577  0.2568 -0.1510 -0.2923
 5202SOL    HW127665   4.747   6.309   6.504  0.4934 -1.7715  0.8481
 5202SOL    HW227666   4.746   6.345   6.663  0.7760  3.1463 -0.2000
 5203SOL     OW27667   5.580   7.858   0.311 -0.1974 -0.2130 -0.1012
 5203SOL    HW127668   5.557   7.940   0.259 -0.3218 -0.1499  0.0494
 5203SOL    HW227669   5.510   7.843   0.381  0.5367  0.3273  0.7704
 5204SOL     OW27670   5.625   4.349   9.217  0.1137  0.5037 -0.2642
 5204SOL    HW127671   5.649   4.418   9.149 -0.5439  1.7853  0.7648
 5204SOL    HW227672   5.549   4.383   9.273 -1.0837 -1.6069 -0.5713
 5205SOL     OW27673   3.861   5.059   7.242  0.2015 -0.0334  0.0599
 5205SOL    HW127674   3.844   5.065   7.341  0.7164 -2.4162  0.3213
 5205SOL    HW227675   3.923   5.133   7.215 -0.8008  1.2973  1.3176
 5206SOL     OW27676   9.056   8.644   9.574 -0.6761 -0.5862  0.8140
 5206SOL    HW127677   9.066   8.612   9.668 -0.3241 -1.1991  0.5727
 5206SOL    HW227678   9.044   8.565   9.513 -1.9139 -0.1378  0.4640
 5207SOL     OW27679   1.276   3.418   6.153 -0.3516  0.4063  0.3990
 5207SOL    HW127680   1.193   3.460   6.189 -0.8228 -0.7140  0.6544
 5207SOL    HW227681   1.255   3.326   6.120  0.6623  0.3497 -0.1049
 5208SOL     OW27682   0.187   0.677   6.252  0.1797 -0.6025 -0.5067
 5208SOL    HW127683   0.106   0.630   6.217 -0.6341  0.4316 -0.0406
 5208SOL    HW227684   0.183   0.773   6.226  0.0010 -0.0099  1.6246
 5209SOL     OW27685   4.185   8.653   5.215 -0.2893  0.0062  0.9703
 5209SOL    HW127686   4.213   8.686   5.125  0.1662  1.4407  1.6136
 5209SOL    HW227687   4.091   8.619   5.211 -0.2643  0.0412 -0.0437
 5210SOL     OW27688   0.175   8.284   0.768 -0.5632 -0.3845  0.0325
 5210SOL    HW127689   0.127   8.323   0.846  0.2707 -0.3975  0.5596
 5210SOL    HW227690   0.200   8.189   0.789 -0.9903 -0.6225 -0.5400
 5211SOL     OW27691   6.250   2.030   8.218  0.0217 -0.5270 -0.3247
 5211SOL    HW127692   6.238   2.123   8.253  2.2797 -0.1293 -0.5536
 5211SOL    HW227693   6.228   1.965   8.290  0.7033  0.2299  0.5843
 5212SOL     OW27694   2.455   4.142   9.665 -0.0913  0.2976 -0.5482
 5212SOL    HW127695   2.488   4.105   9.579  1.7897 -0.5579  0.5217
 5212SOL    HW227696   2.517   4.214   9.697  0.0642 -0.4407  0.8489
 5213SOL     OW27697   1.037   7.966   0.893  0.2169 -0.2327 -0.2181
 5213SOL    HW127698   1.080   8.056   0.895  2.1401 -1.1406 -0.0251
 5213SOL    HW227699   1.077   7.912   0.819  0.4992 -1.6412  0.9565
 5214SOL     OW27700   4.818   6.784   0.322 -0.2932 -0.0250 -0.2790
 5214SOL    HW127701   4.914   6.755   0.324 -0.5649 -1.2062 -2.7669
 5214SOL    HW227702   4.799   6.831   0.236 -1.7124  1.0822  0.6273
 5215SOL     OW27703   1.639   4.904   8.088  0.4358 -0.1995 -0.1621
 5215SOL    HW127704   1.663   4.811   8.060  0.3654 -1.1794  2.8144
 5215SOL    HW227705   1.541   4.908   8.110  0.1186  0.9848 -1.7297
 5216SOL     OW27706   6.890   8.848   1.639 -0.1065  0.3508  0.3459
 5216SOL    HW127707   6.815   8.893   1.590 -2.2233 -1.4112  1.8727
 5216SOL    HW227708   6.895   8.752   1.610  0.0303 -0.1361  1.9436
 5217SOL     OW27709   9.757   4.064   8.749  0.1028  0.3203  0.3861
 5217SOL    HW127710   9.708   4.037   8.832  0.5259  1.5793  1.0520
 5217SOL    HW227711   9.854   4.073   8.768  0.6161 -2.0577 -0.9074
 5218SOL     OW27712   1.978   4.282   1.840 -0.1048  0.6027 -0.4779
 5218SOL    HW127713   1.949   4.257   1.932  0.4501  2.5946  0.2747
 5218SOL    HW227714   1.901   4.318   1.789 -0.1801  0.5526 -0.3989
 5219SOL     OW27715   1.714   7.843   3.451 -0.3873  0.5636  0.0303
 5219SOL    HW127716   1.694   7.867   3.546  1.8635  0.1483  0.6425
 5219SOL    HW227717   1.676   7.753   3.431 -1.4992  0.9612  0.3036
 5220SOL     OW27718   1.513   9.219   6.172  0.3991  0.4601 -0.6655
 5220SOL    HW127719   1.467   9.299   6.134  1.3313  1.0254 -0.6238
 5220SOL    HW227720   1.612   9.234   6.171  0.6008 -0.8277 -0.9507
 5221SOL     OW27721   2.027   7.040   1.200  0.2635  0.0198  0.6105
 5221SOL    HW127722   2.014   7.126   1.249 -0.5328  0.3308 -0.1268
 5221SOL    HW227723   1.938   6.994   1.190  0.6435 -0.7439  0.7570
 5222SOL     OW27724   0.772   8.307   8.579 -0.2280  0.1300  0.0033
 5222SOL    HW127725   0.762   8.283   8.675 -1.0464 -1.8804 -0.5406
 5222SOL    HW227726   0.790   8.404   8.570 -2.4346  0.7767  2.0625
 5223SOL     OW27727   7.841   4.782   6.918 -0.6698 -0.1785 -0.5903
 5223SOL    HW127728   7.857   4.703   6.976 -1.2979 -0.4140 -0.7301
 5223SOL    HW227729   7.883   4.863   6.959  0.8511 -0.7735 -0.9641
 5224SOL     OW27730   2.369   2.101   8.901 -0.1656 -0.0379  0.5237
 5224SOL    HW127731   2.411   2.190   8.880  3.4024 -1.8476 -0.4158
 5224SOL    HW227732   2.287   2.089   8.846  0.9037  1.4984 -1.4723
 5225SOL     OW27733   2.144   8.201   8.136 -0.3502  0.5117  0.1631
 5225SOL    HW127734   2.158   8.109   8.174 -1.0775  0.1874 -0.3146
 5225SOL    HW227735   2.067   8.245   8.183  0.3276  1.0812  0.7397
 5226SOL     OW27736   0.634   1.315   3.422  0.5088  0.1596  0.8027
 5226SOL    HW127737   0.670   1.315   3.515  1.3658  1.6066  0.4955
 5226SOL    HW227738   0.664   1.399   3.375 -0.6694 -0.1256 -0.4772
 5227SOL     OW27739   7.573   7.595   2.391 -0.3259 -0.3315 -0.2268
 5227SOL    HW127740   7.530   7.512   2.425 -0.3523 -0.5206 -0.7113
 5227SOL    HW227741   7.506   7.668   2.386 -0.4337 -0.4367 -0.3283
 5228SOL     OW27742   5.206   4.231   1.033  0.3904 -0.2482 -0.1731
 5228SOL    HW127743   5.260   4.183   1.102 -0.1211 -0.2772  0.2091
 5228SOL    HW227744   5.193   4.327   1.061  1.2923  0.0852 -0.8643
 5229SOL     OW27745   5.901   0.968   7.389 -0.1830 -0.1127 -0.7664
 5229SOL    HW127746   5.973   1.006   7.330 -0.0449 -2.9983 -2.5610
 5229SOL    HW227747   5.816   0.962   7.338 -0.2494 -1.9400 -0.4820
 5230SOL     OW27748   4.307   0.927   9.236  0.0738 -0.1554  0.4049
 5230SOL    HW127749   4.291   0.846   9.179 -0.9842  0.6557 -0.4711
 5230SOL    HW227750   4.399   0.961   9.219 -0.3557  0.2995 -1.1275
 5231SOL     OW27751   9.091   8.355   3.435 -0.1072  0.2437  0.1504
 5231SOL    HW127752   9.130   8.290   3.501 -1.0906 -0.0441  0.4545
 5231SOL    HW227753   9.007   8.393   3.471 -1.4306 -0.9865 -1.5147
 5232SOL     OW27754   5.876   8.190   8.886 -0.1474 -0.1166  0.2009
 5232SOL    HW127755   5.853   8.254   8.960  1.0103  0.1299  0.3515
 5232SOL    HW227756   5.797   8.178   8.826 -0.4688  1.1878  0.3659
 5233SOL     OW27757   7.621   5.179   8.051 -0.0771 -1.3763  0.2788
 5233SOL    HW127758   7.637   5.187   7.953 -0.1992  0.9817  0.4233
 5233SOL    HW227759   7.536   5.226   8.075  0.7469 -0.5922  1.7197
 5234SOL     OW27760   3.155   9.810   5.873 -0.3840 -0.3022  0.2388
 5234SOL    HW127761   3.167   9.808   5.972 -1.6414  0.0422  0.4038
 5234SOL    HW227762   3.229   9.759   5.830 -0.1672 -0.9797  1.3897
 5235SOL     OW27763   6.603   9.046   6.544 -0.4425 -0.1543 -0.2004
 5235SOL    HW127764   6.639   8.961   6.582  1.7493  0.8322  0.0406
 5235SOL    HW227765   6.563   9.101   6.618 -1.6978 -0.8823 -0.3288
 5236SOL     OW27766   1.495   9.223   6.642 -0.2119 -0.0983  0.2847
 5236SOL    HW127767   1.456   9.270   6.563 -0.5354 -1.1544 -0.1954
 5236SOL    HW227768   1.502   9.125   6.623  0.3990 -0.2644  1.2886
 5237SOL     OW27769   5.445   1.230   8.100 -0.1483  1.0864  0.5107
 5237SOL    HW127770   5.487   1.139   8.097 -1.3979  0.5402 -2.5544
 5237SOL    HW227771   5.411   1.247   8.192  0.1875 -1.5369  1.1732
 5238SOL     OW27772   0.596   0.866   8.332  0.6357  0.2308  0.2468
 5238SOL    HW127773   0.680   0.882   8.281 -0.8660  2.0891 -1.7232
 5238SOL    HW227774   0.523   0.924   8.296 -1.5832 -1.5361  1.7414
 5239SOL     OW27775   9.315   7.065   9.134  0.4478  0.5468 -0.0577
 5239SOL    HW127776   9.323   6.966   9.144  1.9262  0.8781  2.8290
 5239SOL    HW227777   9.396   7.101   9.087 -0.0364  0.3979 -1.0074
 5240SOL     OW27778   5.887   5.843   2.572 -0.2067  0.2466 -0.5162
 5240SOL    HW127779   5.904   5.921   2.512  0.8071  0.0232 -0.5272
 5240SOL    HW227780   5.945   5.850   2.654 -1.6092  0.5712  0.4664
 5241SOL     OW27781   2.661   9.573   7.581  0.0087 -0.3460  0.2504
 5241SOL    HW127782   2.714   9.488   7.570  0.1176 -0.2956  0.3902
 5241SOL    HW227783   2.582   9.556   7.640  0.1554 -0.2970  0.4619
 5242SOL     OW27784   2.287   0.911   8.196  0.4101 -0.0050  0.1787
 5242SOL    HW127785   2.306   0.816   8.223  0.7635  0.1084  0.3369
 5242SOL    HW227786   2.370   0.952   8.160  0.3141  0.3161  0.3202
 5243SOL     OW27787   6.403   8.409   7.158  0.0115  0.2129  0.0837
 5243SOL    HW127788   6.366   8.451   7.241 -1.5683 -2.5608  0.8642
 5243SOL    HW227789   6.331   8.355   7.114  0.8593  1.5746 -3.0722
 5244SOL     OW27790   4.923   3.500   8.348  0.1519  0.1921 -0.4214
 5244SOL    HW127791   4.956   3.500   8.443  0.2696  1.2179 -0.4543
 5244SOL    HW227792   4.903   3.594   8.320 -0.8208 -0.2056 -1.0955
 5245SOL     OW27793   0.029   5.854   6.120 -0.5110 -0.0696 -0.1248
 5245SOL    HW127794   0.074   5.767   6.103 -1.6409 -0.7155  0.1529
 5245SOL    HW227795  -0.062   5.838   6.158 -0.1069  1.2491  1.4748
 5246SOL     OW27796   0.628   8.507   3.082  0.0290 -0.1260  0.0831
 5246SOL    HW127797   0.596   8.596   3.049 -0.8573  0.4285  2.3892
 5246SOL    HW227798   0.718   8.518   3.124 -1.0784  0.1261  2.4383
 5247SOL     OW27799   3.739   7.231   4.858  0.4301 -0.1898 -0.4206
 5247SOL    HW127800   3.641   7.251   4.847  0.9252  1.9394 -1.2279
 5247SOL    HW227801   3.767   7.256   4.950  0.1858 -0.9681 -0.1298
 5248SOL     OW27802   9.586   0.318   8.042  0.1406 -0.0802  0.7752
 5248SOL    HW127803   9.678   0.281   8.030  0.7145  1.7933 -0.9545
 5248SOL    HW227804   9.555   0.302   8.135  2.3759 -0.4036  1.4835
 5249SOL     OW27805   5.541   3.118   9.279 -0.6880 -0.6312  0.3163
 5249SOL    HW127806   5.572   3.077   9.194  1.1199 -1.6891  1.4380
 5249SOL    HW227807   5.613   3.177   9.316 -1.4331 -0.2045  1.1276
 5250SOL     OW27808   3.744   7.724   0.553 -0.4931  0.6402  0.0332
 5250SOL    HW127809   3.795   7.651   0.598 -0.3973  0.7294  0.0667
 5250SOL    HW227810   3.747   7.709   0.454 -3.2826 -1.2993  0.1751
 5251SOL     OW27811   1.217   0.238   1.533  0.2930  0.3509 -0.6487
 5251SOL    HW127812   1.274   0.318   1.517 -1.2891  1.4164 -1.0656
 5251SOL    HW227813   1.136   0.264   1.585 -0.9704 -0.6728 -2.0505
 5252SOL     OW27814   6.681   4.947   0.916 -0.6165  0.3210 -0.1106
 5252SOL    HW127815   6.667   5.044   0.895 -1.1773  0.8148  2.3374
 5252SOL    HW227816   6.778   4.927   0.922 -0.4997  0.6979 -0.6889
 5253SOL     OW27817   9.730   8.093   3.477  0.6259  0.0813 -0.6196
 5253SOL    HW127818   9.814   8.142   3.451  0.9770  0.4453  1.1368
 5253SOL    HW227819   9.752   7.998   3.497  0.3865 -0.1464 -1.3939
 5254SOL     OW27820   0.188   6.517   9.461  0.2455  0.3403 -0.2627
 5254SOL    HW127821   0.268   6.465   9.431  0.9542  1.7031 -0.7719
 5254SOL    HW227822   0.156   6.481   9.549  0.3061 -1.3817 -0.9140
 5255SOL     OW27823   5.954   4.974   4.940 -0.9104 -0.2647  0.2583
 5255SOL    HW127824   6.010   4.953   4.859 -1.1176  1.5375 -0.3596
 5255SOL    HW227825   5.859   4.951   4.921 -1.0072  0.4442 -0.1210
 5256SOL     OW27826   0.585   7.194   9.806  0.3205  0.3241  0.0277
 5256SOL    HW127827   0.678   7.158   9.816  0.6100  1.3782  1.1288
 5256SOL    HW227828   0.563   7.254   9.883 -1.1171  0.4313 -0.4478
 5257SOL     OW27829   9.370   8.335   0.342  0.1329 -0.5775  0.7622
 5257SOL    HW127830   9.425   8.406   0.297 -2.5540 -0.5009 -2.6370
 5257SOL    HW227831   9.321   8.375   0.419 -0.9315  1.1806 -0.7840
 5258SOL     OW27832   2.405   7.550   5.300 -0.1567  0.2094 -0.0466
 5258SOL    HW127833   2.446   7.482   5.361 -1.3046 -0.7428 -0.2998
 5258SOL    HW227834   2.308   7.559   5.322 -0.3123  0.7391 -0.9489
 5259SOL     OW27835   2.344   2.407   8.970  0.8863 -0.4669  0.4148
 5259SOL    HW127836   2.261   2.373   9.014  0.0025  0.2460 -0.6725
 5259SOL    HW227837   2.320   2.452   8.884  2.4946 -0.9630 -0.3008
 5260SOL     OW27838   8.805   7.249   5.979  0.0085  0.0819 -0.1172
 5260SOL    HW127839   8.732   7.310   5.949  0.5216  1.1032  0.6776
 5260SOL    HW227840   8.826   7.267   6.075  0.8901 -0.6210 -0.1752
 5261SOL     OW27841   0.462   6.502   0.368  0.0021 -0.4116  0.5487
 5261SOL    HW127842   0.434   6.430   0.304 -0.8180 -0.3823  0.8686
 5261SOL    HW227843   0.438   6.592   0.330 -2.2697 -0.4790  1.7412
 5262SOL     OW27844   2.866   7.707   8.686  0.0456  0.3689 -0.1900
 5262SOL    HW127845   2.828   7.723   8.594 -0.3126 -1.6719 -0.4163
 5262SOL    HW227846   2.965   7.713   8.682 -0.0048  1.1291 -0.5272
 5263SOL     OW27847   2.385   0.080   8.304  0.0072  0.0017 -0.6078
 5263SOL    HW127848   2.473   0.040   8.330  0.5629  0.1249 -2.2654
 5263SOL    HW227849   2.398   0.174   8.275 -0.7853  0.2419 -0.2032
 5264SOL     OW27850   1.567   2.347   8.446  0.2592 -0.2344 -0.2977
 5264SOL    HW127851   1.542   2.443   8.449 -0.1696 -0.3201 -0.9864
 5264SOL    HW227852   1.510   2.296   8.511 -0.2922 -0.1953 -0.7497
 5265SOL     OW27853   8.445   4.710   0.119 -0.1567  0.3132 -0.0688
 5265SOL    HW127854   8.537   4.743   0.099  0.6491 -0.0137  2.8612
 5265SOL    HW227855   8.386   4.787   0.143 -0.3769  0.3978 -0.8464
 5266SOL     OW27856   2.347   2.520   1.865 -0.7252  0.1472  0.5485
 5266SOL    HW127857   2.272   2.454   1.867  0.5779 -1.3737  0.4685
 5266SOL    HW227858   2.355   2.559   1.774 -0.3213 -0.9848  0.0919
 5267SOL     OW27859   0.120   3.671   9.254  0.4313  0.3507  0.0896
 5267SOL    HW127860   0.130   3.587   9.200 -2.0352  0.3945 -0.5046
 5267SOL    HW227861   0.203   3.726   9.247  1.4438 -1.2685 -0.8549
 5268SOL     OW27862   1.495   0.968   6.410 -0.1697  0.4874 -0.6504
 5268SOL    HW127863   1.574   1.028   6.393  0.3120  0.4135  1.1984
 5268SOL    HW227864   1.427   1.018   6.464 -0.6303  0.0057 -0.7880
 5269SOL     OW27865   2.448   5.894   7.240 -0.0024  0.4029 -0.4923
 5269SOL    HW127866   2.353   5.866   7.256  0.4463 -0.3006  1.0189
 5269SOL    HW227867   2.493   5.827   7.181 -0.3382  0.5157 -0.8729
 5270SOL     OW27868   6.865   9.680   2.454  0.3423  0.5175  0.0951
 5270SOL    HW127869   6.922   9.598   2.442  0.4103  0.7311 -1.0835
 5270SOL    HW227870   6.788   9.676   2.390  1.2207  2.1225 -1.0862
 5271SOL     OW27871   0.082   0.218   8.926  0.4578  0.0593  0.1654
 5271SOL    HW127872  -0.009   0.256   8.945 -0.9876 -3.7050  1.2067
 5271SOL    HW227873   0.142   0.291   8.893 -2.8416  2.6964 -0.3188
 5272SOL     OW27874   7.208   2.583   8.298  0.0271 -0.5838  0.2328
 5272SOL    HW127875   7.265   2.627   8.368 -1.5974 -0.1920  1.3123
 5272SOL    HW227876   7.119   2.562   8.336 -0.7161 -0.7891 -1.5954
 5273SOL     OW27877   9.744   7.278   1.662 -0.3552  0.0557 -0.5926
 5273SOL    HW127878   9.713   7.187   1.691  2.1071 -0.8419 -0.6278
 5273SOL    HW227879   9.722   7.345   1.733  2.3579 -1.4807  1.8435
 5274SOL     OW27880   0.041   1.308   7.376  0.3495  0.1269 -0.6190
 5274SOL    HW127881  -0.039   1.285   7.322  1.6263 -0.2748 -2.4097
 5274SOL    HW227882   0.062   1.405   7.364 -0.9346  0.6604  1.3279
 5275SOL     OW27883   8.348   8.345   7.079  0.1916  0.5176 -0.1828
 5275SOL    HW127884   8.362   8.333   6.981  1.3392 -3.9222  0.4335
 5275SOL    HW227885   8.258   8.310   7.105  0.0356  1.3512  0.4160
 5276SOL     OW27886   2.766   8.474   0.434  0.9382  0.1847 -0.6577
 5276SOL    HW127887   2.755   8.410   0.510  0.1635  0.5109 -0.4892
 5276SOL    HW227888   2.797   8.562   0.470  1.0964  0.1804 -0.7836
 5277SOL     OW27889   1.912   8.861   6.335  0.0827 -0.0239  0.1377
 5277SOL    HW127890   1.980   8.887   6.267 -1.0374  0.3603 -0.8371
 5277SOL    HW227891   1.875   8.770   6.313 -0.4924  0.2249  0.0729
 5278SOL     OW27892   7.074   8.992   1.287  0.5422 -0.3209 -0.5691
 5278SOL    HW127893   7.065   8.897   1.316  1.7353 -0.7373 -1.5361
 5278SOL    HW227894   7.004   9.012   1.219  1.8595 -1.2616 -2.2360
 5279SOL     OW27895   8.543   2.719   1.627 -0.1308  0.0756 -0.0208
 5279SOL    HW127896   8.549   2.727   1.727 -0.5910  1.1772 -0.0762
 5279SOL    HW227897   8.558   2.623   1.601  3.5428  0.3655  0.8208
 5280SOL     OW27898   0.095   0.786   8.766 -0.3998 -0.6075  0.7328
 5280SOL    HW127899   0.030   0.843   8.715 -1.2239 -2.2283 -0.0647
 5280SOL    HW227900   0.187   0.801   8.730 -0.6816 -0.1562  0.1819
 5281SOL     OW27901   7.205   7.977   9.190 -0.0930  0.3145  0.1817
 5281SOL    HW127902   7.185   8.044   9.119  0.4854 -0.8795 -1.1168
 5281SOL    HW227903   7.253   7.899   9.151 -0.3634 -0.6763  1.7544
 5282SOL     OW27904   9.899   0.562   0.527 -0.0723 -0.1274  0.0006
 5282SOL    HW127905   9.870   0.580   0.433 -0.9247  0.2498  0.3380
 5282SOL    HW227906   9.999   0.560   0.530 -0.0332  0.1284 -0.8683
 5283SOL     OW27907   9.765   9.597   1.217 -0.0121 -0.1204  0.4809
 5283SOL    HW127908   9.735   9.607   1.122 -0.6483 -1.0396  0.5820
 5283SOL    HW227909   9.805   9.683   1.248 -0.8032  0.5315 -0.2738
 5284SOL     OW27910   2.279   0.751   8.989 -0.2916  0.1541 -0.0705
 5284SOL    HW127911   2.302   0.839   9.031  2.7015  0.2150 -1.7158
 5284SOL    HW227912   2.186   0.756   8.952 -0.1482  2.6705 -0.2248
 5285SOL     OW27913   1.965   0.656   9.424 -0.1552 -0.1353 -0.0470
 5285SOL    HW127914   2.027   0.655   9.503  0.5584  0.4533 -0.5919
 5285SOL    HW227915   1.871   0.671   9.456  0.1162  0.0299  0.6946
 5286SOL     OW27916   1.525   1.393   2.441  0.1447  0.3343 -0.3012
 5286SOL    HW127917   1.625   1.401   2.435  0.3220 -1.0290  0.5564
 5286SOL    HW227918   1.495   1.309   2.395 -0.4440 -0.0175  0.6983
 5287SOL     OW27919   2.546   9.790   0.268  0.2735  1.1709  0.4646
 5287SOL    HW127920   2.639   9.767   0.296 -0.0286 -0.4976  0.1417
 5287SOL    HW227921   2.481   9.759   0.338 -0.2991 -0.9138 -0.9268
 5288SOL     OW27922   4.609   5.503   0.021  0.2504 -0.3285 -0.6345
 5288SOL    HW127923   4.559   5.425   0.059  2.0528 -0.6189  1.1826
 5288SOL    HW227924   4.544   5.577   0.001 -1.1498 -1.3710 -0.0529
 5289SOL     OW27925   9.847   3.287   0.007  0.3064 -0.1826 -0.8776
 5289SOL    HW127926   9.763   3.265  -0.042 -0.6395  1.3271  0.0568
 5289SOL    HW227927   9.836   3.265   0.104  0.9436  0.1824 -0.7184
 5290SOL     OW27928   3.540   0.128   3.845 -0.0867 -0.1016 -0.1010
 5290SOL    HW127929   3.556   0.045   3.793  0.9130  0.0674 -0.0608
 5290SOL    HW227930   3.467   0.111   3.912  0.2844 -1.0120  0.0780
 5291SOL     OW27931   8.411   7.576   7.679  0.3025  0.2720  0.5980
 5291SOL    HW127932   8.407   7.553   7.776 -2.1054  1.3671  0.7844
 5291SOL    HW227933   8.389   7.495   7.624  0.3080 -0.0041  1.0002
 5292SOL     OW27934   3.773   1.398   4.532  0.2686  1.2361  1.2678
 5292SOL    HW127935   3.855   1.404   4.476  0.0437  2.5947  1.0657
 5292SOL    HW227936   3.792   1.435   4.623  0.6051 -0.8636  2.0707
 5293SOL     OW27937   2.496   6.490   9.778  0.4249  0.0200  0.0086
 5293SOL    HW127938   2.515   6.405   9.729 -0.7202  0.1641 -0.7097
 5293SOL    HW227939   2.464   6.559   9.714 -4.0455 -0.6822  1.2991
 5294SOL     OW27940   1.641   4.750   5.993 -0.2894  0.1721  0.5053
 5294SOL    HW127941   1.637   4.659   5.952 -0.7432  0.4736 -0.1195
 5294SOL    HW227942   1.551   4.775   6.028 -0.2799  0.5929  0.2215
 5295SOL     OW27943   0.396   0.091   7.357 -0.1585  0.3960 -0.6316
 5295SOL    HW127944   0.477   0.134   7.398  0.0738  0.0877 -0.7617
 5295SOL    HW227945   0.406   0.088   7.258 -0.6656  1.0303 -0.7008
 5296SOL     OW27946   1.756   8.573   7.590 -0.3467  0.4675  0.6455
 5296SOL    HW127947   1.664   8.566   7.628 -0.1752 -2.8372  0.6205
 5296SOL    HW227948   1.822   8.590   7.663 -0.8586  2.0661  0.7563
 5297SOL     OW27949   3.409   7.377   8.677  0.0222  0.1887  0.0364
 5297SOL    HW127950   3.338   7.430   8.724  0.1878 -0.6778  1.3026
 5297SOL    HW227951   3.468   7.438   8.626 -0.6576  1.0793  0.3048
 5298SOL     OW27952   3.885   5.941   5.510 -0.4366  0.8362 -0.2211
 5298SOL    HW127953   3.983   5.928   5.495 -0.7088 -0.0568 -1.2625
 5298SOL    HW227954   3.871   6.003   5.587  0.9699 -3.8549  4.0910
 5299SOL     OW27955   9.735   0.242   2.141 -0.3363  0.1914 -0.0467
 5299SOL    HW127956   9.803   0.197   2.083 -1.7116 -0.1966 -1.3865
 5299SOL    HW227957   9.779   0.318   2.190  1.0055  0.0921 -1.0511
 5300SOL     OW27958   9.899   4.999   7.756 -0.5559  0.3155  0.6704
 5300SOL    HW127959   9.904   5.070   7.826  0.0619  0.7223  0.2174
 5300SOL    HW227960   9.967   4.928   7.774  0.1094  0.7924  0.0834
 5301SOL     OW27961   0.692   9.289   4.317  0.3860 -0.3723 -0.1412
 5301SOL    HW127962   0.603   9.290   4.363  0.7646 -1.6926  0.6349
 5301SOL    HW227963   0.738   9.202   4.334  2.2812  0.6908  0.3157
 5302SOL     OW27964   3.650   9.879   9.369 -0.3061 -0.0981  0.1735
 5302SOL    HW127965   3.648   9.909   9.273  1.4528  0.0786  0.1620
 5302SOL    HW227966   3.713   9.938   9.420  0.2211 -1.3750  1.0148
 5303SOL     OW27967   4.581   4.548   3.544  0.0550  0.3678 -0.4465
 5303SOL    HW127968   4.646   4.496   3.488 -0.4991 -0.4527 -0.3274
 5303SOL    HW227969   4.562   4.499   3.629  2.4100  2.5366  1.4100
 5304SOL     OW27970   0.431   7.142   9.315 -0.1592  0.8824  0.2380
 5304SOL    HW127971   0.406   7.215   9.251  0.9341  1.6012  0.6165
 5304SOL    HW227972   0.461   7.182   9.401 -0.3970 -0.0518  0.7557
 5305SOL     OW27973   4.420   3.807   2.069  0.1540 -0.3411 -0.1480
 5305SOL    HW127974   4.334   3.807   2.119 -0.5148  0.7036 -1.2984
 5305SOL    HW227975   4.439   3.898   2.033  1.6542 -0.5997 -0.0638
 5306SOL     OW27976   1.145   4.126   7.919  0.4777 -0.5125  0.3927
 5306SOL    HW127977   1.205   4.062   7.967  1.9924 -0.6163 -1.5877
 5306SOL    HW227978   1.064   4.078   7.886  1.3116 -1.2978 -0.5363
 5307SOL     OW27979   1.812   8.268   6.502  0.3208 -0.0501 -0.0444
 5307SOL    HW127980   1.776   8.279   6.409  1.1647 -0.1403 -0.3868
 5307SOL    HW227981   1.905   8.232   6.497  0.3302 -0.1491  0.8438
 5308SOL     OW27982   1.543   5.655   6.378 -0.2742  0.1888 -0.8496
 5308SOL    HW127983   1.475   5.582   6.374  0.5149 -0.5583 -0.8158
 5308SOL    HW227984   1.526   5.720   6.304 -1.1639  0.1419 -0.6970
 5309SOL     OW27985   3.144   1.033   1.651  0.3251  0.0148  0.2598
 5309SOL    HW127986   3.126   0.973   1.729  0.1808 -0.2866 -0.0068
 5309SOL    HW227987   3.087   1.115   1.659  0.6807  0.2217  0.7369
 5310SOL     OW27988   8.107   8.149   8.321 -0.1777  0.0875  0.1012
 5310SOL    HW127989   8.089   8.138   8.419 -0.5947 -1.1257 -0.0994
 5310SOL    HW227990   8.024   8.182   8.276 -0.6259 -1.3553 -0.1552
 5311SOL     OW27991   7.865   0.331   6.403 -0.1822 -0.0821  0.3921
 5311SOL    HW127992   7.890   0.336   6.307 -2.4033 -1.7043 -0.3165
 5311SOL    HW227993   7.918   0.260   6.448  0.2701  0.1239  0.1891
 5312SOL     OW27994   0.902   0.123   7.314 -0.3449  0.1476  0.1644
 5312SOL    HW127995   0.955   0.045   7.280 -0.1396  1.5519 -2.9121
 5312SOL    HW227996   0.956   0.173   7.381  0.9709 -0.2756 -0.5498
 5313SOL     OW27997   1.800   5.195   0.841  0.5783  0.0684 -0.0493
 5313SOL    HW127998   1.868   5.142   0.892  0.3444 -0.7735 -0.6081
 5313SOL    HW227999   1.721   5.138   0.820  0.0853  0.7903 -0.1906
 5314SOL     OW28000   0.676   7.648   2.601 -0.5617 -0.3437  0.4787
 5314SOL    HW128001   0.739   7.699   2.543 -2.8334  2.6439  0.5283
 5314SOL    HW228002   0.677   7.686   2.694 -0.6801 -1.8186  1.1059
 5315SOL     OW28003   2.010   3.416   9.460 -0.3884 -0.5756 -0.2939
 5315SOL    HW128004   1.982   3.320   9.469 -0.7935 -0.4975 -0.6923
 5315SOL    HW228005   2.018   3.439   9.363  1.1795 -0.6319 -0.1918
 5316SOL     OW28006   3.192   6.038   9.534 -0.4017 -0.0314  0.0963
 5316SOL    HW128007   3.290   6.018   9.530 -0.3189  0.2953  0.4770
 5316SOL    HW228008   3.170   6.082   9.621 -0.6707  1.0613 -0.5169
 5317SOL     OW28009   3.113   0.053   4.934  0.0062  0.2191 -0.6524
 5317SOL    HW128010   3.194   0.014   4.890 -1.7239 -2.8475 -1.3102
 5317SOL    HW228011   3.060   0.104   4.866 -0.2754 -0.5501 -1.0167
 5318SOL     OW28012   2.821   4.362   1.390  0.4990 -0.4632 -0.2175
 5318SOL    HW128013   2.885   4.415   1.334  0.7289 -2.5530 -2.0096
 5318SOL    HW228014   2.728   4.373   1.355  0.0668  1.2297  1.3602
 5319SOL     OW28015   2.383   4.488   5.261  0.7780 -0.2787  0.3564
 5319SOL    HW128016   2.348   4.410   5.209 -1.6479  0.1704  1.2878
 5319SOL    HW228017   2.440   4.455   5.336  0.2349 -1.1381  0.3967
 5320SOL     OW28018   0.745   6.914   4.403 -0.8661  0.6434  0.0106
 5320SOL    HW128019   0.763   6.918   4.304 -1.0551 -1.0567 -0.1073
 5320SOL    HW228020   0.818   6.863   4.448 -1.3932  0.4067  0.5933
 5321SOL     OW28021   7.646   9.598   7.077 -0.5008 -0.4232 -0.1546
 5321SOL    HW128022   7.703   9.626   7.000 -0.4610  1.3779  0.5142
 5321SOL    HW228023   7.587   9.522   7.049  1.3239 -1.4817 -1.2117
 5322SOL     OW28024   5.582   5.405   7.117 -0.0511  0.2185  0.2046
 5322SOL    HW128025   5.498   5.362   7.084 -0.4130  1.3257 -0.3352
 5322SOL    HW228026   5.614   5.357   7.199 -1.5395  0.1579  0.7555
 5323SOL     OW28027   5.129   9.609   8.672 -0.0696 -0.0077 -0.1771
 5323SOL    HW128028   5.181   9.634   8.590  2.9471 -0.0989  1.6437
 5323SOL    HW228029   5.072   9.530   8.652  0.7916 -0.1574 -2.1430
 5324SOL     OW28030   2.950   8.279   5.998  0.5448 -0.1774  0.3222
 5324SOL    HW128031   2.896   8.228   5.931  0.1926 -1.4426  1.5401
 5324SOL    HW228032   2.894   8.300   6.078  1.6292 -0.8625  1.2891
 5325SOL     OW28033   3.774   1.052   2.099 -0.0743 -0.3160  0.0928
 5325SOL    HW128034   3.800   1.101   2.182  1.6366  0.4868 -0.9036
 5325SOL    HW228035   3.856   1.027   2.048 -1.1083 -1.0306 -1.2459
 5326SOL     OW28036   9.169   8.640   9.038 -0.1783  0.1192 -0.0651
 5326SOL    HW128037   9.103   8.694   8.985 -0.4805  0.5539  0.7522
 5326SOL    HW228038   9.202   8.564   8.982 -1.5148 -0.2050 -0.4386
 5327SOL     OW28039   9.597   6.815   8.513 -0.5620 -0.6846  0.0093
 5327SOL    HW128040   9.530   6.770   8.573  0.0734 -0.3640  0.9601
 5327SOL    HW228041   9.591   6.775   8.421 -0.9629 -1.7464  0.4929
 5328SOL     OW28042   8.482   6.174   8.900 -0.0970  0.1815 -0.1088
 5328SOL    HW128043   8.451   6.246   8.838 -1.1296 -0.4630 -0.3424
 5328SOL    HW228044   8.536   6.215   8.974 -0.9280  1.2423 -0.0797
 5329SOL     OW28045   2.717   9.970   0.616 -0.6127  0.0510 -0.2843
 5329SOL    HW128046   2.636   9.957   0.673 -1.3110 -0.9737 -1.4872
 5329SOL    HW228047   2.736   9.887   0.564  1.9916 -0.1866  0.9412
 5330SOL     OW28048   8.839   8.107   6.476  0.2074 -0.1809  0.1141
 5330SOL    HW128049   8.851   8.202   6.446  0.0214  0.0212  0.6718
 5330SOL    HW228050   8.899   8.047   6.422  1.7045  0.4894  1.0105
 5331SOL     OW28051   9.377   0.756   8.135  0.5782  0.8061 -0.5086
 5331SOL    HW128052   9.405   0.767   8.040 -0.3397 -1.8124 -1.1351
 5331SOL    HW228053   9.435   0.688   8.180 -0.7037 -0.0043 -0.0246
 5332SOL     OW28054   8.766   9.500   3.950  0.1254 -0.1862 -0.1914
 5332SOL    HW128055   8.719   9.520   4.036 -0.0674  0.2996 -0.4107
 5332SOL    HW228056   8.705   9.450   3.889 -0.3479  1.0966 -0.7630
 5333SOL     OW28057   1.059   3.893   1.594  0.6007  0.1184  0.2883
 5333SOL    HW128058   1.060   3.933   1.502 -0.3028 -0.2205  0.1257
 5333SOL    HW228059   1.060   3.966   1.662  0.6015  0.3845  0.0035
 5334SOL     OW28060   0.737   5.040   3.532 -0.1841  0.2811  0.4894
 5334SOL    HW128061   0.747   5.121   3.589  0.1761 -0.5411  1.6184
 5334SOL    HW228062   0.651   5.043   3.482 -0.4716  1.0392  1.0378
 5335SOL     OW28063   4.180   0.600   7.924 -0.6711 -0.0833 -0.3083
 5335SOL    HW128064   4.218   0.673   7.868  0.8330  1.0990  2.1886
 5335SOL    HW228065   4.098   0.632   7.971 -0.8793 -0.4909 -0.3869
 5336SOL     OW28066   3.094   3.701   4.282 -0.1071  0.8950 -0.2874
 5336SOL    HW128067   3.132   3.613   4.310 -0.3124  0.7025 -0.6084
 5336SOL    HW228068   3.161   3.749   4.226  0.8347  1.8778  1.6550
 5337SOL     OW28069   5.548   0.411   7.149  0.0721  0.5006  0.3148
 5337SOL    HW128070   5.554   0.330   7.207  0.1142  0.9026  0.8747
 5337SOL    HW228071   5.472   0.400   7.085 -0.3739  0.3296  0.8703
 5338SOL     OW28072   0.370   1.590   0.829 -0.0919  0.0496 -0.0635
 5338SOL    HW128073   0.297   1.523   0.842  0.2770 -0.2456  0.4986
 5338SOL    HW228074   0.336   1.665   0.772 -0.1275 -1.2241 -1.7688
 5339SOL     OW28075   4.181   8.896   8.258 -0.0238  0.3296 -0.3607
 5339SOL    HW128076   4.164   8.923   8.353  1.2579 -0.1415  0.0164
 5339SOL    HW228077   4.214   8.801   8.256 -0.3263  0.2390 -1.3019
 5340SOL     OW28078   9.798   6.544   8.128  0.3346  0.1746  0.1245
 5340SOL    HW128079   9.795   6.510   8.223  0.5371  0.5893  0.2820
 5340SOL    HW228080   9.726   6.501   8.075 -0.0865  0.3037  0.5901
 5341SOL     OW28081   0.588   0.070   9.712  0.1535  0.0160  0.2818
 5341SOL    HW128082   0.507   0.113   9.754  0.7738  0.6435  0.8624
 5341SOL    HW228083   0.576  -0.029   9.711 -0.2191  0.0437  1.2283
 5342SOL     OW28084   2.506   7.240   6.134 -0.5081  0.3683  0.2750
 5342SOL    HW128085   2.554   7.165   6.089  0.1061  1.3849 -0.7970
 5342SOL    HW228086   2.465   7.207   6.219 -2.2417 -1.7597 -1.3192
 5343SOL     OW28087   6.997   8.248   9.695  0.3745 -0.2940  0.1851
 5343SOL    HW128088   6.964   8.338   9.668 -1.1671 -0.8990 -0.0110
 5343SOL    HW228089   7.002   8.188   9.615  1.9128 -0.2331  0.2239
 5344SOL     OW28090   5.202   1.293   9.469  0.5411  0.5111 -0.2867
 5344SOL    HW128091   5.254   1.326   9.547  0.6192  2.9546 -1.3216
 5344SOL    HW228092   5.126   1.356   9.450 -0.8264 -1.2538 -0.8042
 5345SOL     OW28093   1.943   8.737   0.535 -0.4035  0.2226 -0.0582
 5345SOL    HW128094   1.936   8.811   0.468 -1.2257 -0.9324 -1.2679
 5345SOL    HW228095   1.867   8.742   0.599 -0.7624  0.0939 -0.4750
 5346SOL     OW28096   4.419   6.057   0.439 -0.4085  0.3005  0.1533
 5346SOL    HW128097   4.319   6.062   0.433 -0.4221  0.2338  0.3252
 5346SOL    HW228098   4.459   6.095   0.356 -0.6450 -2.2727 -1.1843
 5347SOL     OW28099   6.325   5.652   7.076 -0.1972  0.8583  0.2824
 5347SOL    HW128100   6.375   5.572   7.109 -0.0901  0.7556 -0.1218
 5347SOL    HW228101   6.380   5.734   7.090  0.3905  0.6596 -0.8126
 5348SOL     OW28102   9.433   0.873   9.692 -0.1471  0.1228 -0.5087
 5348SOL    HW128103   9.447   0.958   9.641  1.7195  1.3635  1.9665
 5348SOL    HW228104   9.510   0.811   9.675 -0.5363 -0.2852 -0.7849
 5349SOL     OW28105   1.960   5.842   9.627  0.5008 -0.2955 -0.3331
 5349SOL    HW128106   2.051   5.816   9.594  1.5523 -1.3615  3.1866
 5349SOL    HW228107   1.958   5.941   9.644  0.7734 -0.1649 -1.0314
 5350SOL     OW28108   9.408   1.332   4.818  0.1898 -0.1513 -0.0127
 5350SOL    HW128109   9.345   1.257   4.799  0.6233 -0.9154  1.5778
 5350SOL    HW228110   9.502   1.300   4.808  0.3773  0.1393  0.7930
 5351SOL     OW28111   0.058   6.895   7.826  0.6514  0.0646 -0.5259
 5351SOL    HW128112   0.003   6.893   7.742  1.7646  2.5426 -1.3487
 5351SOL    HW228113   0.152   6.871   7.805  0.5466 -1.2718  0.4003
 5352SOL     OW28114   2.772   6.211   7.308 -0.0622  0.2554 -0.1402
 5352SOL    HW128115   2.807   6.255   7.391  1.6136  1.0446 -1.2494
 5352SOL    HW228116   2.836   6.139   7.280 -0.7311 -0.1446 -0.6397
 5353SOL     OW28117   5.338   0.403   2.312  0.6638  0.0282  0.0130
 5353SOL    HW128118   5.244   0.436   2.310  0.5584 -0.1522  1.2989
 5353SOL    HW228119   5.342   0.318   2.365  1.4502 -0.2886 -0.5462
 5354SOL     OW28120   1.825   7.886   9.917  0.0980  0.0468 -0.2166
 5354SOL    HW128121   1.870   7.945   9.851 -1.3264  2.4622  0.9100
 5354SOL    HW228122   1.765   7.821   9.869  0.8164  0.2356 -1.3890
 5355SOL     OW28123   9.582   0.824   9.088 -0.0863 -0.4796 -0.2691
 5355SOL    HW128124   9.629   0.749   9.135 -0.1759  0.2181  0.9680
 5355SOL    HW228125   9.618   0.912   9.121 -2.9392  0.0997  1.5022
 5356SOL     OW28126   0.964   6.916   9.584  0.3145 -0.4390 -0.6883
 5356SOL    HW128127   0.886   6.899   9.644 -0.2127 -0.3134 -1.3457
 5356SOL    HW228128   0.934   6.919   9.489  0.6999  2.1954 -0.7590
 5357SOL     OW28129   9.153   0.225   4.960  0.5989  1.0359 -0.4718
 5357SOL    HW128130   9.125   0.320   4.949 -1.1834  1.0363  3.4824
 5357SOL    HW228131   9.073   0.165   4.951  0.9695  0.2647  1.1657
 5358SOL     OW28132   3.264   7.309   1.942  0.0162 -0.0170 -0.5442
 5358SOL    HW128133   3.164   7.308   1.950  0.0763 -2.9179  0.2671
 5358SOL    HW228134   3.304   7.329   2.032  0.1763 -0.6580 -0.4681
 5359SOL     OW28135   8.434   3.844   4.125 -0.4733 -0.0630 -0.2321
 5359SOL    HW128136   8.446   3.785   4.204 -0.3995 -1.5428 -1.3292
 5359SOL    HW228137   8.381   3.925   4.151 -2.7652 -1.8199  0.7473
 5360SOL     OW28138   9.051   6.942   0.451 -0.2367 -0.0457 -0.5344
 5360SOL    HW128139   9.016   6.880   0.381 -1.0234 -1.3008  0.9441
 5360SOL    HW228140   9.034   7.037   0.422 -3.1181 -0.5757 -0.7695
 5361SOL     OW28141   9.444   1.363   1.599 -0.1549 -0.0726 -0.8714
 5361SOL    HW128142   9.436   1.454   1.557 -0.1871  0.9275  1.1878
 5361SOL    HW228143   9.369   1.305   1.570 -0.8108  0.9769 -1.2758
 5362SOL     OW28144   2.325   8.835   7.180 -0.1326 -0.4697 -0.2083
 5362SOL    HW128145   2.265   8.879   7.113  1.7275  2.1569 -0.2425
 5362SOL    HW228146   2.296   8.741   7.195 -2.2048 -0.2620 -2.6813
 5363SOL     OW28147   1.829   2.524   0.258 -0.6714  0.2261  0.4575
 5363SOL    HW128148   1.736   2.515   0.294  0.0243  0.6615  2.3895
 5363SOL    HW228149   1.895   2.510   0.331  0.7864  0.8307 -0.7124
 5364SOL     OW28150   8.074   2.458   1.782  0.1987 -0.0260 -0.2981
 5364SOL    HW128151   7.982   2.495   1.769  0.6848  1.1416 -0.4256
 5364SOL    HW228152   8.138   2.533   1.800  0.9536 -0.9114  0.7568
 5365SOL     OW28153   0.478   0.971   9.714  0.6472  0.0141 -0.0033
 5365SOL    HW128154   0.414   1.049   9.713  2.1549  1.2683 -0.2855
 5365SOL    HW228155   0.430   0.889   9.683 -1.1053  0.7102  0.7785
 5366SOL     OW28156   0.442   4.045   4.920 -0.5521  0.3582 -0.1736
 5366SOL    HW128157   0.343   4.064   4.922 -0.1047  2.8960  0.1468
 5366SOL    HW228158   0.475   4.049   4.826 -0.4354  1.3904 -0.0933
 5367SOL     OW28159   1.323   7.700   9.974  0.3496 -0.4440 -0.2070
 5367SOL    HW128160   1.381   7.780   9.990  0.8568 -1.0493  1.0333
 5367SOL    HW228161   1.374   7.630   9.924 -0.7170  0.7729 -3.1505
 5368SOL     OW28162   8.806   4.925   1.762  0.7142  0.0462  0.1193
 5368SOL    HW128163   8.828   5.013   1.806 -0.2796  1.3368 -1.9045
 5368SOL    HW228164   8.837   4.927   1.667 -0.7764 -1.2039 -0.3994
 5369SOL     OW28165   0.546   2.747   6.885  0.2112 -0.3684 -0.1830
 5369SOL    HW128166   0.532   2.835   6.839 -0.4954 -0.8182 -0.8328
 5369SOL    HW228167   0.627   2.753   6.943  1.2290  0.1507 -1.6252
 5370SOL     OW28168   4.232   5.966   7.618 -0.0569 -0.1625  0.2343
 5370SOL    HW128169   4.332   5.973   7.607 -0.1394 -0.0534 -0.4730
 5370SOL    HW228170   4.204   6.022   7.696  0.2752  0.9557 -0.4283
 5371SOL     OW28171   1.111   7.783   1.131  0.2181  0.0567 -0.0817
 5371SOL    HW128172   1.114   7.684   1.122 -1.9680  0.1000 -1.7279
 5371SOL    HW228173   1.088   7.824   1.043 -0.3224  1.9355  0.9054
 5372SOL     OW28174   0.458   1.306   8.082  0.1579  0.2234  0.5542
 5372SOL    HW128175   0.551   1.297   8.047 -0.1353 -0.7023 -0.0180
 5372SOL    HW228176   0.459   1.299   8.182  1.0633  3.4680  0.8101
 5373SOL     OW28177   6.326  10.000   0.835  0.3062 -0.2576 -0.3124
 5373SOL    HW128178   6.409   9.974   0.786 -0.5804 -2.3987 -0.7474
 5373SOL    HW228179   6.298   9.925   0.896 -0.9064  0.7154  0.3667
 5374SOL     OW28180   2.968   4.494   9.109  0.1963  0.2156 -0.6346
 5374SOL    HW128181   2.881   4.447   9.095 -0.1538  0.5383  0.4191
 5374SOL    HW228182   2.952   4.580   9.157  1.0096  0.6580 -1.1473
 5375SOL     OW28183   0.819   8.454   7.045 -0.0796 -0.4666  0.3572
 5375SOL    HW128184   0.727   8.474   7.078 -0.3572 -0.6759 -0.2870
 5375SOL    HW228185   0.842   8.517   6.971  0.6475  0.1835  1.1181
 5376SOL     OW28186   7.000   7.894   8.921  0.2784  0.4644 -0.7419
 5376SOL    HW128187   7.091   7.934   8.931  0.7326 -0.7595  0.1630
 5376SOL    HW228188   6.958   7.885   9.011  0.2203 -1.1708 -0.9304
 5377SOL     OW28189   1.520   4.979   3.008  0.1922  0.2586  0.3240
 5377SOL    HW128190   1.563   5.052   3.060 -1.3882  1.0817  0.5085
 5377SOL    HW228191   1.440   5.015   2.960  0.0002 -1.1200 -0.4208
 5378SOL     OW28192   0.400   2.033   9.929  0.1278 -0.1052  0.1239
 5378SOL    HW128193   0.431   1.940   9.950  2.1114  0.3272 -0.7364
 5378SOL    HW228194   0.385   2.042   9.831  0.6337  0.6791  0.1152
 5379SOL     OW28195   8.843   1.292   8.555  0.3494  0.4086 -0.0360
 5379SOL    HW128196   8.827   1.364   8.488  0.1173 -0.4924 -0.9532
 5379SOL    HW228197   8.871   1.209   8.509  0.8674 -0.0191  1.0443
 5380SOL     OW28198   2.707   6.703   0.254 -0.1510  0.2158  0.8227
 5380SOL    HW128199   2.720   6.722   0.156 -0.2293 -0.7535  0.6235
 5380SOL    HW228200   2.610   6.694   0.274 -0.0153 -2.0001  0.5310
 5381SOL     OW28201   9.948   8.512   8.196  0.1357 -0.6705  0.1386
 5381SOL    HW128202   9.855   8.484   8.176 -0.1007 -0.9299  1.4922
 5381SOL    HW228203   9.980   8.463   8.278  2.4027 -2.5892 -1.8167
 5382SOL     OW28204   9.954   8.832   0.029 -0.2912  0.6105  0.4417
 5382SOL    HW128205   9.933   8.801  -0.064  0.3375 -1.1071  0.8455
 5382SOL    HW228206  10.052   8.848   0.038 -0.2944  0.3925  0.9027
 5383SOL     OW28207   8.124   8.837   9.555  0.0125  0.3677 -0.2320
 5383SOL    HW128208   8.057   8.911   9.560  0.1810  0.4198  1.5021
 5383SOL    HW228209   8.214   8.874   9.535  0.3086  0.7795  1.7713
 5384SOL     OW28210   2.113   1.240   4.116 -0.1092 -0.0108 -0.2031
 5384SOL    HW128211   2.116   1.213   4.019 -0.4133 -0.9507  0.0465
 5384SOL    HW228212   2.041   1.308   4.129  0.9406  1.2627 -0.9132
 5385SOL     OW28213   5.773   7.569   1.381  0.2887  0.1900 -0.0198
 5385SOL    HW128214   5.794   7.664   1.355  1.4064 -0.0495 -0.0249
 5385SOL    HW228215   5.858   7.518   1.390 -0.2566 -0.5391  1.0622
 5386SOL     OW28216   0.446   7.948   0.331  0.1818  0.4249 -0.0935
 5386SOL    HW128217   0.545   7.938   0.343  0.1415  2.2610  2.1378
 5386SOL    HW228218   0.421   8.044   0.338 -1.7230  0.0380 -1.2241
 5387SOL     OW28219   1.569   9.107   8.651 -0.5813 -0.4533 -0.3360
 5387SOL    HW128220   1.546   9.154   8.736  1.3670 -0.4682  0.2309
 5387SOL    HW228221   1.541   9.011   8.658 -1.0030 -0.3060  0.0428
 5388SOL     OW28222   0.153   6.625   0.011 -0.2961  0.3926  0.4688
 5388SOL    HW128223   0.105   6.709   0.036 -1.2959  0.0399 -0.2367
 5388SOL    HW228224   0.148   6.559   0.086  0.1452  0.8038  0.8660
 5389SOL     OW28225   1.927   1.022   4.735 -0.4714 -0.4614  0.2241
 5389SOL    HW128226   1.928   1.119   4.708 -1.8801 -0.7801 -1.0631
 5389SOL    HW228227   1.833   0.991   4.742 -0.0150 -1.8721  0.1501
 5390SOL     OW28228   9.867   6.895   1.506  0.0600  0.0207  0.5804
 5390SOL    HW128229   9.938   6.913   1.438 -0.1581 -0.9758  0.0886
 5390SOL    HW228230   9.782   6.940   1.477 -0.3600 -1.3943 -0.4183
 5391SOL     OW28231   6.562   5.745   7.164  0.1187  0.3009  0.4694
 5391SOL    HW128232   6.586   5.787   7.077  1.0803  1.0237  1.0769
 5391SOL    HW228233   6.599   5.800   7.239 -0.8756 -0.2017  1.3403
 5392SOL     OW28234   9.284   7.179   0.354 -0.5322 -0.1616 -0.1945
 5392SOL    HW128235   9.186   7.172   0.339 -1.1061 -0.2586  3.1969
 5392SOL    HW228236   9.316   7.100   0.405  1.3021 -0.0522 -1.1214
 5393SOL     OW28237   3.081   4.859   9.562 -0.1313  0.1327  0.2281
 5393SOL    HW128238   3.120   4.903   9.481  1.4394 -2.3515 -0.4378
 5393SOL    HW228239   3.124   4.896   9.644 -0.3364  1.2965 -0.1771
 5394SOL     OW28240   6.505   3.773   8.867 -0.8905 -0.1090  0.3129
 5394SOL    HW128241   6.525   3.820   8.780 -2.4705 -1.3024 -0.7202
 5394SOL    HW228242   6.548   3.683   8.866 -0.7709 -0.0578  0.8429
 5395SOL     OW28243   0.880   3.234   6.728 -0.2122 -0.0029 -0.3677
 5395SOL    HW128244   0.946   3.201   6.661 -0.2763  1.0265 -0.9517
 5395SOL    HW228245   0.917   3.314   6.775 -0.3638 -0.4325  0.4866
 5396SOL     OW28246   0.598   7.910   0.641 -0.2267 -0.5055 -0.0238
 5396SOL    HW128247   0.501   7.934   0.645  0.1722  1.2720 -0.4971
 5396SOL    HW228248   0.650   7.972   0.699  0.6186 -1.5472  0.3439
 5397SOL     OW28249   5.330   8.745   0.085  0.0204  0.3499  0.4048
 5397SOL    HW128250   5.325   8.845   0.082  0.6093  0.3613 -0.2491
 5397SOL    HW228251   5.241   8.708   0.109 -0.4789  0.9870 -0.4463
 5398SOL     OW28252   7.710   5.098   4.742  0.2935  0.2023  0.1765
 5398SOL    HW128253   7.621   5.073   4.704  1.2601 -1.5127 -1.0193
 5398SOL    HW228254   7.721   5.197   4.739 -1.7526  0.4710  0.7506
 5399SOL     OW28255   0.213   6.565   0.505 -0.2478 -0.0013  0.2955
 5399SOL    HW128256   0.203   6.664   0.504  0.2573  0.0490 -1.1019
 5399SOL    HW228257   0.302   6.540   0.467 -0.5075 -0.9963  0.3278
 5400SOL     OW28258   9.737   6.301   1.429  0.4628  0.1016  0.5431
 5400SOL    HW128259   9.701   6.274   1.340  1.7667 -0.1834  0.0985
 5400SOL    HW228260   9.774   6.221   1.476 -2.0364 -0.1362  2.2220
 5401SOL     OW28261   1.661   1.903   0.715  0.1444 -0.1641  0.0554
 5401SOL    HW128262   1.706   1.885   0.802 -1.2076  0.3162  0.8782
 5401SOL    HW228263   1.609   1.989   0.721 -1.8081 -1.2894 -0.4821
 5402SOL     OW28264   3.650   6.920   7.358  0.1649 -0.1863  0.4019
 5402SOL    HW128265   3.621   6.984   7.429 -0.3241 -0.2868  0.2953
 5402SOL    HW228266   3.658   6.968   7.271 -2.6079 -0.7638 -0.2002
 5403SOL     OW28267   1.281   0.274   1.890 -0.4331  0.1505  0.5965
 5403SOL    HW128268   1.186   0.261   1.916 -0.3081 -1.9194  0.1555
 5403SOL    HW228269   1.286   0.323   1.803 -0.9962  2.5490  1.8917
 5404SOL     OW28270   0.516   8.112   9.153 -0.5031  0.1699  0.6810
 5404SOL    HW128271   0.486   8.204   9.125  1.2927  1.1108  1.6932
 5404SOL    HW228272   0.523   8.108   9.253  0.3345 -0.7651  0.5966
 5405SOL     OW28273   9.548   0.348   1.120 -0.2626  0.4660  0.5194
 5405SOL    HW128274   9.592   0.362   1.031  0.0169  0.2639  0.6236
 5405SOL    HW228275   9.450   0.334   1.108 -0.2575  0.6493  0.2608
 5406SOL     OW28276   7.404   7.974   3.722  0.0413 -0.0615 -0.1659
 5406SOL    HW128277   7.405   7.877   3.747 -0.7179 -0.2945 -1.0230
 5406SOL    HW228278   7.352   7.986   3.637 -1.0056  1.2768  0.6498
 5407SOL     OW28279   7.597   7.120   6.949  0.3293 -0.1561  0.0455
 5407SOL    HW128280   7.575   7.033   6.991  0.9543 -1.1276 -1.5906
 5407SOL    HW228281   7.534   7.138   6.873  0.4585  0.6157  0.1094
 5408SOL     OW28282   3.610   0.461   0.676 -0.5403  0.2503 -0.2803
 5408SOL    HW128283   3.661   0.407   0.609  0.7381  1.5601 -0.3810
 5408SOL    HW228284   3.611   0.415   0.764 -0.7199 -0.6134 -0.7251
 5409SOL     OW28285   6.875   1.472   4.867  0.1775 -0.3855  0.2805
 5409SOL    HW128286   6.902   1.405   4.799 -0.5464 -1.3506  0.9243
 5409SOL    HW228287   6.933   1.553   4.860  0.4149 -0.6692 -1.1533
 5410SOL     OW28288   0.666   9.947   7.517 -0.0057  0.1978 -0.2474
 5410SOL    HW128289   0.683  10.028   7.461 -0.4821  0.2530 -0.3132
 5410SOL    HW228290   0.608   9.972   7.594  0.9635  0.2023  0.4953
 5411SOL     OW28291   4.542   6.896   9.222 -0.2260 -0.4074  0.1021
 5411SOL    HW128292   4.461   6.840   9.202 -0.5441 -0.0548  0.3775
 5411SOL    HW228293   4.543   6.918   9.319 -0.9503  1.3508 -0.2633
 5412SOL     OW28294   0.394   6.936   1.015 -0.4069 -0.0573 -0.2953
 5412SOL    HW128295   0.411   7.033   1.028  0.4000  0.0154 -1.8130
 5412SOL    HW228296   0.435   6.906   0.929 -0.2624 -1.8295  0.3683
 5413SOL     OW28297   4.617   6.931   1.848  0.0380  0.6095 -0.1248
 5413SOL    HW128298   4.578   6.861   1.788  0.5814  0.3847 -0.2180
 5413SOL    HW228299   4.708   6.957   1.814 -0.9917  2.8499 -1.3069
 5414SOL     OW28300   1.856   6.291   8.410 -0.1378 -0.2077  0.0911
 5414SOL    HW128301   1.763   6.327   8.404 -0.1707 -0.1959  0.6113
 5414SOL    HW228302   1.865   6.212   8.350 -0.8441 -0.9535  0.9366
 5415SOL     OW28303   1.069   2.235   3.566 -0.0242 -0.0007 -0.1595
 5415SOL    HW128304   1.151   2.217   3.621 -0.2549 -0.4852  0.0338
 5415SOL    HW228305   1.044   2.331   3.573  1.1995  0.4032 -1.1382
 5416SOL     OW28306   1.469   9.858   4.239 -0.1832  0.2776 -0.1135
 5416SOL    HW128307   1.532   9.791   4.279  0.4316  0.1011 -1.3714
 5416SOL    HW228308   1.502   9.950   4.258  0.0301  0.1981 -0.1011
 5417SOL     OW28309   0.306   9.024   5.078 -0.1797 -0.1222  0.3641
 5417SOL    HW128310   0.297   9.060   4.985  0.5678  4.1932  1.8639
 5417SOL    HW228311   0.218   9.032   5.125  0.2833  0.8513  1.0751
 5418SOL     OW28312   9.479   6.198   3.316 -0.0388  0.2739  0.5032
 5418SOL    HW128313   9.534   6.123   3.280  2.3512  0.8096  2.8856
 5418SOL    HW228314   9.494   6.206   3.415 -3.1038  1.5525  0.9190
 5419SOL     OW28315   7.220   7.620   1.806  0.3197 -0.6465 -0.0379
 5419SOL    HW128316   7.154   7.611   1.880  0.7682 -1.4913  0.2629
 5419SOL    HW228317   7.293   7.683   1.834 -0.7714  0.9204 -0.6747
 5420SOL     OW28318   1.336   0.550   7.611 -0.3059 -0.2930 -0.1275
 5420SOL    HW128319   1.317   0.593   7.523 -0.9858 -1.6308 -0.6595
 5420SOL    HW228320   1.354   0.620   7.680 -1.3661  0.8191 -0.9612
 5421SOL     OW28321   0.505   7.910   1.345  0.0669  0.1080 -0.1192
 5421SOL    HW128322   0.590   7.922   1.396 -0.7763 -0.3160  1.3839
 5421SOL    HW228323   0.477   7.814   1.349 -1.0239  0.4364  0.2532
 5422SOL     OW28324   2.671   2.176   8.584  0.9250 -0.1378 -0.7938
 5422SOL    HW128325   2.741   2.161   8.515 -1.2046 -1.4029 -2.7399
 5422SOL    HW228326   2.603   2.241   8.550  0.7194  0.4892  0.7592
 5423SOL     OW28327   3.835   9.879   2.500  0.3339  0.0569  0.7368
 5423SOL    HW128328   3.893   9.813   2.452 -1.5157 -0.8940 -0.2171
 5423SOL    HW228329   3.780   9.831   2.569 -0.3924  0.7296  0.6245
 5424SOL     OW28330   9.781   1.735   9.256 -0.3926  0.3680 -0.5498
 5424SOL    HW128331   9.715   1.660   9.259  0.4391 -0.3594 -0.0148
 5424SOL    HW228332   9.746   1.812   9.309 -0.9026  0.0678 -0.4398
 5425SOL     OW28333   1.042   8.741   4.413 -0.5203 -0.3600  0.5299
 5425SOL    HW128334   1.076   8.766   4.504 -1.9542  1.7890  0.4876
 5425SOL    HW228335   0.979   8.664   4.421  0.1065 -0.8113  1.2239
 5426SOL     OW28336   1.383   7.066   1.176  0.4005 -0.4919  0.2643
 5426SOL    HW128337   1.304   7.006   1.191  0.5891 -1.1914 -1.3923
 5426SOL    HW228338   1.439   7.069   1.258 -1.9002  0.8590  1.8367
 5427SOL     OW28339   3.315   0.587   4.649  0.7276 -0.2443 -0.0672
 5427SOL    HW128340   3.370   0.521   4.598 -0.3638 -1.0938 -0.1677
 5427SOL    HW228341   3.263   0.539   4.719 -0.8679  0.3452 -0.8159
 5428SOL     OW28342   1.042   2.692   0.347  0.2272 -0.0315 -0.1970
 5428SOL    HW128343   1.002   2.604   0.370 -2.1240  0.9169 -0.5219
 5428SOL    HW228344   1.009   2.721   0.257  1.2530  1.0179 -0.2448
 5429SOL     OW28345   3.696   9.464   5.528  0.1754 -0.2227  0.0576
 5429SOL    HW128346   3.672   9.511   5.613  0.8306  0.4123 -0.1061
 5429SOL    HW228347   3.614   9.451   5.473 -0.5346 -2.0134  1.4534
 5430SOL     OW28348   2.322   8.129   8.777  0.4724  0.4017 -0.2573
 5430SOL    HW128349   2.268   8.129   8.861  0.2196  0.8738 -0.4167
 5430SOL    HW228350   2.369   8.217   8.768  1.1257  0.0539 -0.2076
 5431SOL     OW28351   2.057   7.773   1.935  0.6873  0.3845 -0.7168
 5431SOL    HW128352   2.143   7.782   1.885  0.8764  2.3573 -0.0570
 5431SOL    HW228353   1.989   7.836   1.898  0.1206  0.2406  0.0550
 5432SOL     OW28354   4.289   7.853   0.104  0.0930  1.0453  0.2878
 5432SOL    HW128355   4.336   7.831   0.190  0.1149  0.9126  0.2425
 5432SOL    HW228356   4.210   7.912   0.124 -0.2508  0.5311  0.4684
 5433SOL     OW28357   7.737   5.666   9.891 -0.0479 -0.0530 -0.2385
 5433SOL    HW128358   7.656   5.665   9.950 -0.8320  0.2906 -1.2934
 5433SOL    HW228359   7.819   5.657   9.947 -0.6767  2.1324  1.1002
 5434SOL     OW28360   9.315   6.800   5.061 -0.4205  0.0705  0.5673
 5434SOL    HW128361   9.337   6.734   4.988 -0.4762  1.8729 -1.1189
 5434SOL    HW228362   9.223   6.835   5.046  0.3455  2.0024  0.3226
 5435SOL     OW28363   7.647   4.235   0.454 -0.1797  0.1024  0.1409
 5435SOL    HW128364   7.602   4.324   0.464  0.3837  0.2589  1.3337
 5435SOL    HW228365   7.695   4.213   0.538  0.1408 -1.0867 -0.3544
 5436SOL     OW28366   5.562   7.074   1.122  0.0810 -0.0313  0.8620
 5436SOL    HW128367   5.473   7.102   1.086  0.6361  2.4949  1.4001
 5436SOL    HW228368   5.554   7.056   1.220  0.1596  0.1186  0.8951
 5437SOL     OW28369   6.943   9.417   7.298  0.0225 -0.4592  0.0894
 5437SOL    HW128370   7.038   9.385   7.297  0.2265  0.1473  0.0375
 5437SOL    HW228371   6.935   9.497   7.358 -0.2851  0.0034 -0.5624
 5438SOL     OW28372   4.125   8.330   1.535  0.3511  0.1021  0.3224
 5438SOL    HW128373   4.212   8.343   1.488  1.0954  1.3733  2.0314
 5438SOL    HW228374   4.129   8.247   1.590 -0.1410 -0.7746 -0.9119
 5439SOL     OW28375   7.079   3.586   9.275  0.1685  0.2300 -0.0523
 5439SOL    HW128376   7.045   3.549   9.361  0.1773  0.3150 -0.0116
 5439SOL    HW228377   7.114   3.512   9.219 -0.6657  0.0697 -0.3632
 5440SOL     OW28378   8.322   8.151   7.488 -0.8150 -0.5228 -0.0766
 5440SOL    HW128379   8.326   8.065   7.436 -1.5231 -0.4790 -0.2142
 5440SOL    HW228380   8.239   8.200   7.464  0.3016  0.9001 -1.0741
 5441SOL     OW28381   0.880   6.298   9.184  0.0452  0.3803 -0.2608
 5441SOL    HW128382   0.885   6.373   9.118  1.3913  0.1752 -0.4186
 5441SOL    HW228383   0.929   6.324   9.267  1.9364 -0.9020 -0.9210
 5442SOL     OW28384   4.482   9.697   7.763 -0.0746 -0.3931 -0.3719
 5442SOL    HW128385   4.405   9.760   7.771  0.1577  0.0975 -1.9880
 5442SOL    HW228386   4.448   9.603   7.764 -0.5691 -0.2124  0.2969
 5443SOL     OW28387   0.502   7.420   7.461 -0.4614 -0.5453 -0.1536
 5443SOL    HW128388   0.575   7.487   7.449 -0.8713  0.0114  0.4449
 5443SOL    HW228389   0.414   7.466   7.467 -0.8268 -1.1877 -0.4466
 5444SOL     OW28390   0.051   9.605   0.532  0.2026  0.1816  0.0194
 5444SOL    HW128391   0.073   9.517   0.490  0.4248  0.3751 -0.2647
 5444SOL    HW228392  -0.034   9.640   0.494  0.2899  0.2541 -0.1078
 5445SOL     OW28393   1.937   2.666   2.130 -0.4489  0.2639 -0.0088
 5445SOL    HW128394   2.019   2.714   2.099  0.4962  0.6185  2.8485
 5445SOL    HW228395   1.963   2.590   2.189 -2.0684 -1.9652 -2.0583
 5446SOL     OW28396   8.319   8.736   2.794  0.2083 -0.7232  0.6267
 5446SOL    HW128397   8.251   8.673   2.758  0.6992  0.3808 -2.4858
 5446SOL    HW228398   8.277   8.825   2.812  0.4052 -0.6080  0.5359
 5447SOL     OW28399   8.842   0.286   8.342  0.2969  0.9592  0.4924
 5447SOL    HW128400   8.813   0.319   8.253 -0.6022  0.8510  0.7439
 5447SOL    HW228401   8.763   0.281   8.404  0.3892 -1.6745  0.4589
 5448SOL     OW28402   5.930   8.568   0.977 -0.3532  0.2440  0.7287
 5448SOL    HW128403   5.985   8.599   1.054  1.7868  1.6917 -1.3276
 5448SOL    HW228404   5.989   8.546   0.900 -2.6957  3.8939 -2.2897
 5449SOL     OW28405   6.899   1.530   0.238  0.1999 -0.1691 -0.3657
 5449SOL    HW128406   6.868   1.473   0.315 -3.6621  0.7993 -1.0861
 5449SOL    HW228407   6.909   1.625   0.268 -0.9105  0.1351 -0.9262
 5450SOL     OW28408   0.844   4.341   3.514 -0.0337 -0.1946 -0.4499
 5450SOL    HW128409   0.925   4.374   3.563 -0.1316  0.5049 -0.7506
 5450SOL    HW228410   0.766   4.342   3.576 -0.0400  0.1628 -0.4620
 5451SOL     OW28411   0.588   1.256   4.385 -0.2159 -0.3161  0.3335
 5451SOL    HW128412   0.620   1.259   4.480 -0.6958 -0.6032  0.5084
 5451SOL    HW228413   0.574   1.160   4.358  1.4964 -0.3301 -0.5649
 5452SOL     OW28414   3.035   7.233   4.371 -0.2164 -0.5805  0.3411
 5452SOL    HW128415   3.090   7.179   4.434  1.1295  0.1125 -0.2047
 5452SOL    HW228416   2.996   7.312   4.419  1.9273  0.7029  0.0288
 5453SOL     OW28417   5.329   3.948   2.866  0.1566 -0.2035  0.5801
 5453SOL    HW128418   5.320   4.047   2.878 -0.3350 -0.3820  1.7489
 5453SOL    HW228419   5.327   3.903   2.955 -0.4818 -1.3389  0.0063
 5454SOL     OW28420   4.161   9.031   8.509 -0.6632 -0.0155 -0.1595
 5454SOL    HW128421   4.145   9.130   8.512  0.8892  0.2971 -1.3790
 5454SOL    HW228422   4.260   9.014   8.505 -0.7775 -1.7079  2.9436
 5455SOL     OW28423   2.365   4.710   0.031 -0.3376 -0.0240 -0.3562
 5455SOL    HW128424   2.327   4.716  -0.062  0.6751 -1.9456 -0.9321
 5455SOL    HW228425   2.440   4.775   0.041  0.6932 -1.0184 -1.4792
 5456SOL     OW28426   2.426   2.667   8.992 -0.3286  0.0671 -0.2391
 5456SOL    HW128427   2.400   2.577   9.028 -2.1918  0.8394  0.3739
 5456SOL    HW228428   2.513   2.659   8.943 -0.9920 -2.2907 -1.1198
 5457SOL     OW28429   2.375   0.141   2.418  0.1709  0.6170 -0.5020
 5457SOL    HW128430   2.445   0.185   2.361  0.6090  1.4192  0.6278
 5457SOL    HW228431   2.417   0.069   2.473 -0.0721  0.4458 -0.5403
 5458SOL     OW28432   0.626   0.190   1.931  0.5197 -0.2473  0.0616
 5458SOL    HW128433   0.559   0.196   2.006  0.9573 -0.5442  0.4797
 5458SOL    HW228434   0.714   0.162   1.968  1.0057  0.6307 -0.4132
 5459SOL     OW28435   2.131   2.214   3.281 -0.1663 -0.2400 -0.3499
 5459SOL    HW128436   2.096   2.260   3.363  0.7089  1.3079 -0.8373
 5459SOL    HW228437   2.180   2.131   3.309  1.5504  1.1342  0.8636
 5460SOL     OW28438   9.765   1.217   2.458 -0.2126 -0.3731  0.2238
 5460SOL    HW128439   9.691   1.278   2.428  0.5810  0.0963 -0.8362
 5460SOL    HW228440   9.772   1.219   2.557 -0.1398  1.3437  0.1957
 5461SOL     OW28441   8.287   3.968   3.455 -0.0922 -0.2437 -0.0362
 5461SOL    HW128442   8.286   4.067   3.472  1.7058 -0.2227  0.1181
 5461SOL    HW228443   8.378   3.941   3.423 -0.6552 -1.8095 -0.3757
 5462SOL     OW28444   2.107   0.573   4.196 -0.4882 -0.3865  0.0398
 5462SOL    HW128445   2.017   0.609   4.220  0.6844  2.1514  0.9234
 5462SOL    HW228446   2.121   0.580   4.097 -1.0464 -0.2133 -0.0270
 5463SOL     OW28447   0.186   4.419   7.377  0.7498 -0.2814  0.1090
 5463SOL    HW128448   0.093   4.385   7.396 -0.3576  2.2962 -0.5470
 5463SOL    HW228449   0.252   4.351   7.409 -1.2887 -0.9906  3.1123
 5464SOL     OW28450   9.595   0.796   9.949 -0.2568  0.0318 -0.2408
 5464SOL    HW128451   9.510   0.823   9.905  0.0773 -0.1048 -0.9896
 5464SOL    HW228452   9.587   0.806  10.048 -0.7123  1.2491 -0.3890
 5465SOL     OW28453   4.060   7.312   4.394  0.1554 -0.3018  0.5523
 5465SOL    HW128454   4.139   7.264   4.356 -1.0860 -0.6744 -1.6453
 5465SOL    HW228455   4.014   7.254   4.461 -0.4651 -1.6351 -0.9954
 5466SOL     OW28456   1.911   2.575   2.736  0.1072 -1.0200  0.4510
 5466SOL    HW128457   1.821   2.563   2.694  0.1238 -1.2710  0.4865
 5466SOL    HW228458   1.935   2.493   2.788  0.2418 -0.8502  0.6592
 5467SOL     OW28459   0.342   9.055   4.779  0.2668 -0.3995  0.6856
 5467SOL    HW128460   0.411   9.120   4.747  0.6369 -2.1164 -2.2062
 5467SOL    HW228461   0.383   8.964   4.786 -0.5119 -0.5869  3.6757
 5468SOL     OW28462   1.559   7.444   8.937  0.0079 -0.2455  0.1986
 5468SOL    HW128463   1.520   7.481   9.021 -1.7133 -0.8514 -0.3234
 5468SOL    HW228464   1.622   7.370   8.960 -0.9837 -0.8766  0.9290
 5469SOL     OW28465   2.305   2.045   1.029  0.2378 -0.1889 -0.1906
 5469SOL    HW128466   2.273   1.958   0.991 -0.6796  0.2301 -0.4019
 5469SOL    HW228467   2.287   2.048   1.127 -2.3269  0.8596 -0.6322
 5470SOL     OW28468   4.373   6.431   8.437 -0.2665  0.2441  0.3347
 5470SOL    HW128469   4.443   6.360   8.428 -0.6787 -0.0223 -0.8206
 5470SOL    HW228470   4.285   6.395   8.407 -0.3473  1.4628 -0.9439
 5471SOL     OW28471   0.973   9.231   9.035 -0.5386 -0.0038  0.3809
 5471SOL    HW128472   0.967   9.167   8.958 -0.6440  3.6075 -2.7468
 5471SOL    HW228473   1.068   9.255   9.051 -0.5921 -0.1023  0.8626
 5472SOL     OW28474   0.544   2.096   0.877 -0.6848  0.4288  0.2873
 5472SOL    HW128475   0.620   2.119   0.816  0.0607  1.2424  1.4940
 5472SOL    HW228476   0.473   2.048   0.825  0.0698  0.8143 -1.1402
 5473SOL     OW28477   2.251   7.498   2.492  0.0804  0.1045 -0.0605
 5473SOL    HW128478   2.160   7.530   2.517  0.7345  1.6529  0.3964
 5473SOL    HW228479   2.243   7.416   2.434 -1.6988  1.9117 -2.4754
 5474SOL     OW28480   2.769   0.339   0.635  0.1022  0.0614  0.4841
 5474SOL    HW128481   2.739   0.243   0.645 -3.3118  1.1982  2.0787
 5474SOL    HW228482   2.717   0.382   0.561 -0.6097  1.4919  1.7904
 5475SOL     OW28483   2.074   7.410   6.103  0.1843  0.4269  0.3544
 5475SOL    HW128484   2.064   7.355   6.185  1.2732 -0.5239 -0.1272
 5475SOL    HW228485   1.999   7.476   6.097  0.5491  1.0714  2.5311
 5476SOL     OW28486   2.026   7.555   9.748  0.7830 -0.2872  0.0299
 5476SOL    HW128487   2.109   7.522   9.792  0.2198 -1.3744  0.2927
 5476SOL    HW228488   1.948   7.539   9.808  0.2072 -0.4455 -0.7459
 5477SOL     OW28489   3.467   5.561   8.418  0.2755 -0.1379  0.3322
 5477SOL    HW128490   3.421   5.530   8.501 -0.0684  0.9724  0.5657
 5477SOL    HW228491   3.401   5.562   8.343  0.0237  0.9820  0.5558
 5478SOL     OW28492   0.122   9.292   9.427 -0.5028 -0.2506  0.2361
 5478SOL    HW128493   0.105   9.216   9.364 -1.0351  0.1546 -0.1102
 5478SOL    HW228494   0.220   9.309   9.433 -0.3818 -0.9371  0.2813
 5479SOL     OW28495   9.071   2.125   2.255 -0.1186 -0.4101  0.8051
 5479SOL    HW128496   9.113   2.069   2.327  0.3986  0.4225  1.1542
 5479SOL    HW228497   9.057   2.218   2.289  0.5340  0.1088 -0.3168
 5480SOL     OW28498   1.011   9.867   8.002  0.0034 -0.3822 -0.0269
 5480SOL    HW128499   1.089   9.818   8.041  1.3681  1.4406 -0.3445
 5480SOL    HW228500   0.965   9.919   8.073  1.5174  1.6685 -0.4840
 5481SOL     OW28501   2.707   9.371   9.127 -0.7570 -0.0769  0.4764
 5481SOL    HW128502   2.780   9.376   9.196  0.1798 -2.0570 -0.3309
 5481SOL    HW228503   2.731   9.428   9.049 -0.4529 -0.0983  0.5517
 5482SOL     OW28504   8.832   5.146   1.926  0.0889 -0.7402 -0.1302
 5482SOL    HW128505   8.808   5.203   2.005 -0.9779 -1.7845  0.3171
 5482SOL    HW228506   8.893   5.197   1.865  1.5348 -0.1668  1.7231
 5483SOL     OW28507   8.962   7.297   9.944  0.5366 -0.6010  0.5674
 5483SOL    HW128508   8.952   7.311  10.043  0.0618  0.2335  0.4051
 5483SOL    HW228509   9.013   7.212   9.928  4.4786  1.4313  1.6000
 5484SOL     OW28510   6.043   5.908   0.088 -0.1395  0.9487  0.0751
 5484SOL    HW128511   6.119   5.971   0.102  0.2777  0.7610 -1.2781
 5484SOL    HW228512   5.974   5.922   0.160  1.1602  1.1072  1.3020
 5485SOL     OW28513   8.319   9.221   9.162 -0.0481 -0.0476 -0.1137
 5485SOL    HW128514   8.295   9.142   9.105 -1.2048  0.8728 -0.9430
 5485SOL    HW228515   8.283   9.207   9.254 -0.4895 -0.3730 -0.3315
 5486SOL     OW28516   3.885   7.313   8.933  0.0280 -0.3941 -0.2331
 5486SOL    HW128517   3.858   7.392   8.988  1.3188 -0.5274  0.6075
 5486SOL    HW228518   3.803   7.265   8.900 -0.7587  1.1232 -0.5205
 5487SOL     OW28519   1.594   1.399   7.625  0.0620 -0.1392  0.2210
 5487SOL    HW128520   1.602   1.371   7.720 -1.2057 -0.8410  0.1347
 5487SOL    HW228521   1.503   1.374   7.590  0.7624 -0.5329 -1.3820
 5488SOL     OW28522   0.245   6.679   1.306  0.4539  0.2962 -0.1236
 5488SOL    HW128523   0.166   6.618   1.309 -0.5196  1.4252 -1.8369
 5488SOL    HW228524   0.259   6.719   1.397  0.3215 -1.4773  0.6855
 5489SOL     OW28525   9.209   3.407   4.599 -0.6580  0.5186 -0.4978
 5489SOL    HW128526   9.220   3.465   4.519 -0.3836  1.9422  0.5535
 5489SOL    HW228527   9.113   3.408   4.628 -1.2255 -1.8311 -2.1478
 5490SOL     OW28528   6.990   3.149   1.988  0.2137  0.5341  0.4380
 5490SOL    HW128529   6.935   3.226   2.019 -0.7831  0.2596 -0.6256
 5490SOL    HW228530   6.930   3.078   1.951  1.1320 -0.7038  1.2997
 5491SOL     OW28531   2.127   3.305   1.967 -0.6602 -0.0966 -0.3345
 5491SOL    HW128532   2.061   3.345   1.904 -0.2600 -0.5497 -1.0429
 5491SOL    HW228533   2.201   3.370   1.983 -1.1657  0.3343  0.3075
 5492SOL     OW28534   2.289   5.220   7.370  0.7906  0.5497  0.2101
 5492SOL    HW128535   2.387   5.204   7.382  0.8207  0.4079 -0.2296
 5492SOL    HW228536   2.274   5.309   7.328  0.7195  0.6821  0.5153
 5493SOL     OW28537   7.158   9.109   7.489 -0.3101 -0.0455 -0.1859
 5493SOL    HW128538   7.068   9.093   7.528 -0.3251 -1.4156 -0.7691
 5493SOL    HW228539   7.228   9.099   7.560 -0.6525  1.6730  0.4151
 5494SOL     OW28540   9.320   0.730   8.693  0.2316  0.1991 -0.6361
 5494SOL    HW128541   9.249   0.733   8.763 -0.1302  2.0326 -1.0598
 5494SOL    HW228542   9.408   0.708   8.736 -0.6163 -2.4515 -0.1651
 5495SOL     OW28543   1.145   4.182   6.234  0.1044  0.0215 -0.3338
 5495SOL    HW128544   1.230   4.210   6.277 -1.1446  0.1868  2.1632
 5495SOL    HW228545   1.118   4.249   6.165  0.8008  1.2096  0.5291
 5496SOL     OW28546   6.190   7.001   2.097  0.3676 -0.8936  0.0599
 5496SOL    HW128547   6.138   7.086   2.101  0.6034 -0.8046  1.2068
 5496SOL    HW228548   6.285   7.018   2.120  1.1230 -0.9228 -2.8105
 5497SOL     OW28549   1.563   9.434   7.833  0.1925  1.0926 -0.3372
 5497SOL    HW128550   1.565   9.369   7.757 -0.5975  0.9660 -0.2520
 5497SOL    HW228551   1.605   9.520   7.804  1.8497  0.3352 -0.2423
 5498SOL     OW28552   6.968   4.877   9.630  0.3720  0.3676  0.2567
 5498SOL    HW128553   6.974   4.900   9.727 -0.4077 -0.1518  0.4321
 5498SOL    HW228554   6.928   4.954   9.580 -3.0429 -0.8648  0.9713
 5499SOL     OW28555   3.466   0.812   9.404 -0.2457 -0.3603 -0.1952
 5499SOL    HW128556   3.458   0.741   9.473 -0.5040 -0.1346  0.0108
 5499SOL    HW228557   3.561   0.839   9.394 -0.2576 -0.1162  0.3537
 5500SOL     OW28558   6.323   6.845   6.950 -0.6424  0.4395 -0.5975
 5500SOL    HW128559   6.276   6.758   6.938  0.5434 -0.4048  0.6559
 5500SOL    HW228560   6.284   6.895   7.028 -1.2810  1.0098 -1.2760
 5501SOL     OW28561   1.509   8.224   6.174 -0.0299  0.1993 -0.0004
 5501SOL    HW128562   1.489   8.165   6.096  0.2863  1.1357 -0.7897
 5501SOL    HW228563   1.477   8.179   6.258 -1.3216 -0.3430 -0.7642
 5502SOL     OW28564   1.827   5.501   0.555 -0.6774 -0.1939 -0.2539
 5502SOL    HW128565   1.778   5.427   0.600 -0.4936 -1.5683 -2.2709
 5502SOL    HW228566   1.914   5.518   0.602 -1.8768  0.5129  1.7676
 5503SOL     OW28567   9.812   3.746   1.043  0.4483 -0.3094  0.5656
 5503SOL    HW128568   9.734   3.809   1.039  0.3307 -0.5302 -0.6953
 5503SOL    HW228569   9.870   3.770   1.121 -1.3086 -0.6411  2.0336
 5504SOL     OW28570   0.260   8.222   3.218 -0.6238 -0.0283  0.3802
 5504SOL    HW128571   0.191   8.161   3.178  0.6271 -1.8203  0.8819
 5504SOL    HW228572   0.313   8.265   3.145 -0.3273 -0.9591  0.0331
 5505SOL     OW28573   1.110   8.426   5.862  0.3230 -0.1417 -0.2598
 5505SOL    HW128574   1.029   8.437   5.805 -2.0767 -1.2920  2.7688
 5505SOL    HW228575   1.158   8.513   5.870 -1.9863  1.1541 -0.1696
 5506SOL     OW28576   1.835   0.018   8.909 -0.3208 -0.5724  0.5311
 5506SOL    HW128577   1.749  -0.025   8.935 -0.9390  0.3095 -0.0212
 5506SOL    HW228578   1.822   0.117   8.904 -0.3170 -0.6956 -3.4054
 5507SOL     OW28579   9.133   2.188   9.342  0.5041 -0.2722 -0.1035
 5507SOL    HW128580   9.131   2.286   9.321  2.1452 -0.0662  0.6160
 5507SOL    HW228581   9.088   2.137   9.268 -1.3357  1.0926  0.0549
 5508SOL     OW28582   0.906   3.205   9.911 -0.2147  1.2029 -0.1341
 5508SOL    HW128583   0.918   3.304   9.906 -0.6877  1.2415 -0.5151
 5508SOL    HW228584   0.910   3.176  10.006 -1.7071  1.7988  0.1212
 5509SOL     OW28585   0.747   3.006   3.460  0.3266 -0.1050  0.5830
 5509SOL    HW128586   0.700   2.927   3.500 -0.7898  1.0769  1.6212
 5509SOL    HW228587   0.705   3.028   3.371 -0.2532  0.1598  0.9193
 5510SOL     OW28588   8.547   5.079   2.368  0.5939 -0.0842  0.3510
 5510SOL    HW128589   8.492   5.030   2.300 -0.3119 -0.4866  1.3738
 5510SOL    HW228590   8.644   5.072   2.342  0.2303  0.0734 -1.0896
 5511SOL     OW28591   9.056   5.996   3.839 -0.5450  0.0699 -0.2316
 5511SOL    HW128592   9.040   5.912   3.788 -1.2776 -0.3234  0.6404
 5511SOL    HW228593   9.046   6.074   3.777  0.5536 -0.4913 -1.1342
 5512SOL     OW28594   1.705   2.013   7.359 -0.4148 -0.2294 -0.3583
 5512SOL    HW128595   1.616   1.994   7.400 -0.2833 -0.6663 -0.2671
 5512SOL    HW228596   1.695   2.081   7.287 -0.9200 -0.7317 -0.7681
 5513SOL     OW28597   6.087   2.005   9.919  0.3399 -0.0572 -0.0659
 5513SOL    HW128598   6.122   2.038  10.007 -0.1336  0.4126 -0.0532
 5513SOL    HW228599   6.107   2.072   9.848  0.9216 -0.5376 -0.3671
 5514SOL     OW28600   8.415   0.315   9.461 -0.1996  0.1831  0.3295
 5514SOL    HW128601   8.477   0.236   9.452 -0.8992 -0.3105 -0.1761
 5514SOL    HW228602   8.459   0.396   9.421  0.7299  0.1684  1.2932
 5515SOL     OW28603   2.656   4.840   9.568 -0.0755  0.3248  0.1790
 5515SOL    HW128604   2.727   4.893   9.616  0.1097  1.0467 -0.8475
 5515SOL    HW228605   2.666   4.855   9.469  0.0898 -1.7968 -0.1453
 5516SOL     OW28606   2.196   9.653   4.485 -0.0529  0.1473  0.2573
 5516SOL    HW128607   2.198   9.683   4.580  1.5776  0.3507  0.1795
 5516SOL    HW228608   2.288   9.623   4.458 -0.5645 -0.1766 -1.1663
 5517SOL     OW28609   2.075   5.303   5.506  0.0012 -0.2774 -0.5581
 5517SOL    HW128610   2.085   5.402   5.520 -0.0436 -0.5138  1.2225
 5517SOL    HW228611   2.128   5.254   5.576 -0.8903 -1.5134 -0.7389
 5518SOL     OW28612   8.828   0.517   7.201  0.1727  0.0625  0.2820
 5518SOL    HW128613   8.904   0.513   7.266  1.1986 -0.0719 -0.9004
 5518SOL    HW228614   8.820   0.610   7.165 -0.5753  0.2049  0.8006
 5519SOL     OW28615   0.977   4.247   4.862 -0.6081 -0.2716  0.5006
 5519SOL    HW128616   0.921   4.164   4.874  0.1485 -0.9539 -0.5516
 5519SOL    HW228617   0.997   4.287   4.951 -2.8959  0.0756  0.8872
 5520SOL     OW28618   9.881   1.871   0.544 -0.6176  0.1680 -0.5149
 5520SOL    HW128619   9.938   1.938   0.497 -1.5319  2.2947  1.2787
 5520SOL    HW228620   9.790   1.910   0.559  0.0979  0.2987  4.4276
 5521SOL     OW28621   4.067   0.449   3.669  0.2236 -0.6262  0.0019
 5521SOL    HW128622   3.998   0.462   3.740  0.0187 -0.6025 -0.1973
 5521SOL    HW228623   4.034   0.382   3.602  0.9707 -1.6369  0.6344
 5522SOL     OW28624   8.773   0.570   4.998  0.0696  0.2075  0.5528
 5522SOL    HW128625   8.828   0.654   4.996  0.7151 -0.2010  0.8944
 5522SOL    HW228626   8.766   0.533   4.906 -1.2003  1.2573  0.2064
 5523SOL     OW28627   8.575   0.834   2.041 -0.6417  0.2145  0.7475
 5523SOL    HW128628   8.556   0.829   1.943 -0.3250 -0.1450  0.7011
 5523SOL    HW228629   8.603   0.927   2.065  0.1192  0.0957  0.3390
 5524SOL     OW28630   2.463   7.728   1.041  0.0927  0.2612 -0.7295
 5524SOL    HW128631   2.483   7.634   1.017 -1.4534 -0.0082 -1.0074
 5524SOL    HW228632   2.437   7.733   1.138 -1.3774  0.1451 -1.1041
 5525SOL     OW28633   2.773   4.805   6.218 -0.0897 -0.3763  0.2847
 5525SOL    HW128634   2.756   4.804   6.120 -0.7795 -0.7162  0.4029
 5525SOL    HW228635   2.709   4.866   6.264  0.1290 -0.3347  0.5430
 5526SOL     OW28636   8.480   8.964   8.796  0.1234 -0.1182 -0.1044
 5526SOL    HW128637   8.543   8.910   8.740  0.7493  0.5086 -0.0173
 5526SOL    HW228638   8.481   8.930   8.890 -0.3115 -0.6480 -0.2887
 5527SOL     OW28639   3.202   9.008   4.206 -0.6274  0.7248  0.1071
 5527SOL    HW128640   3.158   8.924   4.236 -0.7439  0.4195 -0.8984
 5527SOL    HW228641   3.152   9.046   4.128 -0.0763  1.2585  0.0050
 5528SOL     OW28642   2.063   2.215   9.556 -0.4041 -0.0060 -0.2937
 5528SOL    HW128643   2.156   2.210   9.519  0.0573  0.0561  0.8441
 5528SOL    HW228644   2.029   2.309   9.549  0.5917  0.5038  1.6276
 5529SOL     OW28645   2.840   6.196   3.692 -0.3401 -0.0968  0.3104
 5529SOL    HW128646   2.826   6.248   3.607  0.1785 -0.0930  0.2250
 5529SOL    HW228647   2.881   6.107   3.670 -1.9172 -0.8668  0.3788
 5530SOL     OW28648   4.368   8.818   5.453 -0.1810 -0.0880 -0.4267
 5530SOL    HW128649   4.273   8.831   5.425 -0.3757  0.9743  0.6830
 5530SOL    HW228650   4.374   8.742   5.518  0.0075 -1.3511 -1.8982
 5531SOL     OW28651   9.018   9.506   4.125  0.1394  0.3328  0.2241
 5531SOL    HW128652   9.034   9.423   4.178  1.1074 -0.0564 -0.6692
 5531SOL    HW228653   8.941   9.490   4.062 -1.1900  0.8840  1.6676
 5532SOL     OW28654   8.626   6.964   5.618  0.1305 -0.7812 -0.0271
 5532SOL    HW128655   8.585   6.947   5.529 -1.4731 -2.0227  0.9050
 5532SOL    HW228656   8.618   7.061   5.642 -0.8661 -0.7385 -0.5371
 5533SOL     OW28657   0.468   0.258   8.754  0.5313  0.2220 -0.5219
 5533SOL    HW128658   0.483   0.160   8.742  0.8863  0.3540 -1.2182
 5533SOL    HW228659   0.539   0.296   8.813  1.2327  0.3084 -1.4032
 5534SOL     OW28660   1.809   0.574   0.521 -0.0582 -0.2338  0.4356
 5534SOL    HW128661   1.872   0.535   0.587  2.4540 -0.2248 -1.8710
 5534SOL    HW228662   1.798   0.672   0.538  2.8257  0.3587 -0.8253
 5535SOL     OW28663   0.155   0.848   1.567  0.1742 -0.5986 -0.2485
 5535SOL    HW128664   0.084   0.811   1.507  1.2323  0.1114 -1.9747
 5535SOL    HW228665   0.133   0.942   1.592  0.3695 -0.4510 -0.6122
 5536SOL     OW28666   0.517   9.970   0.284  0.4475 -0.4364 -0.0384
 5536SOL    HW128667   0.539   9.902   0.354  0.2449 -0.3756  0.0871
 5536SOL    HW228668   0.581  10.046   0.291  0.9725 -0.8383 -0.4934
 5537SOL     OW28669   3.954   3.661   6.893  0.1820 -0.2015 -0.7618
 5537SOL    HW128670   3.901   3.704   6.967  1.7763 -1.3469  1.0865
 5537SOL    HW228671   3.893   3.606   6.836 -0.9059 -0.0831  0.2641
 5538SOL     OW28672   3.964   8.297   0.991  0.4977 -0.7862  0.0177
 5538SOL    HW128673   3.874   8.281   1.030  0.1282 -1.6005 -1.1436
 5538SOL    HW228674   4.026   8.224   1.019  1.2797  0.6412  2.1894
 5539SOL     OW28675   9.214   3.419   1.718 -0.7513 -0.3495  0.6410
 5539SOL    HW128676   9.275   3.341   1.705 -1.9293 -1.1273 -0.4254
 5539SOL    HW228677   9.121   3.386   1.737 -1.3725  0.7647 -0.3633
 5540SOL     OW28678   1.980   8.169   2.775  0.5213 -0.0294 -0.2890
 5540SOL    HW128679   1.959   8.265   2.756  0.3362  0.1979  1.0107
 5540SOL    HW228680   1.895   8.119   2.790  0.6433 -0.2816 -0.4342
 5541SOL     OW28681   1.032   8.909   2.867  0.0640  0.0664  0.1667
 5541SOL    HW128682   0.990   8.925   2.956  2.9414  0.3013  1.5564
 5541SOL    HW228683   1.097   8.833   2.873 -2.3058 -2.3510 -2.6727
 5542SOL     OW28684   2.086   9.220   1.905  0.2564  0.1692  0.1955
 5542SOL    HW128685   2.167   9.260   1.861  0.5112 -0.9023 -0.3199
 5542SOL    HW228686   2.035   9.292   1.951  0.9283  1.0321 -0.3826
 5543SOL     OW28687   1.403   9.376   6.443  0.4234  0.6487 -0.0398
 5543SOL    HW128688   1.400   9.454   6.380 -2.3039 -0.7619 -1.7464
 5543SOL    HW228689   1.390   9.291   6.391 -1.5898 -0.5839  2.3895
 5544SOL     OW28690   1.471   8.951   0.693  0.2467 -0.0125  0.0583
 5544SOL    HW128691   1.391   8.996   0.734  0.5558  0.1332  0.5039
 5544SOL    HW228692   1.479   8.859   0.731  2.6173  1.3531  3.0849
 5545SOL     OW28693   2.543   2.018   5.901 -0.3674 -0.4175  0.1261
 5545SOL    HW128694   2.445   2.034   5.910 -0.2652  0.0520  0.3772
 5545SOL    HW228695   2.566   1.929   5.940 -1.0785 -1.6169 -2.0777
 5546SOL     OW28696   6.244   8.110   6.502 -0.1059 -0.2915 -0.0029
 5546SOL    HW128697   6.226   8.045   6.427  0.7701 -0.7878  0.2041
 5546SOL    HW228698   6.158   8.142   6.539 -0.5582 -0.9555 -0.4475
 5547SOL     OW28699   1.669   7.409   1.618 -0.0040  0.4670  0.3253
 5547SOL    HW128700   1.618   7.489   1.589 -0.3326  0.1135 -0.0605
 5547SOL    HW228701   1.678   7.409   1.718 -1.5258  0.0596  0.4672
 5548SOL     OW28702   2.410   7.642   4.549  0.1177 -0.3855 -0.2018
 5548SOL    HW128703   2.374   7.718   4.495 -1.7333 -1.1163 -0.0578
 5548SOL    HW228704   2.341   7.612   4.615  1.7285 -0.5988  1.4436
 5549SOL     OW28705   3.067   9.383   5.703 -0.1706 -0.1581  0.7455
 5549SOL    HW128706   3.026   9.456   5.757  0.5182  1.6147 -1.0470
 5549SOL    HW228707   2.995   9.330   5.657 -0.6200  0.1609  1.0899
 5550SOL     OW28708   1.734   0.798   2.224  0.0150  0.4127 -0.2266
 5550SOL    HW128709   1.683   0.717   2.195  0.6809  0.2460 -0.9491
 5550SOL    HW228710   1.682   0.847   2.294 -0.5070 -0.4966  0.0328
 5551SOL     OW28711   1.136   1.040   9.586 -0.2372  0.1660  0.2167
 5551SOL    HW128712   1.201   1.018   9.513  2.0182 -1.4938  2.6318
 5551SOL    HW228713   1.070   0.965   9.596 -0.7203  0.5192 -0.2669
 5552SOL     OW28714   8.250   2.630   9.694  0.5564  0.8816  0.1627
 5552SOL    HW128715   8.223   2.546   9.742  2.1686  0.0642 -0.3451
 5552SOL    HW228716   8.184   2.702   9.715 -1.0776 -0.6060  0.2989
 5553SOL     OW28717   7.140   0.668   4.572  0.0400  0.2287 -0.2878
 5553SOL    HW128718   7.081   0.604   4.523  0.6122 -0.9154  0.4804
 5553SOL    HW228719   7.095   0.697   4.656  0.3586 -0.2480  0.0476
 5554SOL     OW28720   1.908   6.588   3.492  0.0867 -0.3394 -0.0703
 5554SOL    HW128721   1.939   6.498   3.522 -1.2943 -0.7070  0.2872
 5554SOL    HW228722   1.873   6.640   3.570  0.5241  0.3693 -0.3354
 5555SOL     OW28723   0.602   8.715   0.166  0.4639 -0.5320 -0.3356
 5555SOL    HW128724   0.596   8.794   0.226  0.3617 -0.4942 -0.3937
 5555SOL    HW228725   0.547   8.640   0.203 -1.8794  0.4129 -1.7852
 5556SOL     OW28726   7.111   8.301   6.931 -0.1954 -0.5925 -0.0536
 5556SOL    HW128727   7.017   8.267   6.927 -0.8303  1.1404 -0.1156
 5556SOL    HW228728   7.171   8.229   6.967 -1.5926 -1.5763  0.3389
 5557SOL     OW28729   3.318   5.014   3.547 -0.0638 -0.0090  0.1349
 5557SOL    HW128730   3.236   5.012   3.490  1.2058 -1.0328 -1.7044
 5557SOL    HW228731   3.360   5.105   3.541 -0.0191 -0.0648 -0.4401
 5558SOL     OW28732   1.734   0.364   7.822  0.1058  0.2536  0.6748
 5558SOL    HW128733   1.737   0.291   7.754 -0.2176  1.1241 -0.2925
 5558SOL    HW228734   1.812   0.355   7.884  1.1890  0.2637 -0.6627
 5559SOL     OW28735   7.347   0.618   3.417 -0.4208  0.4855  0.3991
 5559SOL    HW128736   7.381   0.675   3.491  0.6318 -0.5929  0.7557
 5559SOL    HW228737   7.293   0.542   3.455 -0.0430  0.0403  0.0534
 5560SOL     OW28738   1.222   5.874   4.757 -0.4493 -0.4272 -0.1368
 5560SOL    HW128739   1.251   5.931   4.681  0.3420  0.3510  0.7404
 5560SOL    HW228740   1.123   5.878   4.766 -0.4964 -0.1014 -0.7878
 5561SOL     OW28741   9.169   2.224   1.741 -0.1486 -0.2296 -0.2933
 5561SOL    HW128742   9.244   2.247   1.802  0.0098 -1.3843 -0.0378
 5561SOL    HW228743   9.082   2.252   1.781 -0.0309 -0.8418  0.3866
 5562SOL     OW28744   6.332   0.614   7.452  0.3988  0.1244 -0.4125
 5562SOL    HW128745   6.407   0.639   7.513  1.1117 -0.5914 -0.9649
 5562SOL    HW228746   6.258   0.573   7.505  0.2437  1.1836  0.1844
 5563SOL     OW28747   8.597   4.803   2.291  0.1965 -0.4660  0.6262
 5563SOL    HW128748   8.622   4.756   2.206  0.0879 -1.1195  0.9551
 5563SOL    HW228749   8.661   4.878   2.307  0.8032 -0.9463  0.4733
 5564SOL     OW28750   0.266   3.901   5.825 -0.0931 -0.0491 -0.2544
 5564SOL    HW128751   0.219   3.858   5.749 -0.9188  0.6947 -0.1786
 5564SOL    HW228752   0.225   3.991   5.843  0.2751 -0.0947  0.8731
 5565SOL     OW28753   7.512   1.720   3.269  0.6309 -0.0189  0.5535
 5565SOL    HW128754   7.548   1.723   3.176  1.1164  2.8738  0.7889
 5565SOL    HW228755   7.568   1.658   3.324  0.2912 -1.8196 -1.0617
 5566SOL     OW28756   3.452   6.440   5.030  0.2095  0.1522  0.1130
 5566SOL    HW128757   3.477   6.535   5.017  0.8229  0.0672  0.6433
 5566SOL    HW228758   3.419   6.427   5.124 -0.6009 -0.0005 -0.1848
 5567SOL     OW28759   1.736   0.707   4.349 -0.1278 -0.2874  0.1228
 5567SOL    HW128760   1.749   0.790   4.403  0.0335 -0.5251  0.4549
 5567SOL    HW228761   1.665   0.650   4.391 -2.6385  1.2144 -1.9358
 5568SOL     OW28762   1.528   6.246   5.122  0.2791 -0.3168  0.1044
 5568SOL    HW128763   1.623   6.275   5.132  0.2202  0.9647 -2.6705
 5568SOL    HW228764   1.468   6.324   5.140 -0.1698 -0.5547 -0.3566
 5569SOL     OW28765   1.483   9.664   9.740  0.5399 -0.5138  0.3800
 5569SOL    HW128766   1.535   9.644   9.657  0.6168 -0.4557  0.4134
 5569SOL    HW228767   1.409   9.728   9.719 -0.4524 -1.7679  0.0362
 5570SOL     OW28768   3.390   0.490   1.091  0.1826 -0.1089 -0.2013
 5570SOL    HW128769   3.363   0.530   1.003  1.3603  0.2294 -0.4246
 5570SOL    HW228770   3.310   0.481   1.150 -0.2195  1.9445 -0.4079
 5571SOL     OW28771   8.917   4.501   4.637  0.2869  0.2586  0.3097
 5571SOL    HW128772   8.919   4.563   4.716  0.6151 -0.2855  0.7350
 5571SOL    HW228773   9.009   4.467   4.620  0.2391  0.4838 -0.4001
 5572SOL     OW28774   0.467   9.082   3.771 -0.1116 -0.1996  0.4501
 5572SOL    HW128775   0.378   9.037   3.757 -0.3857  0.7018 -0.8186
 5572SOL    HW228776   0.515   9.038   3.847 -0.6283 -2.2772 -0.3673
 5573SOL     OW28777   5.118   3.312   5.536 -0.4763 -0.2123  0.0498
 5573SOL    HW128778   5.135   3.335   5.632 -0.6065 -0.2450  0.0797
 5573SOL    HW228779   5.068   3.386   5.492 -0.2915 -0.1332 -0.0308
 5574SOL     OW28780   9.493   5.947   9.506 -0.2269 -0.9519 -0.5525
 5574SOL    HW128781   9.449   5.990   9.428 -0.6774 -1.1580 -0.4159
 5574SOL    HW228782   9.427   5.935   9.580  0.4697  0.2695  0.2787
 5575SOL     OW28783   3.773   5.409   6.594 -0.0564 -0.3079 -0.2329
 5575SOL    HW128784   3.682   5.446   6.613 -0.9153 -2.3791 -0.1754
 5575SOL    HW228785   3.782   5.319   6.637  0.9125 -1.4794 -2.7899
 5576SOL     OW28786   9.655   5.617   4.627 -0.2329 -0.3680  0.6468
 5576SOL    HW128787   9.753   5.600   4.615  0.0505  1.7133 -0.0934
 5576SOL    HW228788   9.638   5.656   4.717 -0.2914  0.0556  0.4504
 5577SOL     OW28789   2.114   4.207   2.513 -0.0153 -0.1682 -0.2423
 5577SOL    HW128790   2.128   4.288   2.457  1.5081 -0.4447 -0.2929
 5577SOL    HW228791   2.120   4.125   2.456 -1.6289 -0.3235 -0.2053
 5578SOL     OW28792   6.912   4.698   6.594 -0.6723  0.3298  0.0389
 5578SOL    HW128793   6.932   4.781   6.542  0.6624 -0.7585 -1.2403
 5578SOL    HW228794   6.980   4.687   6.667 -2.2555  1.5965  1.7432
 5579SOL     OW28795   8.080   8.062   4.326  0.7041 -0.4096 -0.4671
 5579SOL    HW128796   8.146   8.057   4.251 -0.4642  0.1781 -1.5669
 5579SOL    HW228797   8.111   8.006   4.402  3.0868  0.8522 -0.4744
 5580SOL     OW28798   9.683   9.331   6.528 -0.5306 -0.0478  0.7404
 5580SOL    HW128799   9.593   9.343   6.568  0.3647 -0.1760  2.8592
 5580SOL    HW228800   9.722   9.420   6.504 -1.2366  0.0005 -0.2449
 5581SOL     OW28801   1.567   1.939   5.474 -0.0721 -0.0819 -0.1359
 5581SOL    HW128802   1.661   1.933   5.440  0.3112  0.3328  0.8408
 5581SOL    HW228803   1.567   1.980   5.565 -0.9866 -2.1456  0.8316
 5582SOL     OW28804   3.836   9.199   4.879  0.4454  0.0640 -0.3269
 5582SOL    HW128805   3.911   9.265   4.885  0.9810 -0.5247 -0.3689
 5582SOL    HW228806   3.873   9.107   4.891 -0.3916 -0.1740  0.4714
 5583SOL     OW28807   1.198   5.917   2.552 -0.0912  0.3129  0.4244
 5583SOL    HW128808   1.297   5.915   2.567  0.0637  2.0419 -0.2519
 5583SOL    HW228809   1.155   5.845   2.606  1.5986 -0.9064  0.2063
 5584SOL     OW28810   8.801   4.281   9.438 -0.4503 -0.3979  0.2161
 5584SOL    HW128811   8.727   4.280   9.371  0.3356 -1.6716 -0.6561
 5584SOL    HW228812   8.767   4.319   9.525 -1.7757  0.1957 -0.5373
 5585SOL     OW28813   1.789   5.278   5.562 -0.0020  0.7907  0.0209
 5585SOL    HW128814   1.881   5.256   5.529 -0.8213  0.6233 -2.2032
 5585SOL    HW228815   1.744   5.194   5.593  0.2178  0.7236  0.1604
 5586SOL     OW28816   8.634   8.957   5.975  0.2393 -0.5338  0.5208
 5586SOL    HW128817   8.542   8.994   5.960  1.0176  1.6899  0.9195
 5586SOL    HW228818   8.691   8.979   5.896  0.7823 -0.7285  0.8565
 5587SOL     OW28819   2.995   9.195   3.073  0.1787  0.2316 -0.1113
 5587SOL    HW128820   2.899   9.224   3.073  0.0251 -0.1874 -1.5631
 5587SOL    HW228821   3.036   9.214   3.162 -1.1760  0.6669  0.4404
 5588SOL     OW28822   2.496   0.262   4.628  0.2689 -0.1269  0.2436
 5588SOL    HW128823   2.560   0.316   4.574  1.2109 -1.1132  0.3628
 5588SOL    HW228824   2.427   0.322   4.667  0.4674  0.7948 -0.8058
 5589SOL     OW28825   1.089   5.772   5.053  0.1600  0.1069 -0.6765
 5589SOL    HW128826   1.134   5.769   5.141  0.4755  2.9087 -0.7064
 5589SOL    HW228827   1.156   5.763   4.980  0.1705  0.0401 -0.6583
 5590SOL     OW28828   1.914   3.069   0.853 -0.3830 -0.0261 -0.3525
 5590SOL    HW128829   1.966   3.001   0.906  0.9418 -0.5264 -2.2623
 5590SOL    HW228830   1.830   3.091   0.902 -0.1402 -1.9621  1.0090
 5591SOL     OW28831   0.742   1.830   3.208 -0.1508  0.6697 -0.6739
 5591SOL    HW128832   0.700   1.871   3.127 -0.8799  1.0747 -0.0934
 5591SOL    HW228833   0.836   1.863   3.218 -1.2878  3.6039  0.7838
 5592SOL     OW28834   8.963   3.028   3.031  0.3616  0.0635  0.0900
 5592SOL    HW128835   8.896   3.070   2.970  0.5417  1.3538  0.7446
 5592SOL    HW228836   9.002   3.099   3.090  1.3410 -0.8974  0.6100
 5593SOL     OW28837   9.895   4.297   0.829 -0.4988  0.4354 -0.0889
 5593SOL    HW128838   9.947   4.328   0.909 -0.8530 -0.2920  0.4233
 5593SOL    HW228839   9.806   4.263   0.858 -1.0952  1.2571 -0.9240
 5594SOL     OW28840   3.387   0.446   4.373  0.2097  0.2212  0.3117
 5594SOL    HW128841   3.405   0.528   4.318 -2.2652  2.2749  2.4185
 5594SOL    HW228842   3.466   0.428   4.432  1.0825  0.6072 -0.7175
 5595SOL     OW28843   2.606   0.552   1.275  0.2458  0.2318  0.2519
 5595SOL    HW128844   2.597   0.479   1.208  1.4001  1.2563 -1.0676
 5595SOL    HW228845   2.613   0.640   1.227 -0.0353  1.0862  1.7640
 5596SOL     OW28846   9.850   5.909   8.839  0.1163  0.5781  0.1310
 5596SOL    HW128847   9.879   5.969   8.765  0.8441  2.2183  1.6995
 5596SOL    HW228848   9.928   5.852   8.868  0.0106  0.3955  0.0533
 5597SOL     OW28849   9.938   0.202   8.170 -0.0669  0.2779 -0.2241
 5597SOL    HW128850   9.883   0.121   8.191 -1.4724  1.1236 -0.5902
 5597SOL    HW228851   9.904   0.280   8.223  0.3342  0.9655 -0.9743
 5598SOL     OW28852   2.672   3.502   7.099 -0.3714 -0.0607 -0.2099
 5598SOL    HW128853   2.579   3.527   7.128 -0.1285  0.7014 -0.0840
 5598SOL    HW228854   2.670   3.411   7.057 -1.2436  0.1005 -0.5353
 5599SOL     OW28855   3.052   6.024   3.372  0.0880  0.3880 -0.4956
 5599SOL    HW128856   3.018   6.117   3.385 -1.0747 -0.0771 -0.0865
 5599SOL    HW228857   2.974   5.962   3.359  0.9118 -0.1395 -3.4053
 5600SOL     OW28858   8.864   7.046   7.051  0.0763 -0.7472 -0.0761
 5600SOL    HW128859   8.796   7.071   7.121  0.1789  1.2820 -0.6574
 5600SOL    HW228860   8.902   6.957   7.072 -2.2391 -1.6091  0.6808
 5601SOL     OW28861   0.556   6.434   3.931  0.4541 -0.3455  1.3005
 5601SOL    HW128862   0.488   6.473   3.994 -0.0919 -1.5106  1.4387
 5601SOL    HW228863   0.644   6.479   3.946  0.0801  0.1111  2.1942
 5602SOL     OW28864   4.194   8.893   2.382 -0.0179 -0.1489 -0.1940
 5602SOL    HW128865   4.231   8.830   2.450 -1.6906 -0.6500  0.2812
 5602SOL    HW228866   4.248   8.887   2.298  1.6252 -0.0393  0.8332
 5603SOL     OW28867   2.128   2.331   8.455  0.3005  0.3355  0.6841
 5603SOL    HW128868   2.087   2.376   8.376 -1.9236  0.6160  1.9755
 5603SOL    HW228869   2.059   2.318   8.526  2.0076 -0.9214  2.1572
 5604SOL     OW28870   7.836   0.899   2.483  0.1433  0.0320 -0.0155
 5604SOL    HW128871   7.823   0.826   2.417 -0.4543 -1.0079  1.2451
 5604SOL    HW228872   7.769   0.972   2.466 -2.2069 -1.7186  1.4939
 5605SOL     OW28873   7.098   0.713   6.307 -0.1715 -0.1159  0.3390
 5605SOL    HW128874   7.094   0.807   6.274 -1.2038 -0.3261 -0.1905
 5605SOL    HW228875   7.086   0.650   6.229 -0.8036 -0.6509  0.8568
 5606SOL     OW28876   0.063   4.559   9.411  0.1970  0.3139 -0.2265
 5606SOL    HW128877   0.022   4.577   9.500 -0.1980  1.6309 -0.6622
 5606SOL    HW228878   0.105   4.643   9.375 -0.4421  0.0401 -1.6724
 5607SOL     OW28879   9.214   1.660   8.147  0.2855  0.3643  0.2544
 5607SOL    HW128880   9.158   1.592   8.194 -1.2681  1.8923  0.6703
 5607SOL    HW228881   9.256   1.721   8.215 -1.1870  1.9830 -0.2517
 5608SOL     OW28882   2.739   7.778   0.419 -0.2297  0.1208 -0.5192
 5608SOL    HW128883   2.670   7.825   0.365  0.5402 -0.0328 -1.6586
 5608SOL    HW228884   2.812   7.744   0.359 -0.2402 -1.6152  0.3946
 5609SOL     OW28885   2.577   8.007   5.265 -0.4262  0.1864  0.4248
 5609SOL    HW128886   2.658   8.023   5.208 -0.5410 -0.9075 -0.0513
 5609SOL    HW228887   2.583   8.063   5.348 -0.6984  2.5331 -1.0810
 5610SOL     OW28888   1.604   2.337   4.733  0.1027  0.2701 -0.0235
 5610SOL    HW128889   1.565   2.369   4.647 -0.8571 -0.8843 -0.0342
 5610SOL    HW228890   1.553   2.376   4.810  0.2935  0.4639  0.0059
 5611SOL     OW28891   0.264   5.015   2.062 -0.4340 -0.3611  0.6016
 5611SOL    HW128892   0.198   5.076   2.107 -1.2705 -1.5286  0.9707
 5611SOL    HW228893   0.311   4.960   2.131  0.8422  0.3604  0.3256
 5612SOL     OW28894   0.171   8.426   3.443  0.0470  0.3165 -0.1039
 5612SOL    HW128895   0.084   8.474   3.434 -0.7372 -1.1232 -0.2160
 5612SOL    HW228896   0.181   8.360   3.368  2.3945  2.2695 -1.5993
 5613SOL     OW28897   0.091   2.490   8.703  0.3765  0.2731 -0.3786
 5613SOL    HW128898   0.174   2.543   8.687  0.0086  0.5778 -1.2746
 5613SOL    HW228899   0.018   2.521   8.642 -0.2474 -0.3426  0.0388
 5614SOL     OW28900   9.518   5.973   1.267  0.5307 -0.5582 -0.3911
 5614SOL    HW128901   9.458   6.005   1.340 -0.5756  0.6109 -1.7784
 5614SOL    HW228902   9.586   6.043   1.247  0.6753 -0.7756 -0.6556
 5615SOL     OW28903   0.897   1.800   9.561 -0.1057  0.4140 -0.2674
 5615SOL    HW128904   0.828   1.749   9.510 -0.6044  0.5354  0.2801
 5615SOL    HW228905   0.886   1.782   9.659  1.7092 -0.9203 -0.2730
 5616SOL     OW28906   3.495   3.955   4.975 -0.4432  1.0031  0.0039
 5616SOL    HW128907   3.401   3.935   5.003 -0.2303  0.2932  0.2226
 5616SOL    HW228908   3.552   3.964   5.057  0.0026 -0.1704 -0.1737
 5617SOL     OW28909   7.502   2.001   3.451  0.0207 -0.0484 -0.4905
 5617SOL    HW128910   7.449   2.022   3.369 -0.4150 -1.6154 -0.6155
 5617SOL    HW228911   7.447   1.945   3.513  0.0664  1.7418  1.2331
 5618SOL     OW28912   1.733   6.940   0.982  0.0872 -0.4254 -0.0422
 5618SOL    HW128913   1.743   6.962   1.079 -2.0469 -1.5070  0.4303
 5618SOL    HW228914   1.765   6.846   0.966  0.5170 -0.2174 -0.4009
 5619SOL     OW28915   3.118   8.171   8.149 -0.0749  0.3889 -0.0006
 5619SOL    HW128916   3.035   8.196   8.099  0.4881  1.6580 -0.3128
 5619SOL    HW228917   3.198   8.195   8.094  0.5142 -1.1796  0.1263
 5620SOL     OW28918   9.376   6.523   6.047 -0.1688 -0.0974 -0.1169
 5620SOL    HW128919   9.331   6.461   6.110  0.6160  0.4484  0.9949
 5620SOL    HW228920   9.447   6.575   6.095  1.2304 -0.4774 -1.6768
 5621SOL     OW28921   3.284   9.908   4.787 -0.0703  0.2583  0.2272
 5621SOL    HW128922   3.346   9.944   4.717  0.5367  0.1430  0.6949
 5621SOL    HW228923   3.315   9.816   4.813 -0.7298  0.0060  0.1120
 5622SOL     OW28924   4.542   1.763   9.933 -0.4265  0.3728  0.0957
 5622SOL    HW128925   4.558   1.700   9.857 -0.0686  1.5085 -0.7762
 5622SOL    HW228926   4.444   1.779   9.943 -0.4845  0.0958 -0.0176
 5623SOL     OW28927   1.989   2.929   6.329 -0.1307  0.2100  0.5187
 5623SOL    HW128928   2.041   2.858   6.282  0.4659  0.5382  0.6749
 5623SOL    HW228929   1.977   3.008   6.268 -0.2688  0.2152  0.5519
 5624SOL     OW28930   7.157   3.881   3.255  0.4333 -0.1386  0.3180
 5624SOL    HW128931   7.152   3.976   3.223  0.4365 -0.4636 -0.6748
 5624SOL    HW228932   7.066   3.851   3.285  0.1274 -0.2800 -0.7342
 5625SOL     OW28933   1.046   0.785   5.153 -0.0148  0.0226  0.3244
 5625SOL    HW128934   0.951   0.790   5.182 -0.0344  0.6904  0.1542
 5625SOL    HW228935   1.106   0.805   5.230 -0.0410  0.6318  0.1931
 5626SOL     OW28936   7.221   3.797   6.530  0.2572  0.4428 -0.6835
 5626SOL    HW128937   7.212   3.796   6.629  0.5948 -0.1220 -0.6609
 5626SOL    HW228938   7.170   3.875   6.493 -1.8396 -0.7063 -0.2720
 5627SOL     OW28939   3.215   9.388   6.402  0.5288 -0.4170  0.0906
 5627SOL    HW128940   3.152   9.433   6.339  1.8301  0.2938 -0.7093
 5627SOL    HW228941   3.293   9.448   6.420  0.4982 -0.8670  1.8828
 5628SOL     OW28942   7.804   0.827   4.437  0.2107 -0.2094 -0.4751
 5628SOL    HW128943   7.716   0.817   4.391  0.4777 -1.2554 -0.7693
 5628SOL    HW228944   7.843   0.737   4.454  2.0739  0.2901 -1.9670
 5629SOL     OW28945   9.731   1.063   7.077  0.3261  0.0995  0.2125
 5629SOL    HW128946   9.807   1.044   7.015 -0.1195 -1.9505  0.2670
 5629SOL    HW228947   9.718   0.987   7.140  0.1775  1.7746  2.2559
 5630SOL     OW28948   2.977   2.789   5.608 -0.2647 -0.0192  0.5253
 5630SOL    HW128949   2.882   2.777   5.638 -0.8814 -1.0887 -1.6924
 5630SOL    HW228950   3.008   2.705   5.563 -0.0996  2.0473 -3.4814
 5631SOL     OW28951   0.072   8.140   9.816  0.2045 -0.1456 -1.1543
 5631SOL    HW128952  -0.011   8.186   9.784  0.3544  0.6541 -0.4240
 5631SOL    HW228953   0.048   8.063   9.875 -0.0397 -0.5991 -1.8470
 5632SOL     OW28954   4.714   5.237   3.140 -0.0299  0.2884 -0.1851
 5632SOL    HW128955   4.810   5.225   3.165 -0.5572 -2.2916  0.7405
 5632SOL    HW228956   4.698   5.197   3.050 -0.4913 -0.3850  0.1933
 5633SOL     OW28957   9.439   0.050   0.137  0.6193  0.4172 -0.6179
 5633SOL    HW128958   9.359  -0.009   0.125  0.7811  0.2632 -0.9472
 5633SOL    HW228959   9.489   0.057   0.050  2.3061 -1.4404  0.1605
 5634SOL     OW28960   1.001   1.393   7.597 -0.1306 -0.2864  0.0892
 5634SOL    HW128961   0.911   1.387   7.553  0.2050 -1.7558 -0.4323
 5634SOL    HW228962   0.991   1.379   7.696 -0.5823  0.5354  0.1657
 5635SOL     OW28963   0.817   9.619   8.570  0.9317 -0.1236  0.5172
 5635SOL    HW128964   0.872   9.550   8.523 -0.0530 -0.9366  0.5393
 5635SOL    HW228965   0.747   9.654   8.508  1.8094  1.2894  0.3239
 5636SOL     OW28966   1.744   1.688   3.000  0.0949 -0.1682 -0.4052
 5636SOL    HW128967   1.651   1.651   2.988  0.4264 -1.2555  0.3360
 5636SOL    HW228968   1.811   1.616   2.983  0.7330 -0.2527  2.2623
 5637SOL     OW28969   0.850   8.330   1.188 -0.0662  1.2346 -0.1418
 5637SOL    HW128970   0.934   8.384   1.196  0.9338 -0.4160  0.6784
 5637SOL    HW228971   0.873   8.237   1.161 -1.6018  0.6326  0.5912
 5638SOL     OW28972   1.614   5.455   0.154  0.2400  0.0948  0.0059
 5638SOL    HW128973   1.562   5.425   0.234  1.5592 -0.9122  0.4898
 5638SOL    HW228974   1.707   5.419   0.158  1.5040  3.2011 -0.0403
 5639SOL     OW28975   9.043   3.537   2.107  0.7188 -0.0064 -0.3032
 5639SOL    HW128976   9.119   3.597   2.083  0.2507 -0.3438 -2.7562
 5639SOL    HW228977   9.062   3.493   2.194  3.0047  0.4693 -0.5300
 5640SOL     OW28978   6.807   0.448   2.127  0.3688 -0.6190  0.3529
 5640SOL    HW128979   6.789   0.360   2.084  1.0983 -0.2801 -0.6727
 5640SOL    HW228980   6.800   0.521   2.058 -3.9702  0.5856  1.8669
 5641SOL     OW28981   8.794   8.447   5.878 -0.2627  0.3826  0.0509
 5641SOL    HW128982   8.788   8.541   5.844 -1.2247 -0.0236 -0.9205
 5641SOL    HW228983   8.710   8.397   5.855  0.4020 -0.8263  0.1988
 5642SOL     OW28984   7.378   1.033   4.222 -0.4733 -0.4702  0.0002
 5642SOL    HW128985   7.340   1.008   4.311 -1.7203  0.2986 -0.2919
 5642SOL    HW228986   7.428   0.956   4.184  2.6735  0.1616  2.6959
 5643SOL     OW28987   7.053   1.205   2.961 -0.3789  0.5395  0.1772
 5643SOL    HW128988   6.953   1.194   2.958 -0.6271  2.6276 -0.2158
 5643SOL    HW228989   7.092   1.179   2.873 -0.4947 -0.8050  0.5048
 5644SOL     OW28990   1.646   8.023   7.181 -0.4819  0.2137  0.3569
 5644SOL    HW128991   1.603   8.088   7.119 -3.0404  1.0146  2.8269
 5644SOL    HW228992   1.590   7.941   7.188  1.2399 -1.0697 -0.5086
 5645SOL     OW28993   3.181   1.629   0.541  0.0629 -0.1309  0.0209
 5645SOL    HW128994   3.124   1.709   0.525 -0.5159 -0.2676  1.3186
 5645SOL    HW228995   3.273   1.645   0.505 -0.2117  0.8962 -0.2201
 5646SOL     OW28996   7.300   9.784   4.342  0.4983  0.6003  0.0880
 5646SOL    HW128997   7.343   9.788   4.251  0.6878  1.0881  0.1990
 5646SOL    HW228998   7.311   9.872   4.388  0.9755  0.1434  0.8523
 5647SOL     OW28999   4.728   9.701   5.957  0.4987 -0.3880  0.2919
 5647SOL    HW129000   4.674   9.634   5.906  0.1308  0.4967 -0.5118
 5647SOL    HW229001   4.667   9.769   5.998  0.9883  0.5762 -0.5579
 5648SOL     OW29002   1.577   1.909   6.920 -1.1789  0.0611 -0.3965
 5648SOL    HW129003   1.648   1.925   6.989 -1.8414  2.9252 -0.2919
 5648SOL    HW229004   1.605   1.833   6.861  0.7605 -0.5364  1.2184
 5649SOL     OW29005   8.209   6.226   7.545 -0.5299 -0.1142 -0.1867
 5649SOL    HW129006   8.177   6.152   7.604 -0.5613  2.1166  2.7382
 5649SOL    HW229007   8.187   6.314   7.588  0.2526  1.5771 -3.1524
 5650SOL     OW29008   5.507   5.088   5.181  0.0060  0.0902 -0.1957
 5650SOL    HW129009   5.565   5.169   5.176  2.5649 -1.7245 -0.9266
 5650SOL    HW229010   5.487   5.055   5.089  1.6309 -1.8682  0.0981
 5651SOL     OW29011   8.517   9.624   5.239 -0.2158 -0.0184  0.5694
 5651SOL    HW129012   8.587   9.652   5.303 -0.7475  0.4107  0.9719
 5651SOL    HW229013   8.551   9.634   5.145 -0.1844  1.4139  0.7231
 5652SOL     OW29014   8.015   0.631   6.122  0.0787  0.1484 -0.6263
 5652SOL    HW129015   7.978   0.712   6.169  0.2594 -0.0061 -0.2099
 5652SOL    HW229016   8.114   0.644   6.109  0.9203 -1.7191  3.1039
 5653SOL     OW29017   7.368   9.178   5.869  0.0422  0.1404 -0.3774
 5653SOL    HW129018   7.438   9.223   5.812  1.5329 -1.4906  0.1086
 5653SOL    HW229019   7.281   9.224   5.858  0.5615  0.5057 -3.1775
 5654SOL     OW29020   0.401   5.979   5.866 -0.3079  0.5031  0.2225
 5654SOL    HW129021   0.500   5.985   5.854 -0.2538 -0.6806  0.0386
 5654SOL    HW229022   0.370   5.887   5.844 -1.7985  1.5551 -2.2627
 5655SOL     OW29023   9.157   8.069   7.400 -0.4417 -0.4995 -0.0912
 5655SOL    HW129024   9.164   8.038   7.305 -0.6720 -1.8863  0.3427
 5655SOL    HW229025   9.217   8.015   7.458 -1.6587 -0.8617  0.8505
 5656SOL     OW29026   2.139   9.968   0.422  0.1073  0.2085  0.0365
 5656SOL    HW129027   2.117   9.904   0.349 -1.0494 -0.1747  0.7216
 5656SOL    HW229028   2.068  10.038   0.428 -0.1686 -0.1724  1.2645
 5657SOL     OW29029   1.676   9.076   5.930  0.2229 -0.1989 -0.3885
 5657SOL    HW129030   1.728   9.153   5.894 -0.9380  0.5829 -0.4152
 5657SOL    HW229031   1.700   9.061   6.026 -0.6134  1.1237  0.0348
 5658SOL     OW29032   4.372   7.412   4.829 -0.0148  0.6148  0.0035
 5658SOL    HW129033   4.304   7.348   4.792 -1.4528  2.2465 -0.2391
 5658SOL    HW229034   4.327   7.475   4.893  1.6465  0.4916  1.3267
 5659SOL     OW29035   7.592   9.879   2.380  0.4572 -0.0712  0.1400
 5659SOL    HW129036   7.610   9.781   2.379 -0.7062 -0.2939 -0.4582
 5659SOL    HW229037   7.670   9.927   2.420  1.3100 -1.1786 -0.1680
 5660SOL     OW29038   6.493   7.559   6.707 -0.3806  0.2974 -0.8681
 5660SOL    HW129039   6.535   7.571   6.617 -0.9954  0.9968 -1.0730
 5660SOL    HW229040   6.444   7.643   6.732 -1.2667 -0.3399 -0.4405
 5661SOL     OW29041   2.641   1.031   6.833 -0.3146  0.2902 -0.5946
 5661SOL    HW129042   2.642   0.938   6.796 -0.9721  0.0398  0.0255
 5661SOL    HW229043   2.603   1.031   6.925  1.4188  0.9066  0.1389
 5662SOL     OW29044   0.037   9.547   6.259  0.0842  0.7490 -0.2614
 5662SOL    HW129045  -0.012   9.558   6.173 -0.6484  2.3733  0.3427
 5662SOL    HW229046   0.026   9.453   6.292  1.1738 -0.1575 -2.3940
 5663SOL     OW29047   1.648   9.143   4.477  0.4636 -0.4898 -1.0084
 5663SOL    HW129048   1.661   9.044   4.481  0.7057 -0.4272 -0.1651
 5663SOL    HW229049   1.695   9.186   4.554 -0.6445  0.1808 -0.6959
 5664SOL     OW29050   0.709   7.845   5.853 -0.4628 -0.6532  0.1714
 5664SOL    HW129051   0.711   7.846   5.753 -0.0720  1.5528  0.1666
 5664SOL    HW229052   0.632   7.790   5.885 -1.4692 -0.1619 -1.3639
 5665SOL     OW29053   0.063   2.752   9.573 -0.3926  0.1264 -0.1290
 5665SOL    HW129054  -0.022   2.754   9.520  0.1086  1.0179 -0.9169
 5665SOL    HW229055   0.091   2.845   9.595  1.4878 -0.0366 -1.6777
 5666SOL     OW29056   2.755   4.205   6.101 -0.2038  0.6029  0.1421
 5666SOL    HW129057   2.715   4.115   6.115 -1.1969  0.9491 -0.3830
 5666SOL    HW229058   2.774   4.247   6.189  2.5163 -1.0749  0.4015
 5667SOL     OW29059   9.187   2.226   8.139 -0.4424  0.6923  0.7018
 5667SOL    HW129060   9.106   2.193   8.090 -0.0529  1.3971 -0.4439
 5667SOL    HW229061   9.225   2.306   8.091  1.9917 -0.7248  0.1733
 5668SOL     OW29062   4.858   2.230   5.100  0.2328 -0.7022 -0.4570
 5668SOL    HW129063   4.915   2.291   5.045 -0.0039 -0.3564 -0.3218
 5668SOL    HW229064   4.763   2.259   5.093  0.2447 -0.4475  0.4098
 5669SOL     OW29065   2.478   9.570   9.942  0.4537 -0.4587  0.5599
 5669SOL    HW129066   2.441   9.644   9.998  0.9225  1.1161 -1.1467
 5669SOL    HW229067   2.455   9.482   9.983 -1.1676  0.6006  1.9842
 5670SOL     OW29068   1.685   9.421   9.993 -0.1353 -0.4957 -0.2485
 5670SOL    HW129069   1.733   9.401   9.908 -0.4917 -2.8932  0.0799
 5670SOL    HW229070   1.727   9.501  10.037  1.2413 -0.3814 -1.7345
 5671SOL     OW29071   1.261   1.990   7.248  0.0573 -0.0193 -0.5756
 5671SOL    HW129072   1.324   1.981   7.325 -0.1717  1.7366 -0.1490
 5671SOL    HW229073   1.243   1.900   7.208 -0.0295 -0.9937  1.5977
 5672SOL     OW29074   7.712   9.000   9.113 -0.2007  0.3936  0.8190
 5672SOL    HW129075   7.772   9.041   9.044  0.0117  0.4201  1.0160
 5672SOL    HW229076   7.658   8.928   9.072 -1.1949  1.4397  0.2705
 5673SOL     OW29077   1.406   7.165   3.044 -0.2965  0.0600  1.1004
 5673SOL    HW129078   1.348   7.217   2.981  0.1432 -0.3946  0.3049
 5673SOL    HW229079   1.400   7.068   3.022  1.3399  0.0720  0.5169
 5674SOL     OW29080   8.383   2.569   6.928  0.9124 -0.1939  0.0862
 5674SOL    HW129081   8.475   2.581   6.892  0.6422 -1.0763 -0.9072
 5674SOL    HW229082   8.322   2.536   6.856  0.4033 -2.1771  1.3670
 5675SOL     OW29083   8.082   8.822   5.422  0.1607  0.3284  0.2707
 5675SOL    HW129084   8.050   8.768   5.344 -1.0460  0.0691  0.9240
 5675SOL    HW229085   8.177   8.850   5.407  0.8790 -2.1077 -0.0120
 5676SOL     OW29086   0.331   1.195   9.623  0.3721  0.0159  0.2535
 5676SOL    HW129087   0.359   1.279   9.670  1.6894 -1.2248  1.7046
 5676SOL    HW229088   0.259   1.217   9.557  1.9798  2.5995 -0.7019
 5677SOL     OW29089   3.655   1.946   7.165 -0.1682 -0.4023  0.0642
 5677SOL    HW129090   3.713   1.983   7.093 -1.9618 -0.0450 -1.2501
 5677SOL    HW229091   3.696   1.863   7.202  2.1665  0.9608  0.6085
 5678SOL     OW29092   7.663   5.041   6.206 -0.3945  0.0194 -0.4986
 5678SOL    HW129093   7.647   5.057   6.108  2.3376 -2.1000 -1.3636
 5678SOL    HW229094   7.722   5.114   6.241  2.6594 -1.7988 -1.6741
 5679SOL     OW29095   2.871   1.135   6.627  0.2247 -0.0240 -0.1439
 5679SOL    HW129096   2.814   1.186   6.691 -1.0739 -0.4074 -0.9748
 5679SOL    HW229097   2.814   1.073   6.574  1.1552  0.8548 -2.2374
 5680SOL     OW29098   1.128   8.320   5.421  0.3117  0.1857 -0.6382
 5680SOL    HW129099   1.175   8.275   5.497  0.6957 -1.3321 -1.7785
 5680SOL    HW229100   1.035   8.284   5.413 -0.7781  2.4689  0.9734
 5681SOL     OW29101   8.593   8.584   9.669  0.0693 -0.0542 -0.7244
 5681SOL    HW129102   8.657   8.539   9.731 -2.3183 -0.1459  1.7264
 5681SOL    HW229103   8.582   8.680   9.696 -1.8766 -0.3968 -0.2420
 5682SOL     OW29104   3.310   3.321   0.006  0.3226  0.4358  0.4989
 5682SOL    HW129105   3.271   3.409   0.032 -1.7005  0.3054 -1.9115
 5682SOL    HW229106   3.340   3.324  -0.089  0.2623 -1.4659  0.3947
 5683SOL     OW29107   4.761   1.549   5.609 -0.1893 -0.2384 -0.2554
 5683SOL    HW129108   4.748   1.455   5.640 -1.9763 -0.4449 -1.5121
 5683SOL    HW229109   4.858   1.566   5.591  0.1678 -1.7659  0.1697
 5684SOL     OW29110   2.482   9.298   1.896 -0.1834  0.0837  0.6455
 5684SOL    HW129111   2.411   9.329   1.833 -0.3926 -0.1943  0.7406
 5684SOL    HW229112   2.450   9.216   1.944  0.5856 -0.6341 -0.0442
 5685SOL     OW29113   8.512   9.978   5.316 -0.0116  0.3006 -0.3304
 5685SOL    HW129114   8.421  10.019   5.304  0.3382  0.9579 -0.7258
 5685SOL    HW229115   8.558  10.022   5.393 -0.3653 -0.6347  0.4306
 5686SOL     OW29116   0.161   0.150   4.852 -0.5266  0.1056 -0.7167
 5686SOL    HW129117   0.113   0.229   4.814 -0.4511  1.1932  1.3840
 5686SOL    HW229118   0.098   0.097   4.909 -0.2919 -0.7517 -1.2512
 5687SOL     OW29119   4.747   4.175   6.770  0.0569  0.1747  0.2925
 5687SOL    HW129120   4.648   4.178   6.787 -0.3171  0.6834 -1.8344
 5687SOL    HW229121   4.769   4.094   6.717  0.7188  0.3734  0.2578
 5688SOL     OW29122   0.678   9.920   5.287  0.0776 -0.3109  0.7598
 5688SOL    HW129123   0.774   9.899   5.269 -0.2817 -1.4631  0.1719
 5688SOL    HW229124   0.623   9.902   5.206 -0.3676  2.2439  0.4475
 5689SOL     OW29125   3.691   0.144   8.503  0.7906 -0.1372  0.2425
 5689SOL    HW129126   3.633   0.063   8.496 -0.8466  0.9106  1.2855
 5689SOL    HW229127   3.772   0.123   8.557  0.0119 -0.8799  1.1318
 5690SOL     OW29128   0.261   9.237   8.238 -0.0148  0.2706  0.2103
 5690SOL    HW129129   0.271   9.178   8.158 -0.5310  1.5554 -0.8091
 5690SOL    HW229130   0.164   9.252   8.257  0.0500 -1.6621  2.3079
 5691SOL     OW29131   0.947   2.111   2.893 -0.0115  0.7103  0.0785
 5691SOL    HW129132   0.972   2.191   2.946  0.9773  1.1549 -1.0224
 5691SOL    HW229133   0.961   2.130   2.795 -1.4822 -0.1890 -0.3198
 5692SOL     OW29134   4.894   4.967   8.203 -0.3160  0.1377 -0.4235
 5692SOL    HW129135   4.873   4.883   8.153  0.2858  0.0605 -0.5420
 5692SOL    HW229136   4.852   5.045   8.156 -2.1780 -0.2644  0.5178
 5693SOL     OW29137   3.360   3.439   5.921 -0.0916  0.4927 -0.2482
 5693SOL    HW129138   3.313   3.423   6.007 -0.1864 -0.3001 -0.4442
 5693SOL    HW229139   3.361   3.537   5.901  0.5266  0.7471  0.9880
 5694SOL     OW29140   1.738   3.461   8.841 -0.0508 -0.0624 -0.1743
 5694SOL    HW129141   1.711   3.518   8.918 -1.5947 -0.8878 -0.0783
 5694SOL    HW229142   1.783   3.518   8.772  0.6684  0.8117  0.9890
 5695SOL     OW29143   1.457   8.898   0.403 -0.8250 -0.1142  0.1241
 5695SOL    HW129144   1.553   8.918   0.389 -0.6269 -0.9637  0.1933
 5695SOL    HW229145   1.429   8.929   0.494 -0.9377  1.2509 -0.3704
 5696SOL     OW29146   0.913   5.162   6.022  0.3233  0.8669  0.1054
 5696SOL    HW129147   0.958   5.250   6.012  0.4339  0.9152  0.9818
 5696SOL    HW229148   0.843   5.167   6.093 -0.4750  0.5599 -0.6517
 5697SOL     OW29149   2.096   1.160   9.799 -0.1671 -0.0914 -0.2196
 5697SOL    HW129150   2.173   1.126   9.745 -0.2857 -0.3318 -0.2406
 5697SOL    HW229151   2.025   1.197   9.739  0.4885  1.3186 -0.1367
 5698SOL     OW29152   6.711   0.114   9.460  0.1008  0.6352  0.4293
 5698SOL    HW129153   6.793   0.171   9.454  1.1312 -0.8193  0.3878
 5698SOL    HW229154   6.630   0.169   9.438  1.2619  1.6094 -1.5971
 5699SOL     OW29155   5.487   9.985   6.395  0.4153 -0.1921 -0.2867
 5699SOL    HW129156   5.573   9.935   6.404  0.5318  0.2152  0.9861
 5699SOL    HW229157   5.419   9.944   6.455 -0.1256 -0.1709 -0.8799
 5700SOL     OW29158   0.878   4.733   9.583  0.4105 -0.0989 -0.0989
 5700SOL    HW129159   0.893   4.712   9.679  1.4807  0.0109 -0.2330
 5700SOL    HW229160   0.781   4.726   9.561  0.3258 -1.3602  0.6890
 5701SOL     OW29161   4.654   8.686   4.598 -0.0096 -0.8856 -0.0886
 5701SOL    HW129162   4.647   8.739   4.682 -0.5023  0.3666 -0.9067
 5701SOL    HW229163   4.745   8.644   4.593  0.5576  0.2554  0.3666
 5702SOL     OW29164   2.255   2.493   7.999  0.3622  0.3812 -0.7484
 5702SOL    HW129165   2.161   2.527   7.991  0.7326  0.9759 -2.9678
 5702SOL    HW229166   2.258   2.418   8.065 -1.1938  2.0453  1.2999
 5703SOL     OW29167   4.537   7.322   5.344  0.0449 -0.2128 -0.3164
 5703SOL    HW129168   4.617   7.330   5.283 -0.6000 -3.5721 -1.7030
 5703SOL    HW229169   4.553   7.249   5.410 -0.9752  0.6321  0.8737
 5704SOL     OW29170   6.485   9.128   5.122 -0.5206 -0.0505 -0.7154
 5704SOL    HW129171   6.580   9.137   5.091 -0.1865  0.2812  0.3926
 5704SOL    HW229172   6.443   9.049   5.077  0.6775 -0.9816 -0.2553
 5705SOL     OW29173   9.463   0.388   7.806 -0.1208 -0.2491 -0.3002
 5705SOL    HW129174   9.470   0.374   7.904  0.1050 -0.2515 -0.3173
 5705SOL    HW229175   9.506   0.312   7.757 -0.0623 -0.1542 -0.3994
 5706SOL     OW29176   5.391   0.680   6.954  0.4052 -0.1027  0.0949
 5706SOL    HW129177   5.376   0.758   6.895  1.5958 -0.4495 -0.6992
 5706SOL    HW229178   5.448   0.613   6.907  0.4731 -0.8709  1.2327
 5707SOL     OW29179   6.485   3.558   5.426  0.2871 -0.5529  0.1183
 5707SOL    HW129180   6.521   3.482   5.371 -1.0741 -0.8924 -0.3275
 5707SOL    HW229181   6.483   3.530   5.523  0.9158 -0.6390  0.1124
 5708SOL     OW29182   6.641   6.525   1.055 -0.5003 -0.1551 -0.5899
 5708SOL    HW129183   6.580   6.492   1.126  0.9826 -0.8722  0.3869
 5708SOL    HW229184   6.675   6.616   1.079 -0.7592  0.0153 -0.8645
 5709SOL     OW29185   1.793   5.661   6.301 -0.0733  0.0507  0.3813
 5709SOL    HW129186   1.850   5.615   6.368 -0.2821 -0.0090  0.5167
 5709SOL    HW229187   1.702   5.676   6.338  1.0681  4.1660  1.8912
 5710SOL     OW29188   2.164   0.711   2.054  0.9357  0.2526 -0.6270
 5710SOL    HW129189   2.073   0.747   2.071  1.1153  2.4835 -3.9770
 5710SOL    HW229190   2.214   0.705   2.140 -1.8409  0.3556  1.0465
 5711SOL     OW29191   4.470   4.372   5.181  0.3031 -0.0500 -0.1027
 5711SOL    HW129192   4.474   4.348   5.278 -0.0768  0.3703  0.0165
 5711SOL    HW229193   4.383   4.416   5.160 -0.2631 -1.5510 -0.9588
 5712SOL     OW29194   9.235   1.233   5.317  0.3486 -0.1431 -0.2601
 5712SOL    HW129195   9.267   1.138   5.321 -0.7128 -0.4732  1.0114
 5712SOL    HW229196   9.292   1.290   5.376 -0.0360 -0.3186  0.2912
 5713SOL     OW29197   0.107   0.294   5.226 -0.1069 -0.8130 -0.8477
 5713SOL    HW129198   0.199   0.321   5.197 -0.7546  1.7627 -0.6320
 5713SOL    HW229199   0.044   0.303   5.149 -0.8658  1.0795 -0.0380
 5714SOL     OW29200   1.032   2.900   1.324  0.2943 -0.3892  0.8424
 5714SOL    HW129201   1.093   2.870   1.397  0.3640 -3.0672 -0.2550
 5714SOL    HW229202   0.937   2.885   1.351  0.3706 -3.3809 -0.3788
 5715SOL     OW29203   1.995   0.832   5.676  0.1617 -0.1904  0.3742
 5715SOL    HW129204   1.948   0.790   5.753 -0.8029 -0.2882 -0.2599
 5715SOL    HW229205   2.066   0.770   5.643  1.8971  0.6636  2.3925
 5716SOL     OW29206   1.826   8.372   9.881  0.4434  0.1786 -0.9995
 5716SOL    HW129207   1.853   8.356   9.976  0.9303  2.3315 -0.7632
 5716SOL    HW229208   1.784   8.462   9.872  0.7789  0.1755 -2.9004
 5717SOL     OW29209   1.192   0.471   5.824  0.7206 -0.2629  0.4174
 5717SOL    HW129210   1.263   0.524   5.869  1.2038 -0.9870  0.5142
 5717SOL    HW229211   1.138   0.531   5.764  0.8400  0.4550  1.0274
 5718SOL     OW29212   1.551   1.150   8.072 -0.6692 -0.3850 -0.4664
 5718SOL    HW129213   1.606   1.068   8.051 -1.8050 -1.3116  0.1344
 5718SOL    HW229214   1.511   1.140   8.163  0.6667  1.6698  0.3865
 5719SOL     OW29215   0.880   1.616   6.442  0.4242  0.6374  0.0203
 5719SOL    HW129216   0.796   1.653   6.483  1.1097  0.7391  1.3706
 5719SOL    HW229217   0.895   1.523   6.475  1.6290  1.1550  0.9856
 5720SOL     OW29218   4.119   0.509   8.850 -0.3905 -0.1551 -0.7580
 5720SOL    HW129219   4.058   0.430   8.855  1.0003 -1.1384  1.3512
 5720SOL    HW229220   4.079   0.584   8.903  0.4003 -0.9534  1.0241
 5721SOL     OW29221   1.516   8.039   4.362 -0.0112  0.0330 -0.3280
 5721SOL    HW129222   1.449   7.983   4.410  0.9511  0.6318  1.8084
 5721SOL    HW229223   1.471   8.093   4.291 -1.3923 -1.3142 -0.4929
 5722SOL     OW29224   1.560   5.002   6.166  0.3044  0.4429 -0.0615
 5722SOL    HW129225   1.566   4.944   6.247 -1.9233 -0.9498 -0.8631
 5722SOL    HW229226   1.604   5.090   6.185 -0.3807  0.2274  2.7223
 5723SOL     OW29227   2.617   7.394   6.575  0.6050 -0.0328 -0.3844
 5723SOL    HW129228   2.658   7.418   6.486 -0.1276  0.7219 -0.5176
 5723SOL    HW229229   2.601   7.478   6.628 -0.5996 -0.3463 -0.2561
 5724SOL     OW29230   0.210   3.285   8.681  0.1753 -0.0289  0.4895
 5724SOL    HW129231   0.179   3.222   8.752  0.1726 -0.4354  0.1297
 5724SOL    HW229232   0.261   3.234   8.612 -2.2785 -0.0967 -1.3034
 5725SOL     OW29233   5.865   0.645   5.889 -0.2457 -0.3677 -0.0881
 5725SOL    HW129234   5.806   0.712   5.935  1.7768  2.2724 -1.2019
 5725SOL    HW229235   5.858   0.658   5.790 -0.1922 -2.1548 -0.3280
 5726SOL     OW29236   0.716   2.436   7.193 -0.6877 -0.1054 -0.2336
 5726SOL    HW129237   0.669   2.503   7.250 -1.9179 -1.3373  0.2334
 5726SOL    HW229238   0.649   2.371   7.157  0.3612 -0.5404 -1.4260
 5727SOL     OW29239   7.858   9.640   6.905 -0.2535  0.2104 -0.7270
 5727SOL    HW129240   7.907   9.589   6.834 -0.0296 -0.8041  0.1324
 5727SOL    HW229241   7.916   9.713   6.940  0.9851 -1.4781  0.8358
 5728SOL     OW29242   9.763   8.391   5.935 -0.0192  0.0858  0.2672
 5728SOL    HW129243   9.670   8.362   5.910 -0.3598  0.5396  0.9685
 5728SOL    HW229244   9.823   8.312   5.938 -0.6938 -0.4044  1.1247
 5729SOL     OW29245   0.057   8.669   3.909  0.0053 -0.3102  0.2314
 5729SOL    HW129246   0.115   8.633   3.835  0.5173  1.0063 -0.0254
 5729SOL    HW229247   0.113   8.689   3.989 -0.6019 -2.0561  1.1241
 5730SOL     OW29248   0.050   0.734   3.432 -0.2922  0.1298  0.2593
 5730SOL    HW129249   0.132   0.706   3.382 -0.1716  2.4092 -0.8935
 5730SOL    HW229250  -0.030   0.687   3.394  0.3562 -1.5002  0.8709
 5731SOL     OW29251   2.063   2.863   8.699  0.3897 -0.2346 -0.0439
 5731SOL    HW129252   2.025   2.955   8.691 -0.2487 -0.3903  1.1819
 5731SOL    HW229253   2.127   2.860   8.776  1.9819 -0.2940 -1.3260
 5732SOL     OW29254   0.646   9.810   7.842  0.6296 -0.3480 -1.3701
 5732SOL    HW129255   0.626   9.712   7.838  1.4196 -0.7292  2.2410
 5732SOL    HW229256   0.567   9.862   7.810 -0.6627 -2.1202 -1.1228
 5733SOL     OW29257   1.737   0.158   5.406 -0.0876 -0.1280 -0.1061
 5733SOL    HW129258   1.789   0.094   5.350 -1.3685 -1.6459  0.4052
 5733SOL    HW229259   1.795   0.236   5.430  0.7704  0.0640 -2.6850
 5734SOL     OW29260   8.744   0.361   9.735  0.5418  0.7247 -0.7502
 5734SOL    HW129261   8.684   0.352   9.814 -0.8687  1.7362 -1.6611
 5734SOL    HW229262   8.812   0.289   9.736 -1.1084 -0.8686 -0.0274
 5735SOL     OW29263   9.896   9.197   6.625  0.2175  0.4234 -0.2224
 5735SOL    HW129264   9.807   9.240   6.607  0.0056  0.9156  1.8986
 5735SOL    HW229265   9.882   9.103   6.655  0.5307 -0.1105 -1.6858
 5736SOL     OW29266   2.245   7.411   8.995 -0.0785  0.0486 -0.2130
 5736SOL    HW129267   2.195   7.451   8.918  0.5434  0.2174 -0.5233
 5736SOL    HW229268   2.206   7.445   9.081 -2.1611 -1.7315 -0.3793
 5737SOL     OW29269   5.318   8.174   4.102 -0.2475  0.3306  0.1632
 5737SOL    HW129270   5.362   8.259   4.133 -0.8337  0.5176  0.4974
 5737SOL    HW229271   5.377   8.096   4.125 -0.2116  0.5563  0.8528
 5738SOL     OW29272   9.515   9.754   8.624 -0.5099  0.2612  0.3115
 5738SOL    HW129273   9.426   9.746   8.668 -0.5300 -2.2597 -0.1019
 5738SOL    HW229274   9.504   9.788   8.530 -1.1109 -0.5152  0.0944
 5739SOL     OW29275   4.483   0.680   6.037  0.4718  0.6300 -0.1739
 5739SOL    HW129276   4.537   0.597   6.051 -1.4617 -0.6060  0.0562
 5739SOL    HW229277   4.536   0.759   6.067  2.2885 -0.5120 -0.2759
 5740SOL     OW29278   1.531   8.314   2.637 -0.0223  0.8952  0.0269
 5740SOL    HW129279   1.617   8.357   2.666  0.4726 -0.5850  0.8584
 5740SOL    HW229280   1.550   8.246   2.566 -0.4383  0.2375  0.5408
 5741SOL     OW29281   0.070   8.563   7.026 -0.7549 -0.1503  0.0381
 5741SOL    HW129282   0.169   8.566   7.033 -0.8982  1.5586  1.5566
 5741SOL    HW229283   0.032   8.655   7.038 -2.6349 -1.0609  1.4320
 5742SOL     OW29284   7.841   9.145   4.079  0.4186 -0.0204  0.0986
 5742SOL    HW129285   7.748   9.111   4.092  0.0559  0.5867 -0.8557
 5742SOL    HW229286   7.866   9.205   4.154 -0.0564  0.0101  0.2306
 5743SOL     OW29287   2.878   5.141   9.883  0.0025 -0.7043  0.4805
 5743SOL    HW129288   2.955   5.195   9.849 -1.6763  0.9022 -0.8311
 5743SOL    HW229289   2.859   5.066   9.819 -0.6892  0.0002 -0.1426
 5744SOL     OW29290   9.580   7.308   9.477 -0.3801 -0.2704  0.0911
 5744SOL    HW129291   9.670   7.265   9.484 -0.5704 -0.6217  0.3561
 5744SOL    HW229292   9.510   7.239   9.460 -0.8609 -0.2271  1.8290
 5745SOL     OW29293   8.557   1.295   6.381 -0.1307  0.3392 -0.4530
 5745SOL    HW129294   8.566   1.205   6.337 -1.4393 -0.1859  0.3139
 5745SOL    HW229295   8.538   1.364   6.312  0.2063 -0.0852 -0.9756
 5746SOL     OW29296   7.560   1.329   0.463  0.1824 -0.7396  0.1278
 5746SOL    HW129297   7.477   1.306   0.413  0.4215  0.1479 -0.6835
 5746SOL    HW229298   7.610   1.400   0.414 -0.1196  0.9295  2.1486
 5747SOL     OW29299   9.992   3.515   3.092  0.0319  0.4002  0.4714
 5747SOL    HW129300   9.920   3.457   3.054 -0.2312  1.7150 -1.1115
 5747SOL    HW229301  10.076   3.462   3.103  0.3214  0.1033 -2.6669
 5748SOL     OW29302   3.144   9.929   6.605  0.3685  0.0082  0.0495
 5748SOL    HW129303   3.203   9.980   6.541 -1.1021 -0.5144 -1.7789
 5748SOL    HW229304   3.082   9.871   6.553 -0.4817 -0.8835  2.0178
 5749SOL     OW29305   0.156   0.501   7.552 -0.2425 -0.1295  0.3997
 5749SOL    HW129306   0.105   0.554   7.484  0.1414  0.1545  0.3319
 5749SOL    HW229307   0.159   0.405   7.523 -1.1036 -0.2300  0.6197
 5750SOL     OW29308   3.949   0.267   3.496 -0.5172 -0.5175  0.1879
 5750SOL    HW129309   3.963   0.177   3.455  0.2696  0.4394 -1.6853
 5750SOL    HW229310   3.864   0.306   3.462 -0.6906 -0.4060  0.7422
 5751SOL     OW29311   3.639   5.814   9.423 -0.3619 -0.1116 -0.0491
 5751SOL    HW129312   3.566   5.748   9.438 -0.3021 -0.3870 -0.9551
 5751SOL    HW229313   3.712   5.799   9.490 -1.5634  0.7922  1.4854
 5752SOL     OW29314   0.983   3.882   6.702 -0.1737 -0.1412  0.1394
 5752SOL    HW129315   1.042   3.955   6.667  1.2801 -1.5187 -0.3252
 5752SOL    HW229316   1.039   3.803   6.729 -1.6602 -0.8195  1.3316
 5753SOL     OW29317   4.838   0.970   8.829 -0.1836  0.3865  0.1591
 5753SOL    HW129318   4.854   0.875   8.855  0.5123  0.0169 -1.5047
 5753SOL    HW229319   4.779   1.014   8.897 -1.8493 -1.6950  0.1486
 5754SOL     OW29320   8.290   6.249   7.158  0.3938 -0.2484 -0.4024
 5754SOL    HW129321   8.290   6.290   7.250  0.7747  1.7109 -1.2459
 5754SOL    HW229322   8.382   6.256   7.119 -0.4342  1.6861 -2.0937
 5755SOL     OW29323   1.072   0.579   2.703 -0.1884  0.2305 -0.7435
 5755SOL    HW129324   1.010   0.657   2.710 -1.0158 -0.4412 -0.3904
 5755SOL    HW229325   1.152   0.604   2.649 -1.7996  0.4750 -3.0696
 5756SOL     OW29326   2.353   3.327   0.356 -0.2553 -0.3713  0.3449
 5756SOL    HW129327   2.378   3.331   0.453  0.8453 -1.6202  0.1285
 5756SOL    HW229328   2.424   3.279   0.306 -0.3035  1.2110 -1.2797
 5757SOL     OW29329   9.657   1.893   8.818 -0.2140  0.1117  0.4091
 5757SOL    HW129330   9.679   1.959   8.890 -1.5377  2.6724 -1.4228
 5757SOL    HW229331   9.646   1.802   8.858 -0.5517  1.3927  3.3792
 5758SOL     OW29332   1.761   8.501   8.468  0.3625 -0.0762 -0.3202
 5758SOL    HW129333   1.728   8.471   8.378 -0.4097 -1.2253  0.3355
 5758SOL    HW229334   1.731   8.437   8.538  0.2286  1.2654  0.8894
 5759SOL     OW29335   1.234   6.872   8.947 -0.0528 -0.5964 -0.8057
 5759SOL    HW129336   1.300   6.925   9.000 -1.2006  0.8769 -0.8014
 5759SOL    HW229337   1.261   6.776   8.946  1.5281 -0.1761  0.0385
 5760SOL     OW29338   5.879   6.574   5.397 -0.0734  0.3118  0.0091
 5760SOL    HW129339   5.941   6.500   5.370  1.3602  1.0486  1.2202
 5760SOL    HW229340   5.807   6.584   5.328 -0.0417 -1.9150 -0.3882
 5761SOL     OW29341   0.010   7.843   9.765 -0.1352  0.0553  0.2161
 5761SOL    HW129342  -0.063   7.859   9.699  0.3524 -0.5678 -0.4876
 5761SOL    HW229343   0.082   7.912   9.752 -0.7307  0.8493  1.1079
 5762SOL     OW29344   4.372   8.232   7.771  0.1776 -0.3683 -0.3394
 5762SOL    HW129345   4.388   8.285   7.688  0.7259 -0.9084 -0.5794
 5762SOL    HW229346   4.333   8.143   7.747  1.3488 -0.9508 -0.1017
 5763SOL     OW29347   0.895   0.167   7.696 -0.5565 -0.1804 -0.1516
 5763SOL    HW129348   0.992   0.159   7.674 -0.8413 -0.1077 -1.4365
 5763SOL    HW229349   0.861   0.080   7.732 -0.3927 -0.6750 -1.1981
 5764SOL     OW29350   1.028   5.651   9.671 -0.1213 -0.0907  0.2581
 5764SOL    HW129351   0.944   5.596   9.673 -0.7691  0.8741 -0.4447
 5764SOL    HW229352   1.071   5.644   9.581 -0.9608  1.6693 -0.3019
 5765SOL     OW29353   1.744   2.245   9.240 -0.0290 -0.1400 -0.1005
 5765SOL    HW129354   1.835   2.283   9.256  0.4186 -1.8690  1.6168
 5765SOL    HW229355   1.676   2.318   9.246  1.2993  1.2881 -2.1106
 5766SOL     OW29356   1.321   2.552   0.453  0.0313 -0.2100  0.3833
 5766SOL    HW129357   1.312   2.587   0.546 -0.7425 -1.9725  0.9921
 5766SOL    HW229358   1.230   2.534   0.415  0.3154  1.2230 -0.9971
 5767SOL     OW29359   0.601   6.979   1.396  0.3855  0.7970 -0.8031
 5767SOL    HW129360   0.552   7.066   1.389 -1.0784  0.0850  0.1997
 5767SOL    HW229361   0.560   6.913   1.333  0.9889  0.6085 -0.9980
 5768SOL     OW29362   4.772   1.047   2.154  0.2064  0.2544  0.3119
 5768SOL    HW129363   4.825   0.981   2.207  1.5678 -1.6006 -3.2067
 5768SOL    HW229364   4.812   1.138   2.163  1.4775 -0.3739  1.0354
 5769SOL     OW29365   9.017   4.706   7.709  0.5199  0.5313  0.1715
 5769SOL    HW129366   9.111   4.707   7.674  0.8089  0.9090  0.9302
 5769SOL    HW229367   8.960   4.649   7.651  1.1082  0.7154 -0.5950
 5770SOL     OW29368   3.774   8.905   0.422 -0.1680 -0.2182  0.2341
 5770SOL    HW129369   3.764   8.966   0.500  1.8122  0.1191  0.2630
 5770SOL    HW229370   3.842   8.834   0.443  0.5027 -0.0306 -1.2194
 5771SOL     OW29371   4.659   8.671   9.251 -0.2604 -0.3834  0.5000
 5771SOL    HW129372   4.755   8.698   9.247 -0.2387 -0.0205  2.5521
 5771SOL    HW229373   4.603   8.739   9.205  0.4902 -0.7945 -1.0528
 5772SOL     OW29374   9.280   2.630   5.381 -0.1814  0.2537 -0.2714
 5772SOL    HW129375   9.203   2.655   5.440 -0.8381  0.4740 -1.2144
 5772SOL    HW229376   9.323   2.713   5.347  0.7436  0.1357  0.5834
 5773SOL     OW29377   9.426   5.061   3.193  0.0438  0.3148  0.0364
 5773SOL    HW129378   9.422   5.082   3.291  0.0955  0.3729  0.0259
 5773SOL    HW229379   9.489   4.986   3.178 -0.8279 -0.4518  0.1749
 5774SOL     OW29380   0.694   4.533   0.101 -0.0935  0.3422  0.7471
 5774SOL    HW129381   0.682   4.438   0.074  1.0771  0.4390 -0.1823
 5774SOL    HW229382   0.770   4.540   0.166  0.1560  0.7016  0.4181
 5775SOL     OW29383   1.623   1.212   2.897 -0.4358 -0.2173 -0.4389
 5775SOL    HW129384   1.592   1.135   2.841  0.4915 -0.3548 -0.7759
 5775SOL    HW229385   1.633   1.294   2.841  0.4057 -0.3321 -0.4686
 5776SOL     OW29386   4.942   4.290   7.334 -0.6548  0.3536  0.0719
 5776SOL    HW129387   4.934   4.367   7.397 -0.1025  0.7904 -0.3809
 5776SOL    HW229388   4.995   4.319   7.253 -1.4193 -0.1712 -0.6231
 5777SOL     OW29389   3.124   9.000   7.534 -0.0401  0.8951  0.4744
 5777SOL    HW129390   3.054   8.933   7.509  0.1689  0.6610  0.5109
 5777SOL    HW229391   3.089   9.092   7.520 -1.4784  0.8532  3.5106
 5778SOL     OW29392   2.441   8.392   1.518  0.0239 -0.3627  0.5871
 5778SOL    HW129393   2.527   8.342   1.510  0.4852  0.6204 -0.7138
 5778SOL    HW229394   2.458   8.483   1.555 -0.7625 -0.9830  2.5214
 5779SOL     OW29395   4.840   7.916   3.893 -0.4490 -0.7489  0.7225
 5779SOL    HW129396   4.757   7.925   3.838 -0.2921 -0.1279  0.5845
 5779SOL    HW229397   4.828   7.966   3.979 -0.3818 -1.0289  0.8968
 5780SOL     OW29398   6.928   8.370   1.347 -0.2631  0.5430  0.7710
 5780SOL    HW129399   6.873   8.435   1.295 -0.5818  0.1294  0.5835
 5780SOL    HW229400   6.980   8.418   1.418  1.9255  1.4245 -1.3787
 5781SOL     OW29401   9.276   4.726   1.396  0.2553  0.0909  0.4232
 5781SOL    HW129402   9.194   4.766   1.354  1.0797  0.9776 -0.3573
 5781SOL    HW229403   9.328   4.798   1.443  0.6566 -0.4470  0.8145
 5782SOL     OW29404   1.544   2.927   8.523  0.5029 -0.6418 -0.0286
 5782SOL    HW129405   1.545   3.022   8.554 -0.5836 -0.5943 -0.1201
 5782SOL    HW229406   1.624   2.879   8.559  0.9930  0.2805  0.1042
 5783SOL     OW29407   0.664   0.959   7.869 -0.0571 -0.0190  0.9123
 5783SOL    HW129408   0.700   1.015   7.945 -0.1930  1.0498  0.2042
 5783SOL    HW229409   0.721   0.973   7.788  0.9853 -2.3198  1.2147
 5784SOL     OW29410   0.821   2.528   9.772  0.3258 -0.3846  0.3401
 5784SOL    HW129411   0.743   2.588   9.789 -0.6897 -1.8641  1.0185
 5784SOL    HW229412   0.898   2.558   9.828 -0.0534  0.5018  0.4003
 5785SOL     OW29413   2.866   5.902   0.686 -0.2918 -0.2153 -0.6437
 5785SOL    HW129414   2.965   5.897   0.687 -0.3695 -2.2548 -0.3905
 5785SOL    HW229415   2.831   5.871   0.597 -0.6443  2.1021 -1.3299
 5786SOL     OW29416   9.794   8.741   8.465 -0.0897 -0.1730 -0.5147
 5786SOL    HW129417   9.701   8.766   8.437  0.2538  0.9275 -0.6825
 5786SOL    HW229418   9.851   8.729   8.384  0.3030  0.6791 -0.3713
 5787SOL     OW29419   8.398   5.590   7.369  0.4972 -0.3819 -0.1112
 5787SOL    HW129420   8.394   5.680   7.327 -2.7200 -0.4070  0.0836
 5787SOL    HW229421   8.455   5.595   7.452  3.1807  0.6378 -1.9532
 5788SOL     OW29422   3.266   8.356   1.311 -0.0330 -0.7455  0.5115
 5788SOL    HW129423   3.311   8.269   1.329 -0.5820 -1.2242 -0.3818
 5788SOL    HW229424   3.178   8.358   1.358  0.8228  0.1178  2.1103
 5789SOL     OW29425   1.060   9.030   9.614  0.0007  0.5753  0.2667
 5789SOL    HW129426   1.058   8.930   9.620 -0.1814  0.5391 -0.3088
 5789SOL    HW229427   0.969   9.063   9.587  0.1077  0.8819  0.2844
 5790SOL     OW29428   2.367   1.021   1.507  0.6226  0.0833 -0.0370
 5790SOL    HW129429   2.418   1.098   1.546 -0.5078  0.7742  0.1040
 5790SOL    HW229430   2.424   0.973   1.440  1.0384  1.5575 -0.7519
 5791SOL     OW29431   6.219   8.641   6.459  0.0654 -0.0512  0.0793
 5791SOL    HW129432   6.272   8.610   6.380 -0.7782 -1.7036  0.1471
 5791SOL    HW229433   6.264   8.611   6.543  0.6527  1.2135  0.2371
 5792SOL     OW29434   8.928   6.612   8.482 -0.0948 -0.5202 -0.0257
 5792SOL    HW129435   8.888   6.697   8.517  0.9483  0.0936 -0.3224
 5792SOL    HW229436   8.856   6.557   8.440 -0.7164  0.3776 -0.1520
 5793SOL     OW29437   6.593   3.469   9.461  0.6533  0.5250  0.1316
 5793SOL    HW129438   6.505   3.503   9.429  1.0393  0.5375 -0.9245
 5793SOL    HW229439   6.599   3.370   9.445  0.9954  0.5963 -0.1949
 5794SOL     OW29440   0.360   4.974   5.874 -0.1765 -0.3435 -0.1847
 5794SOL    HW129441   0.409   4.992   5.959  1.5097 -0.0326 -1.1945
 5794SOL    HW229442   0.409   4.904   5.821 -2.5807 -2.4009  0.2408
 5795SOL     OW29443   1.880   7.221   4.510 -0.2472 -0.2483  0.4050
 5795SOL    HW129444   1.924   7.132   4.520  0.1570  0.0166  0.9524
 5795SOL    HW229445   1.937   7.280   4.453 -0.3240 -0.1990  0.3797
 5796SOL     OW29446   2.690   9.899   4.333 -0.1294  0.2680 -0.4976
 5796SOL    HW129447   2.736   9.810   4.344 -1.8995 -0.3378  2.7796
 5796SOL    HW229448   2.594   9.883   4.309 -0.8695  1.1800  1.7003
 5797SOL     OW29449   0.358   2.373   3.376  0.2054  0.0824  0.0252
 5797SOL    HW129450   0.276   2.341   3.327 -0.7439  2.0818  0.2790
 5797SOL    HW229451   0.357   2.336   3.469 -1.5649  1.8537  0.7434
 5798SOL     OW29452   7.473   9.418   8.476 -0.2172  0.0298 -0.0800
 5798SOL    HW129453   7.396   9.378   8.527 -0.7191  0.2574 -0.6568
 5798SOL    HW229454   7.555   9.419   8.534 -1.3736  2.5420  1.5955
 5799SOL     OW29455   9.140   8.490   8.524  0.0764  0.2833 -0.7104
 5799SOL    HW129456   9.234   8.503   8.556 -0.7278  0.5233  1.6535
 5799SOL    HW229457   9.121   8.553   8.449  1.0689  1.9120  0.3673
 5800SOL     OW29458   8.497   0.986   4.923 -1.1591 -0.0272 -0.5807
 5800SOL    HW129459   8.508   0.889   4.904  0.1058 -0.0185  0.0857
 5800SOL    HW229460   8.587   1.030   4.926 -1.6365  0.8896  0.5809
 5801SOL     OW29461   8.933   7.414   3.085  0.0144 -0.0237  0.6222
 5801SOL    HW129462   8.930   7.332   3.027  0.9424 -0.2563  0.8944
 5801SOL    HW229463   8.841   7.452   3.093 -0.2680 -0.4785 -0.3052
 5802SOL     OW29464   1.873   4.851   8.884 -0.2744 -0.3553 -0.1274
 5802SOL    HW129465   1.917   4.785   8.945  0.6511 -1.0584 -1.5209
 5802SOL    HW229466   1.893   4.944   8.916  1.6709 -0.6777 -0.3159
 5803SOL     OW29467   3.823   9.029   3.972  0.5199  0.1182  0.1010
 5803SOL    HW129468   3.789   9.027   4.066  2.3085  2.8230  0.8784
 5803SOL    HW229469   3.895   8.960   3.961  1.1267  0.5745  1.0922
 5804SOL     OW29470   2.865   4.652   0.706  0.2341  0.1270  0.1630
 5804SOL    HW129471   2.926   4.578   0.679 -0.2962  0.2056 -1.2515
 5804SOL    HW229472   2.870   4.664   0.806 -0.2950 -2.3466  0.5104
 5805SOL     OW29473   1.161   2.388   1.193  0.0756 -0.0991 -0.3155
 5805SOL    HW129474   1.131   2.395   1.098  1.8151  0.3912 -0.8346
 5805SOL    HW229475   1.097   2.438   1.252 -1.2217 -0.7340 -1.1604
 5806SOL     OW29476   4.909   1.834   6.640 -0.5839 -0.2762 -0.0304
 5806SOL    HW129477   4.947   1.926   6.628  0.5822 -0.3479  2.8034
 5806SOL    HW229478   4.962   1.768   6.585  0.7080  0.2441  0.5860
 5807SOL     OW29479   0.864   4.945   2.297  0.0863 -0.8753  0.0754
 5807SOL    HW129480   0.806   4.954   2.216 -1.4229  0.2311  1.2459
 5807SOL    HW229481   0.824   4.878   2.359 -0.3558  0.4281  1.2208
 5808SOL     OW29482   7.951   7.520   8.507  0.0686  0.0232 -0.3053
 5808SOL    HW129483   8.011   7.560   8.438 -0.2157  1.0547  0.0371
 5808SOL    HW229484   7.949   7.578   8.588 -1.3446 -0.0102 -0.2936
 5809SOL     OW29485   4.370   9.929   8.585  0.1922 -0.3852  0.4065
 5809SOL    HW129486   4.455   9.882   8.610  0.6065  1.0748  1.8949
 5809SOL    HW229487   4.363  10.014   8.637 -1.4126  0.3110 -0.8948
 5810SOL     OW29488   3.469   7.588   5.812  0.2205 -0.4122 -0.2581
 5810SOL    HW129489   3.374   7.603   5.840  0.4704 -1.3799  1.1833
 5810SOL    HW229490   3.529   7.651   5.862  0.3911 -0.2353 -0.6893
 5811SOL     OW29491   3.499   6.675   0.467  0.6397  0.1886 -0.6198
 5811SOL    HW129492   3.548   6.671   0.380 -0.6911  0.3322 -1.4017
 5811SOL    HW229493   3.432   6.600   0.471  0.8955  0.0072  0.4085
 5812SOL     OW29494   0.113   1.078   1.733  0.0145 -0.0186 -0.3983
 5812SOL    HW129495   0.060   1.150   1.688 -1.3069 -0.1638  0.8669
 5812SOL    HW229496   0.077   1.064   1.825 -0.9044 -3.5774 -1.2493
 5813SOL     OW29497   4.171   1.196   1.740  0.2513 -0.5730 -0.1446
 5813SOL    HW129498   4.091   1.150   1.703  2.0609 -2.3572 -1.9926
 5813SOL    HW229499   4.184   1.284   1.694 -2.0633  0.9463  1.9828
 5814SOL     OW29500   4.163   0.275   5.027 -0.1176  0.2029 -0.0981
 5814SOL    HW129501   4.178   0.365   4.987  1.6181 -0.8200 -1.8163
 5814SOL    HW229502   4.250   0.240   5.064 -0.3766 -1.5425 -1.1024
 5815SOL     OW29503   6.937   8.431   0.305  0.3557  0.6496  0.1489
 5815SOL    HW129504   6.928   8.516   0.253 -3.4008 -0.1867 -0.7454
 5815SOL    HW229505   6.858   8.420   0.365  1.3563 -1.6382  1.1134
 5816SOL     OW29506   4.285   5.592   9.974 -0.4056  0.2425  0.1481
 5816SOL    HW129507   4.271   5.653   9.896 -0.2232  0.2847  0.1504
 5816SOL    HW229508   4.334   5.641  10.046  0.6592 -0.2240 -0.2577
 5817SOL     OW29509   1.753   8.754   8.560 -0.4512  0.1580 -0.4019
 5817SOL    HW129510   1.821   8.818   8.523 -0.3445 -0.0937 -0.6412
 5817SOL    HW229511   1.734   8.683   8.492  0.5398 -0.9186  0.4261
 5818SOL     OW29512   5.165   1.336   8.054 -0.5979  0.4600  0.0743
 5818SOL    HW129513   5.114   1.312   7.971  0.8482 -0.3064 -0.6029
 5818SOL    HW229514   5.248   1.280   8.060  0.0863  1.5737  1.2642
 5819SOL     OW29515   9.959   9.525   6.813 -0.4599 -0.2000  0.4637
 5819SOL    HW129516   9.961   9.465   6.893  0.4955  0.1803  0.7307
 5819SOL    HW229517  10.014   9.484   6.739 -0.8373 -0.2557  0.2069
 5820SOL     OW29518   1.129   6.704   9.758  0.4235  0.2469 -0.3235
 5820SOL    HW129519   1.103   6.734   9.666  1.0077 -0.0038 -0.5762
 5820SOL    HW229520   1.059   6.642   9.794  0.9973 -0.9871 -1.2876
 5821SOL     OW29521   2.972   1.288   9.186 -0.5511  0.0201  0.3609
 5821SOL    HW129522   2.989   1.196   9.150  1.2572  1.0674 -1.6148
 5821SOL    HW229523   2.906   1.334   9.128 -0.2926  0.4908  0.4392
 5822SOL     OW29524   7.522   4.521   3.692 -0.2716  0.3448  0.1981
 5822SOL    HW129525   7.424   4.505   3.688 -0.2359 -0.5506  2.1255
 5822SOL    HW229526   7.551   4.526   3.787  1.7098 -0.4634 -0.3349
 5823SOL     OW29527   5.007   5.260   8.633 -0.0751  0.7035  0.2365
 5823SOL    HW129528   5.049   5.219   8.714 -0.0486  0.6568  0.1983
 5823SOL    HW229529   5.047   5.220   8.550  3.4521  4.1850  0.1053
 5824SOL     OW29530   2.404   1.982   7.200  0.4645 -0.1028 -0.0294
 5824SOL    HW129531   2.500   2.006   7.216  1.2356 -2.9081 -0.2423
 5824SOL    HW229532   2.390   1.885   7.220 -1.5662 -0.5395 -3.2160
 5825SOL     OW29533   0.946   9.402   9.551  0.8546  0.2429  0.2035
 5825SOL    HW129534   0.994   9.450   9.624  0.5046 -0.5715  0.9756
 5825SOL    HW229535   0.889   9.466   9.501  1.3817  0.8755  0.4056
 5826SOL     OW29536   2.741   2.443   9.273  0.1145 -0.1508  0.0261
 5826SOL    HW129537   2.767   2.425   9.368  1.0293 -1.1793 -0.4128
 5826SOL    HW229538   2.798   2.390   9.212 -0.3308  0.6721 -1.1272
 5827SOL     OW29539   3.422   0.718   5.243 -0.2319 -0.3595 -0.0669
 5827SOL    HW129540   3.486   0.699   5.318 -1.2619  2.4906  1.6228
 5827SOL    HW229541   3.330   0.728   5.281 -0.9044  0.2957 -1.8445
 5828SOL     OW29542   0.583   8.950   0.306 -0.3392 -0.3221  0.0999
 5828SOL    HW129543   0.679   8.970   0.286 -0.9525  1.1750 -1.4993
 5828SOL    HW229544   0.563   8.973   0.401  0.7845 -0.2625  0.3278
 5829SOL     OW29545   5.796   9.560   8.369  0.0540 -0.2321 -0.8098
 5829SOL    HW129546   5.751   9.488   8.422  0.6335 -1.0127 -1.3731
 5829SOL    HW229547   5.824   9.634   8.430 -2.2207  0.3876 -0.4730
 5830SOL     OW29548   2.089   8.449   2.373 -0.4156  0.5428  0.2368
 5830SOL    HW129549   2.080   8.350   2.386  0.7422  0.2260 -1.2995
 5830SOL    HW229550   2.054   8.475   2.283  1.7129  1.1261 -0.4697
 5831SOL     OW29551   8.542   3.883   9.760  0.0444  0.6417  0.1259
 5831SOL    HW129552   8.625   3.902   9.812 -0.0909  0.4887  0.4009
 5831SOL    HW229553   8.553   3.915   9.666  0.2147  1.1035  0.3031
 5832SOL     OW29554   0.884   8.592   6.821  0.0445 -0.0376  0.2455
 5832SOL    HW129555   0.886   8.533   6.740  0.5876 -0.3595  0.4896
 5832SOL    HW229556   0.826   8.672   6.803  0.0613 -0.1718 -0.4167
 5833SOL     OW29557   0.925   1.602   6.784  0.6919  0.0909 -0.4269
 5833SOL    HW129558   0.873   1.561   6.859  1.2474  0.5876  0.2306
 5833SOL    HW229559   0.992   1.535   6.749  2.3104  0.7564  1.3244
 5834SOL     OW29560   3.424   4.421   5.109  0.3542  0.1550 -0.1363
 5834SOL    HW129561   3.329   4.397   5.128 -0.3212  1.7269 -1.4219
 5834SOL    HW229562   3.454   4.375   5.026  0.8954 -0.7292  0.5341
 5835SOL     OW29563   5.115   4.548   8.940  0.2108 -0.1520 -0.1948
 5835SOL    HW129564   5.066   4.634   8.924 -2.0530 -1.2451  0.6195
 5835SOL    HW229565   5.147   4.546   9.035 -0.5691 -0.5986  0.0635
 5836SOL     OW29566   1.547   4.184   8.954  0.1000  0.6398  0.1679
 5836SOL    HW129567   1.623   4.142   8.904  0.3132  0.6100  0.5156
 5836SOL    HW229568   1.532   4.133   9.039 -1.5318 -0.5233 -0.7854
 5837SOL     OW29569   4.860   1.003   6.043  0.5004 -0.2305 -0.2932
 5837SOL    HW129570   4.859   0.927   5.978  1.4306 -0.2093 -0.3487
 5837SOL    HW229571   4.873   1.089   5.994 -0.8700  0.0057 -0.2581
 5838SOL     OW29572   3.018   7.192   9.816  0.2361  0.2787  0.2422
 5838SOL    HW129573   3.019   7.291   9.801  1.0577  0.3806  0.9268
 5838SOL    HW229574   2.931   7.165   9.856  0.1043  0.7701  0.2902
 5839SOL     OW29575   9.856   8.056   9.231 -0.5047 -0.3369  0.3695
 5839SOL    HW129576   9.855   7.957   9.246  0.6657 -0.1899  1.4988
 5839SOL    HW229577   9.779   8.082   9.172 -1.1104 -1.8444  0.4843
 5840SOL     OW29578   1.261   6.983   2.714 -0.6560 -0.0313  0.2208
 5840SOL    HW129579   1.227   7.019   2.628 -1.3958  1.0491  0.9525
 5840SOL    HW229580   1.338   6.922   2.697 -1.5205 -0.7290 -1.2862
 5841SOL     OW29581   7.999   4.115   0.392 -0.1004 -0.6213  0.1808
 5841SOL    HW129582   7.955   4.176   0.325 -0.3536 -0.2402  0.6883
 5841SOL    HW229583   7.985   4.152   0.484  2.2337  0.1117  0.2843
 5842SOL     OW29584   0.970   5.777   7.768  0.5817 -0.5708 -0.2628
 5842SOL    HW129585   1.055   5.731   7.792  1.0281 -0.5944 -1.8277
 5842SOL    HW229586   0.972   5.802   7.671 -0.4877  0.9377  0.0893
 5843SOL     OW29587   3.630   8.370   0.696 -0.0692  0.1549  0.1880
 5843SOL    HW129588   3.675   8.280   0.700  1.8545  1.0447 -0.7367
 5843SOL    HW229589   3.541   8.360   0.653  0.1639 -1.2949 -0.0004
 5844SOL     OW29590   1.594   4.243   9.747  0.8043 -0.1417 -0.0558
 5844SOL    HW129591   1.587   4.165   9.810  0.7698  0.4704  0.7074
 5844SOL    HW229592   1.530   4.314   9.776  0.1096 -0.2260 -1.3366
 5845SOL     OW29593   2.596   8.145   0.004 -0.5583  0.2005  0.3852
 5845SOL    HW129594   2.508   8.103  -0.017 -1.2858  0.7639  2.2675
 5845SOL    HW229595   2.639   8.096   0.079  1.1386 -0.5823 -1.0464
 5846SOL     OW29596   8.359   8.457   9.133 -0.5368  0.1635 -0.1741
 5846SOL    HW129597   8.452   8.462   9.096 -0.9295  2.1519 -0.9869
 5846SOL    HW229598   8.347   8.526   9.204 -1.2074 -0.5032  0.3709
 5847SOL     OW29599   2.550   3.259   4.052  0.0334  0.0014  0.0681
 5847SOL    HW129600   2.483   3.205   4.001 -0.4703  0.2457  0.4628
 5847SOL    HW229601   2.503   3.307   4.127  0.3726  1.5087 -0.6822
 5848SOL     OW29602   3.523   6.616   3.352 -0.2973 -0.0175 -0.0556
 5848SOL    HW129603   3.428   6.646   3.350 -0.1702  0.4176  0.5846
 5848SOL    HW229604   3.542   6.561   3.270 -1.6321 -1.7500  0.7612
 5849SOL     OW29605   4.976   2.153   0.690 -0.0448  0.1948 -0.0748
 5849SOL    HW129606   4.883   2.184   0.668 -0.2841 -0.7943 -0.4975
 5849SOL    HW229607   4.973   2.089   0.767  0.3670  0.6818  0.3496
 5850SOL     OW29608   0.156   6.501   0.973 -0.3808 -0.2020 -0.1156
 5850SOL    HW129609   0.241   6.474   1.017  0.3849  1.8061 -0.3342
 5850SOL    HW229610   0.142   6.599   0.983 -2.9528 -0.5640  0.3843
 5851SOL     OW29611   5.544   0.630   8.315  0.2790  0.5045  0.0061
 5851SOL    HW129612   5.643   0.628   8.303  0.0574 -0.2905 -1.9280
 5851SOL    HW229613   5.511   0.538   8.337 -0.1160  0.5846 -0.2427
 5852SOL     OW29614   0.479   5.706   7.851 -0.5491 -0.3345 -0.0779
 5852SOL    HW129615   0.562   5.763   7.846 -0.7325 -0.0203  0.4127
 5852SOL    HW229616   0.504   5.614   7.880 -0.3395 -0.2973 -0.1397
 5853SOL     OW29617   0.042   1.995   9.371  0.3627 -0.6940  0.2945
 5853SOL    HW129618   0.017   2.049   9.290  1.4424 -0.9210 -0.2099
 5853SOL    HW229619   0.075   2.056   9.443 -1.6972 -0.3880  0.9982
 5854SOL     OW29620   9.502   4.087   5.764 -0.0642  0.0149 -0.7571
 5854SOL    HW129621   9.546   4.175   5.748 -0.4345  0.1093 -1.2631
 5854SOL    HW229622   9.566   4.024   5.809 -0.8979  1.7158  3.0175
 5855SOL     OW29623   2.260   7.459   9.844 -0.1546  0.0678 -0.0590
 5855SOL    HW129624   2.196   7.382   9.851  0.1787 -0.3027 -1.0380
 5855SOL    HW229625   2.303   7.459   9.754  0.7285  0.7174  0.3539
 5856SOL     OW29626   3.096   5.398   2.615 -0.1045 -0.4362 -0.8724
 5856SOL    HW129627   3.185   5.359   2.593 -0.1483 -1.1012  0.1127
 5856SOL    HW229628   3.037   5.326   2.652 -0.3876  0.4443  0.4079
 5857SOL     OW29629   4.345   1.565   1.806 -0.0141 -0.0726 -0.1591
 5857SOL    HW129630   4.262   1.614   1.831  0.2521 -0.0010  0.5792
 5857SOL    HW229631   4.422   1.600   1.858  0.2689 -0.9358  0.0097
 5858SOL     OW29632   2.687   0.344   3.062 -0.6059  0.0426  0.0036
 5858SOL    HW129633   2.638   0.373   2.980  2.0573 -0.6054 -1.9194
 5858SOL    HW229634   2.706   0.246   3.056 -0.1784  0.0360  1.2951
 5859SOL     OW29635   4.389   6.255   5.426  0.2086  0.3014  0.6196
 5859SOL    HW129636   4.463   6.217   5.481  0.6912 -0.8797 -0.8126
 5859SOL    HW229637   4.301   6.235   5.469  0.6057 -0.2788  1.1643
 5860SOL     OW29638   3.419   7.097   5.312 -0.0291 -0.3917 -0.0843
 5860SOL    HW129639   3.377   7.078   5.223 -0.8513 -0.7910  0.3805
 5860SOL    HW229640   3.513   7.127   5.298 -1.0659  2.5003 -1.2751
 5861SOL     OW29641   9.365   9.058   0.110  0.0107  0.5417  0.5548
 5861SOL    HW129642   9.375   9.129   0.181 -0.6056  1.5352 -0.3464
 5861SOL    HW229643   9.409   9.088   0.026 -3.8569  1.7137 -1.1425
 5862SOL     OW29644   5.351   0.782   1.170 -0.0253 -0.0557  0.1118
 5862SOL    HW129645   5.301   0.702   1.137 -1.3263  0.4847  0.7377
 5862SOL    HW229646   5.343   0.788   1.269 -0.4675  1.1992  0.0031
 5863SOL     OW29647   5.424   6.510   1.209 -0.2733 -0.3781 -0.0163
 5863SOL    HW129648   5.507   6.456   1.200  0.1120  0.3763 -1.1748
 5863SOL    HW229649   5.348   6.452   1.239  1.1067 -0.6865  3.0039
 5864SOL     OW29650   4.354   2.497   7.799  0.5865 -0.2031 -0.4449
 5864SOL    HW129651   4.341   2.513   7.701  0.0605 -1.5036 -0.6030
 5864SOL    HW229652   4.273   2.530   7.849  1.5978  2.0864 -0.2395
 5865SOL     OW29653   2.433   0.654   9.174 -0.3458  0.2390 -0.3254
 5865SOL    HW129654   2.437   0.740   9.224  1.8768  0.2431 -0.4964
 5865SOL    HW229655   2.372   0.664   9.095 -0.8592  1.3440  0.2026
 5866SOL     OW29656   3.800   5.100   3.359 -0.3396 -0.1060 -0.6472
 5866SOL    HW129657   3.712   5.149   3.359  0.5391  1.5809  1.9382
 5866SOL    HW229658   3.788   5.010   3.400 -1.7037 -1.7053 -4.2845
 5867SOL     OW29659   3.149   7.725   3.161  0.5377 -0.2869  0.4622
 5867SOL    HW129660   3.077   7.785   3.129  0.5465  0.3377  1.5851
 5867SOL    HW229661   3.117   7.630   3.160 -0.6503  0.0743  1.8548
 5868SOL     OW29662   8.165   4.355   6.113  0.1411 -0.1586 -0.9429
 5868SOL    HW129663   8.175   4.448   6.080 -0.2506  0.1846 -0.1094
 5868SOL    HW229664   8.249   4.303   6.095  0.8615  0.7374 -0.1776
 5869SOL     OW29665   2.844   1.602   0.216  0.1351  0.1306 -0.5663
 5869SOL    HW129666   2.758   1.601   0.165 -0.2758  0.8486  0.1064
 5869SOL    HW229667   2.846   1.524   0.279 -0.5869  0.8406  0.3434
 5870SOL     OW29668   1.382   1.777   2.574  0.3794  0.4990 -0.2568
 5870SOL    HW129669   1.430   1.774   2.487 -0.5118 -0.0147 -0.7406
 5870SOL    HW229670   1.320   1.856   2.576  0.7354  0.7686  0.0879
 5871SOL     OW29671   7.136   0.105   9.665  0.5151 -0.6745  0.2638
 5871SOL    HW129672   7.118   0.038   9.592 -0.0839 -0.7093  0.4402
 5871SOL    HW229673   7.085   0.079   9.747 -1.5758  1.2628 -0.3694
 5872SOL     OW29674   0.446   1.889   1.933 -0.0092  0.2415  0.3348
 5872SOL    HW129675   0.457   1.859   1.838 -0.1511  0.9284  0.0970
 5872SOL    HW229676   0.428   1.987   1.934 -1.8425 -0.0964  0.9611
 5873SOL     OW29677   1.072   8.775   4.128  0.0126  0.3581  0.3393
 5873SOL    HW129678   1.165   8.741   4.112 -0.9373 -2.4505  0.4791
 5873SOL    HW229679   1.058   8.791   4.225 -0.1969 -0.8998  0.5166
 5874SOL     OW29680   8.331   8.695   8.960  0.5002  0.6669  0.3419
 5874SOL    HW129681   8.312   8.646   9.044 -1.4572 -0.3393 -0.6457
 5874SOL    HW229682   8.338   8.630   8.884  0.4195  1.6847 -0.5558
 5875SOL     OW29683   6.915   7.555   1.945 -0.4575  0.3555  0.2289
 5875SOL    HW129684   6.841   7.490   1.964 -0.2564  0.5569  1.7458
 5875SOL    HW229685   6.928   7.615   2.024  1.7309 -0.0700  0.2206
 5876SOL     OW29686   5.714   3.408   9.881 -0.1221  0.1277  0.1214
 5876SOL    HW129687   5.763   3.479   9.830  1.5441  0.6982  2.4043
 5876SOL    HW229688   5.658   3.354   9.818  0.9896  1.4972 -2.1127
 5877SOL     OW29689   9.615   1.802   2.307  0.4479 -0.3612  0.3841
 5877SOL    HW129690   9.613   1.787   2.208  2.9975 -1.2148  0.4364
 5877SOL    HW229691   9.671   1.882   2.327 -0.2051 -0.0928  1.1405
 5878SOL     OW29692   3.521   8.259   8.497  0.2037 -0.6052  0.0387
 5878SOL    HW129693   3.422   8.265   8.480  0.1181 -0.6355  0.5046
 5878SOL    HW229694   3.565   8.207   8.425 -0.1363 -0.6632 -0.1241
 5879SOL     OW29695   9.804   6.703   1.863 -0.2051  0.2598 -0.0367
 5879SOL    HW129696   9.846   6.793   1.856  0.5406 -0.0110  0.8129
 5879SOL    HW229697   9.875   6.632   1.861 -0.6253 -0.2203  1.0690
 5880SOL     OW29698   3.537   8.197   1.608  0.7270 -0.0703  0.3231
 5880SOL    HW129699   3.572   8.285   1.639 -0.9392  0.3519  1.0637
 5880SOL    HW229700   3.531   8.135   1.686  0.3677 -0.3175  0.0991
 5881SOL     OW29701   9.275   3.422   2.649 -0.4303 -0.3641 -0.4050
 5881SOL    HW129702   9.202   3.491   2.641 -0.9199 -0.8846 -0.4795
 5881SOL    HW229703   9.334   3.426   2.569 -0.5019 -0.0782 -0.4426
 5882SOL     OW29704   9.588   5.389   0.481 -0.6124 -0.1157 -0.4754
 5882SOL    HW129705   9.685   5.410   0.490 -0.3397 -1.0399 -1.1310
 5882SOL    HW229706   9.572   5.294   0.508 -0.9946 -0.5903 -2.3373
 5883SOL     OW29707   2.287   9.143   5.978  0.1968 -0.3035  0.0066
 5883SOL    HW129708   2.210   9.179   5.926  1.3338  0.8306 -0.9015
 5883SOL    HW229709   2.295   9.194   6.064 -0.5618 -0.9719  0.4838
 5884SOL     OW29710   9.909   2.125   8.377 -0.0791  0.5560 -0.2848
 5884SOL    HW129711   9.951   2.138   8.467  0.5847 -0.5298 -0.4364
 5884SOL    HW229712   9.921   2.209   8.322  0.7252  0.7223  0.1404
 5885SOL     OW29713   2.921   0.718   6.561 -0.3908 -0.2985  0.5452
 5885SOL    HW129714   2.964   0.635   6.598  3.2510  2.0372  1.8214
 5885SOL    HW229715   2.868   0.762   6.633 -0.1404 -0.1184  0.6185
 5886SOL     OW29716   7.327   2.119   7.694 -0.3551 -0.2404  0.4636
 5886SOL    HW129717   7.310   2.097   7.598 -1.9178 -0.5420  0.7914
 5886SOL    HW229718   7.358   2.037   7.742 -0.2053 -0.2491  0.3513
 5887SOL     OW29719   7.094   8.289   8.637  0.5129 -0.5155  0.4220
 5887SOL    HW129720   7.180   8.258   8.680  1.2885  0.2403 -0.5670
 5887SOL    HW229721   7.112   8.371   8.583 -1.0121  0.1209  0.8683
 5888SOL     OW29722   6.118   5.231   1.965 -0.6780 -0.0508 -0.8048
 5888SOL    HW129723   6.112   5.143   1.916  1.3551 -0.0112 -1.1643
 5888SOL    HW229724   6.199   5.231   2.022 -1.6207  0.9515  0.5532
 5889SOL     OW29725   7.693   3.284   2.286 -0.8415  0.3413  0.2268
 5889SOL    HW129726   7.730   3.376   2.300  0.5941 -0.3211  0.9335
 5889SOL    HW229727   7.755   3.232   2.226  1.1955 -1.8457  4.0019
 5890SOL     OW29728   2.780   8.109   2.072 -0.2829 -0.7310 -0.3733
 5890SOL    HW129729   2.765   8.207   2.085 -0.7464 -0.8047 -0.3441
 5890SOL    HW229730   2.860   8.080   2.124  0.8625 -0.0413 -1.7197
 5891SOL     OW29731   8.739   9.850   8.940  0.1891 -0.3789 -0.0254
 5891SOL    HW129732   8.765   9.780   9.006  0.0416 -0.5839 -0.1844
 5891SOL    HW229733   8.664   9.817   8.882  0.8559 -0.5051 -0.8241
 5892SOL     OW29734   1.740   6.572   0.306  0.2310  0.0921 -0.6920
 5892SOL    HW129735   1.831   6.600   0.275 -0.0705  1.6563 -0.1997
 5892SOL    HW229736   1.670   6.623   0.256 -0.4007 -1.2563 -1.2156
 5893SOL     OW29737   4.103   2.072   8.871  0.4693  0.2121 -0.2253
 5893SOL    HW129738   4.059   2.160   8.889 -0.5261 -0.2133 -0.5452
 5893SOL    HW229739   4.182   2.060   8.932 -1.5935 -0.2928  2.4075
 5894SOL     OW29740   4.280   1.803   5.626 -0.5113  0.2679 -0.4089
 5894SOL    HW129741   4.295   1.891   5.671  0.6059 -0.0003 -0.2553
 5894SOL    HW229742   4.299   1.812   5.528 -1.2552  0.4136 -0.5443
 5895SOL     OW29743   0.893   8.369   5.165  0.5450 -0.1192 -0.3907
 5895SOL    HW129744   0.898   8.293   5.099 -0.6492 -0.1603 -0.4516
 5895SOL    HW229745   0.970   8.430   5.150 -1.2499  1.4613 -3.8432
 5896SOL     OW29746   5.512   1.508   3.029 -0.4908 -0.2524 -0.2687
 5896SOL    HW129747   5.494   1.570   2.953 -1.5444 -0.8649 -0.5283
 5896SOL    HW229748   5.600   1.461   3.014 -0.3217  0.2079 -0.7170
 5897SOL     OW29749   6.436   1.968   2.865  0.1174 -0.5219  0.1370
 5897SOL    HW129750   6.452   2.067   2.855 -1.4543 -0.1149  1.3453
 5897SOL    HW229751   6.346   1.954   2.908  0.1381 -2.4949 -0.4502
 5898SOL     OW29752   1.421   1.555   2.068  0.0697 -0.2357 -0.3634
 5898SOL    HW129753   1.430   1.652   2.087 -1.2361 -0.1284 -0.2004
 5898SOL    HW229754   1.511   1.512   2.068  0.7702  1.1922 -1.7460
 5899SOL     OW29755   4.556   3.548   4.591  0.1639  0.4487 -0.1012
 5899SOL    HW129756   4.486   3.521   4.657  0.2413  0.3967 -0.0399
 5899SOL    HW229757   4.571   3.647   4.598  1.6256  0.1603  1.3939
 5900SOL     OW29758   3.334   5.729   7.022 -0.1220 -0.5834  0.0989
 5900SOL    HW129759   3.412   5.666   7.025  0.0363 -0.4230 -0.5718
 5900SOL    HW229760   3.351   5.800   6.954 -0.3352  0.1441  0.8011
 5901SOL     OW29761   8.926   3.620   0.673 -0.9171  0.0899  0.3296
 5901SOL    HW129762   8.909   3.546   0.607 -0.6050  0.5517 -0.2783
 5901SOL    HW229763   8.987   3.688   0.631 -1.2242  0.7037  0.8754
 5902SOL     OW29764   6.025   2.119   1.475  0.2260  0.0256  0.5419
 5902SOL    HW129765   6.015   2.050   1.403 -0.8947 -0.3208  1.0274
 5902SOL    HW229766   5.941   2.125   1.528  1.3927 -0.4333  2.4711
 5903SOL     OW29767   2.301   2.745   8.239  0.0167  0.4768  0.6713
 5903SOL    HW129768   2.242   2.794   8.304  0.9031 -0.2197  2.0025
 5903SOL    HW229769   2.342   2.666   8.283  0.7535  0.0743 -0.7022
 5904SOL     OW29770   9.827   5.365   2.434 -0.2156  0.3607 -0.0986
 5904SOL    HW129771   9.729   5.371   2.413 -0.2946 -1.0162 -0.1740
 5904SOL    HW229772   9.880   5.395   2.355 -0.5663  0.7898 -0.1758
 5905SOL     OW29773   2.866   7.289   2.111  0.8249 -0.2360 -0.3691
 5905SOL    HW129774   2.930   7.329   2.046  0.1373 -1.3553 -1.7718
 5905SOL    HW229775   2.801   7.358   2.141  1.6299  0.4793 -0.2592
 5906SOL     OW29776   9.192   9.852   1.544  0.1652 -0.1499 -0.4753
 5906SOL    HW129777   9.279   9.842   1.496  0.2507 -0.1208 -0.3276
 5906SOL    HW229778   9.143   9.931   1.508 -0.9096 -1.5849 -2.2369
 5907SOL     OW29779   2.182   0.626   3.388 -0.6055 -0.2964  0.0920
 5907SOL    HW129780   2.229   0.642   3.301 -0.1724 -0.2534  0.3371
 5907SOL    HW229781   2.131   0.707   3.414  1.4975  0.6755  1.2825
 5908SOL     OW29782   7.806   5.543   6.628  0.3376  0.0707  0.8908
 5908SOL    HW129783   7.820   5.519   6.724 -0.5741 -0.5577  0.8731
 5908SOL    HW229784   7.889   5.525   6.576  0.9366  0.7105  1.6203
 5909SOL     OW29785   3.103   4.273   3.209  0.3727 -0.2586  0.0204
 5909SOL    HW129786   3.029   4.212   3.238  0.8190 -1.2732 -0.9480
 5909SOL    HW229787   3.111   4.348   3.274 -0.2619 -1.1569  1.1654
 5910SOL     OW29788   0.124   5.134   8.404 -0.5284  0.3438 -0.1051
 5910SOL    HW129789   0.173   5.051   8.380  1.6862  1.3615  0.7366
 5910SOL    HW229790   0.064   5.161   8.329 -2.7734 -3.0411  0.3811
 5911SOL     OW29791   1.629   9.147   0.806  0.4451 -0.1254  0.1796
 5911SOL    HW129792   1.572   9.222   0.840 -0.7379 -0.3168 -1.3075
 5911SOL    HW229793   1.570   9.077   0.765  1.4959 -2.0774  1.9294
 5912SOL     OW29794   2.784   0.752   2.440 -0.6389  0.0798 -0.7884
 5912SOL    HW129795   2.727   0.801   2.374  1.0338  0.8724 -1.6789
 5912SOL    HW229796   2.867   0.806   2.459  0.4698 -1.6674 -0.5589
 5913SOL     OW29797   4.342   7.696   5.512  0.1286  0.1894  0.2380
 5913SOL    HW129798   4.257   7.662   5.551 -0.1913  0.7163  0.0117
 5913SOL    HW229799   4.398   7.619   5.481  0.3676 -0.2236  1.6865
 5914SOL     OW29800   0.847   5.103   1.730  0.1590 -0.2922  0.4210
 5914SOL    HW129801   0.823   5.176   1.794  1.8924  0.4793  0.2008
 5914SOL    HW229802   0.777   5.096   1.659 -0.1982  0.9156  0.6524
 5915SOL     OW29803   1.678   1.503   2.045 -0.0506 -0.7779  0.7995
 5915SOL    HW129804   1.691   1.479   1.949 -1.5049 -0.9273  0.6278
 5915SOL    HW229805   1.734   1.582   2.068 -0.2658 -0.2750 -0.3705
 5916SOL     OW29806   3.706   2.201   9.343 -0.0494 -0.1901 -0.2150
 5916SOL    HW129807   3.637   2.273   9.352 -0.5834 -0.6486 -0.5777
 5916SOL    HW229808   3.664   2.112   9.363  0.2847 -0.5311 -0.9978
 5917SOL     OW29809   4.708   7.970   7.494 -0.0213 -0.4262 -0.6675
 5917SOL    HW129810   4.731   8.038   7.564 -1.9296 -0.4683  0.0370
 5917SOL    HW229811   4.782   7.966   7.427 -0.5648  3.5873 -1.6624
 5918SOL     OW29812   4.495   4.960   7.594  0.2368 -0.0449  0.4820
 5918SOL    HW129813   4.504   4.907   7.510  1.0477 -1.3342  1.3731
 5918SOL    HW229814   4.568   4.936   7.657 -0.6359  0.5750  1.7581
 5919SOL     OW29815   8.622   8.199   8.158 -0.4549 -1.4292 -0.0796
 5919SOL    HW129816   8.563   8.254   8.217 -0.6562 -1.5491 -0.1686
 5919SOL    HW229817   8.617   8.103   8.186  0.1167 -1.3649  0.2564
 5920SOL     OW29818   9.333   4.295   1.189  0.0975 -0.3429  0.2384
 5920SOL    HW129819   9.342   4.275   1.286  0.1056 -0.7346  0.1552
 5920SOL    HW229820   9.249   4.254   1.154 -0.5205  0.8128  0.3511
 5921SOL     OW29821   5.018   0.738   2.605  0.2152 -0.3528 -0.4688
 5921SOL    HW129822   5.000   0.818   2.548  0.1396  1.6129  2.2122
 5921SOL    HW229823   4.932   0.704   2.643  0.5815  0.4224  1.1107
 5922SOL     OW29824   8.764   1.881   1.816 -0.5705 -0.0789  0.1594
 5922SOL    HW129825   8.730   1.922   1.731 -2.5168  0.8868  1.3709
 5922SOL    HW229826   8.864   1.878   1.814 -0.5635  0.7599 -1.7736
 5923SOL     OW29827   9.433   5.330   3.100 -0.0227  0.2771  0.2544
 5923SOL    HW129828   9.491   5.401   3.141 -0.1735  1.0163 -0.7761
 5923SOL    HW229829   9.459   5.241   3.135 -0.1653  0.8891  1.9799
 5924SOL     OW29830   6.454   6.213   3.404  0.2362  0.1236  0.5520
 5924SOL    HW129831   6.521   6.285   3.424 -0.1767  0.8209 -0.4981
 5924SOL    HW229832   6.496   6.145   3.344  0.6353 -0.5314  1.5667
 5925SOL     OW29833   2.379   1.299   5.265 -0.2500 -0.9857  0.7125
 5925SOL    HW129834   2.402   1.202   5.254  3.5793 -0.0171 -0.6084
 5925SOL    HW229835   2.461   1.350   5.290 -1.5038  2.3927 -1.7131
 5926SOL     OW29836   0.474   4.222   0.676  0.2644 -0.1927  0.5663
 5926SOL    HW129837   0.377   4.215   0.702  0.1451 -0.8627 -0.0437
 5926SOL    HW229838   0.512   4.308   0.711 -0.5793  0.1233  0.7159
 5927SOL     OW29839   6.423   9.434   9.053  0.0965  0.3791 -0.0837
 5927SOL    HW129840   6.462   9.428   9.145 -0.5971 -0.5942  0.1589
 5927SOL    HW229841   6.364   9.515   9.047  1.0669  1.0908 -0.0335
 5928SOL     OW29842   5.964   7.756   0.275  0.2672  0.2410  0.7180
 5928SOL    HW129843   5.925   7.838   0.317 -1.8560 -1.3339  1.8843
 5928SOL    HW229844   5.977   7.771   0.177 -1.1309  1.5808  0.7340
 5929SOL     OW29845   2.969   7.278   1.664 -0.9295  0.2918 -0.2782
 5929SOL    HW129846   2.943   7.339   1.589 -0.5374 -1.7026 -2.0613
 5929SOL    HW229847   3.034   7.210   1.631  0.3027  0.1960  2.2071
 5930SOL     OW29848   3.474   9.645   3.197  0.0418  0.6746 -0.2615
 5930SOL    HW129849   3.388   9.594   3.192 -0.4506  1.3538  1.1006
 5930SOL    HW229850   3.462   9.735   3.154 -0.4393  1.4476  1.4740
 5931SOL     OW29851   1.493   6.814   2.678  0.1349  0.3138 -0.0883
 5931SOL    HW129852   1.530   6.867   2.602  0.8871 -0.9302 -0.6127
 5931SOL    HW229853   1.416   6.759   2.646 -0.1849  0.5387  0.2859
 5932SOL     OW29854   2.762   0.333   1.423  0.3442 -0.3450  0.3051
 5932SOL    HW129855   2.736   0.416   1.373 -0.6344 -0.0482  1.2753
 5932SOL    HW229856   2.833   0.356   1.490  0.1158 -0.3031  0.5327
 5933SOL     OW29857   0.544   0.183   1.418 -0.0515  0.2586 -0.0719
 5933SOL    HW129858   0.628   0.154   1.372  1.1876  2.7808  0.5189
 5933SOL    HW229859   0.548   0.153   1.514  0.9415  1.7630  0.3769
 5934SOL     OW29860   5.769   2.696   8.995 -0.1067  0.4097  0.0898
 5934SOL    HW129861   5.862   2.665   9.013  0.0329  1.0266  0.4338
 5934SOL    HW229862   5.718   2.703   9.081 -0.1270  1.1630  0.0199
 5935SOL     OW29863   1.869   9.611   0.152 -0.3813  0.1053  0.6281
 5935SOL    HW129864   1.963   9.580   0.139  0.0687  0.9621  1.7507
 5935SOL    HW229865   1.831   9.568   0.235 -0.4848  0.8773  0.9819
 5936SOL     OW29866   2.132   0.190   6.251 -0.4551 -0.0157 -0.3351
 5936SOL    HW129867   2.102   0.252   6.324 -0.4910  1.1411 -1.3110
 5936SOL    HW229868   2.055   0.134   6.221 -0.9583  0.9838 -0.9172
 5937SOL     OW29869   1.943   1.687   4.527 -0.0868 -0.1994 -0.9455
 5937SOL    HW129870   1.981   1.761   4.471 -0.6321  0.2314 -0.7464
 5937SOL    HW229871   2.018   1.639   4.573  0.2286  0.5734 -0.6423
 5938SOL     OW29872   0.817   6.301   3.507 -0.4763 -0.2720 -0.2239
 5938SOL    HW129873   0.767   6.233   3.562  0.5492 -1.4386 -0.7103
 5938SOL    HW229874   0.910   6.310   3.543 -0.3651  0.3003 -0.6520
 5939SOL     OW29875   5.721   1.266   7.933 -0.1989  0.4263 -0.5620
 5939SOL    HW129876   5.629   1.229   7.917 -0.1447  0.3087 -0.6010
 5939SOL    HW229877   5.781   1.193   7.965 -0.1213  0.5062 -0.5245
 5940SOL     OW29878   1.270   3.466   9.454 -0.0108  0.3560 -0.4015
 5940SOL    HW129879   1.287   3.482   9.551 -1.9441  1.4821 -0.2187
 5940SOL    HW229880   1.254   3.553   9.408 -0.0656 -0.2433 -1.5389
 5941SOL     OW29881   4.136   3.117   7.974  0.0519  0.2241  0.1077
 5941SOL    HW129882   4.215   3.100   8.033  0.9101 -0.0365 -1.0978
 5941SOL    HW229883   4.164   3.171   7.895 -1.4254  1.9534  0.7478
 5942SOL     OW29884   4.005   1.414   1.646 -0.0048  0.8187  0.1550
 5942SOL    HW129885   3.923   1.360   1.628  2.3732 -2.9988  0.1415
 5942SOL    HW229886   3.998   1.457   1.736 -1.3891 -0.7805  0.8385
 5943SOL     OW29887   7.204   9.691   9.339  0.4120 -0.4305 -0.1732
 5943SOL    HW129888   7.254   9.710   9.254 -0.2638 -0.7329 -0.6342
 5943SOL    HW229889   7.156   9.604   9.332 -0.0316 -0.2335  0.3487
 5944SOL     OW29890   1.573   0.962   8.728 -0.3226  0.6597  0.1816
 5944SOL    HW129891   1.601   0.901   8.802 -0.3271 -1.0788 -1.2213
 5944SOL    HW229892   1.653   0.985   8.672 -0.8039 -0.4473 -1.0060
 5945SOL     OW29893   7.275   9.580   0.559  0.1627 -0.1096  0.3037
 5945SOL    HW129894   7.189   9.614   0.521  0.3936  1.1120  0.8729
 5945SOL    HW229895   7.255   9.518   0.636 -0.3593 -3.6849 -2.5457
 5946SOL     OW29896   9.522   9.701   9.437 -0.7461 -0.0754 -0.3237
 5946SOL    HW129897   9.577   9.656   9.367  1.0569  1.6133 -0.0415
 5946SOL    HW229898   9.425   9.682   9.421 -0.3541  0.0773 -3.1292
 5947SOL     OW29899   1.300   9.971   8.717 -0.1426  0.0419  0.1534
 5947SOL    HW129900   1.234  10.045   8.725  0.6530  0.6051  1.6700
 5947SOL    HW229901   1.330   9.964   8.621 -1.3685  0.6540 -0.2891
 5948SOL     OW29902   1.835   2.750   0.082  0.3311 -0.0822 -0.2961
 5948SOL    HW129903   1.841   2.667   0.137  0.2509 -0.2706 -0.5726
 5948SOL    HW229904   1.925   2.793   0.076 -0.1190  1.3795  2.2089
 5949SOL     OW29905   8.165   8.329   9.294  0.4167 -0.0431  0.7863
 5949SOL    HW129906   8.156   8.420   9.334 -1.6181  0.8869 -1.6138
 5949SOL    HW229907   8.250   8.323   9.242 -0.3582  1.1891 -0.6660
 5950SOL     OW29908   9.193   3.950   0.773 -0.0277  0.0394  0.0473
 5950SOL    HW129909   9.142   3.872   0.809  1.0700 -0.3291  0.7977
 5950SOL    HW229910   9.129   4.015   0.732 -1.0942 -0.4530  0.9216
 5951SOL     OW29911   6.489   2.595   2.041  0.3594 -0.3055  0.1369
 5951SOL    HW129912   6.416   2.623   1.979  0.2229 -1.9415 -0.4483
 5951SOL    HW229913   6.543   2.523   1.998  1.3844 -0.1731  1.1939
 5952SOL     OW29914   3.018   1.372   1.658  0.5824  0.4020 -0.0954
 5952SOL    HW129915   2.961   1.431   1.716  0.3412  1.0505 -0.9802
 5952SOL    HW229916   3.110   1.410   1.653  0.2689  1.0148 -1.1391
 5953SOL     OW29917   1.424   7.432   5.893 -0.6529 -1.0954 -0.2261
 5953SOL    HW129918   1.377   7.472   5.814 -0.7541 -2.4291 -0.8576
 5953SOL    HW229919   1.501   7.377   5.862  1.6976  1.5006  0.8476
 5954SOL     OW29920   2.052   1.172   9.073  0.4554 -0.9653 -0.2080
 5954SOL    HW129921   2.011   1.231   9.003  2.7505  3.7484  2.1863
 5954SOL    HW229922   2.151   1.174   9.063  0.6707 -2.4364  1.5032
 5955SOL     OW29923   5.196   0.013   8.450  0.2846 -0.5583 -0.2153
 5955SOL    HW129924   5.124   0.072   8.412 -1.3237 -2.1720  0.2797
 5955SOL    HW229925   5.285   0.044   8.417 -0.6906  1.0044 -1.4448
 5956SOL     OW29926   3.272   4.193   1.957 -0.1646  0.4532  0.1551
 5956SOL    HW129927   3.216   4.114   1.934  1.0335 -0.8603  1.6043
 5956SOL    HW229928   3.213   4.271   1.977 -1.3998 -0.4012 -0.1187
 5957SOL     OW29929   4.859   7.916   8.967  0.3991 -0.1114 -0.0426
 5957SOL    HW129930   4.937   7.860   8.995  0.3626  0.5164  1.3409
 5957SOL    HW229931   4.880   8.012   8.985  0.0869  0.2547 -1.5225
 5958SOL     OW29932   6.146   4.010   8.877  0.8242  0.2233  0.3299
 5958SOL    HW129933   6.170   3.987   8.783  0.0323 -0.4763  0.3012
 5958SOL    HW229934   6.102   3.932   8.921  1.6370  0.3686  1.4445
 5959SOL     OW29935   5.290   1.127   3.653  0.0309  0.6937  0.7901
 5959SOL    HW129936   5.213   1.075   3.616  0.2077  0.4702  0.7384
 5959SOL    HW229937   5.376   1.088   3.620  0.1558  1.1651  0.5519
 5960SOL     OW29938   5.720   1.332   0.485  0.4910 -0.2768 -0.5313
 5960SOL    HW129939   5.800   1.294   0.531  1.1277 -0.6526 -1.8981
 5960SOL    HW229940   5.751   1.397   0.415 -0.4168 -0.2884 -0.9485
 5961SOL     OW29941   2.564   4.599   3.497 -0.0331 -0.1908 -0.4621
 5961SOL    HW129942   2.638   4.665   3.506  1.3875 -2.0071  1.7941
 5961SOL    HW229943   2.494   4.617   3.565 -0.6327  0.2110 -1.1789
 5962SOL     OW29944   3.369   8.902   9.669  0.3266  0.9012 -0.3782
 5962SOL    HW129945   3.298   8.912   9.600  0.7503 -2.9042 -1.4628
 5962SOL    HW229946   3.440   8.971   9.654 -0.9742  1.9205 -1.9749
 5963SOL     OW29947   0.294   1.189   0.710  0.6474  0.5790 -0.1539
 5963SOL    HW129948   0.202   1.225   0.723 -0.2933 -2.4406  2.0103
 5963SOL    HW229949   0.361   1.257   0.740 -0.9862  1.4980  1.4472
 5964SOL     OW29950   2.055   9.677   3.358  0.1753  0.2820  0.1521
 5964SOL    HW129951   1.989   9.643   3.290 -0.4356  0.7304  0.5158
 5964SOL    HW229952   2.081   9.603   3.419 -2.9430  0.9579  2.4114
 5965SOL     OW29953   0.703   4.201   9.025  0.9759  0.2145 -0.0893
 5965SOL    HW129954   0.681   4.263   9.100 -0.3332  0.0820 -0.3474
 5965SOL    HW229955   0.636   4.213   8.951  1.1899 -0.9170 -0.4799
 5966SOL     OW29956   4.560   9.281   7.060  0.6602  0.3811  0.0745
 5966SOL    HW129957   4.534   9.237   6.974  1.7074  0.6642 -0.3998
 5966SOL    HW229958   4.524   9.374   7.061  1.3260  0.6551 -0.4291
 5967SOL     OW29959   0.488   3.231   9.999 -0.5162 -0.3327 -0.0838
 5967SOL    HW129960   0.437   3.145   9.993  0.1464 -0.7501  0.1927
 5967SOL    HW229961   0.584   3.211  10.017 -0.4642  0.4976  0.5622
 5968SOL     OW29962   4.235   7.714   5.270 -0.2111 -0.1217 -0.1702
 5968SOL    HW129963   4.170   7.639   5.264 -2.0023  1.3532  0.2134
 5968SOL    HW229964   4.272   7.718   5.363 -1.8505  0.8431  0.4679
 5969SOL     OW29965   6.867   2.407   7.561  0.0922 -0.9503 -0.5239
 5969SOL    HW129966   6.916   2.468   7.623 -2.8975  0.6408  0.3701
 5969SOL    HW229967   6.899   2.423   7.467  0.8377  0.4664 -0.0494
 5970SOL     OW29968   9.984   1.630   2.686 -0.4468  0.3975 -0.3093
 5970SOL    HW129969   9.946   1.677   2.765  1.6035  1.5262  0.0191
 5970SOL    HW229970   9.975   1.688   2.605 -0.7766  0.0346 -0.5389
 5971SOL     OW29971   8.050   3.863   9.771  0.1478 -0.2842  0.0807
 5971SOL    HW129972   7.966   3.876   9.823 -0.0116  2.1553 -0.7321
 5971SOL    HW229973   8.037   3.898   9.678  1.9177 -0.3375 -0.1977
 5972SOL     OW29974   3.650   1.920   9.408  0.0753 -0.7688 -0.1889
 5972SOL    HW129975   3.612   1.894   9.319 -0.2495  2.9935 -1.2569
 5972SOL    HW229976   3.744   1.887   9.415  0.9464  0.8770 -2.9988
 5973SOL     OW29977   1.734   1.883   2.797  0.0262 -0.1320  0.1510
 5973SOL    HW129978   1.712   1.963   2.853 -1.8092 -0.8595  0.4975
 5973SOL    HW229979   1.784   1.816   2.851  0.7306  0.3615  0.1217
 5974SOL     OW29980   7.846   2.768   2.643 -0.0725  0.1443  0.3066
 5974SOL    HW129981   7.908   2.698   2.678  0.1453 -0.1140 -0.5691
 5974SOL    HW229982   7.826   2.835   2.714  0.3183 -0.3973  0.9246
 5975SOL     OW29983   2.822   5.950   2.144  0.2702 -0.1949 -0.0442
 5975SOL    HW129984   2.793   5.912   2.057  0.9921  0.3171 -0.5123
 5975SOL    HW229985   2.914   5.990   2.135  0.5337 -0.5196  1.0455
 5976SOL     OW29986   3.311   6.021   3.336 -0.0956 -0.4493 -0.5789
 5976SOL    HW129987   3.376   5.945   3.339  0.0565 -0.2853  0.9651
 5976SOL    HW229988   3.221   5.989   3.365 -0.4051 -0.3870 -1.4621
 5977SOL     OW29989   2.741   0.663   9.910  0.2646  0.2980  0.3664
 5977SOL    HW129990   2.814   0.724   9.880 -1.2874  1.4274 -1.2199
 5977SOL    HW229991   2.652   0.702   9.884 -0.8506 -1.6697  1.1120
 5978SOL     OW29992   9.303   7.458   0.414  0.1350  0.2884  0.1487
 5978SOL    HW129993   9.237   7.503   0.356 -0.0703  1.0030  0.9234
 5978SOL    HW229994   9.301   7.359   0.398 -0.8577  0.3479 -0.0857
 5979SOL     OW29995   4.813   8.561   6.222  0.3079  0.1499 -0.7739
 5979SOL    HW129996   4.759   8.645   6.214  0.5552  0.4513  0.6331
 5979SOL    HW229997   4.812   8.529   6.316  0.1119 -1.5195 -1.3262
 5980SOL     OW29998   3.666   3.565   9.591 -0.2343  0.0889 -0.0265
 5980SOL    HW129999   3.632   3.503   9.662 -0.2598  1.3770  1.1192
 5980SOL    HW230000   3.760   3.593   9.614  0.1455 -0.3021 -1.0652
 5981SOL     OW30001   4.456   1.839   7.852  0.0577  0.6250  0.0267
 5981SOL    HW130002   4.364   1.871   7.829 -0.7030 -1.1343  0.5215
 5981SOL    HW230003   4.508   1.914   7.893 -0.9584  1.7944 -0.7767
 5982SOL     OW30004   8.051   5.391   3.791  0.1441 -0.1741 -0.2708
 5982SOL    HW130005   7.992   5.367   3.869  0.1692  1.7506  0.3550
 5982SOL    HW230006   8.014   5.471   3.745  0.5556 -0.8546 -1.8186
 5983SOL     OW30007   4.473   3.926   0.963 -0.0006  0.2355 -0.2841
 5983SOL    HW130008   4.556   3.872   0.969 -1.1823 -1.6896 -0.8873
 5983SOL    HW230009   4.460   3.957   0.869  1.0149  2.1912  0.1773
 5984SOL     OW30010   6.315   3.010   9.888  0.2326  0.3277 -0.1198
 5984SOL    HW130011   6.396   3.024   9.830 -0.3066  2.3067 -0.4399
 5984SOL    HW230012   6.238   3.060   9.849 -1.0315 -1.1331  0.4689
 5985SOL     OW30013   2.721   7.686   8.123  0.4712  0.4162 -0.8087
 5985SOL    HW130014   2.696   7.605   8.176  0.9352  0.2253 -0.8807
 5985SOL    HW230015   2.646   7.752   8.125  0.2491  0.1518 -0.4180
 5986SOL     OW30016   4.528   0.804   6.662 -0.8144 -0.3595 -0.2186
 5986SOL    HW130017   4.452   0.852   6.618 -0.0718 -0.8823 -2.0847
 5986SOL    HW230018   4.527   0.825   6.760 -3.3842 -0.3887 -0.1927
 5987SOL     OW30019   0.649   0.486   7.057  0.0940  0.2878  0.4381
 5987SOL    HW130020   0.733   0.438   7.082 -0.1426 -0.7574 -0.7614
 5987SOL    HW230021   0.577   0.464   7.122  0.4977  0.4995  0.9625
 5988SOL     OW30022   9.316   5.379   8.618 -0.5227  0.4344 -0.0547
 5988SOL    HW130023   9.281   5.362   8.710  1.7015  2.8983  1.3241
 5988SOL    HW230024   9.390   5.447   8.623  0.3219 -0.1564 -3.5455
 5989SOL     OW30025   3.995   8.890   7.837 -0.1074  0.4445 -0.0521
 5989SOL    HW130026   4.083   8.906   7.882  0.7655  1.4140 -2.0664
 5989SOL    HW230027   3.984   8.793   7.819  0.2398  0.2414  0.7930
 5990SOL     OW30028   7.209   3.175   0.282  0.3118 -0.2313 -0.2358
 5990SOL    HW130029   7.184   3.094   0.228  0.0269  1.3136 -2.5119
 5990SOL    HW230030   7.294   3.214   0.247 -0.9329  1.9700 -0.9490
 5991SOL     OW30031   4.844   2.735   4.558  0.0307  0.3254 -0.1762
 5991SOL    HW130032   4.884   2.694   4.639  2.4578  1.1704 -0.9009
 5991SOL    HW230033   4.788   2.667   4.510  1.5781 -1.2637  0.2316
 5992SOL     OW30034   0.314   5.017   3.662 -0.5440 -0.8859  0.0027
 5992SOL    HW130035   0.376   5.092   3.638 -0.1423 -0.5734  1.9818
 5992SOL    HW230036   0.332   4.939   3.602  0.9791 -0.4050 -0.1886
 5993SOL     OW30037   0.012   4.374   1.956  0.3828  0.2339  0.3148
 5993SOL    HW130038  -0.022   4.280   1.963 -0.1646  0.4351  0.3831
 5993SOL    HW230039   0.023   4.412   2.048 -0.0267  0.4577  0.2740
 5994SOL     OW30040   2.708   9.010   1.442 -0.2966  0.0339  0.1962
 5994SOL    HW130041   2.708   8.997   1.343  0.6120  0.5909  0.1194
 5994SOL    HW230042   2.623   9.056   1.470 -0.7356 -0.4912 -0.2680
 5995SOL     OW30043   2.669   2.514   7.092  0.4252 -0.6759 -0.1255
 5995SOL    HW130044   2.632   2.594   7.046 -0.7624 -0.8043  0.5892
 5995SOL    HW230045   2.753   2.541   7.141  1.4374 -0.4461 -1.9278
 5996SOL     OW30046   2.104   9.550   0.027 -0.5340  0.1488  0.2159
 5996SOL    HW130047   2.172   9.616   0.060 -1.4573  0.6536  1.1469
 5996SOL    HW230048   2.110   9.543  -0.072  0.0304  1.1274  0.1699
 5997SOL     OW30049   5.836   4.907   2.530  0.2032  0.0686 -0.2452
 5997SOL    HW130050   5.782   4.900   2.446  2.0412  1.9430 -1.6604
 5997SOL    HW230051   5.788   4.964   2.596 -0.2037  0.5787 -0.9695
 5998SOL     OW30052   4.581   2.305   6.439 -0.7263 -0.1184 -0.6094
 5998SOL    HW130053   4.674   2.284   6.410  0.5642  2.1892  1.6845
 5998SOL    HW230054   4.550   2.389   6.395 -0.9046  0.2796  0.2717
 5999SOL     OW30055   1.220   9.101   2.865  0.3278 -0.1067 -0.5111
 5999SOL    HW130056   1.175   9.016   2.838  0.4332 -0.2871 -0.1239
 5999SOL    HW230057   1.161   9.152   2.927  0.4544 -0.1189 -0.3787
 6000SOL     OW30058   8.453   0.451   1.572 -0.2457 -0.4545 -0.5101
 6000SOL    HW130059   8.519   0.490   1.508  0.8177  0.4754  1.1336
 6000SOL    HW230060   8.376   0.514   1.583  0.5307  0.3027  0.6426
 6001SOL     OW30061   7.414   9.790   3.686 -0.1073  0.1054 -0.3525
 6001SOL    HW130062   7.486   9.848   3.648  0.0650 -0.4743 -0.9247
 6001SOL    HW230063   7.451   9.700   3.707 -0.6709 -0.2178 -0.7166
 6002SOL     OW30064   1.140   1.956   4.391 -0.7811  0.5188 -0.1496
 6002SOL    HW130065   1.139   1.931   4.294  0.0449  0.4934 -0.1574
 6002SOL    HW230066   1.089   1.887   4.443  1.5012 -1.2843 -0.1717
 6003SOL     OW30067   0.248   6.309   1.321  0.1825 -0.7369  0.6234
 6003SOL    HW130068   0.213   6.394   1.282  1.4802  0.2930  1.6957
 6003SOL    HW230069   0.288   6.253   1.249  0.2888  0.0297  0.0889
 6004SOL     OW30070   4.229   8.559   7.522  0.5014 -0.0665  0.2667
 6004SOL    HW130071   4.288   8.605   7.457 -1.2243  1.4902 -0.2341
 6004SOL    HW230072   4.208   8.467   7.489  0.6448  0.2690 -0.7634
 6005SOL     OW30073   6.410   3.531   0.291  0.2090  0.6899  0.3692
 6005SOL    HW130074   6.492   3.490   0.332  1.4963  2.7533 -0.0818
 6005SOL    HW230075   6.364   3.588   0.358  0.4596  1.4097 -0.0719
 6006SOL     OW30076   1.436   9.012   1.471 -0.0914  0.2901  0.4826
 6006SOL    HW130077   1.375   8.943   1.511  0.8950  1.0307  3.4102
 6006SOL    HW230078   1.397   9.103   1.484  0.6419  0.6042  0.5346
 6007SOL     OW30079   0.972   1.465   3.331  0.2037  0.1990 -0.2584
 6007SOL    HW130080   1.029   1.537   3.291  0.3697 -0.5223 -1.3683
 6007SOL    HW230081   0.880   1.499   3.345  0.4792  0.8613 -0.0464
 6008SOL     OW30082   2.345   1.019   8.987 -0.4626 -0.0262 -0.1716
 6008SOL    HW130083   2.341   1.118   9.000  0.4552 -0.0238  0.1420
 6008SOL    HW230084   2.313   0.996   8.895 -2.0171  0.4264  0.2433
 6009SOL     OW30085   0.961   7.429   2.889  0.7178  0.3420 -0.0348
 6009SOL    HW130086   0.941   7.525   2.912  2.1573  0.7146 -0.3169
 6009SOL    HW230087   0.916   7.406   2.803 -0.1569  0.5644  0.3468
 6010SOL     OW30088   6.299   5.253   2.671 -0.8717 -0.4856  0.2090
 6010SOL    HW130089   6.228   5.197   2.628 -1.0890 -0.9574  1.1688
 6010SOL    HW230090   6.259   5.304   2.748 -0.7579  1.2574 -0.8635
 6011SOL     OW30091   2.655   2.401   3.126  0.0362  0.3362 -0.1135
 6011SOL    HW130092   2.738   2.416   3.180  0.6974  0.4764 -1.1449
 6011SOL    HW230093   2.608   2.488   3.113 -1.1450  0.0113  1.8322
 6012SOL     OW30094   0.590   9.769   1.310 -0.2416 -0.0705 -0.0931
 6012SOL    HW130095   0.675   9.743   1.355 -1.2031 -2.1861  0.6063
 6012SOL    HW230096   0.514   9.716   1.349 -2.1692  2.9906  0.5186
 6013SOL     OW30097   3.412   6.068   8.592 -0.2925 -0.0581 -0.4392
 6013SOL    HW130098   3.442   6.128   8.517  1.8257  0.7798  1.0470
 6013SOL    HW230099   3.469   5.986   8.594 -1.1305 -0.6528 -0.4650
 6014SOL     OW30100   0.714   1.161   5.379  0.7632 -0.7343  0.3741
 6014SOL    HW130101   0.677   1.252   5.395 -2.3752 -1.6327 -1.4413
 6014SOL    HW230102   0.687   1.099   5.452  2.3235 -0.4102  1.2530
 6015SOL     OW30103   1.557   1.497   9.024 -0.2565  0.2146  0.2901
 6015SOL    HW130104   1.508   1.545   9.097 -1.0333  0.5317 -0.4320
 6015SOL    HW230105   1.510   1.412   9.002  0.8113 -0.6162  1.1837
 6016SOL     OW30106   3.544   0.694   2.225  0.2347 -0.4090  0.3622
 6016SOL    HW130107   3.587   0.767   2.278 -1.7368  0.0688  1.3431
 6016SOL    HW230108   3.526   0.616   2.284 -1.6975  0.0155  0.3606
 6017SOL     OW30109   9.826   2.378   1.719 -0.2699  0.6361  0.3020
 6017SOL    HW130110   9.832   2.320   1.637 -2.0905 -0.2762  0.7975
 6017SOL    HW230111   9.843   2.473   1.694 -1.2654  0.4315 -1.2139
 6018SOL     OW30112   2.271   8.199   5.179  0.0708  0.4250  0.0540
 6018SOL    HW130113   2.205   8.267   5.211  0.8303  1.7013 -1.0570
 6018SOL    HW230114   2.232   8.108   5.190 -1.7051  1.1363 -0.1478
 6019SOL     OW30115   5.123   9.619   8.144  0.0325  0.0128 -0.0822
 6019SOL    HW130116   5.099   9.523   8.162 -0.4665  0.3642  1.1910
 6019SOL    HW230117   5.075   9.678   8.209  0.2174  1.1432 -0.9584
 6020SOL     OW30118   0.420   0.570   8.921 -0.4342 -0.3337 -0.2529
 6020SOL    HW130119   0.487   0.501   8.895 -2.0244 -1.9318 -0.1556
 6020SOL    HW230120   0.464   0.660   8.921  2.2672 -1.5838  1.9139
 6021SOL     OW30121   9.295   0.338   5.309 -0.5720 -0.7314  0.1190
 6021SOL    HW130122   9.325   0.254   5.264 -1.7010  0.4942 -3.0301
 6021SOL    HW230123   9.375   0.394   5.332 -0.0535 -0.1998 -2.7799
 6022SOL     OW30124   4.463   6.949   7.263 -0.1892 -0.2103 -0.3150
 6022SOL    HW130125   4.493   6.967   7.356  0.3642  0.7299 -0.6646
 6022SOL    HW230126   4.375   6.994   7.248  0.5361  1.0906 -0.7625
 6023SOL     OW30127   1.923   0.886   2.065 -0.1200  0.7349  0.2396
 6023SOL    HW130128   1.888   0.920   1.978 -0.4560 -0.8820 -0.2718
 6023SOL    HW230129   1.850   0.839   2.115  0.5538 -0.0292  0.5171
 6024SOL     OW30130   8.606   1.776   8.208 -0.1573 -0.9366 -0.4495
 6024SOL    HW130131   8.679   1.819   8.261 -0.9706 -0.1829  0.0575
 6024SOL    HW230132   8.573   1.840   8.139 -0.3644 -1.2728 -0.6639
 6025SOL     OW30133   4.054   5.168   0.110  0.5205  0.0107  0.1974
 6025SOL    HW130134   4.073   5.182   0.013 -0.1337 -3.3645 -0.4840
 6025SOL    HW230135   4.137   5.135   0.155  0.3283 -0.2564  0.3580
 6026SOL     OW30136   6.490   8.365   6.372 -0.0888  0.3227 -0.5887
 6026SOL    HW130137   6.421   8.387   6.302 -1.2995  0.7324  0.7093
 6026SOL    HW230138   6.532   8.449   6.404  1.3291  0.0458 -1.6534
 6027SOL     OW30139   5.037   4.045   0.147 -0.6635  0.2344 -0.5400
 6027SOL    HW130140   5.122   4.097   0.138 -0.5233 -0.0834 -1.1168
 6027SOL    HW230141   4.965   4.090   0.094 -1.0826  0.9736  0.6434
 6028SOL     OW30142   1.015   9.912   6.716 -0.2277  0.2136  0.4666
 6028SOL    HW130143   1.099   9.858   6.717 -0.5954 -0.3925 -0.5557
 6028SOL    HW230144   1.035  10.004   6.682  0.2844  0.5342  1.6154
 6029SOL     OW30145   5.297   3.232   1.090  0.1430  0.4196  0.2953
 6029SOL    HW130146   5.221   3.230   1.155  0.5251 -0.2545  0.7299
 6029SOL    HW230147   5.266   3.201   1.000  0.2882 -1.5316  0.8930
 6030SOL     OW30148   5.758   8.809   6.893 -0.0270 -0.4470 -0.4288
 6030SOL    HW130149   5.834   8.812   6.829 -1.7504  2.1348 -2.4296
 6030SOL    HW230150   5.675   8.781   6.846 -0.6225 -2.0329  1.4739
 6031SOL     OW30151   5.159   3.021   3.968 -0.5105 -0.4040  0.4198
 6031SOL    HW130152   5.117   2.938   4.005  0.6064 -0.9837  0.3922
 6031SOL    HW230153   5.198   3.002   3.878 -1.4332  0.4923 -0.1762
 6032SOL     OW30154   1.570   2.555   1.527  0.1388  0.0192 -0.4219
 6032SOL    HW130155   1.626   2.585   1.604 -1.6915  0.5254  0.7446
 6032SOL    HW230156   1.507   2.484   1.557  0.0772 -0.4761 -1.6877
 6033SOL     OW30157   0.414   3.252   0.820  0.2548  0.3423 -0.6607
 6033SOL    HW130158   0.478   3.283   0.750 -0.6454  0.4096 -1.4666
 6033SOL    HW230159   0.337   3.315   0.825  0.8544  0.9454  1.1792
 6034SOL     OW30160   8.258   4.282   9.516 -0.1075 -0.0190 -0.1152
 6034SOL    HW130161   8.303   4.207   9.467 -0.8956 -0.9789  0.6151
 6034SOL    HW230162   8.312   4.366   9.505  1.3197 -0.9177 -0.0961
 6035SOL     OW30163   5.670   1.778   9.119  0.4923 -0.5691 -0.7063
 6035SOL    HW130164   5.626   1.726   9.192  1.1977  1.6165  1.3459
 6035SOL    HW230165   5.748   1.726   9.084 -0.3970 -2.0382 -0.5612
 6036SOL     OW30166   1.975   7.925   1.145 -0.2235  0.7283 -0.1611
 6036SOL    HW130167   1.945   8.020   1.146 -0.9517  0.5615 -2.4205
 6036SOL    HW230168   2.043   7.912   1.073 -0.5228 -0.5746 -0.2292
 6037SOL     OW30169   6.450   5.205   8.991 -0.4774  0.0974 -0.4969
 6037SOL    HW130170   6.391   5.258   9.052  0.0971  0.0656  0.0885
 6037SOL    HW230171   6.482   5.123   9.039  3.8505  2.4542  0.8434
 6038SOL     OW30172   2.930   2.650   0.277 -0.2435  0.3427 -0.1922
 6038SOL    HW130173   2.857   2.719   0.271 -0.2012  0.3875 -0.1961
 6038SOL    HW230174   2.980   2.646   0.191 -0.9192 -0.4461 -0.5469
 6039SOL     OW30175   6.766   6.088   1.056 -0.7735 -0.0612  0.1232
 6039SOL    HW130176   6.684   6.115   1.105 -0.2179  3.3636 -0.6937
 6039SOL    HW230177   6.832   6.164   1.057  2.3451 -2.6461  0.6453
 6040SOL     OW30178   3.650   0.349   2.142 -0.0955 -0.0297 -0.1850
 6040SOL    HW130179   3.597   0.275   2.100  2.7755 -1.9789 -0.4861
 6040SOL    HW230180   3.597   0.390   2.216 -2.2581 -1.4939 -0.8836
 6041SOL     OW30181   7.541   2.838   8.804 -0.4151  0.3917  0.0592
 6041SOL    HW130182   7.531   2.761   8.741  0.8478  0.5896 -0.3837
 6041SOL    HW230183   7.552   2.803   8.897  0.7695  0.0094 -0.2142
 6042SOL     OW30184   2.068   6.709   6.729  0.4970 -0.4567 -0.6106
 6042SOL    HW130185   1.970   6.715   6.751  0.4294  0.3769 -1.1343
 6042SOL    HW230186   2.114   6.794   6.758  1.2270 -1.1989  0.4446
 6043SOL     OW30187   6.581   4.583   1.475 -0.7695 -0.5968  0.0748
 6043SOL    HW130188   6.554   4.660   1.532 -1.3792 -0.9679  0.2914
 6043SOL    HW230189   6.535   4.589   1.386  1.4330  0.8692 -1.0089
 6044SOL     OW30190   6.310   5.650   2.772 -0.3192  0.4483 -0.1211
 6044SOL    HW130191   6.248   5.714   2.818  0.9113  0.8884  0.9659
 6044SOL    HW230192   6.306   5.562   2.818 -0.6812  0.2625 -0.5071
 6045SOL     OW30193   5.547   7.883   5.597 -0.2048  0.0371  0.2270
 6045SOL    HW130194   5.481   7.956   5.580 -0.0288  0.5075  1.4683
 6045SOL    HW230195   5.502   7.808   5.645  0.1999  0.4609  1.2912
 6046SOL     OW30196   3.329   9.703   2.133  0.1103 -0.7106 -0.1739
 6046SOL    HW130197   3.332   9.643   2.053 -2.7570 -1.2577  0.0770
 6046SOL    HW230198   3.312   9.649   2.215  1.1816  0.0587  0.5671
 6047SOL     OW30199   6.891   5.872   5.684 -0.4661  0.1970 -0.0340
 6047SOL    HW130200   6.946   5.909   5.609  1.6588 -0.6609  1.0553
 6047SOL    HW230201   6.824   5.807   5.647  2.0246 -1.8957 -1.0231
 6048SOL     OW30202   3.202   8.589   8.961 -0.4695 -0.2062 -0.6657
 6048SOL    HW130203   3.134   8.568   8.890  0.2821 -0.0731 -1.4419
 6048SOL    HW230204   3.242   8.504   8.995 -1.3567 -0.3097  0.1258
 6049SOL     OW30205   0.387   8.751   5.169  0.2989  0.2977  0.4030
 6049SOL    HW130206   0.354   8.844   5.159 -0.6097 -0.0567  0.0627
 6049SOL    HW230207   0.472   8.751   5.222  1.3239  1.4894 -1.2091
 6050SOL     OW30208   1.948   1.811   3.137  0.8317 -0.3423 -0.4814
 6050SOL    HW130209   1.998   1.730   3.170  2.1337  0.9601  0.8207
 6050SOL    HW230210   1.878   1.783   3.071  0.2748 -2.6821  1.0598
 6051SOL     OW30211   8.413   2.146   5.792 -0.3379 -0.0161 -0.0919
 6051SOL    HW130212   8.411   2.232   5.741 -0.6960 -0.6312 -1.1379
 6051SOL    HW230213   8.327   2.097   5.777 -1.2193  0.6435  2.6198
 6052SOL     OW30214   9.510   8.150   8.135 -0.2663  0.5705  0.4777
 6052SOL    HW130215   9.437   8.173   8.200 -0.9853 -1.7915  0.5605
 6052SOL    HW230216   9.597   8.142   8.184 -0.3499  1.2373  0.7389
 6053SOL     OW30217   1.173   1.033   9.167  0.3493 -0.6673 -0.1524
 6053SOL    HW130218   1.239   1.105   9.192  0.2562 -0.1922 -1.2453
 6053SOL    HW230219   1.081   1.061   9.195  0.4287 -0.7436  0.1883
 6054SOL     OW30220   9.898   7.445   3.059  0.0970  0.1581  0.0462
 6054SOL    HW130221   9.984   7.455   3.110  0.3622  0.1751 -0.4020
 6054SOL    HW230222   9.821   7.470   3.118  0.5726  2.4934 -0.3042
 6055SOL     OW30223   4.511   4.021   2.858 -0.2549  0.3827 -0.2905
 6055SOL    HW130224   4.453   3.955   2.809 -0.5857  0.0283  0.5587
 6055SOL    HW230225   4.542   4.092   2.795  1.2270 -1.3289 -1.5459
 6056SOL     OW30226   0.350   9.414   6.154 -0.4148 -0.6856 -0.0336
 6056SOL    HW130227   0.395   9.501   6.132 -0.8348 -0.3536  0.4115
 6056SOL    HW230228   0.420   9.344   6.170 -0.0343 -0.0426  1.1978
 6057SOL     OW30229   2.047   4.222   9.998  0.2149 -0.5097  0.5699
 6057SOL    HW130230   2.103   4.201   9.918 -2.3578 -1.9269 -0.9162
 6057SOL    HW230231   2.019   4.318   9.995  0.4376 -0.4636 -0.0046
 6058SOL     OW30232   1.213   0.368   7.781 -0.4213 -0.0980 -0.1974
 6058SOL    HW130233   1.208   0.276   7.744 -0.5002  0.1556 -0.8171
 6058SOL    HW230234   1.263   0.427   7.718 -1.8031  0.6692 -0.5889
 6059SOL     OW30235   0.085   0.830   0.372 -0.4506 -0.2329 -0.1036
 6059SOL    HW130236   0.150   0.781   0.314 -0.4284 -0.3227 -0.0021
 6059SOL    HW230237  -0.005   0.834   0.327 -1.1054 -2.4802  0.9587
 6060SOL     OW30238   2.314   0.468   8.833 -0.3435  0.2244 -0.0317
 6060SOL    HW130239   2.269   0.530   8.897  0.6408  2.1291 -1.1428
 6060SOL    HW230240   2.256   0.456   8.752 -0.8402 -0.8809  0.4710
 6061SOL     OW30241   5.292   8.398   4.897  0.4604  0.1312 -0.2201
 6061SOL    HW130242   5.284   8.480   4.841  0.6085 -0.0766 -0.5463
 6061SOL    HW230243   5.227   8.329   4.865  1.2533 -0.3625 -0.7942
 6062SOL     OW30244   9.367   1.258   3.532 -0.5327  0.1362  0.5192
 6062SOL    HW130245   9.336   1.271   3.626  0.0489 -0.7175  0.8356
 6062SOL    HW230246   9.296   1.287   3.468 -1.9340 -1.7236  1.2185
 6063SOL     OW30247   2.579   0.477   9.478  0.3088 -0.0825 -0.2595
 6063SOL    HW130248   2.526   0.430   9.408  0.2578  1.1139 -1.0194
 6063SOL    HW230249   2.594   0.415   9.555 -2.1442 -0.4654 -0.0587
 6064SOL     OW30250   3.175   2.615   4.223  0.0390 -0.8500 -0.4060
 6064SOL    HW130251   3.273   2.628   4.208  0.1223 -0.2118  0.6186
 6064SOL    HW230252   3.125   2.694   4.187  0.1466  0.1391  1.5333
 6065SOL     OW30253   9.742   3.988   3.091 -0.1109  0.3280 -0.1875
 6065SOL    HW130254   9.772   3.911   3.147  1.0247  0.8999 -0.0008
 6065SOL    HW230255   9.782   4.073   3.126 -0.5705  0.8797 -0.9822
 6066SOL     OW30256   1.808   9.349   1.546  0.5197  0.1788 -0.4839
 6066SOL    HW130257   1.798   9.409   1.467  2.1984  0.2811 -0.6491
 6066SOL    HW230258   1.771   9.259   1.526  2.3504 -0.2646 -1.9499
 6067SOL     OW30259   0.325   4.118   8.319  0.1533 -0.7947 -0.1089
 6067SOL    HW130260   0.424   4.129   8.319 -0.1041  2.1257  1.8416
 6067SOL    HW230261   0.300   4.036   8.369  1.5271 -0.4820  1.1215
 6068SOL     OW30262   3.858   7.131   5.431  0.4518  0.2425  0.4081
 6068SOL    HW130263   3.859   7.201   5.503 -0.4691  0.3458  0.3374
 6068SOL    HW230264   3.876   7.041   5.471 -0.4984  0.2391  0.8544
 6069SOL     OW30265   1.620   3.956   3.084  0.2219 -0.1832 -0.5205
 6069SOL    HW130266   1.716   3.927   3.091  1.4920  3.4306 -1.7518
 6069SOL    HW230267   1.597   3.969   2.987 -2.9387 -5.2363 -0.5969
 6070SOL     OW30268   8.621   2.375   8.227  0.1014 -0.3520 -0.8633
 6070SOL    HW130269   8.615   2.473   8.208  0.8603 -0.1027  0.1905
 6070SOL    HW230270   8.716   2.350   8.246  0.0144 -1.4088 -1.7095
 6071SOL     OW30271   3.006   1.165   0.300 -0.0131  0.2389 -0.3019
 6071SOL    HW130272   2.909   1.189   0.308  0.0116 -0.1213  1.3106
 6071SOL    HW230273   3.061   1.232   0.349  0.3238 -1.0945  1.1653
 6072SOL     OW30274   0.280   1.231   1.111 -0.0372 -0.1162  0.0597
 6072SOL    HW130275   0.350   1.173   1.068  0.4893  0.6356 -0.1169
 6072SOL    HW230276   0.217   1.174   1.163  0.3846 -0.8636 -0.2363
 6073SOL     OW30277   3.317   8.572   4.966 -0.1743  0.1264  0.3618
 6073SOL    HW130278   3.339   8.669   4.953 -1.2270  0.1138 -1.7359
 6073SOL    HW230279   3.217   8.561   4.963 -0.0698 -0.9717  0.9477
 6074SOL     OW30280   2.008   0.556   7.161 -0.1457  0.0957  0.0687
 6074SOL    HW130281   2.000   0.490   7.237  0.3797 -0.7674 -0.6118
 6074SOL    HW230282   1.949   0.527   7.086  2.0431 -1.0773 -1.2586
 6075SOL     OW30283   0.316   1.400   0.476  0.3332  0.1331  0.6082
 6075SOL    HW130284   0.270   1.313   0.460  0.2064  0.5792 -1.7127
 6075SOL    HW230285   0.248   1.474   0.477  0.6937  0.4751  0.0455
 6076SOL     OW30286   3.467   9.743   9.024  0.1076  0.3515  0.0347
 6076SOL    HW130287   3.402   9.688   8.971  2.0053  0.1199 -2.1159
 6076SOL    HW230288   3.505   9.688   9.098 -0.6872 -0.1051  0.1091
 6077SOL     OW30289   9.855   9.235   4.894  0.0635 -0.3019  0.3947
 6077SOL    HW130290   9.832   9.315   4.838  1.4122  0.4317  0.8528
 6077SOL    HW230291   9.791   9.228   4.971 -0.2543  0.1518  0.1705
 6078SOL     OW30292   1.222   6.863   8.510  0.1433  0.1468 -0.0198
 6078SOL    HW130293   1.160   6.883   8.433  0.5177  0.7618 -0.1616
 6078SOL    HW230294   1.211   6.768   8.537  0.5650 -0.2780 -1.3357
 6079SOL     OW30295   5.092   2.868   3.498  0.0129 -0.3450  0.1074
 6079SOL    HW130296   5.053   2.779   3.476 -1.5157 -0.0791  1.6166
 6079SOL    HW230297   5.028   2.941   3.472  0.9424  0.2814 -0.4548
 6080SOL     OW30298   0.152   1.879   8.118  0.1472  0.5613 -0.5138
 6080SOL    HW130299   0.142   1.783   8.090  0.0241  0.7191 -1.0022
 6080SOL    HW230300   0.181   1.934   8.040  2.2131  0.5786  0.2359
 6081SOL     OW30301   4.513   0.119   3.347  0.5741 -0.1728  0.2450
 6081SOL    HW130302   4.500   0.131   3.249  0.5064 -1.6714  0.0541
 6081SOL    HW230303   4.473   0.197   3.396 -0.0154  0.2407 -0.8711
 6082SOL     OW30304   2.474   0.882   9.354  0.0277 -0.2614 -0.8790
 6082SOL    HW130305   2.402   0.951   9.345  0.3842  0.1362 -0.6953
 6082SOL    HW230306   2.564   0.927   9.351  0.2737 -0.7847 -1.3978
 6083SOL     OW30307   3.818   9.497   2.614 -0.2932  0.3453 -0.7513
 6083SOL    HW130308   3.786   9.438   2.689 -1.0009  1.4727 -0.1455
 6083SOL    HW230309   3.912   9.526   2.632 -0.9039  1.6845  0.3942
 6084SOL     OW30310   3.073   7.460   3.212 -0.0070 -0.3212  0.9653
 6084SOL    HW130311   3.075   7.429   3.117 -2.1645  0.0087  0.8034
 6084SOL    HW230312   3.117   7.392   3.271 -1.0585 -1.7617  0.0884
 6085SOL     OW30313   2.127   1.666   1.766  0.3252  0.4969 -0.4227
 6085SOL    HW130314   2.148   1.568   1.763 -2.9214 -0.2835  0.3119
 6085SOL    HW230315   2.140   1.706   1.675 -0.2689 -1.0768 -1.2246
 6086SOL     OW30316   2.765   4.025   1.993  0.0783 -0.1501  0.0435
 6086SOL    HW130317   2.669   4.037   1.971  0.4961  0.4898 -1.5091
 6086SOL    HW230318   2.804   4.112   2.022  1.1508  0.5626 -3.3237
 6087SOL     OW30319   6.670   4.546   1.999  0.1754  0.4175 -0.0886
 6087SOL    HW130320   6.574   4.531   1.976  0.0571  0.4680  0.3773
 6087SOL    HW230321   6.721   4.569   1.916 -0.6832  2.9572  0.0499
 6088SOL     OW30322   2.987   0.518   3.710 -0.2010  0.4377 -0.1265
 6088SOL    HW130323   2.963   0.526   3.613 -0.1741 -0.1215 -0.1803
 6088SOL    HW230324   2.915   0.467   3.757 -0.4803  1.1854  0.2523
 6089SOL     OW30325   8.798   2.445   4.908  0.5714  0.1425  0.0065
 6089SOL    HW130326   8.711   2.491   4.926 -0.1144  0.1320 -3.0370
 6089SOL    HW230327   8.853   2.502   4.847  2.1895 -0.4287  0.9207
 6090SOL     OW30328   0.554   5.007   8.227 -0.3794  0.0705  0.3305
 6090SOL    HW130329   0.531   4.910   8.220 -1.2194  0.2991 -0.0786
 6090SOL    HW230330   0.491   5.061   8.170  1.1934  0.6922 -0.8534
 6091SOL     OW30331   2.202   2.628   6.939  0.0286  0.4886  0.0519
 6091SOL    HW130332   2.180   2.580   6.854 -2.6256 -0.8169  1.4104
 6091SOL    HW230333   2.232   2.561   7.007 -1.3821  1.0190  1.2317
 6092SOL     OW30334   5.582   9.102   8.500 -0.4286  0.0834 -0.7500
 6092SOL    HW130335   5.626   9.036   8.440  0.7213 -0.5791  0.8088
 6092SOL    HW230336   5.495   9.064   8.532 -0.2458 -0.2486 -0.6478
 6093SOL     OW30337   4.899   5.614   9.572  0.1318 -0.3003 -0.0459
 6093SOL    HW130338   4.872   5.678   9.644  1.3255  0.1861 -0.0137
 6093SOL    HW230339   4.974   5.654   9.518 -1.1981 -0.3543 -1.9989
 6094SOL     OW30340   6.116   4.611   3.428  0.1184  0.1653  0.5394
 6094SOL    HW130341   6.113   4.663   3.513  0.0205  0.4095  0.3873
 6094SOL    HW230342   6.069   4.523   3.441  0.5609 -0.0225  0.8867
 6095SOL     OW30343   1.890   8.839   3.845 -0.1683  0.5818 -0.0214
 6095SOL    HW130344   1.820   8.831   3.916  0.2696  0.3964  0.3933
 6095SOL    HW230345   1.930   8.749   3.827 -2.3410  0.0756 -2.6313
 6096SOL     OW30346   7.434   2.091   6.552 -1.0084 -0.1947 -0.3466
 6096SOL    HW130347   7.496   2.157   6.508 -2.1165 -0.0157 -1.6730
 6096SOL    HW230348   7.375   2.138   6.617  0.9475 -0.5287  1.7378
 6097SOL     OW30349   4.665   2.771   4.148  0.8098 -0.2366  1.1749
 6097SOL    HW130350   4.747   2.807   4.193  2.2736 -1.6970 -0.2518
 6097SOL    HW230351   4.663   2.671   4.158  0.4181 -0.4292 -0.7869
 6098SOL     OW30352   6.161   8.693   2.531  0.0865  0.1030 -0.2685
 6098SOL    HW130353   6.090   8.696   2.601  0.4176  0.0173  0.0721
 6098SOL    HW230354   6.248   8.665   2.572  0.1440 -0.5717 -0.8238
 6099SOL     OW30355   6.336   0.652   9.422  0.0510  0.1092 -0.2377
 6099SOL    HW130356   6.344   0.555   9.400 -1.2998 -0.6884  2.6456
 6099SOL    HW230357   6.256   0.690   9.375 -0.7218 -0.7215  0.3956
 6100SOL     OW30358   0.327   0.704   1.949 -0.5666  0.0664 -0.3637
 6100SOL    HW130359   0.335   0.606   1.965 -0.1705 -0.1570 -1.8419
 6100SOL    HW230360   0.232   0.732   1.955 -0.5355 -0.1315  1.5045
 6101SOL     OW30361   9.237   0.206   6.059 -0.3773 -0.3353 -0.0855
 6101SOL    HW130362   9.296   0.129   6.035  0.4308 -0.0227  0.8939
 6101SOL    HW230363   9.282   0.292   6.033 -1.8862 -0.2098 -2.5286
 6102SOL     OW30364   1.146   1.898   1.983  0.2255 -0.0093 -0.1305
 6102SOL    HW130365   1.209   1.971   1.955  0.0518 -0.8177 -2.8144
 6102SOL    HW230366   1.176   1.811   1.944 -0.1791 -1.2064  2.1360
 6103SOL     OW30367   2.408   0.190   6.210 -0.6707 -0.3697 -0.0979
 6103SOL    HW130368   2.315   0.160   6.232 -0.6924 -0.0892  0.1859
 6103SOL    HW230369   2.465   0.111   6.189 -0.5608 -0.6624  1.2658
 6104SOL     OW30370   2.924   9.938   4.129  0.2346  0.1440 -0.2020
 6104SOL    HW130371   2.884   9.853   4.161 -1.9181  1.6459  1.2797
 6104SOL    HW230372   2.851  10.002   4.105  1.7901  1.8729 -0.4571
 6105SOL     OW30373   9.627   9.368   1.646  0.1715 -0.0451  0.1371
 6105SOL    HW130374   9.562   9.322   1.585  0.6049 -0.5566  0.0537
 6105SOL    HW230375   9.653   9.306   1.720  1.2901 -0.1756 -0.3633
 6106SOL     OW30376   8.261   1.365   2.978  0.2245  0.2806 -0.0537
 6106SOL    HW130377   8.356   1.396   2.972  0.1059  0.3608 -2.2174
 6106SOL    HW230378   8.210   1.426   3.038  0.8289  2.2000 -1.4117
 6107SOL     OW30379   4.337   1.303   7.426 -0.0579  0.1292  0.0192
 6107SOL    HW130380   4.314   1.270   7.517  0.2568 -1.2000 -0.3759
 6107SOL    HW230381   4.264   1.278   7.362  1.1545 -1.6650 -0.6886
 6108SOL     OW30382   2.007   9.338   3.248  0.2633 -0.1576  0.2780
 6108SOL    HW130383   1.918   9.320   3.206 -0.4984 -1.3210  2.3520
 6108SOL    HW230384   2.014   9.288   3.334  3.3534 -0.9043 -0.3675
 6109SOL     OW30385   8.928   5.587   1.033  0.2375  0.1329 -0.3979
 6109SOL    HW130386   8.867   5.644   1.087  2.0171  3.0977 -1.4245
 6109SOL    HW230387   8.943   5.500   1.080 -0.8264  1.3573  2.2687
 6110SOL     OW30388   5.252   1.244   7.645 -0.7470 -0.6310  0.2749
 6110SOL    HW130389   5.255   1.166   7.583 -0.7356 -0.6993  0.3612
 6110SOL    HW230390   5.346   1.270   7.669 -0.7544 -0.6895  0.3697
 6111SOL     OW30391   3.376   3.709   4.739  0.2837 -0.2495 -0.1562
 6111SOL    HW130392   3.321   3.631   4.708 -1.1660  0.4349  0.6054
 6111SOL    HW230393   3.316   3.776   4.783  1.7404  0.5530  0.6561
 6112SOL     OW30394   6.972   8.263   2.512  0.0575  0.4175 -0.2495
 6112SOL    HW130395   7.062   8.244   2.553 -0.2384  0.6824  0.5355
 6112SOL    HW230396   6.973   8.356   2.473 -0.5324  1.2370  1.6336
 6113SOL     OW30397   5.749   1.927   2.713  0.5196 -0.5231  0.1105
 6113SOL    HW130398   5.663   1.968   2.683  0.1554 -1.6399 -0.3817
 6113SOL    HW230399   5.820   1.947   2.645  0.4118 -0.4637  0.0143
 6114SOL     OW30400   2.339   6.058   1.779 -0.3315 -0.0146  0.0590
 6114SOL    HW130401   2.416   6.058   1.842 -0.0712 -0.2792 -0.2619
 6114SOL    HW230402   2.353   5.990   1.708 -1.2061 -0.5902  0.4232
 6115SOL     OW30403   1.957   8.364   2.106  0.5977 -0.5283  0.3080
 6115SOL    HW130404   1.858   8.354   2.111  0.7649 -2.4097  0.4791
 6115SOL    HW230405   1.999   8.273   2.096  2.3936  0.0594  2.0125
 6116SOL     OW30406   2.383   4.193   3.771  0.6210 -0.1621  0.3514
 6116SOL    HW130407   2.424   4.115   3.817 -0.3062 -1.3218 -0.7320
 6116SOL    HW230408   2.450   4.234   3.709  2.4085  2.4264  3.8320
 6117SOL     OW30409   1.586   1.717   5.902 -0.2990 -0.7741  0.1783
 6117SOL    HW130410   1.677   1.684   5.877  0.0444 -0.5010  1.0409
 6117SOL    HW230411   1.563   1.685   5.994 -0.0496  1.1564  0.9455
 6118SOL     OW30412   2.115   1.094   6.780 -0.1296  0.2247 -0.0319
 6118SOL    HW130413   2.190   1.102   6.714 -0.3626  0.3264 -0.2821
 6118SOL    HW230414   2.033   1.136   6.743 -1.0201 -2.1783 -0.8575
 6119SOL     OW30415   0.474   5.007   9.069 -0.4519 -0.2111  0.3664
 6119SOL    HW130416   0.542   4.934   9.073  0.4531  0.6662  1.1875
 6119SOL    HW230417   0.502   5.075   9.002 -0.0820  0.5646  1.2890
 6120SOL     OW30418   5.085   2.881   9.008 -0.1599  0.0404 -0.2070
 6120SOL    HW130419   5.089   2.787   8.973  0.4171  0.3320 -0.9580
 6120SOL    HW230420   5.093   2.880   9.107  0.7312 -0.6506 -0.2794
 6121SOL     OW30421   4.017   1.570   5.015 -0.0684  0.0680 -0.6576
 6121SOL    HW130422   4.033   1.603   4.921 -2.0411 -0.9003 -1.3585
 6121SOL    HW230423   3.932   1.610   5.049 -0.4676 -1.2851 -0.0719
 6122SOL     OW30424   2.450   6.841   1.995  0.2978  0.8383  0.4445
 6122SOL    HW130425   2.502   6.849   2.079 -1.0906 -1.2279  1.5476
 6122SOL    HW230426   2.352   6.849   2.014 -0.1581 -1.5420 -0.6413
 6123SOL     OW30427   3.681   7.993   4.040  0.3294 -0.0683  0.0289
 6123SOL    HW130428   3.737   7.953   3.967 -0.2335  1.3208 -1.1710
 6123SOL    HW230429   3.698   7.943   4.125  2.1196 -0.7504 -0.6977
 6124SOL     OW30430   9.030   9.580   4.810 -0.1762  0.4901 -0.6920
 6124SOL    HW130431   8.998   9.660   4.860  1.3077  1.3268 -1.0697
 6124SOL    HW230432   8.997   9.497   4.856 -1.1797  1.2896  0.0566
 6125SOL     OW30433   1.146   9.852   2.124 -0.5370  0.2141 -0.6664
 6125SOL    HW130434   1.219   9.784   2.110  1.2189  2.0064 -0.4278
 6125SOL    HW230435   1.141   9.912   2.044  0.7330  2.3663  0.8233
 6126SOL     OW30436   3.634   7.457   1.494 -0.0548  0.6998  0.0997
 6126SOL    HW130437   3.584   7.396   1.555  1.2965  2.0660  2.6777
 6126SOL    HW230438   3.584   7.467   1.408 -1.5606 -1.9825  0.6194
 6127SOL     OW30439   4.577   2.367   4.534 -0.6801  0.3209 -0.3936
 6127SOL    HW130440   4.487   2.410   4.536 -1.3197 -1.0228  0.4132
 6127SOL    HW230441   4.596   2.325   4.623  0.6726  0.4602 -0.6116
 6128SOL     OW30442   5.359   9.148   6.690  0.7853  0.7568 -0.3870
 6128SOL    HW130443   5.286   9.118   6.628 -1.1449 -0.5730  2.4244
 6128SOL    HW230444   5.440   9.092   6.675 -0.3914 -1.0399 -0.2587
 6129SOL     OW30445   3.429   4.617   1.473  0.0413 -0.8504  0.4295
 6129SOL    HW130446   3.460   4.712   1.472 -0.3396 -0.7200 -0.5322
 6129SOL    HW230447   3.494   4.560   1.522  0.5142 -0.1672  0.5961
 6130SOL     OW30448   7.728   8.281   3.225  0.0335 -0.0338  0.7440
 6130SOL    HW130449   7.746   8.378   3.212  0.4345 -0.2137 -0.0606
 6130SOL    HW230450   7.680   8.267   3.312 -1.4388  1.0318  0.1129
 6131SOL     OW30451   3.339   0.613   0.251  0.8367 -0.2478 -0.5651
 6131SOL    HW130452   3.394   0.560   0.315 -1.1810 -1.2185  0.3711
 6131SOL    HW230453   3.400   0.673   0.198  2.7245 -0.7890  0.9196
 6132SOL     OW30454   2.504   8.059   0.475 -0.0351  0.2006 -0.4657
 6132SOL    HW130455   2.460   7.977   0.509 -0.9759  0.8069 -0.2128
 6132SOL    HW230456   2.504   8.129   0.546  0.5580  0.5007 -0.7543
 6133SOL     OW30457   2.586   2.958   5.468  0.0460 -0.4668  0.1433
 6133SOL    HW130458   2.649   2.960   5.545  1.3866  0.4612 -0.9452
 6133SOL    HW230459   2.636   2.980   5.384 -1.5963 -0.4225 -0.8383
 6134SOL     OW30460   2.250   4.279   5.149 -0.0945  0.6515 -0.4316
 6134SOL    HW130461   2.172   4.337   5.123 -0.6775 -0.3409 -0.9329
 6134SOL    HW230462   2.216   4.188   5.172  0.5835  1.0218  2.2209
 6135SOL     OW30463   2.189   2.047   2.276 -0.0686 -0.2003 -0.1925
 6135SOL    HW130464   2.240   2.082   2.354 -0.8599 -0.0512  0.2663
 6135SOL    HW230465   2.157   2.123   2.220  0.2505 -0.2959 -0.5114
 6136SOL     OW30466   3.173   4.264   4.801 -0.3124 -0.1439 -0.2841
 6136SOL    HW130467   3.225   4.246   4.885  0.4678 -2.0340 -1.1379
 6136SOL    HW230468   3.236   4.279   4.725 -0.9696 -1.6041 -1.1555
 6137SOL     OW30469   9.059   3.435   9.948 -0.4268  0.1792 -0.2545
 6137SOL    HW130470   8.998   3.368   9.907 -0.9959 -0.2164  1.1939
 6137SOL    HW230471   9.008   3.519   9.967 -0.6910 -0.3625  1.5112
 6138SOL     OW30472   6.928   9.964   7.842  0.0310  0.0527 -0.1151
 6138SOL    HW130473   6.980  10.007   7.768 -1.8450  1.2012 -0.8094
 6138SOL    HW230474   6.904  10.034   7.910  0.2293 -0.6546  0.6856
 6139SOL     OW30475   8.089   6.618   4.438  0.5984  0.1309 -0.0295
 6139SOL    HW130476   8.018   6.638   4.371  1.5667  3.2217 -0.2022
 6139SOL    HW230477   8.071   6.528   4.479 -2.8942  0.4482 -0.6873
 6140SOL     OW30478   4.017   7.973   6.489 -0.3032  0.1850 -0.4411
 6140SOL    HW130479   4.114   7.987   6.469 -0.5758  1.4175 -0.8873
 6140SOL    HW230480   3.961   8.032   6.431 -1.3435 -0.7238 -0.3850
 6141SOL     OW30481   9.092   4.242   6.869  0.3727 -0.2341 -1.2819
 6141SOL    HW130482   9.042   4.274   6.788 -0.7264  3.4087  0.7182
 6141SOL    HW230483   9.176   4.295   6.879 -0.9325  1.4476  1.5028
 6142SOL     OW30484   6.899   8.686   5.519  0.3968  0.1115  0.8119
 6142SOL    HW130485   6.811   8.650   5.487  0.8922 -0.1510 -0.2532
 6142SOL    HW230486   6.894   8.701   5.618 -1.0901  0.7967  0.6575
 6143SOL     OW30487   4.202   1.693   5.232 -0.7159 -0.4564  0.0177
 6143SOL    HW130488   4.133   1.665   5.165  0.7971 -0.6309 -1.4995
 6143SOL    HW230489   4.185   1.788   5.258 -0.3086  0.1663 -1.9263
 6144SOL     OW30490   3.092   6.380   8.550  0.2778  0.3310  0.1550
 6144SOL    HW130491   3.114   6.369   8.453 -0.7507  2.4210 -0.3434
 6144SOL    HW230492   3.092   6.290   8.594  3.1434 -0.4124 -1.2288
 6145SOL     OW30493   8.195   2.809   4.075 -0.2529 -0.6988 -0.3662
 6145SOL    HW130494   8.267   2.755   4.033  0.1481 -0.8771  0.5292
 6145SOL    HW230495   8.144   2.752   4.140 -1.4425 -0.6784 -1.2675
 6146SOL     OW30496   2.828   8.924   0.890 -0.3106  0.0392 -0.3896
 6146SOL    HW130497   2.889   8.981   0.834  0.3961  0.9454  1.2610
 6146SOL    HW230498   2.742   8.909   0.841  0.9477 -0.6551 -2.4445
 6147SOL     OW30499   2.236   0.782   1.574 -0.5401  0.1743 -0.0027
 6147SOL    HW130500   2.255   0.748   1.482 -1.4126 -1.9146  0.5430
 6147SOL    HW230501   2.278   0.872   1.586  0.1372  0.1896 -2.2075
 6148SOL     OW30502   3.706   0.349   7.423  0.0771 -0.4636 -0.5688
 6148SOL    HW130503   3.624   0.292   7.428 -0.0455 -0.3292 -1.0827
 6148SOL    HW230504   3.787   0.290   7.419 -0.0986 -0.6155 -2.0471
 6149SOL     OW30505   9.919   0.406   8.358  0.3652  0.2554  0.3205
 6149SOL    HW130506   9.900   0.495   8.317  0.2561 -0.0073 -0.2020
 6149SOL    HW230507  10.005   0.411   8.408  1.2909  0.1522 -1.2469
 6150SOL     OW30508   2.269   6.781   0.796 -0.0248  0.5806 -0.0786
 6150SOL    HW130509   2.367   6.786   0.779  0.1641  0.8778  1.0960
 6150SOL    HW230510   2.224   6.860   0.755  0.1921  0.3517 -0.7766
 6151SOL     OW30511   2.405   9.710   1.360  0.0980 -0.1704 -0.7044
 6151SOL    HW130512   2.496   9.727   1.323  0.3935  0.3274  0.2211
 6151SOL    HW230513   2.340   9.778   1.324  0.2108 -0.1839 -0.9298
 6152SOL     OW30514   0.766   0.575   0.225 -0.0043 -0.1777  0.2293
 6152SOL    HW130515   0.763   0.514   0.304 -1.9471 -0.9330 -0.3932
 6152SOL    HW230516   0.753   0.522   0.141 -0.0561  0.8762 -0.4440
 6153SOL     OW30517   9.792   7.896   7.900  0.1139  0.1501 -0.2005
 6153SOL    HW130518   9.871   7.929   7.952 -0.2939  0.7146  0.0642
 6153SOL    HW230519   9.805   7.918   7.803  2.3413 -3.6358 -0.8699
 6154SOL     OW30520   9.618   0.908   2.448 -0.4133  0.1628 -0.3920
 6154SOL    HW130521   9.677   0.958   2.512  1.7302 -1.6459 -0.8672
 6154SOL    HW230522   9.616   0.954   2.360 -0.7009  0.8865 -0.0099
 6155SOL     OW30523   6.129   1.779   1.663  0.2485 -0.2290 -0.0174
 6155SOL    HW130524   6.087   1.747   1.748  0.5558  0.9874  0.5961
 6155SOL    HW230525   6.079   1.741   1.585 -1.5044  0.5470  0.7019
 6156SOL     OW30526   1.622   1.337   4.538 -0.2793 -0.2230  0.2786
 6156SOL    HW130527   1.689   1.394   4.586 -1.4503  1.5362 -0.1333
 6156SOL    HW230528   1.656   1.315   4.447 -0.1543  0.4419  0.1675
 6157SOL     OW30529   4.960   8.315   3.422 -0.7398 -0.4232  0.1381
 6157SOL    HW130530   5.013   8.378   3.478  0.2378 -1.6754  0.6566
 6157SOL    HW230531   4.863   8.338   3.428 -0.3125  1.5458 -0.3836
 6158SOL     OW30532   1.711   1.480   1.753 -0.5506 -0.5702 -0.1894
 6158SOL    HW130533   1.613   1.497   1.753 -0.0541  2.7335 -0.0103
 6158SOL    HW230534   1.744   1.478   1.659 -0.2749  2.2207 -0.2156
 6159SOL     OW30535   9.200   2.468   2.164  0.4919 -0.0456  0.4704
 6159SOL    HW130536   9.286   2.514   2.184 -0.7689  2.1617  1.0462
 6159SOL    HW230537   9.168   2.419   2.245  1.7968 -1.9192 -0.1156
 6160SOL     OW30538   3.497   7.388   9.141 -0.2014 -0.6163  0.6320
 6160SOL    HW130539   3.505   7.300   9.187 -1.5610 -1.7711 -1.2685
 6160SOL    HW230540   3.585   7.415   9.103  0.5589 -0.4181  2.4894
 6161SOL     OW30541   0.423   3.810   5.040 -0.6027 -0.4324  0.4415
 6161SOL    HW130542   0.381   3.758   4.964 -0.5386 -0.1189  0.1920
 6161SOL    HW230543   0.414   3.908   5.022 -1.7728 -0.3284  1.4772
 6162SOL     OW30544   2.684   2.938   1.019  0.3799  0.1340  0.6181
 6162SOL    HW130545   2.628   3.018   0.997 -0.6344 -0.4064  1.1995
 6162SOL    HW230546   2.760   2.965   1.079 -0.0325  0.6328  0.9081
 6163SOL     OW30547   0.568   5.931   9.352 -0.3111  0.0869  0.4150
 6163SOL    HW130548   0.547   5.890   9.263 -0.6133  2.5469 -0.7009
 6163SOL    HW230549   0.524   6.020   9.358  1.5932  0.9499  2.1005
 6164SOL     OW30550   6.077   0.955   4.100 -0.2733 -0.7994 -0.0318
 6164SOL    HW130551   6.096   1.053   4.097 -0.4086 -0.8253 -2.7207
 6164SOL    HW230552   6.135   0.908   4.033 -2.0660 -2.2060 -0.6299
 6165SOL     OW30553   2.115   8.665   2.787  0.1060 -0.0158  0.3127
 6165SOL    HW130554   2.112   8.656   2.687 -1.2158  0.6045  0.2888
 6165SOL    HW230555   2.029   8.633   2.826  0.2379  0.6758  1.1872
 6166SOL     OW30556   4.442   5.624   3.849 -0.8818 -0.1151 -0.0629
 6166SOL    HW130557   4.405   5.608   3.757  1.5856 -0.5980 -1.0038
 6166SOL    HW230558   4.475   5.718   3.856 -0.7975 -0.1675  0.2537
 6167SOL     OW30559   3.091   2.762   1.567 -0.3594 -0.0282 -0.3599
 6167SOL    HW130560   2.992   2.753   1.577 -0.1865  0.1612  1.7640
 6167SOL    HW230561   3.121   2.848   1.610  1.0113 -1.2109  1.1159
 6168SOL     OW30562   8.108   8.825   7.762 -0.5974  0.0633 -0.3543
 6168SOL    HW130563   8.096   8.752   7.694  0.4776  0.8873 -1.4680
 6168SOL    HW230564   8.127   8.786   7.851 -1.6536 -1.0413 -0.6093
 6169SOL     OW30565   1.353   2.092   9.419  0.2863  0.3046  0.0834
 6169SOL    HW130566   1.356   2.149   9.501 -0.2834  2.0889 -1.0978
 6169SOL    HW230567   1.276   2.029   9.426  0.3000  0.3798  0.9685
 6170SOL     OW30568   5.216   3.918   6.034 -0.4152  0.4230 -0.3805
 6170SOL    HW130569   5.226   3.818   6.039  1.1453  0.5965  0.1739
 6170SOL    HW230570   5.120   3.942   6.051 -0.7968 -0.9745 -0.4548
 6171SOL     OW30571   8.740   1.633   8.787 -0.1638 -0.5693 -0.3134
 6171SOL    HW130572   8.703   1.606   8.698 -0.5408  1.9614 -0.9553
 6171SOL    HW230573   8.716   1.728   8.806  1.9168 -0.3559  1.4591
 6172SOL     OW30574   1.490   0.395   3.371  0.2305 -0.1476  0.2226
 6172SOL    HW130575   1.482   0.396   3.272  0.3058 -1.8717  0.1759
 6172SOL    HW230576   1.583   0.369   3.397 -0.3643 -1.8276  0.7244
 6173SOL     OW30577   4.722   9.497   0.108 -0.0167 -0.4906 -0.5104
 6173SOL    HW130578   4.777   9.476   0.189  0.9741  1.2814 -0.7052
 6173SOL    HW230579   4.782   9.498   0.027 -0.3520  1.3137 -0.7439
 6174SOL     OW30580   8.881   1.755   2.779 -0.3298 -0.2900  0.0605
 6174SOL    HW130581   8.807   1.689   2.768 -0.1884 -0.8069  1.9886
 6174SOL    HW230582   8.849   1.833   2.833  0.1428  0.1483 -0.2790
 6175SOL     OW30583   0.825   0.350   1.449  0.1928  0.5047 -0.4992
 6175SOL    HW130584   0.808   0.262   1.404  0.7795 -1.2751  2.6382
 6175SOL    HW230585   0.758   0.365   1.521  1.5789  1.4702  0.6225
 6176SOL     OW30586   1.880   1.623   6.135 -0.4623  0.1099  0.3982
 6176SOL    HW130587   1.903   1.709   6.088 -2.0644  1.7569  2.5259
 6176SOL    HW230588   1.782   1.605   6.124  0.1836 -2.4312 -1.5424
 6177SOL     OW30589   9.437   0.943   4.743 -0.4629  0.0031  0.6817
 6177SOL    HW130590   9.527   0.948   4.700  0.2674 -1.1738  2.0138
 6177SOL    HW230591   9.445   0.972   4.839 -1.0433 -2.1827  1.4185
 6178SOL     OW30592   2.337   1.553   7.381  0.3444  0.2960  0.0651
 6178SOL    HW130593   2.317   1.460   7.414  1.5409  0.4096  1.1663
 6178SOL    HW230594   2.431   1.576   7.404  0.7637  0.9331 -2.2509
 6179SOL     OW30595   1.853   9.485   0.799  0.7675  0.3903 -0.0801
 6179SOL    HW130596   1.871   9.442   0.888  0.2969 -1.0468 -0.6522
 6179SOL    HW230597   1.938   9.492   0.747  0.7124 -0.6984 -0.3340
 6180SOL     OW30598   2.179   8.861   5.008  0.3754 -0.6561  0.2219
 6180SOL    HW130599   2.257   8.923   5.005 -0.2586  0.1818  0.8607
 6180SOL    HW230600   2.212   8.767   4.997  1.3023 -0.1983 -1.0827
 6181SOL     OW30601   1.660   8.204   5.034  0.1117  0.1492 -0.6322
 6181SOL    HW130602   1.606   8.289   5.040 -0.9726 -0.5256 -0.6968
 6181SOL    HW230603   1.729   8.204   5.106 -0.1854  0.8814 -0.3379
 6182SOL     OW30604   2.123   1.753   1.511  0.3802 -0.4118 -0.2909
 6182SOL    HW130605   2.200   1.759   1.447  1.7270 -0.5054  1.2864
 6182SOL    HW230606   2.072   1.839   1.509  1.9056  0.5261  0.3383
 6183SOL     OW30607   9.393   9.796   3.377 -0.2132 -0.0866  0.4251
 6183SOL    HW130608   9.439   9.710   3.403 -0.7045 -0.8563 -1.2324
 6183SOL    HW230609   9.423   9.869   3.439  2.2156 -0.8708  0.2383
 6184SOL     OW30610   8.092   1.884   2.111 -0.1499 -0.4323  0.6068
 6184SOL    HW130611   8.001   1.907   2.145  0.2019  0.1418  1.1909
 6184SOL    HW230612   8.106   1.925   2.021 -0.4853 -0.5620  0.4964
 6185SOL     OW30613   0.831   9.409   7.212  0.3025  0.5378 -0.0684
 6185SOL    HW130614   0.752   9.452   7.170 -0.3014 -1.4036 -1.0021
 6185SOL    HW230615   0.807   9.376   7.304  0.4223  1.1391  0.1790
 6186SOL     OW30616   3.145   4.434   2.063 -0.5391 -0.3330 -0.1232
 6186SOL    HW130617   3.101   4.523   2.053  1.5909  0.6004 -1.6966
 6186SOL    HW230618   3.211   4.437   2.138  1.0736  0.0811 -1.5418
 6187SOL     OW30619   1.793   0.698   1.466  0.1548 -0.1997  0.4392
 6187SOL    HW130620   1.699   0.726   1.449  0.5915  0.7081 -0.5433
 6187SOL    HW230621   1.818   0.624   1.404  1.0215  1.5734 -1.3817
 6188SOL     OW30622   8.713   0.630   6.185 -0.1567  0.4842  0.2168
 6188SOL    HW130623   8.724   0.539   6.145  1.2663  0.6236  0.2777
 6188SOL    HW230624   8.731   0.700   6.115  0.9421  0.7238  0.7374
 6189SOL     OW30625   9.611   0.380   5.083  0.3639  0.8489  0.0616
 6189SOL    HW130626   9.574   0.435   5.157 -0.9761  2.0769 -1.4761
 6189SOL    HW230627   9.539   0.361   5.016  1.4941 -0.3988 -0.8314
 6190SOL     OW30628   0.858   1.537   4.183  0.1481  0.3013  0.0792
 6190SOL    HW130629   0.946   1.495   4.206 -0.1706  0.3717  1.4826
 6190SOL    HW230630   0.786   1.468   4.188 -0.1718  0.6931  1.0055
 6191SOL     OW30631   9.785   0.095   7.132  0.3045 -0.4572 -0.3692
 6191SOL    HW130632   9.700   0.069   7.085 -1.0703 -0.8367  2.2312
 6191SOL    HW230633   9.795   0.195   7.129 -0.9392 -0.2927  0.4328
 6192SOL     OW30634   4.051   0.146   5.916  0.0016  0.6829 -0.0557
 6192SOL    HW130635   3.997   0.068   5.949  2.3015 -0.6482  0.6571
 6192SOL    HW230636   4.125   0.114   5.857 -0.2951  2.5311 -1.4960
 6193SOL     OW30637   2.180   9.415   2.936  0.0689 -0.1071  0.5795
 6193SOL    HW130638   2.238   9.435   2.857 -0.9064  0.0179 -0.1118
 6193SOL    HW230639   2.165   9.498   2.989  0.5986 -0.1580  0.8083
 6194SOL     OW30640   1.488   7.245   1.859  0.3833 -0.0613  0.2257
 6194SOL    HW130641   1.558   7.312   1.881  0.7464 -0.5073  0.4229
 6194SOL    HW230642   1.456   7.260   1.765 -0.3244  1.0853  0.6323
 6195SOL     OW30643   2.559   2.231   9.275  0.3859 -0.0447 -0.5568
 6195SOL    HW130644   2.621   2.300   9.237  0.3480  0.4730  0.3113
 6195SOL    HW230645   2.612   2.149   9.299  0.3741 -0.4724 -1.9385
 6196SOL     OW30646   9.977   0.092   2.623  0.3086  0.2241 -0.3340
 6196SOL    HW130647  10.036   0.059   2.697  2.1066  0.9550 -1.3851
 6196SOL    HW230648   9.934   0.015   2.577 -0.6400 -0.2427  1.3329
 6197SOL     OW30649   3.610   9.015   1.231 -0.2438 -0.4452  0.6324
 6197SOL    HW130650   3.644   8.921   1.225  0.8124  0.0094 -0.8765
 6197SOL    HW230651   3.514   9.014   1.256 -0.0822 -1.9096  1.2633
 6198SOL     OW30652   1.459   1.463   3.554  0.4153  0.1968 -0.2647
 6198SOL    HW130653   1.364   1.441   3.534  1.1657 -2.3819 -1.1935
 6198SOL    HW230654   1.479   1.556   3.523 -1.2902  0.0437 -1.8728
 6199SOL     OW30655   0.254   1.679   6.889 -0.1212 -0.1811 -0.2439
 6199SOL    HW130656   0.294   1.769   6.908 -0.4779  0.0371 -0.5239
 6199SOL    HW230657   0.175   1.665   6.949 -0.2805 -0.1588 -0.4497
 6200SOL     OW30658   7.287   7.855   4.669  0.1090 -0.1875 -0.4084
 6200SOL    HW130659   7.251   7.890   4.583 -3.9439 -1.0317  0.8490
 6200SOL    HW230660   7.276   7.924   4.740  1.9459 -0.0941 -0.1932
 6201SOL     OW30661   9.675   1.416   1.805 -0.3060  0.2598 -0.3540
 6201SOL    HW130662   9.656   1.484   1.876  1.3514  0.7176 -0.3320
 6201SOL    HW230663   9.596   1.355   1.795  1.1914 -2.9788  5.4055
 6202SOL     OW30664   7.982   1.297   1.848  0.0215 -0.3530 -0.5841
 6202SOL    HW130665   7.929   1.212   1.855 -0.8597  0.2657  0.6463
 6202SOL    HW230666   8.066   1.288   1.902  0.1180 -0.5763 -0.7692
 6203SOL     OW30667   5.902   1.423   4.684 -0.0514  0.4561  0.4568
 6203SOL    HW130668   5.932   1.466   4.770 -1.0712  2.3098 -0.0719
 6203SOL    HW230669   5.805   1.397   4.692 -0.7060  2.3669 -0.7195
 6204SOL     OW30670   3.927   3.382   6.770 -0.0504  0.0369  0.0767
 6204SOL    HW130671   3.976   3.298   6.746  0.3802  0.3619 -0.1895
 6204SOL    HW230672   3.862   3.405   6.697  0.3753  0.3502 -0.2046
 6205SOL     OW30673   1.400   8.221   1.712  0.5036 -0.6083  0.0434
 6205SOL    HW130674   1.419   8.123   1.723  1.8256 -0.0290  3.7181
 6205SOL    HW230675   1.333   8.250   1.780  0.4321  1.1477 -0.7363
 6206SOL     OW30676   1.437   3.642   3.882 -0.1256  0.0203  0.2325
 6206SOL    HW130677   1.489   3.613   3.801 -0.1792  1.3928 -0.2966
 6206SOL    HW230678   1.480   3.603   3.964  2.9318  2.6371 -0.0183
 6207SOL     OW30679   5.248   4.897   3.323  0.0921  0.1561 -1.2176
 6207SOL    HW130680   5.174   4.842   3.359  1.5759 -1.0139  0.1332
 6207SOL    HW230681   5.246   4.988   3.365 -0.9571  0.3573 -1.6930
 6208SOL     OW30682   6.865   0.591   5.805 -0.6425 -0.2160  0.0401
 6208SOL    HW130683   6.883   0.503   5.848 -1.1754 -1.1490 -1.5848
 6208SOL    HW230684   6.952   0.632   5.776 -0.6055 -1.8138 -2.2315
 6209SOL     OW30685   8.683   2.230   5.651  0.5467 -0.2247  0.0150
 6209SOL    HW130686   8.755   2.186   5.599 -0.6069 -0.2668 -1.5905
 6209SOL    HW230687   8.619   2.161   5.685  0.4991 -0.0656  0.2535
 6210SOL     OW30688   2.382   7.714   6.064  0.6108  0.1240  0.4401
 6210SOL    HW130689   2.479   7.730   6.083  0.3071  1.3248  1.0107
 6210SOL    HW230690   2.363   7.616   6.067  1.6704 -0.0644  1.0205
 6211SOL     OW30691   2.744   0.638   8.844 -0.1744 -0.1068  0.6321
 6211SOL    HW130692   2.713   0.733   8.842  0.2930  0.0777  2.1739
 6211SOL    HW230693   2.680   0.582   8.790  0.3713  1.2992 -1.5674
 6212SOL     OW30694   2.941   2.406   6.428 -0.0348  0.3010  0.4573
 6212SOL    HW130695   2.852   2.361   6.421  0.1257 -0.1139  1.0527
 6212SOL    HW230696   3.013   2.342   6.401  0.1737  0.2846  1.0555
 6213SOL     OW30697   0.380   1.093   1.740 -0.5577  0.2939  0.6440
 6213SOL    HW130698   0.404   1.146   1.659  0.3153 -3.8390 -1.9516
 6213SOL    HW230699   0.282   1.076   1.742 -0.5989  0.5173  0.5014
 6214SOL     OW30700   2.943   4.355   4.697 -0.1915 -0.0131 -0.1477
 6214SOL    HW130701   2.889   4.296   4.756  0.9390  0.9180  1.8552
 6214SOL    HW230702   3.034   4.368   4.736  1.5588 -1.5926 -3.4664
 6215SOL     OW30703   9.097   6.749   3.259  0.4545 -0.0009  0.0024
 6215SOL    HW130704   9.012   6.708   3.228 -0.7113  0.9952  1.8339
 6215SOL    HW230705   9.112   6.836   3.213 -0.8172  1.0357  1.4878
 6216SOL     OW30706   2.152   6.987   1.451  0.6509  0.5700 -0.1508
 6216SOL    HW130707   2.100   6.930   1.514  1.7118 -0.0124  0.2036
 6216SOL    HW230708   2.142   6.951   1.358 -1.1236  1.5807 -0.3681
 6217SOL     OW30709   7.447   2.001   6.283  0.4404 -0.1394 -0.1333
 6217SOL    HW130710   7.424   2.027   6.377 -0.2268  2.4848 -0.9693
 6217SOL    HW230711   7.428   1.904   6.269 -3.1847  0.2878  1.3281
 6218SOL     OW30712   1.542   9.831   0.713 -0.1096 -0.5135  0.2751
 6218SOL    HW130713   1.496   9.828   0.624 -0.2021 -0.3488  0.3175
 6218SOL    HW230714   1.578   9.740   0.735 -1.8825 -1.0584  1.0221
 6219SOL     OW30715   0.209   8.136   3.606  0.6180 -0.7024 -0.6690
 6219SOL    HW130716   0.287   8.194   3.630 -0.5765  0.2858  0.9409
 6219SOL    HW230717   0.124   8.189   3.614 -0.2566 -1.8331 -2.1321
 6220SOL     OW30718   6.074   5.946   6.323  1.1430  0.5544  0.0497
 6220SOL    HW130719   6.008   5.875   6.345  0.3511  0.7211 -1.6747
 6220SOL    HW230720   6.074   6.016   6.395  0.1042  0.0822  0.5087
 6221SOL     OW30721   2.500   0.604   7.799  0.1260 -0.4199  0.1103
 6221SOL    HW130722   2.597   0.627   7.806  0.1471 -1.0709  2.5049
 6221SOL    HW230723   2.445   0.679   7.836 -0.0902 -1.5947  2.2195
 6222SOL     OW30724   7.590   9.309   5.419 -0.0327  0.1709 -0.5676
 6222SOL    HW130725   7.498   9.290   5.384  0.0384  0.0779 -0.7070
 6222SOL    HW230726   7.638   9.222   5.434 -0.0762  0.2113 -0.2061
 6223SOL     OW30727   1.193   2.588   7.120  0.3389 -0.0723 -0.2984
 6223SOL    HW130728   1.128   2.558   7.190  1.1060  2.1365  1.4036
 6223SOL    HW230729   1.143   2.616   7.039 -0.5425 -3.1573 -0.8998
 6224SOL     OW30730   9.638   1.549   4.795  0.0358 -0.1394  0.0514
 6224SOL    HW130731   9.554   1.542   4.849  0.7920  0.2033  1.3012
 6224SOL    HW230732   9.629   1.622   4.727 -0.2527  0.6880  0.9724
 6225SOL     OW30733   5.352   8.395   0.950  0.0794  0.0265  0.5816
 6225SOL    HW130734   5.319   8.398   0.855 -0.5308  0.4252  0.8030
 6225SOL    HW230735   5.378   8.487   0.979 -0.3166  0.0034  1.0094
 6226SOL     OW30736   3.898   9.782   8.967 -0.1744 -0.1236  0.2928
 6226SOL    HW130737   3.855   9.757   8.880  1.8596  0.5694 -0.9632
 6226SOL    HW230738   3.982   9.729   8.978 -0.6714 -0.5538  2.0909
 6227SOL     OW30739   0.769   4.765   3.283 -0.1968  0.6171  0.0522
 6227SOL    HW130740   0.758   4.686   3.222  1.5804 -0.9161  1.6757
 6227SOL    HW230741   0.710   4.755   3.362 -0.7355  1.4272 -0.2480
 6228SOL     OW30742   9.800   2.206   1.506 -0.3519  1.0796 -0.3212
 6228SOL    HW130743   9.747   2.269   1.450  2.0456  3.1200 -0.3641
 6228SOL    HW230744   9.832   2.130   1.449 -0.4597  1.5495 -1.0127
 6229SOL     OW30745   9.779   3.487   2.895 -0.1652  0.1412  0.0275
 6229SOL    HW130746   9.780   3.390   2.870 -1.2371  0.6613 -2.2729
 6229SOL    HW230747   9.808   3.542   2.816  1.1776  1.6641  1.5383
 6230SOL     OW30748   2.145   7.025   4.301 -0.2568  0.7218  0.3013
 6230SOL    HW130749   2.102   6.993   4.216 -1.6095  2.2725  0.3784
 6230SOL    HW230750   2.226   7.078   4.280 -2.1206  3.4703 -0.2100
 6231SOL     OW30751   2.870   0.274   2.716  0.0657 -0.4812  0.3958
 6231SOL    HW130752   2.944   0.336   2.688  1.3543 -1.7801  0.8486
 6231SOL    HW230753   2.909   0.195   2.763 -1.5155 -1.8631 -0.5709
 6232SOL     OW30754   5.455   8.863   6.086  0.2758  0.0251 -0.2631
 6232SOL    HW130755   5.543   8.817   6.083  1.4690  2.2026  0.4153
 6232SOL    HW230756   5.391   8.818   6.024  1.5708 -2.1480 -0.0412
 6233SOL     OW30757   8.559   5.671   3.496  0.2304  0.0248  0.1293
 6233SOL    HW130758   8.573   5.572   3.496  1.1784  0.1510 -0.0739
 6233SOL    HW230759   8.606   5.711   3.575  1.7084  0.5487 -0.9966
 6234SOL     OW30760   4.038   0.643   6.286  0.4206  0.5374  0.4983
 6234SOL    HW130761   4.007   0.730   6.324 -0.2944 -0.1985  1.6016
 6234SOL    HW230762   4.127   0.620   6.323  0.9517  1.1623 -0.3707
 6235SOL     OW30763   8.229   3.623   6.666 -0.1243 -0.6939  0.1479
 6235SOL    HW130764   8.305   3.569   6.630  2.0080  1.7173  0.8933
 6235SOL    HW230765   8.242   3.639   6.763 -0.9211  0.7781  0.0301
 6236SOL     OW30766   0.460   9.125   5.980 -0.5055  0.2037 -0.1948
 6236SOL    HW130767   0.421   9.095   6.067  1.2622  0.1875  0.6207
 6236SOL    HW230768   0.556   9.149   5.993 -0.2354  0.2855 -2.1335
 6237SOL     OW30769   4.559   5.776   7.097 -0.5512 -0.5721  0.1838
 6237SOL    HW130770   4.647   5.804   7.059 -0.4464 -0.2639  0.6554
 6237SOL    HW230771   4.492   5.848   7.080 -0.3706 -0.1881  1.0691
 6238SOL     OW30772   6.067   1.764   3.520  0.0897 -0.2999 -0.0842
 6238SOL    HW130773   5.971   1.788   3.531  0.3257  0.0218  1.4530
 6238SOL    HW230774   6.092   1.769   3.423 -1.3469 -0.0658 -0.4541
 6239SOL     OW30775   1.964   1.488   0.495  0.8916  0.3640  0.3691
 6239SOL    HW130776   1.971   1.477   0.594  0.2939 -1.6028  0.2179
 6239SOL    HW230777   1.880   1.536   0.473 -1.4843 -3.4420  0.6303
 6240SOL     OW30778   9.575   2.602   3.430 -0.2501 -0.0517  0.0447
 6240SOL    HW130779   9.638   2.551   3.372  1.0705 -0.2765  1.6186
 6240SOL    HW230780   9.621   2.626   3.516 -3.2280 -2.9907  2.6159
 6241SOL     OW30781   1.096   2.792   7.932  0.1925  0.4789 -0.4814
 6241SOL    HW130782   1.083   2.709   7.877  1.3138 -0.4595  0.6668
 6241SOL    HW230783   1.189   2.825   7.921  0.0827  0.9378 -0.0208
 6242SOL     OW30784   2.974   9.806   9.725 -0.4365  0.0360 -0.5191
 6242SOL    HW130785   3.039   9.760   9.785 -0.9579 -0.6759 -0.5031
 6242SOL    HW230786   2.881   9.785   9.754 -0.6844  0.4259 -1.0231
 6243SOL     OW30787   2.168   3.402   5.141 -0.0130  0.1854 -0.1722
 6243SOL    HW130788   2.203   3.325   5.194  0.5942  1.3361  1.1154
 6243SOL    HW230789   2.196   3.392   5.046  0.0549 -1.1878 -0.0239
 6244SOL     OW30790   6.122   7.950   4.363 -0.0200 -0.3262  0.5644
 6244SOL    HW130791   6.124   8.047   4.385  0.0947 -0.0622 -0.5794
 6244SOL    HW230792   6.047   7.906   4.412 -2.0271  0.9458 -1.2663
 6245SOL     OW30793   9.603   4.473   6.582  0.2328 -0.0533  0.0797
 6245SOL    HW130794   9.592   4.448   6.679 -2.3388 -0.4556 -0.2814
 6245SOL    HW230795   9.612   4.390   6.527 -1.4650  0.0415 -0.3603
 6246SOL     OW30796   7.922   2.177   9.906  0.0067  0.0793  0.0045
 6246SOL    HW130797   7.861   2.229   9.965  1.5383  0.1290  1.6054
 6246SOL    HW230798   8.017   2.207   9.921  0.3826  0.4753 -2.9054
 6247SOL     OW30799   0.915   6.374   6.983  0.2864  0.2633 -0.1203
 6247SOL    HW130800   0.825   6.408   6.957  0.0485  0.1079  0.4834
 6247SOL    HW230801   0.979   6.450   6.989  0.2022  0.3739 -0.5616
 6248SOL     OW30802   3.595   0.946   4.674  0.1209 -0.1303  0.0706
 6248SOL    HW130803   3.656   0.874   4.640  0.2166 -0.8118  1.6677
 6248SOL    HW230804   3.602   1.026   4.614  2.4925 -0.2453  0.1372
 6249SOL     OW30805   1.711   8.250   6.753 -0.5106  0.9245  0.3920
 6249SOL    HW130806   1.756   8.246   6.664 -0.7414  0.5561  0.2907
 6249SOL    HW230807   1.617   8.217   6.745 -0.1166 -0.3949  1.0279
 6250SOL     OW30808   0.856   3.505   3.688  0.4656  0.4184 -0.2009
 6250SOL    HW130809   0.826   3.434   3.624 -2.4004  0.0794  1.4436
 6250SOL    HW230810   0.885   3.463   3.773  0.8541  1.0974  0.0061
 6251SOL     OW30811   0.560   8.454   6.004  0.0899 -0.1897 -0.0072
 6251SOL    HW130812   0.538   8.546   6.037  1.7749 -0.9700  3.4891
 6251SOL    HW230813   0.495   8.389   6.041  0.1450 -0.6991 -0.7928
 6252SOL     OW30814   5.779   9.106   6.345 -0.5422  0.2170 -0.0223
 6252SOL    HW130815   5.692   9.058   6.358 -0.5850  0.1366 -0.6119
 6252SOL    HW230816   5.779   9.151   6.256 -0.7474  1.8114  0.7548
 6253SOL     OW30817   1.751   2.154   8.969 -0.8834  0.1354  0.0626
 6253SOL    HW130818   1.767   2.190   9.061 -2.3979  0.9944  0.0059
 6253SOL    HW230819   1.705   2.065   8.976  1.6976 -1.2602  0.1695
 6254SOL     OW30820   7.225   0.127   4.837  0.7023  0.4836 -0.1564
 6254SOL    HW130821   7.312   0.079   4.839 -0.2572 -1.3317 -0.6879
 6254SOL    HW230822   7.156   0.073   4.886 -0.3112  1.4950 -0.4458
 6255SOL     OW30823   3.573   1.976   6.860 -0.1824  0.0993 -0.8694
 6255SOL    HW130824   3.550   1.884   6.890 -2.7244  1.6604  2.2303
 6255SOL    HW230825   3.655   2.008   6.908 -1.6871  0.9314  1.2318
 6256SOL     OW30826   4.280   1.861   9.877 -0.6840  0.0013 -0.2190
 6256SOL    HW130827   4.276   1.961   9.868  4.4080  0.2084 -2.1711
 6256SOL    HW230828   4.254   1.818   9.791  0.8099 -0.1326 -0.6246
 6257SOL     OW30829   7.392   7.653   2.616 -0.7680  0.0082 -0.1434
 6257SOL    HW130830   7.446   7.736   2.623  0.7267 -1.0572  1.5040
 6257SOL    HW230831   7.346   7.636   2.703  1.4101 -2.4931  0.5774
 6258SOL     OW30832   2.839   0.421   8.229  0.2650  0.0039 -0.1881
 6258SOL    HW130833   2.886   0.435   8.142  0.6865  1.0709  0.1916
 6258SOL    HW230834   2.744   0.452   8.221  0.2830  0.0337 -0.2939
 6259SOL     OW30835   4.032   0.236   2.800  0.0093 -0.4155 -0.2681
 6259SOL    HW130836   4.027   0.319   2.744 -1.3281  0.3306  0.9190
 6259SOL    HW230837   3.959   0.173   2.772 -0.4460 -0.1880  0.4050
 6260SOL     OW30838   7.300   0.694   1.326  0.3466 -0.4221  0.5710
 6260SOL    HW130839   7.311   0.606   1.280  1.2325 -0.8483  1.5549
 6260SOL    HW230840   7.256   0.680   1.415 -0.5671  0.2815  0.2363
 6261SOL     OW30841   0.950   7.343   3.981  0.1580  0.4922 -0.3581
 6261SOL    HW130842   0.873   7.294   3.941 -1.2742  0.5714  2.2167
 6261SOL    HW230843   0.974   7.301   4.069  2.0431  1.4607 -0.3846
 6262SOL     OW30844   2.220   1.709   3.432  0.3565 -0.3580 -0.0069
 6262SOL    HW130845   2.151   1.721   3.504 -0.2813  2.1502 -0.9899
 6262SOL    HW230846   2.188   1.640   3.367 -0.5421 -0.2998  0.3639
 6263SOL     OW30847   1.437   8.411   3.403 -0.1699 -0.5340  0.0742
 6263SOL    HW130848   1.343   8.393   3.376  0.1460 -0.4415 -1.1054
 6263SOL    HW230849   1.483   8.465   3.332  1.3448 -2.2340 -0.2862
 6264SOL     OW30850   5.237   9.585   7.486 -0.0679  0.0394  0.3748
 6264SOL    HW130851   5.311   9.633   7.441  1.7701 -0.7459  2.4874
 6264SOL    HW230852   5.149   9.619   7.452  1.2161  2.6534 -0.4123
 6265SOL     OW30853   6.984   9.796   4.006  0.0110 -0.9648 -0.2582
 6265SOL    HW130854   6.988   9.867   3.935  0.6945 -1.7479 -1.0081
 6265SOL    HW230855   6.900   9.808   4.060 -0.1271  0.1118 -0.6962
 6266SOL     OW30856   2.082   4.600   6.488 -0.1841 -0.2346 -0.2489
 6266SOL    HW130857   2.041   4.539   6.555 -0.4283  0.0073 -0.1771
 6266SOL    HW230858   2.175   4.570   6.467 -0.4198 -0.8139 -0.4565
 6267SOL     OW30859   7.266   2.502   5.374  0.1201 -0.2151  0.0712
 6267SOL    HW130860   7.221   2.574   5.426  0.1774  0.5123 -0.8661
 6267SOL    HW230861   7.230   2.501   5.281 -1.0311 -2.4583  0.5028
 6268SOL     OW30862   2.443   4.566   5.654  0.1459  0.1798 -0.2519
 6268SOL    HW130863   2.499   4.548   5.574  0.7905 -0.0747  0.2498
 6268SOL    HW230864   2.371   4.496   5.660 -1.2631  1.4540 -1.8039
 6269SOL     OW30865   0.821   9.361   3.387  0.4705  0.7620 -0.5122
 6269SOL    HW130866   0.890   9.387   3.455 -0.2375  0.2173  0.4217
 6269SOL    HW230867   0.849   9.276   3.342  1.7402  1.9762 -2.0690
 6270SOL     OW30868   7.961   8.484   8.071  0.1062 -0.1979 -0.3794
 6270SOL    HW130869   7.874   8.467   8.118  0.5720  0.0251  0.5753
 6270SOL    HW230870   7.948   8.474   7.973 -0.9539 -0.3742 -0.2282
 6271SOL     OW30871   7.329   9.649   2.885 -0.1457  0.3682  0.2173
 6271SOL    HW130872   7.281   9.727   2.843 -0.6907 -0.7367 -1.2407
 6271SOL    HW230873   7.352   9.672   2.979 -0.9228  2.0455  0.0248
 6272SOL     OW30874   3.515   8.198   9.005  0.2223  0.3135  0.9886
 6272SOL    HW130875   3.511   8.114   9.058  2.2332  0.2358  1.0327
 6272SOL    HW230876   3.575   8.186   8.926 -1.8019  0.8025 -0.6656
 6273SOL     OW30877   5.589   0.750   0.187 -0.3969 -0.8354 -0.1665
 6273SOL    HW130878   5.635   0.839   0.187  1.6194 -1.8266  0.8092
 6273SOL    HW230879   5.510   0.753   0.127 -0.9377  1.9079  0.6094
 6274SOL     OW30880   2.334   2.351   6.793  0.3596 -0.3905  0.7858
 6274SOL    HW130881   2.416   2.293   6.793 -0.3599 -1.4491 -0.6214
 6274SOL    HW230882   2.254   2.293   6.782 -0.5349  0.7052  1.5064
 6275SOL     OW30883   1.629   8.281   5.583 -0.2420  0.5892 -0.5754
 6275SOL    HW130884   1.544   8.323   5.616 -1.5631 -1.4233 -1.2853
 6275SOL    HW230885   1.663   8.333   5.504 -0.7756  1.4522 -0.2508
 6276SOL     OW30886   0.339   2.220   4.030  0.1264 -0.3507 -0.3981
 6276SOL    HW130887   0.425   2.259   4.064  0.5983 -0.6535 -1.2051
 6276SOL    HW230888   0.291   2.174   4.105  1.3648 -1.3952 -0.2157
 6277SOL     OW30889   8.702   8.508   6.591  0.1175  0.3280  0.3850
 6277SOL    HW130890   8.718   8.459   6.678 -0.2863 -0.0963  0.2226
 6277SOL    HW230891   8.729   8.449   6.515 -2.5184 -0.5365  0.0903
 6278SOL     OW30892   1.609   6.659   9.618  0.5586  0.5637  0.0997
 6278SOL    HW130893   1.647   6.581   9.668  0.2250  0.2904 -0.0699
 6278SOL    HW230894   1.639   6.654   9.522  0.6943  0.7504  0.1329
 6279SOL     OW30895   2.165   2.350   1.228 -0.3871  0.2456  0.5635
 6279SOL    HW130896   2.204   2.390   1.144 -1.7806 -0.1927 -0.3059
 6279SOL    HW230897   2.211   2.264   1.247 -1.2167 -0.5050 -0.7289
 6280SOL     OW30898   3.964   2.331   5.488  0.0437  0.0945  0.3886
 6280SOL    HW130899   3.951   2.413   5.543  0.2080 -0.9002  1.9592
 6280SOL    HW230900   3.879   2.280   5.484  0.7833 -1.3405  2.2445
 6281SOL     OW30901   5.508   9.581   1.636  0.1270  0.2817 -0.3761
 6281SOL    HW130902   5.439   9.653   1.623 -0.6451 -0.4852 -0.6241
 6281SOL    HW230903   5.518   9.530   1.550 -1.3168 -1.6155  0.5514
 6282SOL     OW30904   2.112   1.650   5.215  0.0244  0.0282 -0.0524
 6282SOL    HW130905   2.192   1.601   5.180 -0.9083 -1.4293 -0.2183
 6282SOL    HW230906   2.138   1.705   5.294  0.8926 -1.5976  0.8100
 6283SOL     OW30907   8.106   2.598   7.364 -0.1218 -0.1414  0.4990
 6283SOL    HW130908   8.087   2.685   7.410  0.0715  0.2038 -0.0783
 6283SOL    HW230909   8.130   2.615   7.268  0.8012 -0.7544  0.6122
 6284SOL     OW30910   9.957   0.679   8.192 -0.3326  0.0044 -0.3100
 6284SOL    HW130911   9.980   0.759   8.247  0.3186  0.0994 -0.7130
 6284SOL    HW230912   9.897   0.706   8.117 -2.3867 -0.3680  1.1652
 6285SOL     OW30913   8.822   1.131   1.605  0.7527  0.2522 -0.4490
 6285SOL    HW130914   8.866   1.056   1.654  2.3992 -0.0954 -2.4019
 6285SOL    HW230915   8.889   1.203   1.588 -0.7098  2.0336  1.0269
 6286SOL     OW30916   1.246   9.728   7.999 -0.1812  0.6800 -0.1262
 6286SOL    HW130917   1.178   9.726   7.926  0.4450  0.9723 -0.7216
 6286SOL    HW230918   1.303   9.646   7.993  1.0617  1.6030 -1.1103
 6287SOL     OW30919   7.788   8.309   4.500  0.0833  0.4299  0.4513
 6287SOL    HW130920   7.884   8.321   4.526 -0.3097  0.4553  1.9636
 6287SOL    HW230921   7.783   8.264   4.411  1.5084 -0.9582  1.0445
 6288SOL     OW30922   0.785   2.573   8.012 -0.1655 -0.9287 -0.2376
 6288SOL    HW130923   0.761   2.574   7.915 -0.4328 -0.5405 -0.1699
 6288SOL    HW230924   0.757   2.486   8.052 -0.6196 -0.8473 -0.3704
 6289SOL     OW30925   3.616   5.890   6.247 -0.1204 -0.0771  0.2405
 6289SOL    HW130926   3.662   5.802   6.246 -0.8478 -0.5129  2.0869
 6289SOL    HW230927   3.534   5.884   6.304  0.5319  2.1296  1.4738
 6290SOL     OW30928   1.326   8.630   4.505  0.1442  0.1080 -0.2675
 6290SOL    HW130929   1.345   8.677   4.591  2.4742 -2.9476  0.9841
 6290SOL    HW230930   1.288   8.695   4.439 -0.4114  2.8017  2.6039
 6291SOL     OW30931   1.588   4.972   6.529  0.2043 -0.3079  0.6266
 6291SOL    HW130932   1.567   4.901   6.462 -1.1869 -0.1641  0.9068
 6291SOL    HW230933   1.676   5.014   6.506 -1.1109  1.0036 -2.2150
 6292SOL     OW30934   4.555   9.022   2.455 -0.1749  0.1597 -0.6196
 6292SOL    HW130935   4.488   9.069   2.398  0.9743  1.1358 -1.1896
 6292SOL    HW230936   4.577   8.933   2.414 -0.3442  0.2873 -0.9887
 6293SOL     OW30937   2.418   9.932   7.360 -0.0181 -0.1736  0.0530
 6293SOL    HW130938   2.496   9.947   7.300 -1.1083  0.0181 -1.3362
 6293SOL    HW230939   2.399   9.834   7.366 -0.7951 -0.0948 -1.0657
 6294SOL     OW30940   1.410   6.770   0.946  0.1727 -0.6778 -0.0290
 6294SOL    HW130941   1.454   6.742   0.861 -0.1055 -0.9787 -0.0772
 6294SOL    HW230942   1.479   6.804   1.011  0.4366 -0.8742 -0.2074
 6295SOL     OW30943   8.509   1.398   5.756  0.0504 -0.0592 -0.1360
 6295SOL    HW130944   8.596   1.359   5.725  0.3845  0.1551  0.5255
 6295SOL    HW230945   8.434   1.335   5.734  0.3702 -0.2351 -0.7182
 6296SOL     OW30946   3.173   3.029   1.248  0.0730 -0.4850 -0.2559
 6296SOL    HW130947   3.189   2.937   1.283 -0.4496 -0.6844 -0.5369
 6296SOL    HW230948   3.250   3.057   1.191 -0.3174 -1.2351 -1.1757
 6297SOL     OW30949   2.461   2.235   5.476  0.1837 -0.1660  0.2451
 6297SOL    HW130950   2.423   2.317   5.432  1.3151 -0.0628 -0.5755
 6297SOL    HW230951   2.454   2.158   5.413 -0.7099 -0.6600  0.9486
 6298SOL     OW30952   2.651   6.513   4.914  0.1355  0.1503  0.1660
 6298SOL    HW130953   2.739   6.560   4.921  0.5611 -0.3948 -1.4695
 6298SOL    HW230954   2.584   6.574   4.871  0.5863 -0.5832 -1.5998
 6299SOL     OW30955   2.586   7.309   4.414  0.2925 -0.3653  0.3652
 6299SOL    HW130956   2.581   7.225   4.468 -0.3532  1.3043  2.9690
 6299SOL    HW230957   2.494   7.337   4.387  0.5437 -0.7103 -0.9023
 6300SOL     OW30958   3.545   1.047   5.466  0.6110 -0.0749 -0.3651
 6300SOL    HW130959   3.527   1.006   5.556  2.0348 -1.5914 -0.7411
 6300SOL    HW230960   3.587   0.978   5.406 -1.4555  0.5539 -2.6041
 6301SOL     OW30961   3.663   8.026   5.286 -0.3049  0.6016  0.5613
 6301SOL    HW130962   3.727   7.988   5.353 -0.2608  0.0594  0.2178
 6301SOL    HW230963   3.694   8.004   5.194 -1.2889 -0.1855  0.4013
 6302SOL     OW30964   1.577   7.853   5.393  0.7380  0.1704 -0.0996
 6302SOL    HW130965   1.529   7.766   5.384  1.5842 -0.4476  1.1876
 6302SOL    HW230966   1.519   7.927   5.360  0.6278 -1.0602 -2.7637
 6303SOL     OW30967   7.286   0.965   5.748  0.1327  0.0994 -0.0653
 6303SOL    HW130968   7.193   1.002   5.738 -0.1368 -0.7183 -0.7003
 6303SOL    HW230969   7.294   0.918   5.835 -0.6111 -1.3709 -0.7746
 6304SOL     OW30970   4.481   9.827   7.233  0.3538 -0.4826  0.0532
 6304SOL    HW130971   4.465   9.791   7.325 -0.2522  0.4305  0.3122
 6304SOL    HW230972   4.579   9.821   7.212  0.6987  0.5333  1.2930
 6305SOL     OW30973   0.992   8.651   5.493  0.6508  0.6287  0.2752
 6305SOL    HW130974   1.005   8.741   5.535 -1.5185  2.1627 -2.2034
 6305SOL    HW230975   1.070   8.632   5.433  1.5511  0.4404  1.4901
 6306SOL     OW30976   4.856   3.843   5.529 -0.1198  0.2564  0.1209
 6306SOL    HW130977   4.876   3.887   5.617  0.1728  1.1262 -0.3851
 6306SOL    HW230978   4.766   3.799   5.534 -0.4973  1.0757  0.5549
 6307SOL     OW30979   9.785   8.055   7.322  0.7029 -0.6752 -0.7201
 6307SOL    HW130980   9.870   8.095   7.356 -0.0102  0.1025  0.1863
 6307SOL    HW230981   9.726   8.127   7.287  0.9587 -1.3528 -2.6260
 6308SOL     OW30982   0.245   9.781   8.559  0.0716  0.4101  0.1755
 6308SOL    HW130983   0.283   9.689   8.558 -0.2114  0.2866  0.7540
 6308SOL    HW230984   0.177   9.789   8.485  1.8542  0.9143 -1.4437
 6309SOL     OW30985   2.896   1.404   4.102  0.7688 -0.0209  0.4614
 6309SOL    HW130986   2.930   1.497   4.109  1.3121 -0.3319  2.1679
 6309SOL    HW230987   2.799   1.402   4.126  0.6502  0.1708 -0.0013
 6310SOL     OW30988   1.813   3.192   9.339 -0.2739 -0.2180 -0.1583
 6310SOL    HW130989   1.736   3.167   9.399 -0.0644  0.5369  0.4371
 6310SOL    HW230990   1.793   3.278   9.294  0.5717  0.4132  0.6468
 6311SOL     OW30991   7.856   9.853   6.623 -0.3177  0.8136 -0.6336
 6311SOL    HW130992   7.837   9.764   6.581 -1.0646  0.5569  0.2284
 6311SOL    HW230993   7.954   9.863   6.636 -0.4269 -1.5459  2.7622
 6312SOL     OW30994   9.244   3.316   8.561  0.2284 -0.0588 -0.1594
 6312SOL    HW130995   9.290   3.277   8.641  0.2197  0.7015  0.2257
 6312SOL    HW230996   9.205   3.243   8.505  0.5088 -0.6113  0.3676
 6313SOL     OW30997   5.578   3.908   3.295  0.8011  0.1954 -0.4137
 6313SOL    HW130998   5.558   3.911   3.393 -1.2654 -1.3068 -0.7343
 6313SOL    HW230999   5.514   3.968   3.247  1.5961  0.6733 -0.8725
 6314SOL     OW31000   5.187   2.713   0.522  0.2306  0.5738  0.3720
 6314SOL    HW131001   5.090   2.719   0.498  0.2525 -0.2221  0.0868
 6314SOL    HW231002   5.243   2.732   0.442  0.3026 -2.3543 -0.3164
 6315SOL     OW31003   2.373   2.341   5.104  0.3333 -0.4252 -0.1073
 6315SOL    HW131004   2.379   2.384   5.013 -1.9465  0.7105  0.2546
 6315SOL    HW231005   2.355   2.411   5.173  1.0258 -1.4220  1.1087
 6316SOL     OW31006   5.944   2.565   3.755 -0.0585  0.0351 -0.1663
 6316SOL    HW131007   6.013   2.603   3.693 -0.0304  0.4680  0.1300
 6316SOL    HW231008   5.860   2.548   3.704  0.0539  0.1298 -0.3841
 6317SOL     OW31009   9.845   6.222   6.504 -0.6866  0.1481  0.2640
 6317SOL    HW131010   9.914   6.158   6.470 -1.5174 -1.0070  0.7092
 6317SOL    HW231011   9.880   6.315   6.499  1.1302 -0.4732  1.0413
 6318SOL     OW31012   4.940   8.465   3.962 -0.0334  0.6640  0.8034
 6318SOL    HW131013   4.913   8.393   3.899 -1.2081  0.7596  1.1748
 6318SOL    HW231014   5.022   8.511   3.928 -0.3337  0.3523 -0.3587
 6319SOL     OW31015   3.463   2.675   8.833  0.5641 -0.1907  0.4235
 6319SOL    HW131016   3.524   2.693   8.756  0.0117  0.3942  0.1117
 6319SOL    HW231017   3.372   2.652   8.798  0.7419 -1.5793  0.8708
 6320SOL     OW31018   8.991   0.684   3.370 -0.3057  0.0980  0.0810
 6320SOL    HW131019   9.062   0.626   3.329 -0.0854 -0.0186  0.6224
 6320SOL    HW231020   8.922   0.705   3.302 -0.7586 -1.3865  0.0561
 6321SOL     OW31021   4.933   2.394   4.872  0.5596 -0.1560 -0.3794
 6321SOL    HW131022   4.977   2.483   4.883  0.8815 -0.4776  1.0180
 6321SOL    HW231023   4.979   2.344   4.798  2.5274 -0.4537  0.9998
 6322SOL     OW31024   4.866   0.670   6.384 -0.4274  0.7403 -0.0761
 6322SOL    HW131025   4.917   0.752   6.411  1.5022  0.0940 -1.6448
 6322SOL    HW231026   4.904   0.634   6.299 -0.8793 -2.1123  0.8960
 6323SOL     OW31027   1.713   5.345   2.829  0.0838 -0.6466  0.5516
 6323SOL    HW131028   1.734   5.347   2.731  1.7478 -1.2704  0.8849
 6323SOL    HW231029   1.614   5.339   2.842 -0.0872 -1.5565 -1.1039
 6324SOL     OW31030   6.268   6.169   3.172  0.5506  0.3407  0.3121
 6324SOL    HW131031   6.298   6.260   3.145 -0.2841 -0.0793 -2.0548
 6324SOL    HW231032   6.220   6.175   3.260  2.2618  1.8607  1.1921
 6325SOL     OW31033   8.017   0.923   3.406 -0.2407  0.2378 -0.6086
 6325SOL    HW131034   8.116   0.925   3.414 -0.1924 -0.5435 -1.0109
 6325SOL    HW231035   7.976   0.946   3.494  0.2973 -1.3346  0.0625
 6326SOL     OW31036   1.708   5.271   7.983 -0.3516  0.5081 -0.3225
 6326SOL    HW131037   1.614   5.240   7.968 -0.1704  0.1585 -0.7532
 6326SOL    HW231038   1.772   5.200   7.952  0.0469  0.4989  0.5203
 6327SOL     OW31039   8.850   1.416   4.778 -0.5755 -0.5412  0.5137
 6327SOL    HW131040   8.778   1.453   4.837 -1.1769 -1.3151  0.2721
 6327SOL    HW231041   8.925   1.482   4.773 -1.8705  0.9269 -0.3558
 6328SOL     OW31042   3.383   1.597   7.503 -0.0088  0.4968 -0.3638
 6328SOL    HW131043   3.410   1.590   7.599  0.9914  2.2421 -0.4833
 6328SOL    HW231044   3.291   1.636   7.497  0.2530  1.1555 -0.1310
 6329SOL     OW31045   0.316   7.650   8.356 -0.5810  0.3373 -0.0880
 6329SOL    HW131046   0.281   7.709   8.428 -1.2252  0.9347 -0.8842
 6329SOL    HW231047   0.406   7.683   8.326 -0.1190 -0.1637  0.7279
 6330SOL     OW31048   9.932   1.453   7.817 -0.4885 -0.2812  0.1135
 6330SOL    HW131049  10.014   1.435   7.762 -0.1169  0.4200  0.4411
 6330SOL    HW231050   9.855   1.472   7.757 -0.0003  0.8466 -0.1594
 6331SOL     OW31051   4.612   7.524   5.536 -0.0831 -0.1808  0.2112
 6331SOL    HW131052   4.646   7.600   5.481  0.8587  0.4224  1.6271
 6331SOL    HW231053   4.598   7.445   5.476  1.0381  0.4264 -0.8864
 6332SOL     OW31054   5.405   7.122   5.442 -0.1814  0.1386 -0.4548
 6332SOL    HW131055   5.386   7.097   5.347 -0.2187 -1.8870  0.0620
 6332SOL    HW231056   5.450   7.046   5.488  2.6071  2.2022  0.3684
 6333SOL     OW31057   3.293   3.786   6.388  0.3479 -0.0709  0.1559
 6333SOL    HW131058   3.347   3.848   6.445  2.3677 -0.1867 -1.5744
 6333SOL    HW231059   3.293   3.695   6.428  1.2508 -0.0146  0.2907
 6334SOL     OW31060   4.009   1.431   6.093  0.4476  0.0780  0.0263
 6334SOL    HW131061   4.105   1.437   6.120  0.6168  0.7938 -0.7192
 6334SOL    HW231062   4.000   1.453   5.996 -0.5362  0.5429  0.2134
 6335SOL     OW31063   0.738   7.915   4.348 -0.2569 -0.2131  1.1633
 6335SOL    HW131064   0.751   7.852   4.425 -2.2993 -1.2987  0.6429
 6335SOL    HW231065   0.736   7.863   4.263 -1.9501  0.5459  0.7258
 6336SOL     OW31066   1.637   9.682   7.733  0.1430  0.1483  1.0092
 6336SOL    HW131067   1.655   9.665   7.636  0.9471 -1.7727  1.4868
 6336SOL    HW231068   1.686   9.765   7.762  0.2192  0.4977 -0.1092
 6337SOL     OW31069   3.336   0.150   2.293  0.0332  0.2842 -0.1019
 6337SOL    HW131070   3.321   0.068   2.237 -1.5894  0.2012  0.4409
 6337SOL    HW231071   3.418   0.138   2.348  0.1254 -0.7411 -0.4481
 6338SOL     OW31072   4.280   9.998   7.317  0.2542 -0.2036  0.0418
 6338SOL    HW131073   4.352   9.963   7.257  0.5164  0.8513 -0.2669
 6338SOL    HW231074   4.316  10.072   7.373 -1.2260  2.1307 -1.9810
 6339SOL     OW31075   1.504   0.362   4.258  0.0191 -0.5644 -0.0328
 6339SOL    HW131076   1.577   0.398   4.200 -0.6348  0.4869 -0.2044
 6339SOL    HW231077   1.498   0.417   4.342 -0.8650 -0.3613 -0.2203
 6340SOL     OW31078   4.596   1.905   4.726  0.4090 -0.1462 -0.2354
 6340SOL    HW131079   4.695   1.912   4.715  0.2529  0.5982 -1.2574
 6340SOL    HW231080   4.566   1.811   4.711  0.8606 -0.2025 -0.7861
 6341SOL     OW31081   1.129   8.315   4.671 -0.1639  0.1523  0.2380
 6341SOL    HW131082   1.198   8.362   4.616 -0.9862  0.1182 -0.8371
 6341SOL    HW231083   1.164   8.301   4.763  1.5130 -0.4507 -0.4760
 6342SOL     OW31084   5.203   1.987   9.940 -0.4146  0.2488  0.3123
 6342SOL    HW131085   5.161   2.058   9.996 -2.3329 -0.1358 -0.5740
 6342SOL    HW231086   5.131   1.926   9.905  1.2415 -2.8631  2.0350
 6343SOL     OW31087   3.551   1.182   5.799  0.0231 -0.3436 -0.5778
 6343SOL    HW131088   3.544   1.170   5.898 -1.3286  0.4543 -0.5690
 6343SOL    HW231089   3.644   1.211   5.775 -0.2581  1.6471  0.6787
 6344SOL     OW31090   3.706   9.912   0.358 -0.9638  0.3184 -0.6673
 6344SOL    HW131091   3.643   9.962   0.418 -0.7921 -0.2389 -0.0036
 6344SOL    HW231092   3.787   9.886   0.411 -1.2957 -1.1310 -0.8620
 6345SOL     OW31093   0.499   9.314   4.490 -0.4466  0.0127  0.1627
 6345SOL    HW131094   0.508   9.409   4.519 -0.0409  0.6742 -2.0755
 6345SOL    HW231095   0.402   9.290   4.484 -0.5516  0.3962  0.3286
 6346SOL     OW31096   3.387   1.306   6.301  0.1342  0.1811  0.3043
 6346SOL    HW131097   3.430   1.305   6.210  1.7404 -2.5222  1.0370
 6346SOL    HW231098   3.293   1.272   6.294  0.3788 -0.3796 -0.3007
 6347SOL     OW31099   2.110   4.133   3.408  0.0249 -0.4262 -0.1229
 6347SOL    HW131100   2.168   4.209   3.380 -0.6724 -0.4623 -1.7245
 6347SOL    HW231101   2.142   4.097   3.496 -0.6017  2.7030  1.4474
 6348SOL     OW31102   0.616   3.985   5.575  0.1806  0.5366  0.1353
 6348SOL    HW131103   0.607   3.963   5.672 -0.5441  2.5172  0.5297
 6348SOL    HW231104   0.556   3.925   5.521  1.2241 -1.1520  0.7979
 6349SOL     OW31105   1.934   9.358   2.805 -0.2900  0.3084 -0.0312
 6349SOL    HW131106   1.866   9.307   2.857  2.0042 -2.6042  0.3019
 6349SOL    HW231107   2.020   9.362   2.857  1.2510 -0.3955 -2.4171
 6350SOL     OW31108   2.386   9.332   5.314  0.2532 -0.6753 -0.2738
 6350SOL    HW131109   2.425   9.319   5.406 -1.1690  0.7735  0.5426
 6350SOL    HW231110   2.354   9.426   5.304 -1.7768 -1.4758 -1.4342
 6351SOL     OW31111   2.088   9.978   3.084 -0.3716  0.6638  0.2298
 6351SOL    HW131112   2.109   9.926   3.001 -1.4368 -0.3574  0.5816
 6351SOL    HW231113   2.171   9.991   3.137  0.2681  1.0974 -0.8671
 6352SOL     OW31114   4.704   6.149   7.040  0.0739  0.3627 -0.0401
 6352SOL    HW131115   4.608   6.125   7.022 -0.2599  1.1773  0.6100
 6352SOL    HW231116   4.755   6.066   7.063 -0.9891  0.2002  1.8505
 6353SOL     OW31117   1.435   3.014   9.133 -0.0608 -0.6615 -0.4783
 6353SOL    HW131118   1.394   2.945   9.074  0.8313 -1.5589 -0.0567
 6353SOL    HW231119   1.529   2.988   9.155  1.1519  1.9450 -2.3585
 6354SOL     OW31120   0.409   1.336   3.118  0.1124 -0.0834  0.1853
 6354SOL    HW131121   0.479   1.405   3.138 -1.3795  1.2491  0.9284
 6354SOL    HW231122   0.380   1.345   3.022 -0.8453  1.0669  0.5644
 6355SOL     OW31123   8.288   4.854   4.572 -0.3036  0.2059 -0.0430
 6355SOL    HW131124   8.256   4.906   4.651  3.2370 -1.0661  2.3423
 6355SOL    HW231125   8.288   4.757   4.594  3.7476  0.0582 -0.4084
 6356SOL     OW31126   2.524   5.746   8.316  0.7025 -0.7018 -0.2677
 6356SOL    HW131127   2.443   5.688   8.313 -0.4786  0.8359  0.9123
 6356SOL    HW231128   2.596   5.706   8.260 -0.6311 -2.4536 -0.7675
 6357SOL     OW31129   1.554   9.326   6.888  0.0450  0.3860 -0.3110
 6357SOL    HW131130   1.533   9.268   6.810  3.7743  1.0749 -1.9212
 6357SOL    HW231131   1.508   9.414   6.878  0.0444  0.2613 -1.3836
 6358SOL     OW31132   0.707   8.313   5.855 -0.3599  0.0313  0.0712
 6358SOL    HW131133   0.667   8.365   5.931 -0.5722  0.5522 -0.3981
 6358SOL    HW231134   0.755   8.375   5.794 -2.0973 -0.0599 -1.4406
 6359SOL     OW31135   0.719   3.005   3.179  0.5019 -0.5275  0.0840
 6359SOL    HW131136   0.724   3.055   3.093  0.0177 -1.1329 -0.2934
 6359SOL    HW231137   0.632   2.957   3.185  0.3076 -0.0594  1.1448
 6360SOL     OW31138   5.026   3.533   8.607 -0.6154  0.2717 -0.5395
 6360SOL    HW131139   5.062   3.461   8.667 -0.7197 -1.9031 -2.9976
 6360SOL    HW231140   5.084   3.614   8.613  1.3903 -1.1536 -0.1483
 6361SOL     OW31141   7.621   1.909   8.814 -0.5351 -0.2049  0.2980
 6361SOL    HW131142   7.575   1.933   8.729 -0.1249  0.1072  0.1674
 6361SOL    HW231143   7.719   1.897   8.798 -0.2555  1.0665  0.9524
 6362SOL     OW31144   1.364   0.733   6.388  0.6549 -0.0807 -0.6963
 6362SOL    HW131145   1.376   0.673   6.309  2.1316 -0.7808  0.0334
 6362SOL    HW231146   1.441   0.796   6.395  0.5446 -0.0307  0.1867
 6363SOL     OW31147   1.002   5.876   6.374 -0.5431 -0.2798  0.4349
 6363SOL    HW131148   0.914   5.883   6.328  0.0949 -0.3145 -0.8185
 6363SOL    HW231149   0.993   5.820   6.456 -1.1925 -2.3503 -1.0076
 6364SOL     OW31150   9.786   7.532   2.837  0.3292  0.6571  0.1294
 6364SOL    HW131151   9.726   7.460   2.801 -1.0404  0.6840  2.2389
 6364SOL    HW231152   9.821   7.504   2.926  0.7507  2.0851  0.4230
 6365SOL     OW31153   7.656   9.427   6.295  0.6090 -0.0061  0.3322
 6365SOL    HW131154   7.634   9.385   6.207  0.5713  0.9866 -0.1401
 6365SOL    HW231155   7.578   9.419   6.356  0.4650 -0.2722  0.1157
 6366SOL     OW31156   1.478   2.813   9.685  0.0575  0.2659 -0.0821
 6366SOL    HW131157   1.490   2.770   9.595 -0.2240  2.0875 -1.0162
 6366SOL    HW231158   1.539   2.770   9.751 -0.1162 -1.4568 -1.0237
 6367SOL     OW31159   1.808   5.416   4.482 -0.3451 -0.1079 -0.0214
 6367SOL    HW131160   1.731   5.409   4.418 -1.2300 -1.0827  1.1315
 6367SOL    HW231161   1.805   5.505   4.528 -1.8235 -0.8211  1.3034
 6368SOL     OW31162   0.557   1.294   9.361 -0.4404  0.2194 -0.5526
 6368SOL    HW131163   0.516   1.382   9.339  0.2700 -0.1127 -3.3548
 6368SOL    HW231164   0.500   1.221   9.323 -1.2553 -0.5965  2.1066
 6369SOL     OW31165   2.168   6.999   0.643 -0.9263 -0.7594  0.0700
 6369SOL    HW131166   2.255   7.041   0.618 -0.4063 -1.4414  0.7441
 6369SOL    HW231167   2.144   6.929   0.576 -1.7880  0.5612 -1.0510
 6370SOL     OW31168   3.853   2.396   9.756  0.0395 -0.2011 -0.1230
 6370SOL    HW131169   3.826   2.452   9.678  1.3078 -1.8982 -1.8303
 6370SOL    HW231170   3.944   2.424   9.787  0.7461 -1.3659 -1.0838
 6371SOL     OW31171   0.086   5.308   3.904  0.7561 -0.5279  0.1226
 6371SOL    HW131172   0.013   5.360   3.859  2.2510  0.6520 -0.9505
 6371SOL    HW231173   0.101   5.345   3.996  1.4390  0.6013 -0.4366
 6372SOL     OW31174   9.077   0.796   4.103  0.0139  0.1963 -0.0038
 6372SOL    HW131175   9.129   0.860   4.160  0.1169  1.3577 -1.3737
 6372SOL    HW231176   8.998   0.843   4.064 -1.3121 -1.1878  0.9498
 6373SOL     OW31177   6.229   1.451   9.719 -0.2960  0.3980 -0.6160
 6373SOL    HW131178   6.303   1.495   9.668 -1.9143  1.6755 -1.8792
 6373SOL    HW231179   6.191   1.377   9.665 -0.3548  0.1277 -0.2070
 6374SOL     OW31180   2.490   7.780   5.447  0.4044 -0.3824  0.1024
 6374SOL    HW131181   2.546   7.860   5.426 -2.2638  1.2688 -1.0435
 6374SOL    HW231182   2.433   7.758   5.367 -2.0765 -0.7071  1.9028
 6375SOL     OW31183   8.358   8.222   5.187  0.2196 -0.4885  0.2250
 6375SOL    HW131184   8.411   8.139   5.207 -1.3003 -1.1443  1.6331
 6375SOL    HW231185   8.414   8.302   5.202  0.8838 -1.1829  1.5291
 6376SOL     OW31186   1.061   3.960   6.367  0.2685  0.0885  0.0693
 6376SOL    HW131187   1.080   4.041   6.312  1.0339  0.2691  0.5982
 6376SOL    HW231188   1.095   3.973   6.459 -0.3996 -0.4919  0.4082
 6377SOL     OW31189   6.899   8.498   8.222 -0.1545  0.4247  0.2318
 6377SOL    HW131190   6.936   8.588   8.200  0.0415  0.3141  0.1051
 6377SOL    HW231191   6.831   8.507   8.294 -1.1080  0.8399 -0.7188
 6378SOL     OW31192   9.903   3.359   3.865 -0.3596 -0.0729 -1.2994
 6378SOL    HW131193   9.809   3.368   3.832 -0.0861  1.2466 -1.7444
 6378SOL    HW231194   9.967   3.387   3.794  0.3985 -1.4737 -1.1783
 6379SOL     OW31195   9.297   7.861   0.405 -0.1185  0.1986  0.0150
 6379SOL    HW131196   9.280   7.840   0.502 -0.9779  0.5260 -0.0625
 6379SOL    HW231197   9.326   7.956   0.396  0.8721 -0.0986  0.0478
 6380SOL     OW31198   9.937   0.113   2.008 -0.4103 -0.1147  0.4626
 6380SOL    HW131199   9.977   0.030   2.049 -0.2594 -0.4044 -0.2721
 6380SOL    HW231200   9.945   0.108   1.909  0.5630  1.2865  0.4691
 6381SOL     OW31201   1.929   1.386   9.904  0.2022  0.3020  0.1979
 6381SOL    HW131202   1.968   1.419   9.990 -0.1257 -0.6857  0.7452
 6381SOL    HW231203   2.000   1.343   9.849  0.5501  1.5541 -0.3400
 6382SOL     OW31204   9.798   8.726   3.881  0.7261 -0.4603 -0.0788
 6382SOL    HW131205   9.882   8.675   3.897  0.7086 -0.2306  0.7655
 6382SOL    HW231206   9.795   8.757   3.786  1.2950 -1.0056 -0.2760
 6383SOL     OW31207   5.377   8.123   5.601 -0.1823  0.4348 -0.2610
 6383SOL    HW131208   5.347   8.098   5.693  1.7284 -0.6327  0.0940
 6383SOL    HW231209   5.437   8.202   5.606  0.0453  0.2816 -0.5866
 6384SOL     OW31210   3.614   1.173   6.972  0.0326 -0.1832 -0.4060
 6384SOL    HW131211   3.526   1.139   7.006 -0.5420  1.3774 -0.2931
 6384SOL    HW231212   3.685   1.155   7.040 -0.6150  0.5080  0.4726
 6385SOL     OW31213   1.455   2.333   4.498  0.1973  0.4574 -0.1790
 6385SOL    HW131214   1.483   2.374   4.411 -1.3663  2.6989  0.3386
 6385SOL    HW231215   1.369   2.283   4.485  0.2819  0.2798 -0.0559
 6386SOL     OW31216   3.832   2.560   5.310 -0.5730 -0.3038 -0.2265
 6386SOL    HW131217   3.809   2.489   5.377 -0.4700 -1.0224 -0.9497
 6386SOL    HW231218   3.896   2.625   5.352 -2.2376  0.5199  1.0974
 6387SOL     OW31219   8.664   1.595   2.730 -0.0235 -0.2399 -0.5613
 6387SOL    HW131220   8.596   1.545   2.677 -1.7952 -1.3940  2.6681
 6387SOL    HW231221   8.620   1.642   2.806  2.5718  0.2828  0.6985
 6388SOL     OW31222   1.901   2.723   5.372  0.0965 -0.1028 -0.3525
 6388SOL    HW131223   1.829   2.717   5.302 -0.2640 -1.1177  0.0925
 6388SOL    HW231224   1.988   2.747   5.328 -0.4193  0.7138 -0.9494
 6389SOL     OW31225   1.606   6.779   3.984 -0.5022  0.5017  0.0931
 6389SOL    HW131226   1.698   6.777   4.023 -0.8852 -0.5054  0.9464
 6389SOL    HW231227   1.607   6.835   3.901  0.5779  1.6455  0.8581
 6390SOL     OW31228   2.967   8.755   3.985 -0.0684 -0.0510 -0.2112
 6390SOL    HW131229   3.024   8.804   3.920  1.2427 -1.8674 -0.4675
 6390SOL    HW231230   2.922   8.678   3.939  0.5773 -1.1294  0.9279
 6391SOL     OW31231   8.913   9.532   9.529 -0.3660 -0.0637 -0.9641
 6391SOL    HW131232   8.982   9.484   9.476  1.1217  2.4005 -1.3238
 6391SOL    HW231233   8.875   9.607   9.475  0.7546  2.1382  1.1971
 6392SOL     OW31234   1.465   2.532   7.064  0.5548 -0.3391 -0.3196
 6392SOL    HW131235   1.489   2.491   6.977 -0.3162 -0.4081 -0.5311
 6392SOL    HW231236   1.369   2.558   7.064  0.5823 -0.1918  0.5599
 6393SOL     OW31237   7.518   7.486   5.400  0.0803  0.2289 -0.3578
 6393SOL    HW131238   7.497   7.483   5.302  1.3842 -0.8135 -0.6260
 6393SOL    HW231239   7.506   7.395   5.439  1.9404  0.0814 -0.0848
 6394SOL     OW31240   4.132   4.056   8.845  0.5362 -0.1522  0.2809
 6394SOL    HW131241   4.052   3.998   8.831  0.4645 -0.2048  0.9017
 6394SOL    HW231242   4.202   4.005   8.894  1.1579 -0.2753 -0.7404
 6395SOL     OW31243   3.253   1.942   4.063  0.2584  0.7998 -0.1924
 6395SOL    HW131244   3.341   1.897   4.048  0.1738  0.7500 -0.5650
 6395SOL    HW231245   3.213   1.911   4.149  1.1438  1.7027  0.5488
 6396SOL     OW31246   0.408   0.032   7.096 -0.2501 -0.4014  0.5547
 6396SOL    HW131247   0.476  -0.041   7.101  0.0453 -0.3745 -2.0665
 6396SOL    HW231248   0.429   0.092   7.018 -1.3539  1.5876  1.7473
 6397SOL     OW31249   9.810   4.098   0.418 -0.2048  0.2708 -0.2100
 6397SOL    HW131250   9.729   4.116   0.474 -1.1177  3.2559 -2.3359
 6397SOL    HW231251   9.788   4.111   0.321  2.5818  0.2921 -0.8979
 6398SOL     OW31252   3.241   9.051   3.397  0.3166  0.4556 -0.1763
 6398SOL    HW131253   3.310   9.040   3.325 -0.6990 -2.7807 -0.7564
 6398SOL    HW231254   3.205   8.961   3.421 -1.6919  1.8395  2.1089
 6399SOL     OW31255   2.334   0.919   3.814 -0.0850  0.0037  0.2694
 6399SOL    HW131256   2.274   0.850   3.856 -0.9750  1.7224  1.8621
 6399SOL    HW231257   2.298   0.945   3.725 -0.7185 -0.2709  0.4443
 6400SOL     OW31258   4.714   9.149   9.436  0.4872  0.0067 -0.8930
 6400SOL    HW131259   4.753   9.172   9.526 -1.0644  0.5751 -0.3421
 6400SOL    HW231260   4.645   9.078   9.448 -0.1357  0.5049 -1.5666
 6401SOL     OW31261   6.975   2.512   5.580 -0.5237 -0.8337 -0.6704
 6401SOL    HW131262   7.019   2.422   5.569  0.1109 -0.6024 -0.0624
 6401SOL    HW231263   7.045   2.584   5.574 -0.7416 -0.4875  0.8097
 6402SOL     OW31264   5.895   6.828   3.798 -0.4670 -0.2952 -0.2663
 6402SOL    HW131265   5.834   6.841   3.720 -0.3030 -1.8197 -0.6674
 6402SOL    HW231266   5.863   6.752   3.854  0.1640 -0.0713  0.4207
 6403SOL     OW31267   2.277   3.193   8.787 -0.1278 -0.2093 -0.0641
 6403SOL    HW131268   2.376   3.181   8.790  0.0334  0.8708 -1.0069
 6403SOL    HW231269   2.244   3.178   8.694 -0.6039  1.2384 -0.1405
 6404SOL     OW31270   1.316   9.322   4.554  0.4287  0.7625 -0.4581
 6404SOL    HW131271   1.358   9.239   4.516  0.7910  0.1194  1.3357
 6404SOL    HW231272   1.288   9.306   4.648  0.2289  2.5972 -0.1869
 6405SOL     OW31273   8.221   1.443   4.414 -0.1850  0.0463 -0.1026
 6405SOL    HW131274   8.286   1.451   4.339 -1.2921 -0.4942 -1.1315
 6405SOL    HW231275   8.128   1.433   4.378 -0.7517 -0.1262  1.3328
 6406SOL     OW31276   5.848   4.499   2.613 -0.0767 -0.1114 -0.7111
 6406SOL    HW131277   5.937   4.507   2.658  0.3281 -0.2606 -1.4745
 6406SOL    HW231278   5.777   4.533   2.674  0.2139 -2.1814  0.8326
 6407SOL     OW31279   1.762   1.102   8.604  0.1085  0.6053  0.1444
 6407SOL    HW131280   1.716   1.186   8.632  0.0988  0.1683  1.4889
 6407SOL    HW231281   1.743   1.083   8.507  0.4983  2.3842 -0.2894
 6408SOL     OW31282   3.022   0.438   2.585 -0.5972 -0.4032  0.3207
 6408SOL    HW131283   3.017   0.428   2.486 -0.1156 -0.6237  0.3156
 6408SOL    HW231284   2.941   0.487   2.618 -0.5016  0.1428 -0.2420
 6409SOL     OW31285   2.679   2.584   0.395  0.2650  0.0492 -0.2667
 6409SOL    HW131286   2.627   2.517   0.448 -0.0327  0.8502  0.4628
 6409SOL    HW231287   2.695   2.666   0.451  0.6939  0.5575 -1.1231
 6410SOL     OW31288   3.276   1.079   8.925 -0.3587 -0.3654 -0.3818
 6410SOL    HW131289   3.332   0.998   8.910  0.0212  0.1024 -1.5319
 6410SOL    HW231290   3.312   1.156   8.871 -0.0555  0.8731  1.5449
 6411SOL     OW31291   1.957   3.606   2.321 -0.4153 -0.8572  0.3451
 6411SOL    HW131292   1.941   3.705   2.317 -0.1034 -0.8044  0.3761
 6411SOL    HW231293   2.056   3.588   2.315 -0.2340 -1.0277  2.9786
 6412SOL     OW31294   2.914   2.618   4.824  0.1958  0.2872  0.3351
 6412SOL    HW131295   2.873   2.668   4.748  0.6235 -0.3148 -0.2884
 6412SOL    HW231296   2.923   2.521   4.800  0.5851  0.1433  1.0435
 6413SOL     OW31297   5.196   0.034   0.931 -0.7699  0.0840 -0.4112
 6413SOL    HW131298   5.121   0.085   0.889 -2.7011 -1.3243  1.2172
 6413SOL    HW231299   5.238   0.089   1.003 -0.4511  0.7629 -1.1188
 6414SOL     OW31300   2.831   0.601   4.720 -0.2364 -0.7158  0.7216
 6414SOL    HW131301   2.736   0.629   4.734 -0.0275 -0.5831  1.8949
 6414SOL    HW231302   2.836   0.501   4.715 -0.3613 -0.7469  1.2068
 6415SOL     OW31303   3.917   9.229   3.624  0.1754  0.5581  0.0117
 6415SOL    HW131304   3.843   9.162   3.627  1.1560 -0.4727  1.6914
 6415SOL    HW231305   3.878   9.320   3.609 -1.2056 -0.2891 -1.7606
 6416SOL     OW31306   3.540   9.495   8.434  0.4382  0.3728 -0.1377
 6416SOL    HW131307   3.486   9.556   8.493 -1.4308 -0.2484 -1.1646
 6416SOL    HW231308   3.569   9.415   8.487  0.6890  0.8945  0.5253
 6417SOL     OW31309   5.808   2.326   1.808 -0.0820 -0.3866 -0.2842
 6417SOL    HW131310   5.843   2.367   1.892 -0.5086  1.5124 -1.0202
 6417SOL    HW231311   5.717   2.287   1.825  0.1570 -0.6748  0.3249
 6418SOL     OW31312   3.926   6.183   1.836  0.6072 -0.4799  0.2721
 6418SOL    HW131313   4.022   6.191   1.811  0.1146  1.5032 -1.0778
 6418SOL    HW231314   3.912   6.219   1.929  0.9961  0.1541  0.0839
 6419SOL     OW31315   3.267   7.214   0.806 -0.3160 -0.1370 -0.9488
 6419SOL    HW131316   3.333   7.246   0.874  1.3715  0.0137 -2.6175
 6419SOL    HW231317   3.241   7.119   0.828  1.0114 -0.4487 -0.6698
 6420SOL     OW31318   1.774   3.123   0.198 -0.0693 -0.2882  0.3369
 6420SOL    HW131319   1.730   3.065   0.130 -0.0854 -1.0184  0.9768
 6420SOL    HW231320   1.775   3.218   0.164 -0.6541 -0.5356 -0.3930
 6421SOL     OW31321   1.486   8.949   4.919 -0.2289 -0.2209  0.2011
 6421SOL    HW131322   1.458   9.045   4.924 -0.3070 -0.1518 -1.2018
 6421SOL    HW231323   1.557   8.931   4.987 -0.3585  0.7803  0.6109
 6422SOL     OW31324   1.932   8.502   4.766 -0.1601  0.0434  0.4559
 6422SOL    HW131325   2.022   8.471   4.796  0.5917 -0.7769 -2.4381
 6422SOL    HW231326   1.870   8.424   4.760 -0.4050  0.2483  0.2985
 6423SOL     OW31327   1.857   7.665   2.420  0.0733 -0.1189 -0.0526
 6423SOL    HW131328   1.895   7.621   2.502 -1.5796 -0.5107  0.5293
 6423SOL    HW231329   1.895   7.622   2.338 -0.1606 -1.4367  0.5187
 6424SOL     OW31330   2.366   2.862   9.198  0.4292 -0.2955 -0.3407
 6424SOL    HW131331   2.267   2.873   9.206  0.5522  0.3822  0.2807
 6424SOL    HW231332   2.388   2.819   9.110 -0.3488  0.3989 -0.8818
 6425SOL     OW31333   4.362   2.558   8.815  0.1002 -0.4833 -0.6589
 6425SOL    HW131334   4.389   2.634   8.873 -2.9122 -1.7935  2.5917
 6425SOL    HW231335   4.392   2.576   8.721  0.5932  4.0305  0.2509
 6426SOL     OW31336   2.867   5.346   8.748  0.1238  0.1010  0.2333
 6426SOL    HW131337   2.879   5.416   8.678  0.4695 -1.3715 -1.1941
 6426SOL    HW231338   2.785   5.293   8.728  0.4921 -0.6419  0.6863
 6427SOL     OW31339   2.268   0.309   6.878  0.4109 -0.0221 -0.1332
 6427SOL    HW131340   2.302   0.215   6.888  0.3182  0.0796  1.2673
 6427SOL    HW231341   2.328   0.372   6.927  0.7937  0.7358 -1.5386
 6428SOL     OW31342   1.066   0.424   2.235 -0.2779 -0.4808 -0.3507
 6428SOL    HW131343   1.108   0.502   2.190 -0.2390  0.6394  1.5947
 6428SOL    HW231344   1.122   0.396   2.313 -1.2223 -1.2975  0.0497
 6429SOL     OW31345   9.425   1.147   9.300  0.0359  0.5439  0.1287
 6429SOL    HW131346   9.400   1.222   9.239  0.5577 -0.3051 -1.1663
 6429SOL    HW231347   9.385   1.062   9.266  1.4091 -0.1629  0.2370
 6430SOL     OW31348   3.988   9.486   5.565 -0.0339 -0.2841 -0.4153
 6430SOL    HW131349   3.890   9.500   5.577 -0.0282 -0.6168  0.0261
 6430SOL    HW231350   4.031   9.571   5.534 -0.1765  0.3808  1.1402
 6431SOL     OW31351   2.200   3.741   1.311  0.1927  0.4138 -0.1879
 6431SOL    HW131352   2.130   3.734   1.240  0.6124 -0.1630 -0.5413
 6431SOL    HW231353   2.174   3.684   1.389  0.9079 -0.8276 -0.8480
 6432SOL     OW31354   9.770   3.496   8.495  0.3315 -0.4052 -0.7602
 6432SOL    HW131355   9.869   3.512   8.499  0.2548  0.0179 -0.5419
 6432SOL    HW231356   9.753   3.403   8.460  0.7884 -0.1997 -1.5502
 6433SOL     OW31357   1.138   3.521   6.861 -0.0635 -0.4299 -0.4229
 6433SOL    HW131358   1.206   3.563   6.921 -1.4744  1.4098 -0.0615
 6433SOL    HW231359   1.184   3.466   6.792  1.7085 -0.5309  0.8085
 6434SOL     OW31360   0.287   5.920   6.404  0.4979  0.3976  0.4885
 6434SOL    HW131361   0.226   5.845   6.379  0.9104  0.8031 -1.9306
 6434SOL    HW231362   0.266   5.952   6.496  0.6366 -3.0028  1.7766
 6435SOL     OW31363   2.062   0.692   6.552 -0.4966  0.2889  0.2596
 6435SOL    HW131364   2.001   0.613   6.566  0.9137 -0.9527 -0.4572
 6435SOL    HW231365   2.081   0.701   6.454 -0.0190  1.0556  0.4264
 6436SOL     OW31366   3.099   1.923   7.056  0.0025  0.4432 -0.3398
 6436SOL    HW131367   3.024   1.985   7.035 -0.9352 -0.9568 -1.2127
 6436SOL    HW231368   3.186   1.965   7.032 -0.5157  1.9178  0.2981
 6437SOL     OW31369   0.735   1.931   9.921  0.2712 -0.3978 -0.5224
 6437SOL    HW131370   0.644   1.890   9.925  0.7775 -1.4150  1.0884
 6437SOL    HW231371   0.803   1.859   9.907  1.0983 -0.0513  1.4754
 6438SOL     OW31372   6.511   0.417   6.370  0.3875  0.4616 -0.0412
 6438SOL    HW131373   6.449   0.421   6.449 -0.0537 -0.7922 -0.3145
 6438SOL    HW231374   6.492   0.495   6.310  0.8526  1.5267  1.1711
 6439SOL     OW31375   4.443   0.555   3.177  0.0228  0.3543 -0.7768
 6439SOL    HW131376   4.501   0.562   3.259  0.4291 -2.5003 -0.7653
 6439SOL    HW231377   4.485   0.492   3.113 -1.3316  1.0219 -2.3438
 6440SOL     OW31378   1.160   3.124   5.388  0.8856 -0.2965 -0.2071
 6440SOL    HW131379   1.126   3.166   5.303  1.8868  0.2972 -0.3246
 6440SOL    HW231380   1.237   3.177   5.423 -1.3887  1.1927  2.7110
 6441SOL     OW31381   3.338   7.570   8.976  0.7625  0.3139 -0.3438
 6441SOL    HW131382   3.399   7.516   9.034 -0.0615  0.3954  0.6242
 6441SOL    HW231383   3.274   7.509   8.929 -0.3179  0.4428  0.9262
 6442SOL     OW31384   7.851   0.658   6.694  0.3557 -0.0066 -0.7381
 6442SOL    HW131385   7.931   0.703   6.653  0.8317 -0.6525 -0.5107
 6442SOL    HW231386   7.879   0.575   6.740 -0.2727  0.4072  0.4066
 6443SOL     OW31387   2.560   7.001   6.682 -0.6375 -0.1148  0.2181
 6443SOL    HW131388   2.584   7.038   6.592 -1.8803 -0.4787 -0.2725
 6443SOL    HW231389   2.528   6.907   6.672 -0.4734 -0.2632  1.0779
 6444SOL     OW31390   2.010   7.767   3.736  1.1011  0.0420  0.0516
 6444SOL    HW131391   2.030   7.757   3.834 -0.5967  0.3944  0.4603
 6444SOL    HW231392   2.011   7.864   3.712  3.1718 -0.1474 -0.6643
 6445SOL     OW31393   1.226   8.285   7.693  0.0740 -0.0325 -0.3633
 6445SOL    HW131394   1.250   8.248   7.603 -0.1996 -0.5330 -0.2321
 6445SOL    HW231395   1.277   8.236   7.764 -1.3444 -1.1088 -0.0829
 6446SOL     OW31396   0.815   8.231   8.313 -0.2562  0.1689  0.2857
 6446SOL    HW131397   0.808   8.314   8.258  2.0052  1.0984  1.3445
 6446SOL    HW231398   0.795   8.252   8.408  5.3433  0.7346  1.5257
 6447SOL     OW31399   4.310   3.440   8.852  0.0615 -0.7330 -0.2351
 6447SOL    HW131400   4.240   3.368   8.852 -0.4802 -0.2175 -0.9454
 6447SOL    HW231401   4.360   3.438   8.766  0.5759 -0.7644  0.0636
 6448SOL     OW31402   2.116   2.107   8.245  0.0599 -0.2462 -0.1387
 6448SOL    HW131403   2.025   2.076   8.217 -0.0191  2.0695 -2.6860
 6448SOL    HW231404   2.108   2.183   8.309  0.2180 -0.7743  0.5129
 6449SOL     OW31405   2.782   2.975   4.729 -0.5002 -0.1789 -0.2419
 6449SOL    HW131406   2.868   2.991   4.778 -0.8683  0.2637  0.2624
 6449SOL    HW231407   2.800   2.974   4.631  0.3135 -1.5212 -0.0903
 6450SOL     OW31408   7.067   1.563   2.237 -0.3620  0.7348  0.3460
 6450SOL    HW131409   7.095   1.651   2.199  0.2525  0.9244  1.2160
 6450SOL    HW231410   7.133   1.534   2.306 -0.0931 -0.8450 -0.5642
 6451SOL     OW31411   8.359   5.154   8.175 -0.2793  0.4781 -0.0570
 6451SOL    HW131412   8.277   5.121   8.128 -0.7846  1.0091  0.4510
 6451SOL    HW231413   8.337   5.177   8.270  0.5617  0.1795  0.2186
 6452SOL     OW31414   3.324   0.131   5.978  0.2578  0.2754 -0.3971
 6452SOL    HW131415   3.258   0.069   6.021  0.3904  0.7703  0.5216
 6452SOL    HW231416   3.303   0.225   6.003  1.7152  0.3853  0.4631
 6453SOL     OW31417   0.337   1.989   7.920  0.1881  0.7510  0.1637
 6453SOL    HW131418   0.333   1.956   7.825 -1.1602 -0.8368  0.7398
 6453SOL    HW231419   0.431   2.012   7.944  1.1419 -2.2715 -0.4492
 6454SOL     OW31420   4.930   9.088   8.867 -0.0468 -0.0869 -0.1071
 6454SOL    HW131421   4.957   9.009   8.922 -0.1703  0.9796  1.5109
 6454SOL    HW231422   5.007   9.115   8.808  0.5077 -0.4723  0.4323
 6455SOL     OW31423   6.677   5.817   1.487 -0.0657  0.1206 -0.5798
 6455SOL    HW131424   6.648   5.810   1.392  0.2586 -0.5396 -0.6317
 6455SOL    HW231425   6.754   5.755   1.504  0.2680  0.6659 -0.0368
 6456SOL     OW31426   2.674   7.954   7.236 -0.6014  0.3847  0.1769
 6456SOL    HW131427   2.616   7.913   7.306 -0.0813 -0.0613  0.3488
 6456SOL    HW231428   2.619   8.013   7.177 -1.3378 -0.4880 -0.0128
 6457SOL     OW31429   4.429   2.620   5.635 -0.1205 -0.3790 -0.8854
 6457SOL    HW131430   4.353   2.591   5.692  0.8000 -2.0155 -0.4616
 6457SOL    HW231431   4.469   2.704   5.672 -0.6510 -0.4578 -0.1333
 6458SOL     OW31432   2.646   2.647   5.510  0.3253  0.1274 -0.6127
 6458SOL    HW131433   2.640   2.689   5.601  0.1938  0.0205 -0.5718
 6458SOL    HW231434   2.646   2.719   5.441 -1.4109  0.1495 -0.6174
 6459SOL     OW31435   9.967   1.260   8.805  0.1177 -0.0610  0.4307
 6459SOL    HW131436   9.955   1.347   8.855 -0.5495  0.8640 -1.3075
 6459SOL    HW231437   9.886   1.243   8.749  1.7713  0.0511 -2.0657
 6460SOL     OW31438   6.723   1.418   1.913 -0.1264 -0.2612  0.1468
 6460SOL    HW131439   6.670   1.333   1.912 -0.3693 -0.1068  0.1472
 6460SOL    HW231440   6.801   1.407   1.975 -2.3195  0.8206  3.2190
 6461SOL     OW31441   4.479   8.276   6.288  0.1530  0.0793  0.0837
 6461SOL    HW131442   4.549   8.267   6.218  0.4840  1.7373  0.1880
 6461SOL    HW231443   4.523   8.283   6.378 -0.2434 -1.2957  0.4008
 6462SOL     OW31444   3.764   3.961   4.788 -0.2913  0.1393 -0.2675
 6462SOL    HW131445   3.796   4.004   4.873  1.4102 -0.6638 -0.4831
 6462SOL    HW231446   3.723   3.873   4.810 -0.4294  0.2142 -0.2196
 6463SOL     OW31447   6.074   7.867   3.951  0.1892  0.4062 -0.1765
 6463SOL    HW131448   6.155   7.809   3.959 -0.5134 -0.2168  3.3604
 6463SOL    HW231449   6.101   7.963   3.956  0.6543  0.1770  2.0151
 6464SOL     OW31450   5.578   7.775   1.327 -0.4628 -0.0997 -0.1406
 6464SOL    HW131451   5.617   7.868   1.323 -1.8173  0.4714 -0.3315
 6464SOL    HW231452   5.541   7.759   1.418  0.7160 -0.8499  0.2103
 6465SOL     OW31453   6.093   6.701   4.185  0.3811  0.2371  0.6619
 6465SOL    HW131454   6.118   6.679   4.090  1.6871 -1.7749  1.4329
 6465SOL    HW231455   6.002   6.664   4.205  1.3101 -1.9332  1.0335
 6466SOL     OW31456   2.570   9.663   0.873 -0.1262  0.0623 -0.3139
 6466SOL    HW131457   2.662   9.673   0.913 -0.1794 -0.6340 -0.0010
 6466SOL    HW231458   2.540   9.751   0.836 -0.0920  0.7582  1.2386
 6467SOL     OW31459   2.000   9.846   8.335  0.2079 -0.4116 -0.4724
 6467SOL    HW131460   2.074   9.911   8.316 -1.9691  3.1068  2.5271
 6467SOL    HW231461   2.022   9.795   8.419 -0.3348  0.0362 -0.0512
 6468SOL     OW31462   0.058   1.573   8.366  0.3881 -0.1943  0.2021
 6468SOL    HW131463   0.016   1.527   8.288  1.2100  0.8713 -0.8882
 6468SOL    HW231464   0.020   1.665   8.375  0.7300 -0.0963  0.6780
 6469SOL     OW31465   6.202   1.681   4.322 -0.9772 -0.5100 -0.1227
 6469SOL    HW131466   6.174   1.586   4.332 -3.1369 -0.0905 -1.8879
 6469SOL    HW231467   6.133   1.731   4.271  1.0049  1.6026 -0.8122
 6470SOL     OW31468   6.971   7.576   0.898 -0.6798  0.6885 -0.8389
 6470SOL    HW131469   7.037   7.526   0.842 -0.4141  0.4895 -0.3522
 6470SOL    HW231470   6.937   7.655   0.847  1.0441  1.6443 -0.5584
 6471SOL     OW31471   7.939   5.895   8.420  0.3271  0.0038  0.3040
 6471SOL    HW131472   7.925   5.801   8.390  3.1105 -1.2396  2.6411
 6471SOL    HW231473   7.875   5.916   8.494  0.0460 -0.2194  0.1242
 6472SOL     OW31474   0.146   3.071   5.498  0.3130 -0.3002  0.0453
 6472SOL    HW131475   0.100   3.100   5.581 -1.1068 -1.2571 -0.3949
 6472SOL    HW231476   0.144   3.146   5.431 -0.7464 -0.3965 -0.0326
 6473SOL     OW31477   3.711   6.588   3.576  0.4490 -0.0889 -0.2389
 6473SOL    HW131478   3.677   6.568   3.484 -1.1417 -0.4856  0.4028
 6473SOL    HW231479   3.633   6.589   3.639  1.5665 -0.0906  1.1392
 6474SOL     OW31480   4.154   2.010   8.052  0.1401 -0.1982 -0.8681
 6474SOL    HW131481   4.090   2.082   8.027  0.1942 -0.3154 -1.3585
 6474SOL    HW231482   4.186   1.963   7.969  0.5499 -0.4024 -0.6006
 6475SOL     OW31483   4.005   9.334   7.917 -0.5093  0.7048 -0.1934
 6475SOL    HW131484   3.967   9.386   7.993 -1.6974  0.8828 -0.8977
 6475SOL    HW231485   4.102   9.316   7.934 -1.1023 -0.4821  2.0152
 6476SOL     OW31486   4.022   3.541   0.866  0.0158  0.6168 -0.0922
 6476SOL    HW131487   4.090   3.602   0.826  2.1303 -1.6182 -0.0640
 6476SOL    HW231488   4.026   3.547   0.966  0.9641 -0.2680 -0.0584
 6477SOL     OW31489   2.136   5.078   6.073 -0.3416  0.1858 -0.1568
 6477SOL    HW131490   2.207   5.149   6.080  0.9614 -1.0250 -0.8603
 6477SOL    HW231491   2.091   5.084   5.985  0.5678 -0.5824 -0.6834
 6478SOL     OW31492   8.136   9.529   5.415 -0.0913  0.6513 -0.0973
 6478SOL    HW131493   8.130   9.522   5.514 -1.4526  0.9739 -0.1498
 6478SOL    HW231494   8.107   9.620   5.386 -1.5762 -0.0708 -0.9295
 6479SOL     OW31495   0.805   0.350   5.762 -0.3784 -0.2358 -0.8807
 6479SOL    HW131496   0.707   0.342   5.779 -0.3932 -0.6078 -1.1545
 6479SOL    HW231497   0.838   0.437   5.800 -0.5823 -0.6577  0.2943
 6480SOL     OW31498   3.115   8.493   3.599  0.6902  0.0324  0.4105
 6480SOL    HW131499   3.189   8.456   3.655  2.6254  2.6412 -0.3614
 6480SOL    HW231500   3.106   8.439   3.515 -0.0757 -1.8907  1.6721
 6481SOL     OW31501   6.615   2.012   4.485 -0.2389 -0.4892  0.2722
 6481SOL    HW131502   6.582   1.973   4.399 -0.1758  1.2733 -0.5634
 6481SOL    HW231503   6.589   2.108   4.491 -2.0553 -1.0836  3.1682
 6482SOL     OW31504   0.392   1.636   7.189  0.1409 -0.2907 -0.6645
 6482SOL    HW131505   0.423   1.697   7.262  0.6408 -0.7171 -0.5159
 6482SOL    HW231506   0.449   1.650   7.108  0.1296 -0.4243 -0.6953
 6483SOL     OW31507   1.261   8.214   4.882  0.2076 -0.1343  0.1826
 6483SOL    HW131508   1.267   8.252   4.974  0.9278 -0.5164  0.2977
 6483SOL    HW231509   1.210   8.128   4.885  1.1675 -0.7049  0.4077
 6484SOL     OW31510   4.433   9.851   6.883  0.8846 -0.0210 -0.3788
 6484SOL    HW131511   4.494   9.889   6.953 -0.5282  0.6142  0.5304
 6484SOL    HW231512   4.346   9.827   6.925 -0.1733  0.8610 -2.0326
 6485SOL     OW31513   0.719   0.693   7.744  0.6600  0.3499  0.1404
 6485SOL    HW131514   0.664   0.775   7.764 -1.0555 -0.8289  0.3533
 6485SOL    HW231515   0.814   0.720   7.730 -0.2177  2.6375 -1.7757
 6486SOL     OW31516   4.078   0.758   3.360  0.1083  0.3955  0.2068
 6486SOL    HW131517   4.091   0.790   3.266  0.0317  0.5185  0.2374
 6486SOL    HW231518   4.162   0.769   3.411  1.1548 -2.7098 -0.7316
 6487SOL     OW31519   4.762   1.979   0.434 -0.0178 -0.6523 -0.0726
 6487SOL    HW131520   4.712   1.927   0.504 -0.5574 -0.0434 -0.0041
 6487SOL    HW231521   4.749   2.076   0.449  0.4950 -0.5030 -0.5713
 6488SOL     OW31522   9.290   6.731   6.333  0.3791 -0.2895  0.1491
 6488SOL    HW131523   9.272   6.817   6.284  1.5156  0.9266  1.8160
 6488SOL    HW231524   9.221   6.663   6.306 -1.2396  1.4823 -0.3445
 6489SOL     OW31525   3.206   0.398   5.778 -0.2001  0.0454  0.6495
 6489SOL    HW131526   3.116   0.362   5.755 -0.2599 -0.1970  1.2595
 6489SOL    HW231527   3.272   0.371   5.708 -0.1464 -1.6426  1.3211
 6490SOL     OW31528   3.650   9.180   2.682 -0.0788 -0.0136  0.4861
 6490SOL    HW131529   3.593   9.262   2.677  2.8933  2.0993 -0.7702
 6490SOL    HW231530   3.673   9.161   2.778  1.0412  1.9918  0.6381
 6491SOL     OW31531   3.000   9.894   7.828  0.1598 -0.5226 -0.3465
 6491SOL    HW131532   2.988   9.797   7.849 -0.5197 -0.6485 -1.3118
 6491SOL    HW231533   2.961   9.949   7.902 -0.0090 -0.9859 -0.0909
 6492SOL     OW31534   1.509   3.070   5.143 -0.4924  0.0815 -0.4777
 6492SOL    HW131535   1.441   3.008   5.180 -0.7978 -0.0100 -1.1879
 6492SOL    HW231536   1.501   3.073   5.043 -0.5014  1.2843 -0.4443
 6493SOL     OW31537   4.944   3.203   8.010  0.0042  0.3445 -0.2510
 6493SOL    HW131538   4.889   3.124   7.981  2.4548 -1.6475  0.3169
 6493SOL    HW231539   4.957   3.265   7.933 -1.5066 -0.0524 -0.8527
 6494SOL     OW31540   1.607   7.972   8.635  0.3144 -0.0584 -0.2271
 6494SOL    HW131541   1.593   7.879   8.669  0.4083 -0.0313 -0.1155
 6494SOL    HW231542   1.521   8.006   8.595  0.3629 -0.3040 -0.5421
 6495SOL     OW31543   7.740   3.094   6.203  0.1752  0.4397 -0.4771
 6495SOL    HW131544   7.728   3.153   6.124 -0.0878 -0.0675 -0.8236
 6495SOL    HW231545   7.705   3.002   6.181  1.4879 -0.1146 -0.3035
 6496SOL     OW31546   6.792   2.054   4.831  0.1209  0.0412 -0.0625
 6496SOL    HW131547   6.834   2.092   4.913  0.0172 -1.1086  0.5379
 6496SOL    HW231548   6.702   2.095   4.818  0.0671  0.1078  0.5018
 6497SOL     OW31549   7.973   4.602   4.669  0.7433 -0.2157  0.3621
 6497SOL    HW131550   7.974   4.503   4.688 -0.6992 -0.5806 -1.3434
 6497SOL    HW231551   7.892   4.624   4.614  2.0369  1.6162 -0.8412
 6498SOL     OW31552   9.837   9.810   7.723 -0.2537  0.2365 -0.1534
 6498SOL    HW131553   9.900   9.732   7.720  1.0856  1.2007  1.3652
 6498SOL    HW231554   9.804   9.831   7.631  2.9373  0.6819 -1.2713
 6499SOL     OW31555   5.939   9.267   7.032  0.3389 -0.2868  0.4257
 6499SOL    HW131556   5.921   9.365   7.038  0.4296 -0.3015  1.0075
 6499SOL    HW231557   6.037   9.250   7.047  0.3931 -0.4274 -0.0922
 6500SOL     OW31558   0.511   0.949   5.832 -0.3145 -0.1256 -0.4454
 6500SOL    HW131559   0.473   1.039   5.812  0.9517  0.2394 -1.2976
 6500SOL    HW231560   0.607   0.958   5.858 -0.7193 -1.0488  1.4434
 6501SOL     OW31561   1.367   7.871   8.231  0.7969  0.3621  0.2833
 6501SOL    HW131562   1.422   7.788   8.217 -0.8160 -0.4041 -1.6132
 6501SOL    HW231563   1.371   7.928   8.149 -2.4071 -0.4061 -0.4469
 6502SOL     OW31564   0.038   0.589   8.911 -0.2531 -0.2392 -0.1035
 6502SOL    HW131565   0.082   0.510   8.869  0.2740 -0.0631  0.0972
 6502SOL    HW231566   0.048   0.668   8.851  0.2127 -0.0642  0.2028
 6503SOL     OW31567   2.477   9.588   4.406  0.5898 -0.8350  0.6804
 6503SOL    HW131568   2.558   9.603   4.462  0.5598  0.8454  0.3057
 6503SOL    HW231569   2.505   9.574   4.311  0.3654  1.5621  0.2357
 6504SOL     OW31570   5.220   8.128   9.584  0.2840  0.1276 -0.4727
 6504SOL    HW131571   5.160   8.065   9.634 -0.3647 -1.1834 -2.8720
 6504SOL    HW231572   5.293   8.076   9.540  1.1458  1.3452 -0.4959
 6505SOL     OW31573   2.374   7.959   4.140  0.1471  0.3354  0.3856
 6505SOL    HW131574   2.371   7.859   4.131  2.5325  0.1499  1.2605
 6505SOL    HW231575   2.406   8.000   4.055 -0.3001  0.3127  0.2070
 6506SOL     OW31576   2.907   2.613   7.154  0.2546 -0.1283 -0.0505
 6506SOL    HW131577   2.933   2.661   7.238  0.7068 -2.1219  0.9808
 6506SOL    HW231578   2.988   2.571   7.114 -0.2356 -0.5192 -0.6369
 6507SOL     OW31579   0.826   8.625   5.285  0.5326  0.3148 -0.0810
 6507SOL    HW131580   0.814   8.526   5.278  0.6176  0.1753  1.5698
 6507SOL    HW231581   0.891   8.645   5.358 -1.0693  1.6571  1.0144
 6508SOL     OW31582   6.831   2.566   5.340 -0.3180  0.3494 -0.2044
 6508SOL    HW131583   6.779   2.651   5.350  2.0615  2.1833 -2.5964
 6508SOL    HW231584   6.886   2.551   5.422  0.4373  2.0240 -0.3711
 6509SOL     OW31585   5.055   4.785   8.377  0.0081 -0.6652  0.3156
 6509SOL    HW131586   5.040   4.874   8.334  2.7980  0.7190  2.0284
 6509SOL    HW231587   5.125   4.735   8.326  0.4158 -0.7018  0.9031
 6510SOL     OW31588   2.918   3.232   6.942  0.3908  0.4789  0.4437
 6510SOL    HW131589   2.937   3.317   6.892 -2.2205  1.6136  1.3176
 6510SOL    HW231590   2.829   3.239   6.987  0.0302 -2.8165  0.3531
 6511SOL     OW31591   0.827   1.836   5.443 -0.1945  0.3836 -0.2903
 6511SOL    HW131592   0.839   1.932   5.415  2.0363  0.4252  0.6371
 6511SOL    HW231593   0.761   1.791   5.383 -0.3238  2.1675 -1.5300
 6512SOL     OW31594   3.007   1.728   8.418 -0.5568  0.2304  0.6843
 6512SOL    HW131595   3.045   1.806   8.468  0.2781  0.7348 -0.7182
 6512SOL    HW231596   2.908   1.737   8.411 -0.4759  1.1059  0.6405
 6513SOL     OW31597   0.084   9.798   5.495  1.0100 -0.4315  0.5010
 6513SOL    HW131598   0.040   9.796   5.406  2.4227 -2.0793 -0.1890
 6513SOL    HW231599   0.107   9.893   5.519  2.9908 -0.2188 -2.0786
 6514SOL     OW31600   0.079   4.467   3.947  0.6231 -0.2153 -0.2222
 6514SOL    HW131601   0.171   4.446   3.912  0.3303 -0.8925 -0.5976
 6514SOL    HW231602   0.042   4.545   3.897  2.4138  2.4313  2.3528
 6515SOL     OW31603   5.929   6.053   5.217  0.0552  0.4999 -0.4903
 6515SOL    HW131604   5.918   6.039   5.118  2.7870 -1.1786 -0.6083
 6515SOL    HW231605   5.895   5.973   5.266  0.6627  0.4184 -0.1972
 6516SOL     OW31606   8.632   2.009   3.406  0.2118  0.2334 -0.8344
 6516SOL    HW131607   8.619   2.024   3.308  0.2663  0.6672 -0.7762
 6516SOL    HW231608   8.728   1.986   3.423 -0.1094 -1.4012 -1.0685
 6517SOL     OW31609   6.767   8.017   4.053 -0.2132 -0.4038 -0.5105
 6517SOL    HW131610   6.863   8.011   4.082 -0.1846  0.4367 -0.4175
 6517SOL    HW231611   6.712   7.954   4.109 -0.1550  1.1898  1.4031
 6518SOL     OW31612   0.571   6.131   7.091 -0.2581  0.1482 -0.1929
 6518SOL    HW131613   0.575   6.031   7.084  1.6057  0.2352 -0.5856
 6518SOL    HW231614   0.553   6.170   7.001 -1.6446  0.1559  0.0729
 6519SOL     OW31615   6.279   7.977   8.174 -0.1721  0.5176  0.2659
 6519SOL    HW131616   6.345   7.999   8.246  0.7123 -0.7225 -0.1606
 6519SOL    HW231617   6.261   8.059   8.119  1.1121  0.8250  0.2969
 6520SOL     OW31618   0.712   3.908   6.771  0.0028 -0.5762 -0.0193
 6520SOL    HW131619   0.710   4.007   6.753  0.5104 -0.5249  0.2029
 6520SOL    HW231620   0.794   3.868   6.731  0.7504 -0.5911  1.4692
 6521SOL     OW31621   1.569   2.277   5.894  0.3110 -0.0706  0.1011
 6521SOL    HW131622   1.494   2.213   5.913 -0.3573  0.5440 -0.4318
 6521SOL    HW231623   1.624   2.289   5.977  0.3267 -1.1797  0.2600
 6522SOL     OW31624   3.410   2.400   9.094 -0.6675 -0.4455  0.5183
 6522SOL    HW131625   3.407   2.308   9.132 -1.4068 -0.1637  1.1700
 6522SOL    HW231626   3.322   2.421   9.050  0.1515 -0.7371 -1.2770
 6523SOL     OW31627   9.557   9.796   4.659 -0.0635 -0.2941 -0.0728
 6523SOL    HW131628   9.481   9.752   4.707  0.0727  0.3053  0.6996
 6523SOL    HW231629   9.579   9.883   4.702 -0.6855  0.8181 -1.9193
 6524SOL     OW31630   9.777   4.668   8.652  0.1652  0.1022 -0.0331
 6524SOL    HW131631   9.817   4.722   8.579  2.8634  1.4938  2.3743
 6524SOL    HW231632   9.704   4.720   8.697  1.1571  0.8090  0.7636
 6525SOL     OW31633   9.732   9.152   5.106 -0.5730 -0.2454 -0.3593
 6525SOL    HW131634   9.823   9.149   5.147  0.0462  1.0608 -1.6079
 6525SOL    HW231635   9.667   9.188   5.173  0.1817  0.6149 -0.0843
 6526SOL     OW31636   8.057   9.848   5.902 -0.3706 -0.1694  0.4456
 6526SOL    HW131637   8.136   9.896   5.939 -1.1512  1.0455  0.5659
 6526SOL    HW231638   8.071   9.832   5.804  0.4095 -0.7635  0.6486
 6527SOL     OW31639   4.604   9.740   6.703 -0.2372 -0.2775 -0.0170
 6527SOL    HW131640   4.552   9.789   6.773 -1.7947 -1.1597 -0.5200
 6527SOL    HW231641   4.611   9.644   6.728 -3.2298 -1.1909 -2.3531
 6528SOL     OW31642   9.844   3.137   1.086 -0.4860 -0.4453  0.5074
 6528SOL    HW131643   9.937   3.167   1.062 -0.4679 -1.6883 -1.0144
 6528SOL    HW231644   9.841   3.038   1.093 -1.9664 -0.5012 -0.6129
 6529SOL     OW31645   0.281   1.122   2.834 -0.3363 -0.1625  0.1014
 6529SOL    HW131646   0.349   1.056   2.866  1.2785  1.0872 -0.6769
 6529SOL    HW231647   0.327   1.194   2.782 -2.0358  1.6885  1.1236
 6530SOL     OW31648   0.301   9.566   5.726 -0.1408  0.5692 -0.5868
 6530SOL    HW131649   0.228   9.575   5.658 -0.2790 -1.5888 -0.7787
 6530SOL    HW231650   0.326   9.469   5.734  0.9202  0.9951  1.3550
 6531SOL     OW31651   4.352   5.630   5.885 -0.1373  0.4918  0.0056
 6531SOL    HW131652   4.399   5.716   5.863  0.6304 -0.1651 -0.9321
 6531SOL    HW231653   4.353   5.570   5.805 -3.3326  0.8118 -0.3405
 6532SOL     OW31654   2.829   5.249   9.473  0.2157 -0.1844  0.7142
 6532SOL    HW131655   2.783   5.212   9.393  0.3893 -0.5657  0.7924
 6532SOL    HW231656   2.927   5.259   9.454  0.0676  0.8654  0.4624
 6533SOL     OW31657   3.034   1.588   6.231 -0.0247  0.0406 -0.3495
 6533SOL    HW131658   3.012   1.512   6.293  0.2394  0.2349 -0.0224
 6533SOL    HW231659   3.098   1.650   6.275 -0.8564  0.8885 -0.3056
 6534SOL     OW31660   2.848   4.146   5.341 -0.1320 -0.1453 -0.3520
 6534SOL    HW131661   2.854   4.174   5.246 -0.1889  2.3150  0.3507
 6534SOL    HW231662   2.850   4.226   5.400  0.1199 -1.6524  1.7425
 6535SOL     OW31663   6.166   5.294   5.201  0.1024 -0.6632 -0.3647
 6535SOL    HW131664   6.162   5.209   5.148 -1.6524  1.1871 -3.3791
 6535SOL    HW231665   6.237   5.354   5.163 -0.8945  0.5332 -0.3858
 6536SOL     OW31666   3.681   2.917   7.645  0.5777  1.1579 -0.5656
 6536SOL    HW131667   3.676   2.944   7.742 -1.4483  2.4478 -1.0092
 6536SOL    HW231668   3.661   2.819   7.638 -1.3762  1.4830  0.1325
 6537SOL     OW31669   1.947   2.322   6.039 -0.1212 -0.7423 -0.3303
 6537SOL    HW131670   1.987   2.231   6.046  0.4709 -0.4912 -0.4259
 6537SOL    HW231671   1.948   2.351   5.943  1.2244  0.0503 -0.0822
 6538SOL     OW31672   9.914   8.988   6.264  0.4897 -0.2068 -0.1841
 6538SOL    HW131673   9.842   8.992   6.194  1.2205 -2.2085 -1.0857
 6538SOL    HW231674   9.895   9.057   6.335 -0.4761  1.5953 -2.1236
 6539SOL     OW31675   2.778   3.830   3.851  0.6457 -0.3303  0.2047
 6539SOL    HW131676   2.818   3.821   3.942  2.2308  0.5976 -0.3865
 6539SOL    HW231677   2.809   3.754   3.793  1.7537  0.5199 -0.3249
 6540SOL     OW31678   7.921   8.511   7.810 -0.2819  0.0421  0.4977
 6540SOL    HW131679   7.880   8.603   7.808 -0.2966  0.0890  2.1314
 6540SOL    HW231680   7.848   8.443   7.802 -0.6051  0.1441  2.3092
 6541SOL     OW31681   2.654   7.727   6.173 -0.1858 -0.1398  0.2638
 6541SOL    HW131682   2.676   7.825   6.169  1.0131 -0.4003  0.2443
 6541SOL    HW231683   2.736   7.674   6.151 -1.1550 -1.1366 -1.0088
 6542SOL     OW31684   0.512   9.118   0.090 -0.5186 -0.3087 -0.8379
 6542SOL    HW131685   0.456   9.190   0.132  1.4759  1.2792 -0.8212
 6542SOL    HW231686   0.549   9.058   0.160  1.5291  1.4082 -0.3810
 6543SOL     OW31687   4.187   2.688   4.537 -0.2996  0.4408 -0.5148
 6543SOL    HW131688   4.092   2.663   4.516 -0.3927  0.8169 -0.5444
 6543SOL    HW231689   4.188   2.776   4.585 -0.0081  0.1495  0.0148
 6544SOL     OW31690   3.208   6.379   7.737  0.3731  0.1848  0.1385
 6544SOL    HW131691   3.215   6.439   7.817 -0.8845 -0.4854  0.7660
 6544SOL    HW231692   3.291   6.322   7.732  0.5610  0.3890  0.8344
 6545SOL     OW31693   0.550   4.534   2.687  0.2950 -0.0507 -0.5604
 6545SOL    HW131694   0.473   4.496   2.636 -0.3663  0.0357  0.3578
 6545SOL    HW231695   0.559   4.631   2.666  0.3117 -0.1165 -0.8620
 6546SOL     OW31696   3.258   2.767   4.518 -0.0714 -0.5398  0.0665
 6546SOL    HW131697   3.297   2.835   4.579 -0.5413 -1.5695  1.5411
 6546SOL    HW231698   3.328   2.701   4.492 -0.2487 -1.0295  0.8116
 6547SOL     OW31699   8.649   3.860   0.910  0.2406 -0.3918 -0.2105
 6547SOL    HW131700   8.689   3.866   0.818 -0.9269  1.9692 -0.5959
 6547SOL    HW231701   8.554   3.829   0.903  0.3314 -0.7621  0.2342
 6548SOL     OW31702   3.661   8.276   3.079 -0.2389 -0.2469  0.8408
 6548SOL    HW131703   3.617   8.198   3.035 -0.1347  0.6665 -0.9175
 6548SOL    HW231704   3.760   8.267   3.072 -0.2081 -0.3909  1.4184
 6549SOL     OW31705   2.321   0.458   7.254 -0.4153  0.1882 -0.4833
 6549SOL    HW131706   2.226   0.483   7.237 -0.6594 -0.0509  0.4555
 6549SOL    HW231707   2.325   0.397   7.334  0.3051 -1.5492 -1.8152
 6550SOL     OW31708   4.799   7.666   4.073  0.6579 -0.6682  0.1198
 6550SOL    HW131709   4.874   7.728   4.096  0.1863 -0.4807  1.1767
 6550SOL    HW231710   4.771   7.681   3.978  1.7591 -0.5364 -0.1853
 6551SOL     OW31711   5.688   8.207   8.691  0.4020 -0.0427 -0.1992
 6551SOL    HW131712   5.652   8.229   8.600  0.5374 -0.5766 -0.3826
 6551SOL    HW231713   5.637   8.129   8.729  0.5476 -0.0153  0.0530
 6552SOL     OW31714   2.372   0.562   8.507 -0.0597  0.5374 -0.0331
 6552SOL    HW131715   2.456   0.584   8.556 -0.4239 -1.4192  1.5539
 6552SOL    HW231716   2.296   0.555   8.572 -0.6020 -1.8438 -0.8615
 6553SOL     OW31717   2.644   5.217   6.443  0.7157 -0.3355  0.1515
 6553SOL    HW131718   2.553   5.255   6.428 -0.7990 -2.2353  3.7973
 6553SOL    HW231719   2.696   5.277   6.504  1.6210  0.3231 -1.2506
 6554SOL     OW31720   2.989   7.348   8.170 -0.0544  0.0050 -0.6284
 6554SOL    HW131721   2.940   7.408   8.106  0.5673  1.5865  0.3580
 6554SOL    HW231722   2.982   7.253   8.138 -2.1109  0.4301 -1.5472
 6555SOL     OW31723   0.305   8.135   7.449  0.7797  0.3952 -0.5951
 6555SOL    HW131724   0.232   8.131   7.381  2.0344 -0.5700 -1.9221
 6555SOL    HW231725   0.326   8.043   7.481  2.6977  0.4431 -1.6452
 6556SOL     OW31726   4.868   1.566   6.881  0.2288  0.1262 -0.2475
 6556SOL    HW131727   4.769   1.566   6.874  0.2626 -0.5466 -0.7506
 6556SOL    HW231728   4.906   1.640   6.826  0.0316  0.1012 -0.4146
 6557SOL     OW31729   5.036   4.068   9.720 -0.4557 -0.2560  0.0246
 6557SOL    HW131730   5.073   4.090   9.810 -1.2484  0.2869  0.2259
 6557SOL    HW231731   4.997   3.976   9.721 -0.0741 -0.4144  0.1197
 6558SOL     OW31732   0.756   8.890   8.400 -0.2086  0.1021 -0.5254
 6558SOL    HW131733   0.839   8.854   8.441 -0.8991 -0.7311  0.1722
 6558SOL    HW231734   0.764   8.989   8.390  0.5158  0.1448  0.3687
 6559SOL     OW31735   0.581   3.805   9.608 -0.1142  0.6346  0.2809
 6559SOL    HW131736   0.679   3.798   9.624  0.2020  0.3991 -1.5764
 6559SOL    HW231737   0.550   3.898   9.625  0.6650  0.9935 -0.2306
 6560SOL     OW31738   3.400   4.696   5.501  0.2179 -0.5114  0.2094
 6560SOL    HW131739   3.442   4.740   5.580  0.5049 -0.4770  0.0411
 6560SOL    HW231740   3.358   4.765   5.443  0.0769 -0.5277  0.2935
 6561SOL     OW31741   1.443   9.923   7.021 -0.5722 -0.0603  0.2595
 6561SOL    HW131742   1.523   9.931   7.080 -0.9177 -0.9403  0.8683
 6561SOL    HW231743   1.380   9.998   7.039  0.3238  0.8928 -0.5533
 6562SOL     OW31744   7.462   5.867   0.663  0.0889  0.3962  0.0682
 6562SOL    HW131745   7.552   5.839   0.697  0.4005  0.5902 -0.5875
 6562SOL    HW231746   7.391   5.812   0.708  0.4923  0.5920  0.9719
 6563SOL     OW31747   2.919   5.272   6.983 -0.1466 -0.7026 -0.7911
 6563SOL    HW131748   2.967   5.243   7.066  0.8436  0.2397 -1.0214
 6563SOL    HW231749   2.984   5.318   6.922 -1.8139  2.6969 -0.1189
 6564SOL     OW31750   1.756   5.734   6.883  0.5070 -0.1202 -0.1596
 6564SOL    HW131751   1.708   5.725   6.970  2.2315 -1.6543  0.6692
 6564SOL    HW231752   1.690   5.726   6.808 -0.8579  0.2595  0.9738
 6565SOL     OW31753   1.348   2.867   7.828  0.3248 -0.1714 -0.4742
 6565SOL    HW131754   1.375   2.828   7.740  0.9537  0.7741 -0.7049
 6565SOL    HW231755   1.365   2.966   7.827  0.9657 -0.2581  0.9324
 6566SOL     OW31756   3.860   3.178   0.355 -0.0148  0.1229 -0.5738
 6566SOL    HW131757   3.949   3.211   0.322  0.5680  0.4654  1.3195
 6566SOL    HW231758   3.812   3.252   0.401 -0.0397 -0.8334  0.9690
 6567SOL     OW31759   8.433   4.617   4.264  0.2191 -0.1351  0.2649
 6567SOL    HW131760   8.410   4.547   4.196 -1.4582 -0.6656  1.3541
 6567SOL    HW231761   8.357   4.629   4.327  1.3238  1.1613  1.3936
 6568SOL     OW31762   3.078   7.369   5.070  0.2456 -0.1698  0.5464
 6568SOL    HW131763   2.993   7.321   5.051 -0.5250  0.6858  1.7538
 6568SOL    HW231764   3.058   7.463   5.098  1.5410 -0.1256  1.4125
 6569SOL     OW31765   5.080   1.271   0.728 -0.0802 -0.2077  0.4480
 6569SOL    HW131766   5.176   1.282   0.703 -0.2348  1.0140  0.3626
 6569SOL    HW231767   5.022   1.311   0.658 -0.5909  0.9011  1.4933
 6570SOL     OW31768   3.911   3.191   5.055 -0.5263  0.0530 -0.1995
 6570SOL    HW131769   3.842   3.203   5.127 -0.0527  2.3235 -0.1035
 6570SOL    HW231770   3.958   3.278   5.039  0.6052 -0.8769 -2.0142
 6571SOL     OW31771   9.676   5.258   3.349  0.3345  0.2986 -0.2514
 6571SOL    HW131772   9.743   5.205   3.298 -0.5951  0.7601 -1.9724
 6571SOL    HW231773   9.620   5.196   3.405  1.0990 -0.2418 -0.0732
 6572SOL     OW31774   3.245   9.734   2.725  0.4750  0.0729  0.0533
 6572SOL    HW131775   3.208   9.821   2.756 -0.9411  0.3201 -2.1843
 6572SOL    HW231776   3.174   9.683   2.677  2.4145 -0.4080 -2.4569
 6573SOL     OW31777   5.448   8.839   7.206 -0.8487  0.0519 -0.2035
 6573SOL    HW131778   5.406   8.909   7.264 -1.8790  0.7553 -1.7541
 6573SOL    HW231779   5.404   8.839   7.116  1.0745 -0.6338 -1.1897
 6574SOL     OW31780   2.674   3.989   7.789 -0.2540  0.0354  0.3927
 6574SOL    HW131781   2.676   4.081   7.829  0.6201  0.1903  0.0013
 6574SOL    HW231782   2.686   3.921   7.861 -0.8533  0.2259  0.6775
 6575SOL     OW31783   9.628   1.732   1.245 -0.3578  0.1454  0.2250
 6575SOL    HW131784   9.699   1.778   1.298  0.2944 -0.5303 -0.0542
 6575SOL    HW231785   9.539   1.744   1.291  0.0736  0.2192  1.0576
 6576SOL     OW31786   6.459   0.986   9.281 -0.6354  0.1247  0.0782
 6576SOL    HW131787   6.420   0.931   9.208 -0.9273  1.6951 -0.9745
 6576SOL    HW231788   6.541   0.941   9.317 -0.8889 -1.0008 -0.7302
 6577SOL     OW31789   2.376   6.461   4.265  0.1157 -0.0844 -0.2169
 6577SOL    HW131790   2.362   6.448   4.363  0.0855 -0.2264 -0.2398
 6577SOL    HW231791   2.289   6.484   4.222 -0.0060 -0.7381 -0.3256
 6578SOL     OW31792   1.967   5.381   0.053  0.0954 -0.4801  0.3512
 6578SOL    HW131793   1.897   5.428  -0.000  0.4832 -0.4167 -0.1084
 6578SOL    HW231794   1.945   5.387   0.150 -0.8302 -0.9501  0.1735
 6579SOL     OW31795   3.034   2.041   3.244 -0.1915 -0.2514 -0.0156
 6579SOL    HW131796   2.935   2.030   3.254  0.0210 -4.6326 -1.3809
 6579SOL    HW231797   3.055   2.070   3.151 -0.1775 -0.3609 -0.0476
 6580SOL     OW31798   1.230   0.175   8.358 -0.5854  0.4502 -0.0216
 6580SOL    HW131799   1.212   0.270   8.332  0.8614  1.0453  1.1076
 6580SOL    HW231800   1.222   0.166   8.457 -0.6186 -0.5911 -0.1207
 6581SOL     OW31801   3.515   0.335   8.088 -0.4325 -0.2253  0.0078
 6581SOL    HW131802   3.521   0.240   8.056 -0.1000  0.3421 -1.6802
 6581SOL    HW231803   3.507   0.396   8.009 -2.5191  1.0303  1.1527
 6582SOL     OW31804   9.527   9.253   1.935  0.2689  0.1302 -0.1228
 6582SOL    HW131805   9.512   9.179   2.000  2.3337 -0.9723 -0.8531
 6582SOL    HW231806   9.454   9.254   1.867  0.8388 -1.9819 -0.7855
 6583SOL     OW31807   0.468   8.947   6.774 -0.4481  0.1699 -0.1093
 6583SOL    HW131808   0.386   8.934   6.830  0.6319 -0.0228  1.4544
 6583SOL    HW231809   0.443   8.995   6.690 -2.5443 -1.8015 -0.6839
 6584SOL     OW31810   0.419   2.982   5.907 -0.2257 -0.0263  0.6092
 6584SOL    HW131811   0.336   2.966   5.852  0.1409 -0.8284  0.2892
 6584SOL    HW231812   0.474   2.899   5.910  1.8343  1.2069 -1.2755
 6585SOL     OW31813   4.411   1.062   6.029 -0.6354 -0.3154  0.2370
 6585SOL    HW131814   4.475   0.994   6.062  0.6934  1.0526  0.5401
 6585SOL    HW231815   4.341   1.018   5.973  1.6125 -1.6217 -1.6284
 6586SOL     OW31816   2.208   1.065   9.294  0.6179 -0.2198 -0.1326
 6586SOL    HW131817   2.184   1.114   9.210  1.0325 -1.2866 -0.8844
 6586SOL    HW231818   2.164   0.975   9.294 -0.5090  0.3079  1.4475
 6587SOL     OW31819   2.376   0.037   3.533  0.3024  0.0685  0.1649
 6587SOL    HW131820   2.379   0.015   3.631  0.3979 -1.2677 -0.1418
 6587SOL    HW231821   2.311   0.112   3.519  0.0086  0.0273  1.2035
 6588SOL     OW31822   9.951   1.014   0.052 -0.1686 -0.3320 -0.0501
 6588SOL    HW131823  10.040   1.058   0.048 -0.3477  0.2302  1.6875
 6588SOL    HW231824   9.953   0.940   0.120 -0.8684 -0.6585 -0.3783
 6589SOL     OW31825   5.459   0.397   0.578 -0.3036 -0.5912  0.4090
 6589SOL    HW131826   5.500   0.432   0.662  2.6767 -0.1148 -1.1774
 6589SOL    HW231827   5.444   0.298   0.587  2.6472 -1.0691  0.5185
 6590SOL     OW31828   1.307   8.437   6.526 -0.0758  0.2713 -0.1536
 6590SOL    HW131829   1.390   8.491   6.544  0.8415 -0.9622 -0.5842
 6590SOL    HW231830   1.233   8.498   6.499 -0.1050  1.6967  2.9004
 6591SOL     OW31831   6.026   4.529   5.837 -0.3568  0.2354 -0.0101
 6591SOL    HW131832   5.970   4.489   5.910 -1.6039  0.7643 -0.6479
 6591SOL    HW231833   6.043   4.626   5.857 -0.4587  0.3090 -0.2780
 6592SOL     OW31834   1.412   2.444   8.043 -0.1432 -0.7582  0.1312
 6592SOL    HW131835   1.487   2.426   7.980  0.4086  1.8644 -0.0057
 6592SOL    HW231836   1.326   2.413   8.001  0.5268 -1.4409 -0.7751
 6593SOL     OW31837   6.398   0.258   6.597  0.1475  0.6879  0.7099
 6593SOL    HW131838   6.418   0.162   6.577 -1.2568  0.5325 -0.0846
 6593SOL    HW231839   6.468   0.296   6.658  2.2634 -0.0296 -1.2216
 6594SOL     OW31840   5.034   0.677   7.778  0.1621  0.5221  0.1440
 6594SOL    HW131841   5.057   0.600   7.837 -0.5003  0.1622 -0.0666
 6594SOL    HW231842   4.994   0.643   7.693  0.3580  1.0764 -0.1742
 6595SOL     OW31843   6.540   3.382   0.528 -0.0782 -0.4679  0.3489
 6595SOL    HW131844   6.443   3.361   0.545 -0.6021  0.0894 -1.7975
 6595SOL    HW231845   6.570   3.451   0.593 -1.3695 -0.0414  0.5144
 6596SOL     OW31846   2.711   8.989   4.395 -0.3387  0.5521  0.0754
 6596SOL    HW131847   2.759   9.021   4.476 -1.5785 -1.0151  1.4617
 6596SOL    HW231848   2.652   9.062   4.360 -0.6768  0.8642  1.2746
 6597SOL     OW31849   0.993   0.099   5.319 -0.0090  0.0118  0.0713
 6597SOL    HW131850   1.068   0.135   5.374 -0.1690 -0.1910  0.4287
 6597SOL    HW231851   0.914   0.079   5.379 -0.3309  0.1907 -0.2933
 6598SOL     OW31852   6.797   9.527   8.341  0.9004 -0.2693  0.7650
 6598SOL    HW131853   6.705   9.487   8.329  0.3883  0.4402  2.2182
 6598SOL    HW231854   6.817   9.536   8.438  3.3726 -2.3121  0.5041
 6599SOL     OW31855   3.942   8.205   9.322 -0.0932 -0.2166  0.7995
 6599SOL    HW131856   3.948   8.296   9.281  0.8451 -0.6208 -0.0077
 6599SOL    HW231857   3.974   8.209   9.417  0.0164  0.2839  0.7451
 6600SOL     OW31858   1.674   4.980   7.737  0.0189  0.1833  0.3400
 6600SOL    HW131859   1.729   4.974   7.820 -0.2774 -0.0023  0.5235
 6600SOL    HW231860   1.719   5.040   7.672  0.1129  0.5534  0.7438
 6601SOL     OW31861   0.409   0.596   7.587 -0.4764  0.1069 -0.6559
 6601SOL    HW131862   0.314   0.565   7.588 -0.8736  1.2913 -0.8596
 6601SOL    HW231863   0.425   0.658   7.664 -0.1773  0.8074 -1.2764
 6602SOL     OW31864   3.486   9.378   2.607  0.0656 -0.2493 -0.5221
 6602SOL    HW131865   3.480   9.345   2.513 -1.0352 -1.1026 -0.1625
 6602SOL    HW231866   3.394   9.382   2.647  0.6170 -0.8151  0.8317
 6603SOL     OW31867   9.503   2.884   0.587 -0.7579 -0.5252 -0.1969
 6603SOL    HW131868   9.457   2.820   0.525 -1.2345  0.4411 -0.8548
 6603SOL    HW231869   9.498   2.849   0.680 -0.8548 -1.5365 -0.5699
 6604SOL     OW31870   1.317   9.958   9.009 -0.4200  0.2042  0.8984
 6604SOL    HW131871   1.262   9.890   9.057  1.1665 -0.6909  1.5175
 6604SOL    HW231872   1.309   9.944   8.911  0.1413 -1.1174  1.0230
 6605SOL     OW31873   3.482   2.851   8.229  0.2332 -0.8581  0.0709
 6605SOL    HW131874   3.475   2.917   8.305 -0.4051 -1.7736  0.8244
 6605SOL    HW231875   3.470   2.899   8.142  1.7903  0.3473  0.4860
 6606SOL     OW31876   2.778   1.448   9.745  0.4882 -0.1507 -0.4261
 6606SOL    HW131877   2.841   1.379   9.709  0.0910  0.6445 -2.7013
 6606SOL    HW231878   2.694   1.404   9.776  1.1956 -0.9463  0.3789
 6607SOL     OW31879   9.284   9.658   7.035  0.2523 -0.7340  0.0525
 6607SOL    HW131880   9.297   9.702   7.124 -1.7364 -0.8461  0.4314
 6607SOL    HW231881   9.186   9.646   7.019  0.5837 -0.3856 -2.3220
 6608SOL     OW31882   2.835   0.326   2.350  0.5770 -0.2240 -0.2463
 6608SOL    HW131883   2.756   0.295   2.403 -0.2757  2.2248 -0.0220
 6608SOL    HW231884   2.885   0.247   2.316 -2.6469 -1.8691 -1.4191
 6609SOL     OW31885   9.802   7.242   0.470  0.0322  0.9376  0.0725
 6609SOL    HW131886   9.717   7.191   0.480  0.0728  1.0506  1.0781
 6609SOL    HW231887   9.782   7.338   0.455 -0.0232  0.9202  0.0390
 6610SOL     OW31888   2.562   1.055   2.394 -0.4934  0.1726 -0.0508
 6610SOL    HW131889   2.661   1.055   2.380 -0.4790 -0.6139  0.0678
 6610SOL    HW231890   2.516   1.038   2.307 -0.5200  0.3032 -0.0625
 6611SOL     OW31891   4.902   8.280   7.988  0.0266  0.2694  0.4183
 6611SOL    HW131892   4.925   8.184   8.003 -1.1239 -0.1076 -0.2027
 6611SOL    HW231893   4.809   8.288   7.951  0.6311  1.5160 -0.9300
 6612SOL     OW31894   6.395   8.277   8.075  0.2599  0.6904 -0.2970
 6612SOL    HW131895   6.478   8.319   8.039  1.2487 -0.8910  0.0882
 6612SOL    HW231896   6.399   8.274   8.175  0.2657 -0.4184 -0.3245
 6613SOL     OW31897   2.883   7.826   0.659  0.6967 -0.4739 -0.6033
 6613SOL    HW131898   2.865   7.790   0.750 -0.6433 -0.9102 -1.0266
 6613SOL    HW231899   2.820   7.785   0.593  1.2652  0.2615 -1.6360
 6614SOL     OW31900   7.311   3.535   7.614 -0.0464  0.1350 -0.1657
 6614SOL    HW131901   7.218   3.514   7.582  0.2320  0.7227 -1.3949
 6614SOL    HW231902   7.366   3.451   7.613 -0.5930 -0.2370  0.6743
 6615SOL     OW31903   3.882   8.023   8.937  0.7086 -0.3217 -0.0590
 6615SOL    HW131904   3.804   7.978   8.895  0.9276 -1.4492  0.7219
 6615SOL    HW231905   3.861   8.045   9.032  1.2682 -0.4278  0.0905
 6616SOL     OW31906   8.709   6.313   3.902  0.1499  0.1416  0.7811
 6616SOL    HW131907   8.640   6.313   3.830  0.6607  1.0159  0.2920
 6616SOL    HW231908   8.757   6.225   3.902  0.0791  0.1003  0.1205
 6617SOL     OW31909   2.726   2.272   0.608  0.3086 -0.0883 -0.1860
 6617SOL    HW131910   2.733   2.173   0.593  2.7093 -0.0007  0.1580
 6617SOL    HW231911   2.804   2.317   0.565 -0.9964  1.7169 -0.7106
 6618SOL     OW31912   1.297   3.324   1.932  0.1730 -0.1067 -0.2572
 6618SOL    HW131913   1.225   3.325   1.863 -0.8495  2.2796  0.8201
 6618SOL    HW231914   1.338   3.415   1.940  0.7763 -0.5293  1.7682
 6619SOL     OW31915   8.212   5.966   8.127  0.7573  0.2749  0.5132
 6619SOL    HW131916   8.181   6.061   8.120  0.6264  0.2964  1.4028
 6619SOL    HW231917   8.211   5.925   8.036  1.6240  1.3742 -0.0156
 6620SOL     OW31918   2.383   9.171   9.122 -0.3055 -0.4600 -0.6926
 6620SOL    HW131919   2.357   9.074   9.122 -0.5943 -0.3961 -2.3938
 6620SOL    HW231920   2.445   9.189   9.046  2.0410  0.1326  1.2947
 6621SOL     OW31921   1.135   1.110   7.959  0.2855  0.2380  0.3655
 6621SOL    HW131922   1.144   1.026   7.905 -0.4395 -0.2402  0.9764
 6621SOL    HW231923   1.207   1.174   7.933 -0.0833  0.0349 -1.1942
 6622SOL     OW31924   3.555   2.477   9.314 -0.3395 -0.8451 -0.2266
 6622SOL    HW131925   3.504   2.510   9.394 -0.1131 -0.6189 -0.1769
 6622SOL    HW231926   3.491   2.463   9.238 -0.4701 -0.5152 -0.1788
 6623SOL     OW31927   8.369   4.525   6.362 -0.0097 -0.9643 -0.4059
 6623SOL    HW131928   8.414   4.545   6.449  1.4022  0.2448 -1.3766
 6623SOL    HW231929   8.417   4.451   6.316 -0.1638 -0.9585 -0.5751
 6624SOL     OW31930   2.405   9.910   9.583  0.7291  0.0734 -0.1338
 6624SOL    HW131931   2.395   9.817   9.615 -0.8743 -0.0838 -1.0538
 6624SOL    HW231932   2.484   9.916   9.521 -0.3614 -1.1186 -1.6641
 6625SOL     OW31933   5.568   4.683   7.046 -0.3134 -0.1219 -0.4167
 6625SOL    HW131934   5.513   4.765   7.031  0.7056  0.6335 -0.0486
 6625SOL    HW231935   5.631   4.698   7.122 -1.0818 -1.7308  0.5801
 6626SOL     OW31936   0.223   4.053   9.573  0.5718  0.4670 -0.6568
 6626SOL    HW131937   0.150   4.116   9.599 -0.2102 -0.0402 -1.6002
 6626SOL    HW231938   0.301   4.067   9.634 -1.6742 -1.6059  2.8556
 6627SOL     OW31939   9.842   1.181   1.823  0.5265  0.2465 -0.1365
 6627SOL    HW131940   9.776   1.256   1.822 -1.1338 -1.0792  2.4266
 6627SOL    HW231941   9.899   1.188   1.905  2.2788  0.2946 -1.3524
 6628SOL     OW31942   5.099   0.209   3.278  0.3215  0.7321  0.1459
 6628SOL    HW131943   5.155   0.153   3.339  0.0034 -0.0440 -0.2555
 6628SOL    HW231944   5.035   0.150   3.229  0.9526  1.2566 -1.3557
 6629SOL     OW31945   0.431   2.693   8.391 -0.0507 -0.2755 -0.1745
 6629SOL    HW131946   0.377   2.771   8.359  0.9056  0.7994  0.7726
 6629SOL    HW231947   0.527   2.705   8.365  0.2205 -0.7936  0.5595
 6630SOL     OW31948   1.498   3.666   2.856 -0.1853 -0.2529  0.1353
 6630SOL    HW131949   1.496   3.766   2.861  0.6723 -0.1159 -1.7779
 6630SOL    HW231950   1.581   3.631   2.899 -0.8205 -0.1968  1.4218
 6631SOL     OW31951   3.887   8.664   8.268 -0.4003 -0.8751  0.0042
 6631SOL    HW131952   3.816   8.700   8.328 -2.4539 -3.7249 -0.6021
 6631SOL    HW231953   3.959   8.622   8.324 -0.1563  0.2625  0.5653
 6632SOL     OW31954   1.501   1.733   1.257 -0.0570 -0.1310  0.7918
 6632SOL    HW131955   1.455   1.812   1.216  0.0189  0.1886  1.3099
 6632SOL    HW231956   1.443   1.653   1.251  0.5399 -0.4407 -1.2612
 6633SOL     OW31957   2.797   3.109   2.061  0.1940 -0.0377 -0.0737
 6633SOL    HW131958   2.799   3.019   2.017  1.6833 -0.9673  1.8427
 6633SOL    HW231959   2.746   3.103   2.147 -0.5388  1.1997 -0.4040
 6634SOL     OW31960   2.574   1.555   1.533  0.2359 -0.8658 -0.2287
 6634SOL    HW131961   2.659   1.597   1.502 -0.5820 -0.7335 -2.3815
 6634SOL    HW231962   2.525   1.618   1.594  1.7240 -1.0090  1.1579
 6635SOL     OW31963   0.622   8.702   0.733  0.0145  0.2732  0.0032
 6635SOL    HW131964   0.709   8.744   0.759  0.8441 -1.3829 -0.0328
 6635SOL    HW231965   0.626   8.674   0.637 -0.8198  0.8090 -0.1965
 6636SOL     OW31966   4.033   9.296   6.969 -0.4662 -0.3926 -0.2278
 6636SOL    HW131967   4.027   9.275   7.067 -0.0228 -0.4541 -0.2094
 6636SOL    HW231968   3.951   9.344   6.940  0.5463  2.0400  0.7888
 6637SOL     OW31969   4.795   8.972   7.060  0.0900 -0.3654 -0.3291
 6637SOL    HW131970   4.824   8.916   6.983  0.5894 -0.4605 -0.0735
 6637SOL    HW231971   4.874   8.993   7.118 -0.0912  0.5850 -0.4106
 6638SOL     OW31972   2.330   2.398   7.454 -0.1634  0.8800  0.2563
 6638SOL    HW131973   2.319   2.301   7.433  0.7619  1.3472 -2.5668
 6638SOL    HW231974   2.345   2.409   7.552 -1.4516 -1.7108  0.7944
 6639SOL     OW31975   3.416   2.083   0.359  0.1202  0.2462 -0.2283
 6639SOL    HW131976   3.385   2.151   0.293 -0.0678 -0.0599 -0.4497
 6639SOL    HW231977   3.361   2.000   0.352 -0.6892  0.6410  1.1172
 6640SOL     OW31978   3.765   7.397   6.401 -0.2259 -0.5707 -0.6678
 6640SOL    HW131979   3.825   7.422   6.477 -1.4300  0.2419  0.0209
 6640SOL    HW231980   3.698   7.469   6.386 -0.3224 -0.9657 -2.1745
 6641SOL     OW31981   9.547   0.073   5.995  0.2800 -0.4842 -0.4176
 6641SOL    HW131982   9.571   0.144   6.061 -1.2270 -0.8637  0.5619
 6641SOL    HW231983   9.528   0.115   5.906  1.4328  0.1180 -0.3850
 6642SOL     OW31984   2.361   1.452   8.782 -0.0952 -0.2377 -0.0809
 6642SOL    HW131985   2.265   1.478   8.775 -0.3412 -1.2640 -0.8101
 6642SOL    HW231986   2.379   1.378   8.717  1.3702  0.4722 -0.4874
 6643SOL     OW31987   2.265   0.701   3.142  0.6581 -0.1222 -0.3376
 6643SOL    HW131988   2.245   0.656   3.055 -1.3806  1.4531 -0.7070
 6643SOL    HW231989   2.240   0.797   3.138  0.0081 -0.1322  2.1686
 6644SOL     OW31990   5.823   4.983   8.133  0.5988 -0.5931  0.0671
 6644SOL    HW131991   5.914   4.964   8.095 -0.9985 -2.9547 -2.8597
 6644SOL    HW231992   5.766   5.027   8.063 -2.0513 -3.9277 -0.0534
 6645SOL     OW31993   3.556   2.458   7.878 -0.0613  0.0201  0.6927
 6645SOL    HW131994   3.630   2.505   7.927 -0.1844 -0.3525  1.2484
 6645SOL    HW231995   3.468   2.493   7.912 -0.1390  0.4686  0.0284
 6646SOL     OW31996   3.094   2.946   0.538 -0.2156 -0.3597  0.3046
 6646SOL    HW131997   3.184   2.961   0.497 -0.4508 -1.5410 -0.6923
 6646SOL    HW231998   3.082   2.849   0.557 -0.6811 -0.0006  1.8822
 6647SOL     OW31999   3.617   2.473   0.212 -0.2319  0.5764 -0.0609
 6647SOL    HW132000   3.647   2.462   0.306 -2.2697  0.5970  0.6218
 6647SOL    HW232001   3.691   2.512   0.157  1.3715 -0.5716  1.2442
 6648SOL     OW32002   6.465   7.421   7.763  0.2672 -0.1754  0.1296
 6648SOL    HW132003   6.366   7.424   7.774  0.4640  1.5893  1.6789
 6648SOL    HW232004   6.500   7.514   7.749  1.7913 -0.6612  0.5706
 6649SOL     OW32005   0.829   0.886   4.373  0.0016 -0.1520 -0.1576
 6649SOL    HW132006   0.771   0.805   4.369  0.4541 -0.4712 -0.2725
 6649SOL    HW232007   0.882   0.893   4.288  0.2476  0.0520  0.0124
 6650SOL     OW32008   1.167   1.114   4.104  0.2169  0.4079  0.1600
 6650SOL    HW132009   1.258   1.084   4.074  0.4787  0.6701  0.6812
 6650SOL    HW232010   1.108   1.127   4.025  1.0534  1.5750 -0.2927
 6651SOL     OW32011   4.962   1.252   0.973 -0.4344  0.3154 -0.4311
 6651SOL    HW132012   4.932   1.159   0.993  1.2479 -0.1364  0.0473
 6651SOL    HW232013   5.013   1.253   0.887 -1.5424  1.0250 -1.0910
 6652SOL     OW32014   0.454   5.580   8.749  0.5176  0.2791  0.0258
 6652SOL    HW132015   0.463   5.487   8.712  0.7454  0.2038  0.2693
 6652SOL    HW232016   0.475   5.579   8.847  0.9888  0.6723 -0.0676
 6653SOL     OW32017   4.808   1.758   5.047 -0.4040 -0.6853  0.8963
 6653SOL    HW132018   4.867   1.749   5.128  1.6903 -1.2743 -0.6516
 6653SOL    HW232019   4.794   1.855   5.028  2.4753 -0.4469 -0.3549
 6654SOL     OW32020   1.300   5.944   0.614  0.9084  0.1985 -0.0792
 6654SOL    HW132021   1.217   5.957   0.669  0.8594  0.9214 -0.3080
 6654SOL    HW232022   1.276   5.896   0.530  0.7993  0.0039  0.0622
 6655SOL     OW32023   1.317   0.991   8.609  0.6769  0.1854 -0.7442
 6655SOL    HW132024   1.413   0.987   8.636  0.0591 -1.4651  1.3337
 6655SOL    HW232025   1.285   1.086   8.613  0.8899  0.1826  3.5066
 6656SOL     OW32026   5.718   5.640   7.926  0.5706 -0.5245 -0.2137
 6656SOL    HW132027   5.784   5.709   7.898 -1.1541  1.5012  0.5373
 6656SOL    HW232028   5.638   5.644   7.866 -0.1055 -0.9506  0.6373
 6657SOL     OW32029   1.851   2.389   4.701 -0.4287  0.0855 -0.1361
 6657SOL    HW132030   1.917   2.371   4.775 -0.8401  0.5134  0.3399
 6657SOL    HW232031   1.760   2.362   4.731 -0.4611 -0.5589 -0.8192
 6658SOL     OW32032   5.932   7.734   2.189  0.1935 -0.1452 -0.3855
 6658SOL    HW132033   5.898   7.683   2.268 -0.0463 -1.8573 -1.5636
 6658SOL    HW232034   6.031   7.726   2.184  0.3867  1.3015  0.6215
 6659SOL     OW32035   4.612   5.358   9.788  0.4177  0.1510 -0.0747
 6659SOL    HW132036   4.598   5.406   9.701 -1.0698 -0.7211 -0.3456
 6659SOL    HW232037   4.644   5.422   9.857  1.0479  0.9735 -1.1277
 6660SOL     OW32038   1.380   3.262   9.816  0.3638  0.4239  0.2864
 6660SOL    HW132039   1.334   3.239   9.901  1.4454  0.7040  0.9563
 6660SOL    HW232040   1.368   3.188   9.750  0.5909 -0.3569  1.1204
 6661SOL     OW32041   4.284   1.629   8.824 -0.5704 -0.0105 -0.5488
 6661SOL    HW132042   4.252   1.593   8.737  0.5527 -1.5620 -0.3443
 6661SOL    HW232043   4.221   1.601   8.897  0.7306 -2.3163 -0.2723
 6662SOL     OW32044   2.428   3.344   9.633  0.1548 -0.4600 -0.3871
 6662SOL    HW132045   2.394   3.339   9.727 -2.0089  0.7152 -1.0792
 6662SOL    HW232046   2.487   3.424   9.623 -2.3333  1.3829 -0.8288
 6663SOL     OW32047   3.443   8.707   8.493  0.0020  0.3552 -0.5486
 6663SOL    HW132048   3.364   8.701   8.432 -1.0565  0.4803  0.7719
 6663SOL    HW232049   3.521   8.746   8.444 -0.7018  0.0675 -1.9221
 6664SOL     OW32050   0.061   4.233   6.226 -0.3367 -0.2385  0.2108
 6664SOL    HW132051   0.054   4.329   6.252  0.6124  0.4610 -2.0504
 6664SOL    HW232052   0.157   4.204   6.231 -0.5743 -0.9902  0.5456
 6665SOL     OW32053   2.214   0.904   6.968 -0.2224  0.7995 -0.3430
 6665SOL    HW132054   2.193   0.815   6.928 -1.0883  0.8776 -0.0715
 6665SOL    HW232055   2.181   0.976   6.908  1.4516  0.9713 -1.1017
 6666SOL     OW32056   1.377   7.057   8.629  0.2830 -0.5572 -0.6383
 6666SOL    HW132057   1.416   7.046   8.720  0.1657  0.9954 -0.3811
 6666SOL    HW232058   1.300   6.995   8.618  0.2756 -0.7325  0.3420
 6667SOL     OW32059   7.636   8.774   6.986 -0.0156  0.6889  0.5430
 6667SOL    HW132060   7.686   8.752   7.070 -0.6216  1.7074  1.1731
 6667SOL    HW232061   7.697   8.821   6.922  0.1325  0.9592  0.8797
 6668SOL     OW32062   0.702   5.197   4.633 -0.0073 -0.6586  0.4267
 6668SOL    HW132063   0.609   5.204   4.668 -0.1087  0.2667  0.0066
 6668SOL    HW232064   0.699   5.169   4.537  0.0563  0.9761 -0.0691
 6669SOL     OW32065   4.595   1.524   6.333  0.1688  0.7044 -0.2318
 6669SOL    HW132066   4.614   1.463   6.255 -0.0962  1.0366 -0.5556
 6669SOL    HW232067   4.637   1.486   6.415 -3.2179 -1.9232  0.3609
 6670SOL     OW32068   8.137   5.980   8.599 -0.6263  0.1189 -0.1173
 6670SOL    HW132069   8.072   5.941   8.534 -0.9490  1.1718 -0.4244
 6670SOL    HW232070   8.227   5.989   8.556  0.3190 -3.2993  0.9282
 6671SOL     OW32071   4.508   0.885   3.242 -0.3763  0.6897  0.3630
 6671SOL    HW132072   4.500   0.963   3.305  0.3874  0.5508  0.6401
 6671SOL    HW232073   4.445   0.813   3.270 -0.0460  0.6317  0.9773
 6672SOL     OW32074   1.862   5.314   7.725 -0.0825  0.2392  0.0381
 6672SOL    HW132075   1.840   5.266   7.810  2.6506 -0.5133  0.3568
 6672SOL    HW232076   1.830   5.260   7.647  0.2595 -0.6273  0.4899
 6673SOL     OW32077   3.830   3.826   6.362  0.0963 -0.2106  0.1804
 6673SOL    HW132078   3.880   3.803   6.278 -2.4444  0.2155 -1.4989
 6673SOL    HW232079   3.772   3.749   6.388  1.6898 -0.7594  2.2043
 6674SOL     OW32080   0.171   0.081   9.995  0.0390  0.4157  0.1476
 6674SOL    HW132081   0.213   0.061  10.083  1.2723  2.0161 -0.0446
 6674SOL    HW232082   0.088   0.135  10.009 -0.0771  0.1864  0.3516
 6675SOL     OW32083   2.318   3.976   0.697 -0.3110  0.2155  0.1403
 6675SOL    HW132084   2.264   4.011   0.620 -2.3336  2.7747  2.6430
 6675SOL    HW232085   2.265   3.908   0.747  0.9764 -1.3839 -0.5890
 6676SOL     OW32086   9.806   6.136   7.508 -0.2937  0.4137 -0.8596
 6676SOL    HW132087   9.755   6.220   7.526 -0.8484  0.5255 -2.7986
 6676SOL    HW232088   9.903   6.157   7.498  0.1702  0.2365  2.5685
 6677SOL     OW32089   5.404   0.526   8.033  0.3026  0.4901  0.6998
 6677SOL    HW132090   5.318   0.559   8.070 -1.2122 -1.9564 -0.5632
 6677SOL    HW232091   5.477   0.541   8.099 -1.3949  1.0054  2.4864
 6678SOL     OW32092   2.969   0.722   4.494 -0.3793  0.4307 -0.1854
 6678SOL    HW132093   2.890   0.687   4.546  0.1088  0.6291  0.7059
 6678SOL    HW232094   3.042   0.653   4.495 -0.2253  0.5942 -0.2833
 6679SOL     OW32095   9.532   0.510   5.323 -0.1205  0.2741  0.0844
 6679SOL    HW132096   9.609   0.572   5.316 -0.6294  0.6341 -2.9487
 6679SOL    HW232097   9.447   0.562   5.331 -0.3347 -0.0572  0.0199
 6680SOL     OW32098   2.915   9.791   2.298 -0.7235  0.0577  0.1035
 6680SOL    HW132099   2.927   9.864   2.231 -0.6987 -1.4190 -1.5444
 6680SOL    HW232100   2.898   9.831   2.388 -0.9976  2.0794 -0.8136
 6681SOL     OW32101   8.800   1.309   1.081 -0.1089  0.2934  0.0344
 6681SOL    HW132102   8.793   1.303   1.180 -0.1527 -1.3111 -0.0631
 6681SOL    HW232103   8.893   1.283   1.052  0.1233  1.4491 -0.2948
 6682SOL     OW32104   4.063   5.229   5.838  0.0736  0.0608 -0.1203
 6682SOL    HW132105   4.047   5.235   5.936 -1.2378  0.1922 -0.3306
 6682SOL    HW232106   4.155   5.192   5.821  0.0411 -0.6124  1.1428
 6683SOL     OW32107   1.970   8.234   9.210 -0.3479  0.1827  0.5592
 6683SOL    HW132108   1.989   8.262   9.305 -2.8847  1.7255  0.6520
 6683SOL    HW232109   1.880   8.192   9.205 -0.5441  0.7873 -1.3004
 6684SOL     OW32110   1.309   5.419   0.073 -0.2055 -0.0822 -0.3180
 6684SOL    HW132111   1.389   5.475   0.053  0.2403  0.1051  1.8966
 6684SOL    HW232112   1.265   5.392  -0.013  0.6102  2.1288 -1.4787
 6685SOL     OW32113   5.759   1.788   0.213 -0.2199  0.0410  0.3076
 6685SOL    HW132114   5.778   1.870   0.160  0.1699 -1.5681 -2.1302
 6685SOL    HW232115   5.662   1.784   0.235 -0.3532  0.8264 -0.1310
 6686SOL     OW32116   6.205   5.400   2.890  0.0728 -0.6103  0.1017
 6686SOL    HW132117   6.259   5.337   2.946 -1.4340 -2.4370 -0.4674
 6686SOL    HW232118   6.122   5.425   2.940 -1.0908 -1.9481 -1.1152
 6687SOL     OW32119   3.924   1.582   9.295 -0.0901 -0.0817 -0.0481
 6687SOL    HW132120   3.976   1.508   9.253  0.8322  0.3018  0.4030
 6687SOL    HW232121   3.840   1.546   9.335  1.3226 -1.2184  1.9420
 6688SOL     OW32122   3.964   8.867   9.950  0.2238 -0.6920  0.2310
 6688SOL    HW132123   3.959   8.934  10.024  2.0270 -1.1691  0.8103
 6688SOL    HW232124   3.872   8.851   9.913 -0.4928  0.6176  1.3965
 6689SOL     OW32125   9.758   0.724   7.692  0.6578  0.0822  0.1086
 6689SOL    HW132126   9.822   0.788   7.648 -0.7037  1.0370 -0.5504
 6689SOL    HW232127   9.665   0.759   7.682  0.0728 -1.0633  1.4451
 6690SOL     OW32128   3.440   8.505   4.710 -0.2129  0.0211  0.7901
 6690SOL    HW132129   3.400   8.581   4.658  0.2599  0.1655  0.6357
 6690SOL    HW232130   3.384   8.486   4.790 -0.1395  0.7638  1.0222
 6691SOL     OW32131   7.115   4.936   9.053  0.0131 -0.0068 -0.0666
 6691SOL    HW132132   7.022   4.959   9.025  0.2890  0.9070 -0.2695
 6691SOL    HW232133   7.169   5.020   9.059  0.9402 -0.5736 -0.3771
 6692SOL     OW32134   8.128   1.359   5.924  0.0309  0.1678 -0.2856
 6692SOL    HW132135   8.165   1.401   6.006 -1.4878  0.6133  0.1891
 6692SOL    HW232136   8.066   1.424   5.879  2.4769  0.7610 -2.9646
 6693SOL     OW32137   5.283   9.350   8.302  0.5818  0.1741 -0.6979
 6693SOL    HW132138   5.315   9.391   8.386  1.2080 -0.3672 -0.6712
 6693SOL    HW232139   5.183   9.349   8.302  0.5775  0.3123 -0.0337
 6694SOL     OW32140   2.004   4.817   2.527 -0.3265  0.5349 -0.1607
 6694SOL    HW132141   1.992   4.779   2.619  0.5701  0.5223 -0.0437
 6694SOL    HW232142   1.939   4.892   2.514 -0.5338  0.4654  0.4409
 6695SOL     OW32143   3.306   6.226   2.012  0.0067  0.0396 -0.0469
 6695SOL    HW132144   3.360   6.163   2.068  0.8335 -1.3378 -2.3110
 6695SOL    HW232145   3.313   6.199   1.916 -1.7787  2.0402 -0.7765
 6696SOL     OW32146   7.448   0.074   9.412  1.0585  0.0457 -0.5808
 6696SOL    HW132147   7.395   0.104   9.491  0.2837 -1.7924 -0.3836
 6696SOL    HW232148   7.545   0.088   9.431  0.7732  1.8793 -0.2907
 6697SOL     OW32149   2.957   8.335   5.407 -0.1314  0.3936 -0.4745
 6697SOL    HW132150   3.002   8.329   5.318  0.0327 -1.6266 -0.2856
 6697SOL    HW232151   2.952   8.244   5.447  1.0705  1.4663  2.2296
 6698SOL     OW32152   5.336   3.641   2.326 -0.0699 -0.6894 -0.5932
 6698SOL    HW132153   5.306   3.733   2.303  0.8482 -0.6875 -1.8425
 6698SOL    HW232154   5.257   3.584   2.349 -0.8611 -0.2251 -2.1276
 6699SOL     OW32155   9.625   0.625   8.211 -0.2285 -0.2454  0.2507
 6699SOL    HW132156   9.664   0.556   8.273 -1.0042 -0.8505  0.0771
 6699SOL    HW232157   9.699   0.675   8.167  0.3341  0.2138  1.6895
 6700SOL     OW32158   3.931   1.876   0.456  0.0858  0.0450  0.3991
 6700SOL    HW132159   3.925   1.777   0.445 -0.8424  0.2194 -0.7428
 6700SOL    HW232160   3.839   1.915   0.452  0.5798  1.1109 -0.7246
 6701SOL     OW32161   0.533   1.319   7.338 -0.4892  0.5966 -0.2901
 6701SOL    HW132162   0.502   1.317   7.433  0.0347  0.0400 -0.1225
 6701SOL    HW232163   0.475   1.259   7.283  0.5238 -0.7810  0.1057
 6702SOL     OW32164   1.464   6.968   9.885 -0.4029  0.3751 -0.0060
 6702SOL    HW132165   1.369   6.963   9.917 -0.2982 -2.2772  0.0151
 6702SOL    HW232166   1.524   6.923   9.952  0.6231  0.3874 -0.9067
 6703SOL     OW32167   2.823   3.406   0.161 -0.9757  0.1756  0.3225
 6703SOL    HW132168   2.901   3.346   0.181  0.1256  0.3199 -3.0459
 6703SOL    HW232169   2.739   3.352   0.160 -0.3542 -0.8035 -0.0249
 6704SOL     OW32170   0.226   4.943   7.842 -0.1466 -0.1386  0.5915
 6704SOL    HW132171   0.161   4.870   7.864  1.5054 -1.5974  0.7972
 6704SOL    HW232172   0.277   4.919   7.760 -0.2773  1.2705  0.0844
 6705SOL     OW32173   3.445   0.275   7.363 -0.4098 -0.0938 -0.3508
 6705SOL    HW132174   3.389   0.350   7.326  2.6057  1.3949 -2.0254
 6705SOL    HW232175   3.429   0.193   7.309 -0.0597  0.6442 -1.5905
 6706SOL     OW32176   9.259   8.713   7.544  0.3831  0.2093 -0.0485
 6706SOL    HW132177   9.357   8.732   7.545  0.2302  1.0573 -0.1868
 6706SOL    HW232178   9.239   8.642   7.477  1.2842 -2.2206  2.1740
 6707SOL     OW32179   3.778   2.835   8.128 -0.3337  0.8828  0.4444
 6707SOL    HW132180   3.725   2.845   8.213 -0.1988  0.5856  0.5636
 6707SOL    HW232181   3.738   2.893   8.058 -1.4250 -0.0706  0.2552
 6708SOL     OW32182   2.313   9.906   1.201  0.4419 -0.4394  0.2948
 6708SOL    HW132183   2.268   9.982   1.248  2.3871  0.3638  0.9279
 6708SOL    HW232184   2.409   9.929   1.186  0.4625 -1.7754 -1.7473
 6709SOL     OW32185   2.001   2.554   7.933  0.2745 -0.0089 -0.1232
 6709SOL    HW132186   1.935   2.616   7.891  1.1780  0.3648 -1.0316
 6709SOL    HW232187   1.978   2.459   7.909  0.9035  0.2163 -1.6758
 6710SOL     OW32188   0.282   9.845   7.877 -0.0028 -0.1388 -0.3172
 6710SOL    HW132189   0.242   9.755   7.856  0.0750 -0.3647  0.4933
 6710SOL    HW232190   0.251   9.876   7.966  0.8036  0.1585 -0.1311
 6711SOL     OW32191   8.509   1.750   0.578  0.4924  0.1035 -0.0019
 6711SOL    HW132192   8.448   1.679   0.611  0.5227 -0.4203 -1.0541
 6711SOL    HW232193   8.466   1.839   0.589 -0.0411 -0.1775  0.1861
 6712SOL     OW32194   1.276   1.588   1.092  0.3798  0.0564  0.0993
 6712SOL    HW132195   1.274   1.568   1.191  1.1831  2.1390  0.5503
 6712SOL    HW232196   1.184   1.609   1.060  0.4889  1.8282  0.9296
 6713SOL     OW32197   9.736   5.949   7.299  0.1773 -0.1719  0.4312
 6713SOL    HW132198   9.694   5.870   7.343 -0.8552  0.3613  0.4173
 6713SOL    HW232199   9.768   6.013   7.368  0.3848 -0.2756  0.4321
 6714SOL     OW32200   5.478   3.293   0.795 -0.2894 -0.4118 -0.0035
 6714SOL    HW132201   5.398   3.240   0.824  0.0518 -1.4761 -0.9828
 6714SOL    HW232202   5.502   3.269   0.701  0.0762  1.2483 -0.3505
 6715SOL     OW32203   9.145   4.801   7.366 -0.1521 -0.0232  0.0174
 6715SOL    HW132204   9.184   4.893   7.363  0.0519 -0.0803  0.8638
 6715SOL    HW232205   9.210   4.739   7.410 -0.9016 -0.2615  0.8003
 6716SOL     OW32206   6.416   2.846   0.268  0.1263  0.4497  0.0181
 6716SOL    HW132207   6.396   2.789   0.347  1.8388  0.2473  0.3301
 6716SOL    HW232208   6.462   2.930   0.299  0.5926  0.4729 -0.7343
 6717SOL     OW32209   0.094   0.281   9.678  0.4289  0.2089 -0.2411
 6717SOL    HW132210   0.110   0.193   9.633 -0.5819  0.7293 -1.6371
 6717SOL    HW232211   0.022   0.270   9.746 -1.8694  0.5922 -2.5297
 6718SOL     OW32212   3.029   7.814   5.701 -0.2183  0.3945  0.0136
 6718SOL    HW132213   3.076   7.899   5.723  1.0193 -0.5893  1.2211
 6718SOL    HW232214   2.986   7.777   5.783 -0.4454 -0.3468 -0.4301
 6719SOL     OW32215   8.967   4.982   4.274  0.2359 -0.4805  0.4418
 6719SOL    HW132216   8.938   5.078   4.277 -0.9934 -0.8142 -0.5284
 6719SOL    HW232217   8.896   4.927   4.231  1.7010 -1.5546 -0.6478
 6720SOL     OW32218   4.525   2.060   6.703  0.4677 -0.3923  0.5753
 6720SOL    HW132219   4.577   2.071   6.618  1.5684 -1.0442  1.1629
 6720SOL    HW232220   4.439   2.014   6.683  1.1904 -1.4848 -0.0338
 6721SOL     OW32221   8.902   9.505   7.518 -0.0430  0.7427 -0.4322
 6721SOL    HW132222   8.865   9.547   7.601 -1.0552 -0.2998 -0.3495
 6721SOL    HW232223   8.974   9.564   7.481 -2.0936  3.0727 -0.8710
 6722SOL     OW32224   5.388   4.463   7.977 -0.0352 -0.0821  0.2418
 6722SOL    HW132225   5.312   4.525   7.996  1.0302  0.7196  1.9792
 6722SOL    HW232226   5.415   4.473   7.881  0.0150  2.0454  0.4395
 6723SOL     OW32227   2.801   0.469   6.842  0.2182  0.0868  0.0842
 6723SOL    HW132228   2.742   0.415   6.782  0.9807 -0.7468  0.0724
 6723SOL    HW232229   2.792   0.437   6.936 -2.1696  2.4222  0.7110
 6724SOL     OW32230   1.053   7.896   8.942  0.1116  0.4046  0.3532
 6724SOL    HW132231   1.027   7.813   8.991  1.0470  0.6785  1.3446
 6724SOL    HW232232   1.046   7.974   9.003  1.8981  0.6704  0.2499
 6725SOL     OW32233   3.116   5.831   9.385  0.3692 -0.3995 -0.3563
 6725SOL    HW132234   3.050   5.871   9.321  0.1916 -0.6180 -0.3105
 6725SOL    HW232235   3.143   5.899   9.452 -0.9820 -0.7394  0.5562
 6726SOL     OW32236   1.198   8.657   4.815 -0.0376  0.1996 -0.4345
 6726SOL    HW132237   1.244   8.722   4.755 -0.3626  0.6454 -0.2015
 6726SOL    HW232238   1.246   8.569   4.812 -0.9333 -0.2349 -2.5238
 6727SOL     OW32239   0.188   8.228   8.135  0.1929 -0.1832  0.4167
 6727SOL    HW132240   0.200   8.308   8.195 -1.5015 -0.1732  0.7829
 6727SOL    HW232241   0.221   8.146   8.181  0.1740  0.0329  0.8184
 6728SOL     OW32242   3.321   1.214   9.176  0.5161  0.3141  0.1071
 6728SOL    HW132243   3.315   1.126   9.221 -0.7681  1.0269  1.3572
 6728SOL    HW232244   3.277   1.209   9.086  1.6293 -0.6619 -0.3961
 6729SOL     OW32245   1.720   6.509   0.568 -0.2322 -0.1238  0.4780
 6729SOL    HW132246   1.720   6.411   0.589  1.8908  0.0754  1.4710
 6729SOL    HW232247   1.725   6.521   0.469  2.1541 -1.0249  0.4619
 6730SOL     OW32248   1.179   2.299   5.876 -0.0320 -0.6909  0.0151
 6730SOL    HW132249   1.100   2.238   5.863 -0.2124 -0.4697  0.0581
 6730SOL    HW232250   1.157   2.390   5.839 -0.6278 -0.0027  1.9652
 6731SOL     OW32251   1.814   7.595   9.326 -0.2665 -0.0655  0.1498
 6731SOL    HW132252   1.890   7.631   9.380  0.9017 -1.0076 -0.8392
 6731SOL    HW232253   1.843   7.585   9.230 -0.8648 -2.6694  0.2045
 6732SOL     OW32254   3.924   0.999   7.980 -0.1271  0.0539 -0.2005
 6732SOL    HW132255   3.838   1.051   7.983 -0.1964 -0.0871  0.2352
 6732SOL    HW232256   3.989   1.048   7.922 -0.5351  0.1097 -0.6201
 6733SOL     OW32257   1.737   5.197   7.012 -0.9276 -0.1636  0.1674
 6733SOL    HW132258   1.745   5.141   6.930  0.9386 -0.3428  0.4612
 6733SOL    HW232259   1.757   5.292   6.990  1.4442 -0.5030  0.7653
 6734SOL     OW32260   0.178   2.260   6.189 -0.0238 -0.7096  0.1214
 6734SOL    HW132261   0.171   2.349   6.234  0.4256 -1.4297  1.6572
 6734SOL    HW232262   0.265   2.255   6.138 -0.4800  0.0634 -0.7483
 6735SOL     OW32263   0.862   4.420   5.505 -0.0533  0.5434 -0.2579
 6735SOL    HW132264   0.892   4.501   5.454  0.4367 -0.2202 -1.1883
 6735SOL    HW232265   0.763   4.426   5.520 -0.0170  1.3372 -0.2754
 6736SOL     OW32266   5.099   0.520   5.603 -0.0804 -0.2428 -0.0238
 6736SOL    HW132267   5.109   0.459   5.681 -0.0227  0.2917  0.3921
 6736SOL    HW232268   5.140   0.478   5.522 -0.0938 -0.7756  0.2443
 6737SOL     OW32269   1.218   3.447   1.177  0.2121 -0.3024  0.1456
 6737SOL    HW132270   1.242   3.445   1.080 -1.3254  1.9685 -0.3398
 6737SOL    HW232271   1.130   3.402   1.190  1.2252 -2.1207  0.7672
 6738SOL     OW32272   5.165   9.841   5.768 -0.3682  0.3728 -0.1619
 6738SOL    HW132273   5.224   9.912   5.729 -0.8487  0.3283 -0.9877
 6738SOL    HW232274   5.090   9.884   5.819  0.4850  0.4268  1.0655
 6739SOL     OW32275   4.858   5.741   2.458  0.4010 -0.4706  0.4630
 6739SOL    HW132276   4.927   5.669   2.450  1.2539 -0.1102  3.8399
 6739SOL    HW232277   4.804   5.726   2.541 -1.2321  1.2649 -0.2466
 6740SOL     OW32278   5.924   9.834   7.037  0.0700  0.6113  0.3645
 6740SOL    HW132279   5.830   9.846   7.003 -0.1227 -2.2135 -0.2938
 6740SOL    HW232280   5.940   9.895   7.114 -1.8992  2.0402 -0.3195
 6741SOL     OW32281   9.077   7.623   8.819 -0.4587  0.2283  0.1240
 6741SOL    HW132282   9.146   7.552   8.835  1.5024  1.8344 -0.8711
 6741SOL    HW232283   9.050   7.621   8.723 -0.7759  0.4814  0.2096
 6742SOL     OW32284   1.562   1.680   6.178 -0.5063 -0.2250  0.2521
 6742SOL    HW132285   1.467   1.712   6.189  0.0718  1.1819  1.3001
 6742SOL    HW232286   1.623   1.739   6.230  1.0633 -0.5586 -1.1681
 6743SOL     OW32287   9.816   7.857   7.080 -0.0038  0.3075  0.4382
 6743SOL    HW132288   9.820   7.893   7.173  0.9255  1.7571 -0.1507
 6743SOL    HW232289   9.891   7.895   7.026  0.0286 -1.2544 -0.6584
 6744SOL     OW32290   5.814   4.788   7.907 -0.4262 -0.3601 -0.1787
 6744SOL    HW132291   5.741   4.853   7.923  0.0658 -0.4169  2.5564
 6744SOL    HW232292   5.903   4.832   7.923  0.0576 -0.7670 -1.7016
 6745SOL     OW32293   8.868   4.694   5.116 -0.2805  0.0885  0.7643
 6745SOL    HW132294   8.948   4.635   5.123 -0.6928 -0.6112 -0.2591
 6745SOL    HW232295   8.897   4.790   5.119  0.6003 -0.1553  0.3146
 6746SOL     OW32296   7.976   9.094   7.299 -0.4385  0.3199 -0.5022
 6746SOL    HW132297   7.913   9.047   7.362  0.8841  0.1025  0.6967
 6746SOL    HW232298   7.986   9.040   7.216  0.0302 -0.8743  0.3157
 6747SOL     OW32299   4.572   3.047   9.444 -0.1234 -0.4544  0.4088
 6747SOL    HW132300   4.566   3.079   9.350  0.4920  1.1731  0.9036
 6747SOL    HW232301   4.481   3.047   9.486 -0.0888  0.9651  0.4939
 6748SOL     OW32302   8.795   3.661   8.335 -0.0982  0.6988  0.6415
 6748SOL    HW132303   8.799   3.600   8.255  0.6038  1.5789 -0.0033
 6748SOL    HW232304   8.888   3.681   8.366 -0.3599  0.5419  1.5505
 6749SOL     OW32305   6.050   8.146   7.278  0.2260 -0.1032  0.2804
 6749SOL    HW132306   6.016   8.238   7.261  0.1537 -0.3292 -0.8351
 6749SOL    HW232307   6.127   8.150   7.341  0.9641  0.8350 -0.6630
 6750SOL     OW32308   6.879   4.164   6.663 -0.2002  0.3991 -0.1584
 6750SOL    HW132309   6.859   4.260   6.683 -1.5615  0.2358 -0.6944
 6750SOL    HW232310   6.802   4.107   6.692  1.4375 -0.7740  2.0202
 6751SOL     OW32311   2.922   0.510   8.497 -0.5326  0.1655  0.3904
 6751SOL    HW132312   2.868   0.457   8.562 -0.1288 -0.6773  0.0512
 6751SOL    HW232313   2.888   0.492   8.404  0.7555 -0.9110  0.1069
 6752SOL     OW32314   3.731   3.361   0.547 -0.2838 -0.2457 -0.3571
 6752SOL    HW132315   3.697   3.454   0.540 -0.7759 -0.3531  0.5452
 6752SOL    HW232316   3.803   3.356   0.617 -1.3267 -0.8341  0.6934
 6753SOL     OW32317   8.851   1.372   0.651 -0.8211  0.3644 -0.1771
 6753SOL    HW132318   8.783   1.407   0.715 -0.4151  0.1441  0.3816
 6753SOL    HW232319   8.896   1.449   0.605 -1.1105  0.5251 -0.1886
 6754SOL     OW32320   4.620   8.812   5.318 -0.1156  0.2880 -0.0826
 6754SOL    HW132321   4.624   8.722   5.273 -1.4134  0.3255 -0.2964
 6754SOL    HW232322   4.535   8.819   5.370  0.4388  1.0299  0.7222
 6755SOL     OW32323   6.887   2.125   5.400  0.1098  0.2331  0.2840
 6755SOL    HW132324   6.843   2.133   5.489 -0.1972  1.3805  0.0424
 6755SOL    HW232325   6.846   2.049   5.350 -0.6837  0.4471  0.5914
 6756SOL     OW32326   3.048   2.528   5.523  0.3267 -0.0821  0.4319
 6756SOL    HW132327   3.102   2.473   5.587  0.3217  0.7509  1.1617
 6756SOL    HW232328   2.961   2.481   5.505  1.4967 -1.6854 -1.1658
 6757SOL     OW32329   2.665   2.203   7.491  0.1308 -0.2781  0.0664
 6757SOL    HW132330   2.695   2.149   7.413  0.8408 -0.0831  0.2001
 6757SOL    HW232331   2.685   2.300   7.474 -2.2641  0.0896 -0.7100
 6758SOL     OW32332   5.367   7.328   4.680  0.3847  0.1268  0.2353
 6758SOL    HW132333   5.409   7.418   4.675  0.0448  0.2262 -1.2687
 6758SOL    HW232334   5.268   7.338   4.694  0.4618 -0.0251  0.8726
 6759SOL     OW32335   2.104   8.313   6.767 -0.2409  0.3780  0.1509
 6759SOL    HW132336   2.023   8.287   6.821 -0.6113  0.4411 -0.3732
 6759SOL    HW232337   2.162   8.232   6.754  0.4256  0.6074  1.6199
 6760SOL     OW32338   3.939   0.730   8.020 -0.2570  0.2441 -0.4799
 6760SOL    HW132339   3.921   0.714   8.117 -2.6877 -0.1333 -0.9579
 6760SOL    HW232340   3.948   0.828   8.003 -1.3957  0.4197 -0.1073
 6761SOL     OW32341   4.092   3.939   5.255 -0.0414  0.4217 -0.1638
 6761SOL    HW132342   4.067   3.870   5.323 -0.1104 -1.5400 -2.1343
 6761SOL    HW232343   4.191   3.954   5.257 -0.0065  0.1463  0.1415
 6762SOL     OW32344   1.841   8.381   3.916 -0.3644 -0.4770  0.0486
 6762SOL    HW132345   1.747   8.384   3.949 -1.6743 -0.2834 -3.4559
 6762SOL    HW232346   1.842   8.403   3.819  3.2619 -1.0679 -0.0987
 6763SOL     OW32347   4.415   0.534   9.709 -0.3794 -0.3446  0.3713
 6763SOL    HW132348   4.468   0.514   9.792 -0.6687 -0.1564  0.6029
 6763SOL    HW232349   4.442   0.624   9.674 -1.6877  0.4638  1.3966
 6764SOL     OW32350   1.725   8.812   0.276  0.3011  0.1353 -0.1689
 6764SOL    HW132351   1.676   8.863   0.205  0.3739 -0.4876 -0.6716
 6764SOL    HW232352   1.709   8.714   0.264 -1.5964  0.1099  2.0680
 6765SOL     OW32353   3.397   6.747   9.564 -0.3426  0.1725  0.3911
 6765SOL    HW132354   3.378   6.664   9.510  0.0391 -1.5283  2.7920
 6765SOL    HW232355   3.319   6.767   9.623 -0.4034  1.5091 -0.1424
 6766SOL     OW32356   3.005   5.293   0.110  0.4307  0.1451 -0.7627
 6766SOL    HW132357   2.955   5.274   0.025  0.4325 -1.5836 -0.4004
 6766SOL    HW232358   3.004   5.211   0.168 -0.8847  1.7398  1.5875
 6767SOL     OW32359   1.723   9.492   8.389  0.6166 -0.4444  0.3493
 6767SOL    HW132360   1.740   9.527   8.297 -1.0770 -0.2128  0.0917
 6767SOL    HW232361   1.694   9.396   8.383  1.2316 -0.6544  0.7079
 6768SOL     OW32362   0.281   4.917   2.768 -0.3648  0.3222 -0.4655
 6768SOL    HW132363   0.269   5.013   2.744  1.6452  0.1546 -2.2801
 6768SOL    HW232364   0.297   4.909   2.867  0.9646  2.0047 -0.5289
 6769SOL     OW32365   6.425   6.177   7.720 -0.0385 -0.0636 -0.4090
 6769SOL    HW132366   6.446   6.129   7.805 -0.0306  1.6584  0.5658
 6769SOL    HW232367   6.402   6.272   7.739 -2.0110 -0.1642 -2.1464
 6770SOL     OW32368   0.827   0.298   0.668 -0.6548 -0.1944 -0.2355
 6770SOL    HW132369   0.913   0.337   0.636  0.4552 -0.6378  2.0939
 6770SOL    HW232370   0.821   0.202   0.640 -0.4683 -0.1080 -0.5646
 6771SOL     OW32371   0.475   1.612   7.719 -0.3640 -0.2424  0.0671
 6771SOL    HW132372   0.575   1.610   7.723 -0.4379 -1.6412  5.5207
 6771SOL    HW232373   0.444   1.707   7.718  0.9851  0.2124 -1.9750
 6772SOL     OW32374   2.095   3.323   6.410 -0.1552 -0.3301 -0.7703
 6772SOL    HW132375   2.005   3.280   6.403  0.2891 -1.2348 -0.9838
 6772SOL    HW232376   2.165   3.258   6.380  0.3655  1.1589 -2.8804
 6773SOL     OW32377   3.172   1.385   0.391 -0.8466 -0.1222  0.5734
 6773SOL    HW132378   3.250   1.387   0.328  0.0536 -1.8149  1.6000
 6773SOL    HW232379   3.149   1.478   0.419  0.9129  0.3843  0.3906
 6774SOL     OW32380   1.307   4.343   8.468  0.0253 -0.0702  0.3594
 6774SOL    HW132381   1.380   4.384   8.412  0.5346 -1.6482 -0.1659
 6774SOL    HW232382   1.322   4.364   8.564  0.8769  0.0846  0.1937
 6775SOL     OW32383   4.067   0.615   2.251 -0.0592  0.1601  0.0892
 6775SOL    HW132384   4.081   0.689   2.317  0.8426  0.6610 -0.6470
 6775SOL    HW232385   4.018   0.540   2.295 -0.0783  0.7723  1.1344
 6776SOL     OW32386   3.763   7.493   9.662  0.1072  0.0612  0.9850
 6776SOL    HW132387   3.846   7.533   9.624 -0.3037  0.5719  0.6151
 6776SOL    HW232388   3.735   7.416   9.605 -1.2328  1.6285 -0.5285
 6777SOL     OW32389   0.618   1.567   0.947  0.2280  0.3055 -0.2790
 6777SOL    HW132390   0.519   1.573   0.935 -0.0722 -1.0324  1.3986
 6777SOL    HW232391   0.654   1.656   0.973 -0.8355  0.3360  1.1520
 6778SOL     OW32392   0.834   6.187   5.274  0.1996 -0.2273  0.2572
 6778SOL    HW132393   0.893   6.250   5.324 -0.5932  1.6721 -1.1402
 6778SOL    HW232394   0.889   6.132   5.212  0.5135  1.9713 -1.5075
 6779SOL     OW32395   0.508   5.792   7.427  1.0448  0.0981  0.5980
 6779SOL    HW132396   0.544   5.719   7.484 -0.9336  0.3300  2.1668
 6779SOL    HW232397   0.584   5.850   7.397  2.3164 -1.0577  1.4803
 6780SOL     OW32398   9.500   1.099   9.572 -0.0435 -0.3038  0.0681
 6780SOL    HW132399   9.459   1.171   9.628 -0.4168 -1.0643  0.7886
 6780SOL    HW232400   9.461   1.102   9.480  0.2445  0.6722 -0.0197
 6781SOL     OW32401   9.703   0.046   8.303 -0.2988 -0.4219 -0.1307
 6781SOL    HW132402   9.659   0.112   8.364 -0.6413 -0.8687  0.0971
 6781SOL    HW232403   9.646   0.033   8.222 -0.7016 -1.1915  0.2818
 6782SOL     OW32404   1.656   8.315   4.780 -0.4349  0.4933  0.3712
 6782SOL    HW132405   1.647   8.281   4.873  0.2193 -1.0667 -0.1184
 6782SOL    HW232406   1.651   8.238   4.715 -3.4198  1.8121 -1.0478
 6783SOL     OW32407   1.461   4.738   2.416  0.0533  0.0933  0.2521
 6783SOL    HW132408   1.394   4.664   2.409 -0.0436 -0.0713  2.6598
 6783SOL    HW232409   1.553   4.701   2.400 -0.1282 -0.2683  0.0417
 6784SOL     OW32410   7.197   1.326   3.967  0.4112  0.6637  0.4883
 6784SOL    HW132411   7.249   1.405   3.999  1.7767 -0.4238  0.9957
 6784SOL    HW232412   7.186   1.332   3.868 -0.3423  1.9816  0.6423
 6785SOL     OW32413   4.087   0.163   3.236 -0.0122 -0.0088 -0.4241
 6785SOL    HW132414   4.170   0.217   3.243  1.0584 -1.2591 -2.8324
 6785SOL    HW232415   4.010   0.223   3.213  0.2985  1.0622  1.2452
 6786SOL     OW32416   1.850   9.811   8.664 -0.2028  0.1017 -0.0333
 6786SOL    HW132417   1.808   9.720   8.663 -0.0441 -0.0184  1.7912
 6786SOL    HW232418   1.835   9.853   8.754  1.9912  0.7951  0.0278
 6787SOL     OW32419   1.365   3.819   4.877 -0.2764  0.0202  0.2718
 6787SOL    HW132420   1.385   3.743   4.939 -1.4466  0.8860  1.7659
 6787SOL    HW232421   1.318   3.785   4.796  2.9686 -1.3938 -1.0986
 6788SOL     OW32422   0.699   0.392   2.572 -0.9078  0.2882 -0.0920
 6788SOL    HW132423   0.737   0.460   2.509 -1.5400 -0.1440 -0.9494
 6788SOL    HW232424   0.600   0.406   2.579 -1.4366 -2.1500 -2.2576
 6789SOL     OW32425   7.894   3.865   8.960 -0.7944  0.0490  0.1097
 6789SOL    HW132426   7.982   3.870   9.007 -0.6239  0.7815 -0.2816
 6789SOL    HW232427   7.820   3.869   9.027 -0.5565  1.2521  0.3151
 6790SOL     OW32428   9.262   8.942   7.213 -0.0754  0.2661  0.2182
 6790SOL    HW132429   9.246   8.969   7.308 -2.1393 -0.8929  0.2278
 6790SOL    HW232430   9.251   8.843   7.204 -0.0774  0.3914 -1.2828
 6791SOL     OW32431   6.053   2.464   9.283  0.5974  0.4702 -0.4734
 6791SOL    HW132432   6.013   2.404   9.214  0.5653 -1.5039  1.1835
 6791SOL    HW232433   6.125   2.414   9.332  0.5523  1.7821  0.9759
 6792SOL     OW32434   3.260   9.636   9.305  0.4862  0.3618  0.5194
 6792SOL    HW132435   3.327   9.708   9.319  2.0439 -1.0244  0.3643
 6792SOL    HW232436   3.301   9.562   9.251 -1.7956  0.4079 -1.3875
 6793SOL     OW32437   9.959   7.464   8.446 -0.4655  0.4019 -0.2846
 6793SOL    HW132438  10.050   7.429   8.422 -0.9856 -0.0705 -1.5810
 6793SOL    HW232439   9.939   7.545   8.391 -0.9025  0.4062 -0.1167
 6794SOL     OW32440   0.485   9.092   8.357 -0.1048 -0.5322 -0.7489
 6794SOL    HW132441   0.442   9.009   8.391  0.7338 -0.6155  0.1493
 6794SOL    HW232442   0.415   9.161   8.337 -0.5794 -0.1985  1.9198
 6795SOL     OW32443   8.936   4.772   5.462 -0.1644 -0.3576 -0.1585
 6795SOL    HW132444   8.874   4.704   5.500 -1.1120  1.1493  1.0361
 6795SOL    HW232445   8.901   4.864   5.480  1.5256  0.4842 -0.9885
 6796SOL     OW32446   4.144   3.215   7.569  0.6283 -0.0966 -0.4215
 6796SOL    HW132447   4.051   3.239   7.543  0.4134  0.8282  1.1436
 6796SOL    HW232448   4.204   3.223   7.489 -0.4679  0.1309 -1.2367
 6797SOL     OW32449   0.653   1.360   8.798 -0.4319  0.3328  0.3891
 6797SOL    HW132450   0.669   1.399   8.889  0.7817  1.2678 -0.2087
 6797SOL    HW232451   0.716   1.402   8.733 -2.4559  0.9368 -1.2236
 6798SOL     OW32452   8.826   3.769   7.643 -0.1932  0.5404 -0.3388
 6798SOL    HW132453   8.862   3.701   7.706  0.1228 -0.5399 -1.6698
 6798SOL    HW232454   8.740   3.737   7.604 -0.6941  1.4643 -0.0172
 6799SOL     OW32455   4.700   1.296   8.330  0.1523 -0.0938 -0.3730
 6799SOL    HW132456   4.798   1.287   8.309  0.0528  0.1333 -0.9442
 6799SOL    HW232457   4.666   1.208   8.365  0.7098  0.0243  0.4760
 6800SOL     OW32458   6.849   1.145   8.228 -0.1018 -0.1926  0.0104
 6800SOL    HW132459   6.917   1.197   8.175 -0.4451 -1.3621 -1.6155
 6800SOL    HW232460   6.776   1.207   8.257 -0.8738  0.1557 -2.5084
 6801SOL     OW32461   3.897   0.103   8.116  0.0798  0.1373  0.6164
 6801SOL    HW132462   3.895   0.102   8.016 -0.1967  0.4329  0.6186
 6801SOL    HW232463   3.805   0.120   8.151  0.1035 -0.3482  0.9295
 6802SOL     OW32464   0.838   8.898   0.970  0.3557  0.6466  0.3487
 6802SOL    HW132465   0.905   8.938   1.033 -0.6330  0.3888  1.5767
 6802SOL    HW232466   0.803   8.813   1.007  0.3456  0.0784 -0.9360
 6803SOL     OW32467   8.799   8.873   2.584  0.2292 -0.1761 -0.3595
 6803SOL    HW132468   8.717   8.859   2.639 -0.1168 -0.7252 -1.0112
 6803SOL    HW232469   8.876   8.824   2.626  0.6978  1.8649  1.3000
 6804SOL     OW32470   3.135   1.314   1.361  0.5159  0.3241 -0.0781
 6804SOL    HW132471   3.087   1.227   1.373  1.6252 -0.1942  0.6607
 6804SOL    HW232472   3.069   1.388   1.350 -0.4336 -0.6362 -0.8785
 6805SOL     OW32473   8.155   8.915   8.544  0.1747  0.3813 -0.1499
 6805SOL    HW132474   8.084   8.893   8.476 -0.0200  1.1167 -0.1810
 6805SOL    HW232475   8.180   9.011   8.536  0.4103  0.3791  0.5865
 6806SOL     OW32476   0.158   8.506   9.716  0.3283  0.1448 -0.1041
 6806SOL    HW132477   0.250   8.543   9.708  0.9321 -1.3795 -0.5608
 6806SOL    HW232478   0.142   8.441   9.641 -0.5333 -0.7810  0.8578
 6807SOL     OW32479   0.963   5.020   9.550 -0.4157  0.1871 -0.1536
 6807SOL    HW132480   0.893   4.952   9.576  0.7693 -1.0430 -0.1347
 6807SOL    HW232481   1.052   4.989   9.583  0.2317  1.4668 -0.7044
 6808SOL     OW32482   4.371   3.005   8.076  0.3633  0.3075 -0.2622
 6808SOL    HW132483   4.386   2.975   8.170 -1.0976  0.4575  0.0267
 6808SOL    HW232484   4.435   2.957   8.015  0.4004 -0.7959  0.6253
 6809SOL     OW32485   1.834   1.283   7.551  0.5295 -0.3806 -0.0277
 6809SOL    HW132486   1.742   1.315   7.572 -0.0462 -1.4843 -0.8221
 6809SOL    HW232487   1.900   1.355   7.572 -0.6573  1.0077 -0.9582
 6810SOL     OW32488   0.362   1.005   8.249 -0.5182 -0.1108 -0.4395
 6810SOL    HW132489   0.319   0.987   8.337 -0.3707 -2.7189 -0.8410
 6810SOL    HW232490   0.294   0.994   8.176 -0.2122  0.1901 -0.7766
 6811SOL     OW32491   6.072   5.295   8.220 -0.1074 -0.0754 -0.2685
 6811SOL    HW132492   6.103   5.209   8.262 -0.2864  0.0519  0.1237
 6811SOL    HW232493   5.973   5.296   8.216 -0.2065  1.1797  1.9757
 6812SOL     OW32494   3.841   2.575   6.977  0.1961  0.2392 -0.0208
 6812SOL    HW132495   3.817   2.671   6.994 -0.6941  0.1492 -0.7513
 6812SOL    HW232496   3.774   2.534   6.915  2.4329  0.1150 -2.4630
 6813SOL     OW32497   8.180   6.971   6.391  0.1641 -0.2822  0.3460
 6813SOL    HW132498   8.089   6.963   6.431  0.2227  0.1396  0.5710
 6813SOL    HW232499   8.227   6.882   6.396 -0.4658 -0.6557 -0.3545
 6814SOL     OW32500   4.037   9.673   6.523 -0.0600  0.0949  0.0475
 6814SOL    HW132501   3.948   9.717   6.535  0.5116  1.6773 -1.3945
 6814SOL    HW232502   4.067   9.682   6.428  0.6591 -2.3520 -0.0045
 6815SOL     OW32503   0.413   2.541   2.999 -0.3661  0.1865 -0.0815
 6815SOL    HW132504   0.445   2.482   3.073 -0.1949  0.2976 -0.0677
 6815SOL    HW232505   0.313   2.547   3.003 -0.6795 -2.6930 -2.0064
 6816SOL     OW32506   4.077   6.589   9.759  0.5594 -0.0583  0.5703
 6816SOL    HW132507   4.171   6.556   9.764 -0.0143 -1.8188 -0.1292
 6816SOL    HW232508   4.047   6.593   9.664 -1.0617 -2.4293  0.9226
 6817SOL     OW32509   7.904   8.264   7.025  0.1903  0.1488  0.2216
 6817SOL    HW132510   7.883   8.259   7.123  1.9728 -1.5455  0.5415
 6817SOL    HW232511   7.851   8.338   6.984 -2.3950 -0.6587  1.9814
 6818SOL     OW32512   7.657   1.478   2.502 -0.1719 -1.0062  0.2452
 6818SOL    HW132513   7.687   1.415   2.573  1.2516 -1.3404 -0.6280
 6818SOL    HW232514   7.637   1.567   2.542  1.4617 -0.9497  0.9481
 6819SOL     OW32515   8.176   2.758   8.844  0.3070  0.3333 -0.0517
 6819SOL    HW132516   8.084   2.723   8.827  1.1693 -1.5425 -1.0407
 6819SOL    HW232517   8.218   2.786   8.758  1.8805 -2.0009 -0.0748
 6820SOL     OW32518   2.179   1.844   8.621  0.6009 -0.1221  0.1423
 6820SOL    HW132519   2.269   1.882   8.600  0.3705  0.9900  1.1354
 6820SOL    HW232520   2.170   1.754   8.578  2.1349 -0.1832 -0.0685
 6821SOL     OW32521   0.819   1.693   8.008 -0.4688  0.2079 -0.1315
 6821SOL    HW132522   0.856   1.627   8.073 -0.4121  0.4698  0.1051
 6821SOL    HW232523   0.735   1.657   7.968  0.2029 -0.5169 -0.8983
 6822SOL     OW32524   0.653   3.433   3.087 -0.6470  0.2738 -0.1861
 6822SOL    HW132525   0.737   3.473   3.122 -1.6855  1.3409  1.1569
 6822SOL    HW232526   0.675   3.358   3.024  1.2915  1.6461 -1.1692
 6823SOL     OW32527   5.237   5.774   8.730  0.0449 -0.4404 -0.0781
 6823SOL    HW132528   5.176   5.695   8.737 -0.9298  0.3773  0.5884
 6823SOL    HW232529   5.326   5.743   8.695 -0.3043 -1.8432  0.2314
 6824SOL     OW32530   1.815   1.892   7.066 -0.2150 -0.5417 -0.2050
 6824SOL    HW132531   1.872   1.969   7.037 -0.3764 -0.3274  0.0389
 6824SOL    HW232532   1.852   1.852   7.149  0.4585 -1.3956 -0.9077
 6825SOL     OW32533   6.672   1.242   7.933 -0.0384 -0.1140 -0.3756
 6825SOL    HW132534   6.626   1.219   7.847 -0.0223  2.2851 -1.0461
 6825SOL    HW232535   6.760   1.284   7.914  0.4623 -0.5885  0.8424
 6826SOL     OW32536   0.150   9.602   9.169  0.1383  0.1638  0.2011
 6826SOL    HW132537   0.060   9.627   9.134  0.5042  0.7872 -0.2836
 6826SOL    HW232538   0.221   9.655   9.123  0.6663  0.6036  1.4814
 6827SOL     OW32539   3.229   8.733   0.299  0.1184  0.2845  0.1413
 6827SOL    HW132540   3.257   8.723   0.204 -0.1286  0.9899 -0.0084
 6827SOL    HW232541   3.252   8.650   0.349  0.2269 -0.0997 -0.5381
 6828SOL     OW32542   1.657   1.636   8.401  0.0341  0.5285  0.3807
 6828SOL    HW132543   1.574   1.582   8.407 -0.3349  0.9236 -1.1030
 6828SOL    HW232544   1.701   1.622   8.312  1.5872  0.2857  1.1571
 6829SOL     OW32545   8.564   8.405   4.904 -0.5750  0.1498  0.1342
 6829SOL    HW132546   8.470   8.398   4.871 -0.0858  0.8529 -1.4509
 6829SOL    HW232547   8.595   8.315   4.934  0.2484 -1.4695 -5.0290
 6830SOL     OW32548   3.888   0.139   7.434 -0.2187  0.4918  0.0600
 6830SOL    HW132549   3.935   0.084   7.503  2.1417 -0.2277 -2.0357
 6830SOL    HW232550   3.813   0.085   7.395  0.1398 -0.1149  0.1887
 6831SOL     OW32551   6.862   3.950   6.274 -0.1319 -0.3272 -0.2364
 6831SOL    HW132552   6.794   4.020   6.252  0.0179  0.1544  0.7709
 6831SOL    HW232553   6.953   3.983   6.248 -0.2405 -0.7878 -1.1808
 6832SOL     OW32554   3.126   1.268   6.240 -0.0806  0.8580  0.2175
 6832SOL    HW132555   3.087   1.320   6.164  0.2325  1.4985  0.4943
 6832SOL    HW232556   3.087   1.300   6.326  0.1258  0.6437  0.3932
 6833SOL     OW32557   1.812   1.327   8.928 -0.7455 -0.1273  0.1665
 6833SOL    HW132558   1.798   1.421   8.961 -1.6148 -0.9911  2.3819
 6833SOL    HW232559   1.743   1.267   8.968 -0.0760 -1.7603 -1.0719
 6834SOL     OW32560   1.689   4.669   5.297 -0.5267 -0.5169 -0.2507
 6834SOL    HW132561   1.740   4.702   5.377  0.0281  1.8110 -1.5099
 6834SOL    HW232562   1.593   4.692   5.307 -0.3648  0.2727 -0.5050
 6835SOL     OW32563   1.396   0.544   6.779 -0.1540 -0.3785 -0.4174
 6835SOL    HW132564   1.335   0.496   6.841 -1.3166  2.6444  0.8632
 6835SOL    HW232565   1.349   0.564   6.693 -1.4999  3.0688  1.0403
 6836SOL     OW32566   4.318   7.395   2.448 -0.7933  0.0042 -0.7088
 6836SOL    HW132567   4.234   7.395   2.502 -1.2042 -3.1191 -1.2327
 6836SOL    HW232568   4.298   7.361   2.355  0.5865  1.6582 -1.6249
 6837SOL     OW32569   5.731   0.885   9.203 -0.1681 -0.0349  0.5045
 6837SOL    HW132570   5.687   0.917   9.119  0.4745 -0.6278 -0.0641
 6837SOL    HW232571   5.668   0.826   9.254 -0.9719  1.2615  1.0206
 6838SOL     OW32572   9.805   9.756   7.209  0.1381  0.0268 -0.7002
 6838SOL    HW132573   9.765   9.803   7.288 -0.0373 -1.3279  0.0450
 6838SOL    HW232574   9.838   9.823   7.143 -1.3367  1.1855 -0.2963
 6839SOL     OW32575   2.227   1.178   4.350  0.4735  0.0763  0.0906
 6839SOL    HW132576   2.205   1.244   4.278 -0.2290 -3.1164 -2.7917
 6839SOL    HW232577   2.143   1.152   4.398  0.5270  0.3264  0.3138
 6840SOL     OW32578   4.060   1.358   2.259  0.4526 -0.2795 -0.0022
 6840SOL    HW132579   4.085   1.455   2.259 -2.4432  0.5224  0.8329
 6840SOL    HW232580   4.035   1.329   2.167 -1.6402  0.6480  0.2280
 6841SOL     OW32581   5.003   9.168   9.939 -0.6893  0.1028  0.3740
 6841SOL    HW132582   5.088   9.219   9.945 -0.7880  0.2325  0.7021
 6841SOL    HW232583   5.017   9.084   9.887  0.1927 -1.0200  2.3932
 6842SOL     OW32584   0.509   3.314   7.308 -0.1221  0.3900 -0.4117
 6842SOL    HW132585   0.592   3.272   7.344 -2.4822 -1.4381  3.1925
 6842SOL    HW232586   0.511   3.413   7.325  2.1540  0.6731 -2.1706
 6843SOL     OW32587   3.991   4.126   9.953 -0.2882  0.1509 -0.0645
 6843SOL    HW132588   4.007   4.032   9.984 -1.1622  0.1104  0.2611
 6843SOL    HW232589   3.930   4.125   9.874  1.3581  0.3074 -1.3647
 6844SOL     OW32590   2.147   7.095   0.907  0.1086 -0.6016  0.0681
 6844SOL    HW132591   2.221   7.057   0.963 -0.6531 -0.6947  1.0347
 6844SOL    HW232592   2.145   7.049   0.819 -0.0064 -1.9499  0.7547
 6845SOL     OW32593   5.319   1.482   1.921  0.0314 -0.2603 -0.2734
 6845SOL    HW132594   5.285   1.445   2.007 -0.9179 -0.9534 -0.9436
 6845SOL    HW232595   5.383   1.417   1.879  2.0670  0.9574  0.8930
 6846SOL     OW32596   0.458   6.623   9.245 -0.1646 -0.7751  0.1154
 6846SOL    HW132597   0.553   6.593   9.244 -0.0117 -0.2959 -0.7317
 6846SOL    HW232598   0.415   6.600   9.157 -0.1778  1.0029 -0.3618
 6847SOL     OW32599   2.720   2.161   4.382 -0.0811  0.4449 -0.2052
 6847SOL    HW132600   2.811   2.131   4.352 -0.3320  0.3746 -0.8836
 6847SOL    HW232601   2.660   2.082   4.393 -0.0894  0.4997  0.1521
 6848SOL     OW32602   1.389   9.616   6.293  0.6316 -0.2653  0.5964
 6848SOL    HW132603   1.443   9.685   6.341 -0.2414  0.2788  0.7975
 6848SOL    HW232604   1.324   9.661   6.231 -0.1417 -0.8947  0.9453
 6849SOL     OW32605   4.602   0.526   5.665  0.1333 -0.0316  0.4984
 6849SOL    HW132606   4.565   0.511   5.756  0.5972  1.2834  0.9204
 6849SOL    HW232607   4.531   0.562   5.605  0.2925  0.8795  0.8502
 6850SOL     OW32608   9.499   1.468   8.737 -0.0902  0.2510  0.2939
 6850SOL    HW132609   9.586   1.452   8.784 -1.4814  0.2343  2.9673
 6850SOL    HW232610   9.511   1.452   8.639  2.9757  0.5415  0.5541
 6851SOL     OW32611   4.369   4.861   6.845  0.1663 -0.2523  0.5179
 6851SOL    HW132612   4.422   4.813   6.774  1.5978  2.2529 -0.1754
 6851SOL    HW232613   4.430   4.923   6.895 -1.5129  0.3838  1.8002
 6852SOL     OW32614   6.454   9.194   6.748  0.2426  0.0271 -0.0339
 6852SOL    HW132615   6.494   9.270   6.800  0.7263 -1.6095  2.0453
 6852SOL    HW232616   6.354   9.202   6.749  0.0799 -1.4609  3.6000
 6853SOL     OW32617   0.604   2.603   7.383  0.6411  0.2892 -0.3541
 6853SOL    HW132618   0.657   2.650   7.455  0.2624 -0.3663  0.3630
 6853SOL    HW232619   0.547   2.669   7.335 -1.3249  0.2774  1.9078
 6854SOL     OW32620   0.733   8.011   8.175  0.4939  0.4605  0.2110
 6854SOL    HW132621   0.790   8.080   8.220 -1.0294 -0.1927  3.2228
 6854SOL    HW232622   0.776   7.921   8.184  0.4793  0.4086 -0.2100
 6855SOL     OW32623   5.393   4.831   0.650  0.1923  0.4517  0.0387
 6855SOL    HW132624   5.344   4.900   0.704 -1.4731 -0.9328  0.3659
 6855SOL    HW232625   5.365   4.837   0.554  0.9180  0.9892 -0.1369
 6856SOL     OW32626   0.978   2.074   1.503 -0.2578  0.3876 -0.0301
 6856SOL    HW132627   0.931   2.002   1.452 -2.7158  2.7068 -1.2183
 6856SOL    HW232628   0.970   2.056   1.601 -1.1484 -0.7662 -0.3047
 6857SOL     OW32629   3.805   8.447   8.853 -0.2072 -0.1567 -0.5452
 6857SOL    HW132630   3.746   8.468   8.931 -0.0791 -0.5883 -0.3304
 6857SOL    HW232631   3.806   8.525   8.790  0.0329  0.3714  0.1010
 6858SOL     OW32632   9.107   8.787   3.405 -0.3876  0.0033  0.1653
 6858SOL    HW132633   9.125   8.728   3.484 -2.1105  1.7964  1.9551
 6858SOL    HW232634   9.075   8.876   3.437  0.9042  1.4787 -2.5304
 6859SOL     OW32635   3.892   0.588   3.484 -0.2524 -0.5146  0.8375
 6859SOL    HW132636   3.949   0.611   3.405 -1.0454 -1.0875  0.0889
 6859SOL    HW232637   3.950   0.546   3.555  0.3642 -0.5448  0.3257
 6860SOL     OW32638   9.814   2.192   0.253 -0.6347 -0.4355  0.3166
 6860SOL    HW132639   9.828   2.094   0.235  2.2363 -0.1532  0.7163
 6860SOL    HW232640   9.849   2.215   0.343 -0.8121  1.0580  0.0212
 6861SOL     OW32641   1.380   0.394   0.904 -0.0853  0.1257  0.1196
 6861SOL    HW132642   1.331   0.409   0.818 -1.5397  1.7900  1.2108
 6861SOL    HW232643   1.334   0.324   0.958 -1.0555  1.3838  0.9544
 6862SOL     OW32644   4.164   4.068   2.575  0.3185  0.0882  0.0151
 6862SOL    HW132645   4.109   4.048   2.494  2.7911 -0.1090 -1.6550
 6862SOL    HW232646   4.159   4.166   2.595 -0.2846  0.1412 -0.3839
 6863SOL     OW32647   4.021   2.527   7.912 -0.7607  0.0247  0.4882
 6863SOL    HW132648   3.932   2.556   7.948 -0.5848  1.2839 -0.0496
 6863SOL    HW232649   4.087   2.602   7.922 -0.4278  0.0156 -1.4154
 6864SOL     OW32650   6.902   0.241   6.022 -0.3559 -0.0378 -0.2154
 6864SOL    HW132651   6.829   0.218   6.086 -0.4713 -0.2995 -0.4384
 6864SOL    HW232652   6.986   0.260   6.072 -0.9922  1.8715  0.1453
 6865SOL     OW32653   4.321   2.862   6.364 -0.0189  0.1054 -0.1014
 6865SOL    HW132654   4.301   2.885   6.269 -0.7751 -1.1078 -0.2446
 6865SOL    HW232655   4.245   2.811   6.404  1.9163 -2.9936 -0.1159
 6866SOL     OW32656   5.646   4.184   8.783 -0.2788 -0.0705  0.2993
 6866SOL    HW132657   5.743   4.195   8.804 -0.5286  1.7828  0.5404
 6866SOL    HW232658   5.593   4.248   8.838 -1.6983 -1.5329  0.6413
 6867SOL     OW32659   2.591   4.684   5.252  0.1125 -0.2024 -0.5396
 6867SOL    HW132660   2.504   4.642   5.226  0.4615 -0.3891 -1.4176
 6867SOL    HW232661   2.647   4.698   5.171  0.7039  0.3754 -0.0351
 6868SOL     OW32662   1.036   2.302   3.085  0.4790  0.3639 -0.4410
 6868SOL    HW132663   1.022   2.400   3.098  1.4992  0.4581 -0.0576
 6868SOL    HW232664   0.971   2.251   3.141 -0.7334  0.8164 -1.4046
 6869SOL     OW32665   0.229   4.713   2.582 -0.3667  0.4911  0.2253
 6869SOL    HW132666   0.231   4.792   2.643 -0.0943 -0.6803  1.7897
 6869SOL    HW232667   0.161   4.727   2.511 -0.8400  1.8189  0.9265
 6870SOL     OW32668   4.138   1.962   8.311 -0.0586 -0.1279 -0.0124
 6870SOL    HW132669   4.110   1.983   8.218  1.6127 -2.7240 -1.1617
 6870SOL    HW232670   4.076   1.893   8.349  1.0103 -1.3035 -0.3383
 6871SOL     OW32671   1.913   9.968   7.724 -0.3420 -0.3018  0.7408
 6871SOL    HW132672   1.954   9.878   7.712 -0.6927 -0.2305 -1.1809
 6871SOL    HW232673   1.986  10.036   7.733 -0.0697 -0.6139  0.9150
 6872SOL     OW32674   1.928   3.583   3.533 -0.6456 -0.1766  0.3156
 6872SOL    HW132675   1.922   3.498   3.482 -0.8164  0.1855 -0.2719
 6872SOL    HW232676   1.996   3.574   3.606 -0.5771 -0.7701  0.1778
 6873SOL     OW32677   1.514   0.639   9.293 -0.1785 -0.0529  0.4579
 6873SOL    HW132678   1.571   0.660   9.372 -0.8119  1.3298  0.5681
 6873SOL    HW232679   1.572   0.619   9.214  0.4729  2.5297  0.2553
 6874SOL     OW32680   9.156   0.158   0.937 -0.1315 -0.1045 -0.0020
 6874SOL    HW132681   9.137   0.147   1.035 -1.0010 -0.4250 -0.2003
 6874SOL    HW232682   9.237   0.215   0.925  0.8968 -1.3325  0.9336
 6875SOL     OW32683   3.670   9.624   9.466 -1.0553  0.5813  0.6493
 6875SOL    HW132684   3.686   9.701   9.404 -2.0766  0.8794  0.7551
 6875SOL    HW232685   3.682   9.653   9.560  3.8836 -0.6533  0.5471
 6876SOL     OW32686   4.137   1.299   5.402  0.0562  0.5532 -0.0882
 6876SOL    HW132687   4.209   1.277   5.467  0.4917  0.3150 -0.6487
 6876SOL    HW232688   4.178   1.320   5.313 -0.5683  0.3540 -0.4222
 6877SOL     OW32689   0.048   7.856   8.938 -0.0965 -0.1610  0.2267
 6877SOL    HW132690  -0.034   7.910   8.956 -1.5160 -1.6876 -1.5423
 6877SOL    HW232691   0.127   7.918   8.931 -1.6708  1.6943 -1.7317
 6878SOL     OW32692   4.735   0.559   7.858 -0.6012  0.3026 -0.4391
 6878SOL    HW132693   4.742   0.657   7.836 -0.1942  0.1845 -0.8239
 6878SOL    HW232694   4.824   0.525   7.888 -0.3984 -0.2856 -1.6820
 6879SOL     OW32695   6.561   2.423   7.468  0.5150 -0.1368 -0.9062
 6879SOL    HW132696   6.556   2.324   7.452  0.1321 -0.1739 -0.5665
 6879SOL    HW232697   6.638   2.443   7.528 -1.1787 -0.5581  1.5119
 6880SOL     OW32698   6.272   1.458   2.510  0.2007  0.5319 -0.0097
 6880SOL    HW132699   6.346   1.392   2.498 -0.6402 -0.4271 -0.0713
 6880SOL    HW232700   6.238   1.487   2.421 -1.1048 -0.9067 -0.0123
 6881SOL     OW32701   2.202   1.885   5.375  0.3973  0.0794  0.2105
 6881SOL    HW132702   2.242   1.863   5.464  0.0354  0.3396  0.4392
 6881SOL    HW232703   2.267   1.861   5.303 -0.4287 -2.8403  0.3858
 6882SOL     OW32704   6.004   5.154   0.011 -0.6368 -0.4225 -0.2287
 6882SOL    HW132705   5.965   5.081   0.067 -1.1179 -0.8989 -1.1871
 6882SOL    HW232706   5.996   5.241   0.060  0.5718 -1.1052  1.2204
 6883SOL     OW32707   9.247   5.658   0.317 -0.6874 -0.2643  0.3419
 6883SOL    HW132708   9.253   5.758   0.323 -2.4454 -0.0912 -0.5141
 6883SOL    HW232709   9.295   5.617   0.395  2.0047  1.1714 -0.4707
 6884SOL     OW32710   7.011   0.889   2.517  0.2360 -0.7728  0.4241
 6884SOL    HW132711   7.037   0.985   2.527  1.2955 -1.1434  1.4496
 6884SOL    HW232712   6.912   0.882   2.512  0.1959  0.4684 -0.9104
 6885SOL     OW32713   3.464   0.886   0.581  0.1727 -0.3660 -0.5477
 6885SOL    HW132714   3.390   0.953   0.577  1.5113  1.0971 -1.4038
 6885SOL    HW232715   3.524   0.898   0.502  2.1407 -0.5768  0.8728
 6886SOL     OW32716   2.516   3.862   9.761 -0.3095  0.0704  0.4435
 6886SOL    HW132717   2.522   3.961   9.751 -3.0286  0.3911  1.5090
 6886SOL    HW232718   2.420   3.835   9.770  0.2565 -2.8692 -1.6557
 6887SOL     OW32719   6.322   6.877   3.966 -0.2837 -0.5640 -0.1329
 6887SOL    HW132720   6.317   6.949   4.035 -2.2975 -0.7007 -0.1172
 6887SOL    HW232721   6.259   6.898   3.891  1.5552 -0.6265 -1.7557
 6888SOL     OW32722   6.034   5.445   1.811  0.6227  0.2401 -0.2120
 6888SOL    HW132723   6.065   5.350   1.821 -2.2153 -0.5830  1.3870
 6888SOL    HW232724   6.042   5.492   1.899 -0.1356  0.7978 -0.4366
 6889SOL     OW32725   0.390   9.358   9.449  0.0544 -0.3629 -0.2203
 6889SOL    HW132726   0.430   9.366   9.540  0.2730 -0.0806 -0.3426
 6889SOL    HW232727   0.442   9.292   9.395 -0.9680 -1.6762  0.3531
 6890SOL     OW32728   3.318   2.517   7.985  0.3267  0.0333 -0.2905
 6890SOL    HW132729   3.321   2.612   8.017 -1.3094  0.0535 -0.1485
 6890SOL    HW232730   3.236   2.504   7.930  0.6034 -1.2822 -0.3969
 6891SOL     OW32731   9.582   6.611   3.605  0.0056  0.2724  0.0799
 6891SOL    HW132732   9.561   6.570   3.516  2.3410  0.7819 -0.7228
 6891SOL    HW232733   9.647   6.553   3.654  0.8521  1.3826  0.2853
 6892SOL     OW32734   3.603   4.320   9.551 -0.7430 -0.9522  0.1627
 6892SOL    HW132735   3.540   4.340   9.626  0.2457 -2.6215  1.4660
 6892SOL    HW232736   3.631   4.224   9.556  2.1040 -0.1594 -0.2455
 6893SOL     OW32737   2.923   1.308   1.999  0.0383 -0.1220  0.4039
 6893SOL    HW132738   2.904   1.264   1.911  0.7415 -0.1975  0.2866
 6893SOL    HW232739   2.844   1.362   2.027 -0.0677  0.1710 -0.4336
 6894SOL     OW32740   3.147   3.207   7.934 -0.2565 -0.2807  0.1356
 6894SOL    HW132741   3.209   3.283   7.954  0.4070 -1.0373  1.0347
 6894SOL    HW232742   3.084   3.233   7.861  0.3357  0.9262  0.0424
 6895SOL     OW32743   3.649   1.645   6.150 -0.4373 -0.0548  0.4411
 6895SOL    HW132744   3.697   1.558   6.161 -1.9632 -0.6195  3.1149
 6895SOL    HW232745   3.570   1.633   6.090 -0.8649 -0.6374  1.1093
 6896SOL     OW32746   0.942   2.231   8.529 -0.0578 -0.0554  0.2578
 6896SOL    HW132747   0.901   2.309   8.576  0.3337  0.6407 -0.5354
 6896SOL    HW232748   1.039   2.250   8.513  0.0126 -0.6642 -0.0240
 6897SOL     OW32749   6.371   3.716   2.210 -0.0308 -0.2923  0.0017
 6897SOL    HW132750   6.281   3.683   2.182 -1.6789  0.6322  3.7909
 6897SOL    HW232751   6.395   3.798   2.158 -2.9181  1.3583  1.1622
 6898SOL     OW32752   8.138   2.965   9.601  0.4774 -0.1634  0.1510
 6898SOL    HW132753   8.104   3.032   9.536 -1.5153 -0.7488  0.5568
 6898SOL    HW232754   8.196   2.898   9.554  0.3916  0.3606 -0.7016
 6899SOL     OW32755   3.748   8.133   7.333  0.3624  0.4024  0.2142
 6899SOL    HW132756   3.706   8.208   7.384  0.4996 -0.3480  1.4459
 6899SOL    HW232757   3.683   8.100   7.265 -1.1492 -0.8210  2.1856
 6900SOL     OW32758   4.099   0.329   6.679  0.5978 -0.3771  0.0170
 6900SOL    HW132759   4.168   0.347   6.749 -1.3604 -2.6516  2.5959
 6900SOL    HW232760   4.035   0.406   6.675  0.4176 -0.4561  1.1382
 6901SOL     OW32761   1.962   2.029   9.996  0.1550 -0.0245  0.0649
 6901SOL    HW132762   1.978   1.944   9.947 -0.7087 -0.1545  0.0004
 6901SOL    HW232763   1.864   2.050   9.995  0.4890  1.5662 -0.9062
 6902SOL     OW32764   1.242   0.545   6.550  0.1202  0.0864  0.2153
 6902SOL    HW132765   1.186   0.465   6.526 -3.3239  2.1113  1.1268
 6902SOL    HW232766   1.260   0.600   6.469 -2.4654  1.3707  0.4672
 6903SOL     OW32767   2.367   2.019   6.880  0.4621 -0.0193  0.3883
 6903SOL    HW132768   2.297   1.973   6.935 -0.3730 -0.4626 -1.0025
 6903SOL    HW232769   2.457   1.983   6.904 -0.0270 -1.2008  0.4826
 6904SOL     OW32770   1.142   2.296   9.929 -0.2728  0.0161 -0.5737
 6904SOL    HW132771   1.111   2.205   9.903  0.3131  0.0973 -1.5640
 6904SOL    HW232772   1.193   2.290  10.015 -0.9688 -0.4606 -0.1945
 6905SOL     OW32773   2.293   3.415   2.338  0.0990  0.4034  0.2106
 6905SOL    HW132774   2.219   3.349   2.323 -0.2579  0.9270 -0.3602
 6905SOL    HW232775   2.341   3.392   2.422 -0.3984 -0.2401  0.3245
 6906SOL     OW32776   3.147   2.674   3.392  0.4889 -0.1653  0.8181
 6906SOL    HW132777   3.232   2.639   3.354  0.0378 -1.5960  1.0758
 6906SOL    HW232778   3.096   2.598   3.433  0.2989  1.1091  2.9825
 6907SOL     OW32779   4.360   5.935   1.874 -0.0382  0.0817  0.5697
 6907SOL    HW132780   4.376   5.886   1.789 -3.0003  0.7276 -0.4265
 6907SOL    HW232781   4.324   5.873   1.943  0.2696  0.0035  0.6608
 6908SOL     OW32782   0.442   5.552   0.576  0.4507  0.2265  0.0936
 6908SOL    HW132783   0.390   5.502   0.506  1.8238 -2.7415  1.1081
 6908SOL    HW232784   0.523   5.592   0.534  0.6944 -0.6111 -0.2490
 6909SOL     OW32785   2.494   8.135   6.143 -0.1203 -1.1263 -0.0481
 6909SOL    HW132786   2.574   8.080   6.123  2.0390  0.7306  3.0850
 6909SOL    HW232787   2.421   8.077   6.179 -0.0408 -2.7231 -2.3222
 6910SOL     OW32788   9.695   0.133   4.542  0.7684  0.1417  0.1564
 6910SOL    HW132789   9.792   0.157   4.550  0.7444  0.3133 -0.0458
 6910SOL    HW232790   9.671   0.124   4.445  0.9906 -1.6273  0.2519
 6911SOL     OW32791   0.004   8.462   9.249  0.0161 -0.1259 -0.0678
 6911SOL    HW132792  -0.092   8.459   9.278 -0.1081  0.5806 -0.3875
 6911SOL    HW232793   0.015   8.528   9.175  0.7681 -0.1475  0.0141
 6912SOL     OW32794   4.697   4.772   3.666  0.1256 -0.4238 -0.6921
 6912SOL    HW132795   4.623   4.716   3.628  0.9246  0.5655 -3.8142
 6912SOL    HW232796   4.689   4.866   3.632  1.7439  0.1547  0.4586
 6913SOL     OW32797   3.271   5.272   7.466 -0.1068  0.3496 -0.1327
 6913SOL    HW132798   3.257   5.371   7.459  1.6395  0.5530 -1.1230
 6913SOL    HW232799   3.311   5.238   7.381 -0.2244 -1.1412  0.3851
 6914SOL     OW32800   3.860   4.897   8.910  0.1279 -0.1230 -0.2760
 6914SOL    HW132801   3.811   4.891   8.823 -0.2996  0.3634 -0.0685
 6914SOL    HW232802   3.801   4.939   8.978  0.6251 -0.0912  0.1339
 6915SOL     OW32803   8.896   2.222   1.783  0.1121 -0.0080  0.2295
 6915SOL    HW132804   8.847   2.173   1.711  0.1845  1.8268 -1.1039
 6915SOL    HW232805   8.884   2.174   1.870  0.2532 -2.4122 -1.0315
 6916SOL     OW32806   3.969   7.980   7.827 -0.4012 -0.0140 -0.1596
 6916SOL    HW132807   3.914   8.029   7.895 -0.2321  0.1660 -0.1519
 6916SOL    HW232808   3.955   7.882   7.837  0.5061 -0.0433  0.8907
 6917SOL     OW32809   8.002   0.444   0.235  0.1274 -0.2894  0.5356
 6917SOL    HW132810   8.078   0.458   0.299  1.4485 -0.3623 -0.9851
 6917SOL    HW232811   8.035   0.395   0.154 -1.7932 -1.2988  0.3397
 6918SOL     OW32812   7.343   0.678   5.959  0.3031 -0.3855  0.1390
 6918SOL    HW132813   7.345   0.777   5.977 -0.7316 -0.1061 -1.1800
 6918SOL    HW232814   7.343   0.629   6.046 -0.3816  0.8085  0.8366
 6919SOL     OW32815   6.194   5.943   1.538 -0.3752 -0.3324  0.0253
 6919SOL    HW132816   6.281   5.981   1.569  0.8685 -1.2602 -2.1963
 6919SOL    HW232817   6.119   5.989   1.586  1.2033  2.4575 -0.0419
 6920SOL     OW32818   3.549   9.944   1.365 -0.4303 -0.3800  0.1986
 6920SOL    HW132819   3.540   9.941   1.464  0.9206  0.7033  0.3757
 6920SOL    HW232820   3.616   9.876   1.336  0.0275  0.0815  0.1564
 6921SOL     OW32821   5.059   6.012   7.483  0.1076  0.3896 -0.2856
 6921SOL    HW132822   5.143   6.036   7.531 -0.7545  1.4418  0.7143
 6921SOL    HW232823   5.075   5.931   7.426  1.3140 -0.5152  1.2912
 6922SOL     OW32824   9.638   3.635   3.091  0.0429 -0.5500 -0.2794
 6922SOL    HW132825   9.705   3.581   3.039  1.9020  1.6161 -0.2221
 6922SOL    HW232826   9.683   3.677   3.170 -0.8336  2.7225 -1.4402
 6923SOL     OW32827   2.477   0.428   3.415  0.3359 -0.2796 -0.4557
 6923SOL    HW132828   2.499   0.481   3.497  2.2467  1.4264 -2.0223
 6923SOL    HW232829   2.493   0.484   3.334 -0.7350 -2.2184 -2.0394
 6924SOL     OW32830   9.999   9.435   1.186 -0.0612 -0.1782 -0.0941
 6924SOL    HW132831   9.912   9.464   1.226 -0.5266  0.4027 -1.4674
 6924SOL    HW232832  10.049   9.515   1.153  1.6527 -0.3773  1.9310
 6925SOL     OW32833   1.713   7.722   1.778  0.0225 -0.0860 -0.0812
 6925SOL    HW132834   1.649   7.682   1.712  1.2080 -0.7566 -0.8405
 6925SOL    HW232835   1.801   7.739   1.733  0.1687  1.4805  0.7722
 6926SOL     OW32836   3.564   9.211   9.048 -0.1349  0.3259  0.4466
 6926SOL    HW132837   3.661   9.217   9.028 -0.3591 -2.4418 -1.7687
 6926SOL    HW232838   3.548   9.134   9.110 -1.1936 -1.0340 -1.4807
 6927SOL     OW32839   0.134   9.833   1.660  0.4685 -0.1489 -0.1155
 6927SOL    HW132840   0.075   9.763   1.621 -0.9442  1.1251 -0.2908
 6927SOL    HW232841   0.195   9.869   1.590 -0.2763  0.2939 -0.5391
 6928SOL     OW32842   3.974   1.940   5.125  0.3237 -0.0769  0.0713
 6928SOL    HW132843   3.945   2.031   5.097  2.6068  0.5499 -0.3558
 6928SOL    HW232844   3.905   1.873   5.098 -1.2741  1.4862  0.1917
 6929SOL     OW32845   0.795   1.798   3.638 -0.2655  0.2400  0.2949
 6929SOL    HW132846   0.785   1.840   3.729 -0.6749  0.5911  0.0889
 6929SOL    HW232847   0.871   1.841   3.590  0.8281 -0.8853  0.9960
 6930SOL     OW32848   7.242   9.095   0.589  0.2931 -0.1658 -0.1905
 6930SOL    HW132849   7.248   9.015   0.649 -0.3981 -0.0525  0.0338
 6930SOL    HW232850   7.307   9.085   0.513  0.7165 -0.6060  0.2256
 6931SOL     OW32851   8.520   1.807   9.237  0.4844  0.2175  0.1931
 6931SOL    HW132852   8.493   1.741   9.166  2.4950 -0.1218 -0.3024
 6931SOL    HW232853   8.474   1.894   9.221 -1.3789 -0.7186  0.2234
 6932SOL     OW32854   0.693   9.698   9.150 -0.0780  0.2059  0.5296
 6932SOL    HW132855   0.625   9.626   9.136 -0.2047  0.5351 -0.5535
 6932SOL    HW232856   0.783   9.656   9.163 -0.4525 -0.2238  1.8473
 6933SOL     OW32857   6.100   5.762   0.342 -0.0163 -0.1183  0.0484
 6933SOL    HW132858   6.157   5.754   0.261  0.4406  1.1362  0.2390
 6933SOL    HW232859   6.021   5.820   0.322  1.0193  1.6546  0.9831
 6934SOL     OW32860   2.159   9.247   5.650  0.0871 -0.6303  0.3463
 6934SOL    HW132861   2.256   9.252   5.674  0.0768 -0.3491  0.3337
 6934SOL    HW232862   2.149   9.201   5.562  0.4774  2.2216 -1.2655
 6935SOL     OW32863   1.544   5.095   0.799  0.4623 -0.0884 -0.2011
 6935SOL    HW132864   1.475   5.074   0.868 -0.2199  1.6222 -0.3404
 6935SOL    HW232865   1.513   5.062   0.710 -0.0910  0.5151 -0.2310
 6936SOL     OW32866   3.425   9.743   5.508  0.8676 -0.3638 -0.3930
 6936SOL    HW132867   3.521   9.769   5.500  0.8204  0.2764  0.9840
 6936SOL    HW232868   3.368   9.817   5.471  0.8801 -0.3278 -0.3428
 6937SOL     OW32869   3.578   6.784   1.060  0.0426 -0.2168 -0.2457
 6937SOL    HW132870   3.562   6.819   0.968 -1.5004  1.7060  0.7462
 6937SOL    HW232871   3.589   6.860   1.124 -0.6917 -1.5412  1.4867
 6938SOL     OW32872   7.610   0.344   1.414  0.0106 -0.1809 -0.1134
 6938SOL    HW132873   7.586   0.252   1.384  1.6496 -0.7878  0.3603
 6938SOL    HW232874   7.703   0.343   1.451 -0.9595  1.0809  2.5055
 6939SOL     OW32875   5.433   5.648   7.226  0.1999 -0.1572 -0.0668
 6939SOL    HW132876   5.443   5.667   7.128  0.3616  1.6456  0.2953
 6939SOL    HW232877   5.475   5.559   7.246  1.7926  0.2716 -1.3351
 6940SOL     OW32878   3.032   6.129   2.041 -0.2910 -0.1545 -0.0144
 6940SOL    HW132879   3.122   6.170   2.030 -1.2258  1.5628 -1.5556
 6940SOL    HW232880   2.978   6.185   2.104 -0.5050 -0.7885  0.3622
 6941SOL     OW32881   9.262   3.682   1.679 -0.7000 -0.2444  0.3124
 6941SOL    HW132882   9.301   3.725   1.760 -0.8035 -0.8011  0.6538
 6941SOL    HW232883   9.260   3.583   1.690  1.7327 -0.5414 -1.4454
 6942SOL     OW32884   0.901   1.941   1.065 -0.0264  0.2129  0.4770
 6942SOL    HW132885   0.947   1.852   1.060  0.4038  0.4008  1.0740
 6942SOL    HW232886   0.953   2.002   1.124  0.1148  1.1387 -0.6003
 6943SOL     OW32887   5.505   3.809   0.681  0.3231  0.1219  0.0364
 6943SOL    HW132888   5.472   3.891   0.634  0.2393  0.0700  0.0045
 6943SOL    HW232889   5.444   3.789   0.758 -1.0388 -1.2870 -1.3855
 6944SOL     OW32890   8.588   5.146   4.153  0.2232  0.0321  0.2172
 6944SOL    HW132891   8.491   5.129   4.135  0.2766 -0.4536  0.3801
 6944SOL    HW232892   8.600   5.177   4.247 -0.0732  2.7211 -0.5812
 6945SOL     OW32893   6.382   3.917   3.624  0.4292 -0.1716 -0.1722
 6945SOL    HW132894   6.437   3.964   3.693  0.8334  0.3494 -0.8469
 6945SOL    HW232895   6.303   3.875   3.668 -0.2749  1.6477  0.3561
 6946SOL     OW32896   0.587   5.022   1.678 -0.1978  0.3577 -0.4334
 6946SOL    HW132897   0.562   5.033   1.774 -0.3946 -0.9473 -0.3204
 6946SOL    HW232898   0.506   5.038   1.621 -1.1099 -2.8561 -0.1263
 6947SOL     OW32899   3.429   1.500   7.235 -0.2703 -0.0904  0.6616
 6947SOL    HW132900   3.426   1.530   7.331 -0.2969 -0.4004  0.7597
 6947SOL    HW232901   3.408   1.402   7.231  0.6226 -0.2790  0.4307
 6948SOL     OW32902   1.451   0.763   5.014 -0.1380  0.3988  0.4035
 6948SOL    HW132903   1.394   0.791   4.936  1.4867 -0.6174 -1.1979
 6948SOL    HW232904   1.490   0.844   5.057  1.5614  0.8413 -1.8935
 6949SOL     OW32905   3.111   4.894   1.847  0.2289  0.2671 -0.0514
 6949SOL    HW132906   3.163   4.811   1.830  0.2618  0.5696 -1.4659
 6949SOL    HW232907   3.153   4.944   1.924  1.4611  0.0228 -0.5498
 6950SOL     OW32908   4.840   0.023   8.394  0.2415 -0.5494 -0.3128
 6950SOL    HW132909   4.919   0.084   8.385  0.1531 -0.4707 -0.5630
 6950SOL    HW232910   4.758   0.069   8.360 -0.3866  0.3020  2.2221
 6951SOL     OW32911   3.590   3.263   7.167  0.2253 -0.4015 -0.1818
 6951SOL    HW132912   3.523   3.337   7.168  0.1855 -0.4355 -0.4540
 6951SOL    HW232913   3.676   3.296   7.128 -0.2893 -0.9325 -1.8115
 6952SOL     OW32914   1.965   2.222   9.807 -0.9006  0.6547  0.0123
 6952SOL    HW132915   1.995   2.151   9.871  0.1631  1.2486  0.1863
 6952SOL    HW232916   2.004   2.204   9.717 -2.7403 -0.4148 -0.5904
 6953SOL     OW32917   0.533   6.799   1.225  0.3857 -0.0596 -0.1865
 6953SOL    HW132918   0.534   6.845   1.136  2.2516  0.3509  0.0275
 6953SOL    HW232919   0.446   6.750   1.236 -0.2502  0.6578 -1.8271
 6954SOL     OW32920   2.267   1.595   6.481 -0.1620 -0.3467  0.5476
 6954SOL    HW132921   2.288   1.667   6.548 -0.9962  0.6745 -0.2656
 6954SOL    HW232922   2.176   1.612   6.442 -0.5757 -2.1162  0.6852
 6955SOL     OW32923   4.924   8.938   5.956  0.5335 -0.0606  0.2740
 6955SOL    HW132924   4.912   8.896   5.866 -0.1283 -0.9324  0.7660
 6955SOL    HW232925   4.950   9.034   5.944  3.5794 -0.9740 -0.8743
 6956SOL     OW32926   1.097   8.396   6.709  0.6346 -0.1836 -0.8014
 6956SOL    HW132927   1.127   8.367   6.799  0.6882 -1.5264 -1.2454
 6956SOL    HW232928   1.176   8.420   6.653  0.6832 -0.5267 -0.8829
 6957SOL     OW32929   2.320   1.227   3.299  0.0010 -0.0727 -0.3206
 6957SOL    HW132930   2.254   1.215   3.225 -0.8861 -1.1479  0.6173
 6957SOL    HW232931   2.352   1.137   3.330  2.3235  0.4419 -1.1009
 6958SOL     OW32932   4.020   5.143   7.811  0.1497  0.3630 -0.1211
 6958SOL    HW132933   3.923   5.121   7.804  0.1309  0.6528 -0.7726
 6958SOL    HW232934   4.048   5.197   7.732  1.0803 -0.5788 -0.4460
 6959SOL     OW32935   3.972   4.112   0.356 -0.4283  0.2017  0.3726
 6959SOL    HW132936   3.879   4.148   0.353 -1.3133 -2.0819 -0.1353
 6959SOL    HW232937   4.035   4.178   0.314 -1.9281  1.3468 -0.1049
 6960SOL     OW32938   4.782   4.219   8.129  0.2279 -0.0142  0.4504
 6960SOL    HW132939   4.828   4.176   8.207 -0.6174  0.9927  1.5150
 6960SOL    HW232940   4.717   4.287   8.162  0.1652  0.7241 -1.1580
 6961SOL     OW32941   1.043   2.930   2.122 -0.1451 -0.0352 -0.7044
 6961SOL    HW132942   0.986   2.882   2.055  1.5355  0.0543 -2.2393
 6961SOL    HW232943   1.050   2.875   2.205 -1.0834 -0.8145 -1.1272
 6962SOL     OW32944   4.567   7.794   3.472 -0.3127 -0.3707  0.0304
 6962SOL    HW132945   4.476   7.778   3.434 -0.2927 -0.4469  0.0139
 6962SOL    HW232946   4.629   7.826   3.400 -0.1620 -0.9443 -0.0943
 6963SOL     OW32947   6.219   7.735   3.424  0.4294 -0.2944 -0.1003
 6963SOL    HW132948   6.169   7.767   3.505  0.4573 -0.2140 -0.1148
 6963SOL    HW232949   6.198   7.639   3.408  0.3512 -0.2855 -0.0519
 6964SOL     OW32950   0.653   0.414   0.846  0.4278 -0.6963 -0.1149
 6964SOL    HW132951   0.662   0.382   0.940 -0.0050 -0.0213  0.1680
 6964SOL    HW232952   0.721   0.370   0.788  1.7442  0.0534  0.8307
 6965SOL     OW32953   8.317   6.526   7.834 -0.5488 -0.6431 -0.3632
 6965SOL    HW132954   8.329   6.428   7.849 -0.8244 -0.6367 -0.0920
 6965SOL    HW232955   8.394   6.576   7.874 -0.6915 -0.7088 -0.0081
 6966SOL     OW32956   0.760   1.886   0.457  0.2560 -0.1669  0.4500
 6966SOL    HW132957   0.702   1.845   0.387  2.0046  0.1147 -1.1986
 6966SOL    HW232958   0.755   1.832   0.541 -0.5714 -1.4425 -0.4145
 6967SOL     OW32959   5.374   4.732   1.207 -0.3476  0.1356  0.0422
 6967SOL    HW132960   5.377   4.744   1.108  0.8990  0.0664  0.0573
 6967SOL    HW232961   5.384   4.635   1.229  1.1392  0.3161  0.2714
 6968SOL     OW32962   4.698   5.030   3.512 -0.5426 -0.0070 -0.0640
 6968SOL    HW132963   4.734   4.986   3.430 -1.4474  0.5138 -0.7529
 6968SOL    HW232964   4.771   5.080   3.558  0.2089 -1.1700  0.0416
 6969SOL     OW32965   3.681   9.766   5.441  0.7408 -0.5353 -0.4156
 6969SOL    HW132966   3.699   9.727   5.351  1.1174  1.0834 -1.0616
 6969SOL    HW232967   3.768   9.783   5.488  0.5343 -1.8178  0.4651
 6970SOL     OW32968   2.738   6.990   1.900  0.4103 -0.4977  0.1880
 6970SOL    HW132969   2.831   6.955   1.908 -0.0680 -1.9400 -0.3822
 6970SOL    HW232970   2.686   6.967   1.982  0.0578 -1.2561 -0.2425
 6971SOL     OW32971   0.635   1.705   6.553  0.8125  0.0130 -0.4316
 6971SOL    HW132972   0.579   1.622   6.562  2.1297 -0.8878 -0.3841
 6971SOL    HW232973   0.578   1.785   6.568  0.1788 -0.9779  3.0231
 6972SOL     OW32974   7.956   0.486   3.107  0.0643  0.4344  0.1876
 6972SOL    HW132975   7.868   0.532   3.109  0.3406  1.0035 -0.4766
 6972SOL    HW232976   7.943   0.388   3.117 -0.8648  0.2317 -2.7705
 6973SOL     OW32977   6.070   9.516   5.499 -0.2222 -0.2581 -0.0389
 6973SOL    HW132978   6.011   9.535   5.578 -0.4028  0.7192 -0.4096
 6973SOL    HW232979   6.064   9.419   5.476  0.7487 -0.8033  1.8976
 6974SOL     OW32980   9.914   1.758   2.243 -0.3746  0.1367 -0.1080
 6974SOL    HW132981   9.861   1.727   2.323 -0.1913  1.0552  0.3843
 6974SOL    HW232982   9.861   1.743   2.160 -1.2527  0.6814  0.3458
 6975SOL     OW32983   1.585   8.539   0.546  0.7634  0.3557 -0.3362
 6975SOL    HW132984   1.636   8.617   0.580  0.2593  0.5363  0.0154
 6975SOL    HW232985   1.532   8.498   0.621  0.3830  0.1836 -0.6939
 6976SOL     OW32986   3.005   8.475   2.029  0.4356  0.0797  0.0351
 6976SOL    HW132987   3.069   8.472   1.953  0.4866 -2.1303  0.1347
 6976SOL    HW232988   2.918   8.432   2.001  0.0161  0.4096  0.8144
 6977SOL     OW32989   1.378   0.767   2.333  0.0002  0.2681 -0.9499
 6977SOL    HW132990   1.343   0.747   2.425  1.8391  0.2212 -0.2418
 6977SOL    HW232991   1.355   0.861   2.308 -0.2762  0.3689 -0.3228
 6978SOL     OW32992   2.018   9.389   7.932  0.3681  0.1761 -0.6678
 6978SOL    HW132993   1.966   9.464   7.974 -0.4570  1.0676 -3.1526
 6978SOL    HW232994   2.115   9.412   7.932  0.2812  0.5718 -0.0947
 6979SOL     OW32995   5.276   5.071   9.583  0.1396  0.3243 -0.1827
 6979SOL    HW132996   5.318   4.982   9.603  1.0629  1.3432  2.5895
 6979SOL    HW232997   5.183   5.073   9.620  0.3401  0.7080  0.3126
 6980SOL     OW32998   0.888   0.766   8.562 -0.2293  0.6271 -0.4466
 6980SOL    HW132999   0.967   0.720   8.521  0.0558  1.8020 -1.2330
 6980SOL    HW233000   0.836   0.700   8.617  1.6528 -0.0019  0.6134
 6981SOL     OW33001   8.722   9.703   5.427 -0.0809 -0.0802 -0.4791
 6981SOL    HW133002   8.722   9.774   5.497  0.0884  1.2957 -1.8374
 6981SOL    HW233003   8.744   9.615   5.469 -2.3951  0.2726  1.5815
 6982SOL     OW33004   3.738   4.179   9.178 -0.2218  0.4400  0.2331
 6982SOL    HW133005   3.679   4.113   9.226 -0.1706 -0.2796 -0.6945
 6982SOL    HW233006   3.712   4.272   9.206 -1.5292  0.1161  0.1443
 6983SOL     OW33007   3.245   0.870   9.655  0.3745  0.3238 -0.3954
 6983SOL    HW133008   3.275   0.778   9.627  1.4530  1.4269 -3.0725
 6983SOL    HW233009   3.258   0.933   9.578  0.2801  2.8622  1.6246
 6984SOL     OW33010   1.085   0.647   3.145  0.0636  0.5631  0.4362
 6984SOL    HW133011   1.012   0.591   3.106 -0.6043  1.0385  0.9904
 6984SOL    HW233012   1.132   0.596   3.217 -1.0626  0.9803  1.4921
 6985SOL     OW33013   5.156   6.026   7.998 -0.7739 -0.3769  0.2253
 6985SOL    HW133014   5.221   5.955   7.971 -0.5285 -0.3672  0.7950
 6985SOL    HW233015   5.083   6.032   7.929  0.1785  0.0647 -0.7589
 6986SOL     OW33016   1.202   2.589   3.977  0.1181  0.0528  0.6838
 6986SOL    HW133017   1.194   2.689   3.970 -0.9724 -0.1293 -1.1296
 6986SOL    HW233018   1.196   2.562   4.073 -0.3970  1.6826  1.1353
 6987SOL     OW33019   2.259   5.368   8.413  0.4148  0.2954  0.4552
 6987SOL    HW133020   2.256   5.352   8.511 -0.7339  0.8721  0.5171
 6987SOL    HW233021   2.198   5.304   8.366 -0.1643  0.9897  0.2514
 6988SOL     OW33022   6.298   6.895   1.317  0.4979  0.9879  0.0367
 6988SOL    HW133023   6.227   6.960   1.345  1.3803  1.7777  0.4650
 6988SOL    HW233024   6.263   6.802   1.325 -0.4463  1.3641  0.3611
 6989SOL     OW33025   3.051   9.444   6.211  0.6131 -0.7320 -0.1889
 6989SOL    HW133026   2.994   9.518   6.177 -0.8173 -2.1226 -0.8848
 6989SOL    HW233027   3.095   9.398   6.134 -0.9232 -2.5212 -0.0354
 6990SOL     OW33028   1.662   4.470   4.294 -0.2219  0.3294 -0.2975
 6990SOL    HW133029   1.711   4.495   4.211  0.1375  0.6566  0.0147
 6990SOL    HW233030   1.706   4.391   4.336 -1.3083 -0.8012 -1.2402
 6991SOL     OW33031   0.855   0.427   2.795  0.3165 -0.1898 -0.2598
 6991SOL    HW133032   0.927   0.464   2.736  0.2352 -1.4186 -1.1754
 6991SOL    HW233033   0.775   0.405   2.739 -0.6905  0.9439  0.7112
 6992SOL     OW33034   3.795   1.829   2.010 -0.1861  0.3068  0.0877
 6992SOL    HW133035   3.860   1.827   1.934  0.0639 -2.1430  0.3028
 6992SOL    HW233036   3.703   1.844   1.976 -0.3957 -3.0409 -1.0264
 6993SOL     OW33037   8.773   2.515   2.344  0.2043 -0.3780 -0.1864
 6993SOL    HW133038   8.757   2.416   2.350 -1.7269  0.0628  2.8432
 6993SOL    HW233039   8.865   2.536   2.376 -0.5822 -0.8879  2.5060
 6994SOL     OW33040   5.223   0.203   3.023  0.4074  0.0929  0.5470
 6994SOL    HW133041   5.295   0.256   3.067  0.5221 -0.4125  0.9670
 6994SOL    HW233042   5.149   0.187   3.088 -0.5553  1.4988 -0.1805
 6995SOL     OW33043   5.316   8.866   6.975 -0.0354  0.0384  0.0082
 6995SOL    HW133044   5.393   8.834   6.921  0.2363  0.1968  0.3008
 6995SOL    HW233045   5.253   8.917   6.916 -1.5506 -2.7981 -0.9215
 6996SOL     OW33046   1.380   4.459   5.103 -0.5355 -0.3437 -0.1178
 6996SOL    HW133047   1.289   4.422   5.124 -1.4287  1.8323 -0.0247
 6996SOL    HW233048   1.394   4.544   5.154  1.0428  0.0050 -1.1064
 6997SOL     OW33049   9.406   2.655   1.333 -0.0840 -0.0498 -0.3789
 6997SOL    HW133050   9.443   2.642   1.241  1.0174 -0.3835  0.0905
 6997SOL    HW233051   9.460   2.601   1.398 -1.2396 -0.3150  0.3827
 6998SOL     OW33052   3.282   8.275   7.363 -0.2253 -0.0772 -0.0050
 6998SOL    HW133053   3.212   8.286   7.292 -1.6625 -1.5628  1.1487
 6998SOL    HW233054   3.293   8.361   7.412 -1.0326  0.2525 -0.3824
 6999SOL     OW33055   2.423   2.663   0.658 -0.0304 -0.1201  0.5299
 6999SOL    HW133056   2.478   2.733   0.613 -0.5643  1.0680  1.7281
 6999SOL    HW233057   2.483   2.587   0.686  0.4045 -0.5842 -1.5648
 7000SOL     OW33058   9.837   2.201   5.321  0.0400 -0.0782 -0.2080
 7000SOL    HW133059   9.838   2.293   5.282  0.2994  0.8280  1.8414
 7000SOL    HW233060   9.743   2.173   5.338  0.0287  0.5683  0.8410
 7001SOL     OW33061   1.658   0.756   8.386  0.1073 -0.1996 -0.1182
 7001SOL    HW133062   1.563   0.769   8.356  0.9304 -2.7089 -4.1089
 7001SOL    HW233063   1.660   0.691   8.462 -1.3117 -0.7908 -0.5618
 7002SOL     OW33064   0.952   5.092   3.335 -0.1930  0.2846  0.4651
 7002SOL    HW133065   0.954   5.001   3.293  1.4420  1.5395 -2.3764
 7002SOL    HW233066   0.893   5.091   3.415 -2.1959 -2.6617 -0.9612
 7003SOL     OW33067   4.373   2.121   1.312 -0.4412 -0.3912  0.1457
 7003SOL    HW133068   4.379   2.036   1.260 -0.6285 -2.3436  3.2081
 7003SOL    HW233069   4.416   2.110   1.401 -2.7882  1.8711  1.6598
 7004SOL     OW33070   0.976   4.592   3.380 -0.1429  0.6429 -0.4908
 7004SOL    HW133071   0.928   4.511   3.413  1.0264 -0.5555 -1.6542
 7004SOL    HW233072   0.933   4.675   3.418 -0.8049 -0.5431  1.4024
 7005SOL     OW33073   3.677   4.707   6.395  0.2820  0.2528  0.4360
 7005SOL    HW133074   3.623   4.712   6.479 -1.3628  2.3575 -0.7141
 7005SOL    HW233075   3.616   4.716   6.316  2.2189  1.7105 -0.9172
 7006SOL     OW33076   1.949   4.121   1.058  0.5672 -0.1513 -0.0221
 7006SOL    HW133077   1.883   4.191   1.083  0.7109 -0.1719  0.4241
 7006SOL    HW233078   1.967   4.063   1.138  0.6490 -0.5307 -0.3134
 7007SOL     OW33079   3.119   1.089   2.022 -0.2015  0.2161  0.0784
 7007SOL    HW133080   3.041   1.147   2.047 -1.1185  0.2124 -2.6158
 7007SOL    HW233081   3.188   1.144   1.975 -0.8975 -0.7415 -2.1315
 7008SOL     OW33082   9.481   4.912   0.464 -0.1297 -0.6156 -0.2718
 7008SOL    HW133083   9.507   4.904   0.560 -0.1359  0.9142 -0.1195
 7008SOL    HW233084   9.471   5.009   0.441 -1.1959 -1.0147 -1.5307
 7009SOL     OW33085   2.476   1.425   5.760 -0.3666 -0.3188  0.1239
 7009SOL    HW133086   2.565   1.405   5.718  0.0663  2.0889 -0.1638
 7009SOL    HW233087   2.422   1.482   5.698 -0.8944  0.7929  1.5975
 7010SOL     OW33088   3.625   1.136   3.836  0.1500 -0.2033  0.5029
 7010SOL    HW133089   3.667   1.048   3.814  0.9880 -0.0561  1.4791
 7010SOL    HW233090   3.670   1.208   3.782 -1.1360 -0.4713 -0.9651
 7011SOL     OW33091   6.189   3.144   0.780  0.6367  0.2105 -0.5121
 7011SOL    HW133092   6.176   3.081   0.856 -1.0498 -0.7607 -1.5919
 7011SOL    HW233093   6.192   3.094   0.694  1.9535  1.3561 -1.1674
 7012SOL     OW33094   1.406   0.463   1.577  0.6573  0.3442  0.1346
 7012SOL    HW133095   1.460   0.536   1.534 -0.4953  1.1689  0.0668
 7012SOL    HW233096   1.468   0.396   1.617  1.7414  0.1434 -1.8164
 7013SOL     OW33097   1.386   5.699   1.990  0.4568 -0.0142 -0.3274
 7013SOL    HW133098   1.371   5.619   1.932  0.7921 -0.3169  0.0056
 7013SOL    HW233099   1.407   5.779   1.932 -2.1742  0.3749 -0.8075
 7014SOL     OW33100   2.261   5.475   7.190  0.1983  0.2121 -0.1601
 7014SOL    HW133101   2.198   5.459   7.114 -2.2620 -4.0535  2.5682
 7014SOL    HW233102   2.231   5.555   7.243 -3.2083 -1.9107  1.2428
 7015SOL     OW33103   1.710   1.479   0.916  0.6272  0.1655 -0.0327
 7015SOL    HW133104   1.730   1.426   0.999 -1.3555 -0.8597 -0.1758
 7015SOL    HW233105   1.688   1.417   0.841 -1.1648  1.1528 -0.3581
 7016SOL     OW33106   5.228   0.993   3.871  0.2199  0.2146  0.0483
 7016SOL    HW133107   5.267   1.051   3.800  1.5055 -1.3377 -0.5336
 7016SOL    HW233108   5.285   0.912   3.884 -1.6523 -1.0615  0.6711
 7017SOL     OW33109   4.378   2.565   9.895 -0.2222 -0.0510  0.2176
 7017SOL    HW133110   4.421   2.570   9.805 -0.2512  1.4064  0.2782
 7017SOL    HW233111   4.290   2.518   9.887  0.3968 -1.1338 -0.2704
 7018SOL     OW33112   0.175   0.497   8.186  0.0090 -0.6306  0.6615
 7018SOL    HW133113   0.091   0.551   8.176  0.5122 -0.0500 -0.4168
 7018SOL    HW233114   0.154   0.413   8.237 -0.9282  0.1969  1.6703
 7019SOL     OW33115   2.465   4.645   9.631 -0.0886  0.1099 -0.2795
 7019SOL    HW133116   2.555   4.679   9.603  0.6804 -1.0974  0.6119
 7019SOL    HW233117   2.439   4.569   9.572  1.6440 -2.5986  2.2502
 7020SOL     OW33118   9.972   8.238   7.116 -0.3574 -0.5881  0.4011
 7020SOL    HW133119  10.000   8.158   7.063  1.1309 -0.4927  1.0048
 7020SOL    HW233120  10.000   8.321   7.068  0.0591 -0.4799  0.8271
 7021SOL     OW33121   2.574   3.212   5.755  0.1278 -0.7246  0.2300
 7021SOL    HW133122   2.636   3.288   5.735  0.8954 -1.4141 -0.0439
 7021SOL    HW233123   2.613   3.127   5.718 -0.2731 -1.3987  1.3526
 7022SOL     OW33124   1.683   9.433   8.074 -0.1694 -0.0038  0.1085
 7022SOL    HW133125   1.607   9.458   8.135 -0.0776 -1.1866  0.7133
 7022SOL    HW233126   1.648   9.420   7.982 -1.0402 -2.3363  0.7353
 7023SOL     OW33127   0.488   2.563   4.811 -0.6323 -0.2274 -0.2478
 7023SOL    HW133128   0.516   2.471   4.839 -0.0203  0.0912  0.1653
 7023SOL    HW233129   0.392   2.560   4.780 -0.9975 -0.7641  0.9055
 7024SOL     OW33130   1.050   4.070   9.983  0.1761  0.3285 -0.3947
 7024SOL    HW133131   1.115   4.018   9.926 -0.3944 -2.9617  1.8207
 7024SOL    HW233132   1.099   4.115  10.057  0.3182  0.6990 -0.7088
 7025SOL     OW33133   9.934   2.353   8.917  0.6142  0.2110  0.3492
 7025SOL    HW133134   9.850   2.346   8.863  0.4520  1.6856  0.3828
 7025SOL    HW233135  10.009   2.380   8.857  0.8060  0.0866  0.5370
 7026SOL     OW33136   1.140   8.560   1.008  0.3541  0.4792  0.2258
 7026SOL    HW133137   1.089   8.495   0.953 -1.2634  1.3179  0.7019
 7026SOL    HW233138   1.177   8.632   0.950  0.7344  0.0404 -0.0792
 7027SOL     OW33139   4.152   3.768   2.169 -0.3259  0.0375 -0.0353
 7027SOL    HW133140   4.065   3.774   2.120 -1.2478  0.2206  1.5854
 7027SOL    HW233141   4.172   3.672   2.188 -0.7895  0.0777  0.6633
 7028SOL     OW33142   0.437   1.290   8.347  0.0442 -0.6840 -0.1630
 7028SOL    HW133143   0.382   1.373   8.362 -0.3501 -1.0154  0.2413
 7028SOL    HW233144   0.379   1.209   8.356  0.7827 -1.0824  1.2277
 7029SOL     OW33145   1.331   4.170   3.690  0.2950 -0.7141  0.5191
 7029SOL    HW133146   1.349   4.072   3.682  1.6098 -0.8291  3.9366
 7029SOL    HW233147   1.253   4.186   3.751  0.0888  0.3643 -0.0045
 7030SOL     OW33148   3.681   3.853   8.767  0.0683  0.1114 -0.2478
 7030SOL    HW133149   3.644   3.818   8.853 -0.1832 -1.0152 -0.8169
 7030SOL    HW233150   3.677   3.782   8.697 -1.0028  1.4557 -1.5657
 7031SOL     OW33151   1.715   0.949   3.662  0.1273 -0.2645 -0.2280
 7031SOL    HW133152   1.809   0.982   3.668 -0.6277  2.1412 -1.0535
 7031SOL    HW233153   1.712   0.853   3.688  2.7276 -0.2411  0.3122
 7032SOL     OW33154   2.337   0.894   6.075 -0.3852 -0.5095  0.9288
 7032SOL    HW133155   2.248   0.928   6.047  0.7991  0.6399 -1.6457
 7032SOL    HW233156   2.357   0.808   6.027  0.5038  0.0320  0.2995
 7033SOL     OW33157   2.450   2.870   2.041  0.1491  0.2450 -0.7983
 7033SOL    HW133158   2.435   2.931   2.119 -3.1802  0.3515 -1.4131
 7033SOL    HW233159   2.503   2.917   1.971 -0.3002  1.5735 -0.2587
 7034SOL     OW33160   9.050   0.968   6.550 -0.7940  0.1047 -0.4164
 7034SOL    HW133161   8.981   1.003   6.613 -0.0427  0.1829  0.3739
 7034SOL    HW233162   9.085   0.881   6.585 -0.5066  0.0585 -0.8204
 7035SOL     OW33163   8.756   3.240   8.737  0.5636 -0.0837 -0.7268
 7035SOL    HW133164   8.717   3.294   8.811 -0.1018  0.1509 -1.2327
 7035SOL    HW233165   8.762   3.145   8.764  1.0574  0.1267 -0.0913
 7036SOL     OW33166   8.682   8.694   8.892  0.5399  0.0192 -0.6047
 7036SOL    HW133167   8.643   8.721   8.804  1.3592 -0.8651 -1.2465
 7036SOL    HW233168   8.668   8.596   8.906  0.6395  0.1041  0.1427
 7037SOL     OW33169   5.860   2.896   0.025  0.2046  0.3035 -0.7883
 7037SOL    HW133170   5.828   2.852   0.109  1.9354 -2.4297 -1.5072
 7037SOL    HW233171   5.931   2.962   0.047  1.2066 -0.9736 -0.1518
 7038SOL     OW33172   3.239   9.806   3.403 -0.6958  0.4159  0.5460
 7038SOL    HW133173   3.215   9.790   3.307  0.5037  2.0077 -0.0524
 7038SOL    HW233174   3.294   9.730   3.437  0.0720  0.5197 -0.4593
 7039SOL     OW33175   1.976   1.599   6.402 -0.5701 -0.6736 -0.7363
 7039SOL    HW133176   1.937   1.633   6.315 -2.1978 -1.3533 -0.2954
 7039SOL    HW233177   1.987   1.500   6.397 -0.7263 -0.7222 -0.1471
 7040SOL     OW33178   3.749   2.650   4.664 -0.1276 -0.5318  0.3255
 7040SOL    HW133179   3.669   2.659   4.605 -1.0135 -1.7229  1.3070
 7040SOL    HW233180   3.760   2.555   4.691 -0.2228  0.0865  2.7055
 7041SOL     OW33181   3.324   0.061   7.077 -0.2869  0.3937  0.4427
 7041SOL    HW133182   3.308   0.067   6.979  2.7154 -2.4274 -0.2846
 7041SOL    HW233183   3.252   0.111   7.126 -1.4076  2.4500 -3.1734
 7042SOL     OW33184   5.670   2.594   3.065 -0.3056 -0.0706 -0.0845
 7042SOL    HW133185   5.583   2.574   3.021  1.0105  0.4335 -2.9873
 7042SOL    HW233186   5.705   2.512   3.109 -0.3962 -1.2403 -2.1747
 7043SOL     OW33187   5.086   5.825   0.919  0.0681  0.4824 -0.6916
 7043SOL    HW133188   4.988   5.821   0.940  0.0984  1.5434 -0.3155
 7043SOL    HW233189   5.115   5.737   0.881 -1.0630  0.2118 -0.9703
 7044SOL     OW33190   6.265   9.435   0.265 -0.2908  0.7378 -0.0316
 7044SOL    HW133191   6.305   9.415   0.355 -0.0708  1.0663 -0.0582
 7044SOL    HW233192   6.317   9.387   0.194 -0.9750 -0.2098  0.0878
 7045SOL     OW33193   2.637   1.212   8.807 -0.0505 -0.2778  0.0020
 7045SOL    HW133194   2.699   1.251   8.739 -1.3302  0.8668 -0.5453
 7045SOL    HW233195   2.663   1.117   8.826 -0.5119 -1.0813 -3.1468
 7046SOL     OW33196   1.528   9.497   1.591 -0.0101  0.3632 -0.5302
 7046SOL    HW133197   1.505   9.415   1.538  0.2122  0.2016 -0.3823
 7046SOL    HW233198   1.542   9.471   1.686 -1.0284  0.7528 -0.2700
 7047SOL     OW33199   2.832   4.135   4.041  0.4854 -0.1119 -0.3606
 7047SOL    HW133200   2.922   4.177   4.046 -0.1029  1.0067  1.1374
 7047SOL    HW233201   2.769   4.184   4.100 -1.1803 -0.7411 -1.5867
 7048SOL     OW33202   4.250   0.848   8.385 -0.4968 -0.3729  0.0273
 7048SOL    HW133203   4.221   0.828   8.291  1.9864 -1.8192 -0.4603
 7048SOL    HW233204   4.175   0.826   8.448 -1.1886 -2.2037 -1.3782
 7049SOL     OW33205   3.225   7.954   7.859  0.4137  0.0912  0.3562
 7049SOL    HW133206   3.292   7.879   7.857 -1.2451 -1.4485  1.4085
 7049SOL    HW233207   3.146   7.927   7.913 -0.3925  2.4899  0.4475
 7050SOL     OW33208   9.947   0.862   2.642  0.1435  0.1029 -0.4238
 7050SOL    HW133209   9.892   0.778   2.638  2.4913 -1.5003 -0.1994
 7050SOL    HW233210   9.968   0.893   2.549 -0.5591  0.3420 -0.5064
 7051SOL     OW33211   6.693   9.011   1.517 -0.0817 -0.3987 -0.5582
 7051SOL    HW133212   6.762   9.083   1.514 -0.7184  0.1737 -2.6724
 7051SOL    HW233213   6.604   9.050   1.540 -0.2500 -0.6626 -0.7497
 7052SOL     OW33214   9.495   6.038   5.780 -0.0835 -0.2018 -0.3812
 7052SOL    HW133215   9.548   6.121   5.797 -1.9538  1.0452 -0.5616
 7052SOL    HW233216   9.436   6.051   5.701 -1.9482 -0.9514  0.8460
 7053SOL     OW33217   5.434   1.533   1.301 -0.0840  0.8079 -0.0461
 7053SOL    HW133218   5.488   1.590   1.239  0.5626  2.1933  1.7654
 7053SOL    HW233219   5.494   1.477   1.357 -0.6661 -0.3207 -0.5241
 7054SOL     OW33220   5.169   1.442   1.353  0.5023  0.0686 -0.2759
 7054SOL    HW133221   5.249   1.486   1.314  1.1904 -0.2838  0.7075
 7054SOL    HW233222   5.197   1.360   1.403 -0.3191  0.6280  1.1307
 7055SOL     OW33223   2.651   6.148   2.127 -0.0882  0.0463  0.4776
 7055SOL    HW133224   2.716   6.075   2.148  0.9831  1.4367  2.1220
 7055SOL    HW233225   2.607   6.179   2.212 -3.2169 -1.1309 -0.6433
 7056SOL     OW33226   9.524   9.272   8.405 -0.1040 -0.1055  0.3259
 7056SOL    HW133227   9.559   9.179   8.410  1.3482  0.4124  0.0973
 7056SOL    HW233228   9.552   9.323   8.486  0.4891  0.5778 -0.2939
 7057SOL     OW33229   7.751   8.989   5.903 -0.2206  0.2150  0.3085
 7057SOL    HW133230   7.842   8.976   5.865 -1.2207  0.4729 -2.2360
 7057SOL    HW233231   7.759   9.024   5.996  2.2706 -0.7576  0.4986
 7058SOL     OW33232   3.424   3.628   3.715  0.0291  0.5931 -0.0529
 7058SOL    HW133233   3.361   3.692   3.671  0.3753  0.5044 -0.6920
 7058SOL    HW233234   3.407   3.626   3.813  0.0879  1.7436 -0.0148
 7059SOL     OW33235   2.130   2.570   9.728 -0.9529 -0.2095 -0.3665
 7059SOL    HW133236   2.079   2.549   9.645 -0.2311 -0.3133 -0.7822
 7059SOL    HW233237   2.079   2.537   9.808 -0.0090 -3.2365 -0.9794
 7060SOL     OW33238   1.096   2.079   7.655 -0.9654 -0.1372 -0.0048
 7060SOL    HW133239   1.017   2.097   7.714 -0.1408  1.8812  0.5337
 7060SOL    HW233240   1.106   2.155   7.590  1.0428  0.0530  0.5105
 7061SOL     OW33241   0.956   2.933   9.107 -0.0709  0.2743  0.1938
 7061SOL    HW133242   1.005   2.896   9.029  0.2904  0.7189  0.2093
 7061SOL    HW233243   0.857   2.919   9.095  0.0738 -0.8258  0.2760
 7062SOL     OW33244   1.130   4.974   2.932  0.2035  0.2665 -0.2428
 7062SOL    HW133245   1.059   4.989   2.863  1.0215  1.3636 -0.8568
 7062SOL    HW233246   1.148   5.060   2.980  0.0638 -0.3539  0.9412
 7063SOL     OW33247   1.034   6.669   2.561 -0.3767  0.2484  0.1902
 7063SOL    HW133248   1.132   6.658   2.575 -0.2906  1.3534  0.5153
 7063SOL    HW233249   1.009   6.765   2.570 -1.0203  0.4353 -2.9149
 7064SOL     OW33250   3.201   5.847   3.643 -0.4113 -0.3025  0.2739
 7064SOL    HW133251   3.203   5.803   3.554  0.4844 -1.3142  0.7948
 7064SOL    HW233252   3.283   5.903   3.655 -0.9095  0.4677  0.1530
 7065SOL     OW33253   4.068   0.965   3.607  0.7754  0.2190  0.1852
 7065SOL    HW133254   4.041   0.986   3.701  0.4110  1.0415 -0.0997
 7065SOL    HW233255   4.016   0.885   3.575  0.3620  0.3836  0.4334
 7066SOL     OW33256   1.211   5.579   8.299 -0.5966  0.3403 -0.1883
 7066SOL    HW133257   1.161   5.504   8.343 -0.5430  0.5727  0.2768
 7066SOL    HW233258   1.305   5.582   8.334 -0.3424  0.0941 -0.8377
 7067SOL     OW33259   1.819   6.079   9.031 -0.0138 -0.2677 -0.1078
 7067SOL    HW133260   1.723   6.096   9.008 -0.6416 -1.1331  1.8178
 7067SOL    HW233261   1.876   6.094   8.949 -1.7032  0.8065 -1.1154
 7068SOL     OW33262   4.592   6.385   4.994  0.1790  0.2835  0.2170
 7068SOL    HW133263   4.569   6.357   4.900  1.5727  1.1608 -0.4061
 7068SOL    HW233264   4.545   6.325   5.059 -4.3833  2.4362 -0.9303
 7069SOL     OW33265   4.840   9.442   9.390  0.0470 -0.6904  0.9039
 7069SOL    HW133266   4.879   9.354   9.361 -0.3928 -0.6270  0.1083
 7069SOL    HW233267   4.780   9.477   9.319  1.3093  0.9401  0.5993
 7070SOL     OW33268   3.613   1.933   4.989  0.0656  0.2387  0.3084
 7070SOL    HW133269   3.590   1.946   4.892  2.9538  0.9510 -0.3445
 7070SOL    HW233270   3.666   2.012   5.021  0.5423 -0.7484  2.0091
 7071SOL     OW33271   7.130   3.556   1.824  0.4061  0.2380  0.1020
 7071SOL    HW133272   7.036   3.550   1.856 -0.0388 -2.3208 -1.4630
 7071SOL    HW233273   7.190   3.508   1.888  0.5922  1.4212  0.8297
 7072SOL     OW33274   0.582   2.480   5.147 -0.4772  0.0381 -0.7169
 7072SOL    HW133275   0.649   2.469   5.073 -1.8452  0.6228 -2.0662
 7072SOL    HW233276   0.529   2.396   5.157  1.1301 -0.8013  1.0610
 7073SOL     OW33277   0.187   4.167   5.939  0.3054  0.2439  0.4373
 7073SOL    HW133278   0.125   4.181   6.015  1.1279 -0.5310  1.2573
 7073SOL    HW233279   0.281   4.190   5.967  0.5030  0.7058 -0.5645
 7074SOL     OW33280   1.263   1.722   6.410 -0.0191  0.2490 -0.2177
 7074SOL    HW133281   1.219   1.658   6.348  0.6021  0.5730 -0.9972
 7074SOL    HW233282   1.194   1.771   6.463 -0.6444  1.3066 -1.9698
 7075SOL     OW33283   0.498   7.268   9.550  0.0781 -0.1447 -0.2577
 7075SOL    HW133284   0.398   7.277   9.548  0.0009 -0.9385 -0.1634
 7075SOL    HW233285   0.525   7.216   9.631  0.5971  0.4097 -0.0759
 7076SOL     OW33286   3.107   2.739   4.990  0.0889 -0.1813  0.8726
 7076SOL    HW133287   3.032   2.712   4.929 -0.3980 -1.0709  1.8489
 7076SOL    HW233288   3.069   2.760   5.081  1.0210 -0.5001  1.3338
 7077SOL     OW33289   1.297   2.268   9.643  0.1198 -0.1061 -0.1830
 7077SOL    HW133290   1.241   2.243   9.722  1.4120 -0.3425  0.6797
 7077SOL    HW233291   1.274   2.360   9.612 -0.6429 -0.1537  0.2450
 7078SOL     OW33292   2.741   1.213   0.286 -0.1713 -0.4802 -0.2296
 7078SOL    HW133293   2.704   1.149   0.353 -1.5209 -0.4085 -0.8926
 7078SOL    HW233294   2.666   1.252   0.232  0.8347 -0.0089 -1.3062
 7079SOL     OW33295   2.763   1.412   5.077  0.0529 -0.1292 -0.1134
 7079SOL    HW133296   2.766   1.420   4.978 -1.5654 -1.4162 -0.2909
 7079SOL    HW233297   2.793   1.321   5.105  0.6554  0.2761  0.5922
 7080SOL     OW33298   8.037   1.581   9.825  0.4387  0.2965  0.1638
 7080SOL    HW133299   8.021   1.662   9.768  2.2161  0.0591 -0.6932
 7080SOL    HW233300   8.071   1.610   9.915 -0.3378  0.5695  0.3699
 7081SOL     OW33301   2.859   3.642   6.504  0.0263  0.0737  0.2423
 7081SOL    HW133302   2.874   3.707   6.578 -2.6559 -1.0783  1.8731
 7081SOL    HW233303   2.771   3.661   6.460  1.1598  0.1605 -2.0868
 7082SOL     OW33304   6.404   0.735   7.003 -0.2152  0.0042  0.2212
 7082SOL    HW133305   6.455   0.724   6.918 -0.1647  0.5644  0.1744
 7082SOL    HW233306   6.468   0.733   7.080 -0.4135 -1.9923  0.3668
 7083SOL     OW33307   0.488   4.738   5.058 -0.2086 -0.3194  0.3364
 7083SOL    HW133308   0.533   4.679   5.125 -1.2386 -1.0547  0.4109
 7083SOL    HW233309   0.534   4.827   5.055  0.7665 -0.7915  0.9336
 7084SOL     OW33310   4.272   4.599   2.010 -0.4346 -0.2854 -0.1610
 7084SOL    HW133311   4.212   4.634   2.082 -0.3253  0.0475 -0.2284
 7084SOL    HW233312   4.296   4.504   2.029 -0.2734 -0.1494  0.3296
 7085SOL     OW33313   1.555   3.517   4.087  0.1269  0.5155  0.0263
 7085SOL    HW133314   1.514   3.552   4.171 -0.3372  0.0111  0.0182
 7085SOL    HW233315   1.646   3.556   4.075 -0.3258  1.6105  0.0784
 7086SOL     OW33316   9.857   9.834   2.544  0.3210 -0.5910  0.5855
 7086SOL    HW133317   9.872   9.791   2.633  0.7919  0.3404  0.9714
 7086SOL    HW233318   9.909   9.785   2.473 -2.0292 -2.8415  0.3843
 7087SOL     OW33319   5.012   1.834   8.928 -0.5672  0.0773 -0.0407
 7087SOL    HW133320   5.003   1.762   8.997  1.0312 -0.2627 -0.1731
 7087SOL    HW233321   5.108   1.863   8.921 -1.1947  2.3245  0.1052
 7088SOL     OW33322   0.839   5.002   8.784 -0.1632 -0.6606 -0.3959
 7088SOL    HW133323   0.866   4.971   8.875  2.5420 -0.3488 -1.0475
 7088SOL    HW233324   0.798   4.926   8.734 -0.4711 -1.1855  0.6366
 7089SOL     OW33325   2.598   4.286   5.780 -0.1805 -0.0230  0.4241
 7089SOL    HW133326   2.698   4.290   5.784 -0.1145 -0.3104 -0.6177
 7089SOL    HW233327   2.567   4.315   5.689 -0.9989 -0.6213  0.5041
 7090SOL     OW33328   6.303   9.644   0.707  0.2468  0.5977 -0.2006
 7090SOL    HW133329   6.214   9.660   0.748 -0.3932 -0.1162 -1.2863
 7090SOL    HW233330   6.362   9.595   0.772 -0.4160  0.3486  0.2152
 7091SOL     OW33331   3.607   4.487   3.166 -0.1551 -0.3918 -0.4760
 7091SOL    HW133332   3.529   4.532   3.209  1.0500  0.9735  0.3078
 7091SOL    HW233333   3.581   4.457   3.074 -1.5498  0.1552 -0.2746
 7092SOL     OW33334   4.369   7.749   4.087 -0.4952  0.2999  0.2056
 7092SOL    HW133335   4.383   7.842   4.051 -0.2657  0.4726  0.7366
 7092SOL    HW233336   4.319   7.755   4.174 -0.6179 -0.0879  0.1620
 7093SOL     OW33337   1.129   1.660   3.242 -0.0004  0.0479  0.6713
 7093SOL    HW133338   1.217   1.672   3.288  0.9071 -1.5862 -0.5914
 7093SOL    HW233339   1.145   1.629   3.148 -1.8653  2.1061 -0.3604
 7094SOL     OW33340   4.470   3.254   1.992 -0.0825 -0.4891 -0.1195
 7094SOL    HW133341   4.561   3.213   1.994  0.3629  0.4395 -1.1524
 7094SOL    HW233342   4.403   3.184   1.968  0.5690 -0.8196 -1.0102
 7095SOL     OW33343   4.135   5.294   0.752 -0.6784  0.0453  0.1087
 7095SOL    HW133344   4.182   5.366   0.802 -2.1770  0.3580  1.1017
 7095SOL    HW233345   4.156   5.301   0.655  2.5459 -0.7954  0.6977
 7096SOL     OW33346   9.647   0.487   3.458 -0.0811 -0.3632  0.2224
 7096SOL    HW133347   9.691   0.562   3.508 -0.3368 -0.1507  0.1280
 7096SOL    HW233348   9.693   0.474   3.370 -0.4300  0.0953 -0.0304
 7097SOL     OW33349   0.860   0.501   9.713  0.7170  0.3054  0.4476
 7097SOL    HW133350   0.825   0.430   9.652 -1.2630 -0.7835  2.7794
 7097SOL    HW233351   0.814   0.588   9.693 -2.2232 -0.7499  2.3941
 7098SOL     OW33352   9.780   2.673   4.847 -0.0118 -0.3042  0.0246
 7098SOL    HW133353   9.719   2.753   4.844 -0.8134 -0.8950  0.4676
 7098SOL    HW233354   9.767   2.625   4.933  0.7651 -0.6966 -0.0756
 7099SOL     OW33355   5.020   1.289   3.012  0.4050  0.7237 -0.2168
 7099SOL    HW133356   5.090   1.341   2.963 -0.8859  0.9977 -1.7842
 7099SOL    HW233357   5.039   1.191   3.002 -0.8023  0.7127 -2.7504
 7100SOL     OW33358   9.413   2.882   5.236  0.1286 -0.1409 -0.1811
 7100SOL    HW133359   9.490   2.946   5.232  0.1652 -0.2045 -0.5416
 7100SOL    HW233360   9.328   2.933   5.247  0.1922 -0.0514 -0.1019
 7101SOL     OW33361   8.770   1.594   2.116  0.1967  0.1344  0.1874
 7101SOL    HW133362   8.870   1.588   2.119  0.2000  0.6353  1.7290
 7101SOL    HW233363   8.737   1.639   2.199 -1.2894  0.3591 -0.5095
 7102SOL     OW33364   2.053   1.771   3.653  0.5273 -0.0674 -0.8779
 7102SOL    HW133365   1.985   1.698   3.658  1.2104 -0.7682 -1.7188
 7102SOL    HW233366   2.016   1.849   3.602 -0.0158 -0.0247 -0.4245
 7103SOL     OW33367   8.239   1.010   2.352 -0.6463  1.4440 -0.3522
 7103SOL    HW133368   8.188   0.970   2.428 -0.6160  3.9379  1.0511
 7103SOL    HW233369   8.301   0.942   2.313 -1.7096 -0.2826  0.9063
 7104SOL     OW33370   1.744   3.423   6.245  0.2474  0.2811 -0.2940
 7104SOL    HW133371   1.841   3.445   6.233  0.0438  0.9060 -0.7859
 7104SOL    HW233372   1.721   3.430   6.342  1.0308 -1.2619  0.0140
 7105SOL     OW33373   2.091   2.577   3.362  0.4123  0.6906  0.2835
 7105SOL    HW133374   2.040   2.538   3.439 -0.0073  1.2693  0.2976
 7105SOL    HW233375   2.159   2.641   3.396  1.8765 -0.8691  0.3406
 7106SOL     OW33376   5.739   4.332   0.274 -0.1100 -0.2526 -0.0399
 7106SOL    HW133377   5.770   4.334   0.369 -0.5885 -1.6484  0.1595
 7106SOL    HW233378   5.806   4.379   0.217  1.9130 -2.3410  0.5198
 7107SOL     OW33379   3.558   3.536   1.661  0.3592 -0.0457 -0.5785
 7107SOL    HW133380   3.463   3.560   1.640 -0.1563 -1.4552  0.0049
 7107SOL    HW233381   3.581   3.568   1.753  0.2421 -0.2244 -0.4852
 7108SOL     OW33382   6.701   1.703   0.800 -0.0260 -0.2182 -0.4215
 7108SOL    HW133383   6.718   1.774   0.869  0.6978 -0.7104 -0.0779
 7108SOL    HW233384   6.712   1.613   0.842  1.0178 -0.5237 -1.3233
 7109SOL     OW33385   2.647   9.790   2.883  0.1451  0.3152 -0.1846
 7109SOL    HW133386   2.685   9.856   2.947 -1.1435  0.1099  0.8027
 7109SOL    HW233387   2.553   9.814   2.862 -0.7098 -1.8389  1.0596
 7110SOL     OW33388   4.416   6.936   9.778  0.7750  0.3204  0.4148
 7110SOL    HW133389   4.351   7.008   9.753  0.8027  0.1745 -0.0791
 7110SOL    HW233390   4.380   6.884   9.856 -0.1699 -0.4050 -0.4981
 7111SOL     OW33391   9.702   6.594   1.170 -0.3354  0.1455 -0.2900
 7111SOL    HW133392   9.606   6.605   1.142 -0.5953  0.5001  0.7351
 7111SOL    HW233393   9.760   6.648   1.109 -1.1047  2.8373  1.2503
 7112SOL     OW33394   8.721   0.926   6.326  0.3413  0.1631 -0.0467
 7112SOL    HW133395   8.682   0.845   6.369 -0.3061  0.6369  0.2686
 7112SOL    HW233396   8.820   0.922   6.331  0.2933 -0.2999  0.5374
 7113SOL     OW33397   2.926   1.098   0.740  0.4422 -0.5185  0.3140
 7113SOL    HW133398   2.990   1.125   0.812  2.1190  0.1276 -1.3847
 7113SOL    HW233399   2.945   1.004   0.712  0.1962 -0.5583  0.2814
 7114SOL     OW33400   3.145   1.955   2.532  0.6327  0.0492  0.4964
 7114SOL    HW133401   3.053   1.969   2.495  0.7047 -0.0709  0.2745
 7114SOL    HW233402   3.171   2.034   2.587  0.1126 -0.2165  1.1438
 7115SOL     OW33403   2.139   2.287   6.501  0.2279  0.4649  0.0789
 7115SOL    HW133404   2.082   2.205   6.510  2.9462 -1.6855 -1.5246
 7115SOL    HW233405   2.098   2.349   6.433 -0.8937 -0.3942 -0.0374
 7116SOL     OW33406   0.555   2.988   4.935  0.0866 -0.1313 -0.4368
 7116SOL    HW133407   0.617   3.056   4.897 -1.0313  1.3000  0.2913
 7116SOL    HW233408   0.604   2.931   5.002  0.9152  0.1811 -0.7750
 7117SOL     OW33409   1.149   5.631   4.328 -0.2269 -0.2277 -0.1387
 7117SOL    HW133410   1.221   5.632   4.397 -1.1285 -1.5593  0.8508
 7117SOL    HW233411   1.093   5.548   4.339 -2.0257  0.8717 -0.7539
 7118SOL     OW33412   6.685   7.420   2.847 -0.2506 -0.2674  0.7792
 7118SOL    HW133413   6.745   7.494   2.874 -1.1227  0.3876  0.9390
 7118SOL    HW233414   6.634   7.446   2.764  1.1184 -1.5760 -0.4995
 7119SOL     OW33415   7.975   6.541   6.950  0.7175  0.2021  0.7572
 7119SOL    HW133416   8.060   6.556   6.900  1.1361  0.4553  1.5525
 7119SOL    HW233417   7.970   6.445   6.979 -0.0531 -0.2404 -0.7353
 7120SOL     OW33418   6.463   3.947   9.786  0.0886  0.3508  0.3791
 7120SOL    HW133419   6.457   3.877   9.714  1.9609 -0.2218  0.7493
 7120SOL    HW233420   6.384   4.007   9.781 -0.7323 -0.8184 -0.9873
 7121SOL     OW33421   2.035   3.981   7.912 -0.2283 -0.4207  0.5759
 7121SOL    HW133422   2.068   4.021   7.997 -1.0109 -1.5607  1.4262
 7121SOL    HW233423   1.977   4.047   7.864  1.5206  0.8132  0.1170
 7122SOL     OW33424   6.687   3.937   3.965  0.0739 -0.0703 -0.6469
 7122SOL    HW133425   6.614   3.947   4.033 -1.2327 -2.2104 -1.6980
 7122SOL    HW233426   6.724   3.844   3.970  1.8183  0.5817 -1.0605
 7123SOL     OW33427   4.718   5.796   0.539 -0.5221  0.3254 -0.1032
 7123SOL    HW133428   4.667   5.861   0.596  0.1561 -0.6198  1.5926
 7123SOL    HW233429   4.691   5.703   0.563 -0.2963 -0.0741 -1.3941
 7124SOL     OW33430   2.502   0.543   3.656  0.0424  0.3327 -0.2886
 7124SOL    HW133431   2.524   0.636   3.686  1.7711  0.3764 -1.5576
 7124SOL    HW233432   2.565   0.478   3.700 -0.8066 -0.1693  0.1818
 7125SOL     OW33433   1.021   0.611   9.093  0.2003 -0.2520 -0.5449
 7125SOL    HW133434   0.954   0.675   9.054  0.9873  0.4978 -0.6815
 7125SOL    HW233435   1.050   0.644   9.182  0.9408 -0.1859 -0.8083
 7126SOL     OW33436   9.512   1.430   8.224  0.4249 -0.1025 -0.1063
 7126SOL    HW133437   9.431   1.394   8.178  0.1012  0.7319 -0.1977
 7126SOL    HW233438   9.584   1.447   8.157 -0.4116  2.1121 -0.4612
 7127SOL     OW33439   4.303   4.567   0.862  0.2647  0.0966  0.1060
 7127SOL    HW133440   4.251   4.645   0.898 -1.1958 -0.4659 -0.7541
 7127SOL    HW233441   4.388   4.600   0.821 -0.3138  1.2443 -0.1973
 7128SOL     OW33442   0.942   0.725   6.310  0.0922 -0.2077 -0.2998
 7128SOL    HW133443   0.941   0.725   6.410  0.4064  0.7826 -0.2950
 7128SOL    HW233444   0.869   0.664   6.276  1.3359 -2.1923  0.5171
 7129SOL     OW33445   9.981   4.789   0.883  0.0442  0.0224  0.2782
 7129SOL    HW133446   9.897   4.842   0.869  0.5464  1.0778  1.1257
 7129SOL    HW233447  10.008   4.746   0.797 -1.2364 -0.1289 -0.0540
 7130SOL     OW33448   7.692   1.905   0.456  0.1852  0.0457 -0.5378
 7130SOL    HW133449   7.598   1.875   0.439 -0.2671  0.2835  1.4235
 7130SOL    HW233450   7.691   1.983   0.518  1.7083 -0.3902  0.0484
 7131SOL     OW33451   1.726   0.928   7.991 -0.3129  0.4668 -0.1414
 7131SOL    HW133452   1.740   0.980   7.907  0.1907 -1.2165 -1.1270
 7131SOL    HW233453   1.774   0.840   7.984 -0.3437  0.2799  1.8722
 7132SOL     OW33454   5.772   4.658   5.032 -0.2159  0.8633 -0.3097
 7132SOL    HW133455   5.771   4.756   5.016  0.5783  0.4481 -3.2033
 7132SOL    HW233456   5.802   4.639   5.125  1.0644  3.3149 -0.1956
 7133SOL     OW33457   5.163   0.611   3.930 -0.4402 -0.2833  0.0831
 7133SOL    HW133458   5.139   0.593   4.025  0.9579 -1.5069  0.2051
 7133SOL    HW233459   5.231   0.685   3.926 -0.6957 -0.0486  0.0039
 7134SOL     OW33460   9.514   9.180   4.864  0.5978 -0.0647 -0.4231
 7134SOL    HW133461   9.463   9.201   4.947  1.0477 -0.0659 -0.1452
 7134SOL    HW233462   9.569   9.097   4.878  1.7225  0.7030 -0.2703
 7135SOL     OW33463   5.786   5.183   3.455 -0.1112 -0.2474 -0.9120
 7135SOL    HW133464   5.706   5.123   3.461 -0.0216 -0.3818 -1.0486
 7135SOL    HW233465   5.757   5.278   3.459 -0.1037 -0.3029  1.2914
 7136SOL     OW33466   0.489   0.563   0.648  0.2548 -0.2595  0.1132
 7136SOL    HW133467   0.577   0.547   0.692  0.1279  0.5180  0.6523
 7136SOL    HW233468   0.419   0.578   0.717  0.0848  1.0923 -0.3359
 7137SOL     OW33469   1.108   3.692   9.745  0.6407  0.0562  1.0326
 7137SOL    HW133470   1.020   3.663   9.783 -1.0638  1.2917 -1.8270
 7137SOL    HW233471   1.168   3.612   9.737 -1.7381 -1.6465 -0.8942
 7138SOL     OW33472   8.082   2.322   0.525  0.2606  0.8382 -0.4697
 7138SOL    HW133473   8.081   2.372   0.612  0.9034  2.7810 -1.5483
 7138SOL    HW233474   8.177   2.304   0.498  0.0381 -1.3847  0.1076
 7139SOL     OW33475   2.979   1.982   6.446 -0.2451 -0.6247 -0.4236
 7139SOL    HW133476   2.887   1.946   6.461 -0.5452 -0.2459 -1.3593
 7139SOL    HW233477   3.044   1.932   6.504 -0.5902 -2.9592 -1.9767
 7140SOL     OW33478   9.361   2.165   2.261  0.3082 -0.0702 -0.4971
 7140SOL    HW133479   9.262   2.176   2.261  0.4958  1.7617  0.2942
 7140SOL    HW233480   9.385   2.086   2.318 -0.5078  1.5140  2.1204
 7141SOL     OW33481   9.148   4.714   2.119 -0.2477  0.2041  0.6149
 7141SOL    HW133482   9.123   4.744   2.212  1.0241  1.7706  0.4609
 7141SOL    HW233483   9.102   4.772   2.052  0.2147  0.1788  0.2777
 7142SOL     OW33484   3.629   4.227   1.411  0.0033  0.2296 -0.3825
 7142SOL    HW133485   3.606   4.163   1.484  0.6044  1.2522  0.7187
 7142SOL    HW233486   3.717   4.270   1.430  1.1072 -0.8980 -2.6881
 7143SOL     OW33487   2.120   4.517   6.880 -0.0364  0.0995 -0.1141
 7143SOL    HW133488   2.057   4.491   6.807  1.0864  2.3711 -1.9669
 7143SOL    HW233489   2.210   4.476   6.862  0.2499  0.6895 -0.0475
 7144SOL     OW33490   3.733   1.915   1.058  0.9324 -0.4044  0.3421
 7144SOL    HW133491   3.664   1.983   1.035  1.1373 -0.7424 -1.3169
 7144SOL    HW233492   3.748   1.915   1.157  0.4721  1.5029  0.4328
 7145SOL     OW33493   6.542   2.657   1.424  0.7656 -0.2091  0.3745
 7145SOL    HW133494   6.498   2.732   1.474 -0.3181 -0.4964 -0.1270
 7145SOL    HW233495   6.506   2.654   1.331 -0.6242 -2.5500  0.9551
 7146SOL     OW33496   1.837   8.016   4.677 -0.5141 -0.1919  0.1799
 7146SOL    HW133497   1.803   8.087   4.615  0.9986 -0.3808 -0.8971
 7146SOL    HW233498   1.767   7.946   4.691 -1.7924  1.1843  0.7552
 7147SOL     OW33499   2.166   1.295   7.082  0.6933  0.4461 -0.1937
 7147SOL    HW133500   2.203   1.230   7.148  0.0330  0.7207  0.4533
 7147SOL    HW233501   2.076   1.264   7.052 -0.3836  1.9379  1.4292
 7148SOL     OW33502   0.196   0.456   9.888  0.0487 -0.4636  0.7329
 7148SOL    HW133503   0.294   0.473   9.904 -0.0484  0.1529  0.6817
 7148SOL    HW233504   0.186   0.373   9.833  0.6198  0.3291 -0.6023
 7149SOL     OW33505   0.736   3.509   1.109 -0.0803 -0.0453  0.2170
 7149SOL    HW133506   0.763   3.566   1.186  0.1938  1.1700 -0.7507
 7149SOL    HW233507   0.683   3.564   1.044 -1.0808 -1.2804 -0.0293
 7150SOL     OW33508   8.809   9.932   8.068 -0.2319  0.4484  0.4020
 7150SOL    HW133509   8.907   9.912   8.065 -0.2108  0.3874  1.2922
 7150SOL    HW233510   8.778   9.959   7.977  0.6146  0.4795  0.1143
 7151SOL     OW33511   3.286   9.976   2.106 -0.3465  0.1559  0.4795
 7151SOL    HW133512   3.299   9.879   2.126 -1.3800  0.3475  2.0998
 7151SOL    HW233513   3.275   9.988   2.007  1.1399 -1.1980  0.1178
 7152SOL     OW33514   7.804   9.881   7.521 -0.0823  0.3237 -0.0731
 7152SOL    HW133515   7.823   9.979   7.526  1.3853 -0.0542  2.6707
 7152SOL    HW233516   7.758   9.851   7.605  0.1665 -1.4750 -0.5545
 7153SOL     OW33517   0.558   2.794   4.336 -0.0519  0.2230  0.1551
 7153SOL    HW133518   0.527   2.842   4.418  1.3644  1.1424  0.1573
 7153SOL    HW233519   0.530   2.846   4.255 -1.5555 -0.7449  0.0217
 7154SOL     OW33520   3.651   9.401   3.920 -0.0172  0.0293  0.4025
 7154SOL    HW133521   3.576   9.449   3.874 -1.1090 -0.6931  1.3723
 7154SOL    HW233522   3.677   9.451   4.003  1.3131  0.8401 -0.4916
 7155SOL     OW33523   1.870   3.327   3.425 -0.2655  0.6234  0.1138
 7155SOL    HW133524   1.805   3.307   3.498  0.2550  1.3659  0.7929
 7155SOL    HW233525   1.886   3.244   3.371 -2.1654  0.5848 -0.3906
 7156SOL     OW33526   5.188   9.886   8.709 -0.1052 -0.2509  0.6852
 7156SOL    HW133527   5.172   9.936   8.624  0.2979 -0.2668  0.5994
 7156SOL    HW233528   5.174   9.789   8.694  0.6763 -0.3287  0.4571
 7157SOL     OW33529   2.343   3.491   2.762 -0.3951  0.1712  0.3083
 7157SOL    HW133530   2.332   3.447   2.673  0.2813 -0.2155  0.4176
 7157SOL    HW233531   2.297   3.580   2.761 -1.0600 -0.1716 -0.1725
 7158SOL     OW33532   2.316   4.155   5.471 -0.6696 -0.1839 -0.4425
 7158SOL    HW133533   2.358   4.096   5.539 -0.4744 -1.9303 -2.0687
 7158SOL    HW233534   2.386   4.210   5.426 -0.6381 -0.0924 -0.2851
 7159SOL     OW33535   0.385   6.069   7.410  0.1947  0.4643  0.1007
 7159SOL    HW133536   0.309   6.027   7.360  0.1154 -0.6452  1.1082
 7159SOL    HW233537   0.386   6.034   7.504  0.7273  2.0136  0.6890
 7160SOL     OW33538   4.218   1.956   6.206  0.2566 -0.4460  0.2800
 7160SOL    HW133539   4.268   1.961   6.120  1.8532 -0.7238  1.1672
 7160SOL    HW233540   4.181   1.864   6.218 -0.3405 -0.2838 -0.3052
 7161SOL     OW33541   8.377   2.612   0.458  0.3245 -0.2268  0.3554
 7161SOL    HW133542   8.289   2.626   0.412 -0.0510  0.0004  1.1321
 7161SOL    HW233543   8.365   2.623   0.556  1.4900  1.0725  0.3678
 7162SOL     OW33544   1.485   3.829   2.034 -0.4794 -0.0303  0.2879
 7162SOL    HW133545   1.519   3.785   2.117  0.0247 -0.0286  0.0866
 7162SOL    HW233546   1.460   3.760   1.967  0.0534 -0.0244  0.0746
 7163SOL     OW33547   6.788   1.777   9.449  0.1832  0.2363 -1.2352
 7163SOL    HW133548   6.873   1.783   9.503 -1.4666 -0.9509  1.5989
 7163SOL    HW233549   6.777   1.861   9.395  1.6514  1.7036  0.6607
 7164SOL     OW33550   3.260   1.332   6.769  0.4444 -0.8658 -0.3240
 7164SOL    HW133551   3.205   1.307   6.848  0.8049 -2.7563 -0.6360
 7164SOL    HW233552   3.236   1.273   6.692 -1.7140  2.5943 -2.4366
 7165SOL     OW33553   8.922   3.417   9.061  0.4723 -0.2492  0.2088
 7165SOL    HW133554   9.001   3.405   9.002  0.1499 -0.6714 -0.1449
 7165SOL    HW233555   8.839   3.396   9.010  0.1851 -0.5402  0.7936
 7166SOL     OW33556   0.041   9.185   4.658 -0.2046  0.3474  0.2609
 7166SOL    HW133557   0.057   9.245   4.736 -0.7766  1.1667 -0.2312
 7166SOL    HW233558   0.116   9.120   4.649  0.9695  1.6833  0.1795
 7167SOL     OW33559   0.024   6.509   1.261  0.3648  0.3662 -0.3770
 7167SOL    HW133560  -0.059   6.539   1.307  1.7851 -0.4876  2.8772
 7167SOL    HW233561   0.011   6.416   1.226 -0.6001  0.8694 -1.3716
 7168SOL     OW33562   0.526   0.417   6.106  0.1734  0.0960  0.2059
 7168SOL    HW133563   0.471   0.500   6.103  0.2273  0.1313  0.1815
 7168SOL    HW233564   0.502   0.363   6.187  0.2979  0.2459  0.3424
 7169SOL     OW33565   1.246   0.794   6.903 -0.4068  0.2333  0.1619
 7169SOL    HW133566   1.303   0.866   6.863  0.3118 -0.7741 -0.6283
 7169SOL    HW233567   1.190   0.834   6.975 -0.8681  1.8416 -1.0390
 7170SOL     OW33568   8.892   9.928   0.114  0.2502  0.1431  0.0604
 7170SOL    HW133569   8.812   9.955   0.061  0.2711  0.8482  0.3815
 7170SOL    HW233570   8.918   9.835   0.089  2.2635  1.6035 -3.5902
 7171SOL     OW33571   2.321   1.323   6.137  0.3882  0.5023 -0.0905
 7171SOL    HW133572   2.375   1.403   6.164 -0.6140  1.4169 -0.7704
 7171SOL    HW233573   2.323   1.313   6.038  0.4747 -0.2880 -0.0061
 7172SOL     OW33574   2.241   8.825   2.511 -0.4750 -0.0067 -0.5119
 7172SOL    HW133575   2.145   8.798   2.515  0.1611 -2.5774 -1.5560
 7172SOL    HW233576   2.262   8.862   2.420 -0.5717  0.9790 -0.1391
 7173SOL     OW33577   2.206   4.232   4.825  0.6914 -0.8104 -0.2596
 7173SOL    HW133578   2.158   4.231   4.737  2.2604 -0.2212 -1.1367
 7173SOL    HW233579   2.260   4.315   4.832 -0.0607 -0.4652  1.6369
 7174SOL     OW33580   2.981   5.183   0.458  0.9036  0.1913  0.0869
 7174SOL    HW133581   2.910   5.232   0.408  1.1525  2.5809  1.9598
 7174SOL    HW233582   3.058   5.245   0.477  1.9009 -1.3353  1.1959
 7175SOL     OW33583   0.550   4.478   2.986  0.2949 -0.1761 -0.3260
 7175SOL    HW133584   0.486   4.403   3.000 -0.3283  0.0686 -1.7402
 7175SOL    HW233585   0.574   4.484   2.889  1.0004  0.9162 -0.0989
 7176SOL     OW33586   4.452   9.939   2.301  0.1483  0.4536  0.1860
 7176SOL    HW133587   4.539   9.918   2.257  0.0705 -0.8785  0.6390
 7176SOL    HW233588   4.399   9.999   2.241  0.5174 -0.4130 -1.0453
 7177SOL     OW33589   1.781   8.635   3.101  0.3933  0.0387  0.2675
 7177SOL    HW133590   1.863   8.581   3.118 -0.0029 -1.0437 -1.1515
 7177SOL    HW233591   1.807   8.723   3.062  0.9114 -0.0607  0.3770
 7178SOL     OW33592   9.130   2.441   9.215  0.1552  0.0501 -0.0481
 7178SOL    HW133593   9.179   2.418   9.131 -0.3963  1.4840 -0.7911
 7178SOL    HW233594   9.149   2.537   9.238  2.5169 -1.0642  3.0033
 7179SOL     OW33595   6.251   9.228   9.262 -0.2689 -1.1293 -0.4694
 7179SOL    HW133596   6.249   9.326   9.282  0.1111 -0.7867 -2.0592
 7179SOL    HW233597   6.345   9.200   9.242 -0.4984 -1.6464 -0.8339
 7180SOL     OW33598   1.088   9.050   1.461 -0.5357 -0.2286 -0.4560
 7180SOL    HW133599   1.055   9.117   1.394 -1.7438 -0.3293  0.0100
 7180SOL    HW233600   1.075   9.087   1.553  0.8389 -0.2137 -0.2599
 7181SOL     OW33601   9.499   8.220   2.822  0.1814 -0.1174 -0.0246
 7181SOL    HW133602   9.481   8.309   2.780 -0.3669 -0.5304 -0.6733
 7181SOL    HW233603   9.435   8.152   2.786  0.7097 -0.8171  0.3360
 7182SOL     OW33604   9.117   0.589   1.915  0.2042  0.2991  0.6860
 7182SOL    HW133605   9.067   0.556   1.835  0.2273 -0.4547  0.9791
 7182SOL    HW233606   9.198   0.533   1.929 -0.5427 -0.4569  2.0662
 7183SOL     OW33607   0.459   2.189   6.097  0.0858  0.2362 -0.2024
 7183SOL    HW133608   0.467   2.120   6.025 -0.2640  0.9501 -0.9483
 7183SOL    HW233609   0.443   2.145   6.185  1.3751 -0.6937 -0.4165
 7184SOL     OW33610   4.573   4.236   2.680  0.4702 -0.3465 -0.2782
 7184SOL    HW133611   4.548   4.204   2.589  0.5466 -3.3961  0.7480
 7184SOL    HW233612   4.662   4.282   2.676 -0.3189  1.0851 -2.0080
 7185SOL     OW33613   0.693   5.873   1.462  0.0497 -0.1418 -0.2270
 7185SOL    HW133614   0.666   5.902   1.370  0.8469  1.3465 -0.0012
 7185SOL    HW233615   0.692   5.951   1.524  2.4897 -0.5032  0.3340
 7186SOL     OW33616   3.232   5.522   7.557 -0.3155  0.3195 -0.0805
 7186SOL    HW133617   3.138   5.537   7.527 -0.1021 -0.3904 -1.1210
 7186SOL    HW233618   3.294   5.581   7.505 -0.1765  0.7837  0.5990
 7187SOL     OW33619   1.489   0.996   3.298 -0.1746  0.1161 -0.1464
 7187SOL    HW133620   1.467   1.026   3.391  1.3964 -0.8128  0.5277
 7187SOL    HW233621   1.472   0.898   3.289 -1.2978  0.3832 -1.1489
 7188SOL     OW33622   1.882   2.484   3.629 -0.2791 -0.0517  0.0405
 7188SOL    HW133623   1.867   2.436   3.716  0.3612  1.6037  1.0886
 7188SOL    HW233624   1.900   2.581   3.647  1.5498 -0.0051 -1.8259
 7189SOL     OW33625   0.454   5.045   5.400  0.1551 -0.0568  0.0663
 7189SOL    HW133626   0.482   5.054   5.496 -0.4543  2.9935  0.0170
 7189SOL    HW233627   0.354   5.039   5.396  0.2793 -2.0830 -0.2851
 7190SOL     OW33628   3.442   1.516   7.747  0.6368 -0.0296 -0.0247
 7190SOL    HW133629   3.474   1.441   7.690  0.4284 -0.1839  0.0597
 7190SOL    HW233630   3.489   1.512   7.836  0.3747 -0.2686  0.1072
 7191SOL     OW33631   0.695   0.704   0.922  0.7022  0.0607  0.7034
 7191SOL    HW133632   0.655   0.613   0.924  0.4719  0.1464  0.1557
 7191SOL    HW233633   0.626   0.771   0.952  0.8479  0.0672  1.0331
 7192SOL     OW33634   1.100   6.729   4.147  0.2872  0.4912  0.2079
 7192SOL    HW133635   1.061   6.785   4.075  0.6218 -0.1943 -0.5083
 7192SOL    HW233636   1.196   6.710   4.128  0.2957  0.0446  0.6662
 7193SOL     OW33637   4.985   4.953   0.157  0.2941  0.1713  0.8891
 7193SOL    HW133638   5.014   4.867   0.197 -2.1381  0.2778  3.0373
 7193SOL    HW233639   4.989   5.025   0.226  0.1109  1.2876 -0.2441
 7194SOL     OW33640   3.976   3.893   2.894  0.2624  0.6487 -0.0391
 7194SOL    HW133641   3.971   3.941   2.806 -2.3323 -1.0888 -0.8879
 7194SOL    HW233642   4.042   3.818   2.887 -2.1708 -1.4343 -1.5496
 7195SOL     OW33643   3.605   0.674   6.781 -0.0628  0.0027 -0.0149
 7195SOL    HW133644   3.558   0.726   6.853 -1.7783  1.2393 -1.9968
 7195SOL    HW233645   3.680   0.729   6.745 -0.3449  0.1069 -0.4360
 7196SOL     OW33646   2.507   9.596   0.594 -0.2279  0.2693  0.4451
 7196SOL    HW133647   2.552   9.624   0.679 -1.0892 -1.8098  1.6411
 7196SOL    HW233648   2.573   9.548   0.536 -0.1405 -0.0858  0.8387
 7197SOL     OW33649   9.970   3.944   1.785  0.0461  0.1889  0.3100
 7197SOL    HW133650   9.981   3.884   1.705  0.0020  0.0253  0.4272
 7197SOL    HW233651  10.019   4.030   1.769 -1.1777  0.7471 -0.5177
 7198SOL     OW33652   7.715   4.249   3.771  0.4871 -0.1200 -0.8280
 7198SOL    HW133653   7.787   4.238   3.703  1.5440  0.1723  0.2155
 7198SOL    HW233654   7.631   4.205   3.739  1.2899 -0.9612 -1.8121
 7199SOL     OW33655   5.826   3.391   0.517 -0.1647  0.8267 -0.4404
 7199SOL    HW133656   5.846   3.293   0.522 -1.6379  0.4423 -1.6509
 7199SOL    HW233657   5.839   3.432   0.607 -0.5272 -0.6947  0.3270
 7200SOL     OW33658   1.446   4.767   4.653 -0.0816 -0.0193  0.4248
 7200SOL    HW133659   1.471   4.711   4.574 -0.1846 -0.2324  0.5454
 7200SOL    HW233660   1.525   4.822   4.681 -0.0464  0.0599  0.1693
 7201SOL     OW33661   5.402   3.816   4.712  0.0245  0.1599  0.1417
 7201SOL    HW133662   5.377   3.853   4.623  0.0914  1.3865  0.6196
 7201SOL    HW233663   5.474   3.872   4.753 -0.1035 -0.2991  1.0200
 7202SOL     OW33664   5.943   2.431   8.803 -0.1927  0.1156  0.1436
 7202SOL    HW133665   5.896   2.382   8.877 -2.3591  3.2608  0.9461
 7202SOL    HW233666   5.879   2.446   8.727 -0.0596  3.0408  0.5721
 7203SOL     OW33667   9.999   9.662   2.332  0.1061  1.0036 -0.4153
 7203SOL    HW133668  10.029   9.613   2.413 -3.9014  3.3437  2.6784
 7203SOL    HW233669   9.914   9.622   2.298  0.6140  1.3832 -2.2136
 7204SOL     OW33670   1.224   7.523   4.199 -0.5231  0.4133 -0.0296
 7204SOL    HW133671   1.271   7.556   4.281 -0.8361  1.0118 -0.0879
 7204SOL    HW233672   1.282   7.536   4.119 -1.4073  2.7216 -0.3549
 7205SOL     OW33673   3.430   0.613   4.997  0.2833  0.5039  0.4873
 7205SOL    HW133674   3.420   0.627   5.095 -0.0609  1.1720  0.3612
 7205SOL    HW233675   3.369   0.675   4.948  0.7737  0.4824 -0.1586
 7206SOL     OW33676   9.835   2.408   4.728  0.2339 -0.0070  0.2995
 7206SOL    HW133677   9.789   2.387   4.641 -2.7319 -0.1950  1.8442
 7206SOL    HW233678   9.818   2.503   4.752  1.5777  0.2144  0.3895
 7207SOL     OW33679   1.994   6.487   0.524 -0.1585  0.4631 -0.0660
 7207SOL    HW133680   1.905   6.497   0.569  0.1749 -0.3014  0.7842
 7207SOL    HW233681   2.012   6.391   0.507  1.6604  0.3592  2.1787
 7208SOL     OW33682   3.225   0.363   6.661 -0.6487  0.5612 -0.2369
 7208SOL    HW133683   3.166   0.328   6.733  0.2666 -0.4058  0.0572
 7208SOL    HW233684   3.272   0.287   6.616  0.5516  1.3199 -0.2932
 7209SOL     OW33685   4.832   4.706   3.422 -0.4392  0.4491  0.5297
 7209SOL    HW133686   4.771   4.750   3.356  0.8918  1.7393  0.1545
 7209SOL    HW233687   4.781   4.685   3.506 -1.6599  0.5184 -0.1822
 7210SOL     OW33688   1.970   3.489   1.791  0.1010 -0.7578 -0.3044
 7210SOL    HW133689   1.909   3.508   1.715  0.7465 -2.0302 -1.1471
 7210SOL    HW233690   1.928   3.522   1.876 -0.9271  0.0308 -1.1030
 7211SOL     OW33691   4.739   8.914   9.751 -0.3229  0.0740  0.8542
 7211SOL    HW133692   4.789   8.829   9.730 -1.1416 -0.3501  0.6303
 7211SOL    HW233693   4.781   8.990   9.701 -0.0324 -0.3154  0.5004
 7212SOL     OW33694   8.175   6.759   6.674 -0.0039 -0.5132 -1.3734
 7212SOL    HW133695   8.115   6.832   6.705  2.1311  1.5340 -1.8927
 7212SOL    HW233696   8.184   6.690   6.746 -1.2810  0.2103 -0.4969
 7213SOL     OW33697   1.498   4.263   4.222  0.4391  0.7666  0.3851
 7213SOL    HW133698   1.527   4.358   4.218 -0.8669  1.1825  0.8125
 7213SOL    HW233699   1.401   4.256   4.199  0.7591 -0.5819 -0.6509
 7214SOL     OW33700   1.275   2.936   6.275  0.0746  0.8094  0.4274
 7214SOL    HW133701   1.268   2.847   6.230  0.4629  0.7283  0.5292
 7214SOL    HW233702   1.369   2.969   6.270 -0.1295  1.3523  0.1241
 7215SOL     OW33703   0.075   3.571   9.610  0.8218  0.1779  0.3628
 7215SOL    HW133704   0.102   3.570   9.706 -0.4846 -0.5925  0.7340
 7215SOL    HW233705   0.046   3.663   9.584 -1.2573 -0.1647  1.4096
 7216SOL     OW33706   6.113   0.773   9.275 -0.0764  0.2484 -0.2601
 7216SOL    HW133707   6.050   0.846   9.304 -0.3035  0.0173 -0.1694
 7216SOL    HW233708   6.170   0.807   9.200  0.3918  0.7889  0.3414
 7217SOL     OW33709   2.310   5.969   6.078 -0.1620 -0.3775  0.0410
 7217SOL    HW133710   2.375   6.014   6.140 -0.1266 -1.0806  0.5156
 7217SOL    HW233711   2.220   5.963   6.122 -0.9382  1.8912 -1.1736
 7218SOL     OW33712   3.729   3.069   6.248  0.1722  0.0947 -0.0136
 7218SOL    HW133713   3.817   3.039   6.212 -0.1724  0.1557 -0.9181
 7218SOL    HW233714   3.667   2.991   6.255 -0.2282  0.3283 -0.9210
 7219SOL     OW33715   7.457   9.540   4.031  0.3356 -0.2060  0.2412
 7219SOL    HW133716   7.398   9.483   3.973  1.7373 -1.3475 -0.0605
 7219SOL    HW233717   7.450   9.510   4.126  0.3312 -0.2371  0.2311
 7220SOL     OW33718   5.865   8.588   5.929 -0.2680  0.5811 -0.2743
 7220SOL    HW133719   5.934   8.659   5.941 -0.4949  0.6780  0.4719
 7220SOL    HW233720   5.905   8.509   5.883  0.9345 -0.2708  2.1657
 7221SOL     OW33721   6.336   1.274   3.818  0.0757  0.0120  0.1644
 7221SOL    HW133722   6.402   1.201   3.800  1.3899  1.4470 -0.9625
 7221SOL    HW233723   6.283   1.293   3.736 -0.7797 -0.1924  0.6690
 7222SOL     OW33724   2.722   7.098   6.490 -0.1981 -0.1041 -0.1468
 7222SOL    HW133725   2.778   7.147   6.556  0.2277 -0.1084 -0.4996
 7222SOL    HW233726   2.703   7.158   6.412  0.9677 -0.7380 -0.9354
 7223SOL     OW33727   0.891   0.164   8.298 -0.0201  0.3175 -0.1750
 7223SOL    HW133728   0.975   0.189   8.346  0.2893 -1.3260  0.1900
 7223SOL    HW233729   0.882   0.220   8.216  1.5400  0.4026 -0.3145
 7224SOL     OW33730   5.875   1.603   2.058  0.1251 -0.1050 -0.2217
 7224SOL    HW133731   5.879   1.506   2.031 -1.2060 -0.1222 -0.3868
 7224SOL    HW233732   5.811   1.614   2.133  1.3907  0.4502  0.8036
 7225SOL     OW33733   0.668   1.309   3.725 -0.3251  0.4009  0.0739
 7225SOL    HW133734   0.672   1.408   3.737  0.8602  0.4723 -0.8690
 7225SOL    HW233735   0.749   1.267   3.765 -0.9736 -0.2315  0.7524
 7226SOL     OW33736   3.124   1.547   0.811  0.2500 -0.3949 -0.1314
 7226SOL    HW133737   3.185   1.589   0.744 -0.3830 -0.9450 -1.0699
 7226SOL    HW233738   3.084   1.618   0.869  0.2475  0.1658 -0.8152
 7227SOL     OW33739   0.941   7.551   8.835 -0.3481 -0.0739  0.6641
 7227SOL    HW133740   0.969   7.584   8.745 -0.6812 -1.0141  0.2117
 7227SOL    HW233741   0.911   7.629   8.891  0.7794  0.6334  0.3056
 7228SOL     OW33742   3.871   1.050   5.126 -0.3421  0.3752 -0.4679
 7228SOL    HW133743   3.928   1.132   5.114 -0.2811  0.2574 -0.9941
 7228SOL    HW233744   3.840   1.018   5.037 -1.6206  0.7012 -0.1397
 7229SOL     OW33745   0.772   3.002   6.804 -0.0013  0.9346 -0.1766
 7229SOL    HW133746   0.792   3.095   6.773 -1.7543  0.6809 -2.1395
 7229SOL    HW233747   0.678   2.997   6.837  0.3512  0.0468  0.7270
 7230SOL     OW33748   7.774   2.204   3.671 -0.1245  0.3462 -0.8335
 7230SOL    HW133749   7.718   2.235   3.594  0.7688  0.1357 -1.5820
 7230SOL    HW233750   7.740   2.244   3.756  0.1063  2.1758 -1.5833
 7231SOL     OW33751   0.441   1.913   6.621  0.2304 -0.8253  0.2987
 7231SOL    HW133752   0.488   2.002   6.619  2.1753 -1.8327 -3.0393
 7231SOL    HW233753   0.343   1.928   6.630  0.5524  1.6855  0.0319
 7232SOL     OW33754   0.117   1.862   6.026 -0.2665  0.2969  0.5565
 7232SOL    HW133755   0.103   1.769   5.991  0.7459 -0.2012  1.4663
 7232SOL    HW233756   0.066   1.926   5.969 -0.3646 -0.7328 -0.5431
 7233SOL     OW33757   4.578   7.389   8.695  0.0507  0.2724  0.8628
 7233SOL    HW133758   4.574   7.463   8.762 -2.5002 -0.3300  1.4218
 7233SOL    HW233759   4.567   7.426   8.603  2.9141  1.0224  0.7643
 7234SOL     OW33760   3.809   5.366   3.379  0.2899  0.4872 -0.1133
 7234SOL    HW133761   3.812   5.381   3.478 -1.6575 -1.2351  0.2357
 7234SOL    HW233762   3.834   5.272   3.359  0.5587  0.7946 -1.2752
 7235SOL     OW33763   1.790   5.976   8.047 -0.1754  0.1984 -0.3060
 7235SOL    HW133764   1.750   5.919   8.119 -1.2769 -1.1502 -1.9663
 7235SOL    HW233765   1.835   5.918   7.979 -0.9919  1.3192 -1.8295
 7236SOL     OW33766   5.301   5.118   9.990  0.6965  0.1098  0.6340
 7236SOL    HW133767   5.270   5.185  10.058  1.2565 -0.3433  1.3523
 7236SOL    HW233768   5.238   5.040   9.989 -0.3244  0.9495 -0.6780
 7237SOL     OW33769   2.099   4.688   4.891  0.4531  0.4305 -0.6384
 7237SOL    HW133770   2.169   4.692   4.962 -0.0729 -2.7148  0.1518
 7237SOL    HW233771   2.033   4.615   4.913 -1.6812  1.6768 -2.6031
 7238SOL     OW33772   1.902   3.286   7.747  0.4049 -0.7054  0.0535
 7238SOL    HW133773   1.963   3.305   7.670 -0.4984 -1.0406 -0.7420
 7238SOL    HW233774   1.871   3.191   7.744  0.0559 -0.6170  0.6121
 7239SOL     OW33775   9.168   1.514   5.535  0.0731  0.3929 -0.0896
 7239SOL    HW133776   9.246   1.575   5.549  1.3885 -0.8660 -1.5778
 7239SOL    HW233777   9.130   1.487   5.623  0.8400  1.6346  0.6365
 7240SOL     OW33778   6.794   9.095   8.421  0.2082 -0.6174 -0.2917
 7240SOL    HW133779   6.850   9.145   8.487 -0.4956 -0.7101  0.4016
 7240SOL    HW233780   6.824   9.115   8.328  0.5009  0.3960  0.0170
 7241SOL     OW33781   4.390   1.162   1.539 -0.9228  0.1922  0.3288
 7241SOL    HW133782   4.424   1.254   1.558 -1.3250  0.8079 -1.8120
 7241SOL    HW233783   4.388   1.109   1.624 -1.6691  2.4782  1.7727
 7242SOL     OW33784   1.111   0.668   8.444  1.1988 -0.0209 -0.1213
 7242SOL    HW133785   1.135   0.581   8.401  0.1787 -0.6496  0.5572
 7242SOL    HW233786   1.111   0.741   8.375 -2.6376 -1.4033 -1.6904
 7243SOL     OW33787   4.972   0.659   1.100  0.3298  0.1234 -0.4274
 7243SOL    HW133788   5.051   0.633   1.044  0.5400 -0.8548  0.3165
 7243SOL    HW233789   5.002   0.722   1.172  0.0081  1.6170 -1.5703
 7244SOL     OW33790   6.818   3.633   6.984  0.4986  0.2421 -0.0180
 7244SOL    HW133791   6.750   3.652   6.914  1.1190  0.6083 -0.5298
 7244SOL    HW233792   6.782   3.566   7.049 -0.5016  0.7442 -0.0456
 7245SOL     OW33793   8.537   4.675   3.315 -0.5515 -0.9895 -0.1715
 7245SOL    HW133794   8.437   4.673   3.323 -0.4424 -1.9940  0.9530
 7245SOL    HW233795   8.574   4.584   3.330  0.6793 -0.2482  1.3915
 7246SOL     OW33796   3.535   9.924   8.502  0.5047  0.3173 -0.1013
 7246SOL    HW133797   3.586   9.870   8.435 -1.2857  2.1384 -3.0798
 7246SOL    HW233798   3.454   9.874   8.532  1.6233 -0.7457  1.1884
 7247SOL     OW33799   2.095   5.194   5.257 -0.1538 -0.1004 -0.2899
 7247SOL    HW133800   2.095   5.206   5.357  0.5092  1.5627 -0.4616
 7247SOL    HW233801   2.054   5.106   5.234 -0.2846 -0.5258  1.4548
 7248SOL     OW33802   6.986   0.566   6.101 -0.2955 -0.3106  0.2390
 7248SOL    HW133803   7.008   0.562   6.004  0.5579 -1.2236  0.4648
 7248SOL    HW233804   6.893   0.532   6.115  0.4137 -2.4382 -0.0058
 7249SOL     OW33805   3.359   5.091   6.784 -0.3110  0.5675  0.2209
 7249SOL    HW133806   3.399   5.027   6.849 -1.9958 -0.2490  0.4983
 7249SOL    HW233807   3.259   5.088   6.792 -0.4421  2.4722 -0.5009
 7250SOL     OW33808   2.599   3.978   6.595  0.0311 -0.2653 -0.0834
 7250SOL    HW133809   2.577   4.076   6.604 -0.7627 -0.3553 -0.9341
 7250SOL    HW233810   2.641   3.962   6.506 -0.7504 -0.8484 -0.3584
 7251SOL     OW33811   0.485   4.188   2.751  0.1141  0.9899  0.5171
 7251SOL    HW133812   0.470   4.215   2.846 -0.8813 -1.3827  1.0919
 7251SOL    HW233813   0.486   4.088   2.745  1.6653  1.1136 -1.7568
 7252SOL     OW33814   5.200   2.504   3.388  0.3117  0.7231 -0.6722
 7252SOL    HW133815   5.252   2.522   3.471  0.2581  0.4695 -0.5862
 7252SOL    HW233816   5.185   2.591   3.339 -0.6524  1.0375  0.1658
 7253SOL     OW33817   4.423   6.381   3.947 -0.1236  0.2744 -0.2680
 7253SOL    HW133818   4.409   6.414   3.854  1.0863  0.3047 -0.4504
 7253SOL    HW233819   4.354   6.312   3.969  0.2653 -0.5556 -1.5944
 7254SOL     OW33820   3.471   4.235   4.889 -0.5240  0.1375 -0.3890
 7254SOL    HW133821   3.467   4.280   4.800 -0.9637 -0.9267 -0.9138
 7254SOL    HW233822   3.494   4.138   4.877  0.2700  0.1850  0.7163
 7255SOL     OW33823   9.322   1.722   3.965 -0.6067 -0.1146  0.1553
 7255SOL    HW133824   9.319   1.683   3.873  0.4921  2.4073 -0.9978
 7255SOL    HW233825   9.242   1.780   3.980  0.2390  1.1289 -0.0119
 7256SOL     OW33826   5.155   0.622   5.918 -0.3736  0.1074  0.3549
 7256SOL    HW133827   5.158   0.669   5.829  2.1918 -0.9332 -0.1402
 7256SOL    HW233828   5.140   0.524   5.902  4.1285 -0.7377  0.7642
 7257SOL     OW33829   4.035   1.145   6.279 -0.2865  0.3499  0.1505
 7257SOL    HW133830   4.072   1.201   6.204  2.1583 -0.1061  0.9622
 7257SOL    HW233831   3.950   1.185   6.311 -0.6712  1.3184 -1.9780
 7258SOL     OW33832   1.711   7.693   9.760  0.4645 -0.2817 -0.4681
 7258SOL    HW133833   1.785   7.626   9.769  0.3280 -0.3422  0.2264
 7258SOL    HW233834   1.623   7.647   9.769  0.3690 -0.0179 -0.0094
 7259SOL     OW33835   8.785   0.389   3.719 -0.1131 -0.6783 -0.1539
 7259SOL    HW133836   8.713   0.443   3.761  1.1655  2.0214 -1.3108
 7259SOL    HW233837   8.840   0.345   3.790  0.0106  1.1290  0.8986
 7260SOL     OW33838   1.568   0.275   3.938  0.0475 -0.1316 -0.0205
 7260SOL    HW133839   1.610   0.274   3.847  0.9890  0.0919  0.4035
 7260SOL    HW233840   1.602   0.354   3.989  0.3840 -0.8833  0.9252
 7261SOL     OW33841   3.613   5.425   3.657  0.1640  0.1332  0.0008
 7261SOL    HW133842   3.575   5.513   3.685  0.2370 -0.7684  3.1436
 7261SOL    HW233843   3.538   5.361   3.640  0.1297 -0.4420  2.1191
 7262SOL     OW33844   2.512   0.000   5.577  0.1759  0.1033  0.4333
 7262SOL    HW133845   2.448   0.077   5.583  0.7617  0.6353 -0.0500
 7262SOL    HW233846   2.586   0.014   5.643 -0.8928 -1.1689  1.9274
 7263SOL     OW33847   4.033   5.034   5.519 -0.1315  0.1929  0.3829
 7263SOL    HW133848   4.015   5.056   5.424 -2.5327  2.6441  1.3342
 7263SOL    HW233849   4.080   5.111   5.563 -1.0571  0.0318  1.7005
 7264SOL     OW33850   0.103   2.264   2.142  0.6082  0.0693  0.1823
 7264SOL    HW133851   0.104   2.164   2.138 -2.4184 -0.1479  2.8777
 7264SOL    HW233852   0.095   2.301   2.050  0.4645 -2.2142 -0.7532
 7265SOL     OW33853   3.054   2.931   7.911  0.8795  0.4848 -0.0509
 7265SOL    HW133854   3.076   3.028   7.922  0.5974  0.2717  2.7729
 7265SOL    HW233855   2.976   2.907   7.969  2.5106 -1.9411  1.2314
 7266SOL     OW33856   3.795   5.223   2.570  0.1382 -0.1960 -0.1533
 7266SOL    HW133857   3.748   5.277   2.499 -0.4047  0.1106  0.4369
 7266SOL    HW233858   3.842   5.285   2.633  0.7453 -0.4770 -0.3257
 7267SOL     OW33859   3.127   4.847   8.752 -0.1963  0.0144  0.1580
 7267SOL    HW133860   3.156   4.863   8.658 -0.1320 -1.4235 -0.0733
 7267SOL    HW233861   3.185   4.778   8.794 -1.9738 -1.4216  0.3291
 7268SOL     OW33862   9.828   0.899   5.129 -0.8261 -0.3660 -0.3877
 7268SOL    HW133863   9.899   0.828   5.127  0.7332  1.1749 -0.4922
 7268SOL    HW233864   9.822   0.938   5.221 -0.5736  0.4767 -0.7271
 7269SOL     OW33865   0.866   9.522   4.331  0.3487 -0.1077  0.4000
 7269SOL    HW133866   0.824   9.599   4.283  0.8011 -0.5845 -0.7685
 7269SOL    HW233867   0.808   9.441   4.320 -0.0265  0.0075  1.4627
 7270SOL     OW33868   3.135   3.655   7.960 -0.0278 -0.7231 -0.1088
 7270SOL    HW133869   3.097   3.745   7.937  1.5778  0.5914  2.0749
 7270SOL    HW233870   3.062   3.587   7.963 -2.0246  1.4170  2.4813
 7271SOL     OW33871   2.509   0.775   5.086 -0.5567 -0.5790 -0.0018
 7271SOL    HW133872   2.516   0.682   5.053  0.1734 -0.6255  0.2830
 7271SOL    HW233873   2.516   0.839   5.009  1.7716 -0.6618  0.1209
 7272SOL     OW33874   4.335   0.200   7.511 -0.1640  0.4230 -0.4124
 7272SOL    HW133875   4.389   0.284   7.517 -0.8781  0.8698 -0.1637
 7272SOL    HW233876   4.238   0.222   7.516 -0.3219 -0.6191  2.2386
 7273SOL     OW33877   1.972   1.384   4.306 -0.2493 -0.0080  0.0270
 7273SOL    HW133878   1.876   1.380   4.280 -0.0040  0.4044 -0.9917
 7273SOL    HW233879   1.984   1.446   4.384 -1.0234 -1.3747  1.2385
 7274SOL     OW33880   3.991   1.181   4.147 -0.2009 -0.2950  0.0362
 7274SOL    HW133881   4.085   1.154   4.128 -0.1910 -0.6916  0.6502
 7274SOL    HW233882   3.962   1.249   4.080  0.2695 -0.7304 -0.6149
 7275SOL     OW33883   4.938   2.673   4.819 -0.0452 -0.2585  0.4210
 7275SOL    HW133884   4.842   2.659   4.844  0.2687 -0.6478  1.4352
 7275SOL    HW233885   4.968   2.763   4.851 -0.8554  1.0595 -2.3681
 7276SOL     OW33886   0.707   1.260   2.972  0.4602  0.4203 -0.2776
 7276SOL    HW133887   0.761   1.182   3.003 -0.8069  0.4253  2.0966
 7276SOL    HW233888   0.726   1.339   3.032  0.6437  1.5298 -1.7591
 7277SOL     OW33889   9.477   0.760   6.714 -0.3559  0.3068  0.2579
 7277SOL    HW133890   9.408   0.752   6.786 -1.6416  1.7961 -0.7745
 7277SOL    HW233891   9.510   0.669   6.690 -1.4143 -0.3737  1.3076
 7278SOL     OW33892   1.540   1.257   1.500 -1.0245 -0.4847  0.1829
 7278SOL    HW133893   1.468   1.295   1.558  0.0974  1.7601  0.1278
 7278SOL    HW233894   1.565   1.323   1.429  1.4755 -1.0054  0.5343
 7279SOL     OW33895   6.050   1.728   8.981  0.2936  0.1249  0.2551
 7279SOL    HW133896   6.111   1.804   9.004  1.0837 -0.5438  0.3757
 7279SOL    HW233897   5.998   1.751   8.899 -0.6022  1.4283  1.1756
 7280SOL     OW33898   2.304   1.443   6.727 -0.1839 -0.2164 -0.1592
 7280SOL    HW133899   2.385   1.501   6.733 -0.0562 -0.4261  0.1703
 7280SOL    HW233900   2.227   1.489   6.772  0.0196 -0.4778  0.4629
 7281SOL     OW33901   9.407   3.105   5.747  0.4381 -0.1705  0.3650
 7281SOL    HW133902   9.364   3.036   5.689  1.1489 -0.4926  0.2154
 7281SOL    HW233903   9.353   3.189   5.746 -0.5415 -0.7946  0.7124
 7282SOL     OW33904   0.845   0.710   3.753  0.2997 -0.5667  0.3480
 7282SOL    HW133905   0.896   0.624   3.760 -0.9819 -1.1666  3.0495
 7282SOL    HW233906   0.907   0.787   3.772  1.6556 -0.7449 -2.9460
 7283SOL     OW33907   7.811   7.289   6.552  0.3484  0.1821 -0.0132
 7283SOL    HW133908   7.761   7.206   6.528  0.0976  0.4090 -0.2879
 7283SOL    HW233909   7.791   7.313   6.647 -0.4127  0.5072 -0.2506
 7284SOL     OW33910   1.608   3.667   7.317  0.0048  0.2480  0.1995
 7284SOL    HW133911   1.556   3.742   7.275 -2.8204 -2.8595 -2.1553
 7284SOL    HW233912   1.568   3.646   7.406 -1.3201 -0.5624 -0.5664
 7285SOL     OW33913   1.356   0.501   4.049  0.1520  0.4823 -0.9405
 7285SOL    HW133914   1.318   0.460   3.966 -2.7016 -0.7269  0.9157
 7285SOL    HW233915   1.387   0.429   4.111  0.5545  1.3146 -0.1644
 7286SOL     OW33916   8.822   0.718   3.164  0.0700  0.2480  0.1739
 7286SOL    HW133917   8.726   0.695   3.147  0.1516 -0.0326  0.0854
 7286SOL    HW233918   8.875   0.706   3.079 -0.1891  2.4104 -0.3263
 7287SOL     OW33919   4.365   8.995   9.203  0.4492  0.1016  0.2280
 7287SOL    HW133920   4.396   8.990   9.298 -1.5547  0.0693  0.9073
 7287SOL    HW233921   4.389   9.084   9.165  2.2370 -0.2790  0.3908
 7288SOL     OW33922   0.881   4.068   3.577  0.0932  0.6208 -0.0512
 7288SOL    HW133923   0.875   4.158   3.534  0.4700  1.0297  0.7391
 7288SOL    HW233924   0.949   4.013   3.529 -0.1218  0.7658 -0.5234
 7289SOL     OW33925   6.235   4.413   1.472  0.1629 -0.4108 -0.1520
 7289SOL    HW133926   6.320   4.383   1.427  0.1884 -1.6521  0.6877
 7289SOL    HW233927   6.258   4.453   1.561 -0.1923 -1.6238  0.4984
 7290SOL     OW33928   2.710   1.617   3.901  0.7468  0.6642 -0.1681
 7290SOL    HW133929   2.801   1.578   3.886  0.5663 -0.1213  0.6741
 7290SOL    HW233930   2.684   1.675   3.824  1.9215  0.8076 -0.4538
 7291SOL     OW33931   5.048   9.306   0.704 -0.6626  0.0436 -0.7386
 7291SOL    HW133932   4.958   9.289   0.746  0.3421 -4.2095 -0.0825
 7291SOL    HW233933   5.056   9.252   0.621  2.0946 -1.3932  0.4060
 7292SOL     OW33934   6.087   9.498   4.954 -0.2733 -0.0619 -0.7555
 7292SOL    HW133935   6.057   9.406   4.980  0.3647 -0.0011  0.2081
 7292SOL    HW233936   6.036   9.566   5.005  2.7517  0.0091  2.3520
 7293SOL     OW33937   2.658   1.308   4.563  0.3665  0.7265  0.0087
 7293SOL    HW133938   2.583   1.264   4.513 -0.8410  0.8543  1.6453
 7293SOL    HW233939   2.745   1.286   4.519 -0.3914 -1.6834 -0.3549
 7294SOL     OW33940   7.625   0.456   0.384 -0.2545  0.3008  0.0667
 7294SOL    HW133941   7.602   0.493   0.473 -1.4346 -0.9109  0.2706
 7294SOL    HW233942   7.542   0.435   0.333  0.3914 -1.5680 -0.2486
 7295SOL     OW33943   3.622   9.244   7.053 -0.2265  0.3244 -0.6438
 7295SOL    HW133944   3.633   9.339   7.026 -0.9282  0.6607  0.2170
 7295SOL    HW233945   3.532   9.231   7.094  0.7154 -0.1899  1.3312
 7296SOL     OW33946   4.601   3.217   4.259 -0.3733  0.4257 -0.0948
 7296SOL    HW133947   4.530   3.207   4.328 -0.7357  3.3425  0.0168
 7296SOL    HW233948   4.588   3.148   4.187 -3.9835  1.5310 -0.6230
 7297SOL     OW33949   2.781   9.921   5.151 -0.5254  0.5964 -0.5287
 7297SOL    HW133950   2.750   9.910   5.246 -0.4998 -1.0359 -0.7018
 7297SOL    HW233951   2.714   9.974   5.100 -0.6124  1.3569  0.3621
 7298SOL     OW33952   1.867   8.067   0.148  0.7168  0.1905  0.1371
 7298SOL    HW133953   1.859   8.017   0.061  0.3308  0.4483  0.0237
 7298SOL    HW233954   1.919   8.151   0.134  1.7150 -0.3709  0.4115
 7299SOL     OW33955   2.829   3.618   4.356  0.0522  0.2966  0.6034
 7299SOL    HW133956   2.764   3.693   4.340  0.2126 -0.3107 -3.4213
 7299SOL    HW233957   2.922   3.650   4.339  0.1085 -0.7890 -1.2899
 7300SOL     OW33958   0.942   2.404   0.967 -0.6811 -0.0667 -0.0610
 7300SOL    HW133959   0.933   2.454   1.053 -1.0452  2.6696 -1.6440
 7300SOL    HW233960   0.854   2.401   0.920  0.0006  0.4857 -1.4187
 7301SOL     OW33961   1.575   2.119   3.416 -0.6163 -0.2759 -0.1854
 7301SOL    HW133962   1.612   2.211   3.401 -0.3187 -0.6064 -1.5283
 7301SOL    HW233963   1.636   2.052   3.375 -0.0019 -1.2085  2.1734
 7302SOL     OW33964   0.168   4.874   9.997 -1.1459 -0.4088  0.1520
 7302SOL    HW133965   0.173   4.831  10.087 -0.0222 -1.5308 -0.4346
 7302SOL    HW233966   0.249   4.932   9.983 -0.8668 -0.9468 -0.4912
 7303SOL     OW33967   5.713   4.015   8.563  0.3489 -0.4768 -0.7401
 7303SOL    HW133968   5.649   4.063   8.623  0.2991 -2.4735  0.8800
 7303SOL    HW233969   5.761   4.080   8.505 -0.2934  1.4179  0.8274
 7304SOL     OW33970   8.009   1.316   2.535 -0.4359 -0.1465 -0.2455
 7304SOL    HW133971   8.049   1.249   2.473  0.4542  1.9347 -2.0107
 7304SOL    HW233972   8.083   1.364   2.583 -0.9408  1.2178 -0.8113
 7305SOL     OW33973   2.724   8.016   3.279  0.0924 -0.1098 -0.0618
 7305SOL    HW133974   2.639   8.069   3.278  0.5274  0.6676  1.4949
 7305SOL    HW233975   2.747   7.993   3.374  1.9753  0.2920 -0.4088
 7306SOL     OW33976   5.497   3.970   9.728 -0.0728  0.3291  0.0912
 7306SOL    HW133977   5.480   4.006   9.820  0.3631  0.9079 -0.0570
 7306SOL    HW233978   5.416   3.982   9.671  0.8657  3.2786 -0.6811
 7307SOL     OW33979   2.592   6.353   6.646  0.7691  0.2512 -0.1273
 7307SOL    HW133980   2.539   6.278   6.608  1.1309 -0.3024  0.4529
 7307SOL    HW233981   2.666   6.377   6.584  0.4796  0.3227 -0.4448
 7308SOL     OW33982   8.110   1.007   9.943  0.6361 -0.7889  0.3381
 7308SOL    HW133983   8.152   1.096   9.957  0.5299 -0.6427 -0.2528
 7308SOL    HW233984   8.115   0.954  10.028  1.4147 -0.5245  0.4596
 7309SOL     OW33985   8.168   3.083   3.672  0.3787 -0.2224  0.1365
 7309SOL    HW133986   8.128   3.168   3.704  0.4828  0.6668 -1.9883
 7309SOL    HW233987   8.264   3.099   3.647  0.3798 -0.9252 -0.3308
 7310SOL     OW33988   2.173   5.025   9.177 -0.6149 -0.2099 -0.3414
 7310SOL    HW133989   2.196   4.933   9.209  1.4003 -0.0002 -1.1392
 7310SOL    HW233990   2.218   5.093   9.235 -1.4460  0.2715 -0.2473
 7311SOL     OW33991   4.579   9.845   8.781 -0.1468  0.0676  0.2501
 7311SOL    HW133992   4.586   9.756   8.828 -1.1956  0.7341  1.7125
 7311SOL    HW233993   4.668   9.891   8.784  0.0991 -0.4164  0.5520
 7312SOL     OW33994   2.789   3.687   5.470 -0.0298  0.1929 -0.1181
 7312SOL    HW133995   2.766   3.735   5.385  0.7849 -1.7808 -1.5142
 7312SOL    HW233996   2.882   3.712   5.497  0.0924  0.0317 -0.3858
 7313SOL     OW33997   0.812   2.701   6.117  0.5533  0.2210 -0.0599
 7313SOL    HW133998   0.845   2.640   6.046 -1.0877  0.4846 -1.0724
 7313SOL    HW233999   0.762   2.649   6.186 -0.2635  0.3269 -0.5691
 7314SOL     OW34000   1.792   5.013   9.242  0.2154  0.1287 -0.0744
 7314SOL    HW134001   1.704   4.971   9.220  1.0631 -1.0510 -1.3748
 7314SOL    HW234002   1.841   5.034   9.157  2.8298 -2.8597  0.5668
 7315SOL     OW34003   8.977   5.044   5.549 -0.1603 -0.2237  0.6343
 7315SOL    HW134004   8.990   5.106   5.627  0.6060 -0.1141  0.4260
 7315SOL    HW234005   9.059   5.046   5.491 -0.7769 -0.2237 -0.2319
 7316SOL     OW34006   2.426   3.187   1.536 -0.6877  0.6597 -0.4565
 7316SOL    HW134007   2.381   3.199   1.625  0.8752 -2.1226  0.7922
 7316SOL    HW234008   2.367   3.221   1.463 -3.4045  0.0732  1.3990
 7317SOL     OW34009   2.437   3.774   3.385  0.1918 -0.3367  0.3738
 7317SOL    HW134010   2.427   3.822   3.472  1.5500 -0.1110  0.4238
 7317SOL    HW234011   2.534   3.751   3.371 -0.0539 -0.5827 -0.9600
 7318SOL     OW34012   3.768   4.222   5.543  0.0762  0.0552 -0.1732
 7318SOL    HW134013   3.693   4.288   5.547 -1.2319 -1.2768 -1.6087
 7318SOL    HW234014   3.855   4.270   5.532 -0.5791  1.6187  1.4221
 7319SOL     OW34015   1.836   3.568   7.795 -0.1999 -0.2244 -0.2044
 7319SOL    HW134016   1.856   3.471   7.782 -0.9993 -0.4846  0.4959
 7319SOL    HW234017   1.868   3.597   7.886  0.0564  0.1723 -0.4198
 7320SOL     OW34018   3.237   4.388   6.188 -0.3325 -0.7930 -0.1882
 7320SOL    HW134019   3.182   4.307   6.169 -1.2713 -0.4501  0.9970
 7320SOL    HW234020   3.327   4.360   6.220  0.6637 -1.3638 -3.3371
 7321SOL     OW34021   2.864   8.483   4.698 -0.1653  0.0580  0.2690
 7321SOL    HW134022   2.774   8.523   4.678  0.2927  0.5198 -0.9510
 7321SOL    HW234023   2.852   8.393   4.739 -1.1984 -0.4892 -1.1866
 7322SOL     OW34024   9.037   0.680   0.965  0.3757 -0.4104  0.1303
 7322SOL    HW134025   8.993   0.766   0.939  1.7403  0.1532 -0.3753
 7322SOL    HW234026   9.023   0.612   0.892 -0.4099 -0.5147  0.3761
 7323SOL     OW34027   2.208   3.734   2.752 -0.0871 -0.5303  0.1095
 7323SOL    HW134028   2.283   3.774   2.804 -0.1116  0.3522 -0.5266
 7323SOL    HW234029   2.121   3.753   2.798 -0.0163 -0.6590  0.2969
 7324SOL     OW34030   7.363   7.801   8.266 -0.3634  0.1351 -0.8181
 7324SOL    HW134031   7.336   7.770   8.357 -0.2429  1.6490 -0.2460
 7324SOL    HW234032   7.440   7.747   8.233  0.5884  0.5831  0.6382
 7325SOL     OW34033   1.389   8.457   4.782  0.3761  0.3809  0.3514
 7325SOL    HW134034   1.403   8.359   4.774  1.4264  0.7787 -3.5997
 7325SOL    HW234035   1.475   8.505   4.764 -0.7111  2.0881 -0.4679
 7326SOL     OW34036   5.759   4.094   4.471 -0.0248  0.3273  0.0090
 7326SOL    HW134037   5.719   4.086   4.380 -0.5113  1.3934  0.1215
 7326SOL    HW234038   5.814   4.013   4.490 -1.8905 -1.0406 -0.2629
 7327SOL     OW34039   8.140   2.310   3.718 -0.3139 -0.1146  0.1367
 7327SOL    HW134040   8.099   2.229   3.677 -0.0772  1.0470 -2.5096
 7327SOL    HW234041   8.238   2.296   3.728 -0.3002 -0.2377 -0.1608
 7328SOL     OW34042   6.641   1.432   9.848 -0.3886  0.3378  0.9998
 7328SOL    HW134043   6.580   1.374   9.794  0.1430  0.3796  0.3430
 7328SOL    HW234044   6.699   1.374   9.906 -0.1571  0.2315  0.6646
 7329SOL     OW34045   0.860   7.143   3.463 -0.0505  1.1162 -0.7130
 7329SOL    HW134046   0.953   7.138   3.501 -0.7906  0.3117  1.0798
 7329SOL    HW234047   0.865   7.148   3.364  1.9120  0.7853 -0.6614
 7330SOL     OW34048   4.791   0.395   3.547  0.0772  0.4151 -0.2370
 7330SOL    HW134049   4.723   0.450   3.594 -0.8812  0.0868 -1.2186
 7330SOL    HW234050   4.857   0.360   3.613 -0.3817  1.1911  0.6444
 7331SOL     OW34051   0.475   1.699   5.962  0.2055 -0.1715  0.5419
 7331SOL    HW134052   0.550   1.685   5.897 -0.2903  0.3826 -0.1619
 7331SOL    HW234053   0.486   1.637   6.039  0.5698 -1.1287 -0.2690
 7332SOL     OW34054   1.796   2.297   0.537 -0.0130  0.5851 -0.3367
 7332SOL    HW134055   1.784   2.232   0.462 -0.3359  1.1875 -0.8052
 7332SOL    HW234056   1.833   2.383   0.502 -2.6527  1.7925 -0.2046
 7333SOL     OW34057   1.711   1.063   7.086 -0.0516  0.0913 -0.0415
 7333SOL    HW134058   1.624   1.113   7.094  0.0525  0.3649 -0.6202
 7333SOL    HW234059   1.785   1.128   7.071  0.2933 -0.1232  0.7218
 7334SOL     OW34060   1.861   2.932   4.684 -0.6022  0.0980  0.3743
 7334SOL    HW134061   1.824   2.839   4.692  3.5718 -1.8499 -1.0725
 7334SOL    HW234062   1.901   2.960   4.771 -1.0713  0.1536  0.5698
 7335SOL     OW34063   2.640   4.905   7.451  0.5240 -0.2886  0.7411
 7335SOL    HW134064   2.574   4.920   7.525  1.3789 -0.1776  1.4835
 7335SOL    HW234065   2.644   4.987   7.393  0.5139 -0.0401  1.0908
 7336SOL     OW34066   0.161   5.611   3.679 -0.3820 -0.1368  0.1081
 7336SOL    HW134067   0.260   5.602   3.678 -0.1319  2.1154  0.5728
 7336SOL    HW234068   0.119   5.521   3.666  1.6991 -1.0662 -0.4642
 7337SOL     OW34069   1.546   9.272   7.614  0.1127 -0.5527  0.1894
 7337SOL    HW134070   1.544   9.323   7.528  0.5275  0.7576  0.9455
 7337SOL    HW234071   1.609   9.195   7.605 -2.1167 -2.2385 -1.6669
 7338SOL     OW34072   0.897   9.781   1.370 -0.7120 -0.1502  0.0005
 7338SOL    HW134073   0.914   9.854   1.437 -1.8528  0.5896 -0.5164
 7338SOL    HW234074   0.921   9.814   1.279  1.9293 -1.5395  0.1546
 7339SOL     OW34075   1.765   8.532   1.116 -0.2128  0.2115  0.3316
 7339SOL    HW134076   1.666   8.524   1.121 -0.2007  0.5610  1.1989
 7339SOL    HW234077   1.806   8.490   1.197  0.2130  2.5051  1.3463
 7340SOL     OW34078   8.151   8.410   2.286  0.0246 -0.3305  0.0228
 7340SOL    HW134079   8.119   8.435   2.195 -1.1329  0.5924  0.6660
 7340SOL    HW234080   8.206   8.327   2.281  0.3333 -0.0309 -1.5708
 7341SOL     OW34081   4.125   9.521   6.717  0.3199 -0.2587 -0.2458
 7341SOL    HW134082   4.082   9.579   6.648  2.4263  0.2628 -1.1556
 7341SOL    HW234083   4.080   9.534   6.805  0.5568  2.5374 -0.5113
 7342SOL     OW34084   9.146   4.304   4.637 -0.1665  0.5224 -0.2213
 7342SOL    HW134085   9.070   4.256   4.592 -1.0070  0.5933  1.0775
 7342SOL    HW234086   9.160   4.265   4.728  0.7656  1.1184 -0.1074
 7343SOL     OW34087   9.896   9.622   4.888 -0.1850  0.1630  0.7397
 7343SOL    HW134088   9.851   9.547   4.839  0.3180 -0.1951  0.8194
 7343SOL    HW234089   9.843   9.706   4.877 -1.4942 -0.5036  1.7705
 7344SOL     OW34090   3.996   8.112   1.335 -0.0162 -0.5372 -0.4357
 7344SOL    HW134091   4.033   8.196   1.296  1.2440 -0.2654  1.2814
 7344SOL    HW234092   3.916   8.133   1.391  1.4074 -0.2028  1.5247
 7345SOL     OW34093   2.935   9.057   3.726  0.0357  0.1132 -0.1538
 7345SOL    HW134094   2.858   9.120   3.728  1.7852  2.3417  0.0575
 7345SOL    HW234095   2.930   9.000   3.645 -1.2350  1.0235 -0.7228
 7346SOL     OW34096   0.032   5.613   7.422  0.2488 -0.8682  0.8253
 7346SOL    HW134097  -0.066   5.614   7.402  0.5853  1.1350 -0.8972
 7346SOL    HW234098   0.060   5.704   7.453  2.3574 -0.1001 -3.0054
 7347SOL     OW34099   9.568   6.300   8.253 -0.0501  0.2927  0.3181
 7347SOL    HW134100   9.550   6.204   8.275 -1.3647  0.2997 -0.6881
 7347SOL    HW234101   9.506   6.358   8.306  0.6311  0.5870  0.7993
 7348SOL     OW34102   5.672   4.460   4.368  0.0807  0.4420  0.0226
 7348SOL    HW134103   5.732   4.426   4.441  0.1422  0.4138 -0.0411
 7348SOL    HW234104   5.705   4.549   4.336 -0.2387  0.6872  0.3767
 7349SOL     OW34105   1.797   9.821   0.005 -0.2260 -0.4162 -0.5354
 7349SOL    HW134106   1.830   9.820  -0.089 -0.7911 -1.5754 -0.7335
 7349SOL    HW234107   1.809   9.730   0.045 -0.5270 -0.0819  0.3155
 7350SOL     OW34108   7.555   1.713   9.613  0.0848  0.2170  0.0990
 7350SOL    HW134109   7.505   1.629   9.634  0.2804 -0.0179 -0.3581
 7350SOL    HW234110   7.645   1.690   9.575 -0.4138  0.6182 -1.3590
 7351SOL     OW34111   9.946   9.251   7.841 -0.0333  0.0238  0.2111
 7351SOL    HW134112  10.018   9.227   7.906 -1.6033 -1.5369  1.4153
 7351SOL    HW234113   9.986   9.301   7.764  1.9178  1.7385  2.2370
 7352SOL     OW34114   3.110   1.624   4.926  0.2935  0.1081 -0.6965
 7352SOL    HW134115   3.157   1.636   5.014  0.7188 -1.5440 -0.6779
 7352SOL    HW234116   3.090   1.713   4.886  1.4106  0.8534  0.3872
 7353SOL     OW34117   1.496   5.310   5.379 -0.0147  0.6684  0.5777
 7353SOL    HW134118   1.480   5.325   5.476 -0.9038  0.9202  0.3961
 7353SOL    HW234119   1.410   5.281   5.335  0.2990  0.8833 -0.1895
 7354SOL     OW34120   3.618   0.845   6.008 -0.2615 -0.2014 -0.2969
 7354SOL    HW134121   3.543   0.856   5.942 -1.0458 -1.1553  0.4092
 7354SOL    HW234122   3.631   0.748   6.027  1.2267 -0.0373 -0.4752
 7355SOL     OW34123   5.941   3.832   2.175 -0.2548  0.7120  0.2487
 7355SOL    HW134124   5.967   3.747   2.221 -0.9231  1.0920  1.3583
 7355SOL    HW234125   5.950   3.908   2.239 -2.5321  1.0672  0.1733
 7356SOL     OW34126   4.436   1.211   9.465  0.3199 -0.2927 -0.4880
 7356SOL    HW134127   4.424   1.244   9.371 -0.1642  1.8174  0.2740
 7356SOL    HW234128   4.372   1.136   9.482 -1.6568  1.2449 -0.9558
 7357SOL     OW34129   9.830   6.322   8.333  0.2266  0.3924 -0.6397
 7357SOL    HW134130   9.868   6.230   8.331 -0.4156  0.0676  1.0075
 7357SOL    HW234131   9.730   6.317   8.335  0.2031  1.0357  1.4525
 7358SOL     OW34132   9.838   2.890   5.588  0.8861 -0.5125  0.0531
 7358SOL    HW134133   9.811   2.822   5.656 -1.2625  0.0108 -0.2204
 7358SOL    HW234134   9.934   2.878   5.563  1.2707 -1.6534  2.0598
 7359SOL     OW34135   2.923   2.886   5.182 -0.4214 -0.0828 -0.2060
 7359SOL    HW134136   2.831   2.925   5.193 -0.7650  0.2306 -3.6330
 7359SOL    HW234137   2.917   2.786   5.191 -0.0741  0.2654  5.2993
 7360SOL     OW34138   7.254   4.731   9.222 -0.0062 -0.1450 -0.2229
 7360SOL    HW134139   7.205   4.791   9.159 -1.3073 -0.4626  0.4800
 7360SOL    HW234140   7.191   4.666   9.263  0.8280  0.0089  1.3682
 7361SOL     OW34141   3.063   4.674   6.788  0.2042 -0.4341  0.2286
 7361SOL    HW134142   3.161   4.655   6.794  0.3493  0.4873  1.0091
 7361SOL    HW234143   3.014   4.613   6.850  0.3296 -0.5388  0.2264
 7362SOL     OW34144   4.318   1.468   6.234 -0.1456  0.0568 -0.4842
 7362SOL    HW134145   4.391   1.500   6.294 -0.9115  0.1281  0.4228
 7362SOL    HW234146   4.316   1.368   6.234  0.2727  0.0459 -0.9088
 7363SOL     OW34147   3.690   9.176   3.754  0.0953 -0.9039 -0.2830
 7363SOL    HW134148   3.685   9.266   3.797 -3.6476 -1.2331  0.1286
 7363SOL    HW234149   3.716   9.107   3.821  0.8777 -0.4551 -0.1197
 7364SOL     OW34150   8.968   0.643   8.591 -0.6490 -0.9900  0.2259
 7364SOL    HW134151   8.942   0.548   8.606 -1.2413 -0.5333  2.3161
 7364SOL    HW234152   9.061   0.658   8.623 -0.3732 -0.9933 -0.5801
 7365SOL     OW34153   0.337   2.616   5.898  0.3181 -0.4967 -0.1864
 7365SOL    HW134154   0.421   2.669   5.894  0.0351 -0.0336 -0.1027
 7365SOL    HW234155   0.315   2.580   5.808  0.5735 -0.5665 -0.2207
 7366SOL     OW34156   1.813   1.707   4.016  0.5141  0.3778 -0.0920
 7366SOL    HW134157   1.894   1.709   4.075  1.0218 -0.8054 -0.7249
 7366SOL    HW234158   1.788   1.612   3.997 -1.2751  0.7187  0.4214
 7367SOL     OW34159   0.750   2.825   6.448 -0.1211  0.0997 -0.0942
 7367SOL    HW134160   0.675   2.885   6.418 -1.7600 -1.1118  1.4914
 7367SOL    HW234161   0.828   2.837   6.387 -2.0249  0.5095 -2.5405
 7368SOL     OW34162   9.393   6.425   8.431  0.3250 -0.0060  0.1531
 7368SOL    HW134163   9.295   6.431   8.411  0.5224  0.0131 -0.8495
 7368SOL    HW234164   9.416   6.489   8.505  0.0837  2.1496 -1.5692
 7369SOL     OW34165   2.178   2.528   5.496 -0.6287  0.1802 -0.0495
 7369SOL    HW134166   2.278   2.522   5.486 -0.3405 -1.2970  3.1973
 7369SOL    HW234167   2.152   2.623   5.515  0.4327  0.2151  1.3220
 7370SOL     OW34168   0.787   9.505   4.902 -0.7994 -0.4491  0.1771
 7370SOL    HW134169   0.689   9.491   4.886 -0.9035  0.8220 -0.3846
 7370SOL    HW234170   0.825   9.561   4.828  0.0721  0.1374  1.0532
 7371SOL     OW34171   4.837   2.995   9.635 -0.4096  0.3537 -0.0009
 7371SOL    HW134172   4.892   2.925   9.681 -0.6009 -0.0046 -0.3111
 7371SOL    HW234173   4.847   2.986   9.536 -3.1787 -1.5098 -0.1793
 7372SOL     OW34174   8.759   4.079   8.747  0.2681  0.3520 -0.5162
 7372SOL    HW134175   8.753   4.075   8.647  0.8512  1.6282 -0.6050
 7372SOL    HW234176   8.837   4.025   8.778 -1.8852 -2.8861 -0.4887
 7373SOL     OW34177   4.136   8.873   4.362 -0.4612  0.1654  0.3564
 7373SOL    HW134178   4.132   8.955   4.419 -0.9915  1.5048 -1.5549
 7373SOL    HW234179   4.047   8.859   4.319  0.3235 -0.0035 -1.2379
 7374SOL     OW34180   7.165   9.212   4.024 -0.7634  0.7447  0.3801
 7374SOL    HW134181   7.254   9.181   4.060 -1.2472  0.5870  1.4731
 7374SOL    HW234182   7.100   9.136   4.029 -0.5935  0.4371 -1.7472
 7375SOL     OW34183   3.806   3.341   7.690  0.3919  0.0424 -0.0859
 7375SOL    HW134184   3.825   3.264   7.629 -0.3187  0.3307 -0.6854
 7375SOL    HW234185   3.868   3.417   7.667 -0.2460  0.3461 -0.8327
 7376SOL     OW34186   3.907   3.312   3.176 -0.4016 -0.5633 -0.3538
 7376SOL    HW134187   3.994   3.354   3.149  0.4044 -1.2833  1.0146
 7376SOL    HW234188   3.855   3.287   3.094  0.0784  1.0780 -1.1785
 7377SOL     OW34189   3.940   2.521   3.980 -0.7462 -0.4990 -0.8307
 7377SOL    HW134190   3.979   2.473   4.059  1.2339 -0.1914 -1.5933
 7377SOL    HW234191   3.846   2.490   3.966 -0.8072 -1.2544  1.0702
 7378SOL     OW34192   1.927   2.773   3.700  0.2101 -0.5310  0.2027
 7378SOL    HW134193   1.979   2.841   3.649 -0.5139  0.7099  1.0693
 7378SOL    HW234194   1.836   2.809   3.720 -0.0418 -1.5958  1.0436
 7379SOL     OW34195   5.098   2.477   1.392  0.0082 -0.5274 -0.0103
 7379SOL    HW134196   5.180   2.469   1.336  0.9725  1.5203  1.0847
 7379SOL    HW234197   5.032   2.536   1.345  0.8392  1.2358  0.9881
 7380SOL     OW34198   6.143   5.660   1.993  0.3384 -0.5442  0.2771
 7380SOL    HW134199   6.216   5.605   2.033  1.3953  1.0999  0.6834
 7380SOL    HW234200   6.174   5.701   1.908  0.6458  1.7795  1.4457
 7381SOL     OW34201   4.907   2.242   6.796  0.2462  0.3710  0.2677
 7381SOL    HW134202   4.975   2.314   6.816 -0.1563  1.0802 -0.9001
 7381SOL    HW234203   4.941   2.184   6.723  0.6003 -0.6833  1.2624
 7382SOL     OW34204   2.337   1.537   5.563  0.2543  0.3169 -0.2855
 7382SOL    HW134205   2.284   1.470   5.512  0.1264 -0.0574  0.3265
 7382SOL    HW234206   2.403   1.582   5.503  1.3020 -1.3538 -0.4101
 7383SOL     OW34207   2.546   0.392   7.094  0.7114  0.6161  0.3194
 7383SOL    HW134208   2.644   0.389   7.113  0.7467 -0.7927 -0.0427
 7383SOL    HW234209   2.496   0.398   7.181  1.0542 -0.4722  0.5917
 7384SOL     OW34210   1.614   6.061   6.066 -0.4822 -0.2591 -0.6649
 7384SOL    HW134211   1.561   6.129   6.015 -0.3671  0.3942  0.0834
 7384SOL    HW234212   1.652   6.103   6.148  2.4390 -0.3246 -1.9298
 7385SOL     OW34213   6.837   2.314   5.203 -0.2788 -0.0083  0.1692
 7385SOL    HW134214   6.849   2.249   5.278 -1.2498  0.6639  0.9261
 7385SOL    HW234215   6.839   2.407   5.240 -1.7449  0.2926 -0.4980
 7386SOL     OW34216   1.645   6.748   7.932 -0.0046  0.0378 -0.0933
 7386SOL    HW134217   1.632   6.664   7.881 -0.1847 -0.1694  0.2894
 7386SOL    HW234218   1.588   6.746   8.014  1.0035 -0.0429  0.6081
 7387SOL     OW34219   1.733   4.379   8.119 -0.0199 -0.4504 -0.2592
 7387SOL    HW134220   1.748   4.337   8.208  2.6266  0.4281 -0.2679
 7387SOL    HW234221   1.802   4.346   8.054 -0.4979  0.6884 -1.3708
 7388SOL     OW34222   2.975   4.117   9.314  0.5280  0.1937 -0.5658
 7388SOL    HW134223   2.898   4.091   9.373  0.2283 -0.2939 -1.1710
 7388SOL    HW234224   3.029   4.188   9.360 -0.4725  0.7909 -0.2882
 7389SOL     OW34225   3.926   5.514   9.753 -0.0306  0.5025 -0.2045
 7389SOL    HW134226   3.909   5.455   9.674 -0.3112  1.7502 -1.0998
 7389SOL    HW234227   3.870   5.483   9.830 -0.3531 -0.2496 -0.7310
 7390SOL     OW34228   8.948   6.448   3.354 -0.3328 -0.2842 -0.0473
 7390SOL    HW134229   8.901   6.414   3.435  0.2786 -0.7626  0.1164
 7390SOL    HW234230   9.045   6.423   3.360  0.9195  4.4061  1.7522
 7391SOL     OW34231   1.100   4.858   5.730 -0.6697  0.1586 -0.5798
 7391SOL    HW134232   1.081   4.853   5.828 -0.2318  1.9825 -0.3719
 7391SOL    HW234233   1.177   4.798   5.708 -0.6977 -0.1761  0.2111
 7392SOL     OW34234   1.346   3.010   6.567 -0.0094  0.5894 -0.1248
 7392SOL    HW134235   1.255   3.050   6.557 -0.7718 -1.0559  0.0039
 7392SOL    HW234236   1.411   3.060   6.510 -1.5348  0.0758 -2.4021
 7393SOL     OW34237   0.201   4.576   5.727 -0.0259  0.0239  0.4459
 7393SOL    HW134238   0.169   4.483   5.710  1.0497  0.0711 -2.0463
 7393SOL    HW234239   0.282   4.573   5.787  0.1403 -0.6530  0.1890
 7394SOL     OW34240   2.372   7.887   5.666  0.2715  0.5065 -0.2629
 7394SOL    HW134241   2.322   7.817   5.718 -0.0869  0.4775 -0.6450
 7394SOL    HW234242   2.400   7.849   5.578 -2.0928  1.5963 -1.5233
 7395SOL     OW34243   2.207   2.148   8.676  0.4969 -0.5248  0.0105
 7395SOL    HW134244   2.142   2.079   8.643  1.4789 -1.6514  0.4083
 7395SOL    HW234245   2.290   2.145   8.621 -0.2269  1.7496 -1.2897
 7396SOL     OW34246   9.620   9.861   3.959 -0.0105 -0.0051 -0.0443
 7396SOL    HW134247   9.681   9.863   3.879  0.6014 -1.3462  0.3611
 7396SOL    HW234248   9.609   9.953   3.995  0.3383  0.5007 -1.2120
 7397SOL     OW34249   6.105   3.057   4.036 -0.6620 -0.0626  0.0412
 7397SOL    HW134250   6.016   3.023   4.065 -0.8733  0.1082 -0.4124
 7397SOL    HW234251   6.172   2.984   4.042 -0.9119 -0.2939  0.0160
 7398SOL     OW34252   3.630   4.417   6.486  0.2337  0.5806  0.0980
 7398SOL    HW134253   3.654   4.499   6.434 -0.3219  0.0408 -1.0304
 7398SOL    HW234254   3.568   4.361   6.432  0.8509 -0.7374  0.7352
 7399SOL     OW34255   0.749   9.941   9.297  0.0932  0.5525 -0.0672
 7399SOL    HW134256   0.769  10.017   9.236  2.4218 -0.2641 -0.3558
 7399SOL    HW234257   0.720   9.861   9.244  1.9236 -0.0957 -0.1356
 7400SOL     OW34258   2.990   8.629   2.250 -0.0078  0.7198 -0.1890
 7400SOL    HW134259   3.044   8.713   2.252  1.1974 -0.0575  0.3452
 7400SOL    HW234260   3.025   8.568   2.179  1.0317 -0.5515  1.3439
 7401SOL     OW34261   2.881   1.176   5.170 -0.3646 -0.1288 -0.3250
 7401SOL    HW134262   2.946   1.227   5.226  2.4477 -2.0434 -1.7201
 7401SOL    HW234263   2.842   1.100   5.223  0.2355 -0.3118 -0.1492
 7402SOL     OW34264   3.756   4.361   2.442  0.0325  0.2560 -0.0168
 7402SOL    HW134265   3.834   4.419   2.420  0.0584 -0.2493 -1.2354
 7402SOL    HW234266   3.788   4.273   2.476 -0.0084 -0.0794 -0.8492
 7403SOL     OW34267   0.367   9.594   0.225 -0.5969 -0.0943 -0.1339
 7403SOL    HW134268   0.392   9.584   0.129 -2.3615  1.7198 -0.8341
 7403SOL    HW234269   0.449   9.614   0.279  0.2154  0.3113 -1.4872
 7404SOL     OW34270   0.740   5.182   7.095  0.3486  0.1741  0.1426
 7404SOL    HW134271   0.668   5.193   7.027  0.5211 -0.4903 -0.1577
 7404SOL    HW234272   0.828   5.168   7.048  0.5649  0.3300  0.5014
 7405SOL     OW34273   9.791   1.286   8.243  0.6156 -0.2288 -0.2077
 7405SOL    HW134274   9.795   1.245   8.334  2.2276 -0.4140 -0.3513
 7405SOL    HW234275   9.747   1.222   8.180  0.4462 -0.5242  0.2072
 7406SOL     OW34276   6.848   5.688   4.911 -0.7961  0.1978  0.0615
 7406SOL    HW134277   6.857   5.592   4.936 -0.8350  0.0021 -0.6658
 7406SOL    HW234278   6.927   5.716   4.857 -1.4732  0.1941 -0.9341
 7407SOL     OW34279   3.222   1.758   6.834  0.5912 -0.7518  0.1927
 7407SOL    HW134280   3.217   1.855   6.810 -1.1003 -1.0812 -0.8383
 7407SOL    HW234281   3.243   1.748   6.931  0.4969  0.6411  0.3554
 7408SOL     OW34282   1.745   2.837   5.147 -0.1074  0.3684  0.1012
 7408SOL    HW134283   1.758   2.785   5.063 -0.2940 -0.7576  0.7611
 7408SOL    HW234284   1.667   2.898   5.137 -1.0198 -0.8076 -0.0432
 7409SOL     OW34285   8.966   1.711   0.766  0.2850 -0.4039 -0.3212
 7409SOL    HW134286   9.027   1.780   0.805  1.5655 -1.1641 -0.9481
 7409SOL    HW234287   8.877   1.717   0.811  0.7347  0.8817  0.4403
 7410SOL     OW34288   3.702   4.625   8.386  0.1880 -0.0033  0.1884
 7410SOL    HW134289   3.625   4.688   8.397 -0.3910 -0.9218  1.6630
 7410SOL    HW234290   3.704   4.561   8.464  1.5707 -0.9221 -0.5735
 7411SOL     OW34291   1.236   3.155   8.566  0.3151  0.1338 -0.4090
 7411SOL    HW134292   1.219   3.060   8.538 -0.8047  0.0709  0.4479
 7411SOL    HW234293   1.319   3.159   8.621 -0.9306 -0.7496  1.5804
 7412SOL     OW34294   0.253   6.957   5.987 -0.2944  0.2084 -0.2143
 7412SOL    HW134295   0.158   6.946   6.016 -0.8569  2.0545 -1.2470
 7412SOL    HW234296   0.262   6.933   5.890  0.4254 -0.5638  0.0389
 7413SOL     OW34297   6.273   4.315   2.599 -0.4744 -0.3082 -0.0098
 7413SOL    HW134298   6.324   4.260   2.533  1.5766  1.0507  0.4220
 7413SOL    HW234299   6.200   4.364   2.552 -1.1519 -1.9439 -0.7043
 7414SOL     OW34300   7.638   4.393   2.174  0.1013 -0.7071  0.1625
 7414SOL    HW134301   7.720   4.365   2.224  2.7915  2.4247 -2.2831
 7414SOL    HW234302   7.585   4.458   2.229  0.0391 -1.5666  1.1279
 7415SOL     OW34303   3.197   3.038   7.326 -0.4466 -0.1805 -0.5096
 7415SOL    HW134304   3.213   2.972   7.253  0.8522 -0.5961  0.1433
 7415SOL    HW234305   3.252   3.014   7.406 -1.4132  0.6054  0.4031
 7416SOL     OW34306   3.978   2.774   7.227 -0.4415  0.8093  0.2047
 7416SOL    HW134307   3.945   2.692   7.181 -1.3494  1.0463  0.4340
 7416SOL    HW234308   3.972   2.762   7.326 -0.2413  1.0143  0.2423
 7417SOL     OW34309   4.643   5.245   1.199 -0.2850 -1.0684  0.3847
 7417SOL    HW134310   4.558   5.287   1.167 -0.1551  0.6261  2.1561
 7417SOL    HW234311   4.627   5.149   1.221 -1.6624 -0.8317  0.4497
 7418SOL     OW34312   1.711   0.306   6.786 -0.0067 -0.0313  0.1955
 7418SOL    HW134313   1.627   0.287   6.836 -0.3313 -0.1275 -0.3809
 7418SOL    HW234314   1.703   0.270   6.693  0.0046  1.4922 -0.4063
 7419SOL     OW34315   1.326   0.325   6.291  0.0489  0.7304  0.0503
 7419SOL    HW134316   1.251   0.303   6.354 -1.0178  1.0230 -1.0963
 7419SOL    HW234317   1.300   0.297   6.198  0.3427  3.1127 -0.7684
 7420SOL     OW34318   2.497   3.950   3.893 -0.2611  0.1289 -0.6144
 7420SOL    HW134319   2.590   3.917   3.910 -0.7939 -0.9994  0.2222
 7420SOL    HW234320   2.446   3.951   3.979 -0.8071  1.4498 -0.9426
 7421SOL     OW34321   0.137   4.983   7.252 -0.5045  0.2721  0.3176
 7421SOL    HW134322   0.205   4.919   7.218 -2.3518 -1.3364 -0.4800
 7421SOL    HW234323   0.156   5.074   7.216 -0.1277 -0.6175 -1.8288
 7422SOL     OW34324   1.766   0.290   8.976 -0.1137  0.4056 -0.5165
 7422SOL    HW134325   1.859   0.327   8.973 -0.2717  0.9732  1.2337
 7422SOL    HW234326   1.746   0.257   9.068 -1.4378 -0.2690 -1.0393
 7423SOL     OW34327   3.771   4.532   7.515 -0.0080 -0.3332 -0.4265
 7423SOL    HW134328   3.779   4.575   7.425 -1.4212  0.1001 -0.3541
 7423SOL    HW234329   3.842   4.463   7.525 -0.3165 -0.9347 -2.1836
 7424SOL     OW34330   8.647   1.201   3.188 -0.1440 -0.1790 -0.5055
 7424SOL    HW134331   8.572   1.150   3.147 -0.6004 -0.5183  0.7505
 7424SOL    HW234332   8.723   1.139   3.207 -0.0849 -0.0956 -0.4679
 7425SOL     OW34333   2.270   3.468   8.602  0.2755 -0.3336 -0.1951
 7425SOL    HW134334   2.241   3.393   8.662  0.4622 -0.6189 -0.4583
 7425SOL    HW234335   2.226   3.458   8.513 -0.9056  0.7436  0.2659
 7426SOL     OW34336   6.735   1.009   4.896  0.3336 -0.1253 -0.2531
 7426SOL    HW134337   6.797   1.075   4.938 -0.7371 -1.1163  2.9687
 7426SOL    HW234338   6.646   1.052   4.882  0.4716 -0.0330 -0.8994
 7427SOL     OW34339   2.964   3.793   5.203 -0.0727 -0.3060 -0.0155
 7427SOL    HW134340   2.999   3.754   5.288  0.2292  1.7213  0.8056
 7427SOL    HW234341   2.869   3.821   5.216  0.8901  2.8705  0.6574
 7428SOL     OW34342   3.010   8.829   1.052 -0.0587  0.4731 -0.1085
 7428SOL    HW134343   2.970   8.750   1.097  1.3168  0.9724  2.0679
 7428SOL    HW234344   2.945   8.867   0.986 -1.1265 -1.8070 -0.3895
 7429SOL     OW34345   1.761   2.518   5.149 -0.2375 -0.7410 -0.4476
 7429SOL    HW134346   1.726   2.568   5.070 -1.1356 -1.9642 -0.8407
 7429SOL    HW234347   1.720   2.554   5.233  0.2110  0.1199 -0.5957
 7430SOL     OW34348   9.009   2.343   2.681  0.2492  0.0579 -0.5881
 7430SOL    HW134349   9.054   2.429   2.659  1.1320 -0.5128 -1.0323
 7430SOL    HW234350   8.926   2.361   2.734 -0.4798  1.2857 -2.1036
 7431SOL     OW34351   0.714   3.311   7.873  0.0523  0.3509 -0.1529
 7431SOL    HW134352   0.678   3.239   7.933 -0.8098  0.6845 -0.2699
 7431SOL    HW234353   0.725   3.395   7.925  0.7104  0.2397 -0.1080
 7432SOL     OW34354   3.579   3.286   7.847 -0.0709  0.0755  0.4651
 7432SOL    HW134355   3.517   3.245   7.781  0.4504 -0.0912  0.0743
 7432SOL    HW234356   3.671   3.293   7.807 -0.0437  1.1603  0.7066
 7433SOL     OW34357   2.487   2.792   5.775  0.0760 -0.2824  0.3259
 7433SOL    HW134358   2.476   2.882   5.817  0.6122  0.1546 -0.4564
 7433SOL    HW234359   2.398   2.749   5.763 -0.3108  0.7886 -0.7003
 7434SOL     OW34360   1.050   9.168   4.673  0.2143 -0.0604  0.1573
 7434SOL    HW134361   1.100   9.218   4.744 -1.0629  0.4509  0.7168
 7434SOL    HW234362   1.054   9.218   4.587 -1.5326  1.3004  0.8542
 7435SOL     OW34363   3.536   4.258   0.606 -0.4036 -0.1009  0.3985
 7435SOL    HW134364   3.587   4.181   0.568  0.6975 -0.0396  1.7178
 7435SOL    HW234365   3.470   4.291   0.539 -1.2180 -2.5012 -0.0321
 7436SOL     OW34366   3.370   1.967   7.585  0.6799  0.4772  0.3479
 7436SOL    HW134367   3.290   2.008   7.627 -0.1302 -0.9449  0.2113
 7436SOL    HW234368   3.449   2.027   7.598 -0.2608  1.5781  1.0345
 7437SOL     OW34369   0.375   2.701   3.446  0.0132 -0.5441 -0.2604
 7437SOL    HW134370   0.326   2.702   3.533 -0.4847 -1.0597 -0.5248
 7437SOL    HW234371   0.394   2.606   3.420 -1.2228 -0.4641 -1.4798
 7438SOL     OW34372   2.076   1.302   5.878  0.0064  0.3239 -0.0775
 7438SOL    HW134373   2.170   1.268   5.868 -0.9662 -1.8830 -2.1262
 7438SOL    HW234374   2.033   1.309   5.788 -2.1283  0.3923  0.9105
 7439SOL     OW34375   2.503   5.695   7.051  0.5187 -0.5728  0.3443
 7439SOL    HW134376   2.415   5.704   7.004 -0.2422 -3.4636  1.1634
 7439SOL    HW234377   2.558   5.624   7.006  2.3559  1.0101  0.0070
 7440SOL     OW34378   4.508   2.702   5.139 -0.0268 -0.3586  0.3215
 7440SOL    HW134379   4.501   2.651   5.224 -0.7796 -1.1530 -0.2049
 7440SOL    HW234380   4.416   2.726   5.107  0.2279 -0.4280 -0.4782
 7441SOL     OW34381   0.601   2.771   2.974  0.1333 -0.7041  0.1252
 7441SOL    HW134382   0.673   2.718   3.019  1.6386  1.3915  0.2678
 7441SOL    HW234383   0.522   2.712   2.958  1.1831 -2.5960  1.5975
 7442SOL     OW34384   8.228   3.497   4.964 -0.2171 -0.1300  0.0604
 7442SOL    HW134385   8.231   3.418   5.026 -3.2688 -0.1088  0.3261
 7442SOL    HW234386   8.173   3.474   4.884  0.3018  1.2044 -0.6954
 7443SOL     OW34387   7.365   4.817   2.368  0.7728 -0.2002 -0.4892
 7443SOL    HW134388   7.391   4.837   2.462 -0.3516 -0.9376 -0.0066
 7443SOL    HW234389   7.444   4.782   2.318  1.3088 -0.0657  0.2575
 7444SOL     OW34390   6.300   7.894   7.756  0.3085 -0.2714 -0.2431
 7444SOL    HW134391   6.371   7.913   7.824  0.5352 -1.8235 -0.0215
 7444SOL    HW234392   6.319   7.945   7.672  1.7304 -0.7435 -0.2163
 7445SOL     OW34393   7.615   4.368   6.982  0.1763 -0.0866  0.7086
 7445SOL    HW134394   7.579   4.395   6.892 -0.6678 -0.5299  0.9050
 7445SOL    HW234395   7.559   4.294   7.019  0.4160  0.2128  1.6771
 7446SOL     OW34396   2.163   0.030   3.705  0.1134  0.1252 -0.3984
 7446SOL    HW134397   2.234  -0.039   3.691 -1.1680 -0.9510 -1.7023
 7446SOL    HW234398   2.092   0.020   3.635 -1.0512  1.5396  0.5477
 7447SOL     OW34399   1.665   8.187   4.545  0.0474  0.0336 -0.0088
 7447SOL    HW134400   1.686   8.275   4.501  0.1530 -0.4164 -0.8529
 7447SOL    HW234401   1.629   8.124   4.478  0.5902 -0.7935  0.4714
 7448SOL     OW34402   0.050   1.911   3.138  0.6447  0.2360  0.1510
 7448SOL    HW134403  -0.002   1.939   3.219  0.8309  0.0084  0.3490
 7448SOL    HW234404   0.115   1.983   3.113  1.8311 -0.4261  1.2597
 7449SOL     OW34405   1.824   2.065   5.666 -0.2579  0.0620 -0.4894
 7449SOL    HW134406   1.816   2.163   5.652 -0.3576  0.4693  2.1660
 7449SOL    HW234407   1.740   2.029   5.705  0.3991 -0.7593  0.2148
 7450SOL     OW34408   8.765   1.406   6.012  0.0764  0.8456 -0.5383
 7450SOL    HW134409   8.683   1.405   6.070  1.2809  2.8565  1.3149
 7450SOL    HW234410   8.828   1.334   6.042 -0.1816  0.5721 -0.6598
 7451SOL     OW34411   4.333   2.589   8.129 -0.9536 -0.8339  0.4373
 7451SOL    HW134412   4.243   2.601   8.170 -1.3289 -1.5878 -0.1696
 7451SOL    HW234413   4.339   2.642   8.045 -0.1450  0.7978  1.4825
 7452SOL     OW34414   5.062   1.297   4.558 -0.1088  0.2184 -0.2938
 7452SOL    HW134415   5.050   1.286   4.460  0.4904  1.5897 -0.5396
 7452SOL    HW234416   5.011   1.227   4.607  0.2810 -0.9907 -1.6095
 7453SOL     OW34417   6.005   0.477   6.603  0.4147  0.6425  0.5226
 7453SOL    HW134418   6.032   0.383   6.582 -2.5370 -0.3416  0.9094
 7453SOL    HW234419   5.946   0.478   6.683 -1.8759  2.4768 -1.0877
 7454SOL     OW34420   0.912   3.976   5.005  0.8847 -0.2738 -0.3927
 7454SOL    HW134421   0.922   4.021   5.093 -0.6529  1.2145 -0.9534
 7454SOL    HW234422   1.001   3.939   4.976  2.2460  2.5942 -0.0203
 7455SOL     OW34423   2.644   1.402   6.132 -0.2564 -0.5493 -0.5173
 7455SOL    HW134424   2.712   1.345   6.178 -0.3935  0.4578  0.9359
 7455SOL    HW234425   2.585   1.446   6.199 -0.3548  1.0830 -1.6332
 7456SOL     OW34426   3.089   1.472   3.419 -0.4188  0.3631 -0.2375
 7456SOL    HW134427   3.034   1.525   3.483  0.2456  1.7655 -0.8147
 7456SOL    HW234428   3.035   1.451   3.337 -0.7856 -0.1495  0.1312
 7457SOL     OW34429   6.595   5.533   6.879  0.3207  0.2787  0.4004
 7457SOL    HW134430   6.616   5.440   6.911  1.5413  0.1678 -0.6924
 7457SOL    HW234431   6.529   5.527   6.804  1.5836  0.1852 -0.7127
 7458SOL     OW34432   3.188   0.521   0.504 -0.1936  1.0331  0.0900
 7458SOL    HW134433   3.270   0.552   0.552  0.1983 -2.2412  1.6213
 7458SOL    HW234434   3.121   0.487   0.570 -0.5821 -1.3979 -1.4987
 7459SOL     OW34435   3.775   2.567   8.022  0.2483 -0.3166 -0.0608
 7459SOL    HW134436   3.799   2.499   8.091  2.2789  1.2362  0.8223
 7459SOL    HW234437   3.757   2.655   8.067  2.1515  0.8522 -1.5174
 7460SOL     OW34438   5.224   3.193   1.545 -0.0578  0.4431  0.5821
 7460SOL    HW134439   5.190   3.195   1.639 -1.2279  0.9527  0.1587
 7460SOL    HW234440   5.168   3.131   1.491 -1.2588  2.3871 -0.4679
 7461SOL     OW34441   1.829   9.305   6.876 -0.3386  0.5419 -0.6392
 7461SOL    HW134442   1.730   9.315   6.876 -0.2259  1.9912 -1.8443
 7461SOL    HW234443   1.871   9.393   6.851  1.1184 -0.8552 -3.3430
 7462SOL     OW34444   4.275   3.493   8.098 -0.2371  0.2328  0.1376
 7462SOL    HW134445   4.247   3.398   8.116 -1.1056  0.2512 -1.0428
 7462SOL    HW234446   4.305   3.535   8.183  1.2848 -1.4725  0.4755
 7463SOL     OW34447   1.808   7.673   0.381  0.0660 -0.8759  0.3436
 7463SOL    HW134448   1.862   7.670   0.297 -1.7848 -1.9934 -0.8539
 7463SOL    HW234449   1.868   7.660   0.460  2.3963  3.8355 -0.4902
 7464SOL     OW34450   4.555   3.474   4.325  0.3712 -0.4196 -0.2283
 7464SOL    HW134451   4.558   3.483   4.424 -2.9710 -0.1302 -0.1270
 7464SOL    HW234452   4.580   3.381   4.299  0.7560 -0.6362  0.8923
 7465SOL     OW34453   9.635   0.173   7.668  0.1922 -0.0266 -0.1372
 7465SOL    HW134454   9.680   0.194   7.755 -0.5245  0.1263  0.2004
 7465SOL    HW234455   9.699   0.188   7.593  0.6619  0.3291  0.3300
 7466SOL     OW34456   1.716   1.872   6.287  0.1293  0.2237 -0.6924
 7466SOL    HW134457   1.746   1.892   6.380 -0.6614  2.2383 -0.8370
 7466SOL    HW234458   1.792   1.884   6.224 -0.2707  2.8577 -0.7557
 7467SOL     OW34459   2.553   4.085   7.035 -0.0412 -0.7033  0.2372
 7467SOL    HW134460   2.583   4.163   7.089  2.4212 -1.0173 -0.6142
 7467SOL    HW234461   2.586   4.000   7.078 -1.4851 -1.1940  0.3965
 7468SOL     OW34462   2.971   9.215   1.943  0.0356  0.5084 -0.2204
 7468SOL    HW134463   3.030   9.142   1.908  0.4149  0.5978  0.2234
 7468SOL    HW234464   2.893   9.228   1.882  0.3369  0.2067 -0.6674
 7469SOL     OW34465   3.671   3.546   7.437 -0.3780  0.4388  0.0608
 7469SOL    HW134466   3.608   3.574   7.364 -0.7924  1.1380  0.6797
 7469SOL    HW234467   3.679   3.619   7.504  0.6560  0.1252  0.2901
 7470SOL     OW34468   4.101   5.547   3.299  0.2249  0.2698 -0.2376
 7470SOL    HW134469   4.025   5.531   3.236  1.3022 -0.5955 -1.3502
 7470SOL    HW234470   4.139   5.459   3.326 -1.4998  0.5321  3.2510
 7471SOL     OW34471   0.408   8.078   1.575  0.3383 -0.2724 -0.2192
 7471SOL    HW134472   0.471   8.003   1.596 -0.3873 -0.8142  0.0336
 7471SOL    HW234473   0.410   8.097   1.477  0.5253 -0.6260 -0.2835
 7472SOL     OW34474   2.161   7.687   1.168  0.0009  0.2510  0.9222
 7472SOL    HW134475   2.176   7.658   1.074  0.5827 -1.3772  1.5041
 7472SOL    HW234476   2.072   7.733   1.175  0.1100  0.6816 -0.4756
 7473SOL     OW34477   3.239   0.870   1.280  0.2202 -0.4936 -0.4453
 7473SOL    HW134478   3.223   0.907   1.189  1.1295  0.1244 -0.3560
 7473SOL    HW234479   3.302   0.792   1.274  0.2554 -0.4723 -0.3517
 7474SOL     OW34480   9.850   0.733   4.588  0.2937  0.3281  0.3600
 7474SOL    HW134481   9.946   0.706   4.587  0.0363 -0.6076  0.2909
 7474SOL    HW234482   9.806   0.697   4.671  0.2532  1.6559  0.9294
 7475SOL     OW34483   5.815   1.991   9.058  0.0984 -0.3306 -0.3857
 7475SOL    HW134484   5.742   1.926   9.077 -2.3220  1.9111 -1.7019
 7475SOL    HW234485   5.844   1.983   8.963 -0.1799  0.4776 -0.5415
 7476SOL     OW34486   8.925   3.466   9.617 -0.1250  0.0433 -0.1272
 7476SOL    HW134487   9.021   3.469   9.590 -0.4819  1.3289 -1.3587
 7476SOL    HW234488   8.913   3.519   9.702  0.5466 -1.6774  1.0548
 7477SOL     OW34489   9.952   4.772   9.000  0.3011 -0.3071 -0.2165
 7477SOL    HW134490  10.032   4.803   9.051  0.0022 -1.3523  0.8912
 7477SOL    HW234491   9.953   4.814   8.909  0.4340  2.1676  0.8755
 7478SOL     OW34492   5.747   3.628   3.913 -0.5698  0.0535 -0.1622
 7478SOL    HW134493   5.840   3.599   3.937  0.1158  1.6977 -0.7882
 7478SOL    HW234494   5.744   3.654   3.817 -1.7013 -0.0244 -0.1535
 7479SOL     OW34495   4.292   6.674   8.688  0.2998 -0.1852  0.6267
 7479SOL    HW134496   4.387   6.642   8.690  0.0594 -0.8745  0.9963
 7479SOL    HW234497   4.289   6.764   8.644  0.8950 -0.9551 -1.0641
 7480SOL     OW34498   3.320   3.684   4.089 -0.0747 -0.0321  0.0658
 7480SOL    HW134499   3.263   3.704   4.009 -0.1724  0.5709  0.2840
 7480SOL    HW234500   3.382   3.609   4.067 -1.8174 -1.5449  0.2477
 7481SOL     OW34501   6.928   0.964   1.354 -0.4483 -0.2496  0.3261
 7481SOL    HW134502   7.027   0.976   1.342 -0.8206  2.0518 -0.8054
 7481SOL    HW234503   6.904   0.869   1.338  1.4891 -0.6813 -0.1650
 7482SOL     OW34504   0.772   1.702   8.487 -0.3224  0.5656  0.1401
 7482SOL    HW134505   0.770   1.663   8.395 -0.5976 -0.9642  0.7663
 7482SOL    HW234506   0.811   1.794   8.484 -0.6857  0.6762 -1.5504
 7483SOL     OW34507   4.221   6.170   6.849  0.3433  0.1600  0.2802
 7483SOL    HW134508   4.253   6.228   6.774  0.3600 -0.7835 -0.4609
 7483SOL    HW234509   4.241   6.214   6.936  1.3206  0.7679 -0.2351
 7484SOL     OW34510   3.918   0.106   6.700  0.7196  0.1284 -0.3605
 7484SOL    HW134511   3.972   0.186   6.673 -0.6560  1.0043 -0.5905
 7484SOL    HW234512   3.875   0.123   6.789 -1.0309  0.3919 -1.2297
 7485SOL     OW34513   7.022   4.878   8.057  0.0379 -0.1939  0.8544
 7485SOL    HW134514   7.007   4.827   7.973  1.9299  1.4926 -0.5612
 7485SOL    HW234515   6.946   4.941   8.073 -0.0769 -0.1475  0.1167
 7486SOL     OW34516   1.911   3.295   4.514 -0.5440 -0.1449  0.5846
 7486SOL    HW134517   1.857   3.266   4.435 -0.6665 -0.5421  0.8119
 7486SOL    HW234518   1.851   3.336   4.582 -0.8439 -2.2372  1.6203
 7487SOL     OW34519   1.361   3.496   5.290  0.3648 -0.2747 -0.0747
 7487SOL    HW134520   1.372   3.573   5.227  1.6769 -0.0729  0.4033
 7487SOL    HW234521   1.264   3.485   5.311 -0.2179 -1.0155 -2.9633
 7488SOL     OW34522   0.800   1.205   1.693  0.5802 -0.3573  0.2805
 7488SOL    HW134523   0.799   1.241   1.600 -1.8596 -0.1464  0.3534
 7488SOL    HW234524   0.766   1.111   1.692  0.0806 -0.1897  1.0148
 7489SOL     OW34525   1.950   1.741   0.296 -0.3409 -0.2897  0.7198
 7489SOL    HW134526   1.863   1.700   0.269 -0.6874  0.3670  0.8523
 7489SOL    HW234527   1.941   1.784   0.386 -0.3183  1.1688  0.0315
 7490SOL     OW34528   7.900   3.460   7.456 -0.4794 -0.1031 -0.7023
 7490SOL    HW134529   7.819   3.484   7.509 -0.6748  1.4981 -1.6689
 7490SOL    HW234530   7.885   3.485   7.360  0.6375 -1.0623 -1.1429
 7491SOL     OW34531   6.834   2.511   8.168  0.2856  0.0145  0.0492
 7491SOL    HW134532   6.902   2.516   8.242  0.0196  0.6976  0.2487
 7491SOL    HW234533   6.748   2.551   8.199 -0.3700 -1.2748 -0.0455
 7492SOL     OW34534   6.084   2.191   9.727 -0.1484  0.0186  0.1615
 7492SOL    HW134535   6.070   2.120   9.658 -0.5051 -2.6083  2.8155
 7492SOL    HW234536   6.048   2.278   9.694 -0.9149 -1.3265 -2.6607
 7493SOL     OW34537   4.554   4.986   2.320 -0.2689 -0.1788 -0.3541
 7493SOL    HW134538   4.533   4.978   2.223 -0.1458 -2.0067 -0.2330
 7493SOL    HW234539   4.556   5.083   2.346 -0.0413  0.3252 -2.2201
 7494SOL     OW34540   2.854   4.304   6.354 -0.1461 -0.2992  0.1026
 7494SOL    HW134541   2.892   4.394   6.330 -0.9507  0.4253  1.4482
 7494SOL    HW234542   2.914   4.261   6.422 -0.2333 -0.3859  0.1230
 7495SOL     OW34543   1.302   1.498   2.317  0.5284  0.3649 -0.4692
 7495SOL    HW134544   1.377   1.489   2.383  0.0823  2.5389  0.3745
 7495SOL    HW234545   1.340   1.518   2.226  1.0769 -1.1939 -0.5934
 7496SOL     OW34546   0.246   6.695   8.971  0.2519  0.1572 -0.0752
 7496SOL    HW134547   0.259   6.663   8.877 -2.0669  2.2041 -1.1702
 7496SOL    HW234548   0.164   6.652   9.010  1.8475 -1.5619  1.4568
 7497SOL     OW34549   8.776   4.654   4.842  0.2533 -0.1095  0.0661
 7497SOL    HW134550   8.765   4.652   4.941  0.7130 -1.6637  0.1011
 7497SOL    HW234551   8.693   4.691   4.800  0.3452  1.2472  1.0563
 7498SOL     OW34552   4.832   1.717   4.782  0.4475  0.4893 -0.1455
 7498SOL    HW134553   4.824   1.723   4.882  0.1995  0.4023 -0.1597
 7498SOL    HW234554   4.752   1.668   4.745  0.2160  1.0895 -0.4481
 7499SOL     OW34555   5.882   7.688   5.037  0.3136  0.5180 -0.3457
 7499SOL    HW134556   5.936   7.768   5.063  0.0456 -0.0688  2.1919
 7499SOL    HW234557   5.825   7.710   4.958  0.8035  2.5956 -0.1508
 7500SOL     OW34558   1.798   1.810   1.526 -0.0809 -0.3117 -0.2776
 7500SOL    HW134559   1.762   1.811   1.620 -1.4969 -1.4776 -0.7930
 7500SOL    HW234560   1.877   1.871   1.520  1.0824 -1.4988  2.0980
 7501SOL     OW34561   0.847   0.427   9.994  0.0354 -0.4727 -0.0714
 7501SOL    HW134562   0.857   0.453   9.898 -0.9559  0.8766  0.1793
 7501SOL    HW234563   0.934   0.393  10.028  0.6647  0.0149 -1.1587
 7502SOL     OW34564   7.476   8.394   9.216  0.4199 -0.2431 -0.0164
 7502SOL    HW134565   7.494   8.348   9.303 -0.6779 -0.1026  0.2981
 7502SOL    HW234566   7.378   8.391   9.196  0.4155  1.3094 -0.3516
 7503SOL     OW34567   0.249   4.216   8.084  0.4066 -0.2344  0.4149
 7503SOL    HW134568   0.279   4.197   8.178  3.2798 -0.9688 -0.5878
 7503SOL    HW234569   0.239   4.315   8.072  2.7111  0.0690  0.7627
 7504SOL     OW34570   8.416   7.652   3.641 -0.5178  0.1646 -0.1862
 7504SOL    HW134571   8.442   7.567   3.594  1.3425  0.7269 -0.2289
 7504SOL    HW234572   8.322   7.676   3.616 -0.4389 -0.9134 -1.6217
 7505SOL     OW34573   3.117   2.299   5.660  0.6211  0.1631  0.8328
 7505SOL    HW134574   3.043   2.277   5.724 -0.3760  0.2334 -0.2836
 7505SOL    HW234575   3.118   2.232   5.586  3.9809 -2.0055  2.6862
 7506SOL     OW34576   1.774   9.147   8.118 -0.3540 -0.4496  0.1342
 7506SOL    HW134577   1.867   9.118   8.140 -0.0194  0.2442 -0.3343
 7506SOL    HW234578   1.771   9.247   8.111 -1.3173 -0.4034  0.9837
 7507SOL     OW34579   1.094   3.573   8.527  0.1388  0.3602  0.1693
 7507SOL    HW134580   1.046   3.562   8.614 -0.4799  1.2617 -0.0526
 7507SOL    HW234581   1.181   3.524   8.531  0.9191  1.8042  1.9414
 7508SOL     OW34582   1.158   5.127   6.750 -0.1933  0.7089 -0.4205
 7508SOL    HW134583   1.234   5.094   6.805 -0.3958  1.0760  0.0872
 7508SOL    HW234584   1.104   5.049   6.717  1.9078  0.3069 -2.9828
 7509SOL     OW34585   8.451   1.054   5.395 -0.0896  0.3707  0.0918
 7509SOL    HW134586   8.391   1.015   5.325  2.2868 -1.9628 -0.7127
 7509SOL    HW234587   8.412   1.037   5.485 -1.6199  0.6682 -0.4914
 7510SOL     OW34588   4.627   6.639   3.115  0.0572  0.1081 -0.3999
 7510SOL    HW134589   4.587   6.709   3.174  1.9181  2.0226 -1.3288
 7510SOL    HW234590   4.669   6.568   3.171  0.1180  0.8893  0.5565
 7511SOL     OW34591   1.784   2.885   7.059 -0.2799 -0.4459 -0.3015
 7511SOL    HW134592   1.876   2.887   7.021  0.0912 -1.0033  0.5445
 7511SOL    HW234593   1.785   2.836   7.146 -0.8945  1.7951  1.0159
 7512SOL     OW34594   5.989   3.184   1.712 -0.9226 -0.3605  0.5847
 7512SOL    HW134595   6.077   3.137   1.712 -1.8094 -2.0600  1.0124
 7512SOL    HW234596   5.971   3.221   1.621  0.4532  0.4264  0.6226
 7513SOL     OW34597   4.769   5.359   4.924  0.2232 -0.1784 -0.5585
 7513SOL    HW134598   4.692   5.327   4.980 -0.8151  0.5422 -1.5462
 7513SOL    HW234599   4.846   5.297   4.936 -1.2753 -2.2546 -1.3241
 7514SOL     OW34600   9.266   9.327   9.915 -0.3319  0.4243 -0.1229
 7514SOL    HW134601   9.313   9.272   9.846 -2.1131 -0.6143 -0.5207
 7514SOL    HW234602   9.173   9.293   9.928  0.6471 -0.7698  4.3528
 7515SOL     OW34603   2.667   3.050   6.056  0.3776 -0.3014  0.8502
 7515SOL    HW134604   2.740   2.982   6.054  1.2267  0.6497 -1.5222
 7515SOL    HW234605   2.592   3.020   5.997  0.2016  0.2366  0.8024
 7516SOL     OW34606   9.245   5.286   0.793 -0.4729 -0.0935  0.3642
 7516SOL    HW134607   9.229   5.207   0.734  1.2987  0.2035 -0.5709
 7516SOL    HW234608   9.191   5.364   0.761  0.1890 -0.0417 -0.6463
 7517SOL     OW34609   9.946   1.468   8.106 -0.1199 -0.1501 -0.1516
 7517SOL    HW134610   9.865   1.432   8.152 -0.1144  0.1034  0.0602
 7517SOL    HW234611   9.935   1.460   8.007 -0.2003 -0.5571 -0.1096
 7518SOL     OW34612   4.811   5.461   7.317  0.4769  0.6158  0.0027
 7518SOL    HW134613   4.881   5.484   7.385  0.2515  1.4145 -0.0238
 7518SOL    HW234614   4.829   5.510   7.232 -0.4071  1.2501  0.1722
 7519SOL     OW34615   6.290   6.457   2.597  0.0568 -0.4176  0.1981
 7519SOL    HW134616   6.319   6.391   2.667 -0.2830  1.2850  1.9976
 7519SOL    HW234617   6.191   6.467   2.599  0.0105 -0.6584 -0.8087
 7520SOL     OW34618   7.337   0.032   0.107  0.5266  0.0693  0.4906
 7520SOL    HW134619   7.272   0.105   0.131 -0.2602 -0.6128  0.4741
 7520SOL    HW234620   7.312  -0.006   0.018  1.0790 -0.0521  0.3910
 7521SOL     OW34621   4.931   3.799   1.914  0.0565  0.2825 -0.0736
 7521SOL    HW134622   5.015   3.772   1.868  0.6825 -1.7926  2.1613
 7521SOL    HW234623   4.934   3.896   1.937  1.3148  0.4787 -1.0487
 7522SOL     OW34624   4.310   6.002   9.782 -0.4847  0.3373 -0.4205
 7522SOL    HW134625   4.314   5.903   9.776  0.4175  0.1651  2.2957
 7522SOL    HW234626   4.395   6.042   9.749 -0.0491  0.0673  0.3545
 7523SOL     OW34627   0.305   4.719   3.755 -0.3900 -0.3741  0.7069
 7523SOL    HW134628   0.386   4.760   3.796 -1.2859  1.7170  0.4155
 7523SOL    HW234629   0.222   4.761   3.793 -1.3799 -2.6263  1.1608
 7524SOL     OW34630   2.575   6.264   7.648 -0.0574  0.2694 -0.0411
 7524SOL    HW134631   2.642   6.198   7.614 -2.0016 -1.7246 -0.1091
 7524SOL    HW234632   2.620   6.327   7.711  2.2052 -0.0460 -1.2878
 7525SOL     OW34633   8.945   0.485   6.471 -0.7313 -0.2134  0.6244
 7525SOL    HW134634   9.018   0.424   6.501 -0.0934  0.3592  0.2744
 7525SOL    HW234635   8.933   0.558   6.538  0.9358  1.2648 -0.6241
 7526SOL     OW34636   4.613   3.305   5.469 -0.4791 -0.2853 -0.0643
 7526SOL    HW134637   4.594   3.301   5.371  0.9638 -2.4603 -0.2782
 7526SOL    HW234638   4.527   3.316   5.520 -1.4384 -1.1967 -1.4591
 7527SOL     OW34639   8.164   3.695   8.649 -0.2256  0.1511  0.6874
 7527SOL    HW134640   8.070   3.690   8.685 -1.0137 -1.0130 -1.4470
 7527SOL    HW234641   8.176   3.781   8.600 -0.7586 -0.4838 -0.5704
 7528SOL     OW34642   3.940   6.606   8.322 -0.0519  0.4764  0.2965
 7528SOL    HW134643   3.885   6.685   8.349 -0.3840  0.5704 -0.6677
 7528SOL    HW234644   3.888   6.522   8.340 -0.4268  0.5551 -0.3924
 7529SOL     OW34645   4.948   3.795   7.450 -0.2924  0.5571  0.1891
 7529SOL    HW134646   4.971   3.891   7.462 -1.0727  0.7473  0.1863
 7529SOL    HW234647   5.027   3.745   7.415  0.0161  1.2540 -0.0956
 7530SOL     OW34648   5.053   5.336   6.620 -0.6570  0.1132  0.3798
 7530SOL    HW134649   5.005   5.423   6.628  0.2988  0.7696 -0.9191
 7530SOL    HW234650   4.987   5.264   6.596 -1.1479  0.8347 -0.4820
 7531SOL     OW34651   2.306   5.965   6.861 -0.0349  0.0322 -0.9125
 7531SOL    HW134652   2.390   5.911   6.859  0.1679  0.3620 -1.3603
 7531SOL    HW234653   2.323   6.051   6.909 -0.6426 -0.7688  0.7672
 7532SOL     OW34654   8.714   1.195   5.669 -0.0275  0.0742  0.1159
 7532SOL    HW134655   8.710   1.123   5.599 -0.6123  0.5320 -0.3347
 7532SOL    HW234656   8.772   1.270   5.636 -0.0205  0.1357  0.2692
 7533SOL     OW34657   0.646   8.766   6.874 -0.3279  0.2654 -0.1118
 7533SOL    HW134658   0.594   8.825   6.812 -1.8286 -1.1763 -0.2913
 7533SOL    HW234659   0.621   8.787   6.969  1.5933  2.1308 -0.0022
 7534SOL     OW34660   7.859   5.162   7.895 -0.7171 -0.0493  0.0179
 7534SOL    HW134661   7.862   5.064   7.878 -1.2500  0.0811 -0.9046
 7534SOL    HW234662   7.773   5.199   7.859 -0.1468  0.8852 -0.4025
 7535SOL     OW34663   3.423   7.716   4.972  0.1800  0.4064  0.0522
 7535SOL    HW134664   3.348   7.764   5.019  0.1412 -1.9778  2.5609
 7535SOL    HW234665   3.423   7.741   4.876 -1.6970  3.0998  0.7002
 7536SOL     OW34666   3.273   9.537   3.470  0.6372 -0.1342 -0.2694
 7536SOL    HW134667   3.214   9.548   3.550 -0.3922 -5.3931 -0.1178
 7536SOL    HW234668   3.367   9.521   3.500  0.4883 -0.7870 -0.1428
 7537SOL     OW34669   2.263   3.628   4.111 -0.5534  0.8022 -0.0775
 7537SOL    HW134670   2.322   3.629   4.192 -1.1217 -0.1969  0.3619
 7537SOL    HW234671   2.241   3.722   4.085 -0.1474  1.1408  0.7705
 7538SOL     OW34672   3.143   6.528   0.246  0.0127  0.0234 -0.2543
 7538SOL    HW134673   3.050   6.540   0.211  0.0797 -0.9784 -0.7870
 7538SOL    HW234674   3.194   6.614   0.234 -1.0458  0.7895  0.6933
 7539SOL     OW34675   3.905   6.027   7.502  0.4517  0.1182  0.1521
 7539SOL    HW134676   3.855   6.061   7.422  0.2074  0.4736  0.4514
 7539SOL    HW234677   3.950   5.940   7.479  0.1613  0.0814 -0.2896
 7540SOL     OW34678   3.614   3.067   0.309  0.2288  0.0232  0.3931
 7540SOL    HW134679   3.707   3.103   0.319 -0.3327  1.6849 -0.2079
 7540SOL    HW234680   3.605   2.982   0.361  2.1071 -0.2034  0.3779
 7541SOL     OW34681   7.462   3.817   5.710 -0.0332  0.3880  0.2472
 7541SOL    HW134682   7.536   3.851   5.768  0.2596  0.8953 -0.4197
 7541SOL    HW234683   7.470   3.856   5.618 -0.1253 -0.9133 -0.3259
 7542SOL     OW34684   0.672   0.679   9.644 -0.2001  0.0500  0.0084
 7542SOL    HW134685   0.637   0.752   9.701  1.5164 -0.3750  1.6323
 7542SOL    HW234686   0.595   0.630   9.602 -1.3894  1.8183  0.0810
 7543SOL     OW34687   3.060   3.204   5.032  0.0957  0.3973 -0.2697
 7543SOL    HW134688   3.075   3.287   5.084  0.2006  0.4489 -0.3817
 7543SOL    HW234689   3.055   3.125   5.094  0.8738  0.3729 -0.2325
 7544SOL     OW34690   1.984   3.184   7.161 -0.1671 -0.3186 -0.1870
 7544SOL    HW134691   2.003   3.218   7.069 -1.3049 -0.7715 -0.5956
 7544SOL    HW234692   2.024   3.246   7.229  1.2976 -0.3770 -0.9941
 7545SOL     OW34693   4.906   2.467   7.439  0.3860  0.7466 -0.5820
 7545SOL    HW134694   4.873   2.409   7.513 -0.4448  0.7937 -0.9170
 7545SOL    HW234695   4.956   2.411   7.373  0.9118  0.6653 -0.1160
 7546SOL     OW34696   1.284   5.559   1.684  0.2812  0.6354  0.1747
 7546SOL    HW134697   1.226   5.627   1.638 -0.8344  0.6231  1.5473
 7546SOL    HW234698   1.228   5.505   1.748  1.5405 -0.3007  0.4958
 7547SOL     OW34699   0.827   0.979   7.630 -0.5639  0.2320 -0.3149
 7547SOL    HW134700   0.813   0.926   7.547 -1.3054 -1.4584  0.8626
 7547SOL    HW234701   0.918   0.960   7.668 -0.3143  0.8261 -0.6105
 7548SOL     OW34702   0.718   8.620   2.374  0.0401 -0.4392 -0.1578
 7548SOL    HW134703   0.725   8.588   2.468  1.5397  1.3820  0.3944
 7548SOL    HW234704   0.622   8.636   2.351 -0.3218 -0.6902  1.1350
 7549SOL     OW34705   2.375   2.634   4.129 -0.0358 -0.5017  0.2119
 7549SOL    HW134706   2.337   2.579   4.055 -1.1348  1.4085 -0.6916
 7549SOL    HW234707   2.474   2.638   4.121 -0.2601  1.4284 -2.4919
 7550SOL     OW34708   1.567   1.757   4.323 -0.3720  0.3344  0.0094
 7550SOL    HW134709   1.605   1.840   4.283 -2.0919  0.1802 -2.0922
 7550SOL    HW234710   1.600   1.746   4.417  1.4249  2.3219 -0.3551
 7551SOL     OW34711   5.576   9.516   7.039  0.3522  0.6119 -0.1967
 7551SOL    HW134712   5.589   9.492   6.943  0.3983 -0.5809  0.1008
 7551SOL    HW234713   5.555   9.614   7.046 -0.8288  0.4731 -1.5195
 7552SOL     OW34714   0.526   4.290   8.832 -0.2602  0.0839 -0.0118
 7552SOL    HW134715   0.533   4.384   8.797  0.1796  0.4560  1.0462
 7552SOL    HW234716   0.436   4.277   8.872 -1.2331 -0.7449 -2.3794
 7553SOL     OW34717   9.750   9.106   7.632  0.4020  0.2698  0.1381
 7553SOL    HW134718   9.840   9.063   7.639  1.3084  1.8879 -0.9559
 7553SOL    HW234719   9.718   9.131   7.723  1.8430  1.1947  0.4142
 7554SOL     OW34720   0.615   8.605   4.760 -0.3111  0.1567 -0.0944
 7554SOL    HW134721   0.694   8.572   4.812 -0.0983 -1.6109 -1.4901
 7554SOL    HW234722   0.594   8.540   4.686 -1.7311  1.6957 -1.0814
 7555SOL     OW34723   5.702   5.709   2.739 -0.2054 -1.0409 -0.2388
 7555SOL    HW134724   5.740   5.766   2.666 -3.6765 -1.6226 -2.5824
 7555SOL    HW234725   5.720   5.753   2.827 -1.0441  2.6902 -1.8368
 7556SOL     OW34726   1.772   3.534   5.603 -0.2503  0.1230  0.0872
 7556SOL    HW134727   1.791   3.584   5.688  0.2668 -0.3455  0.2469
 7556SOL    HW234728   1.772   3.436   5.622 -2.2537  0.0792 -0.0172
 7557SOL     OW34729   3.671   0.177   4.533 -0.5630 -0.1161  0.2630
 7557SOL    HW134730   3.593   0.120   4.558 -1.3212  1.0324  0.5560
 7557SOL    HW234731   3.651   0.272   4.556 -0.2059  0.5898 -2.2443
 7558SOL     OW34732   8.753   0.954   2.915  0.5646  0.3502  0.0798
 7558SOL    HW134733   8.669   0.999   2.884  0.6993 -0.0509 -0.8682
 7558SOL    HW234734   8.829   1.019   2.910  0.1072  1.0868  2.0793
 7559SOL     OW34735   4.533   0.399   2.706 -0.4427  0.5150  0.0424
 7559SOL    HW134736   4.437   0.374   2.699 -0.1008 -0.6372 -0.6697
 7559SOL    HW234737   4.540   0.493   2.739 -1.7917  0.4289  0.6268
 7560SOL     OW34738   3.084   6.563   7.609  0.5833 -0.1109 -0.3759
 7560SOL    HW134739   3.124   6.485   7.659  0.9075  1.5745  2.0787
 7560SOL    HW234740   2.984   6.556   7.611  0.5913 -0.1126  0.4787
 7561SOL     OW34741   4.423   7.056   7.805 -0.0900  0.6521  0.2123
 7561SOL    HW134742   4.427   6.970   7.754  0.6925  0.9268 -0.2047
 7561SOL    HW234743   4.329   7.075   7.832 -0.0927 -1.1085  1.6160
 7562SOL     OW34744   2.663   0.731   7.500 -0.5823  0.0159  0.2728
 7562SOL    HW134745   2.601   0.757   7.573 -0.7676 -2.6065  1.0899
 7562SOL    HW234746   2.616   0.670   7.436  0.4735 -0.1888 -0.3238
 7563SOL     OW34747   0.742   3.216   9.332  0.0164  0.3739 -0.6067
 7563SOL    HW134748   0.834   3.254   9.340  0.5491 -1.1128  0.7342
 7563SOL    HW234749   0.743   3.140   9.267  0.1474 -0.8221  0.7725
 7564SOL     OW34750   9.527   6.989   6.118  0.3320 -0.0045  0.1391
 7564SOL    HW134751   9.555   7.055   6.188  0.2102  0.5773 -0.3568
 7564SOL    HW234752   9.559   7.019   6.028 -3.1991  1.5332 -0.6969
 7565SOL     OW34753   0.735   1.915   6.149  0.1942 -0.1142  0.4021
 7565SOL    HW134754   0.730   1.960   6.238 -0.6497  2.2145 -0.7698
 7565SOL    HW234755   0.697   1.976   6.079  0.6685 -1.9744 -1.5225
 7566SOL     OW34756   1.759   2.531   4.481 -0.4034  0.1517  0.0295
 7566SOL    HW134757   1.695   2.484   4.420 -2.8189  1.2177  1.6752
 7566SOL    HW234758   1.796   2.465   4.547 -2.3160  0.1358  1.1215
 7567SOL     OW34759   1.320   7.560   2.402  0.2883 -0.1745  0.0052
 7567SOL    HW134760   1.402   7.610   2.429  1.0162  0.2786 -2.8789
 7567SOL    HW234761   1.304   7.571   2.304 -0.8612 -3.6452 -0.2913
 7568SOL     OW34762   2.953   7.539   8.927  0.1479 -0.3305 -0.4466
 7568SOL    HW134763   2.877   7.532   8.862  2.1867  0.1382 -2.9665
 7568SOL    HW234764   2.979   7.635   8.938  0.6063 -0.5182  0.1371
 7569SOL     OW34765   0.589   9.491   7.957  0.0036 -0.2354 -0.1955
 7569SOL    HW134766   0.671   9.511   8.010 -0.1603 -0.6346  0.2095
 7569SOL    HW234767   0.582   9.393   7.942 -1.2873 -0.3816  1.2251
 7570SOL     OW34768   8.411   3.772   2.165 -0.6276 -0.7640  0.1867
 7570SOL    HW134769   8.410   3.854   2.223  1.1928  0.5322 -1.5352
 7570SOL    HW234770   8.330   3.717   2.184 -1.8527  1.3847  1.4377
 7571SOL     OW34771   1.326   1.370   6.376 -0.0924  0.2192  0.0483
 7571SOL    HW134772   1.315   1.308   6.453  0.5881  1.7393  1.4025
 7571SOL    HW234773   1.418   1.409   6.377 -0.3079  0.7814 -1.1303
 7572SOL     OW34774   0.147   1.569   6.074 -0.1616 -0.5285  0.2833
 7572SOL    HW134775   0.229   1.585   6.129  0.2694 -0.2077 -0.4439
 7572SOL    HW234776   0.173   1.558   5.978 -1.0563  0.5123 -0.0885
 7573SOL     OW34777   2.672   5.294   0.832  0.3752  0.4296 -0.1756
 7573SOL    HW134778   2.709   5.359   0.898 -0.5822  0.0367  0.7827
 7573SOL    HW234779   2.620   5.224   0.881 -0.1524 -0.0073 -1.3386
 7574SOL     OW34780   3.382   4.638   8.120  0.4717  0.0400  0.1360
 7574SOL    HW134781   3.339   4.604   8.036 -1.5240  1.7330  0.4144
 7574SOL    HW234782   3.465   4.688   8.097  0.7074 -0.7130 -0.6993
 7575SOL     OW34783   4.836   3.071   6.460 -0.4983 -0.0365 -0.4350
 7575SOL    HW134784   4.910   3.004   6.449 -0.5235 -0.0972 -0.2271
 7575SOL    HW234785   4.796   3.062   6.551 -0.6228  0.1394 -0.4724
 7576SOL     OW34786   2.438   9.421   9.235  0.3596 -0.0025 -0.0214
 7576SOL    HW134787   2.403   9.337   9.192  1.2647 -0.7979  0.7590
 7576SOL    HW234788   2.519   9.399   9.288  1.4330  1.6396 -0.9588
 7577SOL     OW34789   8.607   3.131   9.444  0.2756 -0.0400  0.3075
 7577SOL    HW134790   8.585   3.147   9.348  0.5450  2.1425  0.5807
 7577SOL    HW234791   8.610   3.033   9.462 -0.2604 -0.4578 -1.7971
 7578SOL     OW34792   0.031   5.855   1.121  0.5016  0.3212 -0.1317
 7578SOL    HW134793  -0.032   5.784   1.092  0.8152 -0.4653  1.0439
 7578SOL    HW234794   0.113   5.853   1.064 -0.4058  1.1734 -1.4878
 7579SOL     OW34795   5.550   8.909   6.371  0.2901  0.2171  0.4963
 7579SOL    HW134796   5.516   8.866   6.288  0.0783  1.3231  0.0043
 7579SOL    HW234797   5.482   8.903   6.443 -0.0643  0.4443  0.1805
 7580SOL     OW34798   3.224   0.196   8.413 -0.4945 -0.4913  0.3888
 7580SOL    HW134799   3.297   0.231   8.473 -0.0201  0.3112 -0.6377
 7580SOL    HW234800   3.241   0.226   8.319 -2.2731 -0.1305  0.1743
 7581SOL     OW34801   0.847   6.407   5.597  0.1430  0.0516  0.2520
 7581SOL    HW134802   0.928   6.466   5.600 -0.7383  1.2731  0.8824
 7581SOL    HW234803   0.782   6.443   5.530 -0.4494 -0.1404  0.7164
 7582SOL     OW34804   9.662   8.034   6.937 -0.2743  0.3966  0.3660
 7582SOL    HW134805   9.721   7.972   6.989 -0.2695  0.4317  0.4037
 7582SOL    HW234806   9.702   8.125   6.936 -0.7158  0.6001  1.0462
 7583SOL     OW34807   3.294   5.355   6.665  0.3026 -0.0865  0.0298
 7583SOL    HW134808   3.195   5.340   6.656  0.5971 -0.8033 -2.4165
 7583SOL    HW234809   3.332   5.290   6.730 -1.1389  1.5294  2.5443
 7584SOL     OW34810   2.354   2.779   5.503  0.6145 -0.2653  0.9798
 7584SOL    HW134811   2.271   2.823   5.538 -1.0219 -1.1688 -1.6952
 7584SOL    HW234812   2.413   2.848   5.462 -1.4642 -0.2887 -2.2381
 7585SOL     OW34813   2.034   0.256   4.378  0.6866 -0.1533  0.6359
 7585SOL    HW134814   1.965   0.320   4.344 -1.0318 -0.6441  3.0478
 7585SOL    HW234815   2.097   0.305   4.440  0.4185 -0.4246  1.1247
 7586SOL     OW34816   4.732   2.540   4.380 -0.0613  0.1932 -0.7537
 7586SOL    HW134817   4.690   2.475   4.442 -2.9541  2.0371 -0.6842
 7586SOL    HW234818   4.710   2.515   4.285 -1.0659  0.9991 -0.7326
 7587SOL     OW34819   0.834   6.665   6.374 -0.2611  0.3047  0.0480
 7587SOL    HW134820   0.757   6.707   6.327 -0.6495  0.3744  0.7430
 7587SOL    HW234821   0.856   6.577   6.331 -1.0732  0.0256  0.2013
 7588SOL     OW34822   2.949   4.973   9.186  0.7812 -0.4472  0.1686
 7588SOL    HW134823   3.014   4.974   9.110 -0.3236 -0.0551 -0.7842
 7588SOL    HW234824   2.890   5.054   9.181 -1.3587 -2.0016 -0.3756
 7589SOL     OW34825   4.068   2.217   0.260  0.7370 -0.0663 -0.1725
 7589SOL    HW134826   4.144   2.206   0.324  0.6130 -0.0724 -0.0285
 7589SOL    HW234827   4.101   2.197   0.167  0.5303 -1.6238  0.0777
 7590SOL     OW34828   0.630   7.638   1.579 -0.0382 -0.0302 -0.0205
 7590SOL    HW134829   0.631   7.731   1.614 -1.3128 -0.0787  0.1983
 7590SOL    HW234830   0.641   7.573   1.655  0.6500 -0.0598 -0.1467
 7591SOL     OW34831   0.760   4.633   8.158 -0.1014  0.0063  0.5275
 7591SOL    HW134832   0.829   4.680   8.213 -0.8146  1.6377  0.0586
 7591SOL    HW234833   0.685   4.696   8.137  0.5175 -0.3013 -2.9649
 7592SOL     OW34834   5.493   9.557   0.135 -0.0884  0.0324  0.2122
 7592SOL    HW134835   5.443   9.575   0.220 -0.7592 -0.2109 -0.1310
 7592SOL    HW234836   5.493   9.458   0.118  0.0138  0.0877 -0.0957
 7593SOL     OW34837   3.551   1.653   6.874  0.6200  0.5540 -0.3224
 7593SOL    HW134838   3.492   1.662   6.954  0.0941  0.4565 -0.6966
 7593SOL    HW234839   3.564   1.556   6.854  2.6127  0.5235  1.0081
 7594SOL     OW34840   0.158   1.963   1.471  0.0901  0.0894  0.0764
 7594SOL    HW134841   0.208   1.877   1.482 -1.5041 -0.8524  0.1023
 7594SOL    HW234842   0.128   1.971   1.376  2.9330  2.1469 -0.7089
 7595SOL     OW34843   7.238   6.191   5.827  0.3422  0.3348 -0.3770
 7595SOL    HW134844   7.141   6.169   5.838 -0.0177  1.3257 -1.4864
 7595SOL    HW234845   7.252   6.236   5.739  1.3862  2.5527  0.8914
 7596SOL     OW34846   2.213   6.172   6.419 -0.1780  0.3326  0.3650
 7596SOL    HW134847   2.178   6.149   6.328 -2.2971 -0.4098  1.3501
 7596SOL    HW234848   2.211   6.091   6.477 -0.8117  1.2851  1.6924
 7597SOL     OW34849   3.042   3.901   8.103  0.6256  0.5004 -0.5692
 7597SOL    HW134850   2.991   3.934   8.182  0.0593 -1.5067 -0.0594
 7597SOL    HW234851   3.127   3.953   8.093  0.8685  0.5490  1.5550
 7598SOL     OW34852   8.212   8.007   7.960 -0.6287 -0.6222  0.1560
 7598SOL    HW134853   8.229   7.932   7.896  2.0391 -0.8382  1.0433
 7598SOL    HW234854   8.192   8.091   7.908  0.4978 -1.0171 -0.9574
 7599SOL     OW34855   5.514   6.960   5.717 -0.3738 -0.5646 -0.5860
 7599SOL    HW134856   5.612   6.942   5.708 -0.2464  0.1479 -0.6604
 7599SOL    HW234857   5.501   7.045   5.768 -0.9286 -0.0085 -1.6564
 7600SOL     OW34858   5.348   5.742   9.014  0.0257 -0.1188 -0.2363
 7600SOL    HW134859   5.281   5.672   9.038 -0.7514  0.7148  0.0627
 7600SOL    HW234860   5.327   5.778   8.923 -0.4843  0.7654  0.2168
 7601SOL     OW34861   0.644   6.561   5.484 -0.0190 -0.2439  0.4952
 7601SOL    HW134862   0.643   6.660   5.476  0.2459 -0.2646  0.2184
 7601SOL    HW234863   0.557   6.524   5.451  0.5616 -0.2368 -1.0926
 7602SOL     OW34864   4.055   0.453   7.686 -0.3842 -0.5904  0.3604
 7602SOL    HW134865   4.128   0.412   7.740 -1.0708 -1.0560  0.9319
 7602SOL    HW234866   4.030   0.541   7.726 -0.1901 -0.4601  0.2011
 7603SOL     OW34867   6.620   2.009   8.904 -0.4736  0.1924 -0.3377
 7603SOL    HW134868   6.718   1.990   8.902 -0.5213 -0.1085  0.2314
 7603SOL    HW234869   6.572   1.950   8.839 -0.3683 -0.1717 -0.0805
 7604SOL     OW34870   4.302   4.245   6.927  0.3403 -0.3704 -0.6294
 7604SOL    HW134871   4.218   4.225   6.876  0.0767 -0.8924  0.0106
 7604SOL    HW234872   4.280   4.261   7.023  0.9320 -0.1533 -0.5286
 7605SOL     OW34873   8.315   9.670   6.236  0.6849 -0.3400  0.4127
 7605SOL    HW134874   8.362   9.714   6.160 -0.2172  1.1252  0.6718
 7605SOL    HW234875   8.337   9.573   6.238  0.5805 -0.4190 -1.8136
 7606SOL     OW34876   4.983   2.600   0.257  0.5446  0.4067  0.2116
 7606SOL    HW134877   4.903   2.612   0.198  0.3182  3.0770  0.9865
 7606SOL    HW234878   4.966   2.525   0.321 -0.6891 -0.0949 -0.6752
 7607SOL     OW34879   3.621   9.911   3.731 -0.7337 -0.2629 -0.3004
 7607SOL    HW134880   3.604   9.876   3.823 -0.2930 -0.5123 -0.3083
 7607SOL    HW234881   3.719   9.925   3.718 -0.7735 -0.4033 -0.7903
 7608SOL     OW34882   3.419   8.747   5.760 -0.0728 -0.2792  0.2598
 7608SOL    HW134883   3.513   8.768   5.732 -0.2947  0.4542  0.0665
 7608SOL    HW234884   3.381   8.677   5.700 -0.2320  0.6365 -0.7063
 7609SOL     OW34885   7.348   2.552   1.469 -0.0539  0.2866  0.0533
 7609SOL    HW134886   7.376   2.532   1.375 -1.8280  0.8774 -0.6303
 7609SOL    HW234887   7.360   2.649   1.487  1.0908  0.0259  0.7350
 7610SOL     OW34888   0.615   4.859   9.521 -0.3219 -0.0551  0.1774
 7610SOL    HW134889   0.617   4.914   9.438 -0.6397 -0.7930 -0.3183
 7610SOL    HW234890   0.587   4.766   9.499  0.9468 -0.6242  0.8981
 7611SOL     OW34891   2.457   2.568   7.284 -0.2788  0.4199 -0.3447
 7611SOL    HW134892   2.398   2.564   7.203  0.2001  0.0225 -0.6823
 7611SOL    HW234893   2.420   2.507   7.354 -1.1063  1.3372  0.0162
 7612SOL     OW34894   2.728   2.488   4.434 -0.7914 -0.3563 -0.0228
 7612SOL    HW134895   2.717   2.391   4.412 -0.7028  0.1681 -2.4371
 7612SOL    HW234896   2.822   2.517   4.413 -0.2381 -0.1674  2.4747
 7613SOL     OW34897   1.967   1.349   8.073  0.6585  0.4205 -0.3213
 7613SOL    HW134898   1.963   1.394   8.162  2.7241 -0.2080  0.1286
 7613SOL    HW234899   1.925   1.408   8.004  2.3704  2.6092  0.4398
 7614SOL     OW34900   4.519   3.145   9.169 -0.6213 -0.2729  0.5863
 7614SOL    HW134901   4.507   3.243   9.182  1.5625  0.0456  0.3324
 7614SOL    HW234902   4.434   3.106   9.134 -1.4104  1.5777  0.3651
 7615SOL     OW34903   2.764   2.589   8.682  0.0249  0.3272 -0.4677
 7615SOL    HW134904   2.814   2.543   8.609 -0.6187  0.5485 -1.0577
 7615SOL    HW234905   2.719   2.520   8.740  0.9962  0.1316  0.0635
 7616SOL     OW34906   4.385   2.346   4.025  0.7983 -0.5855  0.0389
 7616SOL    HW134907   4.286   2.345   4.012  0.6976 -0.5043  0.7956
 7616SOL    HW234908   4.407   2.329   4.121  1.4687  0.7952  0.1478
 7617SOL     OW34909   3.712   9.639   1.282 -0.5467 -0.1785 -0.4978
 7617SOL    HW134910   3.800   9.683   1.298 -0.1704 -0.6153 -1.3140
 7617SOL    HW234911   3.707   9.554   1.334 -0.0944 -0.6318 -1.1783
 7618SOL     OW34912   3.065   5.740   7.179  0.2261 -0.0391 -0.8871
 7618SOL    HW134913   2.982   5.794   7.162  0.6135  0.5458 -0.9095
 7618SOL    HW234914   3.137   5.768   7.116  0.5132 -0.3962 -0.7190
 7619SOL     OW34915   2.542   1.120   6.041  0.6819  0.6909 -0.8154
 7619SOL    HW134916   2.466   1.059   6.023  0.0135  1.5410 -0.9174
 7619SOL    HW234917   2.517   1.184   6.114  1.1600  1.2138 -1.1096
 7620SOL     OW34918   3.598   6.755   0.218 -0.2322 -0.3951  0.7282
 7620SOL    HW134919   3.631   6.849   0.226 -2.8401  0.6147  0.1600
 7620SOL    HW234920   3.595   6.729   0.121  3.7259 -2.3142  1.0481
 7621SOL     OW34921   6.270   0.968   4.670  0.2257 -0.4204 -0.1138
 7621SOL    HW134922   6.179   0.958   4.712  1.6426 -3.2039  2.4979
 7621SOL    HW234923   6.260   1.007   4.578 -3.6613 -1.1733 -0.1138
 7622SOL     OW34924   0.846   3.588   2.207 -0.0769  0.2025 -0.2253
 7622SOL    HW134925   0.908   3.536   2.147 -1.1263 -1.0916 -0.2164
 7622SOL    HW234926   0.764   3.614   2.156 -1.1051 -1.1540  0.6996
 7623SOL     OW34927   9.451   6.301   1.861  0.3154 -0.2523 -0.0133
 7623SOL    HW134928   9.446   6.363   1.939 -1.5288  1.3681 -1.3812
 7623SOL    HW234929   9.493   6.348   1.783  0.2591 -1.1937 -0.6272
 7624SOL     OW34930   4.998   9.734   6.846 -0.4138  0.0910  0.6332
 7624SOL    HW134931   4.912   9.695   6.880 -0.4189  2.0046  2.9555
 7624SOL    HW234932   5.073   9.671   6.866 -0.9932 -0.6699  0.4353
 7625SOL     OW34933   5.181   3.824   5.699  0.2564  0.6016 -0.3197
 7625SOL    HW134934   5.254   3.891   5.682  0.1797  1.3425  2.1844
 7625SOL    HW234935   5.222   3.736   5.724  0.3112  0.4241 -1.0164
 7626SOL     OW34936   0.368   0.182   9.844  0.1260  0.0164 -0.5567
 7626SOL    HW134937   0.425   0.235   9.908 -0.9446  1.9394 -1.1567
 7626SOL    HW234938   0.284   0.154   9.890 -0.0870  0.3347 -0.7498
 7627SOL     OW34939   2.300   0.621   2.847 -0.8230 -0.2197  0.2058
 7627SOL    HW134940   2.251   0.659   2.769 -0.5199  2.0238  1.0548
 7627SOL    HW234941   2.379   0.568   2.815 -0.9104  0.3772 -1.0211
 7628SOL     OW34942   2.790   5.227   5.391  0.1084 -0.3535 -0.2414
 7628SOL    HW134943   2.763   5.144   5.342  0.9948 -1.2281  0.7360
 7628SOL    HW234944   2.708   5.278   5.417 -0.3871 -0.1684 -2.1402
 7629SOL     OW34945   1.335   4.053   5.900  0.0152 -0.6242 -0.5905
 7629SOL    HW134946   1.368   4.034   5.808  0.6251 -0.1961 -0.4683
 7629SOL    HW234947   1.304   4.148   5.906 -0.0415 -0.6547 -0.3681
 7630SOL     OW34948   2.505   9.833   6.834 -0.7147 -0.5438  0.0215
 7630SOL    HW134949   2.545   9.759   6.888  2.0355  0.8198 -0.0832
 7630SOL    HW234950   2.546   9.834   6.742 -1.5349  0.4081 -0.3478
 7631SOL     OW34951   9.705   9.186   5.732  0.4846 -0.8788 -0.2932
 7631SOL    HW134952   9.740   9.092   5.726  0.9602 -0.6012 -1.9532
 7631SOL    HW234953   9.755   9.235   5.804  0.6617 -1.7153  0.1566
 7632SOL     OW34954   2.976   0.890   4.778 -0.8804 -0.3276 -0.1694
 7632SOL    HW134955   2.972   0.827   4.701  0.7133 -1.2760  0.5226
 7632SOL    HW234956   2.920   0.855   4.853  0.1931 -1.0505  0.3017
 7633SOL     OW34957   6.448   4.659   0.344  0.3191  0.4262  0.4631
 7633SOL    HW134958   6.413   4.732   0.403 -0.8300 -0.6024  1.0651
 7633SOL    HW234959   6.467   4.696   0.253 -0.3534  1.4523  0.7340
 7634SOL     OW34960   2.736   7.796   1.567 -0.2980  0.3024 -0.0756
 7634SOL    HW134961   2.660   7.809   1.503  1.9595 -0.7812 -3.0813
 7634SOL    HW234962   2.749   7.699   1.585  1.9948  0.2518 -1.7162
 7635SOL     OW34963   5.901   0.093   1.430 -0.1631  0.0885  0.3755
 7635SOL    HW134964   5.813   0.134   1.453 -0.5266 -0.5647  0.1780
 7635SOL    HW234965   5.966   0.165   1.405 -0.9546  0.5101 -0.5187
 7636SOL     OW34966   8.472   3.854   0.239  0.6438 -0.2458 -0.0474
 7636SOL    HW134967   8.399   3.919   0.261  0.9925 -0.0631  0.5678
 7636SOL    HW234968   8.558   3.885   0.278  1.4854  0.5792 -2.5366
 7637SOL     OW34969   7.040   6.499   7.481 -0.0393  0.0251 -0.0914
 7637SOL    HW134970   7.054   6.501   7.580  0.2475 -3.0514 -0.0427
 7637SOL    HW234971   6.945   6.523   7.460  0.3285  2.3571  0.7884
 7638SOL     OW34972   9.974   8.188   3.389 -0.0255 -0.0960  0.1753
 7638SOL    HW134973  10.023   8.261   3.437 -0.6479  1.9149 -2.1782
 7638SOL    HW234974  10.041   8.125   3.348  0.5552  0.4714  0.2357
 7639SOL     OW34975   5.433   1.054   0.629  0.6249 -0.0664  0.0022
 7639SOL    HW134976   5.446   1.064   0.728  0.3333  1.5076 -0.1158
 7639SOL    HW234977   5.406   0.960   0.609  1.2181 -0.5414  1.3637
 7640SOL     OW34978   0.718   5.949   1.177  0.0365 -0.0255 -0.2444
 7640SOL    HW134979   0.796   5.891   1.200  1.6090  2.3876  0.6996
 7640SOL    HW234980   0.747   6.022   1.116 -1.5200  0.8243  0.0003
 7641SOL     OW34981   4.557   8.633   6.091 -0.2023 -0.2762 -0.4106
 7641SOL    HW134982   4.570   8.534   6.095  2.2542  0.0699  0.7710
 7641SOL    HW234983   4.544   8.669   6.184  2.8600  0.9830 -0.4134
 7642SOL     OW34984   3.230   5.061   5.588 -0.0763  0.1264 -0.0502
 7642SOL    HW134985   3.242   5.160   5.591  0.8075 -0.0311  2.4328
 7642SOL    HW234986   3.280   5.019   5.663  1.0136 -2.3753 -2.0864
 7643SOL     OW34987   1.880   1.498   7.873  0.3434  0.3490 -0.1366
 7643SOL    HW134988   1.872   1.442   7.791  0.9226 -1.0144  0.7143
 7643SOL    HW234989   1.938   1.577   7.854  0.4653  0.0462 -1.0436
 7644SOL     OW34990   6.745   7.633   7.951 -0.4643  0.6586 -0.8160
 7644SOL    HW134991   6.668   7.624   7.888 -0.7596  0.2750 -0.4056
 7644SOL    HW234992   6.711   7.660   8.041 -0.1575  0.1389 -0.5413
 7645SOL     OW34993   5.126   8.325   9.895  0.6708 -0.3755  0.0841
 7645SOL    HW134994   5.212   8.357   9.935  1.3378 -2.2691  0.2203
 7645SOL    HW234995   5.131   8.331   9.796  0.6599  0.2866  0.1266
 7646SOL     OW34996   0.576   1.547   1.682  0.1508 -0.0937 -0.0879
 7646SOL    HW134997   0.495   1.490   1.668  0.5289 -0.6289 -0.1135
 7646SOL    HW234998   0.561   1.609   1.759 -0.3995  0.0290 -0.2917
 7647SOL     OW34999   0.060   5.316   0.180 -0.3617  0.3398  0.4681
 7647SOL    HW135000   0.087   5.224   0.152 -0.4810  0.0759  1.2118
 7647SOL    HW235001  -0.039   5.326   0.173 -0.4758  0.0265  1.4868
 7648SOL     OW35002   0.243   4.129   9.145 -0.0397 -0.1875 -0.0089
 7648SOL    HW135003   0.237   4.204   9.079  0.5728 -0.4905 -0.4077
 7648SOL    HW235004   0.241   4.166   9.238  0.5933  0.3467 -0.2087
 7649SOL     OW35005   4.160   0.297   0.047  0.1082 -0.0872 -0.0748
 7649SOL    HW135006   4.141   0.371   0.113 -0.2539  1.5136 -1.9374
 7649SOL    HW235007   4.107   0.216   0.073 -0.0141  0.5014  1.6227
 7650SOL     OW35008   5.091   5.760   9.776  0.1015  0.2587  0.0039
 7650SOL    HW135009   5.088   5.837   9.841  0.6579  0.0691  0.2570
 7650SOL    HW235010   5.041   5.683   9.816 -0.8327  0.6227 -0.4386
 7651SOL     OW35011   3.075   0.573   9.802 -0.3255 -0.3865 -0.5581
 7651SOL    HW135012   3.044   0.662   9.837  1.5674  0.2513 -0.4125
 7651SOL    HW235013   3.006   0.503   9.822 -1.2847  0.8154  0.4328
 7652SOL     OW35014   9.654   6.765   0.813 -0.0950 -1.0039 -0.0195
 7652SOL    HW135015   9.751   6.743   0.815  0.0182 -0.5429 -0.4329
 7652SOL    HW235016   9.642   6.865   0.815 -0.5293 -1.0297 -1.0191
 7653SOL     OW35017   7.120   2.412   8.774  0.8585  0.4955  0.1588
 7653SOL    HW135018   7.030   2.425   8.734 -0.1996  0.4460  2.4544
 7653SOL    HW235019   7.159   2.500   8.800  1.6604  0.5521 -1.2027
 7654SOL     OW35020   3.510   6.481   1.677  0.0690 -0.2156  0.5349
 7654SOL    HW135021   3.571   6.472   1.755 -1.0866  0.8535  1.5839
 7654SOL    HW235022   3.435   6.543   1.700  0.1484  0.7596 -1.6963
 7655SOL     OW35023   2.182   2.363   0.858 -0.4192  0.8854 -0.3944
 7655SOL    HW135024   2.180   2.430   0.932 -1.8559 -0.9583  1.2989
 7655SOL    HW235025   2.088   2.339   0.833  0.0618 -2.1058  0.5460
 7656SOL     OW35026   1.375   4.010   0.316  0.0188 -0.4494  0.3474
 7656SOL    HW135027   1.312   4.040   0.388  0.3922  0.7914  0.1782
 7656SOL    HW235028   1.400   3.915   0.331  0.5132 -0.0533  2.2041
 7657SOL     OW35029   5.364   4.301   9.646  0.0591  0.4555 -0.5704
 7657SOL    HW135030   5.462   4.313   9.660  0.6133 -3.6745 -0.2335
 7657SOL    HW235031   5.315   4.328   9.729  1.1554 -0.0060  0.2412
 7658SOL     OW35032   3.833   3.823   4.532 -0.8561  0.1541 -0.2410
 7658SOL    HW135033   3.862   3.886   4.604 -1.5471 -0.9881  1.0603
 7658SOL    HW235034   3.739   3.793   4.551 -1.1304  0.0243 -1.7578
 7659SOL     OW35035   4.017   8.810   4.727 -0.1735 -0.7372 -0.5449
 7659SOL    HW135036   4.083   8.736   4.742 -0.4688 -0.8577  0.2016
 7659SOL    HW235037   3.944   8.778   4.667 -1.2656 -1.6493  1.2100
 7660SOL     OW35038   8.133   7.993   7.324 -0.0702  0.1699 -0.4397
 7660SOL    HW135039   8.158   8.058   7.252  0.1411 -0.8807 -1.3417
 7660SOL    HW235040   8.033   7.985   7.328 -0.1580  1.5304  0.5851
 7661SOL     OW35041   1.023   1.910   3.230 -0.9667  0.0829 -0.5480
 7661SOL    HW135042   1.098   1.977   3.224 -0.6784 -0.1852 -0.0321
 7661SOL    HW235043   1.060   1.818   3.218 -1.2310 -0.0405 -0.4093
 7662SOL     OW35044   2.561   5.993   1.917  0.6823  0.5321  0.0917
 7662SOL    HW135045   2.601   5.902   1.917  2.7093  1.3841 -1.2284
 7662SOL    HW235046   2.592   6.043   1.999  0.6466  0.4860  0.1333
 7663SOL     OW35047   3.114   2.535   8.238  0.1494  0.3974 -0.0098
 7663SOL    HW135048   3.112   2.442   8.277 -1.3642  1.0920  1.6431
 7663SOL    HW235049   3.205   2.574   8.251  0.1149  0.0334  1.5031
 7664SOL     OW35050   2.755   9.039   1.154  0.0091  0.1261 -0.0455
 7664SOL    HW135051   2.803   9.123   1.179  0.1865 -0.5468  2.0451
 7664SOL    HW235052   2.775   9.016   1.059  0.8766  1.8173 -0.2958
 7665SOL     OW35053   8.540   3.490   6.822 -0.0843  0.0099 -0.0701
 7665SOL    HW135054   8.525   3.523   6.915  1.8175 -0.5339  0.4685
 7665SOL    HW235055   8.555   3.567   6.760  1.1471  0.3131  0.5749
 7666SOL     OW35056   5.145   6.531   9.375  0.4857 -0.3080  0.0919
 7666SOL    HW135057   5.195   6.548   9.460  0.8780  0.3318 -0.2673
 7666SOL    HW235058   5.189   6.578   9.300  1.5672 -2.8691 -0.9296
 7667SOL     OW35059   2.145   3.693   6.732 -0.3084 -0.0051  0.9245
 7667SOL    HW135060   2.224   3.639   6.760 -0.1277 -1.9585 -3.1016
 7667SOL    HW235061   2.063   3.659   6.778  0.2738 -1.8026  0.6660
 7668SOL     OW35062   4.573   1.420   7.451 -0.0398 -0.2435  0.1423
 7668SOL    HW135063   4.567   1.505   7.399 -1.3245 -0.3977  0.0215
 7668SOL    HW235064   4.487   1.370   7.443  1.4984 -2.7098 -1.7504
 7669SOL     OW35065   4.724   4.961   9.717  0.1073  0.3213 -0.7548
 7669SOL    HW135066   4.819   4.991   9.704 -0.3264  1.5558 -1.0966
 7669SOL    HW235067   4.692   4.915   9.634  0.2322  0.3492 -0.8195
 7670SOL     OW35068   4.724   2.728   2.844 -0.3346  0.0453 -0.6568
 7670SOL    HW135069   4.817   2.704   2.871  0.4818  1.9545 -1.7135
 7670SOL    HW235070   4.660   2.664   2.887  1.2867 -0.0620  1.6889
 7671SOL     OW35071   0.812   1.447   6.998  0.1989  0.0368 -0.7748
 7671SOL    HW135072   0.784   1.351   7.001 -0.2175  0.1634 -0.6757
 7671SOL    HW235073   0.779   1.494   7.079 -1.0680  0.6740 -1.6438
 7672SOL     OW35074   6.183   0.849   3.643  0.0468 -0.9349 -0.0099
 7672SOL    HW135075   6.275   0.816   3.624  0.8178  1.2781 -0.2689
 7672SOL    HW235076   6.180   0.949   3.633 -2.0599 -0.8265  1.2838
 7673SOL     OW35077   3.996   1.459   6.878 -0.1256 -0.3580  0.8900
 7673SOL    HW135078   3.945   1.541   6.851 -1.1708 -1.0815  0.6200
 7673SOL    HW235079   4.094   1.478   6.875 -0.3172  0.5039 -0.3863
 7674SOL     OW35080   6.650   6.448   9.158 -0.2568  0.3940  0.6406
 7674SOL    HW135081   6.655   6.515   9.232 -1.1688  0.1428  0.9282
 7674SOL    HW235082   6.688   6.488   9.074  1.4585  0.4309  1.4075
 7675SOL     OW35083   3.459   3.715   4.311  0.4683 -0.3514  0.1892
 7675SOL    HW135084   3.544   3.667   4.290  1.5093  1.6374 -0.2411
 7675SOL    HW235085   3.399   3.714   4.231  0.2115 -1.4440  0.3816
 7676SOL     OW35086   1.920   2.648   5.625 -0.2014 -0.0283  0.3610
 7676SOL    HW135087   1.924   2.672   5.528  1.0475 -0.7609  0.2180
 7676SOL    HW235088   1.824   2.644   5.654 -0.6000 -0.0445 -0.9054
 7677SOL     OW35089   1.440   1.534   1.718  0.2909 -0.1874 -0.0390
 7677SOL    HW135090   1.373   1.466   1.689 -0.0901  1.0934 -2.2561
 7677SOL    HW235091   1.393   1.609   1.767  0.1663  0.4166 -1.0713
 7678SOL     OW35092   2.847   3.568   8.630 -0.0504  0.3767  0.5675
 7678SOL    HW135093   2.810   3.655   8.597 -1.1219 -0.2273  0.1541
 7678SOL    HW235094   2.945   3.565   8.613 -0.5358  0.1135 -2.5405
 7679SOL     OW35095   2.535   1.854   0.125  0.1966 -0.0778 -0.1470
 7679SOL    HW135096   2.491   1.939   0.098  0.8257  0.3629  0.1876
 7679SOL    HW235097   2.635   1.866   0.122  0.2861 -0.7604  0.0212
 7680SOL     OW35098   1.300   9.330   0.790  0.4286 -0.0905 -0.1945
 7680SOL    HW135099   1.323   9.386   0.711  0.7134  0.1270  0.0421
 7680SOL    HW235100   1.338   9.371   0.873  1.6434 -1.2607 -0.1613
 7681SOL     OW35101   5.000   7.851   4.152 -0.4788 -0.1419 -0.2608
 7681SOL    HW135102   5.039   7.943   4.157  1.1140 -0.7708 -0.9960
 7681SOL    HW235103   5.018   7.803   4.238 -2.8931  0.8111  0.8537
 7682SOL     OW35104   2.739   4.050   0.117 -0.6205  0.4627  0.1042
 7682SOL    HW135105   2.659   4.031   0.174 -0.8257  1.4427  0.1650
 7682SOL    HW235106   2.744   3.983   0.042 -1.1150 -0.0054  0.4885
 7683SOL     OW35107   0.551   1.104   0.962  0.6061  0.3744 -0.0940
 7683SOL    HW135108   0.536   1.108   0.863 -0.3290 -0.4420  0.0027
 7683SOL    HW235109   0.552   1.009   0.992  2.1662  0.5648  0.5075
 7684SOL     OW35110   0.190   7.458   7.038 -0.4252 -0.5013 -0.2608
 7684SOL    HW135111   0.113   7.402   7.070  0.0087 -0.6996  0.4606
 7684SOL    HW235112   0.219   7.519   7.112 -0.4080  0.1450 -0.8013
 7685SOL     OW35113   1.463   5.407   2.853 -0.0572 -0.4576 -0.5358
 7685SOL    HW135114   1.472   5.488   2.795  0.9400  0.6356  1.0838
 7685SOL    HW235115   1.366   5.391   2.874 -0.1894  0.8829 -0.1024
 7686SOL     OW35116   9.106   9.390   9.333 -0.0359  0.1171  0.0517
 7686SOL    HW135117   9.107   9.463   9.265  0.0929  0.2932  0.2412
 7686SOL    HW235118   9.141   9.306   9.292  1.3155  0.5630  0.2711
 7687SOL     OW35119   3.293   2.858   5.607 -0.5510  0.2014 -0.4117
 7687SOL    HW135120   3.345   2.852   5.522 -2.6964 -0.7996 -1.7064
 7687SOL    HW235121   3.199   2.830   5.590 -0.8632 -0.6201  2.4630
 7688SOL     OW35122   4.401   9.700   6.362 -0.5652 -0.4367 -0.2365
 7688SOL    HW135123   4.443   9.789   6.342  0.2710 -0.9197 -0.6539
 7688SOL    HW235124   4.306   9.700   6.330 -0.6013  0.3456 -0.1372
 7689SOL     OW35125   9.357   9.918   9.311  0.1270 -0.1786 -0.1903
 7689SOL    HW135126   9.333   9.829   9.349 -0.4684 -0.0178 -0.1861
 7689SOL    HW235127   9.455   9.920   9.289  0.0323 -1.0189 -0.7020
 7690SOL     OW35128   8.161   1.781   8.821  0.0977  0.0400  0.1874
 7690SOL    HW135129   8.118   1.765   8.732  0.0363 -0.0526  0.2349
 7690SOL    HW235130   8.111   1.854   8.868 -0.4572 -0.5662  0.5473
 7691SOL     OW35131   5.896   0.611   5.604 -0.1225  0.9457  0.2114
 7691SOL    HW135132   5.940   0.665   5.532  0.8004 -0.6270 -0.4235
 7691SOL    HW235133   5.962   0.547   5.643 -1.5200 -0.5893  0.1103
 7692SOL     OW35134   8.691   0.390   5.977 -0.4553 -0.7392  0.9110
 7692SOL    HW135135   8.601   0.419   5.944 -0.6882 -0.6510  1.6123
 7692SOL    HW235136   8.749   0.366   5.899 -1.8188 -2.9930  0.5659
 7693SOL     OW35137   3.217   6.125   0.422  0.3643 -0.2515  0.9052
 7693SOL    HW135138   3.303   6.154   0.465  0.3917 -0.4986  1.0113
 7693SOL    HW235139   3.193   6.033   0.452  1.6936 -1.4290 -1.5132
 7694SOL     OW35140   9.314   1.995   1.857  0.7199  0.1468 -0.1867
 7694SOL    HW135141   9.339   1.952   1.771  1.4788  0.0040  0.1069
 7694SOL    HW235142   9.394   2.042   1.896  0.3080  0.4653  0.2870
 7695SOL     OW35143   0.578   2.137   8.574 -0.6681  0.5633  0.0215
 7695SOL    HW135144   0.599   2.096   8.663 -1.9549 -1.2391 -0.4815
 7695SOL    HW235145   0.555   2.233   8.586  2.8988  1.3622  1.1718
 7696SOL     OW35146   5.341   4.209   7.841 -0.1226  0.3856 -0.0591
 7696SOL    HW135147   5.353   4.288   7.902  0.6078 -0.3870  0.8117
 7696SOL    HW235148   5.279   4.143   7.884 -1.5929  0.9661 -1.2640
 7697SOL     OW35149   3.851   2.499   6.196 -0.2375 -0.3274 -0.0298
 7697SOL    HW135150   3.898   2.451   6.122 -0.5499  1.5204 -1.4735
 7697SOL    HW235151   3.896   2.587   6.213 -1.4488  0.2083  0.5059
 7698SOL     OW35152   4.749   9.661   6.961 -0.3160  0.3948  0.6086
 7698SOL    HW135153   4.728   9.656   7.059 -0.4120  1.6683  0.6658
 7698SOL    HW235154   4.670   9.631   6.909  0.3306 -1.9773  0.9328
 7699SOL     OW35155   6.389   4.584   5.779  0.4321  0.5551  0.9938
 7699SOL    HW135156   6.468   4.581   5.718 -0.9618  1.3731 -0.9237
 7699SOL    HW235157   6.370   4.493   5.815  0.2605 -0.3236 -1.1938
 7700SOL     OW35158   3.106   6.426   5.186 -0.2365  0.4283 -0.3048
 7700SOL    HW135159   3.161   6.499   5.147 -1.1454  1.7283  0.8309
 7700SOL    HW235160   3.027   6.464   5.233 -0.9823 -1.3031 -0.0985
 7701SOL     OW35161   5.236   4.476   1.176 -0.0115  0.3464 -0.1119
 7701SOL    HW135162   5.233   4.407   1.249 -1.3808  0.2834 -0.2058
 7701SOL    HW235163   5.146   4.519   1.168 -0.3619 -0.7988 -2.8683
 7702SOL     OW35164   0.192   5.698   0.476  0.3994 -0.1766  0.9086
 7702SOL    HW135165   0.205   5.601   0.459 -0.7494 -0.4343  1.4329
 7702SOL    HW235166   0.249   5.751   0.413  0.7185 -1.1809  0.3437
 7703SOL     OW35167   1.885   0.467   5.998  0.7521  0.1714 -0.1971
 7703SOL    HW135168   1.852   0.374   6.018  0.1704 -0.1584 -2.5449
 7703SOL    HW235169   1.972   0.482   6.045  0.4689 -1.2799  0.8401
 7704SOL     OW35170   3.706   9.714   6.090  0.7524 -0.0999 -0.6842
 7704SOL    HW135171   3.638   9.776   6.050  0.3098 -0.1414  0.0065
 7704SOL    HW235172   3.798   9.744   6.062  0.6055  1.4282  0.3763
 7705SOL     OW35173   9.967   4.016   0.758  0.1323 -0.5183 -0.1034
 7705SOL    HW135174   9.944   4.113   0.751 -1.0992 -0.8520 -0.8424
 7705SOL    HW235175  10.013   3.998   0.845  0.6504  0.7785 -0.0980
 7706SOL     OW35176   2.491   7.398   3.294  0.1697 -0.1425 -0.4711
 7706SOL    HW135177   2.533   7.488   3.309 -0.0409  0.5062 -3.3151
 7706SOL    HW235178   2.563   7.331   3.273  0.1768 -0.1741 -0.3443
 7707SOL     OW35179   3.578   0.293   0.166 -0.1093  0.3525 -0.0709
 7707SOL    HW135180   3.562   0.377   0.218  2.3898  1.4233 -0.9663
 7707SOL    HW235181   3.567   0.312   0.069 -0.6107 -0.6530 -0.2191
 7708SOL     OW35182   6.103   1.256   0.480  0.1254 -0.0292 -0.1280
 7708SOL    HW135183   6.017   1.239   0.529  0.4303 -2.6471 -0.4616
 7708SOL    HW235184   6.148   1.170   0.461  1.5346  1.1574 -2.3501
 7709SOL     OW35185   9.671   5.787   5.409 -0.1240 -0.0698 -0.6241
 7709SOL    HW135186   9.623   5.729   5.475  0.4297  1.0033  0.7504
 7709SOL    HW235187   9.721   5.730   5.345 -0.4981 -1.1287  0.0186
 7710SOL     OW35188   2.965   4.159   7.131 -0.1582  0.2685  0.0530
 7710SOL    HW135189   2.992   4.195   7.220  0.9651  0.8056 -0.4897
 7710SOL    HW235190   2.866   4.144   7.129 -0.4522  2.0177  0.7524
 7711SOL     OW35191   2.357   8.515   9.738 -0.2064  0.3195  0.4023
 7711SOL    HW135192   2.265   8.476   9.730  0.0489 -0.2635  0.3078
 7711SOL    HW235193   2.420   8.446   9.773  0.3800  0.4535 -0.3862
 7712SOL     OW35194   0.378   1.317   8.835 -0.2777  0.4303  0.0544
 7712SOL    HW135195   0.355   1.232   8.882 -1.9821  0.2113 -1.1234
 7712SOL    HW235196   0.477   1.328   8.831 -0.0365 -1.7745 -0.2726
 7713SOL     OW35197   5.886   7.920   5.442 -0.2450  0.3814  0.1420
 7713SOL    HW135198   5.810   7.858   5.423  0.4536 -0.5706  0.3883
 7713SOL    HW235199   5.850   8.009   5.470 -1.2737 -0.2402  0.8381
 7714SOL     OW35200   4.049   1.367   6.625  0.3421  0.1887  0.0462
 7714SOL    HW135201   3.984   1.309   6.576  0.2120  1.3280 -1.1768
 7714SOL    HW235202   4.029   1.365   6.723 -2.6766  1.8839 -0.4693
 7715SOL     OW35203   3.309   4.140   3.502  0.0128  0.2180 -0.3550
 7715SOL    HW135204   3.324   4.102   3.411  2.8020  1.2995 -0.4005
 7715SOL    HW235205   3.319   4.068   3.570 -1.5116 -0.4812 -0.8580
 7716SOL     OW35206   6.876   8.316   7.734 -0.1085  1.0649  0.1025
 7716SOL    HW135207   6.936   8.251   7.688 -1.7782  0.8099 -1.7726
 7716SOL    HW235208   6.899   8.320   7.831  0.0645 -2.3240  0.2584
 7717SOL     OW35209   3.313   5.328   5.615 -0.5729  0.4001 -0.1648
 7717SOL    HW135210   3.224   5.363   5.586 -0.7539 -0.1738 -0.3044
 7717SOL    HW235211   3.382   5.399   5.601 -1.1007  1.0496  0.4788
 7718SOL     OW35212   1.785   4.004   6.764  0.1119  0.3297  0.2475
 7718SOL    HW135213   1.875   3.969   6.789 -0.5856 -1.4275  0.3310
 7718SOL    HW235214   1.760   4.080   6.825  1.0979  0.1708  0.8479
 7719SOL     OW35215   1.631   4.393   5.093 -0.0163 -0.2024  0.2070
 7719SOL    HW135216   1.533   4.411   5.090  0.2242  1.2925  1.1427
 7719SOL    HW235217   1.674   4.432   5.011 -0.4730 -2.7968 -1.3586
 7720SOL     OW35218   4.465   0.667   8.821  0.5550 -0.5500  0.0507
 7720SOL    HW135219   4.386   0.722   8.796  0.4226 -0.9873 -0.5080
 7720SOL    HW235220   4.455   0.575   8.783 -0.6525 -1.9104  3.4156
 7721SOL     OW35221   0.959   5.340   8.800 -0.2663 -0.2649 -0.0867
 7721SOL    HW135222   1.017   5.280   8.747  1.2935  1.0166  0.1278
 7721SOL    HW235223   0.899   5.286   8.859 -1.0832 -1.6468 -2.1442
 7722SOL     OW35224   5.373   6.525   0.904  0.0601  0.2119  0.6433
 7722SOL    HW135225   5.446   6.547   0.968  1.4671  0.8826 -1.1631
 7722SOL    HW235226   5.412   6.484   0.821 -1.6626  0.0447 -0.1053
 7723SOL     OW35227   5.139   5.051   9.193  0.5974  0.6732 -0.3445
 7723SOL    HW135228   5.083   4.971   9.215  0.0312  0.7304 -1.5355
 7723SOL    HW235229   5.079   5.131   9.184  1.4385  1.8350  3.6070
 7724SOL     OW35230   6.411   6.350   6.216  0.3433  0.3106  0.0563
 7724SOL    HW135231   6.375   6.268   6.171 -2.2715  1.1280  0.5876
 7724SOL    HW235232   6.452   6.410   6.147 -1.3241  0.3763 -0.8938
 7725SOL     OW35233   4.200   0.490   1.164 -0.4104  0.3900 -0.3594
 7725SOL    HW135234   4.277   0.550   1.185 -0.9398  0.2182  2.2867
 7725SOL    HW235235   4.122   0.515   1.221 -1.5380 -0.9844 -1.2741
 7726SOL     OW35236   9.204   8.411   2.317  0.1625 -0.2743  0.2965
 7726SOL    HW135237   9.298   8.446   2.322  0.1475  0.0457 -1.4487
 7726SOL    HW235238   9.143   8.484   2.288 -0.3524 -0.9610 -0.3437
 7727SOL     OW35239   6.478   5.858   5.449  0.4969 -0.0046 -0.1244
 7727SOL    HW135240   6.419   5.831   5.525  1.0632  0.4282  0.4725
 7727SOL    HW235241   6.422   5.875   5.368 -0.0091 -1.4879 -0.0954
 7728SOL     OW35242   1.520   2.412   9.258  0.0121  0.2291  0.1313
 7728SOL    HW135243   1.440   2.362   9.291  1.0611 -1.4146  0.2249
 7728SOL    HW235244   1.497   2.458   9.172 -1.1552  0.0917  0.3662
 7729SOL     OW35245   4.229   7.436   0.418  0.0445  0.0114 -0.4163
 7729SOL    HW135246   4.207   7.355   0.364 -0.0627 -0.1712 -0.0999
 7729SOL    HW235247   4.161   7.507   0.402  0.1209  0.0306 -0.6680
 7730SOL     OW35248   3.509   4.750   8.807 -0.3365  0.7081  0.0608
 7730SOL    HW135249   3.605   4.745   8.782  0.2388  0.4719  2.2387
 7730SOL    HW235250   3.471   4.658   8.815 -0.6628  0.7936 -0.5158
 7731SOL     OW35251   7.427   9.460   9.372  0.6011  0.1337 -0.5557
 7731SOL    HW135252   7.390   9.410   9.294  1.4364  1.0672 -1.5623
 7731SOL    HW235253   7.387   9.552   9.374 -1.6420 -0.8410  1.8225
 7732SOL     OW35254   4.326   6.904   8.580 -0.0074  0.0082 -0.0704
 7732SOL    HW135255   4.369   6.891   8.491  0.5902  0.1222  0.1970
 7732SOL    HW235256   4.394   6.939   8.645 -0.7765  1.2888  0.0662
 7733SOL     OW35257   1.639   3.917   2.796  0.0325  0.4216 -0.3169
 7733SOL    HW135258   1.700   3.900   2.718  1.8978 -0.0318  1.2075
 7733SOL    HW235259   1.645   4.013   2.821 -1.1219  0.7277 -1.1620
 7734SOL     OW35260   8.188   5.191   5.485 -0.2497  0.6383  0.2140
 7734SOL    HW135261   8.151   5.220   5.573 -0.3053  3.1810 -0.6102
 7734SOL    HW235262   8.117   5.197   5.415  0.5907  1.5360 -0.5771
 7735SOL     OW35263   3.528   5.797   0.849  0.6446  1.0026  0.5058
 7735SOL    HW135264   3.551   5.700   0.854 -0.8029  0.6422  0.5642
 7735SOL    HW235265   3.585   5.842   0.781  2.4468  0.4512  1.6218
 7736SOL     OW35266   7.999   5.083   6.700 -0.1558 -0.1028 -0.4435
 7736SOL    HW135267   8.046   5.105   6.615 -2.9542 -0.3735 -2.1128
 7736SOL    HW235268   7.970   4.988   6.700  1.7661 -0.7593  1.8316
 7737SOL     OW35269   3.858   7.750   6.575 -0.3056 -0.8121 -0.7651
 7737SOL    HW135270   3.902   7.839   6.563  1.3358 -1.5295 -0.2406
 7737SOL    HW235271   3.924   7.678   6.556 -1.1176 -1.9238  0.5345
 7738SOL     OW35272   1.641   1.336   8.716  0.4192 -0.6609  0.0818
 7738SOL    HW135273   1.710   1.327   8.788  1.5693  2.3343 -0.5695
 7738SOL    HW235274   1.552   1.354   8.758  0.9567  0.3853  0.8285
 7739SOL     OW35275   6.075   9.587   6.255  0.0244 -0.1111 -0.0303
 7739SOL    HW135276   6.063   9.673   6.205  2.7421 -0.8403 -2.0971
 7739SOL    HW235277   6.115   9.606   6.345 -0.1050  0.8513 -0.1733
 7740SOL     OW35278   0.442   4.053   3.447  0.2898 -0.2495  0.6981
 7740SOL    HW135279   0.475   4.099   3.529 -0.4603  0.4975  0.5842
 7740SOL    HW235280   0.392   3.970   3.473  0.9130 -0.5506  0.9430
 7741SOL     OW35281   6.149   2.660   3.952  0.1238 -0.4066  0.1590
 7741SOL    HW135282   6.208   2.678   3.873  0.0647 -1.2047 -0.0759
 7741SOL    HW235283   6.069   2.608   3.921 -0.5261  0.3714  0.5309
 7742SOL     OW35284   1.165   2.130   6.763 -0.2753 -0.0048  0.1220
 7742SOL    HW135285   1.212   2.190   6.699 -0.0605 -0.6969 -0.3747
 7742SOL    HW235286   1.227   2.104   6.836 -0.1723 -0.1432 -0.0140
 7743SOL     OW35287   9.443   4.217   9.911 -0.0574 -0.0134 -0.0777
 7743SOL    HW135288   9.383   4.296   9.923 -1.9241 -1.5627  0.9484
 7743SOL    HW235289   9.443   4.190   9.814  1.4601  1.8936 -0.6305
 7744SOL     OW35290   2.867   3.021   7.619  0.3088  0.4041 -0.0523
 7744SOL    HW135291   2.858   2.999   7.522  0.6636 -0.3063  0.0743
 7744SOL    HW235292   2.821   2.952   7.673  1.2637  0.0623  0.3376
 7745SOL     OW35293   4.499   2.541   9.652 -0.5399 -0.0937  0.7852
 7745SOL    HW135294   4.491   2.453   9.605  0.5829  0.0742  0.2585
 7745SOL    HW235295   4.524   2.612   9.585 -2.3004  0.7894  1.0460
 7746SOL     OW35296   3.773   0.427   6.836 -0.0537  0.5173  0.2140
 7746SOL    HW135297   3.700   0.491   6.859 -0.4973 -0.1536  0.6827
 7746SOL    HW235298   3.743   0.333   6.855  1.9845  0.4102  3.2903
 7747SOL     OW35299   6.936   5.441   9.091  0.1588  0.9065  0.5909
 7747SOL    HW135300   6.898   5.368   9.147  2.1550 -3.2519 -3.2039
 7747SOL    HW235301   6.865   5.478   9.031 -0.2818  0.3039  0.7401
 7748SOL     OW35302   0.504   0.705   2.670  0.0930 -0.4308  0.3171
 7748SOL    HW135303   0.457   0.616   2.662 -2.7183  0.8601  1.6559
 7748SOL    HW235304   0.451   0.775   2.622  1.9815  0.6684 -0.2193
 7749SOL     OW35305   1.260   0.709   8.667 -0.1515 -0.4369  0.3790
 7749SOL    HW135306   1.292   0.803   8.659 -0.1200 -0.4695  0.1229
 7749SOL    HW235307   1.182   0.694   8.607  0.7299 -0.9608 -0.6606
 7750SOL     OW35308   1.687   0.505   7.224  0.5307 -0.4150  0.0326
 7750SOL    HW135309   1.660   0.500   7.128 -2.3154  0.0853  0.7546
 7750SOL    HW235310   1.737   0.590   7.240  2.4632 -1.2726 -1.3235
 7751SOL     OW35311   2.938   3.585   7.153 -0.1238  0.4058  0.2246
 7751SOL    HW135312   2.847   3.575   7.115  0.4425  0.0863 -1.0787
 7751SOL    HW235313   2.993   3.644   7.093  0.6251  0.3290  0.8222
 7752SOL     OW35314   2.090   1.918   9.386 -0.2986  0.2876 -0.2448
 7752SOL    HW135315   2.158   1.959   9.446  0.6402 -1.1202 -0.3032
 7752SOL    HW235316   2.019   1.874   9.441  0.1920 -0.4023 -0.1490
 7753SOL     OW35317   0.278   3.812   6.895 -0.6117  0.5444 -0.2257
 7753SOL    HW135318   0.203   3.878   6.899 -0.5767  0.7864 -2.8217
 7753SOL    HW235319   0.254   3.732   6.951 -2.0022  1.4106  0.4495
 7754SOL     OW35320   4.316   9.295   7.958 -0.4531 -0.7110  0.3098
 7754SOL    HW135321   4.400   9.295   8.011 -0.3197 -1.0929  0.0986
 7754SOL    HW235322   4.313   9.214   7.900 -0.1773  0.1535 -0.9412
 7755SOL     OW35323   2.424   3.146   7.167 -0.5814  0.1506  0.0556
 7755SOL    HW135324   2.482   3.200   7.228 -0.7704  0.9547 -0.4772
 7755SOL    HW235325   2.440   3.048   7.184 -0.5221  0.3630  1.2858
 7756SOL     OW35326   9.504   8.659   8.870  0.5555 -0.3583 -0.3298
 7756SOL    HW135327   9.506   8.602   8.952 -0.8473 -0.0821 -0.0883
 7756SOL    HW235328   9.588   8.645   8.817  0.0510 -2.9539 -0.5009
 7757SOL     OW35329   3.169   4.234   7.564  0.1862  0.5396 -0.1488
 7757SOL    HW135330   3.245   4.245   7.629  0.7045  1.6004 -0.9168
 7757SOL    HW235331   3.196   4.169   7.493  0.6963  1.5424 -0.8818
 7758SOL     OW35332   4.612   0.167   7.974 -0.2159  0.7668 -0.1280
 7758SOL    HW135333   4.662   0.221   7.906 -1.1795 -0.5036 -1.8896
 7758SOL    HW235334   4.661   0.082   7.992 -1.6275 -0.4230 -1.7578
 7759SOL     OW35335   0.866   4.211   2.256 -0.2336  0.2205 -0.5089
 7759SOL    HW135336   0.824   4.123   2.236  0.1086 -0.0323 -0.1118
 7759SOL    HW235337   0.935   4.200   2.327  0.5963  0.6147 -1.2540
 7760SOL     OW35338   3.779   1.712   5.046 -0.3615 -0.5692  0.0261
 7760SOL    HW135339   3.724   1.639   5.086 -0.9520  0.3597  0.9489
 7760SOL    HW235340   3.719   1.783   5.009  0.2072 -0.6409 -1.0508
 7761SOL     OW35341   1.109   3.232   8.017 -0.3528  0.0740  0.0797
 7761SOL    HW135342   1.041   3.265   8.083 -0.1240 -2.0441  1.4218
 7761SOL    HW235343   1.197   3.219   8.064 -0.0702 -1.0185 -0.7350
 7762SOL     OW35344   2.984   5.868   8.623  0.2606  0.2821  0.3515
 7762SOL    HW135345   3.015   5.814   8.701  2.0201  0.1466 -0.4304
 7762SOL    HW235346   2.955   5.808   8.549 -0.3846  0.4167  0.4871
 7763SOL     OW35347   3.603   0.863   1.426  0.4660 -0.3887  0.3941
 7763SOL    HW135348   3.538   0.827   1.359  0.1132  2.1742 -0.6966
 7763SOL    HW235349   3.557   0.880   1.513 -0.3472  1.3409 -0.3499
 7764SOL     OW35350   4.186   6.016   7.340 -0.3363 -0.4032  0.2603
 7764SOL    HW135351   4.127   5.969   7.275 -1.9089  0.2598  1.1932
 7764SOL    HW235352   4.195   5.962   7.423 -1.1187  0.3303  0.8324
 7765SOL     OW35353   3.091   0.739   7.151 -0.4775 -0.0436 -0.3668
 7765SOL    HW135354   3.105   0.655   7.098 -0.7258 -0.2911 -0.0414
 7765SOL    HW235355   3.142   0.732   7.237  2.3608  1.5587 -1.8140
 7766SOL     OW35356   3.312   9.806   1.323 -0.2105  0.1580 -0.1314
 7766SOL    HW135357   3.394   9.861   1.337  0.0005 -0.2183  0.1174
 7766SOL    HW235358   3.233   9.866   1.308  0.4252  0.5222 -2.1975
 7767SOL     OW35359   0.804   0.452   9.208 -0.5816  0.1390 -0.1976
 7767SOL    HW135360   0.877   0.507   9.168 -0.0047 -0.1155  0.4766
 7767SOL    HW235361   0.844   0.370   9.250 -1.2162  0.1492  0.4398
 7768SOL     OW35362   2.523   6.855   0.755 -0.2736 -0.2873  0.3184
 7768SOL    HW135363   2.596   6.865   0.822  0.4523 -1.2058 -0.3189
 7768SOL    HW235364   2.538   6.771   0.701 -1.2560  0.0339 -0.4737
 7769SOL     OW35365   1.522   2.591   9.052  0.4725  0.2454  0.9222
 7769SOL    HW135366   1.590   2.646   9.102  0.0960  0.7756  0.8470
 7769SOL    HW235367   1.556   2.571   8.960 -0.1438  1.8371  0.3362
 7770SOL     OW35368   3.783   2.537   8.510  0.3815 -0.7071  0.2797
 7770SOL    HW135369   3.866   2.511   8.461  0.4989 -1.4567  0.8725
 7770SOL    HW235370   3.707   2.481   8.478 -0.1389  0.7283 -1.0474
 7771SOL     OW35371   3.033   5.622   1.026  0.3521  0.4586 -0.0176
 7771SOL    HW135372   2.993   5.638   0.936  0.4337 -1.1584 -0.3532
 7771SOL    HW235373   2.994   5.687   1.091 -0.2719  1.1424 -1.0459
 7772SOL     OW35374   5.098   0.016   6.082 -0.0506 -0.6903  0.5766
 7772SOL    HW135375   5.129   0.108   6.103  1.5058 -0.9562 -0.4620
 7772SOL    HW235376   5.011   0.020   6.032 -0.4348  0.1561  1.2973
 7773SOL     OW35377   3.812   3.482   1.455  0.6517  0.4187 -0.5401
 7773SOL    HW135378   3.761   3.407   1.496 -0.1446  1.6389  0.7473
 7773SOL    HW235379   3.755   3.529   1.388  1.2044 -0.2162 -1.4640
 7774SOL     OW35380   3.491   9.706   7.454 -0.5156 -0.0827  0.2342
 7774SOL    HW135381   3.481   9.632   7.520 -0.2590 -0.2020  0.1395
 7774SOL    HW235382   3.479   9.794   7.501  0.8080 -0.1211  0.6777
 7775SOL     OW35383   2.946   8.000   6.447  0.4104 -0.5718 -0.0457
 7775SOL    HW135384   2.960   8.032   6.353  2.4184 -1.2332  0.0160
 7775SOL    HW235385   2.859   7.951   6.453 -0.1016  0.1427 -1.3746
 7776SOL     OW35386   4.312   9.354   2.348  0.4251  0.4194  0.1985
 7776SOL    HW135387   4.236   9.324   2.290  0.5443 -0.2021  0.3566
 7776SOL    HW235388   4.279   9.367   2.442  0.0859  2.0727 -0.1294
 7777SOL     OW35389   4.313   7.347   5.499  0.1064 -0.5350  0.6198
 7777SOL    HW135390   4.237   7.312   5.445 -1.1319 -0.3854  2.2450
 7777SOL    HW235391   4.394   7.355   5.441 -1.3805  0.3251 -1.3927
 7778SOL     OW35392   1.368   2.118   2.686 -0.0358  0.0186  0.4579
 7778SOL    HW135393   1.304   2.126   2.610  0.0733 -1.5621  0.1910
 7778SOL    HW235394   1.321   2.137   2.772 -0.5267  0.2353  0.1411
 7779SOL     OW35395   6.427   0.210   9.476 -0.3474 -0.5249  0.4810
 7779SOL    HW135396   6.370   0.260   9.410 -0.1259 -1.2648 -0.2824
 7779SOL    HW235397   6.417   0.251   9.566  0.6343  1.5619 -0.3258
 7780SOL     OW35398   1.730   2.587   9.620  0.4062 -0.0418  0.2382
 7780SOL    HW135399   1.728   2.494   9.655  0.7316 -0.7034 -1.4340
 7780SOL    HW235400   1.647   2.605   9.567  0.6980  0.3528 -0.0937
 7781SOL     OW35401   3.488   0.701   3.095  0.2400  0.0076 -0.0927
 7781SOL    HW135402   3.577   0.744   3.077 -0.4617  1.2334 -0.7014
 7781SOL    HW235403   3.451   0.736   3.181  0.9764 -1.5610  0.8807
 7782SOL     OW35404   0.801   4.047   1.273 -0.3368 -0.5801  0.0995
 7782SOL    HW135405   0.800   4.085   1.180 -0.1604  1.8108  1.0264
 7782SOL    HW235406   0.895   4.041   1.306 -0.5454  1.5833  1.2394
 7783SOL     OW35407   0.793   5.518   9.707 -0.0003  0.9734  0.0412
 7783SOL    HW135408   0.836   5.432   9.681  0.2154  1.5164 -1.4337
 7783SOL    HW235409   0.765   5.513   9.803  1.0721 -0.2979  0.3107
 7784SOL     OW35410   0.167   5.285   5.350 -0.4154  0.3095  0.1563
 7784SOL    HW135411   0.245   5.345   5.367  0.7711 -1.1581 -0.0243
 7784SOL    HW235412   0.196   5.189   5.358 -1.6610 -0.3009 -2.1385
 7785SOL     OW35413   8.221   2.168   6.238  0.0334  0.2536 -0.1791
 7785SOL    HW135414   8.201   2.158   6.140 -0.9431 -2.2942  0.2365
 7785SOL    HW235415   8.255   2.081   6.274 -2.4578  0.2302  2.3554
 7786SOL     OW35416   9.552   9.929   2.044  0.3895  0.1926 -0.5611
 7786SOL    HW135417   9.566   9.969   1.953 -1.4180 -1.4984 -1.6239
 7786SOL    HW235418   9.499   9.845   2.035  1.3307 -0.7121  1.9447
 7787SOL     OW35419   2.332   0.735   2.270  0.1766  0.1214 -0.0150
 7787SOL    HW135420   2.279   0.726   2.355 -0.9638  0.2520 -0.6896
 7787SOL    HW235421   2.324   0.829   2.236 -0.6988 -0.3242 -1.0892
 7788SOL     OW35422   5.680   3.156   0.222 -0.3820 -0.1604  0.0561
 7788SOL    HW135423   5.650   3.080   0.163  1.0257 -1.0461  0.4677
 7788SOL    HW235424   5.721   3.227   0.165  0.9877 -1.0218 -0.0463
 7789SOL     OW35425   2.495   0.937   7.329  0.0870  0.2912  0.1671
 7789SOL    HW135426   2.454   0.855   7.370 -0.0281  0.4369  0.3390
 7789SOL    HW235427   2.561   0.977   7.394 -1.2108  1.3964  0.8194
 7790SOL     OW35428   2.472   4.029   9.396 -0.5145  0.4090  0.2421
 7790SOL    HW135429   2.394   3.988   9.349 -1.8255  1.4123  1.4948
 7790SOL    HW235430   2.538   3.958   9.420 -1.1272 -0.4778 -0.6667
 7791SOL     OW35431   6.657   5.278   0.730 -0.4542 -0.0170  0.0453
 7791SOL    HW135432   6.655   5.331   0.645 -0.2728  1.3021  0.8507
 7791SOL    HW235433   6.733   5.213   0.727 -1.3096 -0.9694 -1.3807
 7792SOL     OW35434   4.712   2.917   7.463 -0.5655 -0.0070  0.1152
 7792SOL    HW135435   4.751   2.964   7.384  0.1985 -0.6325  0.1118
 7792SOL    HW235436   4.705   2.819   7.443  2.7384 -0.7139  1.9996
 7793SOL     OW35437   4.078   1.641   2.266 -0.5477 -0.3254  0.0456
 7793SOL    HW135438   3.979   1.655   2.264 -0.6501 -0.9371  0.8550
 7793SOL    HW235439   4.123   1.719   2.223 -1.3306  0.4350  0.5873
 7794SOL     OW35440   1.848   3.880   0.233 -0.7292  0.4254 -0.2596
 7794SOL    HW135441   1.906   3.885   0.314 -0.1895 -0.3264 -0.5960
 7794SOL    HW235442   1.781   3.954   0.236  1.6589  2.6980 -0.9792
 7795SOL     OW35443   3.579   3.996   1.903  0.0751  0.0531  0.0066
 7795SOL    HW135444   3.672   3.969   1.930  0.8582  1.4433 -1.2116
 7795SOL    HW235445   3.528   4.025   1.984  0.2868 -1.8807  0.8554
 7796SOL     OW35446   9.937   8.956   8.874 -0.1624 -0.1425  0.0986
 7796SOL    HW135447   9.915   9.000   8.961 -1.3134 -0.9596  0.2312
 7796SOL    HW235448   9.989   9.019   8.817  1.0573  0.2199  1.5787
 7797SOL     OW35449   0.039   0.434   0.212  0.1679  0.1339  0.2779
 7797SOL    HW135450   0.035   0.483   0.126 -1.4197  0.8562  0.7523
 7797SOL    HW235451   0.121   0.462   0.263 -0.3128  1.6912  0.1980
 7798SOL     OW35452   4.740   9.658   7.248  0.1849  0.2777  0.2370
 7798SOL    HW135453   4.657   9.611   7.280  0.8076 -0.0057  1.5024
 7798SOL    HW235454   4.809   9.590   7.224  0.9147  0.5158  1.5892
 7799SOL     OW35455   0.012   4.766   7.867  0.6455 -0.2178  0.0426
 7799SOL    HW135456  -0.042   4.749   7.949 -0.7056  0.9692 -0.5827
 7799SOL    HW235457   0.032   4.678   7.822 -0.9207 -0.6768  0.1895
 7800SOL     OW35458   3.409   3.221   9.427 -0.0300 -0.4518 -0.6236
 7800SOL    HW135459   3.372   3.142   9.475  0.8897  1.4389  3.4063
 7800SOL    HW235460   3.491   3.195   9.378  0.4461 -1.9500  0.9182
 7801SOL     OW35461   2.521   5.787   1.257 -0.0701 -0.2194  0.2475
 7801SOL    HW135462   2.508   5.699   1.212  0.7222 -1.3709  2.2127
 7801SOL    HW235463   2.432   5.832   1.269 -0.2918  0.1520 -2.4573
 7802SOL     OW35464   4.667   4.436   2.097  0.2186 -0.1049 -0.0415
 7802SOL    HW135465   4.651   4.527   2.135 -0.2219 -0.3752  0.4335
 7802SOL    HW235466   4.764   4.413   2.107  0.1431 -0.0948  0.7654
 7803SOL     OW35467   2.752   2.098   8.917 -0.1843 -0.4202  0.5193
 7803SOL    HW135468   2.760   2.089   8.818  1.4823 -1.4836  0.7385
 7803SOL    HW235469   2.686   2.032   8.952  0.9408 -1.6265  0.3785
 7804SOL     OW35470   3.155   4.716   2.107 -0.3242 -0.2951  0.0313
 7804SOL    HW135471   3.061   4.691   2.083 -0.4566  0.9890 -0.8117
 7804SOL    HW235472   3.157   4.745   2.203 -1.4048  2.6634 -0.7920
 7805SOL     OW35473   6.238   6.311   9.470  0.4920  0.0727  0.1368
 7805SOL    HW135474   6.179   6.242   9.512 -0.4649 -0.8130 -2.5624
 7805SOL    HW235475   6.334   6.290   9.490  0.2262 -2.1172 -0.7201
 7806SOL     OW35476   3.808   5.776   9.652 -0.6499  0.3318 -0.2428
 7806SOL    HW135477   3.904   5.786   9.629 -0.8036  0.8923 -0.6276
 7806SOL    HW235478   3.790   5.681   9.677  0.1579  0.3808  0.5459
 7807SOL     OW35479   9.260   3.733   8.140 -0.1789  0.2980  0.0347
 7807SOL    HW135480   9.335   3.792   8.171  0.5904  0.8469 -2.6800
 7807SOL    HW235481   9.289   3.685   8.057 -2.0146 -1.2951  0.2963
 7808SOL     OW35482   1.677   6.052   0.805  0.2527 -0.9874  0.1589
 7808SOL    HW135483   1.584   6.087   0.789  1.6102  1.3569 -3.2349
 7808SOL    HW235484   1.673   5.974   0.868 -3.7470  0.4360  1.8206
 7809SOL     OW35485   7.219   2.025   6.826  0.4772 -0.7937 -0.0216
 7809SOL    HW135486   7.202   2.082   6.745  0.7588 -0.8253 -0.1037
 7809SOL    HW235487   7.260   1.939   6.797  1.3508 -0.4670  0.2357
 7810SOL     OW35488   5.936   3.930   1.195 -0.5559  0.2649  0.3954
 7810SOL    HW135489   5.962   3.871   1.272 -1.9882  1.7711  2.0717
 7810SOL    HW235490   5.871   3.883   1.136 -0.7410 -0.2864  1.0415
 7811SOL     OW35491   3.155   0.137   1.068  0.0487 -0.4829  0.6260
 7811SOL    HW135492   3.233   0.110   1.126  0.2534  0.9420  1.0425
 7811SOL    HW235493   3.098   0.202   1.118  1.2968  2.3017 -1.4499
 7812SOL     OW35494   5.021   5.659   8.490 -0.1158 -0.0748 -0.0054
 7812SOL    HW135495   4.964   5.732   8.530  0.2683  0.8901 -1.1820
 7812SOL    HW235496   4.980   5.570   8.511 -0.8890  0.4979  0.9980
 7813SOL     OW35497   4.048   1.624   4.748  0.1223 -0.1175 -0.2237
 7813SOL    HW135498   3.949   1.611   4.762  0.3770 -1.3210  0.5947
 7813SOL    HW235499   4.070   1.611   4.651 -0.6159  0.7756 -0.5098
 7814SOL     OW35500   3.741   3.959   0.948  0.5911 -0.4895 -0.1892
 7814SOL    HW135501   3.705   4.049   0.969  1.7006  0.0256 -0.4683
 7814SOL    HW235502   3.784   3.920   1.030 -0.4034 -1.0156  0.0880
 7815SOL     OW35503   8.165   0.433   0.569  0.0207  0.7924 -0.9566
 7815SOL    HW135504   8.184   0.531   0.576 -0.7913  0.8615  0.4854
 7815SOL    HW235505   8.066   0.419   0.565  0.0653 -0.0594  0.6381
 7816SOL     OW35506   4.783   3.251   6.284 -0.3182 -0.5300  0.3598
 7816SOL    HW135507   4.814   3.341   6.314 -1.5899  0.0699 -0.0971
 7816SOL    HW235508   4.805   3.182   6.353  0.8103  0.1035  0.6296
 7817SOL     OW35509   2.313   5.530   8.669 -0.3406  0.6661 -0.0224
 7817SOL    HW135510   2.302   5.432   8.680 -0.6490  0.8195  1.0903
 7817SOL    HW235511   2.410   5.554   8.676 -0.0962  0.2748 -1.8033
 7818SOL     OW35512   4.486   0.426   7.732 -0.1574  0.0673 -0.4321
 7818SOL    HW135513   4.528   0.474   7.655  0.8083  0.5561  0.4005
 7818SOL    HW235514   4.524   0.460   7.818 -2.3287  0.6257  0.3607
 7819SOL     OW35515   5.180   4.969   1.714  0.1109  0.5014  0.0279
 7819SOL    HW135516   5.154   5.040   1.780  0.4882  0.3999  0.2898
 7819SOL    HW235517   5.163   5.001   1.621 -1.0467  0.4001  0.1967
 7820SOL     OW35518   0.895   1.644   5.619  0.2123 -0.0276  0.1489
 7820SOL    HW135519   0.992   1.640   5.640 -0.1433  2.1161  2.3822
 7820SOL    HW235520   0.879   1.711   5.546  0.5234 -1.4113 -1.2276
 7821SOL     OW35521   3.183   4.246   5.145  0.2787  0.0133 -0.3569
 7821SOL    HW135522   3.201   4.148   5.150  0.1023 -0.1080 -1.9745
 7821SOL    HW235523   3.090   4.262   5.111 -0.0425  0.7399  0.8122
 7822SOL     OW35524   5.191   0.258   7.296  0.1394  0.0102 -0.5562
 7822SOL    HW135525   5.096   0.240   7.270 -0.5496  0.0038  1.8979
 7822SOL    HW235526   5.206   0.356   7.299  0.0474  0.0183 -0.3605
 7823SOL     OW35527   3.075   1.330   7.194 -0.1618 -0.0181  0.1114
 7823SOL    HW135528   3.044   1.266   7.264  0.6549 -1.3041 -0.6734
 7823SOL    HW235529   3.095   1.418   7.236 -1.6220 -0.1610  1.1563
 7824SOL     OW35530   0.143   0.281   0.964 -0.4223 -0.4613  0.2194
 7824SOL    HW135531   0.207   0.321   1.029 -0.2992  1.8159 -1.2478
 7824SOL    HW235532   0.190   0.213   0.908  0.1841 -0.3355  0.5728
 7825SOL     OW35533   3.467   9.399   9.515  0.1064 -0.0366  0.2407
 7825SOL    HW135534   3.559   9.433   9.498 -0.2732  0.1388 -1.5699
 7825SOL    HW235535   3.458   9.306   9.481 -0.4882  0.0857  0.0372
 7826SOL     OW35536   9.863   7.795   9.232 -0.2212 -0.4514 -0.0369
 7826SOL    HW135537   9.767   7.774   9.213  0.0538 -1.1148 -0.7111
 7826SOL    HW235538   9.918   7.712   9.225  0.4647 -0.0093  0.0020
 7827SOL     OW35539   5.032   5.153   8.879 -0.2057  0.2984 -0.4931
 7827SOL    HW135540   4.956   5.197   8.928 -0.2451  0.7102 -0.9183
 7827SOL    HW235541   5.030   5.055   8.896 -0.4428  0.3894  0.0288
 7828SOL     OW35542   6.985   5.889   2.378 -0.1369  0.0202  0.1696
 7828SOL    HW135543   6.982   5.827   2.299  0.2161 -0.6067  0.6507
 7828SOL    HW235544   6.906   5.950   2.374  0.1010  0.2819 -0.9080
 7829SOL     OW35545   9.275   5.296   4.827 -0.0491  0.4377  0.2734
 7829SOL    HW135546   9.234   5.385   4.806 -0.7612 -0.4767 -2.3402
 7829SOL    HW235547   9.219   5.248   4.894 -0.6449  1.1825  0.3178
 7830SOL     OW35548   1.999   2.032   8.996  0.4666  0.3586 -0.3836
 7830SOL    HW135549   2.033   2.076   9.080 -0.2343 -0.8208  0.5372
 7830SOL    HW235550   1.909   2.070   8.973 -0.9634 -1.7894  1.4263
 7831SOL     OW35551   1.205   2.805   1.546  0.3031  0.0827  0.0511
 7831SOL    HW135552   1.163   2.715   1.555 -3.5875  1.7374 -0.8698
 7831SOL    HW235553   1.269   2.819   1.622 -1.1225 -2.3536  1.7631
 7832SOL     OW35554   6.724   2.393   8.523  0.9224  0.0315 -0.2251
 7832SOL    HW135555   6.693   2.488   8.517  0.7192 -0.0095  0.1898
 7832SOL    HW235556   6.735   2.367   8.619 -4.3882 -2.1054  0.0122
 7833SOL     OW35557   6.271   9.201   8.952  0.2327 -0.7105  0.2082
 7833SOL    HW135558   6.327   9.119   8.937 -0.2123 -1.0196  0.2262
 7833SOL    HW235559   6.329   9.275   8.985  0.6154 -1.0590  0.3266
 7834SOL     OW35560   4.604   5.000   0.162  0.5332 -0.2925  0.1520
 7834SOL    HW135561   4.656   4.950   0.092  0.2073  0.2391 -0.4764
 7834SOL    HW235562   4.642   4.979   0.252  2.9236  1.3389 -0.4100
 7835SOL     OW35563   4.673   1.202   7.621 -0.3943  0.3401  0.2685
 7835SOL    HW135564   4.764   1.166   7.599 -0.8882 -0.0270 -1.2044
 7835SOL    HW235565   4.664   1.295   7.585 -1.0918 -0.1402 -0.7978
 7836SOL     OW35566   0.536   1.638   5.310 -0.5717  0.0165  0.4259
 7836SOL    HW135567   0.451   1.609   5.268  1.1985 -1.2419 -2.4417
 7836SOL    HW235568   0.587   1.696   5.247  3.3363 -3.9860 -0.4154
 7837SOL     OW35569   3.848   5.481   0.467  0.6034 -0.3078  0.6480
 7837SOL    HW135570   3.898   5.405   0.509 -0.4186 -1.2779  0.1249
 7837SOL    HW235571   3.791   5.525   0.536  0.9446 -0.2292  0.8792
 7838SOL     OW35572   0.253   1.285   6.575 -0.6312 -0.3577  0.2361
 7838SOL    HW135573   0.259   1.302   6.477 -1.3838  0.7244  0.3730
 7838SOL    HW235574   0.342   1.301   6.618 -0.8812  1.5155  0.0884
 7839SOL     OW35575   2.462   0.753   8.779  0.7835  0.2296  0.3005
 7839SOL    HW135576   2.419   0.842   8.770  0.0220  0.0760  2.2605
 7839SOL    HW235577   2.427   0.706   8.859  2.3165 -1.2015  0.1774
 7840SOL     OW35578   1.626   4.204   8.608 -0.5101  0.3753 -0.3342
 7840SOL    HW135579   1.551   4.257   8.648  0.0784  0.6149  0.4645
 7840SOL    HW235580   1.670   4.150   8.679 -1.2201 -1.3594 -1.1747
 7841SOL     OW35581   2.307   9.346   0.077  0.6306  0.5226 -0.2591
 7841SOL    HW135582   2.220   9.375   0.038 -0.2313 -0.2961  1.0028
 7841SOL    HW235583   2.345   9.271   0.024 -1.1251 -1.3912  1.1315
 7842SOL     OW35584   2.717   1.294   9.053 -0.1993 -0.4363 -0.0739
 7842SOL    HW135585   2.676   1.276   8.963  0.3591  0.5591 -0.5407
 7842SOL    HW235586   2.720   1.210   9.106 -1.9716 -0.7073 -0.3962
 7843SOL     OW35587   5.378   2.548   3.044  0.9272 -0.0493 -0.5416
 7843SOL    HW135588   5.302   2.587   3.096  1.2493 -0.0673 -0.0615
 7843SOL    HW235589   5.381   2.591   2.953 -0.1632 -0.6390 -0.8623
 7844SOL     OW35590   4.223   9.763   2.014 -0.0451 -0.3293 -0.1791
 7844SOL    HW135591   4.204   9.772   2.111 -1.9560 -2.0935 -0.3404
 7844SOL    HW235592   4.310   9.714   2.001 -0.3762 -1.1405  0.6376
 7845SOL     OW35593   8.530   2.414   1.171  0.0628 -0.0128 -0.1090
 7845SOL    HW135594   8.597   2.388   1.240 -0.1954  0.1230  0.1941
 7845SOL    HW235595   8.506   2.510   1.183 -1.9637 -0.6600  1.2862
 7846SOL     OW35596   9.802   1.256   4.539 -0.1997 -0.1112 -0.2185
 7846SOL    HW135597   9.788   1.157   4.543  0.5357 -0.2769 -1.4823
 7846SOL    HW235598   9.870   1.277   4.469  1.5215  1.1077  1.7822
 7847SOL     OW35599   2.945   3.699   9.757 -0.2787 -0.5429  0.4808
 7847SOL    HW135600   3.027   3.740   9.799  0.6892 -0.1141 -1.7571
 7847SOL    HW235601   2.955   3.600   9.754  1.0217 -0.3715 -1.4892
 7848SOL     OW35602   6.230   4.999   3.271  0.2046 -0.1730  0.2653
 7848SOL    HW135603   6.138   4.960   3.267  0.2413 -0.0157 -2.7285
 7848SOL    HW235604   6.225   5.091   3.310 -0.6868 -0.7414  1.5392
 7849SOL     OW35605   1.122   1.600   8.666  0.4612 -0.2491 -0.5355
 7849SOL    HW135606   1.204   1.564   8.620  0.3599 -1.0390 -0.1047
 7849SOL    HW235607   1.109   1.552   8.752 -1.2496 -1.0765 -1.2454
 7850SOL     OW35608   3.446   4.779   3.558 -0.3762  0.5077  0.2499
 7850SOL    HW135609   3.398   4.866   3.568 -0.4462  0.3817  1.0081
 7850SOL    HW235610   3.390   4.705   3.596 -1.5333 -0.2776 -2.7810
 7851SOL     OW35611   1.262   7.178   1.569  0.1221 -0.6651 -0.3248
 7851SOL    HW135612   1.230   7.119   1.496 -1.0653  0.7603 -0.9913
 7851SOL    HW235613   1.209   7.263   1.568  0.2719 -0.5104  2.0107
 7852SOL     OW35614   4.194   1.806   1.859 -0.1402  0.4275 -0.1077
 7852SOL    HW135615   4.216   1.816   1.956 -0.8300  0.2160  0.0710
 7852SOL    HW235616   4.105   1.848   1.840 -0.5303 -0.5287 -0.4261
 7853SOL     OW35617   9.592   6.059   1.912  0.2355  0.6393 -0.3606
 7853SOL    HW135618   9.627   6.065   2.006 -0.2514  0.7877 -0.1894
 7853SOL    HW235619   9.542   6.143   1.889  0.6749  0.7635 -0.8846
 7854SOL     OW35620   3.025   7.789   4.907 -0.3988 -0.5506 -0.6512
 7854SOL    HW135621   2.945   7.819   4.856 -0.1217  2.2093  0.4426
 7854SOL    HW235622   3.104   7.845   4.882 -0.1229  0.4907  2.2783
 7855SOL     OW35623   3.035   2.405   5.158  0.1281 -0.5321  0.5878
 7855SOL    HW135624   2.994   2.324   5.201 -1.3000 -0.2233 -0.1358
 7855SOL    HW235625   2.972   2.482   5.168  0.9605  0.1928  0.2473
 7856SOL     OW35626   0.465   9.774   1.008 -0.1934 -0.2308 -0.2620
 7856SOL    HW135627   0.464   9.701   0.939  0.0971  0.5957 -1.1538
 7856SOL    HW235628   0.468   9.733   1.099 -3.9355 -1.4183 -0.5983
 7857SOL     OW35629   5.860   4.686   9.496 -0.4341  0.2994  0.5263
 7857SOL    HW135630   5.919   4.612   9.529 -0.1302  0.0314 -0.5751
 7857SOL    HW235631   5.820   4.734   9.573  1.4002  0.6182  1.3120
 7858SOL     OW35632   9.466   3.622   0.921 -0.2384  0.0414 -0.0314
 7858SOL    HW135633   9.444   3.532   0.958 -2.4812  0.7327  0.4081
 7858SOL    HW235634   9.522   3.612   0.839 -1.5348 -1.8097 -0.7124
 7859SOL     OW35635   5.675   5.013   2.716  0.3041 -0.2201 -0.1762
 7859SOL    HW135636   5.620   4.932   2.733 -0.4089  0.1238 -0.8233
 7859SOL    HW235637   5.630   5.093   2.756  1.6567 -0.3182  1.6389
 7860SOL     OW35638   2.913   3.949   6.399 -0.3278  0.2124 -0.0872
 7860SOL    HW135639   2.830   3.978   6.351 -2.2209 -2.2126  1.6033
 7860SOL    HW235640   2.947   4.024   6.456 -2.0711  0.8288  0.1661
 7861SOL     OW35641   1.359   2.376   1.587  0.0117 -0.1686 -0.5184
 7861SOL    HW135642   1.371   2.276   1.583 -1.3132 -0.3067 -1.2650
 7861SOL    HW235643   1.342   2.403   1.682  3.2473 -0.2953  0.1343
 7862SOL     OW35644   1.942   7.735   1.638 -0.3790  0.2264  0.0903
 7862SOL    HW135645   2.029   7.783   1.637 -0.5236  0.5062  0.5599
 7862SOL    HW235646   1.901   7.738   1.547  0.4178 -0.4903 -0.2924
 7863SOL     OW35647   1.592   6.861   1.720  0.7392 -0.5628 -0.0383
 7863SOL    HW135648   1.633   6.927   1.783  1.0873  0.1462 -0.9897
 7863SOL    HW235649   1.614   6.887   1.626 -0.7549 -0.9599 -0.5021
 7864SOL     OW35650   7.118   4.236   1.743 -0.1492  0.4229  0.3698
 7864SOL    HW135651   7.025   4.271   1.735 -0.2056  0.6191  1.7819
 7864SOL    HW235652   7.177   4.306   1.781  0.2845 -0.1775  0.8124
 7865SOL     OW35653   0.859   4.522   9.123  0.0988  0.0926  0.1147
 7865SOL    HW135654   0.904   4.561   9.042  1.0431  1.2240  1.1637
 7865SOL    HW235655   0.861   4.589   9.198 -2.0199 -0.4097  0.6496
 7866SOL     OW35656   9.321   1.594   1.538 -0.0304  0.2947  0.0088
 7866SOL    HW135657   9.230   1.577   1.574 -0.4367 -0.2778 -1.2701
 7866SOL    HW235658   9.316   1.655   1.460  0.6218 -0.2057 -0.4320
 7867SOL     OW35659   0.336   5.241   7.642  0.4734 -0.3835  0.8892
 7867SOL    HW135660   0.285   5.216   7.724  1.0577 -1.8771  0.8079
 7867SOL    HW235661   0.427   5.275   7.669 -0.1223  1.1886  0.9680
 7868SOL     OW35662   8.679   2.521   0.104 -0.5701  0.9279  0.2677
 7868SOL    HW135663   8.778   2.511   0.107 -0.7293 -0.9834 -0.2109
 7868SOL    HW235664   8.655   2.602   0.051  0.6795 -0.3243 -2.2723
 7869SOL     OW35665   1.807   3.485   8.165  0.5896 -0.4759  0.2370
 7869SOL    HW135666   1.844   3.577   8.149 -1.0413 -0.3474 -3.2640
 7869SOL    HW235667   1.854   3.420   8.106  0.9128 -1.7160  1.8399
 7870SOL     OW35668   9.878   2.950   1.601  0.3824  0.3620  0.0584
 7870SOL    HW135669   9.786   2.910   1.599  0.3125  0.5880 -2.5103
 7870SOL    HW235670   9.879   3.028   1.664 -0.3659 -1.5134  2.4551
 7871SOL     OW35671   2.950   1.664   1.893  0.4072  0.8134  0.6336
 7871SOL    HW135672   2.898   1.625   1.968  0.5977 -0.7926 -0.0418
 7871SOL    HW235673   3.032   1.609   1.877  1.4824  2.3728  0.6287
 7872SOL     OW35674   1.003   2.884   5.403 -0.4704 -0.3033 -0.1110
 7872SOL    HW135675   1.057   2.800   5.400  0.0747 -0.0414  1.6147
 7872SOL    HW235676   1.065   2.963   5.411 -1.0068  0.1954 -0.8752
 7873SOL     OW35677   5.932   3.606   1.744  0.1681 -0.8440 -0.1527
 7873SOL    HW135678   5.926   3.540   1.819 -0.0253 -0.1153  0.4792
 7873SOL    HW235679   6.027   3.637   1.735 -0.2463  0.9233  1.4116
 7874SOL     OW35680   3.623   8.531   0.937 -0.6043 -0.2441 -0.2532
 7874SOL    HW135681   3.561   8.601   0.903  0.2060 -0.0561 -1.3582
 7874SOL    HW235682   3.630   8.457   0.871  0.7086 -0.0355 -0.3713
 7875SOL     OW35683   4.322   1.480   4.834  0.7382  0.3868  0.0565
 7875SOL    HW135684   4.337   1.532   4.918  0.7141 -0.7981  0.7967
 7875SOL    HW235685   4.261   1.531   4.773  0.0604  0.8506  1.1221
 7876SOL     OW35686   1.900   8.823   1.733  0.1425 -0.1990  0.0471
 7876SOL    HW135687   1.880   8.891   1.662 -1.4807 -2.3963 -1.6768
 7876SOL    HW235688   1.832   8.750   1.729  1.0821 -1.2700  2.7332
 7877SOL     OW35689   2.944   9.909   0.018  0.1190  0.2899 -0.2331
 7877SOL    HW135690   3.004   9.907  -0.061  1.9005 -0.2579  1.1011
 7877SOL    HW235691   2.938  10.002   0.054 -0.4702  0.4874 -0.8337
 7878SOL     OW35692   2.949   3.669   0.358 -0.2688 -0.1710 -0.1476
 7878SOL    HW135693   3.002   3.584   0.351 -0.4125 -0.2493 -0.3030
 7878SOL    HW235694   2.881   3.659   0.430  1.6072  0.8529  1.8270
 7879SOL     OW35695   9.956   3.136   4.024 -0.0265 -0.0203  0.1763
 7879SOL    HW135696  10.022   3.066   3.997  1.1770  1.7183 -1.5167
 7879SOL    HW235697   9.946   3.203   3.950 -2.2924  0.7630  1.1589
 7880SOL     OW35698   2.916   1.568   3.608  0.2817 -0.4356  0.3070
 7880SOL    HW135699   2.946   1.554   3.702 -0.1993 -0.9403  0.3911
 7880SOL    HW235700   2.834   1.513   3.591  0.6162 -0.6888 -0.5305
 7881SOL     OW35701   4.360   7.176   8.197  0.2682  0.5309  0.4663
 7881SOL    HW135702   4.293   7.106   8.219 -0.0556  0.9538  0.8473
 7881SOL    HW235703   4.448   7.133   8.174 -0.4670 -0.0763 -1.2448
 7882SOL     OW35704   7.682   3.903   7.957 -0.0328 -0.0391 -0.2496
 7882SOL    HW135705   7.759   3.915   7.894 -0.1255  0.9299 -0.1901
 7882SOL    HW235706   7.613   3.974   7.939 -1.3649 -1.4810 -0.9438
 7883SOL     OW35707   9.562   1.953   8.594  0.0297  0.2592 -0.7189
 7883SOL    HW135708   9.617   1.928   8.514  1.7155  1.8782 -0.1155
 7883SOL    HW235709   9.609   1.924   8.677 -0.4351  0.9152 -0.2234
 7884SOL     OW35710   2.197   8.922   6.935  0.1262 -0.1909 -0.6007
 7884SOL    HW135711   2.104   8.890   6.917 -0.3406  0.6996  0.1690
 7884SOL    HW235712   2.263   8.852   6.907 -0.6806 -0.0416 -2.9767
 7885SOL     OW35713   3.035   7.852   8.083 -0.0861 -0.4540 -0.2181
 7885SOL    HW135714   3.084   7.904   8.153  2.3648 -1.9331 -0.7760
 7885SOL    HW235715   2.939   7.880   8.081  0.4051  1.4660  1.9192
 7886SOL     OW35716   6.473   2.992   7.253 -0.2857 -0.2606 -0.5442
 7886SOL    HW135717   6.543   2.928   7.220 -0.4961 -0.6120 -0.3076
 7886SOL    HW235718   6.502   3.030   7.341 -0.3178 -0.2825 -0.5242
 7887SOL     OW35719   5.146   8.635   4.797  0.2721 -0.5560  0.3055
 7887SOL    HW135720   5.049   8.653   4.815  0.1027  1.9233 -2.6823
 7887SOL    HW235721   5.202   8.693   4.855 -0.1012  0.3074 -0.1876
 7888SOL     OW35722   9.382   6.349   1.203 -0.5086  0.0071 -0.2937
 7888SOL    HW135723   9.372   6.448   1.189  2.5068  0.2054 -1.4722
 7888SOL    HW235724   9.367   6.302   1.116  0.3235 -0.3573 -0.2429
 7889SOL     OW35725   1.681   2.962   9.211  0.3545  0.1827  0.0680
 7889SOL    HW135726   1.713   2.896   9.279  2.2931  0.3312 -0.6548
 7889SOL    HW235727   1.720   3.052   9.232 -2.0608  1.0878  0.8997
 7890SOL     OW35728   8.544   2.863   5.630 -0.4292 -0.1532 -0.2228
 7890SOL    HW135729   8.456   2.903   5.654 -1.5539 -1.2766 -2.3265
 7890SOL    HW235730   8.609   2.935   5.606 -0.8330  0.6577  1.0452
 7891SOL     OW35731   5.019   6.015   6.149  0.0486  0.4429  0.1008
 7891SOL    HW135732   4.960   6.068   6.210 -0.9765 -1.0884  0.4517
 7891SOL    HW235733   5.043   5.928   6.192  1.5957  0.5322 -0.5353
 7892SOL     OW35734   7.579   4.197   9.992  0.6452  1.0051  0.2714
 7892SOL    HW135735   7.564   4.166  10.086 -0.5883 -1.6863 -0.7520
 7892SOL    HW235736   7.652   4.265   9.991  2.8791 -1.2202  2.7888
 7893SOL     OW35737   8.398   7.853   4.483 -0.2474  0.3840  0.2337
 7893SOL    HW135738   8.312   7.811   4.454  0.3670 -2.0700  1.7677
 7893SOL    HW235739   8.469   7.833   4.415 -0.0963 -0.6226  0.6718
 7894SOL     OW35740   2.723   5.755   0.509 -0.3308  0.1039 -0.0962
 7894SOL    HW135741   2.644   5.762   0.570 -0.7223  0.9598 -0.6908
 7894SOL    HW235742   2.736   5.659   0.482 -1.1661 -0.0435  0.0082
 7895SOL     OW35743   2.683   3.188   9.190  0.5398  0.0155 -0.0232
 7895SOL    HW135744   2.691   3.176   9.288 -1.1372 -0.9736 -0.0041
 7895SOL    HW235745   2.739   3.120   9.143 -1.3649 -1.7591  0.2185
 7896SOL     OW35746   3.391   0.265   9.638 -0.2229 -0.6625  0.1069
 7896SOL    HW135747   3.478   0.263   9.588  0.6465 -0.6859  1.5854
 7896SOL    HW235748   3.326   0.324   9.589 -0.0575 -2.2431 -2.0647
 7897SOL     OW35749   2.543   3.167   0.965 -0.2400 -0.3854  0.4473
 7897SOL    HW135750   2.604   3.245   0.955 -0.4636 -0.1258  1.0838
 7897SOL    HW235751   2.450   3.198   0.981 -0.7623 -0.7764 -1.6466
 7898SOL     OW35752   8.535   6.509   3.470 -0.0937  0.7592 -0.2524
 7898SOL    HW135753   8.464   6.535   3.535 -0.5481 -4.5916  1.5912
 7898SOL    HW235754   8.497   6.505   3.378 -2.6586 -3.1118  0.8466
 7899SOL     OW35755   0.698   6.007   5.790 -0.2419  0.2600  0.3652
 7899SOL    HW135756   0.709   6.101   5.759  0.7669  0.5957  1.6904
 7899SOL    HW235757   0.709   5.945   5.713 -0.1855  1.1868 -0.3837
 7900SOL     OW35758   2.674   5.272   6.877  0.3265 -0.6336 -0.1331
 7900SOL    HW135759   2.761   5.245   6.917  1.4186  1.4418 -1.0295
 7900SOL    HW235760   2.621   5.190   6.853  2.7368 -1.9376 -1.1432
 7901SOL     OW35761   0.579   7.333   8.847  0.2234  0.1693 -0.0170
 7901SOL    HW135762   0.647   7.386   8.898  0.2470  0.0590  0.0668
 7901SOL    HW235763   0.579   7.239   8.880  0.8189 -0.1006 -0.7824
 7902SOL     OW35764   1.301   5.518   5.833 -0.3421 -0.4270  0.1601
 7902SOL    HW135765   1.340   5.610   5.840 -2.6196  0.6623 -0.8028
 7902SOL    HW235766   1.367   5.456   5.790  0.7405  1.0527 -0.3473
 7903SOL     OW35767   0.298   5.566   6.447 -0.3006  0.2858  0.1074
 7903SOL    HW135768   0.217   5.615   6.414 -1.1429 -1.1933 -0.0753
 7903SOL    HW235769   0.288   5.546   6.544 -0.9590 -1.3956 -0.2818
 7904SOL     OW35770   6.407   5.056   1.875  0.3531 -0.4306  0.2416
 7904SOL    HW135771   6.397   5.029   1.971 -0.5138 -1.6646 -0.1794
 7904SOL    HW235772   6.333   5.015   1.821  1.0323 -0.0322 -1.0147
 7905SOL     OW35773   6.362   1.577   9.946 -0.0086 -0.3564  0.6263
 7905SOL    HW135774   6.430   1.519   9.991  0.3396 -0.6896 -0.3368
 7905SOL    HW235775   6.311   1.523   9.879 -2.0862 -0.4398  2.1913
 7906SOL     OW35776   5.260   4.216   0.279 -0.2920 -0.2716  0.9420
 7906SOL    HW135777   5.290   4.281   0.209 -1.3550 -0.5159  0.2399
 7906SOL    HW235778   5.325   4.141   0.284  0.3640  0.2957  0.9804
 7907SOL     OW35779   7.270   9.082   5.328 -0.2579  0.0582 -0.1486
 7907SOL    HW135780   7.347   9.123   5.278 -0.3651 -1.2216 -1.4053
 7907SOL    HW235781   7.241   9.144   5.401  2.0809  0.4850  0.4785
 7908SOL     OW35782   9.360   1.186   0.552 -0.4472 -0.4620 -0.2620
 7908SOL    HW135783   9.327   1.270   0.596  1.2357 -0.4745  1.0894
 7908SOL    HW235784   9.341   1.189   0.454 -0.8075  1.3020 -0.1422
 7909SOL     OW35785   6.001   6.536   7.192 -0.1820 -0.0079 -0.4424
 7909SOL    HW135786   6.034   6.442   7.194 -1.6173 -0.5266 -0.6888
 7909SOL    HW235787   5.913   6.540   7.144 -0.3744  1.3769 -0.0061
 7910SOL     OW35788   5.768   3.858   9.725 -0.1041  0.3389 -0.2856
 7910SOL    HW135789   5.669   3.850   9.728 -0.3810  3.2110  0.0237
 7910SOL    HW235790   5.797   3.935   9.782  2.1904  0.3566 -1.4078
 7911SOL     OW35791   5.282   5.363   6.751 -0.4521 -0.2880  0.4928
 7911SOL    HW135792   5.264   5.359   6.849 -1.3032 -1.9938  0.2855
 7911SOL    HW235793   5.196   5.349   6.701  0.2931 -1.3588 -0.5015
 7912SOL     OW35794   0.239   4.345   1.456 -0.2908 -0.1892  0.1100
 7912SOL    HW135795   0.280   4.255   1.471  0.8683  0.2523 -0.3244
 7912SOL    HW235796   0.142   4.334   1.435 -0.1791 -1.3294  0.1283
 7913SOL     OW35797   0.715   9.801   0.095 -0.3950 -0.5508  0.2130
 7913SOL    HW135798   0.681   9.837   0.182 -0.3770  0.5054 -0.2107
 7913SOL    HW235799   0.807   9.837   0.077 -0.9517  0.3556 -0.8988
 7914SOL     OW35800   3.018   8.112   8.397  0.2039  0.6336 -0.2297
 7914SOL    HW135801   3.058   8.046   8.461 -0.7213  0.1819 -0.1068
 7914SOL    HW235802   3.057   8.098   8.306 -0.3110 -0.3909 -0.3022
 7915SOL     OW35803   3.598   1.353   8.198 -0.6502  0.0304 -0.0927
 7915SOL    HW135804   3.504   1.368   8.229 -0.7198  1.5087 -0.9720
 7915SOL    HW235805   3.655   1.327   8.276 -1.8687 -1.3310  0.3729
 7916SOL     OW35806   3.663   2.750   3.843  0.0563  0.2683  0.3288
 7916SOL    HW135807   3.739   2.809   3.872 -0.9592  0.3707  2.9584
 7916SOL    HW235808   3.611   2.796   3.771  1.9939  0.5359 -0.9404
 7917SOL     OW35809   0.970   4.591   0.752  0.0313  0.0486 -0.4635
 7917SOL    HW135810   0.914   4.508   0.745 -1.0919  0.7040  0.5820
 7917SOL    HW235811   1.004   4.600   0.846 -1.4792  1.7977 -0.0581
 7918SOL     OW35812   5.599   1.763   8.717 -0.2912  0.5688  0.3764
 7918SOL    HW135813   5.505   1.728   8.706  0.1158 -0.1672 -0.9420
 7918SOL    HW235814   5.621   1.823   8.640  1.0800 -1.0573 -0.5422
 7919SOL     OW35815   6.775   0.535   3.096 -0.1433  0.4461 -0.3927
 7919SOL    HW135816   6.758   0.496   3.186  1.5712  1.4447  0.4014
 7919SOL    HW235817   6.689   0.566   3.056 -0.8516  0.4985  1.1457
 7920SOL     OW35818   6.029   6.752   1.093 -0.2588 -0.0081  0.2596
 7920SOL    HW135819   6.108   6.707   1.050  0.4367  0.9645  0.5071
 7920SOL    HW235820   5.971   6.791   1.023 -2.0017 -3.0832 -0.1046
 7921SOL     OW35821   0.492   3.296   4.550 -0.0539 -0.0149  0.4521
 7921SOL    HW135822   0.463   3.380   4.505 -0.1869 -0.2170  0.1635
 7921SOL    HW235823   0.425   3.271   4.620  0.2111  0.3611  0.8458
 7922SOL     OW35824   6.999   1.408   9.282  0.3254 -0.0617 -0.0365
 7922SOL    HW135825   6.913   1.364   9.255  0.8179 -0.1825 -1.4208
 7922SOL    HW235826   7.015   1.488   9.224  0.8686  0.2848  0.5877
 7923SOL     OW35827   3.035   5.027   0.827 -0.2029  0.1719  0.5194
 7923SOL    HW135828   3.085   4.940   0.823  0.2818  0.4874 -0.6556
 7923SOL    HW235829   2.962   5.026   0.758  0.9014  1.3436 -0.7100
 7924SOL     OW35830   2.873   4.402   5.492 -0.0135 -0.1875 -0.2241
 7924SOL    HW135831   2.876   4.489   5.444 -3.7862  0.0824 -0.1278
 7924SOL    HW235832   2.918   4.411   5.581  1.1912  1.1165 -0.9387
 7925SOL     OW35833   4.581   3.990   0.319 -0.1174 -0.0693 -0.4204
 7925SOL    HW135834   4.574   3.946   0.229 -2.6951  1.4275 -0.9949
 7925SOL    HW235835   4.589   4.089   0.307 -0.5534  0.1394  0.9992
 7926SOL     OW35836   9.436   4.052   2.631  0.1022  0.2803 -0.2324
 7926SOL    HW135837   9.515   4.111   2.613  1.0579 -0.4078  1.6384
 7926SOL    HW235838   9.457   3.990   2.706 -2.1526 -0.0517  0.1511
 7927SOL     OW35839   1.505   7.773   7.187 -0.3450 -0.3481 -0.7342
 7927SOL    HW135840   1.545   7.692   7.144 -1.0147 -0.5512 -0.9925
 7927SOL    HW235841   1.427   7.745   7.243 -0.0458  0.0248 -0.1361
 7928SOL     OW35842   3.934   5.876   2.205  0.0294  0.1303 -0.2576
 7928SOL    HW135843   3.931   5.873   2.105 -1.6686 -1.2693 -0.1874
 7928SOL    HW235844   4.020   5.837   2.237  1.1862  1.8559 -1.2016
 7929SOL     OW35845   3.756   5.735   3.825 -0.1680 -0.4555 -0.3529
 7929SOL    HW135846   3.676   5.713   3.768  0.0962 -1.5701 -0.3166
 7929SOL    HW235847   3.798   5.820   3.793 -0.6161 -0.5463 -1.1935
 7930SOL     OW35848   1.459   8.789   1.686 -0.1149 -0.0071  0.5832
 7930SOL    HW135849   1.504   8.866   1.731 -0.0762 -1.0886  2.4456
 7930SOL    HW235850   1.370   8.819   1.652  0.2293  1.0563  0.5789
 7931SOL     OW35851   1.321   2.860   1.781  0.2818  0.3156 -0.0815
 7931SOL    HW135852   1.250   2.801   1.820  2.1192 -0.4468  2.1482
 7931SOL    HW235853   1.314   2.951   1.821 -0.3226  0.6606 -0.9410
 7932SOL     OW35854   3.974   5.627   4.161  0.3237 -0.5712  0.2000
 7932SOL    HW135855   3.954   5.664   4.252 -0.8837 -1.2025  0.2092
 7932SOL    HW235856   4.065   5.587   4.160  0.4978 -0.2011  1.0242
 7933SOL     OW35857   1.736   7.066   6.408 -0.4874 -0.2817  0.1362
 7933SOL    HW135858   1.768   7.053   6.502 -1.2736  2.9913  0.9138
 7933SOL    HW235859   1.646   7.024   6.397 -0.5403 -0.3823  0.9297
 7934SOL     OW35860   0.504   4.073   1.864 -0.0948 -0.0315  0.2996
 7934SOL    HW135861   0.503   4.155   1.807  3.0601 -0.3150 -0.2663
 7934SOL    HW235862   0.577   4.012   1.834  0.3434 -1.1319  3.3634
 7935SOL     OW35863   8.671   0.783   1.166  0.4171 -0.0156  0.2946
 7935SOL    HW135864   8.674   0.877   1.131 -0.4007  0.0625  0.4345
 7935SOL    HW235865   8.576   0.753   1.174  0.7273 -1.5003 -1.4349
 7936SOL     OW35866   5.496   4.379   8.897 -0.0032  0.1751  0.0437
 7936SOL    HW135867   5.495   4.453   8.964  1.2898  0.7956 -0.5955
 7936SOL    HW235868   5.410   4.379   8.847 -0.8375 -0.0666  1.4432
 7937SOL     OW35869   3.453   5.342   6.991 -0.3305  0.1696 -0.2757
 7937SOL    HW135870   3.480   5.281   6.917  1.3874 -0.2631  0.6857
 7937SOL    HW235871   3.509   5.425   6.988 -0.0429  0.0257  0.6859
 7938SOL     OW35872   2.257   7.797   1.489  0.8705 -0.6185  0.0170
 7938SOL    HW135873   2.301   7.739   1.420  0.4071  0.2667 -1.0423
 7938SOL    HW235874   2.226   7.882   1.446 -2.5144 -1.4927  0.5604
 7939SOL     OW35875   7.698   6.025   4.070 -0.3017 -0.0240 -0.6569
 7939SOL    HW135876   7.638   6.087   4.121 -0.0111  0.1197 -0.4885
 7939SOL    HW235877   7.762   6.078   4.015 -0.5725 -0.1805 -1.1192
 7940SOL     OW35878   4.092   3.289   7.179 -0.0544  1.0129 -0.4113
 7940SOL    HW135879   4.063   3.195   7.200  1.3259  0.7979  0.5442
 7940SOL    HW235880   4.167   3.315   7.239  1.4352  1.7351 -2.5578
 7941SOL     OW35881   2.804   1.801   8.987  0.3170 -0.2211 -0.0123
 7941SOL    HW135882   2.715   1.846   8.976  0.3493 -0.2928 -0.5870
 7941SOL    HW235883   2.843   1.825   9.076 -0.2390 -0.1197  0.2047
 7942SOL     OW35884   4.989   4.857   3.038 -0.5311 -0.0878  0.8917
 7942SOL    HW135885   5.043   4.934   3.003  0.3030 -1.2704 -0.5023
 7942SOL    HW235886   4.919   4.891   3.101 -0.4890  1.8510 -0.0737
 7943SOL     OW35887   4.993   4.287   8.874 -0.3443 -0.0524  0.0019
 7943SOL    HW135888   4.971   4.240   8.959  0.8160 -0.0144  0.3190
 7943SOL    HW235889   5.024   4.380   8.894  1.9132 -0.7132 -0.3153
 7944SOL     OW35890   0.553   3.614   0.929 -0.0809 -0.2149 -0.0500
 7944SOL    HW135891   0.463   3.579   0.955 -1.0385  2.3993  0.3029
 7944SOL    HW235892   0.557   3.625   0.830 -0.5366  0.5875  0.0107
 7945SOL     OW35893   4.835   1.623   1.738 -0.7163  0.1282 -0.5597
 7945SOL    HW135894   4.806   1.580   1.824  0.4209  2.6709  1.1717
 7945SOL    HW235895   4.927   1.592   1.715 -0.1203  1.1298  0.3876
 7946SOL     OW35896   3.894   3.653   9.725  0.0881  0.0780 -0.1916
 7946SOL    HW135897   3.912   3.610   9.813  1.6099  0.7992 -0.1315
 7946SOL    HW235898   3.955   3.614   9.655  0.0891  0.7178 -0.5508
 7947SOL     OW35899   7.229   6.665   0.111  0.0467  0.7461 -0.2247
 7947SOL    HW135900   7.209   6.724   0.034 -2.1368  0.7748  0.3379
 7947SOL    HW235901   7.319   6.622   0.098 -0.6796  0.0010 -3.2376
 7948SOL     OW35902   3.743   9.419   5.020  0.1936 -0.1696 -0.3503
 7948SOL    HW135903   3.813   9.462   4.963 -0.6760 -0.3007 -1.5467
 7948SOL    HW235904   3.740   9.321   5.001  1.6312 -0.6714  1.7933
 7949SOL     OW35905   4.698   0.314   2.383 -0.5529  0.7742 -0.2355
 7949SOL    HW135906   4.796   0.325   2.401 -0.2851 -0.3001 -1.0182
 7949SOL    HW235907   4.667   0.227   2.421 -0.9119  0.4967 -1.1632
 7950SOL     OW35908   5.888   1.990   3.266  0.2329 -0.3828  0.1148
 7950SOL    HW135909   5.883   2.043   3.351 -1.0297 -0.4926  0.1230
 7950SOL    HW235910   5.861   2.047   3.189  2.0714 -0.0815 -0.3179
 7951SOL     OW35911   5.088   4.763   3.466 -0.3355  0.5913  0.0683
 7951SOL    HW135912   5.005   4.738   3.416 -2.0724  2.0025  2.1759
 7951SOL    HW235913   5.097   4.704   3.546  0.5587  0.6290 -0.0030
 7952SOL     OW35914   4.701   5.642   2.137 -0.0757  0.1416 -0.4261
 7952SOL    HW135915   4.680   5.722   2.192  0.6433 -1.7282  2.6737
 7952SOL    HW235916   4.620   5.615   2.085 -0.3234  2.8189 -1.4865
 7953SOL     OW35917   8.635   0.861   9.633 -0.2176  0.0898  0.0647
 7953SOL    HW135918   8.547   0.905   9.619 -1.1896 -1.6910  0.4177
 7953SOL    HW235919   8.621   0.768   9.669  1.7773 -0.4370 -0.4426
 7954SOL     OW35920   7.901   3.429   4.250 -0.2565  0.1411 -0.7984
 7954SOL    HW135921   7.998   3.407   4.247 -0.2810  0.0694 -1.1544
 7954SOL    HW235922   7.884   3.500   4.318 -0.0650 -0.4022 -0.1744
 7955SOL     OW35923   2.444   2.296   0.906 -1.2047  0.2651  0.1867
 7955SOL    HW135924   2.352   2.318   0.872 -0.8974 -0.5293 -1.2060
 7955SOL    HW235925   2.446   2.201   0.938 -0.7052  0.0664 -0.4167
 7956SOL     OW35926   7.092   4.896   8.407 -0.1658  0.0419  0.6319
 7956SOL    HW135927   7.069   4.992   8.422  2.0338  0.1671  3.4310
 7956SOL    HW235928   7.165   4.889   8.339 -1.0517  0.2632 -0.3533
 7957SOL     OW35929   3.664   6.039   1.148 -0.4202 -0.2462 -0.3089
 7957SOL    HW135930   3.588   6.069   1.091  0.7279  0.4980 -1.4775
 7957SOL    HW235931   3.698   5.951   1.115  0.1532  0.1161 -0.6951
 7958SOL     OW35932   2.465   7.518   3.764 -0.1679 -0.3299  0.3937
 7958SOL    HW135933   2.366   7.524   3.750 -0.7440  0.1546  4.1104
 7958SOL    HW235934   2.500   7.437   3.717 -2.3075 -0.4491 -1.0569
 7959SOL     OW35935   0.315   3.844   2.394  0.4672  0.0190 -0.0982
 7959SOL    HW135936   0.414   3.839   2.408  0.3723  0.4307  0.7662
 7959SOL    HW235937   0.275   3.902   2.464 -0.2814  0.5916 -0.9872
 7960SOL     OW35938   9.962   1.789   9.066 -0.0823  0.3687 -0.0428
 7960SOL    HW135939   9.923   1.782   8.974  0.4016  0.3377 -0.2463
 7960SOL    HW235940   9.895   1.758   9.133 -0.3169  0.0726 -0.4144
 7961SOL     OW35941   6.407   3.131   2.671  0.3000  0.2703  0.2877
 7961SOL    HW135942   6.429   3.050   2.617 -2.4760  0.6021 -1.4319
 7961SOL    HW235943   6.376   3.103   2.762 -0.1899 -0.5846 -0.1336
 7962SOL     OW35944   0.784   5.804   5.631 -0.5879 -0.1262 -0.5196
 7962SOL    HW135945   0.760   5.728   5.571  2.0780 -0.0522 -1.7374
 7962SOL    HW235946   0.836   5.769   5.709  0.8159  0.4562 -1.1872
 7963SOL     OW35947   7.911   1.113   2.283  0.5179  0.2340  0.1198
 7963SOL    HW135948   7.826   1.111   2.336  0.9372 -0.0935  0.7836
 7963SOL    HW235949   7.950   1.021   2.280  0.2994  0.1735 -1.0838
 7964SOL     OW35950   4.676   5.644   4.613  0.3680  0.2518  0.0498
 7964SOL    HW135951   4.677   5.648   4.513  0.8836  0.7922  0.0748
 7964SOL    HW235952   4.582   5.643   4.645  0.1911  1.3657 -0.4005
 7965SOL     OW35953   7.035   0.490   0.577  0.0834  0.6955 -0.1905
 7965SOL    HW135954   6.962   0.422   0.587  0.2343  0.7426  1.4021
 7965SOL    HW235955   7.099   0.460   0.507 -1.7167  0.8928 -1.9723
 7966SOL     OW35956   1.773   2.441   7.602  0.3653 -0.0356  0.3765
 7966SOL    HW135957   1.680   2.438   7.565  0.1177  0.0928  0.9788
 7966SOL    HW235958   1.798   2.536   7.623  0.1029 -0.2184  1.5332
 7967SOL     OW35959   3.306   6.487   2.122  0.4156  0.1969 -0.0640
 7967SOL    HW135960   3.322   6.406   2.066 -0.0107 -2.0461  2.9308
 7967SOL    HW235961   3.233   6.468   2.188 -0.2057  3.2915  0.2019
 7968SOL     OW35962   5.362   3.063   9.501  0.4472  0.2428  0.7935
 7968SOL    HW135963   5.430   3.073   9.429  0.2896 -0.4514  0.5529
 7968SOL    HW235964   5.408   3.060   9.590  0.7860 -1.1175  0.5715
 7969SOL     OW35965   2.643   3.785   1.682 -0.4970 -0.1966  0.4535
 7969SOL    HW135966   2.660   3.865   1.740 -1.6613  0.6579 -0.3454
 7969SOL    HW235967   2.729   3.747   1.651  0.0728  0.7557  0.8426
 7970SOL     OW35968   5.594   4.219   4.704 -0.4409  0.2070  0.2967
 7970SOL    HW135969   5.531   4.216   4.782 -0.7225 -0.0547  0.0566
 7970SOL    HW235970   5.543   4.229   4.619 -0.1517  0.1627  0.1168
 7971SOL     OW35971   1.248   3.944   9.850  0.2147 -0.1338  0.2526
 7971SOL    HW135972   1.186   3.889   9.794  1.3054 -2.2688  1.0897
 7971SOL    HW235973   1.324   3.976   9.794  0.1923 -0.4668  0.0292
 7972SOL     OW35974   3.512   6.070   4.717 -0.0258  0.3304  0.5522
 7972SOL    HW135975   3.533   6.122   4.800 -0.4015 -1.9509  2.1120
 7972SOL    HW235976   3.415   6.049   4.715  0.1606 -0.4710  0.0101
 7973SOL     OW35977   8.828   5.424   6.007 -0.0763 -0.3065 -0.6498
 7973SOL    HW135978   8.855   5.442   5.912  0.6551  0.2103 -0.3582
 7973SOL    HW235979   8.910   5.405   6.061 -0.3013  1.0462  0.2120
 7974SOL     OW35980   1.331   6.697   3.701  0.5414  0.1719  0.1965
 7974SOL    HW135981   1.369   6.620   3.751 -0.4380  0.1558  0.9416
 7974SOL    HW235982   1.274   6.664   3.626 -0.6799  0.1460  1.1232
 7975SOL     OW35983   8.210   2.669   3.144 -0.5574 -0.4754 -0.3981
 7975SOL    HW135984   8.197   2.583   3.194  1.2006 -0.0664  0.7960
 7975SOL    HW235985   8.141   2.735   3.173  0.3178 -0.3068  1.3642
 7976SOL     OW35986   3.468   9.790   2.889 -0.2097 -0.2273  0.3172
 7976SOL    HW135987   3.391   9.761   2.833  1.2853 -0.9248 -1.3923
 7976SOL    HW235988   3.528   9.713   2.906 -0.2926  0.1232  2.3677
 7977SOL     OW35989   6.960   3.557   2.281  0.2633  0.2273 -0.8897
 7977SOL    HW135990   7.046   3.570   2.232  0.0565 -1.2323 -1.6895
 7977SOL    HW235991   6.923   3.467   2.258 -0.6223  0.1504  0.7621
 7978SOL     OW35992   0.232   0.088   0.770  0.6358 -0.4288 -0.3320
 7978SOL    HW135993   0.170   0.051   0.701  0.1234 -3.0346  1.4219
 7978SOL    HW235994   0.327   0.080   0.738  0.4612 -2.4695 -0.3965
 7979SOL     OW35995   1.198   4.714   2.979  0.1831  0.4793  0.2134
 7979SOL    HW135996   1.286   4.691   2.937  0.0929 -0.3058  0.4620
 7979SOL    HW235997   1.167   4.802   2.942  0.7430  0.4379 -0.3794
 7980SOL     OW35998   5.393   4.217   4.898 -0.0830  0.2847 -1.0194
 7980SOL    HW135999   5.317   4.265   4.853 -1.3897  0.6918  1.5227
 7980SOL    HW236000   5.356   4.146   4.958  1.5086  0.8753  0.6998
 7981SOL     OW36001   3.923   5.898   3.640  0.2322  0.3470  0.0301
 7981SOL    HW136002   3.939   5.809   3.597 -1.4717  0.5053 -0.9512
 7981SOL    HW236003   4.006   5.927   3.688  0.7480 -1.8601  0.5216
 7982SOL     OW36004   3.294   1.880   7.321 -0.5131 -0.1007 -0.5645
 7982SOL    HW136005   3.314   1.895   7.418 -2.0780  0.6387 -0.3432
 7982SOL    HW236006   3.287   1.781   7.303  0.5779 -0.2643 -0.0968
 7983SOL     OW36007   1.938   4.046   8.391  0.7784  0.4411  0.2314
 7983SOL    HW136008   1.893   3.957   8.392  0.2811  0.6696 -0.9619
 7983SOL    HW236009   1.983   4.061   8.479  3.3735 -2.2575 -0.5580
 7984SOL     OW36010   0.803   9.016   4.417  0.2388 -0.1501  0.6070
 7984SOL    HW136011   0.892   9.059   4.403  0.7312 -1.3278 -0.0163
 7984SOL    HW236012   0.809   8.951   4.493 -0.4358  0.7089  1.3982
 7985SOL     OW36013   6.438   9.059   7.794  0.0293 -0.0056 -0.3211
 7985SOL    HW136014   6.413   8.962   7.795  1.2550 -0.3205  0.2286
 7985SOL    HW236015   6.537   9.068   7.780 -0.0426  1.1616 -0.1338
 7986SOL     OW36016   5.094   4.328   7.103  0.2466  0.1557 -0.4883
 7986SOL    HW136017   5.045   4.324   7.016  1.7094  0.8871 -1.3613
 7986SOL    HW236018   5.164   4.399   7.098  1.6192 -1.1060  0.6379
 7987SOL     OW36019   2.406   2.287   6.436 -0.0228  0.4904 -0.0951
 7987SOL    HW136020   2.314   2.283   6.474  0.2236  1.5875  0.6114
 7987SOL    HW236021   2.408   2.353   6.361  0.1120  0.2268 -0.3243
 7988SOL     OW36022   1.966   2.468   4.149 -0.3189 -0.2415 -0.0933
 7988SOL    HW136023   1.974   2.540   4.079 -1.2784 -0.9529 -0.9610
 7988SOL    HW236024   1.975   2.509   4.240  1.1225  0.6764 -0.6356
 7989SOL     OW36025   3.910   6.948   8.820  0.2131  0.3520  0.0677
 7989SOL    HW136026   3.810   6.956   8.821  0.1728  0.0364 -0.7718
 7989SOL    HW236027   3.941   6.942   8.725  0.9624 -0.3809  0.3570
 7990SOL     OW36028   8.012   0.018   2.796  0.2518 -0.1773  0.1149
 7990SOL    HW136029   7.936   0.074   2.830  0.9980  1.3837 -0.7285
 7990SOL    HW236030   8.090   0.077   2.778  1.5368 -1.7177  0.5681
 7991SOL     OW36031   6.763   9.938   7.133  0.8719  0.7147  0.6489
 7991SOL    HW136032   6.844   9.896   7.093  2.1829  1.3207  2.6153
 7991SOL    HW236033   6.724   9.877   7.202 -0.3701  0.4285 -0.2795
 7992SOL     OW36034   4.370   9.657   6.028 -0.2263 -0.0905  0.4124
 7992SOL    HW136035   4.399   9.599   6.105  1.4480 -0.3740 -0.4176
 7992SOL    HW236036   4.312   9.604   5.966  0.3141 -0.5312  0.2825
 7993SOL     OW36037   5.662   5.438   3.418 -0.1934 -0.1187 -0.3877
 7993SOL    HW136038   5.567   5.411   3.436 -0.0376  0.1504  0.8729
 7993SOL    HW236039   5.664   5.507   3.346 -0.9308 -0.3751 -0.6563
 7994SOL     OW36040   4.514   1.553   2.647 -0.0740 -0.2922  0.5708
 7994SOL    HW136041   4.448   1.575   2.575 -0.0859  0.8286  0.9195
 7994SOL    HW236042   4.573   1.631   2.664  1.7887 -1.5147 -0.1781
 7995SOL     OW36043   9.946   5.837   4.155  0.1133 -0.2149 -0.1867
 7995SOL    HW136044  10.043   5.837   4.179 -0.1959  1.2504  1.1654
 7995SOL    HW236045   9.920   5.748   4.119  1.6438 -1.0623  0.7755
 7996SOL     OW36046   5.386   8.424   7.024 -0.4020 -0.0753  0.4248
 7996SOL    HW136047   5.396   8.325   7.031 -1.2977 -0.2598 -0.8169
 7996SOL    HW236048   5.458   8.468   7.078  1.1301 -1.3861 -0.4802
 7997SOL     OW36049   2.297   6.625   8.089  0.3377 -0.1629  0.2215
 7997SOL    HW136050   2.200   6.606   8.104 -0.0433  1.8226  0.3435
 7997SOL    HW236051   2.332   6.563   8.019 -1.2289 -0.3159 -0.4472
 7998SOL     OW36052   2.398   4.630   3.699  0.7163 -0.0239  0.0281
 7998SOL    HW136053   2.414   4.604   3.794  1.4502  0.7389  0.1149
 7998SOL    HW236054   2.313   4.684   3.693 -1.1278 -2.8269 -0.2306
 7999SOL     OW36055   3.173   7.862   9.948 -0.2309 -0.1834  0.3038
 7999SOL    HW136056   3.082   7.861   9.990 -0.5795  3.0463 -0.2402
 7999SOL    HW236057   3.235   7.804  10.001 -1.4733  1.2143  3.4135
 8000SOL     OW36058   3.129   3.050   4.230 -0.4010  0.2977 -0.4333
 8000SOL    HW136059   3.098   2.960   4.201 -1.6228  0.1514  1.2451
 8000SOL    HW236060   3.073   3.120   4.186 -0.0819  0.2197 -0.9779
 8001SOL     OW36061   2.269   7.845   3.509 -0.1571  0.4283  0.2375
 8001SOL    HW136062   2.247   7.911   3.581 -2.7851  0.7872 -0.8291
 8001SOL    HW236063   2.237   7.880   3.421 -1.7788 -2.3506 -0.3283
 8002SOL     OW36064   0.261   9.699   6.696  0.5995  0.0882  0.1250
 8002SOL    HW136065   0.318   9.721   6.617  0.2010  1.7781  0.2948
 8002SOL    HW236066   0.164   9.700   6.669  0.5215 -0.3805  0.3863
 8003SOL     OW36067   1.606   8.124   1.077 -0.2278  0.2037 -0.1289
 8003SOL    HW136068   1.622   8.040   1.129 -0.4083 -1.6156 -2.9374
 8003SOL    HW236069   1.694   8.170   1.062  0.1306 -0.5152 -0.2695
 8004SOL     OW36070   6.078   5.397   3.854  0.5440  0.5159  0.2658
 8004SOL    HW136071   6.046   5.438   3.768 -1.8350 -1.1128  0.3155
 8004SOL    HW236072   6.143   5.324   3.833 -1.2766 -0.9897 -0.2957
 8005SOL     OW36073   6.266   6.107   3.961  0.2575  0.1418 -0.1167
 8005SOL    HW136074   6.349   6.109   4.016 -0.2700 -1.1881  0.7356
 8005SOL    HW236075   6.288   6.129   3.866  1.7498 -1.2641 -0.1146
 8006SOL     OW36076   2.595   8.652   0.640 -0.3440 -0.4580  0.3581
 8006SOL    HW136077   2.694   8.662   0.631 -0.1350 -1.0005  1.8505
 8006SOL    HW236078   2.572   8.556   0.652 -1.2344 -0.5379 -1.7597
 8007SOL     OW36079   3.126   1.693   7.534 -0.4933 -0.2320  0.0705
 8007SOL    HW136080   3.078   1.779   7.516 -0.1646 -0.0905 -0.1235
 8007SOL    HW236081   3.077   1.642   7.605 -0.5680  0.2106  0.3375
 8008SOL     OW36082   2.029   8.627   3.766 -0.4346  0.4287 -0.0150
 8008SOL    HW136083   2.061   8.670   3.681 -0.7730  0.5928 -0.0568
 8008SOL    HW236084   2.052   8.529   3.765 -0.4533  0.4279 -0.2977
 8009SOL     OW36085   7.720   4.967   1.845 -0.2782 -0.2047 -0.0434
 8009SOL    HW136086   7.774   5.051   1.843  1.4970 -1.3200 -0.1530
 8009SOL    HW236087   7.694   4.942   1.751 -1.6359  0.7138  0.0674
 8010SOL     OW36088   0.242   4.523   3.226 -0.3089 -0.4070  0.6708
 8010SOL    HW136089   0.229   4.497   3.130  0.5824  3.0587 -0.4468
 8010SOL    HW236090   0.160   4.570   3.259  0.0154 -0.1111  1.0661
 8011SOL     OW36091   4.559   5.567   2.558 -0.1730  0.8693  0.1540
 8011SOL    HW136092   4.622   5.528   2.492 -0.1418  0.3621  0.4817
 8011SOL    HW236093   4.473   5.516   2.556  0.2286  0.1342  1.3069
 8012SOL     OW36094   1.006   5.323   2.637  0.4859 -0.1924  0.4193
 8012SOL    HW136095   0.958   5.239   2.613 -2.6383  1.3998  0.8747
 8012SOL    HW236096   1.022   5.325   2.736 -1.0312  0.5066  0.6688
 8013SOL     OW36097   7.010   1.767   2.931  0.0608  0.5391  0.2344
 8013SOL    HW136098   6.954   1.849   2.938 -1.2358 -0.3087 -0.0724
 8013SOL    HW236099   7.073   1.776   2.854 -0.8512  0.7991 -0.4836
 8014SOL     OW36100   4.198   7.001   9.242  0.0795 -0.4392  0.0467
 8014SOL    HW136101   4.160   6.975   9.153 -0.6546  0.6928  0.0140
 8014SOL    HW236102   4.287   6.957   9.255  0.0896 -0.7896 -1.1477
 8015SOL     OW36103   5.433   3.588   2.714  0.1372 -0.1121 -0.1975
 8015SOL    HW136104   5.493   3.655   2.758  0.2198  0.1260 -0.6735
 8015SOL    HW236105   5.480   3.545   2.637 -0.2645  0.0133 -0.5177
 8016SOL     OW36106   1.458   3.385   3.465 -0.3436  0.2462  0.6127
 8016SOL    HW136107   1.466   3.330   3.382 -1.4188  0.4083  0.3898
 8016SOL    HW236108   1.389   3.345   3.525  1.3413 -0.5843  2.0108
 8017SOL     OW36109   3.696   1.458   5.910 -0.6848  0.1587 -0.0783
 8017SOL    HW136110   3.619   1.394   5.906 -0.3737 -0.4576  2.5579
 8017SOL    HW236111   3.727   1.466   6.005  1.0618  2.1292 -0.7830
 8018SOL     OW36112   4.741   7.192   4.274 -0.5785  0.1575 -0.0481
 8018SOL    HW136113   4.651   7.209   4.313 -1.0665 -2.3489  0.0381
 8018SOL    HW236114   4.776   7.104   4.307  2.0909  1.2708  0.2379
 8019SOL     OW36115   1.307   5.067   5.247  0.0211  0.4345 -0.8287
 8019SOL    HW136116   1.394   5.040   5.207  0.1578 -0.3697 -0.0064
 8019SOL    HW236117   1.277   4.997   5.312 -0.3575  1.5580  0.2252
 8020SOL     OW36118   7.820   4.373   9.900 -0.0436 -0.6873 -0.0047
 8020SOL    HW136119   7.863   4.301   9.955  1.5188  0.7635  0.7504
 8020SOL    HW236120   7.884   4.402   9.828 -1.2504 -1.0989 -1.2456
 8021SOL     OW36121   2.400   5.099   5.755  0.3087  0.3425  0.3529
 8021SOL    HW136122   2.492   5.087   5.718  0.6418 -1.1779  1.6305
 8021SOL    HW236123   2.393   5.188   5.800  1.8556 -0.4633  2.2293
 8022SOL     OW36124   4.173   5.601   7.137  0.6421  0.4449  0.2643
 8022SOL    HW136125   4.250   5.561   7.188  1.8053  1.1481 -0.9333
 8022SOL    HW236126   4.203   5.625   7.045 -1.6535 -1.5181 -1.0455
 8023SOL     OW36127   4.908   5.405   3.935 -0.4680 -0.2342 -0.1731
 8023SOL    HW136128   4.809   5.387   3.933 -0.3153 -1.3756  1.3721
 8023SOL    HW236129   4.927   5.477   4.001 -0.2248 -0.3218 -0.1466
 8024SOL     OW36130   9.055   8.321   5.195 -0.2601  0.0713 -0.0352
 8024SOL    HW136131   9.130   8.339   5.132 -0.1145  0.5003  0.2583
 8024SOL    HW236132   9.074   8.237   5.246 -0.7142 -0.6734 -1.0643
 8025SOL     OW36133   5.734   0.415   9.987 -0.6536  0.4676  1.0202
 8025SOL    HW136134   5.734   0.317   9.964  0.4935  0.4643  1.0200
 8025SOL    HW236135   5.719   0.468   9.903 -0.1606  0.3277  0.8407
 8026SOL     OW36136   1.700   0.707   3.761 -0.2243 -0.4825 -0.2640
 8026SOL    HW136137   1.762   0.630   3.782  2.6340  1.9685  0.6869
 8026SOL    HW236138   1.667   0.698   3.667  0.8296 -2.3966 -0.4864
 8027SOL     OW36139   5.843   5.893   7.838 -0.1429 -0.3077 -0.0882
 8027SOL    HW136140   5.893   5.964   7.888 -1.7870  0.9376 -0.1591
 8027SOL    HW236141   5.872   5.893   7.742  2.0602 -1.8144  0.5257
 8028SOL     OW36142   4.398   6.699   1.398 -0.2530  0.2934  0.3293
 8028SOL    HW136143   4.312   6.716   1.447 -0.1826 -0.7605  0.8219
 8028SOL    HW236144   4.437   6.612   1.428 -0.8479 -0.9985 -2.5036
 8029SOL     OW36145   3.915   9.074   6.190  0.0242  0.7253  0.6216
 8029SOL    HW136146   3.963   9.093   6.276 -0.9163  1.6599  0.9465
 8029SOL    HW236147   3.867   8.987   6.198 -0.5157  1.0775  1.2452
 8030SOL     OW36148   0.895   1.763   1.938 -0.1873  0.1964  0.3100
 8030SOL    HW136149   0.854   1.774   2.029 -0.5985  1.6278 -0.0337
 8030SOL    HW236150   0.951   1.843   1.918 -0.5349  0.1338 -0.9268
 8031SOL     OW36151   2.312   2.547   4.369 -0.0887 -0.0919  0.0445
 8031SOL    HW136152   2.356   2.556   4.280 -0.5836  2.7378  0.0591
 8031SOL    HW236153   2.220   2.585   4.365  0.0769  0.5435  1.9036
 8032SOL     OW36154   4.446   8.313   3.877 -0.3464  0.0328 -0.4890
 8032SOL    HW136155   4.525   8.279   3.928 -0.8867  0.2618  0.5196
 8032SOL    HW236156   4.392   8.374   3.935 -1.1877 -0.0015 -1.2119
 8033SOL     OW36157   4.803   3.049   7.236 -0.0072  0.4656 -0.0185
 8033SOL    HW136158   4.846   2.973   7.189  1.3059  2.0207 -1.3984
 8033SOL    HW236159   4.720   3.076   7.187  0.1115  0.6005 -0.1470
 8034SOL     OW36160   2.245   4.370   3.356  0.1090 -0.1917 -1.0435
 8034SOL    HW136161   2.226   4.459   3.314  0.7316 -0.2179 -1.3814
 8034SOL    HW236162   2.280   4.383   3.449 -1.2611 -0.1329 -0.5189
 8035SOL     OW36163   4.105   8.887   5.396 -0.1094 -0.0656 -0.0316
 8035SOL    HW136164   4.101   8.797   5.352  0.8915 -0.6222  0.9761
 8035SOL    HW236165   4.100   8.959   5.327 -0.6464 -0.9004 -0.8702
 8036SOL     OW36166   4.728   3.900   2.633  0.4854  0.1636  0.3333
 8036SOL    HW136167   4.753   3.989   2.595  2.9834  0.2191  1.9650
 8036SOL    HW236168   4.794   3.831   2.604 -2.6797 -1.7026 -2.7450
 8037SOL     OW36169   4.338   1.885   4.819 -0.1608  0.4484 -0.1606
 8037SOL    HW136170   4.347   1.806   4.879  1.0363  1.4376  0.9627
 8037SOL    HW236171   4.422   1.897   4.767 -1.0773 -0.2232 -1.8670
 8038SOL     OW36172   5.168   6.316   4.450 -0.1370 -0.4061 -0.9902
 8038SOL    HW136173   5.232   6.264   4.393  0.9501 -1.2801  0.9836
 8038SOL    HW236174   5.126   6.388   4.395  0.8756 -1.2261 -2.8962
 8039SOL     OW36175   1.693   3.347   3.663 -0.1499  0.0790  0.2040
 8039SOL    HW136176   1.616   3.385   3.612 -0.1688  0.4047  0.4707
 8039SOL    HW236177   1.665   3.261   3.707  0.0874 -0.5910 -0.9409
 8040SOL     OW36178   3.679   1.825   4.716  0.0684  0.3745 -0.7241
 8040SOL    HW136179   3.627   1.906   4.690 -1.1476  0.5481  2.0215
 8040SOL    HW236180   3.618   1.760   4.761  1.2019 -1.7338 -2.1539
 8041SOL     OW36181   7.150   4.925   1.241  0.1269  0.1194  0.5326
 8041SOL    HW136182   7.211   4.992   1.199  2.5885 -0.4478  3.0408
 8041SOL    HW236183   7.172   4.916   1.338 -0.9112 -3.4539  0.5096
 8042SOL     OW36184   0.019   2.032   1.903 -0.0188  0.2521  0.7284
 8042SOL    HW136185  -0.075   2.052   1.929 -0.1605  0.9059 -0.2679
 8042SOL    HW236186   0.070   2.000   1.983 -1.6136 -2.0822  0.8901
 8043SOL     OW36187   1.011   0.665   5.660 -0.8590  0.2114 -0.2355
 8043SOL    HW136188   1.069   0.747   5.661 -1.7449  0.8440  0.9466
 8043SOL    HW236189   0.917   0.692   5.636 -0.8145 -0.6950 -1.4263
 8044SOL     OW36190   5.399   6.934   3.370  0.3780 -0.3485  0.1535
 8044SOL    HW136191   5.335   7.011   3.378  1.8821  0.7843  1.6649
 8044SOL    HW236192   5.455   6.945   3.288  0.0087 -0.2692 -0.0865
 8045SOL     OW36193   8.550   3.373   5.385  1.0914  0.3030 -0.4277
 8045SOL    HW136194   8.650   3.379   5.388  1.0828 -0.3602  1.7744
 8045SOL    HW236195   8.512   3.398   5.474 -0.6986  0.2200 -1.1441
 8046SOL     OW36196   0.816   5.414   5.762  0.1640 -0.6178  0.2102
 8046SOL    HW136197   0.880   5.434   5.837  0.1250  0.8014 -0.1112
 8046SOL    HW236198   0.867   5.373   5.686  0.6397  0.1281  0.1124
 8047SOL     OW36199   0.640   0.337   8.219  0.2434 -0.1639  0.2870
 8047SOL    HW136200   0.599   0.247   8.236 -0.4787 -0.5195 -2.9329
 8047SOL    HW236201   0.717   0.327   8.157  0.3388  1.4147  0.1383
 8048SOL     OW36202   0.155   2.804   3.282 -0.1850  0.6909  0.2860
 8048SOL    HW136203   0.234   2.749   3.309 -0.4058  0.6815  0.9117
 8048SOL    HW236204   0.149   2.886   3.339  0.5003  1.6874 -1.0502
 8049SOL     OW36205   8.070   4.505   0.004 -0.9290  0.1643  0.0023
 8049SOL    HW136206   8.041   4.543  -0.084 -2.7614  0.1106  0.5433
 8049SOL    HW236207   8.092   4.409  -0.007  0.9973  0.6826 -0.8226
 8050SOL     OW36208   4.877   0.251   1.943  0.3573 -0.3416  0.1165
 8050SOL    HW136209   4.950   0.313   1.970  0.6302 -0.5632 -0.1122
 8050SOL    HW236210   4.850   0.270   1.849  0.5803 -0.7071 -0.0197
 8051SOL     OW36211   1.035   1.105   7.051  0.1482 -0.0585  0.3461
 8051SOL    HW136212   0.989   1.160   7.120  1.1617  1.4595 -0.1689
 8051SOL    HW236213   1.131   1.132   7.045  0.2966 -0.8174 -0.9889
 8052SOL     OW36214   0.449   5.421   6.998 -0.2119 -0.3686 -0.1378
 8052SOL    HW136215   0.476   5.503   7.048 -1.6921 -0.0467  0.1474
 8052SOL    HW236216   0.445   5.343   7.060 -1.5187 -0.0808  0.1467
 8053SOL     OW36217   1.483   3.149   4.866 -0.3697 -0.1766  0.1993
 8053SOL    HW136218   1.422   3.080   4.828  0.2967  0.5216 -2.1936
 8053SOL    HW236219   1.429   3.221   4.910 -1.2758  0.3560 -1.7609
 8054SOL     OW36220   8.858   2.795   3.310 -0.0656  0.1177 -0.4302
 8054SOL    HW136221   8.784   2.793   3.242  0.9734  0.0358 -1.5656
 8054SOL    HW236222   8.944   2.772   3.266  0.3650 -1.6358  1.2490
 8055SOL     OW36223   2.132   5.818   2.554 -0.0830 -0.0859  0.2277
 8055SOL    HW136224   2.053   5.841   2.610 -0.7287 -0.4168 -0.5315
 8055SOL    HW236225   2.120   5.855   2.462  0.7036 -0.0287  0.1447
 8056SOL     OW36226   9.696   3.534   2.476 -0.1869  0.0270  0.5987
 8056SOL    HW136227   9.709   3.595   2.398  1.0711 -0.2721  0.5564
 8056SOL    HW236228   9.603   3.544   2.511 -0.5773  0.5960 -0.5651
 8057SOL     OW36229   8.680   3.438   3.851  0.7464 -0.4747 -0.5463
 8057SOL    HW136230   8.619   3.458   3.928  0.2196 -1.0454 -0.8084
 8057SOL    HW236231   8.738   3.517   3.833  0.1701  0.0310 -0.2078
 8058SOL     OW36232   7.313   6.701   7.783  0.1330 -0.3907  0.3104
 8058SOL    HW136233   7.270   6.611   7.773  2.4331 -1.4735 -0.1082
 8058SOL    HW236234   7.410   6.694   7.764  0.5948  1.9571  1.5860
 8059SOL     OW36235   2.371   6.420   7.914  0.4333  0.2807 -0.1337
 8059SOL    HW136236   2.295   6.429   7.851  1.1352  1.4432 -0.8287
 8059SOL    HW236237   2.392   6.323   7.928 -0.2241  0.0025 -1.0619
 8060SOL     OW36238   1.968   5.224   0.619 -0.0130  0.1818 -0.1837
 8060SOL    HW136239   2.056   5.266   0.638 -0.5318  1.0788  0.2365
 8060SOL    HW236240   1.906   5.239   0.696 -0.7714  0.2028 -0.7954
 8061SOL     OW36241   1.858   3.754   3.765  0.0728  0.1387  0.5492
 8061SOL    HW136242   1.862   3.673   3.707  0.4146  0.4917  0.0741
 8061SOL    HW236243   1.838   3.834   3.709 -1.2427  0.2443  1.1539
 8062SOL     OW36244   0.845   2.990   5.197 -0.3093 -0.5505 -0.5063
 8062SOL    HW136245   0.886   2.929   5.129 -0.9909  0.5522 -1.9331
 8062SOL    HW236246   0.878   2.966   5.288  2.4191 -0.6158 -1.4655
 8063SOL     OW36247   5.905   4.041   2.541 -0.6713  0.4238  0.1647
 8063SOL    HW136248   5.930   3.992   2.624  0.0610 -0.6375 -0.6686
 8063SOL    HW236249   5.842   3.985   2.487  3.2686 -1.4467 -2.7438
 8064SOL     OW36250   2.501   3.576   5.289 -0.2852 -0.2661  0.1818
 8064SOL    HW136251   2.505   3.476   5.295  0.2658 -0.2275  0.4277
 8064SOL    HW236252   2.412   3.603   5.251 -0.6991 -0.8252  0.7402
 8065SOL     OW36253   1.218   3.234   4.494  0.3712 -0.2391 -0.3159
 8065SOL    HW136254   1.166   3.151   4.511  1.8845 -0.9423  1.0008
 8065SOL    HW236255   1.216   3.293   4.575  1.4923 -0.2174 -0.2844
 8066SOL     OW36256   1.366   6.789   9.505  0.3558 -0.5831  0.9576
 8066SOL    HW136257   1.336   6.874   9.548 -1.6578 -0.0995 -1.3003
 8066SOL    HW236258   1.444   6.752   9.556  2.2173  3.3376  1.1334
 8067SOL     OW36259   0.516   8.518   2.679 -0.1588 -0.4104  0.0124
 8067SOL    HW136260   0.555   8.604   2.714 -0.8363  1.0370 -2.6447
 8067SOL    HW236261   0.467   8.536   2.594  0.8276 -3.6908 -1.3251
 8068SOL     OW36262   5.722   3.559   1.180  0.1430 -0.3007 -0.3433
 8068SOL    HW136263   5.808   3.560   1.130  0.6503  0.3053  0.5182
 8068SOL    HW236264   5.679   3.650   1.175 -0.7570 -0.7771 -1.3007
 8069SOL     OW36265   3.865   4.241   4.984 -0.5436  0.5935 -0.1890
 8069SOL    HW136266   3.791   4.248   5.051 -0.3352  1.1711 -0.0150
 8069SOL    HW236267   3.852   4.311   4.913  0.0739  0.9779  0.0770
 8070SOL     OW36268   9.845   6.200   2.153  0.9350  0.1975  0.2554
 8070SOL    HW136269   9.814   6.255   2.076 -0.7842 -1.5337 -0.3322
 8070SOL    HW236270   9.938   6.168   2.136  0.1457 -1.1592 -1.6849
 8071SOL     OW36271   0.298   6.862   5.713 -0.0297  0.1378  0.1078
 8071SOL    HW136272   0.224   6.817   5.663  0.4067 -0.2370 -0.2147
 8071SOL    HW236273   0.343   6.928   5.654 -0.6467  0.9754  0.5742
 8072SOL     OW36274   5.283   0.718   5.483 -1.0721 -0.2221  0.3865
 8072SOL    HW136275   5.223   0.758   5.415 -0.8926 -1.7742 -0.7089
 8072SOL    HW236276   5.229   0.684   5.560 -1.3832  0.3423  0.4221
 8073SOL     OW36277   8.640   0.909   2.363 -0.1699 -0.4558 -0.6961
 8073SOL    HW136278   8.603   0.817   2.354  1.1622 -0.9733 -1.1054
 8073SOL    HW236279   8.616   0.963   2.282  0.2826 -0.9127 -1.1478
 8074SOL     OW36280   3.850   7.431   1.340  0.3741  0.4097  0.1846
 8074SOL    HW136281   3.773   7.436   1.403  0.3090 -2.2912  0.3809
 8074SOL    HW236282   3.921   7.495   1.369 -0.8631  1.3138  1.2760
 8075SOL     OW36283   5.151   5.010   1.422  0.0070 -0.2260 -0.0893
 8075SOL    HW136284   5.204   5.052   1.349 -1.2331  0.6071 -0.5298
 8075SOL    HW236285   5.083   4.949   1.384  0.3797 -0.9925  0.4554
 8076SOL     OW36286   4.117   1.491   4.531  0.0137  0.1745 -0.5500
 8076SOL    HW136287   4.062   1.461   4.453 -0.1770  0.2784 -0.4570
 8076SOL    HW236288   4.120   1.419   4.600 -3.0715  1.4846  1.0659
 8077SOL     OW36289   3.617   6.032   1.557  0.4004 -0.8890 -0.1200
 8077SOL    HW136290   3.699   6.089   1.560  0.4905 -0.9788 -0.8190
 8077SOL    HW236291   3.551   6.072   1.494 -0.7733  0.0824  1.6909
 8078SOL     OW36292   1.385   9.849   3.971  0.3372  0.1088 -0.4284
 8078SOL    HW136293   1.408   9.830   4.067 -1.0201  0.4394 -0.0240
 8078SOL    HW236294   1.469   9.858   3.918  1.0613 -2.1146  0.3181
 8079SOL     OW36295   5.869   7.076   2.688 -0.2576 -0.4858  0.2619
 8079SOL    HW136296   5.799   7.113   2.750  0.8471  0.5000  0.9450
 8079SOL    HW236297   5.902   6.989   2.724  0.5527  0.2026  1.1929
 8080SOL     OW36298   1.957   4.748   6.809 -0.3796  0.2986  0.2219
 8080SOL    HW136299   1.995   4.668   6.856  0.8737  0.3872 -0.6269
 8080SOL    HW236300   2.026   4.820   6.803 -0.6508  0.4479 -1.3735
 8081SOL     OW36301   3.588   6.979   1.283 -0.5232  0.2895 -0.0965
 8081SOL    HW136302   3.501   7.024   1.265 -0.4335  0.4335 -0.1657
 8081SOL    HW236303   3.660   7.047   1.296 -1.0683  0.2963  3.3902
 8082SOL     OW36304   3.881   8.297   3.844 -0.5720  0.0201  0.7211
 8082SOL    HW136305   3.804   8.348   3.805  0.3938  0.3294 -0.8551
 8082SOL    HW236306   3.882   8.205   3.804 -0.0546  0.0615  0.6427
 8083SOL     OW36307   6.244   1.025   1.426 -0.5817 -0.0374  0.0571
 8083SOL    HW136308   6.175   1.055   1.492 -0.3514  0.7151 -0.0361
 8083SOL    HW236309   6.292   1.105   1.389 -1.4887 -0.3493 -1.8796
 8084SOL     OW36310   1.271   2.054   6.400  0.6677  0.0480  0.5047
 8084SOL    HW136311   1.202   2.026   6.467  0.6993  0.7014  0.8122
 8084SOL    HW236312   1.227   2.103   6.325  0.3642 -2.2978 -0.9317
 8085SOL     OW36313   4.789   9.284   6.487  0.0596  0.5911  0.2200
 8085SOL    HW136314   4.802   9.382   6.502 -0.1039  0.7201 -0.4557
 8085SOL    HW236315   4.693   9.261   6.495 -0.0284  0.6606 -0.5954
 8086SOL     OW36316   0.131   5.344   3.608 -0.3699 -0.2318  0.1316
 8086SOL    HW136317   0.080   5.280   3.666 -2.1005  0.8207 -0.1617
 8086SOL    HW236318   0.191   5.293   3.546 -0.4590 -1.4807  1.0516
 8087SOL     OW36319   6.395   5.712   9.263  0.5724 -0.4107  0.1860
 8087SOL    HW136320   6.296   5.706   9.254  0.6429  0.9684 -1.6151
 8087SOL    HW236321   6.422   5.806   9.281  1.6323 -0.5985 -0.3802
 8088SOL     OW36322   3.390   6.723   2.220  0.1952  0.0724  0.4661
 8088SOL    HW136323   3.489   6.730   2.206 -0.2325  1.4126 -2.0579
 8088SOL    HW236324   3.360   6.631   2.196  0.7028 -0.1174  0.5385
 8089SOL     OW36325   1.965   9.484   4.080  0.4502 -0.8695 -0.4408
 8089SOL    HW136326   2.007   9.455   4.166  0.1529  2.2013  0.8110
 8089SOL    HW236327   1.897   9.554   4.098  0.6227  0.0754 -3.2186
 8090SOL     OW36328   0.509   2.349   4.461  0.3622  0.0565 -0.6777
 8090SOL    HW136329   0.585   2.287   4.476  0.0749  0.1210  1.1784
 8090SOL    HW236330   0.426   2.311   4.502  0.5423  2.4284  2.0046
 8091SOL     OW36331   8.981   1.997   6.253 -0.1654  0.6646 -0.2243
 8091SOL    HW136332   8.894   2.039   6.228 -0.3740 -0.4015 -1.3343
 8091SOL    HW236333   8.991   1.998   6.352 -2.1920 -0.6467  0.0298
 8092SOL     OW36334   4.474   6.178   5.149 -0.1391 -0.0830  0.2615
 8092SOL    HW136335   4.408   6.134   5.089 -0.2324  0.8254 -0.3051
 8092SOL    HW236336   4.428   6.209   5.232  0.0592 -1.6747  0.9979
 8093SOL     OW36337   6.327   9.880   9.843 -0.2781 -0.0023 -0.0188
 8093SOL    HW136338   6.401   9.897   9.909 -0.5136  0.3673  0.1558
 8093SOL    HW236339   6.244   9.925   9.876  0.0730  1.7719 -1.4828
 8094SOL     OW36340   4.827   0.589   3.931 -0.0071  0.1564 -0.0031
 8094SOL    HW136341   4.873   0.512   3.885 -0.2246 -0.0455  0.1205
 8094SOL    HW236342   4.896   0.647   3.974  0.2141  0.4486 -0.7479
 8095SOL     OW36343   7.108   4.006   2.116  0.0555  0.5064 -0.6863
 8095SOL    HW136344   7.024   4.010   2.171 -0.6882 -1.8663 -1.5879
 8095SOL    HW236345   7.085   3.982   2.022  1.6821  0.5993 -1.1181
 8096SOL     OW36346   8.327   3.838   7.897 -0.8423 -0.4373  0.0792
 8096SOL    HW136347   8.412   3.890   7.905 -1.0467  0.6201 -3.6796
 8096SOL    HW236348   8.254   3.887   7.945 -0.2130  0.7798 -0.1771
 8097SOL     OW36349   1.516   2.390   0.605  0.0003  0.0209 -0.0761
 8097SOL    HW136350   1.607   2.384   0.564 -0.2279 -1.1754 -0.4406
 8097SOL    HW236351   1.447   2.391   0.533 -0.3825 -1.6613  0.2392
 8098SOL     OW36352   6.334   4.611   7.777 -0.0930 -0.0480 -0.2822
 8098SOL    HW136353   6.426   4.573   7.784 -0.6553 -1.2585  0.5871
 8098SOL    HW236354   6.267   4.537   7.776 -1.0135  0.7850 -1.8964
 8099SOL     OW36355   4.807   2.661   1.734 -0.1627  0.0409 -0.0077
 8099SOL    HW136356   4.876   2.597   1.702  0.6897  1.0473 -0.1894
 8099SOL    HW236357   4.798   2.736   1.669 -1.0780  0.1686  0.2559
 8100SOL     OW36358   1.640   2.054   9.695  0.1340 -0.2108  0.0002
 8100SOL    HW136359   1.661   2.068   9.599 -0.7754 -1.2438 -0.3665
 8100SOL    HW236360   1.550   2.010   9.703  0.0662  0.1590  1.3275
 8101SOL     OW36361   6.227   2.176   3.178  0.9394 -0.2731 -0.2153
 8101SOL    HW136362   6.227   2.115   3.099  2.9332  1.1927 -1.3911
 8101SOL    HW236363   6.148   2.237   3.174  1.8889  0.8751 -1.9573
 8102SOL     OW36364   4.193   4.299   2.200  0.2533  0.4944 -0.3994
 8102SOL    HW136365   4.217   4.352   2.281  1.2586 -1.1209  0.3813
 8102SOL    HW236366   4.268   4.303   2.134  0.7008 -0.6666  0.0329
 8103SOL     OW36367   4.850   2.016   4.705 -0.3864  0.5758 -0.1002
 8103SOL    HW136368   4.896   2.060   4.628  0.0642 -0.7010 -0.5809
 8103SOL    HW236369   4.905   1.938   4.737 -1.2356  0.2591  0.6125
 8104SOL     OW36370   1.837   5.987   5.911  0.5772 -0.8016 -0.4262
 8104SOL    HW136371   1.907   5.948   5.970  0.3640 -1.0129 -0.3074
 8104SOL    HW236372   1.764   6.025   5.968  0.4834 -0.7981 -0.5489
 8105SOL     OW36373   3.208   8.605   4.596  0.3594 -0.4710 -0.3543
 8105SOL    HW136374   3.145   8.619   4.520  0.7101 -0.5773 -0.6649
 8105SOL    HW236375   3.167   8.542   4.662  0.5439 -1.3033 -1.0268
 8106SOL     OW36376   6.008   3.459   2.754 -0.2138 -0.0385  0.5817
 8106SOL    HW136377   5.912   3.443   2.730  0.6754  0.2609 -3.4614
 8106SOL    HW236378   6.061   3.377   2.733  0.2894 -0.6453  3.9452
 8107SOL     OW36379   9.199   5.289   6.577  0.1019 -0.0531  0.4210
 8107SOL    HW136380   9.287   5.289   6.626  0.7616  1.0982 -0.7425
 8107SOL    HW236381   9.125   5.276   6.643  1.0900 -0.2967  1.5133
 8108SOL     OW36382   2.458   8.113   3.280  0.8127  0.2003 -0.2420
 8108SOL    HW136383   2.448   8.136   3.377  1.3870  0.9460 -0.3513
 8108SOL    HW236384   2.380   8.058   3.250  0.6163  0.0013  0.6362
 8109SOL     OW36385   1.321   5.422   3.932 -0.2901  0.9164 -0.2494
 8109SOL    HW136386   1.373   5.479   3.868  0.2433  1.2218  0.4450
 8109SOL    HW236387   1.336   5.326   3.910  1.5103  0.9606  0.6273
 8110SOL     OW36388   2.257   0.035   2.001 -0.3266 -0.1987  0.5768
 8110SOL    HW136389   2.225   0.107   2.063 -0.8239  0.8210 -0.8276
 8110SOL    HW236390   2.273   0.074   1.910  2.1008 -1.3040  0.4910
 8111SOL     OW36391   3.890   1.230   7.030 -0.9371 -0.3207 -0.0009
 8111SOL    HW136392   3.919   1.317   6.989  2.0341 -0.8033  0.9764
 8111SOL    HW236393   3.882   1.241   7.129  0.6099 -1.4503  0.2590
 8112SOL     OW36394   4.202   9.080   9.755  0.2813 -0.0208  0.3476
 8112SOL    HW136395   4.298   9.094   9.731 -0.4025  0.7149 -2.1334
 8112SOL    HW236396   4.162   9.011   9.694 -1.5202  1.8974 -0.7355
 8113SOL     OW36397   4.913   2.198   2.720 -0.4249 -0.0283 -0.1151
 8113SOL    HW136398   4.998   2.167   2.679  0.6832  0.9637  1.3900
 8113SOL    HW236399   4.898   2.294   2.700 -1.6108 -0.3951 -1.0479
 8114SOL     OW36400   2.722   2.627   6.414 -0.3449  0.4972  0.0468
 8114SOL    HW136401   2.693   2.679   6.494 -1.4906 -2.8418  1.9047
 8114SOL    HW236402   2.781   2.552   6.443  0.2822  0.0165 -2.4046
 8115SOL     OW36403   8.260   6.877   2.469 -0.2248 -0.2361 -0.1255
 8115SOL    HW136404   8.350   6.894   2.510 -0.1028 -0.7104 -0.1840
 8115SOL    HW236405   8.205   6.822   2.533 -0.9579  1.1805  0.4727
 8116SOL     OW36406   1.833   3.987   3.609  0.0857  0.6495 -0.3369
 8116SOL    HW136407   1.843   4.071   3.556 -0.5255  1.2669  0.5097
 8116SOL    HW236408   1.753   3.994   3.668  0.6501 -0.0931  0.5333
 8117SOL     OW36409   1.346   5.427   0.957 -0.1380  0.7498  0.0020
 8117SOL    HW136410   1.300   5.355   1.008 -0.0983  1.6864  1.3824
 8117SOL    HW236411   1.278   5.493   0.924  0.0180  1.0674  0.3199
 8118SOL     OW36412   3.062   3.770   6.238 -0.4786  0.0626 -0.0371
 8118SOL    HW136413   3.154   3.767   6.278 -0.1991 -1.1800 -0.7502
 8118SOL    HW236414   3.003   3.827   6.295  0.1837 -0.8418  1.5829
 8119SOL     OW36415   6.541   2.533   9.838  0.4406 -0.4445 -0.0237
 8119SOL    HW136416   6.448   2.497   9.838  0.8591 -1.5711 -0.7055
 8119SOL    HW236417   6.558   2.585   9.921 -0.9394  0.1406 -0.1024
 8120SOL     OW36418   1.365   2.393   3.550  0.1014  0.5012  0.0997
 8120SOL    HW136419   1.354   2.314   3.611 -1.2394 -0.3642 -1.2106
 8120SOL    HW236420   1.307   2.468   3.581 -1.0246 -0.1421 -0.4313
 8121SOL     OW36421   3.434   9.654   9.701 -0.2734  0.1534 -0.0668
 8121SOL    HW136422   3.412   9.723   9.632 -0.4438  0.3281  0.1620
 8121SOL    HW236423   3.533   9.647   9.712 -0.1212 -1.6784 -2.1894
 8122SOL     OW36424   1.418   2.472   4.913  0.7394  0.2763 -0.3113
 8122SOL    HW136425   1.374   2.558   4.889  1.1974  0.4844 -0.4177
 8122SOL    HW236426   1.353   2.412   4.959  0.6085  0.9512  0.3850
 8123SOL     OW36427   2.569   0.439   8.738 -0.4141 -0.5152 -0.2043
 8123SOL    HW136428   2.581   0.343   8.760 -1.2890 -0.2273  1.6176
 8123SOL    HW236429   2.473   0.465   8.751 -0.1892  0.5911 -0.6956
 8124SOL     OW36430   0.016   3.586   7.754 -0.1136  0.1375  0.4610
 8124SOL    HW136431   0.005   3.532   7.670 -1.0371 -0.4893  0.9886
 8124SOL    HW236432   0.099   3.556   7.801 -1.3113 -1.7325  1.4199
 8125SOL     OW36433   6.403   5.086   9.814 -0.6925 -0.0173 -0.0039
 8125SOL    HW136434   6.326   5.125   9.763 -0.8162  0.5570  0.6179
 8125SOL    HW236435   6.483   5.080   9.754 -1.0573 -0.0823 -0.4875
 8126SOL     OW36436   6.907   4.937   0.145  0.6460  0.0940 -0.7149
 8126SOL    HW136437   6.817   4.946   0.101  0.1602 -3.0397 -0.4416
 8126SOL    HW236438   6.898   4.949   0.244  0.2824 -1.5390 -0.5385
 8127SOL     OW36439   2.341   8.287   2.581 -0.1605 -0.0029 -0.5055
 8127SOL    HW136440   2.338   8.386   2.572 -0.1961  0.1295  0.9087
 8127SOL    HW236441   2.386   8.248   2.500 -1.4124  1.0459 -1.7257
 8128SOL     OW36442   9.238   0.237   1.641 -0.6412  0.4143  0.1248
 8128SOL    HW136443   9.236   0.320   1.697  0.8228  1.1506 -0.8775
 8128SOL    HW236444   9.283   0.164   1.692 -1.2138  0.4691  0.7104
 8129SOL     OW36445   2.151   1.732   3.895  0.0277  0.2570 -0.2171
 8129SOL    HW136446   2.132   1.732   3.796 -0.6898 -0.3458 -0.0852
 8129SOL    HW236447   2.115   1.816   3.935  1.4319  1.0920 -0.6654
 8130SOL     OW36448   4.676   4.262   5.047 -0.1987  0.0701  0.9042
 8130SOL    HW136449   4.590   4.301   5.082  0.9196  2.1007  1.4776
 8130SOL    HW236450   4.734   4.236   5.124  0.6340  0.8475  0.5512
 8131SOL     OW36451   3.191   2.226   4.050  0.2583 -0.0896 -0.2163
 8131SOL    HW136452   3.155   2.248   3.960  1.1608 -0.1590 -0.5991
 8131SOL    HW236453   3.221   2.130   4.051 -2.2175 -0.9015  0.9650
 8132SOL     OW36454   6.291   1.439   1.523 -0.1796  0.1251  0.3456
 8132SOL    HW136455   6.280   1.450   1.622  1.4444  0.0812  0.5558
 8132SOL    HW236456   6.348   1.359   1.505 -0.9262 -0.1859 -0.6518
 8133SOL     OW36457   3.467   2.421   3.982 -0.0764  0.2469  0.6577
 8133SOL    HW136458   3.564   2.398   3.986 -0.0499  0.4055  0.9893
 8133SOL    HW236459   3.413   2.339   4.004  0.0288  0.5691  2.1934
 8134SOL     OW36460   1.423   4.732   1.669 -0.0032 -0.1854  0.3329
 8134SOL    HW136461   1.447   4.776   1.755  2.3688  0.5166 -0.6699
 8134SOL    HW236462   1.413   4.633   1.684 -1.7055  0.1809  1.8110
 8135SOL     OW36463   2.217   4.424   3.632  0.9115  0.4328 -0.4824
 8135SOL    HW136464   2.268   4.340   3.650  1.0917  0.7903  0.7645
 8135SOL    HW236465   2.259   4.499   3.682 -0.3301  0.9049 -0.1321
 8136SOL     OW36466   3.609   5.738   0.153  0.4332  0.4071  0.1568
 8136SOL    HW136467   3.551   5.781   0.222 -0.0020  0.8775 -0.5039
 8136SOL    HW236468   3.687   5.798   0.133  0.8765  0.0055  0.6684
 8137SOL     OW36469   1.105   1.181   2.552 -0.4908 -0.2894  0.3539
 8137SOL    HW136470   1.020   1.195   2.602  0.2633  0.4589  1.4396
 8137SOL    HW236471   1.098   1.222   2.461 -0.9008  0.7182  0.8393
 8138SOL     OW36472   2.563   6.034   2.808  0.1959 -0.0775 -0.1087
 8138SOL    HW136473   2.493   5.989   2.753 -0.6273  1.2541 -0.1778
 8138SOL    HW236474   2.545   6.018   2.905 -0.3567  0.4530 -0.1173
 8139SOL     OW36475   1.855   0.915   6.235 -0.1644 -0.0079  0.1819
 8139SOL    HW136476   1.912   0.996   6.223  0.4551 -0.3791  0.6012
 8139SOL    HW236477   1.773   0.924   6.178  1.0783 -0.2039 -1.7095
 8140SOL     OW36478   2.458   4.121   4.859  0.3782 -0.1948  0.2242
 8140SOL    HW136479   2.370   4.154   4.893  1.0283 -0.2374  2.0256
 8140SOL    HW236480   2.456   4.021   4.852  0.2990 -0.2023  0.3467
 8141SOL     OW36481   3.208   9.498   9.548  0.4244  0.1357 -0.2865
 8141SOL    HW136482   3.228   9.581   9.497  1.7523  0.0290  0.0507
 8141SOL    HW236483   3.291   9.466   9.594 -0.2955 -0.8562  0.3414
 8142SOL     OW36484   0.531   0.218   4.014  0.1403 -0.6785 -0.4342
 8142SOL    HW136485   0.590   0.201   4.093 -0.8950 -0.4931  0.3987
 8142SOL    HW236486   0.564   0.298   3.964 -0.8898  1.0679  1.5594
 8143SOL     OW36487   2.860   1.885   4.192  0.4215 -0.7300 -0.5807
 8143SOL    HW136488   2.917   1.811   4.228  0.8861 -0.6037 -1.0607
 8143SOL    HW236489   2.827   1.860   4.101 -0.8663 -1.1083 -0.0245
 8144SOL     OW36490   5.267   6.922   7.895  0.3186  0.3713  0.1724
 8144SOL    HW136491   5.200   6.853   7.868 -0.0764  0.1978  1.5728
 8144SOL    HW236492   5.339   6.927   7.825  0.6915 -1.9201  0.3579
 8145SOL     OW36493   3.350   2.253   9.494 -0.2542  0.0693 -0.0428
 8145SOL    HW136494   3.268   2.203   9.523 -0.6743  0.1403 -1.1007
 8145SOL    HW236495   3.339   2.350   9.516  0.0623 -0.0997  0.9145
 8146SOL     OW36496   7.163   6.560   2.353  0.5114  0.5422  0.5447
 8146SOL    HW136497   7.231   6.625   2.385  0.3743  1.3346 -0.7344
 8146SOL    HW236498   7.079   6.571   2.406  1.2478 -0.2269  1.9138
 8147SOL     OW36499   2.909   5.792   8.366 -0.2600 -0.5980  0.0976
 8147SOL    HW136500   2.851   5.840   8.300 -1.4545 -0.9250  0.8918
 8147SOL    HW236501   2.985   5.748   8.318 -0.8464 -0.4358 -0.9944
 8148SOL     OW36502   0.221   6.270   3.269  0.0601  0.0976  0.6742
 8148SOL    HW136503   0.234   6.358   3.224 -0.5195  0.1516  0.6108
 8148SOL    HW236504   0.124   6.257   3.289  0.0788 -0.7512  0.2254
 8149SOL     OW36505   3.324   4.792   2.751  0.0916  0.4368  0.5278
 8149SOL    HW136506   3.278   4.722   2.806  0.3419  0.7771  1.1755
 8149SOL    HW236507   3.423   4.774   2.750 -0.1027 -0.6269 -1.3392
 8150SOL     OW36508   6.074   2.056   0.217 -0.2224  0.0635  0.2462
 8150SOL    HW136509   6.143   2.004   0.266 -0.0635  0.7644  0.7797
 8150SOL    HW236510   6.080   2.153   0.243 -0.7073  0.3014 -0.4971
 8151SOL     OW36511   2.637   3.182   3.082  0.1171 -0.2926  0.4024
 8151SOL    HW136512   2.592   3.097   3.107 -0.0448 -0.7031 -1.1825
 8151SOL    HW236513   2.569   3.246   3.046  0.3885  0.1122  0.6111
 8152SOL     OW36514   8.543   0.488   3.817 -0.2761  0.4642  0.2703
 8152SOL    HW136515   8.520   0.518   3.724  1.3950  0.9426 -0.0051
 8152SOL    HW236516   8.461   0.450   3.861 -0.5572 -1.9895 -2.2252
 8153SOL     OW36517   5.777   1.181   2.801 -0.5254 -0.5291 -0.0620
 8153SOL    HW136518   5.811   1.165   2.709  0.3176 -1.9885  0.4910
 8153SOL    HW236519   5.854   1.198   2.863 -0.6821 -4.5297  1.3343
 8154SOL     OW36520   1.578   8.362   1.862  0.2537  0.0144 -0.0276
 8154SOL    HW136521   1.631   8.286   1.900 -0.6989  0.0082  1.3033
 8154SOL    HW236522   1.515   8.326   1.793 -0.0332 -0.3707  0.4327
 8155SOL     OW36523   1.859   3.777   7.021  0.0108 -0.1591  0.1873
 8155SOL    HW136524   1.905   3.847   6.965  1.0311  1.2778  2.7137
 8155SOL    HW236525   1.898   3.688   7.001 -1.6188 -0.1662 -3.4376
 8156SOL     OW36526   2.561   7.149   9.567  0.1118  0.1030 -0.2348
 8156SOL    HW136527   2.588   7.052   9.562 -0.3963  0.0239 -1.6503
 8156SOL    HW236528   2.631   7.204   9.521  0.1025  0.3498  0.0527
 8157SOL     OW36529   2.634   4.287   0.031 -0.1953  0.3452 -0.0806
 8157SOL    HW136530   2.569   4.309   0.104  1.0503  0.9048  0.8759
 8157SOL    HW236531   2.678   4.199   0.051  2.6036  2.0762  1.6160
 8158SOL     OW36532   3.361   5.851   1.406  0.2818 -0.4137 -0.2851
 8158SOL    HW136533   3.369   5.950   1.391  2.3374 -0.4418  0.4618
 8158SOL    HW236534   3.268   5.829   1.435  0.5560  1.7391  2.4845
 8159SOL     OW36535   9.388   6.159   4.932 -0.2925  0.1293  0.2706
 8159SOL    HW136536   9.400   6.192   5.026 -0.6200 -2.0764  1.0953
 8159SOL    HW236537   9.443   6.217   4.871 -1.1125  2.4137  1.6165
 8160SOL     OW36538   0.440   3.299   8.856  0.0662  0.2919  0.5990
 8160SOL    HW136539   0.342   3.281   8.853  0.2453 -1.1176  2.1622
 8160SOL    HW236540   0.475   3.312   8.763 -1.5146  0.3175 -0.0036
 8161SOL     OW36541   1.871   5.388   0.321 -0.2390 -0.3287 -0.3923
 8161SOL    HW136542   1.847   5.435   0.406  1.9503 -2.9226  1.7369
 8161SOL    HW236543   1.851   5.290   0.330 -0.8066 -0.5123 -3.2183
 8162SOL     OW36544   4.050   4.641   2.691  0.5464  0.0181 -0.1328
 8162SOL    HW136545   4.070   4.632   2.788 -0.4238  0.3146  0.1058
 8162SOL    HW236546   3.995   4.723   2.676 -0.3195 -0.6722 -0.7708
 8163SOL     OW36547   4.183   1.501   1.440 -0.2228  0.0637  0.1388
 8163SOL    HW136548   4.113   1.460   1.498  0.3415 -1.7474 -0.4089
 8163SOL    HW236549   4.189   1.450   1.354 -0.8247  2.4933 -1.3851
 8164SOL     OW36550   3.127   2.678   2.981 -0.0043 -0.5559 -0.1591
 8164SOL    HW136551   3.103   2.714   2.891  1.3595  2.3646  0.5952
 8164SOL    HW236552   3.081   2.731   3.052  1.5360 -0.6806  0.9757
 8165SOL     OW36553   8.771   6.014   6.859 -0.3886 -0.8100 -0.1620
 8165SOL    HW136554   8.847   5.955   6.832 -0.9172 -0.8707 -1.5847
 8165SOL    HW236555   8.685   5.964   6.850 -0.7398 -0.2067 -0.1998
 8166SOL     OW36556   4.547   5.994   5.335 -0.4629  0.1817  0.1122
 8166SOL    HW136557   4.550   6.078   5.280  1.8352  0.4367  0.5609
 8166SOL    HW236558   4.491   6.010   5.416  1.3544  1.8923  1.0834
 8167SOL     OW36559   4.411   9.525   3.525  0.1101  0.0263  0.7950
 8167SOL    HW136560   4.400   9.432   3.488 -0.9179  0.6260 -0.4240
 8167SOL    HW236561   4.358   9.534   3.609 -1.9576  0.3070 -0.5099
 8168SOL     OW36562   3.408   5.002   1.516 -0.2083  0.0447  0.9798
 8168SOL    HW136563   3.326   5.020   1.570  0.5326  2.7792  1.2943
 8168SOL    HW236564   3.482   4.971   1.575 -0.2992  0.0056  1.0717
 8169SOL     OW36565   9.526   2.600   1.096  0.1557 -0.1377 -0.2294
 8169SOL    HW136566   9.612   2.549   1.086  0.9984  1.3199 -0.6072
 8169SOL    HW236567   9.491   2.626   1.006  0.2561  0.7846 -0.0103
 8170SOL     OW36568   9.357   5.657   4.336  0.5478  0.6724 -0.1706
 8170SOL    HW136569   9.437   5.708   4.366  2.3568 -0.6195 -2.6246
 8170SOL    HW236570   9.280   5.720   4.322  1.8185  2.2649 -0.0926
 8171SOL     OW36571   1.939   1.529   3.220 -0.3348  0.4884  0.2260
 8171SOL    HW136572   1.910   1.508   3.127  1.9185 -0.3820 -0.3148
 8171SOL    HW236573   1.970   1.445   3.265  1.1205  1.3310  0.8241
 8172SOL     OW36574   6.018   4.494   7.985  0.3327  0.2060 -0.1284
 8172SOL    HW136575   6.061   4.484   7.895 -0.5640 -0.3044 -0.5031
 8172SOL    HW236576   6.041   4.584   8.022 -0.1029  0.8199 -1.3125
 8173SOL     OW36577   3.059   6.966   3.295  0.3068 -0.4535  0.7447
 8173SOL    HW136578   3.043   6.972   3.393 -1.2222  0.7030  0.4348
 8173SOL    HW236579   3.155   6.989   3.276  0.4806 -0.1659  1.9209
 8174SOL     OW36580   1.189   8.469   4.220  0.6289  0.4648 -0.2102
 8174SOL    HW136581   1.096   8.485   4.252  0.8761 -1.0747  1.3216
 8174SOL    HW236582   1.237   8.557   4.215 -0.5163  1.1355  0.1789
 8175SOL     OW36583   3.381   3.883   5.393  0.6447 -0.1721  0.8527
 8175SOL    HW136584   3.449   3.809   5.389 -0.7562 -1.5660  2.0361
 8175SOL    HW236585   3.349   3.893   5.487 -1.4025 -0.1224  0.1801
 8176SOL     OW36586   5.674   6.582   1.007  0.4677 -0.2837 -0.4287
 8176SOL    HW136587   5.707   6.566   1.100 -1.0652 -1.2329 -0.0213
 8176SOL    HW236588   5.712   6.513   0.946 -1.8380 -2.3162  0.3187
 8177SOL     OW36589   4.753   6.816   9.411 -0.1232 -0.0523 -0.3768
 8177SOL    HW136590   4.719   6.723   9.398 -0.2075  0.0024 -0.5475
 8177SOL    HW236591   4.676   6.879   9.420 -0.0831  0.1730 -1.4894
 8178SOL     OW36592   3.801   0.153   0.772 -0.4152  0.0551 -0.2103
 8178SOL    HW136593   3.840   0.062   0.782 -0.3623  0.3309  2.4211
 8178SOL    HW236594   3.702   0.145   0.760 -0.1614 -0.4177 -2.2193
 8179SOL     OW36595   1.882   8.830   7.569  0.0952  0.7827 -0.0787
 8179SOL    HW136596   1.959   8.778   7.532  1.5937  2.1513  1.0591
 8179SOL    HW236597   1.801   8.771   7.572  1.3913 -1.0564 -0.1569
 8180SOL     OW36598   2.642   3.232   4.491 -0.7459  0.2955 -0.8648
 8180SOL    HW136599   2.644   3.269   4.584 -0.9121  0.7184 -1.0286
 8180SOL    HW236600   2.691   3.293   4.430  1.8354 -1.4044 -0.5634
 8181SOL     OW36601   3.534   2.524   5.713  0.1006 -0.3064  0.2074
 8181SOL    HW136602   3.570   2.582   5.785  1.5194 -1.9257  0.8376
 8181SOL    HW236603   3.454   2.474   5.747 -1.6722  1.8851 -0.6111
 8182SOL     OW36604   6.244   2.402   0.969 -0.0739 -0.1268 -0.1418
 8182SOL    HW136605   6.274   2.388   1.064  1.3586  0.7476 -0.4526
 8182SOL    HW236606   6.149   2.434   0.969 -0.0066  0.1110  1.0217
 8183SOL     OW36607   3.085   4.977   0.277  0.4961  0.3875 -0.1975
 8183SOL    HW136608   3.072   5.046   0.347 -0.0255 -1.7185  1.8518
 8183SOL    HW236609   3.162   4.917   0.302 -0.4743 -1.1432 -0.7798
 8184SOL     OW36610   4.959   3.975   5.745 -0.2752  0.1873 -0.1630
 8184SOL    HW136611   4.987   4.015   5.832  2.2343  0.3216 -0.9966
 8184SOL    HW236612   5.035   3.925   5.705 -1.0363  1.0740 -2.8229
 8185SOL     OW36613   4.407   6.733   8.357 -0.2668  0.2922  0.5354
 8185SOL    HW136614   4.418   6.634   8.359 -1.3551  0.1405 -0.4671
 8185SOL    HW236615   4.476   6.775   8.415 -0.2296 -1.0910  1.5202
 8186SOL     OW36616   5.776   4.743   6.063 -0.2136 -0.0478 -0.5431
 8186SOL    HW136617   5.696   4.776   6.113 -0.1298 -1.3412  0.4916
 8186SOL    HW236618   5.752   4.660   6.012  0.6360 -0.9057  0.4137
 8187SOL     OW36619   8.336   1.547   0.622  0.5205 -0.2204 -0.1464
 8187SOL    HW136620   8.321   1.527   0.525  1.0657 -1.4226  0.0167
 8187SOL    HW236621   8.305   1.470   0.677 -0.0629  0.5813  0.6696
 8188SOL     OW36622   9.295   4.923   4.963  0.0420  0.0812  0.0898
 8188SOL    HW136623   9.260   5.013   4.987  0.4036 -0.3341  2.2593
 8188SOL    HW236624   9.218   4.863   4.940 -0.3659  0.3274  0.7976
 8189SOL     OW36625   9.352   5.704   1.520  0.4165  0.3373 -0.2157
 8189SOL    HW136626   9.292   5.637   1.564  0.2813  0.0081 -0.8898
 8189SOL    HW236627   9.442   5.703   1.563  0.0975  0.4777  0.4732
 8190SOL     OW36628   4.579   0.921   8.566  0.0397 -0.3306  0.3763
 8190SOL    HW136629   4.558   0.842   8.508  2.9024 -1.0369  0.2270
 8190SOL    HW236630   4.673   0.914   8.599  0.1074  2.6572  0.9694
 8191SOL     OW36631   0.259   3.336   4.337  0.5167 -0.6230  0.3283
 8191SOL    HW136632   0.291   3.422   4.378 -1.2542 -0.8313  2.2373
 8191SOL    HW236633   0.331   3.267   4.344  1.3190  0.2051  0.3781
 8192SOL     OW36634   1.677   3.674   9.384  0.7638  0.0785  0.0555
 8192SOL    HW136635   1.695   3.611   9.460  1.2583  0.3341  0.1526
 8192SOL    HW236636   1.740   3.752   9.390  0.8303  0.0822 -0.6387
 8193SOL     OW36637   2.686   2.925   4.083 -0.0270  0.1151  0.2638
 8193SOL    HW136638   2.638   2.925   4.171  0.9479  1.3273  0.8187
 8193SOL    HW236639   2.739   3.009   4.074 -0.4983  0.2275 -1.7191
 8194SOL     OW36640   0.337   3.035   3.011  0.3264 -0.3536 -0.5194
 8194SOL    HW136641   0.282   2.956   2.985  0.1529  0.0912 -1.5333
 8194SOL    HW236642   0.385   3.070   2.930  2.2222 -0.8277  0.3527
 8195SOL     OW36643   4.084   7.240   1.449  0.9066  0.4851  0.0130
 8195SOL    HW136644   4.113   7.283   1.534 -0.8007 -1.1451  1.4808
 8195SOL    HW236645   4.160   7.188   1.409  1.8143  1.5635  0.3365
 8196SOL     OW36646   0.093   2.361   4.858  0.6176  0.0607 -0.9598
 8196SOL    HW136647  -0.003   2.374   4.834  0.5440  1.8331  0.1573
 8196SOL    HW236648   0.144   2.444   4.837  1.4235  0.0078  0.6841
 8197SOL     OW36649   0.981   2.599   8.989 -0.2525  0.0504 -0.0502
 8197SOL    HW136650   0.977   2.500   8.995 -1.5374  0.0822 -0.3581
 8197SOL    HW236651   0.900   2.639   9.030 -0.6880  0.8944 -1.6802
 8198SOL     OW36652   2.963   6.486   3.154 -0.6930 -0.1334  0.2598
 8198SOL    HW136653   2.923   6.476   3.063 -0.0818  0.6004 -0.0970
 8198SOL    HW236654   2.916   6.559   3.203  0.6860  1.2448 -0.4410
 8199SOL     OW36655   0.258   6.344   7.140  0.3853 -0.5755 -0.3342
 8199SOL    HW136656   0.288   6.406   7.212  2.0894  0.2174 -1.6993
 8199SOL    HW236657   0.337   6.313   7.087 -0.7197 -1.9951 -1.1878
 8200SOL     OW36658   0.715   1.097   4.055 -0.0599 -0.1235 -0.0266
 8200SOL    HW136659   0.662   1.053   4.126 -0.6836  0.4895 -0.1049
 8200SOL    HW236660   0.738   1.191   4.083  2.2015 -0.8292  0.6279
 8201SOL     OW36661   4.782   0.542   1.653 -0.0654 -0.0201  0.1141
 8201SOL    HW136662   4.799   0.583   1.563 -0.3820  0.1760  0.1425
 8201SOL    HW236663   4.792   0.443   1.646  1.7220  0.1343  0.2761
 8202SOL     OW36664   0.354   0.599   4.561  0.0069 -0.6763 -0.0453
 8202SOL    HW136665   0.404   0.669   4.510 -1.0210  2.1623  2.6628
 8202SOL    HW236666   0.418   0.539   4.608  0.9144 -0.5667 -1.1395
 8203SOL     OW36667   0.223   5.788   7.999 -0.2804  0.2159 -0.4432
 8203SOL    HW136668   0.285   5.769   7.923 -0.5126  1.3511 -0.9253
 8203SOL    HW236669   0.240   5.722   8.072 -0.1619 -0.9876 -1.5327
 8204SOL     OW36670   7.684   9.899   7.017 -0.1007 -1.4118 -0.1300
 8204SOL    HW136671   7.649   9.830   7.081 -1.0239 -0.9129 -0.0946
 8204SOL    HW236672   7.652   9.989   7.044 -0.6446 -1.2191 -1.4139
 8205SOL     OW36673   6.681   4.891   3.202  0.4773 -0.4639  0.1741
 8205SOL    HW136674   6.630   4.809   3.176  1.3533 -0.9927  0.1074
 8205SOL    HW236675   6.639   4.971   3.159  0.4068 -1.0285 -0.8192
 8206SOL     OW36676   7.200   1.494   2.470  0.3639  0.3363  0.1600
 8206SOL    HW136677   7.215   1.483   2.568  0.7750  0.4964  0.1151
 8206SOL    HW236678   7.276   1.452   2.420 -0.3335 -0.6031 -0.1103
 8207SOL     OW36679   7.756   7.943   2.079 -0.5520  0.0931  0.2977
 8207SOL    HW136680   7.668   7.990   2.090 -0.2706  0.7782 -0.3245
 8207SOL    HW236681   7.753   7.855   2.127 -1.6376  0.0329  0.1354
 8208SOL     OW36682   5.197   4.265   4.241  1.0488 -0.0209 -1.0804
 8208SOL    HW136683   5.227   4.293   4.332  1.3013  0.6944 -1.3739
 8208SOL    HW236684   5.178   4.167   4.240 -1.1602  0.3557  0.3285
 8209SOL     OW36685   3.165   6.250   9.331 -0.5001  0.3518  0.0837
 8209SOL    HW136686   3.230   6.245   9.255 -0.1014 -0.6076  0.4823
 8209SOL    HW236687   3.174   6.169   9.388 -1.7310  0.4356  0.4106
 8210SOL     OW36688   3.778   4.741   7.025  0.0330 -0.4891 -0.5429
 8210SOL    HW136689   3.692   4.732   6.976  0.2040  1.1932 -1.2047
 8210SOL    HW236690   3.830   4.818   6.987  2.9733 -3.0128 -1.8263
 8211SOL     OW36691   0.259   5.123   0.910  0.0783 -0.1002 -0.1581
 8211SOL    HW136692   0.231   5.062   0.985  1.7611 -1.4768 -0.6083
 8211SOL    HW236693   0.286   5.212   0.948 -1.1919 -0.0413  0.6390
 8212SOL     OW36694   6.039   3.987   4.595  0.3868 -0.0678  0.0494
 8212SOL    HW136695   6.100   4.064   4.577  1.1538 -0.7900 -0.4422
 8212SOL    HW236696   6.018   3.941   4.509 -1.4818  0.6422  0.1020
 8213SOL     OW36697   3.703   3.579   6.315 -0.0329 -0.0149 -0.2956
 8213SOL    HW136698   3.715   3.635   6.233 -1.6549  0.9931  0.1040
 8213SOL    HW236699   3.652   3.496   6.292 -1.9008  1.0313 -0.0701
 8214SOL     OW36700   3.018   0.168   7.284 -0.3659 -0.6473  0.0415
 8214SOL    HW136701   3.023   0.194   7.380 -1.3335 -0.5065  0.0638
 8214SOL    HW236702   2.997   0.071   7.276  0.5691 -0.8504 -0.0365
 8215SOL     OW36703   1.964   6.329   5.056  0.3416  0.4313 -0.1297
 8215SOL    HW136704   1.899   6.332   5.132  0.0016  2.2505 -0.4715
 8215SOL    HW236705   1.939   6.255   4.993 -0.8290  0.5243  0.2236
 8216SOL     OW36706   7.184   2.156   6.229  0.1648  0.2039  0.2389
 8216SOL    HW136707   7.172   2.242   6.279 -1.0959 -0.7339  1.6001
 8216SOL    HW236708   7.274   2.117   6.250  0.6778  1.1167 -0.2694
 8217SOL     OW36709   2.682   3.801   5.242  0.2156 -0.0545 -0.2432
 8217SOL    HW136710   2.619   3.878   5.243 -0.2246 -0.4185  1.5537
 8217SOL    HW236711   2.631   3.716   5.235  0.5482 -0.3043  0.3067
 8218SOL     OW36712   3.927   9.556   9.800  0.8136 -0.2871  0.3487
 8218SOL    HW136713   3.956   9.545   9.705  2.3840 -0.3165  0.8228
 8218SOL    HW236714   3.988   9.504   9.859  0.2898  0.3397  1.4480
 8219SOL     OW36715   3.669   9.317   8.614  0.4301 -0.1788 -0.0453
 8219SOL    HW136716   3.729   9.392   8.640  0.8614 -0.5649  0.0644
 8219SOL    HW236717   3.722   9.233   8.605  0.0286 -0.3643 -0.6680
 8220SOL     OW36718   1.843   2.013   2.233 -0.6138 -0.0340 -0.7463
 8220SOL    HW136719   1.899   1.932   2.214 -0.3550  0.0078 -0.1786
 8220SOL    HW236720   1.809   2.009   2.327  2.4246  2.2573  0.5620
 8221SOL     OW36721   2.579   0.586   8.267  0.9775 -0.1036  0.0794
 8221SOL    HW136722   2.639   0.662   8.293  1.3031 -0.6782  1.0441
 8221SOL    HW236723   2.487   0.621   8.249  1.0060  0.4562  0.9824
 8222SOL     OW36724   8.437   2.745   5.267 -0.8024 -0.3670  0.4455
 8222SOL    HW136725   8.375   2.674   5.299 -0.9401 -1.0083 -1.2020
 8222SOL    HW236726   8.530   2.723   5.296 -0.3984 -2.7546 -2.3972
 8223SOL     OW36727   1.706   1.334   4.257  0.2868  0.3270  0.2861
 8223SOL    HW136728   1.646   1.406   4.221  0.7882  1.2925  1.3112
 8223SOL    HW236729   1.674   1.245   4.226 -0.0800  1.0244 -1.3855
 8224SOL     OW36730   2.753   7.093   9.898 -0.1773  0.1067  0.0829
 8224SOL    HW136731   2.726   7.170   9.957 -0.4187 -0.1108  0.2564
 8224SOL    HW236732   2.671   7.051   9.860 -0.0391 -0.0095 -0.0852
 8225SOL     OW36733   2.636   3.299   4.758 -0.0843 -0.5651  0.0909
 8225SOL    HW136734   2.595   3.215   4.793 -1.3793  0.0844  0.1854
 8225SOL    HW236735   2.724   3.314   4.803  0.8343 -2.6059 -0.9922
 8226SOL     OW36736   5.396   6.081   5.164 -0.1932  0.2352  0.4738
 8226SOL    HW136737   5.398   6.177   5.135  1.8323 -0.1307 -0.6796
 8226SOL    HW236738   5.303   6.045   5.155 -0.6251  1.6181 -0.6525
 8227SOL     OW36739   2.819   6.584   7.658 -0.3427  0.1453  0.4280
 8227SOL    HW136740   2.721   6.591   7.637 -0.2205 -0.0467 -0.2495
 8227SOL    HW236741   2.856   6.675   7.674 -0.1436  0.4652 -1.6914
 8228SOL     OW36742   3.405   3.731   5.800 -0.6168 -0.0054  0.1634
 8228SOL    HW136743   3.421   3.808   5.738 -2.4360 -0.4150 -0.8488
 8228SOL    HW236744   3.416   3.762   5.895  1.7224  0.7342 -0.3004
 8229SOL     OW36745   0.031   1.684   7.062 -0.0054 -0.2773  0.1153
 8229SOL    HW136746   0.063   1.655   7.152 -0.0084  1.3522  0.6589
 8229SOL    HW236747  -0.055   1.638   7.041 -0.2870 -0.2567  1.1863
 8230SOL     OW36748   1.311   6.431   2.723  0.0252  0.2507  0.0056
 8230SOL    HW136749   1.298   6.344   2.675 -0.4965  0.1407  0.3385
 8230SOL    HW236750   1.269   6.425   2.814 -1.7736  1.5277 -0.7220
 8231SOL     OW36751   9.416   5.421   2.697 -0.5283  0.0086 -0.5911
 8231SOL    HW136752   9.479   5.394   2.770 -2.1691  0.7411  1.1304
 8231SOL    HW236753   9.419   5.520   2.685 -1.6315  0.0964 -0.2061
 8232SOL     OW36754   1.672   4.908   4.654  0.3807  0.6476  0.0012
 8232SOL    HW136755   1.690   4.964   4.573  3.8090 -1.8705 -1.1316
 8232SOL    HW236756   1.731   4.938   4.728  1.1437 -0.4527 -0.1461
 8233SOL     OW36757   0.631   3.633   4.954 -0.0458 -0.1661  0.2050
 8233SOL    HW136758   0.559   3.697   4.928  0.0020 -0.6668 -1.2127
 8233SOL    HW236759   0.610   3.542   4.918  0.4981 -0.6853  1.1573
 8234SOL     OW36760   0.572   5.306   5.894  0.6076  0.2798 -0.0105
 8234SOL    HW136761   0.554   5.295   5.796  1.4560  2.1703 -0.3894
 8234SOL    HW236762   0.669   5.294   5.912  0.5785  0.8018  0.4889
 8235SOL     OW36763   1.924   8.172   1.143 -0.4874 -0.3436 -0.1047
 8235SOL    HW136764   1.995   8.242   1.143 -0.4283 -0.3827  1.4096
 8235SOL    HW236765   1.863   8.186   1.221  0.2485 -2.6905  0.9253
 8236SOL     OW36766   4.543   3.502   5.019 -0.1504 -0.1051 -0.2594
 8236SOL    HW136767   4.525   3.461   4.930  1.0416 -0.1544 -0.4878
 8236SOL    HW236768   4.512   3.597   5.018  0.0019 -0.0560 -0.7853
 8237SOL     OW36769   0.271   7.136   4.947  0.1248  0.5419 -0.2043
 8237SOL    HW136770   0.357   7.153   4.995  0.6221  0.9287 -1.2209
 8237SOL    HW236771   0.246   7.039   4.957  0.4479  0.5216  0.4521
 8238SOL     OW36772   3.252   4.003   6.763  0.1985 -0.1404  0.0333
 8238SOL    HW136773   3.321   3.969   6.827  0.6545 -1.9014 -1.3640
 8238SOL    HW236774   3.161   3.978   6.795  0.2609  1.1532  1.2648
 8239SOL     OW36775   9.820   3.478   2.174  0.1337 -0.3593 -0.2755
 8239SOL    HW136776   9.849   3.488   2.269 -0.7714 -1.5428  0.1353
 8239SOL    HW236777   9.853   3.556   2.121  0.9813  0.1094  0.9209
 8240SOL     OW36778   4.536   2.021   5.153 -0.0320 -0.4237  0.3388
 8240SOL    HW136779   4.544   1.961   5.232  1.5652  2.3455  2.3795
 8240SOL    HW236780   4.621   2.020   5.100 -0.5989 -1.2086 -0.5743
 8241SOL     OW36781   5.220   4.451   5.311 -0.2179 -0.4311 -0.5263
 8241SOL    HW136782   5.141   4.390   5.304  0.6613 -1.4341 -1.9686
 8241SOL    HW236783   5.249   4.479   5.219  1.0039  0.0685 -0.0058
 8242SOL     OW36784   3.096   6.295   3.727 -0.3076 -0.4933 -0.3099
 8242SOL    HW136785   3.109   6.338   3.638 -0.3958  0.4721  0.1369
 8242SOL    HW236786   2.998   6.285   3.745 -0.3029 -0.0246 -0.0125
 8243SOL     OW36787   0.352   2.907   8.091  0.2706  0.2174 -0.0317
 8243SOL    HW136788   0.413   2.831   8.067 -2.5683 -1.7487 -1.2272
 8243SOL    HW236789   0.290   2.925   8.014 -1.2076  1.6072  1.4642
 8244SOL     OW36790   3.761   4.479   5.802  0.1136 -0.1113 -0.2194
 8244SOL    HW136791   3.840   4.541   5.804  1.0263 -1.2705  0.7589
 8244SOL    HW236792   3.781   4.398   5.858 -1.8130 -0.3806  0.1170
 8245SOL     OW36793   1.939   0.331   7.995  0.4722 -0.2066 -0.1635
 8245SOL    HW136794   1.924   0.361   8.090 -0.7122  1.1562 -0.7615
 8245SOL    HW236795   2.004   0.256   7.994 -2.9145 -3.3176  2.1423
 8246SOL     OW36796   8.201   3.938   7.676 -0.3315  0.3227  0.6016
 8246SOL    HW136797   8.250   3.879   7.739 -1.1686 -1.1219 -0.0789
 8246SOL    HW236798   8.176   3.886   7.594 -0.1956  1.8765 -0.4558
 8247SOL     OW36799   2.207   4.355   8.298 -0.3467  0.1924 -0.5385
 8247SOL    HW136800   2.264   4.423   8.252 -0.4091 -0.0906 -1.0421
 8247SOL    HW236801   2.113   4.388   8.304 -0.7724 -0.6487 -2.4779
 8248SOL     OW36802   1.095   1.677   8.411 -0.4221 -0.4783  0.0624
 8248SOL    HW136803   1.078   1.663   8.509 -0.1283 -0.5065  0.1094
 8248SOL    HW236804   1.030   1.624   8.358 -0.8919 -0.0898  0.2467
 8249SOL     OW36805   5.197   0.724   6.619 -0.4163  0.4648 -0.0607
 8249SOL    HW136806   5.117   0.774   6.585 -0.6956  0.2599  0.3001
 8249SOL    HW236807   5.242   0.679   6.542 -0.1259  1.3241 -0.3995
 8250SOL     OW36808   0.886   4.452   5.111 -0.5758  0.2231  0.1493
 8250SOL    HW136809   0.864   4.510   5.032 -0.2158 -0.9178 -0.7969
 8250SOL    HW236810   0.801   4.419   5.152 -0.7401 -1.5941 -1.5767
 8251SOL     OW36811   6.726   2.844   0.363 -0.1418 -0.2817  0.2906
 8251SOL    HW136812   6.661   2.907   0.406 -1.9625 -1.6305 -0.4019
 8251SOL    HW236813   6.744   2.767   0.424  2.8191  1.3253  1.5323
 8252SOL     OW36814   2.324   5.049   9.800 -0.1608  0.1443  0.0129
 8252SOL    HW136815   2.422   5.059   9.813 -0.2422 -0.2390  0.9213
 8252SOL    HW236816   2.275   5.086   9.879 -0.6226 -2.8768  1.2314
 8253SOL     OW36817   8.741   9.579   7.108  0.2138 -0.2539  0.2265
 8253SOL    HW136818   8.650   9.584   7.068 -0.7974  0.7304  2.5566
 8253SOL    HW236819   8.744   9.504   7.175  0.5172  0.9364  1.5698
 8254SOL     OW36820   7.472   6.070   5.825  0.3297 -0.1114  0.1274
 8254SOL    HW136821   7.487   6.024   5.737  2.0319  1.3692 -0.3821
 8254SOL    HW236822   7.388   6.124   5.821 -0.6786 -1.6369  0.1096
 8255SOL     OW36823   4.393   1.680   5.006  0.1196 -0.0439 -0.2689
 8255SOL    HW136824   4.486   1.649   5.022  0.2938 -0.2826 -1.6487
 8255SOL    HW236825   4.341   1.678   5.091  1.1172 -0.7769  0.3244
 8256SOL     OW36826   3.105   1.545   6.705 -0.2471  0.1851 -0.2317
 8256SOL    HW136827   3.174   1.473   6.708 -0.9575 -0.4553  1.1389
 8256SOL    HW236828   3.138   1.626   6.753 -0.6210 -0.2885  0.8442
 8257SOL     OW36829   1.456   1.641   7.523  0.2517  0.2821 -0.7352
 8257SOL    HW136830   1.515   1.571   7.482 -1.8487 -0.0227 -3.3249
 8257SOL    HW236831   1.387   1.597   7.580  0.1285  0.3775 -0.8119
 8258SOL     OW36832   5.810   3.097   1.927  0.1255 -0.3451 -0.3709
 8258SOL    HW136833   5.723   3.126   1.887 -0.0857  1.2849  1.1871
 8258SOL    HW236834   5.882   3.107   1.859 -0.9713 -2.3716 -1.9035
 8259SOL     OW36835   9.197   5.479   6.376  0.1387  0.0401  0.5337
 8259SOL    HW136836   9.194   5.417   6.455  0.7056  0.3857  0.8260
 8259SOL    HW236837   9.121   5.544   6.383 -0.8448 -1.0054 -0.1040
 8260SOL     OW36838   5.920   1.157   0.629 -0.7200  0.3526 -0.0596
 8260SOL    HW136839   5.869   1.078   0.595 -1.3537  0.2048  1.1987
 8260SOL    HW236840   5.990   1.127   0.694 -1.4548  0.8745  0.9877
 8261SOL     OW36841   0.771   2.864   4.515  0.3455 -0.0609  0.3821
 8261SOL    HW136842   0.739   2.830   4.603  1.0335  1.2453  1.1397
 8261SOL    HW236843   0.713   2.826   4.442  0.0392 -1.4774  1.3377
 8262SOL     OW36844   4.402   4.326   5.461 -0.1952  0.2382 -0.0309
 8262SOL    HW136845   4.312   4.330   5.503 -0.1089  0.0351  0.1694
 8262SOL    HW236846   4.462   4.393   5.505 -0.6599  1.3910 -1.1296
 8263SOL     OW36847   9.703   1.132   0.168 -0.5255  0.3637  0.2973
 8263SOL    HW136848   9.775   1.107   0.103 -2.2105 -0.2613 -1.3447
 8263SOL    HW236849   9.677   1.227   0.154  0.0008  0.6054  0.9269
 8264SOL     OW36850   2.281   9.488   6.868  0.0230 -0.9658 -0.1379
 8264SOL    HW136851   2.247   9.578   6.838 -0.5470 -0.3214  2.3313
 8264SOL    HW236852   2.336   9.499   6.950 -0.5437 -2.9569  0.5235
 8265SOL     OW36853   1.886   6.677   8.970  0.6491  0.0542  0.4196
 8265SOL    HW136854   1.924   6.660   8.879  0.6855  0.5574  0.3377
 8265SOL    HW236855   1.791   6.707   8.962  0.3954 -0.6804  0.5957
 8266SOL     OW36856   3.009   1.386   6.467 -0.3896 -1.3137  0.1981
 8266SOL    HW136857   2.915   1.355   6.483 -1.1882  0.0178 -1.7040
 8266SOL    HW236858   3.039   1.441   6.545 -1.7965 -0.3836  0.1081
 8267SOL     OW36859   2.696   4.666   3.915  0.3816  0.3225 -0.1478
 8267SOL    HW136860   2.678   4.579   3.870 -1.5044  1.0186 -0.7789
 8267SOL    HW236861   2.727   4.733   3.848  2.7561 -0.0944  0.4881
 8268SOL     OW36862   9.542   1.236   2.860 -0.3242  0.1833 -0.0736
 8268SOL    HW136863   9.636   1.204   2.848 -0.5932  0.1930 -2.4083
 8268SOL    HW236864   9.491   1.169   2.915  0.8288 -0.1732  0.5852
 8269SOL     OW36865   2.446   1.778   1.026  0.4472  0.2901 -0.2386
 8269SOL    HW136866   2.467   1.876   1.029 -0.7276  0.5099  1.4633
 8269SOL    HW236867   2.413   1.754   0.935 -2.3686  2.1612  0.2282
 8270SOL     OW36868   1.640   1.349   4.973  0.4895 -0.0812 -0.2991
 8270SOL    HW136869   1.624   1.414   4.899  1.4134 -1.3103 -1.6153
 8270SOL    HW236870   1.645   1.397   5.060 -0.0906  1.4515 -1.1078
 8271SOL     OW36871   2.716   5.499   1.027 -0.4082 -0.2052 -0.8140
 8271SOL    HW136872   2.623   5.534   1.040  0.8412  2.5214  1.1291
 8271SOL    HW236873   2.775   5.573   0.994  1.5335 -1.3975 -0.0721
 8272SOL     OW36874   9.381   3.377   0.980 -0.2254 -0.0154 -0.2307
 8272SOL    HW136875   9.364   3.300   1.042 -1.7017  0.1098 -0.4799
 8272SOL    HW236876   9.365   3.349   0.886  1.5640 -0.0668 -0.5384
 8273SOL     OW36877   7.489   1.666   1.600 -0.1152  0.0650  0.4397
 8273SOL    HW136878   7.569   1.714   1.562 -0.2339 -0.6082 -0.6819
 8273SOL    HW236879   7.515   1.621   1.685 -0.2465  2.9478  2.0753
 8274SOL     OW36880   3.345   4.366   8.704  0.4198  0.4126  0.4736
 8274SOL    HW136881   3.339   4.445   8.643 -2.0785 -1.8264 -2.3615
 8274SOL    HW236882   3.416   4.382   8.773  0.9957  4.4542 -0.9092
 8275SOL     OW36883   2.478   1.025   5.220 -0.1568  0.4026  0.0529
 8275SOL    HW136884   2.406   1.033   5.151 -1.2864  0.2915  1.1999
 8275SOL    HW236885   2.524   0.937   5.210 -0.2605  0.4153 -0.6046
 8276SOL     OW36886   4.951   7.702   3.753 -0.1914 -0.3273  0.1096
 8276SOL    HW136887   4.863   7.658   3.768 -0.6428 -0.3666 -2.4480
 8276SOL    HW236888   4.950   7.794   3.792 -1.5329 -0.1554 -0.2973
 8277SOL     OW36889   4.249   1.791   6.527  0.8940  0.9009  0.7348
 8277SOL    HW136890   4.270   1.846   6.446 -1.6229  0.6034 -0.1395
 8277SOL    HW236891   4.186   1.717   6.503  1.5855 -0.3649  2.5946
 8278SOL     OW36892   5.162   6.644   8.755  0.2555 -0.3413  0.7784
 8278SOL    HW136893   5.113   6.611   8.836 -0.7382  0.1969  0.4063
 8278SOL    HW236894   5.233   6.709   8.784 -0.3593  0.1570  1.1921
 8279SOL     OW36895   3.586   1.296   9.243 -0.0846 -0.1345  0.1582
 8279SOL    HW136896   3.491   1.284   9.213 -0.7140  0.9139  1.6268
 8279SOL    HW236897   3.602   1.240   9.324  1.1757 -1.8814 -1.2866
 8280SOL     OW36898   3.182   5.124   1.702  0.1846  0.2106 -0.2643
 8280SOL    HW136899   3.110   5.189   1.676 -1.2063 -1.5673 -0.9104
 8280SOL    HW236900   3.142   5.048   1.752  1.8655  0.0038  0.7951
 8281SOL     OW36901   1.207   5.541   0.444  0.1166  1.1058  0.4125
 8281SOL    HW136902   1.220   5.514   0.540  2.2910  1.9840  0.3887
 8281SOL    HW236903   1.233   5.465   0.384 -1.6493  0.4074  0.5117
 8282SOL     OW36904   3.505   5.302   2.967  0.0593  0.5981  0.1338
 8282SOL    HW136905   3.438   5.251   3.022 -1.0565  1.1692 -0.6917
 8282SOL    HW236906   3.553   5.239   2.906  0.6934  0.0960  1.1438
 8283SOL     OW36907   0.812   6.504   9.026  0.2147 -0.3363 -0.6047
 8283SOL    HW136908   0.832   6.586   8.973 -1.1512  1.4589  1.5766
 8283SOL    HW236909   0.784   6.529   9.118 -0.5321 -3.2601  0.0374
 8284SOL     OW36910   7.808   3.567   5.165  0.2682  0.7742 -0.1745
 8284SOL    HW136911   7.840   3.515   5.244  1.0576  0.4450 -0.7186
 8284SOL    HW236912   7.859   3.653   5.159 -0.1606  1.0434 -0.0206
 8285SOL     OW36913   4.780   8.118   5.521 -0.0782 -0.2611 -0.0658
 8285SOL    HW136914   4.708   8.162   5.575 -0.7437 -0.3575 -0.8713
 8285SOL    HW236915   4.739   8.059   5.452  0.7378  0.7230 -1.4274
 8286SOL     OW36916   7.966   1.725   1.777  0.0398 -0.5643 -0.5260
 8286SOL    HW136917   7.931   1.703   1.685  0.9862  0.3830 -1.1212
 8286SOL    HW236918   8.064   1.706   1.780  0.0503 -0.3979  0.2416
 8287SOL     OW36919   1.651   0.359   9.929 -0.2092 -0.5341  0.2295
 8287SOL    HW136920   1.664   0.313   9.842 -0.2442  0.5254 -0.3391
 8287SOL    HW236921   1.740   0.370   9.975 -0.1755 -0.9736  0.2647
 8288SOL     OW36922   1.583   3.330   5.257  0.3801 -0.3170  0.3599
 8288SOL    HW136923   1.580   3.240   5.213 -0.1505  0.0532 -0.3762
 8288SOL    HW236924   1.492   3.369   5.259  0.7735  0.6694 -0.3160
 8289SOL     OW36925   0.565   3.393   6.145 -0.3488  0.4384 -0.8679
 8289SOL    HW136926   0.529   3.328   6.078  0.1914 -0.7505 -0.0376
 8289SOL    HW236927   0.545   3.486   6.116 -0.2931 -0.0687 -2.5717
 8290SOL     OW36928   6.106   5.953   6.696 -0.1026  0.1707 -0.1170
 8290SOL    HW136929   6.111   5.989   6.789 -0.3058  0.8533 -0.3640
 8290SOL    HW236930   6.067   6.023   6.636  1.9291  0.4896 -1.0958
 8291SOL     OW36931   7.975   7.780   5.514 -0.0633  0.6307  0.2718
 8291SOL    HW136932   8.007   7.733   5.596  0.2758 -0.3519 -0.4165
 8291SOL    HW236933   7.896   7.731   5.477  0.5833  0.3153 -0.7161
 8292SOL     OW36934   0.096   2.932   4.413 -0.3564 -0.2590 -0.1071
 8292SOL    HW136935   0.067   2.873   4.488  0.4075  1.5567  1.6507
 8292SOL    HW236936   0.016   2.978   4.374 -0.4698  0.8298  1.3667
 8293SOL     OW36937   4.012   3.480   5.002 -0.1401  0.3896  0.4798
 8293SOL    HW136938   3.946   3.553   5.022  0.6517  1.2796 -0.1063
 8293SOL    HW236939   4.089   3.486   5.066 -0.0486  0.1067  0.3972
 8294SOL     OW36940   6.220   6.982   2.752  0.1074  0.1031 -0.4707
 8294SOL    HW136941   6.274   6.900   2.765  0.2953 -0.0116 -1.8482
 8294SOL    HW236942   6.169   7.003   2.835  2.8367  0.6387  1.1161
 8295SOL     OW36943   3.169   2.559   6.978  0.1109  0.0253 -0.3102
 8295SOL    HW136944   3.209   2.580   6.889  0.8859  0.4852  0.1492
 8295SOL    HW236945   3.236   2.574   7.050  0.2509 -2.6314  0.1782
 8296SOL     OW36946   1.771   3.461   2.408 -0.1844 -0.2445  0.5827
 8296SOL    HW136947   1.684   3.478   2.363 -0.7326  0.2750  1.7963
 8296SOL    HW236948   1.841   3.524   2.373 -0.8934  0.9555  1.2743
 8297SOL     OW36949   1.865   5.430   9.074  0.0752  0.6395 -0.6480
 8297SOL    HW136950   1.924   5.488   9.018  0.6566  0.1923 -0.5014
 8297SOL    HW236951   1.804   5.377   9.015 -0.3114  1.2387 -0.7925
 8298SOL     OW36952   1.610   7.396   5.395 -0.3480  0.4120  0.0292
 8298SOL    HW136953   1.655   7.310   5.370  0.4984  0.6300  0.7806
 8298SOL    HW236954   1.620   7.412   5.493 -2.1016  0.4558  0.2228
 8299SOL     OW36955   8.928   0.400   4.549 -0.3832 -0.3888 -0.1213
 8299SOL    HW136956   9.007   0.456   4.575 -1.0963 -0.6004  2.7530
 8299SOL    HW236957   8.958   0.306   4.533  0.2939  0.0500 -1.5168
 8300SOL     OW36958   4.774   4.185   5.733 -0.1129 -0.2166  0.1402
 8300SOL    HW136959   4.711   4.157   5.660  0.5361  1.2150 -0.9948
 8300SOL    HW236960   4.853   4.123   5.735  0.1375  0.0755 -0.7420
 8301SOL     OW36961   0.660   6.263   5.743 -0.4853  0.4573 -0.2394
 8301SOL    HW136962   0.655   6.287   5.840 -0.4688  0.5865 -0.2689
 8301SOL    HW236963   0.727   6.323   5.698 -0.0233 -0.0248 -0.2045
 8302SOL     OW36964   5.297   0.902   0.353  0.0873  0.4615  0.1783
 8302SOL    HW136965   5.212   0.926   0.399 -0.0789 -1.9499  1.2133
 8302SOL    HW236966   5.354   0.983   0.343 -0.3105  1.2505  3.7535
 8303SOL     OW36967   7.339   8.578   6.690  0.3479  0.4800 -0.0395
 8303SOL    HW136968   7.365   8.671   6.668 -0.4488  1.0633  1.4063
 8303SOL    HW236969   7.420   8.527   6.720  0.6894  0.8356 -0.3409
 8304SOL     OW36970   8.786   6.910   3.823 -0.2933 -0.2449 -0.0270
 8304SOL    HW136971   8.855   6.938   3.890 -0.0388  0.4458 -0.5671
 8304SOL    HW236972   8.815   6.824   3.780  0.2106  0.0117 -0.2101
 8305SOL     OW36973   4.368   6.329   2.128 -0.3397  0.2927 -0.5328
 8305SOL    HW136974   4.370   6.427   2.108 -0.9150  0.9122  2.2457
 8305SOL    HW236975   4.313   6.313   2.210 -1.9645 -2.5845 -2.0821
 8306SOL     OW36976   7.883   4.057   5.878 -0.5807  0.1521 -0.0888
 8306SOL    HW136977   7.787   4.030   5.876 -0.4906 -0.2942  1.1740
 8306SOL    HW236978   7.933   4.010   5.805 -1.5276  1.2303 -1.4466
 8307SOL     OW36979   3.303   3.447   6.416 -0.5319 -0.2175 -0.2494
 8307SOL    HW136980   3.212   3.439   6.456 -0.4632 -3.1988 -0.6108
 8307SOL    HW236981   3.372   3.439   6.488 -0.4693 -3.3070 -0.5782
 8308SOL     OW36982   5.654   4.713   1.744 -0.9546  0.0284  0.4366
 8308SOL    HW136983   5.582   4.709   1.676 -0.8401  0.4722  0.2877
 8308SOL    HW236984   5.742   4.694   1.701 -1.0065 -0.7166  0.6569
 8309SOL     OW36985   2.469   4.530   7.053 -0.2022 -0.0959 -0.4096
 8309SOL    HW136986   2.404   4.605   7.064  0.2609  0.2188  0.2063
 8309SOL    HW236987   2.559   4.558   7.088 -0.2131 -1.1957  0.5318
 8310SOL     OW36988   5.509   7.909   7.764  0.1641 -0.3279  0.2565
 8310SOL    HW136989   5.520   7.923   7.863  1.5567 -0.9872  0.1992
 8310SOL    HW236990   5.574   7.840   7.733  1.1320  1.3266 -1.4933
 8311SOL     OW36991   3.119   8.077   5.076 -0.3732 -0.1132  0.4120
 8311SOL    HW136992   3.069   8.020   5.141  1.1561  1.0331  2.6245
 8311SOL    HW236993   3.217   8.070   5.093  0.0145  0.8373 -1.2712
 8312SOL     OW36994   2.987   0.074   2.867 -0.0563  0.1223 -0.5648
 8312SOL    HW136995   3.032   0.118   2.945  0.7373 -0.6432 -0.5824
 8312SOL    HW236996   3.054   0.059   2.794 -0.2665 -1.2523 -0.4902
 8313SOL     OW36997   9.054   3.724   0.907 -0.2751  0.4440 -0.0279
 8313SOL    HW136998   9.025   3.656   0.975 -0.8033  0.4528 -0.2418
 8313SOL    HW236999   9.004   3.709   0.822  0.0924  0.6868 -0.2852
 8314SOL     OW37000   5.933   0.553   8.594 -0.1299  0.0886 -0.4077
 8314SOL    HW137001   5.990   0.491   8.539  0.0302 -0.9677  0.9264
 8314SOL    HW237002   5.953   0.648   8.568  1.3940 -0.3189 -0.7738
 8315SOL     OW37003   0.525   7.241   4.258 -0.3706 -0.0404 -0.3044
 8315SOL    HW137004   0.427   7.221   4.245 -0.4274  0.0982 -0.0953
 8315SOL    HW237005   0.547   7.327   4.213 -0.5115  0.3103  0.2900
 8316SOL     OW37006   0.864   4.036   5.672 -0.4441  0.0725 -0.3131
 8316SOL    HW137007   0.921   4.099   5.620 -0.9116 -0.6118 -1.6708
 8316SOL    HW237008   0.779   4.018   5.622 -0.0233 -2.1678 -0.2888
 8317SOL     OW37009   0.030   4.749   2.067 -0.5047  0.3647 -1.2945
 8317SOL    HW137010   0.024   4.849   2.064  1.5115  0.6253  1.1601
 8317SOL    HW237011   0.124   4.722   2.088 -1.5964 -1.9415  0.8964
 8318SOL     OW37012   5.028   1.214   4.304 -0.2882  0.1727  0.5429
 8318SOL    HW137013   5.098   1.144   4.316  0.6371  1.2707  1.7067
 8318SOL    HW237014   5.049   1.270   4.223  0.5057  0.8704  1.2278
 8319SOL     OW37015   3.686   5.478   8.755  0.1739 -0.5496  0.0001
 8319SOL    HW137016   3.679   5.406   8.824 -0.7337  0.6154  1.1378
 8319SOL    HW237017   3.596   5.492   8.713  0.5507 -0.6981 -0.8638
 8320SOL     OW37018   3.791   8.368   8.172  0.4536 -0.3211  0.0499
 8320SOL    HW137019   3.856   8.406   8.239  1.9643  0.0945 -1.6151
 8320SOL    HW237020   3.699   8.397   8.196  1.2527  1.9188  0.5694
 8321SOL     OW37021   9.892   0.709   3.998  0.5641 -0.1716  0.4041
 8321SOL    HW137022   9.939   0.776   3.941  1.2366  0.6726  1.9107
 8321SOL    HW237023   9.794   0.710   3.978  0.3460  2.3842  1.5182
 8322SOL     OW37024   9.798   7.889   6.652  0.2648 -0.1613 -0.2832
 8322SOL    HW137025   9.826   7.985   6.659  0.6636 -0.2914 -0.0610
 8322SOL    HW237026   9.732   7.868   6.724 -0.2350  0.0872 -0.6659
 8323SOL     OW37027   6.936   2.275   3.163  0.2996 -0.0700 -0.5148
 8323SOL    HW137028   6.879   2.315   3.092 -0.5207  2.8624  1.6815
 8323SOL    HW237029   7.019   2.329   3.173  1.8704 -2.2774 -1.3085
 8324SOL     OW37030   2.028   9.478   5.969 -0.2486  0.2324 -0.1112
 8324SOL    HW137031   1.939   9.475   6.013 -0.9693 -0.4870 -1.5740
 8324SOL    HW237032   2.043   9.569   5.930  0.1238  0.6781  1.0530
 8325SOL     OW37033   1.949   9.611   1.362 -0.2771 -0.0102 -0.4594
 8325SOL    HW137034   1.986   9.651   1.446 -0.3136 -1.2666  0.1627
 8325SOL    HW237035   2.010   9.539   1.330 -1.1779 -0.7495 -0.5203
 8326SOL     OW37036   9.742   1.819   5.371  0.2901  0.6138 -0.6769
 8326SOL    HW137037   9.820   1.879   5.352  0.1031  1.0270 -0.1711
 8326SOL    HW237038   9.724   1.760   5.292  0.2829  1.4390 -1.3008
 8327SOL     OW37039   3.541   2.989   8.484  0.0253  0.2532  0.2365
 8327SOL    HW137040   3.458   2.955   8.529 -1.0577 -0.3368 -2.1495
 8327SOL    HW237041   3.544   3.089   8.491 -1.1382  0.3136 -0.0634
 8328SOL     OW37042   4.949   9.991   2.905 -0.1183  0.2977  0.1962
 8328SOL    HW137043   4.911  10.049   2.833 -2.4593  0.4565  1.5045
 8328SOL    HW237044   4.913  10.021   2.994  0.7035 -1.5037  1.1648
 8329SOL     OW37045   4.971   4.542   1.108  0.6940  0.1069  0.5462
 8329SOL    HW137046   4.963   4.466   1.043 -2.5274  1.2871 -0.5511
 8329SOL    HW237047   4.881   4.579   1.127  2.0458  2.6269  2.3519
 8330SOL     OW37048   4.175   7.083   7.929  0.0015  0.1227 -0.6602
 8330SOL    HW137049   4.199   6.986   7.942  0.0160  0.2785  0.5278
 8330SOL    HW237050   4.126   7.116   8.009  0.5182  1.2669 -0.8129
 8331SOL     OW37051   0.493   4.274   6.095 -0.2830 -0.1465  0.1675
 8331SOL    HW137052   0.488   4.369   6.065  2.0118  0.2912  1.0716
 8331SOL    HW237053   0.523   4.216   6.019  1.0389  0.2847  0.3432
 8332SOL     OW37054   6.759   6.656   3.890  0.1517  0.1090 -0.4427
 8332SOL    HW137055   6.799   6.679   3.979 -0.1220  0.6712 -0.4606
 8332SOL    HW237056   6.660   6.673   3.893  0.1964  0.4738 -0.9589
 8333SOL     OW37057   3.723   5.869   0.663 -0.0258 -0.2709 -0.1985
 8333SOL    HW137058   3.683   5.920   0.587  0.7890  0.8529  0.1152
 8333SOL    HW237059   3.815   5.904   0.683  0.9124 -2.4467 -0.5531
 8334SOL     OW37060   2.023   1.495   8.597 -0.1595  0.1013 -0.3180
 8334SOL    HW137061   2.034   1.400   8.565  3.1368  0.5279 -0.6995
 8334SOL    HW237062   2.058   1.502   8.690 -1.2689  0.7507  0.0489
 8335SOL     OW37063   1.015   9.941   1.817  0.3618 -0.3929  0.2877
 8335SOL    HW137064   0.923   9.943   1.777  0.7147  0.4855 -0.4859
 8335SOL    HW237065   1.028  10.022   1.874  0.4426 -0.8283  0.8940
 8336SOL     OW37066   8.790   7.453   5.589 -0.1597  0.1793  0.2582
 8336SOL    HW137067   8.732   7.534   5.599 -1.1095 -0.5021  0.2704
 8336SOL    HW237068   8.875   7.468   5.639  0.1138  1.5916 -0.5930
 8337SOL     OW37069   4.318   5.807   4.667 -0.6280  0.4392  0.3738
 8337SOL    HW137070   4.322   5.870   4.589  0.5238 -0.2925 -0.1731
 8337SOL    HW237071   4.261   5.847   4.739 -0.4865  1.7893 -0.2466
 8338SOL     OW37072   8.858   6.589   3.109  0.0026 -0.0519 -0.3061
 8338SOL    HW137073   8.775   6.616   3.157  0.1181 -0.9889  0.4492
 8338SOL    HW237074   8.921   6.545   3.174  1.2337  0.9797 -0.7977
 8339SOL     OW37075   3.234   2.505   7.449 -0.2251 -0.1689  0.2972
 8339SOL    HW137076   3.285   2.420   7.437  0.4697  0.4498 -1.4232
 8339SOL    HW237077   3.283   2.564   7.513  0.0839 -0.4665  0.3372
 8340SOL     OW37078   1.546   1.628   3.816 -0.1918  0.2033  0.1757
 8340SOL    HW137079   1.448   1.614   3.831  0.1197 -1.1112  1.0254
 8340SOL    HW237080   1.563   1.636   3.718 -1.4869  3.1987  0.1211
 8341SOL     OW37081   6.156   4.886   8.739 -0.2173  0.5553 -0.1891
 8341SOL    HW137082   6.164   4.944   8.820 -0.9637  1.2411 -0.6013
 8341SOL    HW237083   6.190   4.935   8.659  0.2884 -0.0295 -0.3376
 8342SOL     OW37084   0.046   7.308   2.856  0.5657 -0.3184 -0.2686
 8342SOL    HW137085  -0.020   7.340   2.925 -0.1949  0.3873 -1.3026
 8342SOL    HW237086   0.035   7.362   2.773  2.0541 -0.6097 -0.6578
 8343SOL     OW37087   4.063   5.326   9.340 -0.4806 -0.5192  0.5021
 8343SOL    HW137088   4.112   5.293   9.421  2.6865 -2.7688 -2.1601
 8343SOL    HW237089   4.020   5.249   9.294  2.0237 -0.1692 -2.6175
 8344SOL     OW37090   0.699   4.731   5.533  0.0428  0.0659 -0.4319
 8344SOL    HW137091   0.716   4.744   5.435  0.0934 -0.2410 -0.4643
 8344SOL    HW237092   0.780   4.690   5.575 -0.1419 -0.2050 -0.3430
 8345SOL     OW37093   9.054   5.770   5.392 -0.2197  0.0082  0.4781
 8345SOL    HW137094   9.035   5.722   5.306  0.1287  2.6280 -1.1278
 8345SOL    HW237095   9.139   5.737   5.431 -0.2101 -0.9869 -0.3751
 8346SOL     OW37096   5.064   2.382   0.811 -0.3811 -0.3598 -0.0745
 8346SOL    HW137097   5.036   2.293   0.775 -1.0882 -0.1277 -0.1094
 8346SOL    HW237098   5.025   2.455   0.755  0.3494 -0.0277 -0.1542
 8347SOL     OW37099   4.450   2.910   4.257 -0.2372  0.6747  0.3485
 8347SOL    HW137100   4.383   2.896   4.185 -0.6882 -0.4874  0.9758
 8347SOL    HW237101   4.535   2.861   4.235 -0.8398 -0.8129  1.2135
 8348SOL     OW37102   8.905   5.804   3.419  0.3135 -0.0614 -0.2818
 8348SOL    HW137103   8.838   5.812   3.346  0.4899 -1.7661 -0.6524
 8348SOL    HW237104   8.997   5.798   3.379  0.5083  0.1579  0.1281
 8349SOL     OW37105   4.722   3.919   6.634  0.5413 -0.8457 -0.0619
 8349SOL    HW137106   4.646   3.952   6.578  1.1373 -2.4323 -1.8563
 8349SOL    HW237107   4.703   3.825   6.663  0.2401 -0.0441  2.4491
 8350SOL     OW37108   1.771   6.305   5.241  0.0502  0.2182  0.3442
 8350SOL    HW137109   1.719   6.361   5.305 -1.5972 -0.1775 -0.6414
 8350SOL    HW237110   1.787   6.215   5.282 -3.6626 -1.1104 -0.9578
 8351SOL     OW37111   2.095   6.060   2.372  0.2608 -0.0205 -0.8983
 8351SOL    HW137112   2.024   6.020   2.313 -0.8692 -0.2868  0.6015
 8351SOL    HW237113   2.107   6.157   2.351  0.2803 -0.2536 -1.9521
 8352SOL     OW37114   2.865   2.371   4.105 -0.1442  0.7286 -0.4356
 8352SOL    HW137115   2.912   2.391   4.191  1.0487 -0.8352 -0.7179
 8352SOL    HW237116   2.913   2.415   4.030 -0.2584  0.7374 -0.5037
 8353SOL     OW37117   2.441   4.387   8.759 -0.5600  0.0080 -0.0136
 8353SOL    HW137118   2.463   4.432   8.672 -0.7925  0.8331  0.3476
 8353SOL    HW237119   2.494   4.429   8.832 -0.2739 -0.7693  0.2246
 8354SOL     OW37120   4.451   8.506   3.390 -0.1168 -0.6774  0.1769
 8354SOL    HW137121   4.456   8.437   3.462 -0.9380 -1.2507 -0.3053
 8354SOL    HW237122   4.360   8.547   3.390  0.6574  1.1215  1.1018
 8355SOL     OW37123   0.956   6.903   0.906  0.4026  0.6469  0.4543
 8355SOL    HW137124   1.042   6.954   0.909  0.9259 -0.2264  0.6988
 8355SOL    HW237125   0.880   6.963   0.930  0.9753  1.3714  0.4639
 8356SOL     OW37126   9.567   7.092   0.451  0.0082 -0.6068 -0.6017
 8356SOL    HW137127   9.567   7.093   0.351 -1.6672 -1.6064 -0.6176
 8356SOL    HW237128   9.481   7.055   0.485 -0.5069  2.1343  1.2607
 8357SOL     OW37129   2.444   3.320   9.218  0.2293 -0.2323 -0.0783
 8357SOL    HW137130   2.518   3.264   9.180  1.5348  0.2124  1.7149
 8357SOL    HW237131   2.375   3.335   9.148  1.7201 -0.8709 -1.7469
 8358SOL     OW37132   1.266   4.120   4.508  0.0214  0.3286  0.7587
 8358SOL    HW137133   1.228   4.075   4.589  0.1862  0.5719  0.9719
 8358SOL    HW237134   1.346   4.068   4.477 -0.3240 -0.0354  0.4637
 8359SOL     OW37135   2.876   8.814   6.012  0.6723 -0.3745  0.0841
 8359SOL    HW137136   2.900   8.818   6.110  2.4612  0.2905 -0.3612
 8359SOL    HW237137   2.939   8.872   5.960 -0.6871 -0.1894 -1.4032
 8360SOL     OW37138   4.599   3.072   6.626  0.1763 -0.4386  0.5628
 8360SOL    HW137139   4.599   3.043   6.722 -0.0775  1.0884  1.0329
 8360SOL    HW237140   4.562   3.164   6.619 -3.7625 -2.0131 -1.4568
 8361SOL     OW37141   9.648   1.294   6.976  0.4134 -0.1250  0.4953
 8361SOL    HW137142   9.593   1.287   6.893  3.3589  0.1606 -1.5429
 8361SOL    HW237143   9.686   1.205   6.999  1.2934  0.2136  0.3563
 8362SOL     OW37144   1.414   2.622   2.281 -0.2982  0.0516 -0.1746
 8362SOL    HW137145   1.489   2.579   2.332 -0.8871 -0.7432  0.0189
 8362SOL    HW237146   1.451   2.697   2.226  0.5771 -0.0560  0.2510
 8363SOL     OW37147   5.558   6.492   4.068 -0.6588 -0.2690  0.3022
 8363SOL    HW137148   5.623   6.525   4.000 -0.8826  0.3105  0.3601
 8363SOL    HW237149   5.465   6.519   4.042 -0.8791 -1.0847  0.2215
 8364SOL     OW37150   5.784   7.952   3.347 -0.2044  0.3923 -0.0615
 8364SOL    HW137151   5.728   7.940   3.264 -0.1856 -0.7542  0.0787
 8364SOL    HW237152   5.871   7.993   3.322  0.0583 -0.5310 -0.7148
 8365SOL     OW37153   5.539   3.162   2.930 -0.2875  0.2168  0.1698
 8365SOL    HW137154   5.449   3.206   2.942 -1.1854 -1.2196 -1.2286
 8365SOL    HW237155   5.606   3.232   2.904 -1.6286  0.8658 -1.6964
 8366SOL     OW37156   2.146   4.371   6.105  0.1030 -0.1200 -0.3065
 8366SOL    HW137157   2.204   4.373   6.024  0.1750  0.3456 -0.2436
 8366SOL    HW237158   2.053   4.347   6.079  0.2185 -0.4024 -0.4690
 8367SOL     OW37159   1.981   3.430   5.431  0.2043 -0.6126  1.0238
 8367SOL    HW137160   1.967   3.339   5.394  0.0875 -0.4623  0.6971
 8367SOL    HW237161   1.908   3.450   5.497 -0.6482 -0.1585 -0.0528
 8368SOL     OW37162   2.218   0.396   6.592  0.1035 -0.0802  0.4750
 8368SOL    HW137163   2.123   0.407   6.564  0.1176 -0.6137  0.2045
 8368SOL    HW237164   2.227   0.412   6.690  0.1105  2.1438  0.1277
 8369SOL     OW37165   8.623   8.796   8.637  0.4708 -0.1137  0.0207
 8369SOL    HW137166   8.698   8.760   8.581  0.2198 -1.5979  0.6220
 8369SOL    HW237167   8.536   8.780   8.590  0.4441  0.7717 -0.2444
 8370SOL     OW37168   5.051   6.134   5.427 -0.0232 -0.9582  0.9742
 8370SOL    HW137169   5.049   6.190   5.511  2.6224  0.2484  0.2734
 8370SOL    HW237170   4.973   6.159   5.369  0.4508  1.1589  1.2184
 8371SOL     OW37171   2.808   1.579   8.208 -0.0341 -0.5381  0.4126
 8371SOL    HW137172   2.822   1.482   8.227  0.4785 -0.6000 -0.2620
 8371SOL    HW237173   2.861   1.605   8.128  1.3050  0.7250  1.6837
 8372SOL     OW37174   6.639   5.806   2.447 -0.3210 -0.1146 -0.5935
 8372SOL    HW137175   6.547   5.776   2.473 -0.7908  1.7070 -0.0903
 8372SOL    HW237176   6.703   5.780   2.519 -0.8308  0.6210  0.1401
 8373SOL     OW37177   3.584   7.538   8.065  0.5738 -0.1737  0.1606
 8373SOL    HW137178   3.561   7.634   8.077 -0.4092  0.0058 -2.7532
 8373SOL    HW237179   3.502   7.482   8.077  0.9727 -0.5911  1.0092
 8374SOL     OW37180   4.576   5.324   5.621  0.0828 -0.8488 -0.0342
 8374SOL    HW137181   4.648   5.298   5.557  0.8247  0.5978  0.2098
 8374SOL    HW237182   4.596   5.287   5.712  0.6135 -0.2774  0.0795
 8375SOL     OW37183   6.154   2.982   4.379  0.2056  0.6705  0.2517
 8375SOL    HW137184   6.166   2.923   4.299  2.2301 -0.3429  1.2824
 8375SOL    HW237185   6.152   2.927   4.462 -0.2644  1.8590  1.0524
 8376SOL     OW37186   2.307   3.458   9.908 -0.0641  0.4618 -0.1575
 8376SOL    HW137187   2.384   3.508   9.869  1.4626 -0.1777  1.9551
 8376SOL    HW237188   2.300   3.479  10.006 -2.0067 -0.1993 -0.1379
 8377SOL     OW37189   3.948   1.506   5.338 -0.3668 -0.4851 -0.1890
 8377SOL    HW137190   3.956   1.534   5.242 -1.0926  0.4234  0.0018
 8377SOL    HW237191   3.984   1.414   5.349  0.2035 -0.3990 -1.2397
 8378SOL     OW37192   3.322   9.428   9.071 -0.5284 -0.1370 -0.0198
 8378SOL    HW137193   3.231   9.395   9.044 -0.7714 -1.4308  2.2533
 8378SOL    HW237194   3.367   9.360   9.128  2.7717 -0.4000 -2.7681
 8379SOL     OW37195   0.867   7.214   7.278  0.1911  0.2618  0.1123
 8379SOL    HW137196   0.809   7.287   7.313  0.7647  1.0876 -0.6371
 8379SOL    HW237197   0.858   7.133   7.337 -1.3748  0.5125  0.2568
 8380SOL     OW37198   1.896   8.509   9.159 -0.3426 -0.2794 -0.2308
 8380SOL    HW137199   1.943   8.534   9.074 -1.5434 -0.9297 -1.1147
 8380SOL    HW237200   1.919   8.415   9.184  0.6857  0.1978  0.6489
 8381SOL     OW37201   4.810   4.554   7.211 -0.1876 -0.1782  0.0591
 8381SOL    HW137202   4.797   4.640   7.162 -0.9241 -0.8419 -0.9206
 8381SOL    HW237203   4.764   4.480   7.161  0.4875 -1.1440  0.8689
 8382SOL     OW37204   5.331   9.822   1.638  0.2431 -0.4540  0.3004
 8382SOL    HW137205   5.288   9.832   1.728 -0.7496 -1.1921 -0.0857
 8382SOL    HW237206   5.419   9.871   1.637  0.4901 -0.8563  1.8124
 8383SOL     OW37207   3.384   1.530   5.396  0.0355  0.1950  0.2207
 8383SOL    HW137208   3.407   1.458   5.460  1.3196  0.9605  0.6323
 8383SOL    HW237209   3.295   1.569   5.420 -0.1389 -0.4770  0.6694
 8384SOL     OW37210   2.089   3.529   0.445 -0.7799  0.1976  0.6242
 8384SOL    HW137211   2.020   3.591   0.484 -1.7946  0.3145 -1.3361
 8384SOL    HW237212   2.124   3.568   0.360 -1.0419 -1.6845 -0.3529
 8385SOL     OW37213   3.501   2.004   5.484  0.4952 -0.5683  0.4732
 8385SOL    HW137214   3.503   1.908   5.456 -0.4866 -0.4460 -0.0570
 8385SOL    HW237215   3.485   2.062   5.404 -0.0992 -0.0515  0.9561
 8386SOL     OW37216   1.142   6.636   9.457  0.1697 -0.0480 -0.0646
 8386SOL    HW137217   1.145   6.654   9.358  3.5066 -0.7201 -0.1708
 8386SOL    HW237218   1.229   6.664   9.498 -0.7486 -0.8377  2.4909
 8387SOL     OW37219   5.477   9.239   6.329  0.6295 -0.0516  0.3953
 8387SOL    HW137220   5.516   9.228   6.238  0.7403 -0.4050  0.4830
 8387SOL    HW237221   5.383   9.204   6.330  0.9183 -0.8394  0.6284
 8388SOL     OW37222   6.427   2.780   8.359  0.2080 -0.5801  0.4566
 8388SOL    HW137223   6.332   2.810   8.346  0.4204  0.0438  0.3734
 8388SOL    HW237224   6.470   2.837   8.429  0.4789 -0.9645  0.6024
 8389SOL     OW37225   4.584   3.524   6.567 -0.0892 -0.0121  0.0606
 8389SOL    HW137226   4.521   3.595   6.599 -0.4596 -0.1730 -0.3127
 8389SOL    HW237227   4.628   3.480   6.646  0.7780  1.2096  0.2719
 8390SOL     OW37228   2.041   2.569   6.700 -1.0091  0.3056  0.6582
 8390SOL    HW137229   1.960   2.568   6.760 -0.7378 -3.4973  1.0725
 8390SOL    HW237230   2.054   2.479   6.661  1.2135  1.7126 -2.0093
 8391SOL     OW37231   1.653   2.972   7.923 -0.3162  0.2039 -0.3469
 8391SOL    HW137232   1.596   3.053   7.911 -0.8917 -0.2710 -0.8393
 8391SOL    HW237233   1.735   2.997   7.975  0.4389  1.5101 -2.1400
 8392SOL     OW37234   1.654   7.744   7.503 -0.4092  0.1184  0.2872
 8392SOL    HW137235   1.719   7.687   7.552 -1.4847 -0.8241  0.6347
 8392SOL    HW237236   1.689   7.763   7.411  1.1443  1.0656  1.0474
 8393SOL     OW37237   5.579   0.056   5.589 -0.2785  0.3493 -0.8904
 8393SOL    HW137238   5.622   0.022   5.505  2.0792 -0.7664  0.6950
 8393SOL    HW237239   5.615   0.147   5.610  0.7456 -0.2490  0.0076
 8394SOL     OW37240   3.029   8.021   6.183  0.1152 -0.1859 -0.1525
 8394SOL    HW137241   3.018   8.090   6.110  0.2573 -0.1813 -0.1684
 8394SOL    HW237242   3.120   8.029   6.223  0.9463 -1.8130 -1.6378
 8395SOL     OW37243   0.004   6.756   9.676 -0.2002 -0.2107  0.1347
 8395SOL    HW137244   0.053   6.774   9.591 -1.0997 -0.7216 -0.4889
 8395SOL    HW237245   0.070   6.754   9.752  0.3972  1.9080 -0.2854
 8396SOL     OW37246   9.242   8.482   0.526 -0.3472 -0.0109  0.6046
 8396SOL    HW137247   9.266   8.571   0.487  0.1460  0.7581  2.6211
 8396SOL    HW237248   9.297   8.465   0.608  1.1918 -3.1969 -1.0075
 8397SOL     OW37249   0.598   7.297   6.131 -0.3016  0.1283 -0.0570
 8397SOL    HW137250   0.594   7.234   6.209 -1.8934  1.1384  0.6930
 8397SOL    HW237251   0.518   7.284   6.074 -0.3692  1.1077 -0.1871
 8398SOL     OW37252   0.237   2.269   9.295 -0.3698  0.2121 -0.6326
 8398SOL    HW137253   0.198   2.231   9.378  1.0852 -0.4979 -0.2500
 8398SOL    HW237254   0.227   2.203   9.220  1.7481 -0.8131 -0.0768
 8399SOL     OW37255   5.004   9.916   6.628 -0.4522 -0.8089  0.0921
 8399SOL    HW137256   4.942   9.991   6.649  0.7896  0.2721 -0.0189
 8399SOL    HW237257   4.986   9.839   6.689 -1.5729 -0.3311  0.3690
 8400SOL     OW37258   9.320   4.531   7.106 -0.2084  0.0491  0.1316
 8400SOL    HW137259   9.350   4.439   7.080  0.6658  0.4034 -0.1411
 8400SOL    HW237260   9.329   4.543   7.205  0.9482  0.2886  0.0027
 8401SOL     OW37261   1.820   7.549   6.063 -0.7192 -0.6208  0.8830
 8401SOL    HW137262   1.788   7.465   6.019 -1.3527  0.5891 -1.0502
 8401SOL    HW237263   1.802   7.627   6.003 -0.1942  0.9167  2.6655
 8402SOL     OW37264   9.173   2.660   8.785  0.2225  0.4050 -0.0576
 8402SOL    HW137265   9.227   2.734   8.746 -0.3323  0.6593 -0.3539
 8402SOL    HW237266   9.227   2.576   8.787  2.0998  1.5970  3.5119
 8403SOL     OW37267   6.992   2.107   7.434  0.2860  0.1834  0.0624
 8403SOL    HW137268   6.990   2.189   7.377 -2.3996  0.4622  0.4963
 8403SOL    HW237269   7.025   2.130   7.526  0.5533  0.5552 -0.1276
 8404SOL     OW37270   1.090   5.102   0.308  0.2834  0.3709 -0.0716
 8404SOL    HW137271   1.034   5.133   0.384 -1.2383 -0.1414 -0.9694
 8404SOL    HW237272   1.094   5.002   0.308  1.3411  0.4114  0.0937
 8405SOL     OW37273   5.000   4.549   0.492  0.1036  0.1516 -0.3697
 8405SOL    HW137274   5.024   4.465   0.444 -2.1533  1.0315 -3.1670
 8405SOL    HW237275   5.080   4.581   0.544  1.5836 -2.6132 -0.8226
 8406SOL     OW37276   3.443   3.348   1.432  0.3901  0.1349  0.1545
 8406SOL    HW137277   3.484   3.267   1.390 -0.9068 -0.1606 -0.5750
 8406SOL    HW237278   3.474   3.429   1.383  0.8375 -0.0073  0.1959
 8407SOL     OW37279   9.185   5.864   2.013 -0.8264  0.3964  0.1327
 8407SOL    HW137280   9.174   5.963   2.022 -2.2176  0.2478  0.0719
 8407SOL    HW237281   9.275   5.844   1.972 -0.1599  1.5881  0.9858
 8408SOL     OW37282   9.146   7.111   7.485  0.0051 -0.2334  0.0798
 8408SOL    HW137283   9.112   7.152   7.570  0.8092  0.2272  0.1882
 8408SOL    HW237284   9.237   7.071   7.501  0.0902 -0.2932 -0.5266
 8409SOL     OW37285   5.338   6.008   8.215  0.1695  0.2617  0.0998
 8409SOL    HW137286   5.260   6.032   8.157  0.7323 -0.5987 -1.0306
 8409SOL    HW237287   5.338   6.067   8.296 -1.7289  0.1664  0.1978
 8410SOL     OW37288   4.141   6.328   7.858  0.4220  0.8288 -0.1208
 8410SOL    HW137289   4.141   6.230   7.879 -0.1962  0.6342 -0.9921
 8410SOL    HW237290   4.137   6.380   7.943 -0.1288  0.0803  0.3162
 8411SOL     OW37291   5.616   8.168   4.467  0.1904 -0.1002  0.4908
 8411SOL    HW137292   5.574   8.159   4.557 -2.0126  0.6973 -0.4342
 8411SOL    HW237293   5.651   8.079   4.438 -1.9882 -1.0714  0.7347
 8412SOL     OW37294   7.399   3.719   9.052  0.2157  0.0128 -0.0911
 8412SOL    HW137295   7.370   3.741   9.145 -0.9324 -2.7023  0.2352
 8412SOL    HW237296   7.322   3.735   8.989  0.1333 -0.7721 -0.1876
 8413SOL     OW37297   7.335   0.115   4.043 -0.3598 -0.1715  0.3377
 8413SOL    HW137298   7.371   0.129   3.951 -0.2252 -0.1633  0.3915
 8413SOL    HW237299   7.335   0.017   4.064 -0.3903 -0.1733  0.3283
 8414SOL     OW37300   2.157   4.811   4.444 -0.0611 -0.2552  0.4305
 8414SOL    HW137301   2.229   4.742   4.435 -0.1531 -0.5292  1.6524
 8414SOL    HW237302   2.122   4.810   4.538 -0.7816  0.7455  0.1786
 8415SOL     OW37303   7.760   7.126   4.675  0.3068  0.6269 -0.0537
 8415SOL    HW137304   7.796   7.068   4.749  1.1870 -0.2247 -1.1283
 8415SOL    HW237305   7.719   7.208   4.714  2.6024  1.1957  1.2879
 8416SOL     OW37306   9.749   3.421   5.920  0.1094 -0.1042 -0.8006
 8416SOL    HW137307   9.659   3.460   5.898  0.1003  0.4534  0.1943
 8416SOL    HW237308   9.740   3.323   5.934 -0.0265 -0.3470 -2.4522
 8417SOL     OW37309   2.892   8.112   0.275  0.5157 -0.5475  0.1600
 8417SOL    HW137310   2.889   8.117   0.375  0.8484 -0.5373  0.1704
 8417SOL    HW237311   2.895   8.205   0.238  1.1804 -0.5627  0.1679
 8418SOL     OW37312   3.578   9.871   6.810 -0.7390 -0.0846 -0.2724
 8418SOL    HW137313   3.539   9.953   6.852 -0.2762 -0.3502  0.6852
 8418SOL    HW237314   3.560   9.792   6.869  2.0225 -0.0684  0.6486
 8419SOL     OW37315   1.936   4.826   8.106  0.0239 -0.1121 -0.5443
 8419SOL    HW137316   1.880   4.794   8.182  0.7850 -0.5780 -0.1733
 8419SOL    HW237317   2.016   4.875   8.142 -0.4714  1.1245 -1.0808
 8420SOL     OW37318   2.705   8.958   9.403 -0.6750 -0.2610 -0.2548
 8420SOL    HW137319   2.736   8.944   9.309  1.9535  3.1376  0.0199
 8420SOL    HW237320   2.644   9.037   9.407  1.6886  1.5719  1.2828
 8421SOL     OW37321   0.586   4.772   3.869  0.0423  0.7435 -0.4231
 8421SOL    HW137322   0.606   4.682   3.830 -0.7379 -0.6913  2.3553
 8421SOL    HW237323   0.666   4.831   3.859  0.6850 -0.3455 -1.9580
 8422SOL     OW37324   7.353   0.780   0.192  0.0850  0.5912 -0.2511
 8422SOL    HW137325   7.375   0.820   0.103 -0.9187 -1.1570 -1.3205
 8422SOL    HW237326   7.350   0.681   0.184 -1.0512  0.4568  1.4911
 8423SOL     OW37327   2.339   1.696   7.147  0.2250  0.0303  0.0434
 8423SOL    HW137328   2.329   1.652   7.236  2.9939  1.0046  0.9034
 8423SOL    HW237329   2.423   1.664   7.103 -0.5621  0.3582 -1.7487
 8424SOL     OW37330   4.028   6.238   4.920  0.2903  0.1061 -0.4078
 8424SOL    HW137331   4.088   6.243   5.000 -1.6913  0.3965  1.1098
 8424SOL    HW237332   3.932   6.239   4.950 -0.4932 -0.0828 -2.7785
 8425SOL     OW37333   1.794   2.291   6.529  0.1004  0.7054 -0.1061
 8425SOL    HW137334   1.851   2.225   6.482  1.4681  1.9983 -0.2908
 8425SOL    HW237335   1.780   2.262   6.624  2.0907  1.0030  0.2917
 8426SOL     OW37336   8.562   4.852   5.428  0.0063  0.3777 -0.0429
 8426SOL    HW137337   8.585   4.878   5.522  1.8218  2.1725 -0.9353
 8426SOL    HW237338   8.527   4.758   5.426 -1.6818  0.9045  2.6269
 8427SOL     OW37339   8.682   4.327   7.262  0.1529  0.5405 -0.0823
 8427SOL    HW137340   8.759   4.354   7.320  1.4408 -0.9177 -1.0671
 8427SOL    HW237341   8.626   4.406   7.242  1.8562  1.8025  0.0097
 8428SOL     OW37342   0.277   3.200   4.739  0.2449 -0.1647 -0.1384
 8428SOL    HW137343   0.258   3.227   4.833 -0.5910 -3.2398  0.6172
 8428SOL    HW237344   0.194   3.213   4.684  0.9537  2.3787 -0.6876
 8429SOL     OW37345   1.946   8.735   1.033  0.4985  0.1242 -0.0109
 8429SOL    HW137346   2.034   8.692   1.011  0.1761 -0.9996  0.8490
 8429SOL    HW237347   1.883   8.666   1.068 -1.1101  0.7219 -1.6449
 8430SOL     OW37348   4.028   5.336   1.392 -0.1397 -0.4976 -0.2455
 8430SOL    HW137349   3.934   5.306   1.411 -0.4932 -0.3385 -1.6893
 8430SOL    HW237350   4.091   5.259   1.402 -0.5057 -0.7581  0.0739
 8431SOL     OW37351   3.434   2.277   5.324  0.2204  0.3770 -0.5711
 8431SOL    HW137352   3.375   2.355   5.343  0.8491  0.6024  0.5025
 8431SOL    HW237353   3.410   2.237   5.236 -0.7729  1.1643 -0.6589
 8432SOL     OW37354   0.199   1.365   9.974 -0.2818  0.0347 -0.3921
 8432SOL    HW137355   0.272   1.361   9.905  1.0510  0.6600  0.9586
 8432SOL    HW237356   0.201   1.282  10.029  0.4555  0.7504  0.6748
 8433SOL     OW37357   2.836   2.818   6.100 -0.1549  0.0919  0.3081
 8433SOL    HW137358   2.764   2.752   6.116  1.8468 -2.7958 -1.9682
 8433SOL    HW237359   2.900   2.817   6.177 -0.6800  0.1367  0.7486
 8434SOL     OW37360   6.291   4.245   1.966  0.0929  0.5774 -0.3011
 8434SOL    HW137361   6.207   4.199   1.995 -0.0831  1.6488  0.9454
 8434SOL    HW237362   6.316   4.214   1.875 -0.0542 -1.9172  0.4736
 8435SOL     OW37363   1.212   3.708   3.438  0.4436 -0.4206  0.6118
 8435SOL    HW137364   1.222   3.731   3.341  0.6827  0.2005  0.7804
 8435SOL    HW237365   1.175   3.615   3.447  1.2768 -0.8351 -0.0752
 8436SOL     OW37366   2.059   1.152   8.248  0.1383 -0.5593 -0.1321
 8436SOL    HW137367   2.036   1.062   8.212 -0.3176 -0.6644  0.4262
 8436SOL    HW237368   2.045   1.221   8.177 -1.8270 -0.6276  0.1677
 8437SOL     OW37369   1.348   7.075   4.111 -0.0333 -0.1684  0.5113
 8437SOL    HW137370   1.251   7.060   4.133 -0.4029 -0.2485 -1.1322
 8437SOL    HW237371   1.382   7.154   4.161 -0.8693 -0.2955  1.2981
 8438SOL     OW37372   2.333   6.073   2.508  0.2031 -0.3770  0.7018
 8438SOL    HW137373   2.343   6.014   2.588  1.5985 -1.1476 -0.0192
 8438SOL    HW237374   2.243   6.060   2.468 -0.0097 -0.9778  1.3574
 8439SOL     OW37375   0.607   5.602   5.801  0.2971  0.1822 -0.0421
 8439SOL    HW137376   0.662   5.678   5.836 -1.4377  1.6599 -0.4587
 8439SOL    HW237377   0.663   5.519   5.798  1.3702  0.7126  3.2770
 8440SOL     OW37378   4.543   6.465   5.353 -0.1317  0.5149  0.3502
 8440SOL    HW137379   4.554   6.486   5.450 -1.1520 -0.7232  0.7492
 8440SOL    HW237380   4.495   6.378   5.343  1.4912 -0.2408 -1.2551
 8441SOL     OW37381   0.157   2.558   0.356 -0.5349 -0.2591 -0.4163
 8441SOL    HW137382   0.198   2.535   0.268  1.0941 -0.9757  0.5060
 8441SOL    HW237383   0.107   2.644   0.349  1.1527  0.6493 -1.5668
 8442SOL     OW37384   1.302   2.762   7.283 -0.5912 -0.1506 -0.3584
 8442SOL    HW137385   1.287   2.850   7.238  0.4580  0.4022  0.3447
 8442SOL    HW237386   1.289   2.688   7.217 -0.2580  0.5876 -1.2585
 8443SOL     OW37387   6.515   8.422   2.479  0.0779  0.1075 -0.4040
 8443SOL    HW137388   6.574   8.344   2.460 -1.2282 -1.2326  0.8871
 8443SOL    HW237389   6.482   8.417   2.573 -0.6030  1.8351 -0.5234
 8444SOL     OW37390   9.689   4.032   5.994  0.6077  0.1009  0.4837
 8444SOL    HW137391   9.692   3.975   6.076  1.0277 -0.7248 -0.1007
 8444SOL    HW237392   9.764   4.098   5.996 -0.8973  1.8043  1.9935
 8445SOL     OW37393   3.822   2.079   4.722  0.4790  0.0046 -0.4196
 8445SOL    HW137394   3.903   2.028   4.750  1.5554  0.5848 -2.3737
 8445SOL    HW237395   3.757   2.017   4.678  0.7493 -0.0964 -0.6772
 8446SOL     OW37396   2.061   4.075   5.195  0.2245  0.4090  0.6506
 8446SOL    HW137397   2.014   4.082   5.283  0.4976 -0.6400  0.8811
 8446SOL    HW237398   2.125   3.998   5.197  2.0276  1.8640  0.3808
 8447SOL     OW37399   0.724   4.782   5.872 -0.1449 -0.1560 -0.0873
 8447SOL    HW137400   0.752   4.874   5.847  0.4620  0.0956  1.4859
 8447SOL    HW237401   0.794   4.717   5.841 -0.0636  0.0134 -0.2637
 8448SOL     OW37402   6.823   4.789   8.281  0.2615  0.8971  0.0850
 8448SOL    HW137403   6.917   4.764   8.304  0.8532  2.2531 -0.7749
 8448SOL    HW237404   6.824   4.856   8.207 -1.4687 -0.6989 -1.4322
 8449SOL     OW37405   3.084   6.710   9.562  0.5227 -0.4194  0.2828
 8449SOL    HW137406   3.084   6.621   9.514 -0.2758 -0.1249 -0.2695
 8449SOL    HW237407   3.036   6.778   9.506  0.6442  0.2270  0.9608
 8450SOL     OW37408   2.648   3.243   6.994 -0.0728 -0.8020 -0.0297
 8450SOL    HW137409   2.637   3.214   6.899  0.7753  2.5880 -1.2165
 8450SOL    HW237410   2.568   3.215   7.047 -0.8087 -2.2383 -1.8365
 8451SOL     OW37411   4.588   2.844   0.353 -0.1141  0.4067  0.0376
 8451SOL    HW137412   4.623   2.860   0.261  0.8677  0.0317  0.3429
 8451SOL    HW237413   4.564   2.747   0.363  1.1292  0.1441  0.6226
 8452SOL     OW37414   9.836   6.178   3.559  0.6130  0.3859  0.6359
 8452SOL    HW137415   9.887   6.139   3.482  0.5659  0.5033  0.5448
 8452SOL    HW237416   9.878   6.149   3.645  1.4703  1.3455  0.5515
 8453SOL     OW37417   1.774   4.262   8.383 -0.5982 -0.0087 -0.3198
 8453SOL    HW137418   1.710   4.238   8.456 -0.8620  0.8062 -0.2849
 8453SOL    HW237419   1.844   4.191   8.376 -0.8488 -0.3291  0.3999
 8454SOL     OW37420   1.984   3.601   4.198  0.1763 -0.0542  0.4725
 8454SOL    HW137421   1.977   3.636   4.292  0.7701 -0.7286  0.7822
 8454SOL    HW237422   2.080   3.579   4.179  0.2202  1.0655 -0.6614
 8455SOL     OW37423   3.907   7.125   0.458  0.4474  0.1092  0.2144
 8455SOL    HW137424   3.849   7.090   0.532  1.3751 -1.5439  0.1824
 8455SOL    HW237425   3.893   7.070   0.376  0.8746  0.7106 -0.2625
 8456SOL     OW37426   4.777   4.678   4.084  0.3662 -0.3903 -0.2048
 8456SOL    HW137427   4.800   4.593   4.132  1.0721 -0.1876 -0.1720
 8456SOL    HW237428   4.779   4.755   4.148 -2.6327 -0.6602  0.2780
 8457SOL     OW37429   9.418   4.048   9.396 -0.6709 -0.2951  0.0625
 8457SOL    HW137430   9.332   4.017   9.437 -1.5032  0.3936 -1.1378
 8457SOL    HW237431   9.423   4.018   9.301  0.3729 -0.2497  0.0977
 8458SOL     OW37432   2.638   5.439   7.753 -0.2545 -0.2686  0.6855
 8458SOL    HW137433   2.737   5.453   7.758 -0.1366 -0.8494  0.0643
 8458SOL    HW237434   2.616   5.344   7.777 -0.5831 -0.3564  0.0728
 8459SOL     OW37435   1.568   7.753   5.640  0.1326  0.1177  0.1764
 8459SOL    HW137436   1.643   7.722   5.698  0.7937  0.6549 -0.3819
 8459SOL    HW237437   1.604   7.783   5.552 -1.0239 -2.1958 -1.1351
 8460SOL     OW37438   1.745   9.838   3.291  0.1970  0.0544 -0.5343
 8460SOL    HW137439   1.662   9.785   3.303  0.5509 -0.0862  1.5823
 8460SOL    HW237440   1.805   9.793   3.225 -1.7653  0.6463 -2.8019
 8461SOL     OW37441   4.019   5.203   6.898 -0.3307 -0.1694  0.0619
 8461SOL    HW137442   4.079   5.251   6.835 -1.0031 -1.0648 -1.3027
 8461SOL    HW237443   4.064   5.193   6.987  1.2172 -0.1321 -0.6989
 8462SOL     OW37444   7.187   2.097   4.402 -0.2081  0.4070 -0.6038
 8462SOL    HW137445   7.164   2.000   4.398  0.7284  0.2232 -2.0405
 8462SOL    HW237446   7.238   2.115   4.487 -1.0916 -0.1819  0.0658
 8463SOL     OW37447   5.256   6.772   5.490 -0.1660  0.2308  0.1324
 8463SOL    HW137448   5.198   6.779   5.571 -0.0525  1.9447  0.0860
 8463SOL    HW237449   5.352   6.762   5.519 -0.2875 -0.7599  0.2047
 8464SOL     OW37450   2.799   6.192   2.440 -0.3872 -0.3931  0.2782
 8464SOL    HW137451   2.830   6.100   2.464 -2.1701 -1.5883 -1.8424
 8464SOL    HW237452   2.699   6.192   2.431 -0.2991  1.4552 -0.9434
 8465SOL     OW37453   3.838   6.221   3.526  0.6710  0.0675 -0.1393
 8465SOL    HW137454   3.863   6.292   3.591 -0.4602  0.0236  0.3589
 8465SOL    HW237455   3.920   6.185   3.482  1.3844  0.5341  0.8088
 8466SOL     OW37456   7.385   3.462   9.801  0.3467 -0.1282 -0.6288
 8466SOL    HW137457   7.307   3.406   9.773 -0.0941  0.3898 -0.4684
 8466SOL    HW237458   7.370   3.556   9.772 -0.5849  0.6332  2.1058
 8467SOL     OW37459   4.466   8.844   3.657  0.4387 -0.0042 -0.1545
 8467SOL    HW137460   4.537   8.779   3.685  0.7526  0.7434  0.7822
 8467SOL    HW237461   4.500   8.899   3.581  0.9236  0.4518  0.3868
 8468SOL     OW37462   8.447   4.073   6.218 -0.3037 -0.6091  0.4026
 8468SOL    HW137463   8.509   4.151   6.206 -0.0197 -0.6349  1.6514
 8468SOL    HW237464   8.490   3.991   6.180  1.3986 -1.0619  3.1042
 8469SOL     OW37465   3.773   0.221   3.995 -0.1483  0.4436  0.2893
 8469SOL    HW137466   3.701   0.170   3.948 -0.1809  0.5039  0.2732
 8469SOL    HW237467   3.766   0.205   4.093  0.0004  0.2155  0.2631
 8470SOL     OW37468   9.677   9.220   7.920  0.1567 -0.5901  0.1366
 8470SOL    HW137469   9.768   9.255   7.900 -0.1676 -1.5467 -3.2084
 8470SOL    HW237470   9.609   9.267   7.864 -1.3876 -0.2375  2.2240
 8471SOL     OW37471   1.028   4.865   3.216  0.1264  0.7412 -0.1036
 8471SOL    HW137472   1.064   4.838   3.127  1.0829  0.4343  0.3767
 8471SOL    HW237473   0.937   4.824   3.229  0.2485  0.2855 -0.6746
 8472SOL     OW37474   9.286   3.538   8.777 -0.6951 -0.5149  0.1214
 8472SOL    HW137475   9.261   3.453   8.823  1.0847 -0.3785  1.3620
 8472SOL    HW237476   9.384   3.536   8.753 -0.4542  1.5051  0.8643
 8473SOL     OW37477   1.624   5.106   9.009 -0.1566 -0.1199 -0.1354
 8473SOL    HW137478   1.592   5.047   8.935  1.3397 -0.1038 -0.8176
 8473SOL    HW237479   1.651   5.194   8.972 -0.7167  0.3757  0.6328
 8474SOL     OW37480   2.565   2.896   4.374  0.7512 -0.1632  0.0188
 8474SOL    HW137481   2.542   2.821   4.437  1.8016 -0.4127  0.1149
 8474SOL    HW237482   2.508   2.975   4.395 -2.0610 -1.6733 -1.6102
 8475SOL     OW37483   0.411   7.101   7.274 -0.5095 -0.2761 -0.3354
 8475SOL    HW137484   0.449   7.127   7.363 -2.7988  1.3966  0.1907
 8475SOL    HW237485   0.474   7.129   7.201  0.1557  0.7456  0.6163
 8476SOL     OW37486   9.164   1.072   4.615 -0.3144  0.3511  0.0743
 8476SOL    HW137487   9.225   1.086   4.692 -2.1737 -1.1560  1.8629
 8476SOL    HW237488   9.173   0.978   4.582 -0.3941  0.6468 -0.8299
 8477SOL     OW37489   1.418   4.295   3.445 -0.1328  0.1102  0.0114
 8477SOL    HW137490   1.491   4.240   3.403 -0.9332 -0.6580 -0.3792
 8477SOL    HW237491   1.397   4.259   3.535 -1.0726 -0.5958 -0.4866
 8478SOL     OW37492   0.925   5.518   6.267  0.5792 -0.1354  0.0708
 8478SOL    HW137493   0.849   5.542   6.327  0.6341 -1.4742  0.6911
 8478SOL    HW237494   1.010   5.515   6.320  1.1314  1.6609 -0.6802
 8479SOL     OW37495   0.252   6.469   3.096  0.3273  0.1513 -0.0260
 8479SOL    HW137496   0.249   6.427   3.005  0.0497  0.3914 -0.1303
 8479SOL    HW237497   0.330   6.532   3.101 -0.0700  0.6676 -0.3340
 8480SOL     OW37498   4.263   5.960   6.430 -0.3878 -0.1643  0.4574
 8480SOL    HW137499   4.177   6.011   6.437  0.8128  1.6485  2.8425
 8480SOL    HW237500   4.333   6.006   6.485  1.6323 -2.6126  0.0042
 8481SOL     OW37501   1.936   7.163   6.253 -0.3797 -0.5195 -0.1074
 8481SOL    HW137502   1.971   7.091   6.192  1.4842 -0.7394  1.1649
 8481SOL    HW237503   1.873   7.122   6.319  0.4865 -0.9630  0.4577
 8482SOL     OW37504   4.866   5.198   3.632  0.0800  0.3806  0.4185
 8482SOL    HW137505   4.958   5.228   3.658 -0.1383  0.9434  0.5565
 8482SOL    HW237506   4.799   5.266   3.664 -0.2776  0.5863 -0.7408
 8483SOL     OW37507   0.647   8.542   7.653  0.1722  0.2024 -0.2256
 8483SOL    HW137508   0.560   8.547   7.605  0.0886 -0.6739 -0.1776
 8483SOL    HW237509   0.721   8.527   7.587  0.2772  0.8238 -0.2540
 8484SOL     OW37510   5.069   1.585   9.964  0.3705  0.8198  0.1299
 8484SOL    HW137511   4.997   1.516   9.964  1.2862 -0.1541 -1.0835
 8484SOL    HW237512   5.066   1.636  10.050 -2.5381  1.6295 -0.3787
 8485SOL     OW37513   7.684   8.410   5.861  0.1704  0.3537  0.5863
 8485SOL    HW137514   7.775   8.370   5.851 -0.1706 -0.0681 -0.9465
 8485SOL    HW237515   7.623   8.344   5.905 -0.2522 -0.6316 -1.4453
 8486SOL     OW37516   8.850   2.881   9.531 -0.2989  0.5357 -0.0272
 8486SOL    HW137517   8.817   2.940   9.605 -0.6677 -0.9463  1.0098
 8486SOL    HW237518   8.834   2.785   9.555 -0.7046  0.0368 -2.1695
 8487SOL     OW37519   0.261   4.560   4.367 -0.1743 -0.2203  0.0793
 8487SOL    HW137520   0.200   4.488   4.333 -0.2068  0.2991 -1.0010
 8487SOL    HW237521   0.353   4.522   4.378 -0.6117 -0.9282  1.4233
 8488SOL     OW37522   1.489   4.163   5.104 -0.1009 -0.0210 -0.1140
 8488SOL    HW137523   1.454   4.159   5.010 -1.9745  1.3100  0.5081
 8488SOL    HW237524   1.569   4.222   5.108 -0.1739  0.1285 -0.8357
 8489SOL     OW37525   2.147   4.028   6.560  0.2138 -0.8257 -0.1542
 8489SOL    HW137526   2.160   4.071   6.650 -0.9700  0.0036 -0.3687
 8489SOL    HW237527   2.233   4.030   6.509  0.2603  1.0188 -0.0339
 8490SOL     OW37528   6.669   3.926   7.474 -0.2139 -0.0257 -0.3241
 8490SOL    HW137529   6.668   3.903   7.377 -0.3241 -1.1420 -0.0633
 8490SOL    HW237530   6.756   3.968   7.497  0.6253 -1.6109 -0.4971
 8491SOL     OW37531   1.451   6.067   4.007 -0.3493  0.1369  0.3863
 8491SOL    HW137532   1.390   6.042   4.082  0.3050  2.1437  1.6147
 8491SOL    HW237533   1.399   6.068   3.921 -0.8807 -3.1256  0.6020
 8492SOL     OW37534   3.748   3.580   2.366  0.6537 -0.1069  0.4156
 8492SOL    HW137535   3.801   3.662   2.343 -0.8495  0.8906  0.4216
 8492SOL    HW237536   3.691   3.554   2.289  0.6947 -0.8003  0.6204
 8493SOL     OW37537   5.229   8.423   0.637  0.7086  0.0567 -0.2964
 8493SOL    HW137538   5.162   8.448   0.567 -0.9633  1.5107  1.7690
 8493SOL    HW237539   5.235   8.324   0.642 -2.5418 -0.1622  0.5980
 8494SOL     OW37540   3.119   2.271   3.802 -0.7090  0.2568  0.0461
 8494SOL    HW137541   3.090   2.367   3.799 -0.1741  0.3746 -1.8361
 8494SOL    HW237542   3.051   2.214   3.756 -1.7476 -0.4850  2.4282
 8495SOL     OW37543   9.472   1.012   8.218 -0.2070  0.4715  0.0434
 8495SOL    HW137544   9.418   1.066   8.282 -2.4557 -0.5892 -0.8774
 8495SOL    HW237545   9.429   0.923   8.205  3.1472 -1.4050  1.1528
 8496SOL     OW37546   7.161   9.340   4.876  0.1193 -0.0594 -0.0774
 8496SOL    HW137547   7.069   9.308   4.895  0.0811 -0.1984 -0.4862
 8496SOL    HW237548   7.227   9.270   4.903  0.0785 -0.1491 -0.2089
 8497SOL     OW37549   9.368   5.992   7.562 -0.1955 -0.0598 -0.7358
 8497SOL    HW137550   9.408   6.083   7.563  1.6853 -0.8595  1.6619
 8497SOL    HW237551   9.289   5.988   7.623  0.4251 -0.3262  0.0534
 8498SOL     OW37552   1.892   1.256   6.674  0.6075  0.1571  0.2837
 8498SOL    HW137553   1.818   1.204   6.633  1.7657 -0.7748 -0.6678
 8498SOL    HW237554   1.913   1.335   6.616  1.1785 -0.2701 -0.0957
 8499SOL     OW37555   2.873   0.906   3.843 -0.2403 -0.0898 -0.3168
 8499SOL    HW137556   2.934   0.869   3.913 -0.2852  0.0528 -0.2023
 8499SOL    HW237557   2.847   1.000   3.867 -2.4173 -0.9419  0.8823
 8500SOL     OW37558   1.894   7.468   7.136  0.1194  0.3524  0.1039
 8500SOL    HW137559   1.926   7.475   7.041  1.7906  0.2891  0.6463
 8500SOL    HW237560   1.909   7.374   7.169 -1.4946  0.0669  0.0863
 8501SOL     OW37561   3.682   6.015   3.629  0.2842  0.0116 -0.3543
 8501SOL    HW137562   3.767   5.962   3.636  0.2263 -0.0343  0.0278
 8501SOL    HW237563   3.703   6.112   3.632  0.4336  0.0288 -1.5269
 8502SOL     OW37564   0.738   1.635   1.470  0.5137 -0.3975  0.5178
 8502SOL    HW137565   0.691   1.590   1.545  0.8173 -1.1096  0.2824
 8502SOL    HW237566   0.731   1.579   1.387  0.7526  0.0598  0.1854
 8503SOL     OW37567   1.503   5.454   5.104 -0.0216  0.6762  0.1228
 8503SOL    HW137568   1.521   5.440   5.201  3.6098  0.2085 -0.5580
 8503SOL    HW237569   1.567   5.398   5.050 -1.1763  1.8638 -2.5342
 8504SOL     OW37570   2.339   4.360   5.902 -0.1595  0.0578  0.3639
 8504SOL    HW137571   2.299   4.382   5.812  0.1752  2.3555  0.7487
 8504SOL    HW237572   2.434   4.333   5.890  0.5414  2.4949  0.2019
 8505SOL     OW37573   1.701   6.696   9.370 -0.2450 -0.7650 -0.1661
 8505SOL    HW137574   1.637   6.747   9.311  0.1607 -0.4541 -0.3354
 8505SOL    HW237575   1.755   6.633   9.314  0.2544 -0.3540 -0.1493
 8506SOL     OW37576   3.525   3.698   7.279 -0.3343 -0.1593  0.2540
 8506SOL    HW137577   3.459   3.686   7.205  0.9427  0.9133 -1.0871
 8506SOL    HW237578   3.510   3.786   7.323 -0.5527 -0.4306  0.7227
 8507SOL     OW37579   0.244   2.959   0.395  0.1327 -0.8067  0.4670
 8507SOL    HW137580   0.154   2.999   0.380  0.7963  0.6943  0.4176
 8507SOL    HW237581   0.265   2.959   0.493  0.2371 -0.7945  0.4449
 8508SOL     OW37582   6.619   8.130   7.829  0.5309  0.5845  0.1305
 8508SOL    HW137583   6.710   8.095   7.851 -0.1926 -1.5698 -0.2256
 8508SOL    HW237584   6.601   8.212   7.884  1.1754 -1.1715  3.0549
 8509SOL     OW37585   0.491   1.554   8.635 -0.1129  0.1368  0.3451
 8509SOL    HW137586   0.448   1.567   8.545  0.2191 -0.0296  0.1628
 8509SOL    HW237587   0.488   1.457   8.659  4.6475 -0.7429 -1.9604
 8510SOL     OW37588   9.239   5.665   5.643  0.4453 -0.1265  0.2839
 8510SOL    HW137589   9.227   5.762   5.664  0.3646 -0.3355  1.2353
 8510SOL    HW237590   9.212   5.611   5.722  0.6808 -0.9184 -0.1757
 8511SOL     OW37591   4.159   0.840   3.871 -0.6503 -0.4321  0.5326
 8511SOL    HW137592   4.160   0.893   3.955  1.2215  0.7100 -0.1664
 8511SOL    HW237593   4.068   0.841   3.831 -1.3451 -0.2746  2.0960
 8512SOL     OW37594   1.952   4.565   1.136  0.5902  0.0964 -0.2328
 8512SOL    HW137595   2.006   4.649   1.139  0.9375 -0.1103 -0.6173
 8512SOL    HW237596   2.000   4.497   1.081  0.0681 -0.1853 -0.3411
 8513SOL     OW37597   6.393   2.582   2.816  0.3433  0.5871 -0.0821
 8513SOL    HW137598   6.469   2.597   2.880  0.5268  0.2873 -0.2290
 8513SOL    HW237599   6.312   2.631   2.849  0.5662  0.8123  0.1373
 8514SOL     OW37600   2.579   1.787   6.012  0.0344  0.5737 -0.3105
 8514SOL    HW137601   2.512   1.714   6.030  1.2826 -0.6117 -0.3443
 8514SOL    HW237602   2.661   1.770   6.068  0.3506  1.9404 -0.3547
 8515SOL     OW37603   6.131   5.126   5.483  0.2203 -0.2656  0.2316
 8515SOL    HW137604   6.118   5.124   5.384 -2.3298  1.8968  0.4776
 8515SOL    HW237605   6.091   5.044   5.524 -1.3990  0.2499 -0.2762
 8516SOL     OW37606   2.379   6.894   8.468  0.2354  0.1347  0.5534
 8516SOL    HW137607   2.406   6.807   8.509  1.0032 -0.2596 -0.7854
 8516SOL    HW237608   2.374   6.964   8.540 -0.5592 -1.0387  1.6573
 8517SOL     OW37609   9.003   4.463   8.550 -0.0094 -0.1166  0.2048
 8517SOL    HW137610   8.904   4.471   8.548  0.2159  2.7355 -0.2677
 8517SOL    HW237611   9.033   4.401   8.477 -1.3797 -0.7321  0.1416
 8518SOL     OW37612   1.480   4.059   9.192 -0.2373  0.0149 -0.3335
 8518SOL    HW137613   1.436   3.980   9.234  0.2766 -0.2480 -0.2828
 8518SOL    HW237614   1.574   4.065   9.225 -0.6191  1.3157  0.5610
 8519SOL     OW37615   3.486   5.879   8.200 -0.5178  0.1375  0.2721
 8519SOL    HW137616   3.488   5.964   8.147  0.4812  0.1965  0.3766
 8519SOL    HW237617   3.393   5.858   8.228 -0.9478  0.4953 -0.8845
 8520SOL     OW37618   2.142   7.328   6.397  0.2798  0.0815  0.3762
 8520SOL    HW137619   2.235   7.316   6.430  0.7536  1.0572 -0.5294
 8520SOL    HW237620   2.120   7.256   6.331  0.4629 -0.0530  0.4629
 8521SOL     OW37621   9.521   6.275   3.618  0.0317  0.1760 -0.3274
 8521SOL    HW137622   9.590   6.345   3.636 -1.3415  1.3598  0.4130
 8521SOL    HW237623   9.566   6.188   3.596  1.7432  1.0369 -0.2602
 8522SOL     OW37624   9.681   9.403   6.133 -0.2937  0.0024  0.2441
 8522SOL    HW137625   9.638   9.484   6.095 -1.2554 -0.2859  0.7079
 8522SOL    HW237626   9.699   9.417   6.231 -1.1676 -0.6230  0.5025
 8523SOL     OW37627   2.233   9.008   0.123 -0.2543  0.7276 -0.0501
 8523SOL    HW137628   2.139   9.042   0.115 -0.2158  1.0327  0.7156
 8523SOL    HW237629   2.274   9.000   0.032 -1.2107  0.0596 -0.4306
 8524SOL     OW37630   1.021   7.093   7.579  0.0760 -0.0344  0.2819
 8524SOL    HW137631   1.040   7.041   7.662  2.3681  1.1960  0.5521
 8524SOL    HW237632   1.088   7.068   7.508 -0.1779  0.9368 -0.3031
 8525SOL     OW37633   8.996   2.597   3.028  0.1649 -0.0181  0.0008
 8525SOL    HW137634   8.918   2.550   3.069 -0.0792  1.3707  1.1923
 8525SOL    HW237635   9.010   2.684   3.075  2.6439 -0.4010  0.0382
 8526SOL     OW37636   2.066   2.284   3.579 -0.3725  0.3068 -0.4580
 8526SOL    HW137637   2.006   2.358   3.610  1.0897  1.5112 -0.4649
 8526SOL    HW237638   2.085   2.223   3.656  0.1539  1.1441  0.0797
 8527SOL     OW37639   7.795   6.692   6.402  0.3070  0.0686  0.0252
 8527SOL    HW137640   7.832   6.639   6.326  3.5483  2.9979 -0.5597
 8527SOL    HW237641   7.843   6.668   6.486 -2.0843 -1.8963  0.9048
 8528SOL     OW37642   9.992   3.384   9.378 -0.1517  0.3573 -0.0623
 8528SOL    HW137643  10.007   3.297   9.425 -0.9912  0.1606 -0.1486
 8528SOL    HW237644  10.053   3.454   9.416 -1.2797  0.3666  1.7873
 8529SOL     OW37645   4.927   8.730   6.603  0.6580  0.2650  0.0002
 8529SOL    HW137646   4.988   8.749   6.526 -0.3926  0.3790 -0.8058
 8529SOL    HW237647   4.847   8.680   6.571 -0.7050  1.9555  0.7020
 8530SOL     OW37648   5.479   4.630   6.400  0.1550  0.4207  0.2335
 8530SOL    HW137649   5.454   4.554   6.340 -0.7114  1.1362 -0.3309
 8530SOL    HW237650   5.410   4.639   6.472 -0.1740  1.1674 -0.1704
 8531SOL     OW37651   0.450   5.631   5.073 -0.1966  0.2011 -0.2706
 8531SOL    HW137652   0.504   5.547   5.072 -0.1987  0.1413  1.9092
 8531SOL    HW237653   0.354   5.609   5.056 -0.1504 -0.1993 -0.0197
 8532SOL     OW37654   0.108   3.781   3.403  0.0523  0.1717  0.0989
 8532SOL    HW137655   0.182   3.830   3.449 -1.1299 -0.7237  3.0548
 8532SOL    HW237656   0.020   3.821   3.429 -0.6803 -0.7644 -0.8854
 8533SOL     OW37657   7.585   7.236   4.139 -0.0169  0.8190  0.3892
 8533SOL    HW137658   7.543   7.147   4.157 -1.1227  1.1487 -0.4961
 8533SOL    HW237659   7.681   7.223   4.113 -0.8892 -0.3591 -2.4435
 8534SOL     OW37660   4.462   3.727   7.504  0.4819  0.3675  0.0180
 8534SOL    HW137661   4.488   3.817   7.468  1.0468  1.1354  2.3007
 8534SOL    HW237662   4.544   3.672   7.520  0.2819  0.3316  0.9177
 8535SOL     OW37663   6.089   7.746   3.689 -0.5234 -0.3590  0.2976
 8535SOL    HW137664   6.164   7.733   3.755  0.1978  0.4458 -0.3504
 8535SOL    HW237665   6.045   7.834   3.706 -0.6640 -0.3803  0.0330
 8536SOL     OW37666   1.455   4.639   7.422 -0.1475  0.0131  0.3923
 8536SOL    HW137667   1.511   4.670   7.499 -1.5450  2.0387  0.6379
 8536SOL    HW237668   1.374   4.592   7.456 -0.1635 -0.1574  0.1221
 8537SOL     OW37669   3.581   7.064   3.882  0.1854  0.5008  0.3885
 8537SOL    HW137670   3.603   7.154   3.843 -0.4557 -0.0987 -1.4174
 8537SOL    HW237671   3.650   7.040   3.951  0.1525  2.5287  1.1685
 8538SOL     OW37672   5.234   4.179   9.931 -0.3004  0.4342 -0.8542
 8538SOL    HW137673   5.200   4.273   9.930 -0.1590  0.5645  2.2544
 8538SOL    HW237674   5.333   4.179   9.942 -0.4259 -0.0647  0.3780
 8539SOL     OW37675   9.694   6.229   5.502  0.5158 -0.4372 -0.3204
 8539SOL    HW137676   9.642   6.165   5.446  0.4198 -1.0201  0.4306
 8539SOL    HW237677   9.791   6.219   5.482  0.4190 -0.0438 -0.9995
 8540SOL     OW37678   1.347   5.079   7.374 -0.2036  0.2392 -0.4021
 8540SOL    HW137679   1.439   5.094   7.338  0.5800  0.2036  1.5343
 8540SOL    HW237680   1.280   5.121   7.312  1.2549  2.3862 -0.5813
 8541SOL     OW37681   7.169   1.502   0.239 -0.1676  0.0378 -0.8755
 8541SOL    HW137682   7.070   1.496   0.226 -0.1319  0.0739 -1.1655
 8541SOL    HW237683   7.196   1.598   0.251 -0.0331  0.1395 -1.8975
 8542SOL     OW37684   0.722   2.044   6.660 -0.5127 -0.1682  0.3973
 8542SOL    HW137685   0.764   1.953   6.669  0.1263  0.1243  0.3964
 8542SOL    HW237686   0.690   2.075   6.750 -2.3162 -1.1424  0.1091
 8543SOL     OW37687   2.059   6.993   8.215  0.0708  0.2440 -0.7876
 8543SOL    HW137688   2.096   7.071   8.166 -1.5422  1.2357 -0.4504
 8543SOL    HW237689   2.016   6.930   8.150 -0.6725  0.7880 -0.8346
 8544SOL     OW37690   3.805   0.594   5.934 -0.3621  0.8236  0.0824
 8544SOL    HW137691   3.755   0.567   6.016  0.8681  0.1557  0.6115
 8544SOL    HW237692   3.873   0.525   5.911  0.5042  1.8437 -0.4848
 8545SOL     OW37693   2.026   9.327   1.375 -0.3515  0.1909 -0.2112
 8545SOL    HW137694   1.972   9.351   1.456  0.1961  0.1052  0.1778
 8545SOL    HW237695   2.015   9.230   1.356 -0.9304  0.3205 -0.5794
 8546SOL     OW37696   1.947   4.775   8.604  0.5230 -0.8098 -0.0637
 8546SOL    HW137697   2.047   4.778   8.613  0.5130  3.6287 -0.4643
 8546SOL    HW237698   1.905   4.775   8.695  0.8661 -0.6593  0.0957
 8547SOL     OW37699   5.200   5.188   0.263  0.2491 -0.1352  0.0502
 8547SOL    HW137700   5.107   5.176   0.297  0.3945 -1.0187  0.1333
 8547SOL    HW237701   5.260   5.217   0.338  0.3324 -0.9536  0.3023
 8548SOL     OW37702   0.754   8.572   9.435  0.2626  0.5604 -0.5836
 8548SOL    HW137703   0.731   8.665   9.408  0.0448  0.7747  0.3256
 8548SOL    HW237704   0.743   8.562   9.534 -1.4783 -0.9129 -0.8999
 8549SOL     OW37705   2.317   2.130   1.294 -0.1222  0.6265  0.2146
 8549SOL    HW137706   2.314   2.115   1.393 -0.3171 -0.0140  0.1099
 8549SOL    HW237707   2.402   2.175   1.270 -0.1280  0.8970  0.6913
 8550SOL     OW37708   0.140   7.608   6.800 -0.2747  0.3505  0.0158
 8550SOL    HW137709   0.173   7.701   6.810 -1.5617  0.8839 -0.5409
 8550SOL    HW237710   0.155   7.558   6.886  2.2775  0.4424 -0.3459
 8551SOL     OW37711   1.705   5.350   8.864  0.0405 -0.3058  0.4452
 8551SOL    HW137712   1.729   5.330   8.769  0.3950  1.9152  0.0221
 8551SOL    HW237713   1.612   5.388   8.867 -0.4781 -1.6157  1.1536
 8552SOL     OW37714   4.949   5.261   9.143  0.0073  0.1517 -0.1454
 8552SOL    HW137715   4.874   5.322   9.119 -0.5757  0.1016  1.4968
 8552SOL    HW237716   4.921   5.166   9.129  1.1075  0.2372 -3.2490
 8553SOL     OW37717   0.403   4.730   7.952 -0.5047  0.8994 -0.2997
 8553SOL    HW137718   0.335   4.802   7.970  0.9565  2.1199  0.4403
 8553SOL    HW237719   0.442   4.743   7.861  0.4691  1.6461  0.2156
 8554SOL     OW37720   6.495   0.279   3.320 -0.4815  0.5915  0.2242
 8554SOL    HW137721   6.404   0.286   3.281 -0.1583 -1.0616 -0.8826
 8554SOL    HW237722   6.494   0.215   3.397 -0.1995  0.2731 -0.0308
 8555SOL     OW37723   4.447   4.285   1.733 -0.3796  0.0994 -0.5401
 8555SOL    HW137724   4.537   4.244   1.747 -0.9959 -1.9792 -2.3184
 8555SOL    HW237725   4.408   4.251   1.647 -2.5111  1.6070 -0.2115
 8556SOL     OW37726   6.065   0.105   6.922  0.3995  0.0942  0.0639
 8556SOL    HW137727   6.089   0.021   6.874  0.6822 -0.3524  0.9879
 8556SOL    HW237728   6.095   0.184   6.867 -2.0984 -0.3314 -1.9820
 8557SOL     OW37729   7.727   4.852   2.730  0.1545  0.0539  0.2572
 8557SOL    HW137730   7.779   4.774   2.763  1.6634  0.0722 -1.9883
 8557SOL    HW237731   7.684   4.899   2.808  2.3092 -0.7800  1.9983
 8558SOL     OW37732   0.073   2.073   9.092  1.3646  0.0568 -0.1135
 8558SOL    HW137733   0.105   2.000   9.032 -0.1348 -0.6291 -0.1152
 8558SOL    HW237734   0.073   2.160   9.043  0.2115 -0.4824 -1.1096
 8559SOL     OW37735   3.898   3.894   5.715 -0.3849  0.2875 -0.3991
 8559SOL    HW137736   3.952   3.975   5.738 -0.7233  0.5611 -0.5517
 8559SOL    HW237737   3.842   3.914   5.634 -0.0303 -0.2926 -0.7880
 8560SOL     OW37738   4.297   3.514   9.972  0.4682 -0.1790  0.1830
 8560SOL    HW137739   4.277   3.477  10.062 -0.4649  0.7584  0.3708
 8560SOL    HW237740   4.315   3.612   9.979 -0.4537  0.0679 -0.7583
 8561SOL     OW37741   4.324   2.461   6.151  0.0050 -0.2002  0.0882
 8561SOL    HW137742   4.379   2.397   6.096 -1.5150 -0.7566 -0.8261
 8561SOL    HW237743   4.244   2.413   6.187  0.1013  0.6003  1.3961
 8562SOL     OW37744   2.475   6.856   9.295  0.1008  0.1147  0.4027
 8562SOL    HW137745   2.400   6.792   9.312  0.1847 -0.2864 -0.7010
 8562SOL    HW237746   2.438   6.948   9.284 -0.1923 -0.0101  0.3346
 8563SOL     OW37747   1.114   0.189   6.704  0.1138 -0.7137 -0.6922
 8563SOL    HW137748   1.209   0.219   6.704 -0.4106  1.0414 -1.2388
 8563SOL    HW237749   1.073   0.208   6.794 -0.7628  2.1312 -1.6351
 8564SOL     OW37750   4.687   4.084   8.443 -0.1736  0.1660 -0.1125
 8564SOL    HW137751   4.774   4.118   8.408 -0.5704  0.5728 -0.7006
 8564SOL    HW237752   4.703   4.002   8.498  0.5627  0.1505 -0.3509
 8565SOL     OW37753   2.314   5.622   8.038 -0.4874  0.3882 -0.1578
 8565SOL    HW137754   2.400   5.628   7.988  0.1985 -1.4160  0.7532
 8565SOL    HW237755   2.302   5.704   8.093  2.9728 -1.2764  3.3195
 8566SOL     OW37756   7.175   4.649   7.157 -0.1797  0.4515  0.3360
 8566SOL    HW137757   7.108   4.713   7.195 -1.6182  0.1998 -1.6514
 8566SOL    HW237758   7.156   4.557   7.192  0.1202  0.6517  1.0180
 8567SOL     OW37759   1.478   6.040   8.277  0.2143 -0.1859  0.5113
 8567SOL    HW137760   1.429   5.993   8.204  0.2705 -0.6090  0.7439
 8567SOL    HW237761   1.573   6.008   8.279  0.7269  1.2401 -0.4761
 8568SOL     OW37762   2.691   7.648   5.788  0.2955 -0.3903  0.1423
 8568SOL    HW137763   2.655   7.584   5.855 -1.6100 -0.0551 -0.5168
 8568SOL    HW237764   2.659   7.622   5.696  0.3612  0.8831 -0.2559
 8569SOL     OW37765   1.854   3.907   9.423 -0.4777 -0.3338  0.0912
 8569SOL    HW137766   1.884   3.932   9.515  1.1540 -1.8643  0.0038
 8569SOL    HW237767   1.918   3.841   9.384 -2.2147 -1.1946 -1.3886
 8570SOL     OW37768   1.727   3.923   9.048 -0.1320 -0.3946 -0.4549
 8570SOL    HW137769   1.757   3.982   9.123  0.4221 -1.9947  0.6130
 8570SOL    HW237770   1.696   3.835   9.084  0.8032 -1.4646 -2.1362
 8571SOL     OW37771   0.772   6.640   1.191  0.1500  0.5217  0.3484
 8571SOL    HW137772   0.737   6.548   1.171  2.2824 -0.4268  0.7922
 8571SOL    HW237773   0.696   6.702   1.207 -1.3295 -1.1989  0.1697
 8572SOL     OW37774   5.923   5.940   4.298  0.2099  0.5536 -0.1063
 8572SOL    HW137775   5.829   5.918   4.272  0.0465 -0.1634  1.0214
 8572SOL    HW237776   5.972   5.977   4.220  0.0076 -2.3545 -1.6806
 8573SOL     OW37777   7.469   8.038   8.415  0.0570  0.1063 -0.4257
 8573SOL    HW137778   7.561   8.041   8.375  0.2922 -0.9655 -0.0036
 8573SOL    HW237779   7.412   7.976   8.362 -0.6705  1.3628 -1.1453
 8574SOL     OW37780   2.343   6.812   8.965  0.3674  0.1068  0.8542
 8574SOL    HW137781   2.436   6.842   8.986  0.6838  0.3286 -0.8095
 8574SOL    HW237782   2.344   6.714   8.943  0.3477  0.3214 -0.0847
 8575SOL     OW37783   2.829   9.625   0.980 -0.2949  0.4244 -0.0925
 8575SOL    HW137784   2.899   9.593   0.916  0.5196 -0.8148  1.3801
 8575SOL    HW237785   2.861   9.708   1.025 -0.2701  0.5152 -0.2746
 8576SOL     OW37786   1.748   5.603   7.880 -0.0972  0.2322 -0.0170
 8576SOL    HW137787   1.835   5.643   7.852  0.1409  0.2632  0.7679
 8576SOL    HW237788   1.740   5.511   7.842 -0.1596  0.5996 -0.9065
 8577SOL     OW37789   9.152   4.880   6.251  0.0243 -0.3842 -0.2027
 8577SOL    HW137790   9.159   4.941   6.330 -0.7714 -2.0429  1.2018
 8577SOL    HW237791   9.059   4.841   6.247  0.6240 -1.8062 -0.8068
 8578SOL     OW37792   5.691   4.216   5.841 -0.0898 -0.2055 -0.1696
 8578SOL    HW137793   5.647   4.149   5.781 -0.8618 -0.9385  1.1741
 8578SOL    HW237794   5.764   4.262   5.792  0.6326 -2.2265 -1.0426
 8579SOL     OW37795   4.751   4.599   9.915 -0.4699  0.2934 -0.0619
 8579SOL    HW137796   4.817   4.551   9.972 -1.5452 -0.0408  0.9092
 8579SOL    HW237797   4.761   4.698   9.928 -0.0445  0.2524 -0.0666
 8580SOL     OW37798   2.392   5.323   6.687  0.1603  0.2231 -0.2613
 8580SOL    HW137799   2.448   5.290   6.763  0.0968 -0.2324 -0.4150
 8580SOL    HW237800   2.368   5.419   6.703  0.8993  0.3915 -0.1459
 8581SOL     OW37801   8.579   8.046   7.293  0.1372  0.2482  1.0255
 8581SOL    HW137802   8.514   7.998   7.351  0.9578 -1.2624  0.7198
 8581SOL    HW237803   8.608   8.131   7.339 -1.4948  0.5747  1.4652
 8582SOL     OW37804   8.378   0.726   1.124  0.3107 -0.3252 -0.6868
 8582SOL    HW137805   8.355   0.640   1.079 -0.6307 -0.5141  0.1481
 8582SOL    HW237806   8.294   0.773   1.152  0.7192  1.6577 -2.5671
 8583SOL     OW37807   0.543   3.802   7.243  0.0998  0.2565 -0.0181
 8583SOL    HW137808   0.482   3.880   7.256 -2.2956 -1.5159 -0.1522
 8583SOL    HW237809   0.559   3.789   7.145 -0.9948 -0.4769 -0.1152
 8584SOL     OW37810   3.480   7.535   1.279  0.4973 -0.1804  0.1404
 8584SOL    HW137811   3.521   7.532   1.187 -0.1913 -1.1514 -0.1409
 8584SOL    HW237812   3.400   7.475   1.282  1.0435 -0.8672  1.6319
 8585SOL     OW37813   4.419   4.370   1.025 -0.3813  0.3500 -0.4286
 8585SOL    HW137814   4.508   4.338   0.994 -0.4186  0.7560 -0.9588
 8585SOL    HW237815   4.387   4.444   0.966  0.8391  3.1321  2.2716
 8586SOL     OW37816   9.454   8.075   0.311  0.0437 -0.7193  0.3793
 8586SOL    HW137817   9.473   8.043   0.218 -0.2877 -1.1234  0.4478
 8586SOL    HW237818   9.417   8.168   0.308  1.6345 -0.0733  0.2185
 8587SOL     OW37819   6.685   8.117   0.028  0.7779 -0.6944  0.3818
 8587SOL    HW137820   6.693   8.160  -0.062  0.4210 -1.2396  0.0905
 8587SOL    HW237821   6.777   8.107   0.068  0.8536  0.5076  0.5384
 8588SOL     OW37822   4.117   1.345   8.359 -0.2183 -0.2728  0.3098
 8588SOL    HW137823   4.098   1.260   8.311  0.3694 -0.0431 -0.3354
 8588SOL    HW237824   4.173   1.326   8.440  0.8968 -0.3660 -0.4740
 8589SOL     OW37825   4.343   0.766   5.776  0.2919 -0.3069  0.2165
 8589SOL    HW137826   4.269   0.834   5.776 -0.8549 -1.5342  0.5364
 8589SOL    HW237827   4.358   0.732   5.869 -0.4337 -1.8487 -0.2087
 8590SOL     OW37828   6.977   5.438   5.767  0.1721  0.1553  0.1765
 8590SOL    HW137829   7.037   5.366   5.802  1.1443  1.0091  0.2640
 8590SOL    HW237830   6.907   5.397   5.709  0.5563 -0.8968  0.4480
 8591SOL     OW37831   0.824   2.778   7.479  0.6758  0.4055  0.3610
 8591SOL    HW137832   0.773   2.817   7.402 -0.3989 -0.0124  0.8452
 8591SOL    HW237833   0.898   2.840   7.505 -0.2539  1.5473  0.3322
 8592SOL     OW37834   3.329   2.357   5.827 -0.1188  0.0253  0.0867
 8592SOL    HW137835   3.297   2.363   5.922 -0.0651 -1.9969  0.2525
 8592SOL    HW237836   3.250   2.341   5.767  0.0905 -0.8627  0.0410
 8593SOL     OW37837   8.441   2.697   1.198  0.5406 -0.3947 -0.4010
 8593SOL    HW137838   8.453   2.796   1.189  1.8626 -0.4855  0.1565
 8593SOL    HW237839   8.376   2.677   1.270  2.1815  0.0444  1.2497
 8594SOL     OW37840   3.570   3.555   1.266 -0.5932 -0.1796 -0.3915
 8594SOL    HW137841   3.652   3.563   1.209 -0.2670 -0.6889 -0.0038
 8594SOL    HW237842   3.510   3.633   1.250  1.1272  1.5050  1.1342
 8595SOL     OW37843   6.641   3.858   1.297 -0.6712  0.4679 -0.0446
 8595SOL    HW137844   6.618   3.950   1.330 -1.1249  0.2643  0.1938
 8595SOL    HW237845   6.712   3.866   1.226  0.6928  0.8703  1.3310
 8596SOL     OW37846   8.720   5.993   3.010 -0.0611  0.1933  0.3853
 8596SOL    HW137847   8.652   6.036   2.951  2.0093  1.9053 -0.8288
 8596SOL    HW237848   8.769   5.923   2.959  1.2086  1.1427  0.2662
 8597SOL     OW37849   5.644   7.185   7.522  0.2806  0.6202 -0.1255
 8597SOL    HW137850   5.617   7.137   7.438 -0.2434 -0.7141  0.7831
 8597SOL    HW237851   5.629   7.283   7.511  0.8832  0.5384 -1.8469
 8598SOL     OW37852   4.132   6.695   1.505 -0.5157  0.4440  0.4652
 8598SOL    HW137853   4.082   6.749   1.572 -2.6141  0.2397 -0.8657
 8598SOL    HW237854   4.084   6.609   1.489  1.6245 -0.8720  0.9627
 8599SOL     OW37855   7.560   4.533   7.476 -0.4322  0.1244 -0.3969
 8599SOL    HW137856   7.527   4.572   7.562  0.8637  1.6459 -0.5483
 8599SOL    HW237857   7.507   4.570   7.400  0.9233  1.8337 -0.5581
 8600SOL     OW37858   7.501   5.531   5.847 -0.1461  0.0798 -0.2795
 8600SOL    HW137859   7.581   5.515   5.906  0.8560 -0.4000 -1.7276
 8600SOL    HW237860   7.426   5.568   5.902  0.7142 -0.4755  1.3154
 8601SOL     OW37861   0.151   5.994   4.917 -0.0498 -0.4669 -0.0352
 8601SOL    HW137862   0.183   5.994   5.012 -0.5547 -1.8038  0.1499
 8601SOL    HW237863   0.133   5.900   4.888  1.4962 -0.2333 -1.9292
 8602SOL     OW37864   7.398   2.848   7.885 -0.1670  0.1856 -0.2837
 8602SOL    HW137865   7.395   2.755   7.921  1.2325 -0.5727 -2.0085
 8602SOL    HW237866   7.408   2.913   7.960  1.5702 -1.2468  0.7566
 8603SOL     OW37867   4.505   2.313   9.505  0.0906 -0.0179  0.1891
 8603SOL    HW137868   4.481   2.224   9.545 -0.8965 -0.4022 -1.2413
 8603SOL    HW237869   4.569   2.299   9.429  0.1615  0.5263  0.1501
 8604SOL     OW37870   3.312   7.548   9.822  0.0227 -0.0422  0.3907
 8604SOL    HW137871   3.386   7.482   9.809 -0.6269 -0.7811  0.3555
 8604SOL    HW237872   3.303   7.605   9.740 -0.6672 -1.2145 -0.3673
 8605SOL     OW37873   9.664   8.156   8.676  0.6279 -0.2228  0.5200
 8605SOL    HW137874   9.651   8.061   8.703 -2.5520  0.8745  3.0988
 8605SOL    HW237875   9.698   8.209   8.753  0.0891  1.2119 -0.2056
 8606SOL     OW37876   6.740   3.700   3.632 -0.4511  0.1012  0.6068
 8606SOL    HW137877   6.733   3.664   3.539 -0.0310  1.0498  0.2034
 8606SOL    HW237878   6.782   3.790   3.630  3.1255 -1.4379  2.0650
 8607SOL     OW37879   2.145   9.213   7.266 -0.4223 -0.1499 -0.1207
 8607SOL    HW137880   2.053   9.182   7.290  0.1083 -2.4063 -0.8769
 8607SOL    HW237881   2.213   9.149   7.302  0.7272  0.1753 -1.6161
 8608SOL     OW37882   6.596   8.380   9.675 -0.5271  0.3711  0.1363
 8608SOL    HW137883   6.582   8.476   9.699  0.7742  0.8211 -0.8424
 8608SOL    HW237884   6.511   8.341   9.640 -0.4539  1.8614 -1.7509
 8609SOL     OW37885   5.029   3.217   7.731  0.2848  0.4565 -0.0902
 8609SOL    HW137886   4.948   3.160   7.723 -0.1264  0.7995  1.5450
 8609SOL    HW237887   5.067   3.233   7.640 -0.9496 -0.4521 -0.7823
 8610SOL     OW37888   2.214   6.324   6.667 -0.2088 -0.7473  0.2060
 8610SOL    HW137889   2.190   6.289   6.577 -2.6248 -0.2018  0.5895
 8610SOL    HW237890   2.245   6.419   6.659 -0.9953 -0.5046  0.0125
 8611SOL     OW37891   5.264   9.520   1.211  0.3394  0.0575 -0.0864
 8611SOL    HW137892   5.248   9.492   1.306  0.4753 -0.7064 -0.2837
 8611SOL    HW237893   5.230   9.613   1.197 -1.1464 -0.4141  0.2933
 8612SOL     OW37894   6.019   6.285   7.333  0.7965 -0.5282 -0.2322
 8612SOL    HW137895   6.026   6.237   7.420  3.1208 -0.1445 -0.1809
 8612SOL    HW237896   5.964   6.231   7.269  1.8744 -2.3920  0.4031
 8613SOL     OW37897   5.006   4.727   9.761  0.1092 -0.0748 -0.1669
 8613SOL    HW137898   5.051   4.760   9.678 -0.3468 -0.4920 -0.5844
 8613SOL    HW237899   4.961   4.639   9.741 -0.4697  0.0999  0.3752
 8614SOL     OW37900   4.765   2.757   9.093  0.5633  0.2843  0.3646
 8614SOL    HW137901   4.821   2.675   9.099 -0.5327 -0.2988  3.4521
 8614SOL    HW237902   4.677   2.735   9.049  0.3456 -0.1540  1.0221
 8615SOL     OW37903   7.159   5.849   6.920 -0.0827  0.2094 -0.0795
 8615SOL    HW137904   7.221   5.899   6.859 -0.8553 -0.3817 -1.3545
 8615SOL    HW237905   7.066   5.881   6.907 -0.6934 -1.9850 -1.4025
 8616SOL     OW37906   4.166   2.171   4.691 -0.2328 -0.4192  0.5462
 8616SOL    HW137907   4.264   2.189   4.698 -0.1269 -0.1736 -1.3359
 8616SOL    HW237908   4.149   2.073   4.696  0.0396 -0.4211  1.5345
 8617SOL     OW37909   0.992   5.805   0.139 -0.3460 -0.9078 -0.7558
 8617SOL    HW137910   1.011   5.750   0.220  0.8296  0.3112 -0.1914
 8617SOL    HW237911   1.028   5.758   0.058  0.3842 -1.1096 -0.3157
 8618SOL     OW37912   3.957   4.686   9.492  0.0126  0.0586  0.6149
 8618SOL    HW137913   3.925   4.649   9.580  0.5208  0.2132  0.8636
 8618SOL    HW237914   3.953   4.615   9.423 -0.9352  0.0870  0.6299
 8619SOL     OW37915   5.299   7.025   8.425 -0.3866  0.0202  0.0531
 8619SOL    HW137916   5.255   6.956   8.483 -0.0299 -0.1735  0.0917
 8619SOL    HW237917   5.273   7.010   8.330  2.1831 -2.1088 -0.3666
 8620SOL     OW37918   7.926   3.201   4.956  0.4283  0.1071 -0.1300
 8620SOL    HW137919   7.844   3.257   4.962  1.0004  0.9435 -0.1171
 8620SOL    HW237920   7.900   3.104   4.953 -0.4834  0.3022  1.2919
 8621SOL     OW37921   5.487   6.367   2.306  0.3353 -0.2521 -0.3457
 8621SOL    HW137922   5.582   6.348   2.282  0.3663  1.0296 -1.2541
 8621SOL    HW237923   5.429   6.290   2.278  0.7925 -0.0863 -1.7784
 8622SOL     OW37924   4.483   0.781   9.602 -0.0426  0.4104  0.0142
 8622SOL    HW137925   4.496   0.733   9.515  1.4157 -0.5003  0.7029
 8622SOL    HW237926   4.565   0.835   9.622  0.3833 -0.8538  1.7129
 8623SOL     OW37927   4.112   3.219   4.231 -0.0674  0.0451 -0.6679
 8623SOL    HW137928   4.175   3.283   4.276 -1.6534  2.0621 -1.2053
 8623SOL    HW237929   4.164   3.150   4.182  1.7193  0.9041 -0.0343
 8624SOL     OW37930   4.889   3.566   9.453  0.1677 -0.3875 -0.2339
 8624SOL    HW137931   4.974   3.578   9.505 -0.0874 -1.5058  0.4562
 8624SOL    HW237932   4.878   3.470   9.429 -0.9850 -0.2689 -0.1924
 8625SOL     OW37933   5.869   4.292   4.681 -0.3409 -0.0333  0.0149
 8625SOL    HW137934   5.844   4.272   4.775 -2.0815  0.4339 -0.3313
 8625SOL    HW237935   5.814   4.236   4.619 -0.0785  0.5539 -0.7614
 8626SOL     OW37936   1.914   1.258   7.006  0.6386  0.3350  0.0159
 8626SOL    HW137937   1.894   1.228   6.913 -1.2405  0.2086  0.4372
 8626SOL    HW237938   1.884   1.352   7.018  1.3802  0.5365  0.3518
 8627SOL     OW37939   2.165   7.288   3.198  0.0223 -0.4559 -0.0566
 8627SOL    HW137940   2.093   7.219   3.208 -0.6148 -0.0174 -1.5444
 8627SOL    HW237941   2.235   7.273   3.268 -1.2131 -1.2513  1.0288
 8628SOL     OW37942   5.913   0.020   8.604  0.0002  0.0687  0.0272
 8628SOL    HW137943   5.880  -0.074   8.605  0.1196  0.0285  0.3147
 8628SOL    HW237944   5.853   0.077   8.660  0.1682  0.0819  0.1942
 8629SOL     OW37945   2.260   4.772   9.777  0.4089 -0.3851 -0.6467
 8629SOL    HW137946   2.322   4.710   9.729  1.3501  0.1018 -0.0928
 8629SOL    HW237947   2.299   4.864   9.777  1.0379 -0.5980  2.0847
 8630SOL     OW37948   2.951   5.848   9.847 -0.3152 -0.2447  0.8389
 8630SOL    HW137949   2.906   5.914   9.786  1.7086  0.2671 -0.1427
 8630SOL    HW237950   2.891   5.769   9.861 -2.3958  1.3754  1.2933
 8631SOL     OW37951   0.795   9.154   4.790  0.2212 -0.3938 -0.0887
 8631SOL    HW137952   0.872   9.155   4.727  1.6341 -0.1757  1.6102
 8631SOL    HW237953   0.774   9.060   4.816  1.1383 -0.3315  0.9009
 8632SOL     OW37954   0.521   5.314   8.670  0.1259 -0.3973 -0.4861
 8632SOL    HW137955   0.476   5.249   8.608 -0.4862  0.0747 -0.5479
 8632SOL    HW237956   0.580   5.264   8.734 -0.2240 -1.0006 -0.6298
 8633SOL     OW37957   4.313   0.396   6.837  0.3640  0.6897  0.6010
 8633SOL    HW137958   4.266   0.461   6.897  1.0426 -1.0764  3.1098
 8633SOL    HW237959   4.401   0.372   6.877  1.6984  0.9489 -2.1089
 8634SOL     OW37960   8.950   8.418   9.452 -0.5203  0.2192  0.1548
 8634SOL    HW137961   8.984   8.329   9.424 -0.7848  0.0076  0.4941
 8634SOL    HW237962   8.906   8.410   9.542 -1.5390  0.4705 -0.3162
 8635SOL     OW37963   1.726   7.056   7.519  0.8422  0.4989  0.1530
 8635SOL    HW137964   1.771   6.999   7.451  1.9447  1.1094  0.3577
 8635SOL    HW237965   1.627   7.057   7.502  0.8657 -1.0328 -0.1656
 8636SOL     OW37966   6.436   5.603   7.621 -0.0436 -0.1844 -0.2265
 8636SOL    HW137967   6.390   5.682   7.580 -0.0951 -0.2619 -0.3189
 8636SOL    HW237968   6.445   5.531   7.553  2.6188  0.8172 -0.9781
 8637SOL     OW37969   0.362   9.837   9.599 -0.7138  0.3518 -0.4758
 8637SOL    HW137970   0.286   9.896   9.625 -0.8706  0.6538 -1.5992
 8637SOL    HW237971   0.342   9.792   9.512  0.0867 -0.1232 -0.4277
 8638SOL     OW37972   2.424   6.577   0.023  0.5398  0.2777  0.4497
 8638SOL    HW137973   2.437   6.545  -0.071  0.0701  0.9660  0.1466
 8638SOL    HW237974   2.430   6.499   0.086  1.0952 -0.1499 -0.1270
 8639SOL     OW37975   2.560   1.724   7.464  0.1798  0.6139 -0.1952
 8639SOL    HW137976   2.536   1.818   7.487  1.5091  1.1714 -1.0356
 8639SOL    HW237977   2.636   1.693   7.521 -1.2487 -0.5098  1.1621
 8640SOL     OW37978   0.751   0.722   5.641 -0.2225  0.1077 -0.4525
 8640SOL    HW137979   0.719   0.812   5.611 -0.2524 -0.0210 -0.8075
 8640SOL    HW237980   0.699   0.693   5.721  0.4530  0.8426  0.2658
 8641SOL     OW37981   3.020   8.542   5.753  0.3688 -0.0857  0.4154
 8641SOL    HW137982   3.027   8.472   5.682 -0.2570 -1.7721  1.9704
 8641SOL    HW237983   2.923   8.565   5.767  0.4776  0.1406  0.8069
 8642SOL     OW37984   9.692   3.988   8.487 -0.0599 -0.1155 -0.0506
 8642SOL    HW137985   9.688   4.020   8.582  0.3264  1.3407 -0.5109
 8642SOL    HW237986   9.651   4.057   8.427 -0.4568 -1.1033 -0.9271
 8643SOL     OW37987   1.071   5.209   4.927  0.4982  0.5262  0.2538
 8643SOL    HW137988   1.047   5.262   4.846  0.2639  0.9441  0.5956
 8643SOL    HW237989   0.997   5.144   4.947  1.0322 -0.3291 -0.4919
 8644SOL     OW37990   2.615   7.289   0.591 -0.0694  0.4139 -0.0551
 8644SOL    HW137991   2.672   7.234   0.529  0.3603  0.7558  0.0305
 8644SOL    HW237992   2.634   7.386   0.576 -2.7678  0.6901 -2.0878
 8645SOL     OW37993   4.043   0.990   2.519 -0.4848  0.4811  0.2696
 8645SOL    HW137994   4.101   0.915   2.485 -0.6891  1.0638 -1.4067
 8645SOL    HW237995   4.091   1.038   2.592  0.6222  0.1357 -0.2161
 8646SOL     OW37996   9.166   3.347   8.931 -0.0030 -0.2400  0.5954
 8646SOL    HW137997   9.226   3.358   9.011 -1.7335 -0.1917  1.9249
 8646SOL    HW237998   9.158   3.249   8.909  0.8721 -0.2199  0.1500
 8647SOL     OW37999   8.299   8.645   7.555 -0.2868 -0.2822 -0.4753
 8647SOL    HW138000   8.208   8.678   7.530 -0.3293 -2.0758 -2.8906
 8647SOL    HW238001   8.294   8.593   7.640 -1.3538  0.3492 -0.1458
 8648SOL     OW38002   3.443   0.407   8.377  0.1883 -0.2247 -0.1947
 8648SOL    HW138003   3.401   0.482   8.427 -0.3740 -0.7560  0.1425
 8648SOL    HW238004   3.393   0.392   8.291  0.3766 -0.1321 -0.3205
 8649SOL     OW38005   5.191   4.418   4.001  0.6684 -1.0897  0.1711
 8649SOL    HW138006   5.203   4.375   4.090 -5.0631 -1.9812  0.7236
 8649SOL    HW238007   5.172   4.516   4.014 -2.9434 -1.7282  0.2972
 8650SOL     OW38008   0.650   4.787   9.101 -0.1133  0.3183  0.0142
 8650SOL    HW138009   0.744   4.799   9.135  0.1089  0.6836 -0.7048
 8650SOL    HW238010   0.653   4.739   9.014 -0.5971  0.3295 -0.0082
 8651SOL     OW38011   1.113   9.069   5.857 -0.2870  0.2311 -0.0847
 8651SOL    HW138012   1.093   9.140   5.924 -2.3949  0.5144 -0.9627
 8651SOL    HW238013   1.208   9.040   5.866 -0.0045  1.6318  1.7108
 8652SOL     OW38014   9.735   4.547   7.747 -0.2299 -0.3029  0.1669
 8652SOL    HW138015   9.760   4.525   7.842  0.8858  2.7431  0.6168
 8652SOL    HW238016   9.672   4.477   7.713  0.5496 -2.3011  2.6166
 8653SOL     OW38017   3.872   0.572   6.616  0.2344 -0.4968  0.0804
 8653SOL    HW138018   3.830   0.524   6.693 -0.8831  1.2521  0.6084
 8653SOL    HW238019   3.802   0.602   6.552  1.0605 -0.9624 -1.0637
 8654SOL     OW38020   1.459   3.364   1.472  0.1508  0.1259  0.3497
 8654SOL    HW138021   1.379   3.424   1.478  1.3268  1.8307 -0.5982
 8654SOL    HW238022   1.475   3.340   1.376  0.7148 -0.2966  0.5502
 8655SOL     OW38023   0.623   4.088   7.557 -0.8883 -0.0490 -0.3404
 8655SOL    HW138024   0.635   4.182   7.588 -4.5056  0.7199 -1.1222
 8655SOL    HW238025   0.667   4.076   7.468 -0.8750  1.0399 -0.4807
 8656SOL     OW38026   3.846   0.987   8.407 -0.0165  0.7918  0.1950
 8656SOL    HW138027   3.879   1.068   8.358 -0.2718  0.9463  0.2781
 8656SOL    HW238028   3.769   0.947   8.357  1.6598 -0.8330 -1.1619
 8657SOL     OW38029   9.336   6.127   6.813  0.3156  0.0457 -0.7199
 8657SOL    HW138030   9.353   6.029   6.800 -0.6084 -0.0293 -1.4745
 8657SOL    HW238031   9.274   6.141   6.890  0.1244  0.0088 -0.8667
 8658SOL     OW38032   2.671   1.832   9.769  0.0910 -0.2076  0.0489
 8658SOL    HW138033   2.677   1.762   9.841 -1.1516  0.5562  0.9121
 8658SOL    HW238034   2.757   1.836   9.719  1.0297 -0.6386  1.6032
 8659SOL     OW38035   1.278   0.149   1.003 -0.1758 -0.6063 -0.0804
 8659SOL    HW138036   1.340   0.118   0.931 -0.3771 -0.3265 -0.3758
 8659SOL    HW238037   1.193   0.183   0.962 -0.7260 -1.4450  0.3495
 8660SOL     OW38038   5.852   8.848   8.406 -0.3979 -0.2123 -0.0003
 8660SOL    HW138039   5.766   8.859   8.357  0.8502  1.3331 -1.8938
 8660SOL    HW238040   5.928   8.849   8.341  1.2923  1.9734  1.9376
 8661SOL     OW38041   4.036   0.700   0.857 -0.0149 -0.0823  0.2258
 8661SOL    HW138042   4.036   0.735   0.950  0.1363  2.3655 -0.6605
 8661SOL    HW238043   4.100   0.623   0.850 -1.0197 -1.1613  2.4190
 8662SOL     OW38044   0.484   9.329   6.817 -0.3110  0.8265 -1.0880
 8662SOL    HW138045   0.395   9.294   6.845 -0.1400  1.8341  0.7930
 8662SOL    HW238046   0.555   9.265   6.845 -0.3171  0.7969 -1.1409
 8663SOL     OW38047   1.710   7.400   7.369 -0.2192  0.2011 -0.3089
 8663SOL    HW138048   1.714   7.377   7.466 -2.3028  0.2615 -0.1819
 8663SOL    HW238049   1.614   7.405   7.340  0.3977 -0.4528 -2.5228
 8664SOL     OW38050   4.189   5.975   3.644  0.2722  0.6481 -0.4672
 8664SOL    HW138051   4.207   5.916   3.722 -0.0871  1.5422  0.3013
 8664SOL    HW238052   4.275   5.998   3.598  0.6833  1.5504  0.7265
 8665SOL     OW38053   5.729   3.782   2.466  0.1314 -0.0394 -0.0205
 8665SOL    HW138054   5.820   3.744   2.483  1.4636  3.1220  0.2235
 8665SOL    HW238055   5.660   3.711   2.482  2.4022 -1.8698  2.0400
 8666SOL     OW38056   9.627   6.822   9.614 -0.2652 -0.1583 -0.3815
 8666SOL    HW138057   9.665   6.900   9.663 -0.6953  0.5627 -1.1726
 8666SOL    HW238058   9.528   6.816   9.633  0.3404 -2.5793  2.4222
 8667SOL     OW38059   5.518   2.157   6.898 -0.1338 -0.1822  0.3371
 8667SOL    HW138060   5.614   2.129   6.889  0.0533  0.7923 -0.9761
 8667SOL    HW238061   5.513   2.241   6.952 -0.0952  0.5461 -0.7736
 8668SOL     OW38062   4.036   3.482   1.601 -0.4868  0.0051  0.1216
 8668SOL    HW138063   3.971   3.473   1.525  0.5353  1.4109 -0.9602
 8668SOL    HW238064   4.017   3.413   1.670 -0.8246 -1.9670 -1.8882
 8669SOL     OW38065   8.964   7.605   8.590 -0.2329 -0.5846 -0.2243
 8669SOL    HW138066   8.867   7.584   8.598 -0.3653  0.2790  0.5802
 8669SOL    HW238067   8.980   7.656   8.505  0.0068 -3.3807 -1.8974
 8670SOL     OW38068   4.461   8.295   5.742  0.9792  0.4542  0.1595
 8670SOL    HW138069   4.501   8.206   5.767  0.6851  0.4610  0.6641
 8670SOL    HW238070   4.531   8.351   5.697  1.9048  0.9231  2.1177
 8671SOL     OW38071   3.265   4.095   8.728 -0.3045 -0.2409 -0.3105
 8671SOL    HW138072   3.301   4.186   8.704 -0.1027 -0.8151 -2.2569
 8671SOL    HW238073   3.166   4.101   8.742 -0.1110  0.5138  0.7824
 8672SOL     OW38074   0.929   4.562   6.542  0.1079  0.0365  0.0613
 8672SOL    HW138075   0.834   4.531   6.537  0.4121 -0.7052 -1.8846
 8672SOL    HW238076   0.988   4.494   6.498  1.5356  0.5371  1.1638
 8673SOL     OW38077   1.425   3.829   9.371  0.5064  0.3549  0.2317
 8673SOL    HW138078   1.350   3.783   9.322  0.5508  0.6358 -0.1046
 8673SOL    HW238079   1.487   3.761   9.409  0.6084  0.1411 -0.3202
 8674SOL     OW38080   0.099   1.623   7.579  0.0477 -0.2477  0.9581
 8674SOL    HW138081   0.069   1.717   7.599 -0.1404 -0.7088  2.9512
 8674SOL    HW238082   0.142   1.584   7.661 -1.4581 -2.5115  0.7084
 8675SOL     OW38083   1.941   4.400   6.316 -0.0400  0.2986 -0.6185
 8675SOL    HW138084   1.917   4.434   6.225  2.1904 -2.5331 -2.3631
 8675SOL    HW238085   2.037   4.422   6.335 -0.0080 -0.6375  0.3135
 8676SOL     OW38086   0.552   4.123   7.148  0.2282  0.1129 -0.0675
 8676SOL    HW138087   0.484   4.071   7.201 -1.3753  1.1074 -1.1135
 8676SOL    HW238088   0.641   4.114   7.192 -0.5855 -1.1332  1.4049
 8677SOL     OW38089   2.953   4.943   6.466  0.2693  0.3718  0.4110
 8677SOL    HW138090   2.953   5.031   6.513  1.2291  0.4558  0.2669
 8677SOL    HW238091   2.867   4.932   6.416 -0.3493  0.6987  1.3996
 8678SOL     OW38092   1.519   0.103   4.328  0.2807 -0.1091 -0.1655
 8678SOL    HW138093   1.479   0.101   4.419  1.8686 -1.3539  0.5303
 8678SOL    HW238094   1.497   0.190   4.283 -1.0769  0.2280  1.1272
 8679SOL     OW38095   3.122   2.652   0.062 -0.2352  0.0886  0.1123
 8679SOL    HW138096   3.153   2.676  -0.030 -0.8527 -0.1104 -0.1502
 8679SOL    HW238097   3.134   2.554   0.077  0.2309  0.1862  0.3876
 8680SOL     OW38098   2.227   7.802   0.054 -0.3375  0.4241 -0.3507
 8680SOL    HW138099   2.161   7.736   0.021 -0.6156  0.5954 -0.1340
 8680SOL    HW238100   2.189   7.853   0.131 -0.3840  1.2922 -0.9288
 8681SOL     OW38101   0.051   9.675   9.520  0.2743 -0.0630  0.0098
 8681SOL    HW138102   0.074   9.648   9.613 -1.1770 -0.8881  0.1395
 8681SOL    HW238103   0.129   9.658   9.460  1.0192 -0.0557  0.9683
 8682SOL     OW38104   8.697   6.965   3.246 -0.0518 -0.2487  0.1388
 8682SOL    HW138105   8.773   6.995   3.302 -0.4338 -0.3824  0.7356
 8682SOL    HW238106   8.611   6.991   3.290 -0.3699 -1.3379  0.1886
 8683SOL     OW38107   0.691   5.515   9.960  0.4483 -0.6300 -0.2090
 8683SOL    HW138108   0.659   5.587  10.021 -0.4073 -0.6541 -0.6279
 8683SOL    HW238109   0.652   5.427   9.988  0.6806 -0.7689 -0.3179
 8684SOL     OW38110   5.119   0.886   9.631  0.1369 -0.0816 -0.2859
 8684SOL    HW138111   5.164   0.944   9.564 -4.6137  1.7037 -2.0955
 8684SOL    HW238112   5.094   0.799   9.588  1.8823 -1.1464  0.7687
 8685SOL     OW38113   4.026   6.224   0.918 -0.0954 -0.4810 -0.1042
 8685SOL    HW138114   4.076   6.308   0.897  0.1946 -0.3910  0.9398
 8685SOL    HW238115   3.962   6.242   0.993  1.1317 -1.6164  1.2230
 8686SOL     OW38116   5.144   3.252   9.546  0.5278 -0.1731 -0.6585
 8686SOL    HW138117   5.229   3.213   9.511  1.0833 -0.4814  0.9775
 8686SOL    HW238118   5.160   3.290   9.637 -0.8747  0.5953 -0.7223
 8687SOL     OW38119   0.446   8.387   9.035  0.3422 -0.0807  0.2866
 8687SOL    HW138120   0.451   8.459   8.965 -0.2108 -0.6074 -0.2962
 8687SOL    HW238121   0.397   8.423   9.115  2.2828  1.0064  1.0132
 8688SOL     OW38122   5.635   7.701   3.590  0.4925 -0.0663 -0.5854
 8688SOL    HW138123   5.654   7.651   3.675 -0.0987 -1.6524 -1.3500
 8688SOL    HW238124   5.646   7.799   3.605 -0.8693 -0.2412  1.6504
 8689SOL     OW38125   7.941   2.647   1.030 -0.3452 -0.3216 -0.0755
 8689SOL    HW138126   7.875   2.680   1.097  1.7351  0.5998  1.5660
 8689SOL    HW238127   8.001   2.579   1.072  2.7361  2.2462 -0.1604
 8690SOL     OW38128   0.187   5.002   5.377  0.2148 -0.1273 -0.5799
 8690SOL    HW138129   0.218   4.933   5.442 -3.7539 -0.1029  1.4992
 8690SOL    HW238130   0.112   4.965   5.323 -0.0915  1.6375 -1.3831
 8691SOL     OW38131   3.701   3.650   8.549 -0.1027  0.1552 -0.3326
 8691SOL    HW138132   3.665   3.627   8.458 -0.3518  2.6211 -0.8993
 8691SOL    HW238133   3.778   3.713   8.539  1.5087 -1.5192  1.0903
 8692SOL     OW38134   3.660   8.610   7.776  0.2314  0.2616  0.2561
 8692SOL    HW138135   3.666   8.709   7.787  0.9198  0.2223  0.2698
 8692SOL    HW238136   3.703   8.583   7.690  1.8749 -0.2236  1.1990
 8693SOL     OW38137   8.465   3.443   7.710  0.3216  0.2876  0.6120
 8693SOL    HW138138   8.469   3.436   7.810 -2.6137 -1.3372  0.6465
 8693SOL    HW238139   8.503   3.360   7.669 -0.8115 -0.1425  0.4275
 8694SOL     OW38140   9.945   2.386   5.504  0.1261  0.2724 -0.0630
 8694SOL    HW138141   9.969   2.467   5.450 -1.4771  0.2853 -0.7711
 8694SOL    HW238142   9.942   2.306   5.444 -0.1434  0.0175  0.2925
 8695SOL     OW38143   1.514   3.227   8.926 -0.7320  0.3044 -0.5603
 8695SOL    HW138144   1.468   3.148   8.968 -0.6339 -0.4791 -1.8939
 8695SOL    HW238145   1.607   3.235   8.962 -0.3915 -0.8158 -1.1580
 8696SOL     OW38146   3.789   4.696   2.319 -0.2990 -0.6282  0.1800
 8696SOL    HW138147   3.785   4.666   2.224 -0.2553 -2.1628  0.6617
 8696SOL    HW238148   3.881   4.678   2.356 -0.1768  0.3747  0.3848
 8697SOL     OW38149   1.285   3.069   4.108  0.1108  0.1455 -0.0858
 8697SOL    HW138150   1.248   3.154   4.145  0.4510  0.0721  0.4287
 8697SOL    HW238151   1.385   3.071   4.112  0.0894 -1.0105  1.6372
 8698SOL     OW38152   3.792   4.189   7.754 -0.1380 -0.1413 -0.0977
 8698SOL    HW138153   3.766   4.094   7.736 -0.8171  0.4093 -2.1813
 8698SOL    HW238154   3.787   4.207   7.852  1.0113 -2.5324  0.4202
 8699SOL     OW38155   0.839   6.362   7.406  0.0991  0.0545 -0.1091
 8699SOL    HW138156   0.909   6.296   7.378  1.0569  1.0718 -0.1296
 8699SOL    HW238157   0.791   6.396   7.325  0.2213  0.0650 -0.1771
 8700SOL     OW38158   0.834   1.476   8.609  0.5478  0.1055  0.7260
 8700SOL    HW138159   0.811   1.567   8.574  0.0651  0.0640  0.9302
 8700SOL    HW238160   0.933   1.465   8.610  0.5612 -0.2279 -1.4731
 8701SOL     OW38161   7.611   2.927   8.246  0.0787  0.4792 -0.4739
 8701SOL    HW138162   7.519   2.931   8.285  0.4182 -1.6567  0.6127
 8701SOL    HW238163   7.618   2.847   8.186  1.8935 -0.7133  1.2675
 8702SOL     OW38164   4.104   6.961   9.502  0.0461 -0.2426  0.1992
 8702SOL    HW138165   4.106   7.023   9.424  1.3224  0.4461  0.7501
 8702SOL    HW238166   4.186   6.903   9.500 -0.9752 -1.6961 -0.1307
 8703SOL     OW38167   6.521   6.297   6.745 -0.7911 -0.1657  0.4231
 8703SOL    HW138168   6.474   6.225   6.795  0.8270 -0.6924  1.2195
 8703SOL    HW238169   6.493   6.294   6.649 -2.6424 -0.2194  0.9399
 8704SOL     OW38170   8.232   6.279   8.402  0.4611  0.0467  0.3960
 8704SOL    HW138171   8.142   6.240   8.381 -0.1913  1.1431  1.0754
 8704SOL    HW238172   8.291   6.208   8.439 -0.3532 -0.5442  0.5772
 8705SOL     OW38173   3.215   4.317   1.376  0.1190  0.0778 -0.4701
 8705SOL    HW138174   3.203   4.408   1.337 -1.0544  0.1533  0.0403
 8705SOL    HW238175   3.180   4.249   1.312  0.2157  0.0413 -0.4848
 8706SOL     OW38176   4.224   6.529   5.624 -0.1399  0.0801  0.2244
 8706SOL    HW138177   4.192   6.476   5.702 -2.1571 -0.2425 -0.7946
 8706SOL    HW238178   4.314   6.567   5.645 -0.8702  0.4490  2.9104
 8707SOL     OW38179   0.553   3.589   8.928 -0.1709 -0.0768 -0.0765
 8707SOL    HW138180   0.563   3.556   9.022  0.4833  0.3822  0.0147
 8707SOL    HW238181   0.460   3.570   8.897  0.1060 -1.7487  0.0758
 8708SOL     OW38182   4.883   2.632   6.626 -0.4572  0.4281  0.8047
 8708SOL    HW138183   4.791   2.603   6.654 -0.7518  2.3260  1.9084
 8708SOL    HW238184   4.950   2.581   6.679 -0.9235  0.4347  1.4160
 8709SOL     OW38185   2.471   6.314   8.849 -0.3535 -0.6599  0.2814
 8709SOL    HW138186   2.520   6.401   8.858 -0.9978 -0.2683  0.0827
 8709SOL    HW238187   2.385   6.330   8.800 -0.8995 -1.2609  1.0455
 8710SOL     OW38188   1.673   5.720   0.643  0.1374  0.2671  0.0872
 8710SOL    HW138189   1.578   5.714   0.613  0.0163  1.0440  0.3011
 8710SOL    HW238190   1.723   5.638   0.615 -0.4600  0.1127 -0.5113
 8711SOL     OW38191   5.557   2.204   1.871 -0.1860 -0.1348 -0.6282
 8711SOL    HW138192   5.559   2.129   1.804 -1.5371  0.3674 -1.2613
 8711SOL    HW238193   5.465   2.243   1.874  0.5942  1.7608 -0.5918
 8712SOL     OW38194   1.266   2.910   2.710 -0.0350 -0.0380 -0.7431
 8712SOL    HW138195   1.349   2.913   2.765 -0.1964 -0.4501 -0.4757
 8712SOL    HW238196   1.289   2.888   2.615  0.0393 -1.3803 -0.4209
 8713SOL     OW38197   8.369   2.607   9.211  0.3090  0.1438 -0.4894
 8713SOL    HW138198   8.274   2.586   9.233  0.6785 -1.5875 -0.4799
 8713SOL    HW238199   8.429   2.557   9.274  1.2117  2.0802  0.2161
 8714SOL     OW38200   2.217   7.743   2.746 -0.7319  0.4703 -0.0241
 8714SOL    HW138201   2.202   7.810   2.819 -0.0804  0.6188 -0.0278
 8714SOL    HW238202   2.242   7.790   2.662 -0.6123  0.2388 -0.1182
 8715SOL     OW38203   3.263   3.670   7.178 -0.2285  0.0905  0.0057
 8715SOL    HW138204   3.245   3.668   7.080  0.0884  1.7098 -0.0919
 8715SOL    HW238205   3.192   3.723   7.224 -1.1912 -1.8830  0.8511
 8716SOL     OW38206   2.681   3.697   5.904 -0.0015 -0.4734  0.2563
 8716SOL    HW138207   2.741   3.697   5.983 -0.0451 -1.4853  0.2919
 8716SOL    HW238208   2.653   3.603   5.882 -0.0550 -0.2019 -0.9041
 8717SOL     OW38209   6.189   2.755   1.120  0.0714 -0.5607 -0.0807
 8717SOL    HW138210   6.199   2.819   1.044  0.3508 -2.9499 -2.1041
 8717SOL    HW238211   6.094   2.725   1.126 -0.3296  0.9175  1.6550
 8718SOL     OW38212   4.325   5.564   8.410  0.7144 -0.0487  0.3938
 8718SOL    HW138213   4.267   5.638   8.445 -2.5003 -2.8642  1.3648
 8718SOL    HW238214   4.305   5.549   8.314  1.0633  0.0462  0.3057
 8719SOL     OW38215   0.659   7.242   6.588 -0.0044  0.2878 -0.0547
 8719SOL    HW138216   0.638   7.193   6.504  1.2031 -0.6050  0.1520
 8719SOL    HW238217   0.757   7.234   6.609 -0.2778  0.5164  1.4242
 8720SOL     OW38218   1.826   7.848   7.005  0.2669 -0.4353  0.3390
 8720SOL    HW138219   1.912   7.890   6.977 -0.6561  0.7158 -0.8769
 8720SOL    HW238220   1.837   7.803   7.093  1.8354  0.5898  0.6805
 8721SOL     OW38221   0.293   1.216   2.130  0.3776  0.6647  0.4460
 8721SOL    HW138222   0.252   1.250   2.215 -2.5695 -0.6478 -0.3944
 8721SOL    HW238223   0.306   1.117   2.137 -0.7915  0.3964 -0.9757
 8722SOL     OW38224   7.761   5.392   8.487  0.7856 -0.3874  0.0319
 8722SOL    HW138225   7.747   5.318   8.421  1.6402 -0.1503 -0.4340
 8722SOL    HW238226   7.738   5.360   8.579  1.1602 -1.2434 -0.1650
 8723SOL     OW38227   6.264   4.575   1.079 -0.4743 -0.0264 -0.5266
 8723SOL    HW138228   6.171   4.571   1.042 -0.3876 -0.0426 -0.7424
 8723SOL    HW238229   6.298   4.669   1.070 -1.8398  0.8990  2.9093
 8724SOL     OW38230   2.593   5.835   8.565 -0.3235 -0.1233  0.3458
 8724SOL    HW138231   2.670   5.898   8.555 -0.3193 -0.1949 -0.0907
 8724SOL    HW238232   2.554   5.816   8.475 -1.0883  0.2113  0.6099
 8725SOL     OW38233   5.915   2.590   9.495  0.5180  0.6500  0.4331
 8725SOL    HW138234   5.895   2.686   9.476 -0.0217  0.4463 -0.0537
 8725SOL    HW238235   5.944   2.545   9.411 -0.2057  0.1517  0.4443
 8726SOL     OW38236   3.800   5.748   6.998  0.3698 -0.0605 -0.2321
 8726SOL    HW138237   3.849   5.660   7.002  1.7705  0.6688 -0.8823
 8726SOL    HW238238   3.862   5.821   7.027 -0.8689  0.6961  0.5674
 8727SOL     OW38239   6.023   8.142   3.604 -0.5791 -0.2637 -0.6118
 8727SOL    HW138240   6.018   8.206   3.680 -0.8022 -0.3331 -0.5693
 8727SOL    HW238241   5.972   8.059   3.626 -3.0381  0.8480 -1.9413
 8728SOL     OW38242   7.132   8.312   5.993  0.8208  0.3225 -0.0766
 8728SOL    HW138243   7.217   8.360   5.970  1.0357  0.5067  1.0887
 8728SOL    HW238244   7.056   8.356   5.946  1.4522 -0.2923 -1.7178
 8729SOL     OW38245   3.862   4.270   5.937 -0.5186 -0.0692  0.4119
 8729SOL    HW138246   3.933   4.242   5.873 -0.7140 -2.0180  1.0109
 8729SOL    HW238247   3.881   4.232   6.027 -1.1212  1.2815  1.1239
 8730SOL     OW38248   2.405   4.131   8.985  0.1947  0.0409 -0.1045
 8730SOL    HW138249   2.327   4.184   8.952 -1.6460 -1.9826  0.8897
 8730SOL    HW238250   2.429   4.161   9.077  1.9167  2.0339 -1.1645
 8731SOL     OW38251   2.277   8.289   5.498  0.1102 -0.1516  0.4992
 8731SOL    HW138252   2.334   8.276   5.417 -1.1698 -0.9642 -0.2857
 8731SOL    HW238253   2.325   8.257   5.579  1.4944  0.8884  0.1075
 8732SOL     OW38254   2.272   0.275   9.029 -0.2235  0.1019  0.0171
 8732SOL    HW138255   2.309   0.185   9.006 -1.9498 -0.4215 -0.7320
 8732SOL    HW238256   2.272   0.333   8.948  0.7167  0.7314  0.4581
 8733SOL     OW38257   3.890   4.901   2.681 -0.3124 -0.2715 -0.4093
 8733SOL    HW138258   3.836   4.943   2.753 -0.3772  0.1506 -0.7012
 8733SOL    HW238259   3.831   4.878   2.603 -0.3367 -1.2234 -0.1120
 8734SOL     OW38260   6.672   5.317   7.017  0.2283  0.0123 -0.0716
 8734SOL    HW138261   6.624   5.242   7.062 -1.2412 -0.2222 -1.9881
 8734SOL    HW238262   6.770   5.297   7.015  0.0765 -0.9050  1.2026
 8735SOL     OW38263   4.123   1.221   7.276 -0.1244  0.1841  0.1443
 8735SOL    HW138264   4.144   1.124   7.287 -1.1198  0.0757  1.2680
 8735SOL    HW238265   4.151   1.252   7.185  1.2472 -0.8722  0.1867
 8736SOL     OW38266   0.507   6.676   6.935  0.2990  0.4544 -0.0114
 8736SOL    HW138267   0.554   6.764   6.949  1.1076  0.3607 -1.9882
 8736SOL    HW238268   0.434   6.667   7.003  1.8363  1.5053  1.8480
 8737SOL     OW38269   8.122   1.760   1.285 -0.0255  0.4775  0.1842
 8737SOL    HW138270   8.075   1.768   1.198  1.2448 -1.1088 -0.6865
 8737SOL    HW238271   8.221   1.764   1.270  0.2387 -0.9379  1.3897
 8738SOL     OW38272   9.006   3.509   8.516 -0.1367  0.2860 -0.2849
 8738SOL    HW138273   8.993   3.485   8.420 -2.7275 -0.5320  0.2325
 8738SOL    HW238274   9.078   3.452   8.555 -0.3047 -0.6224 -1.2798
 8739SOL     OW38275   2.537   5.038   6.855 -0.0574  0.1261 -0.0034
 8739SOL    HW138276   2.442   5.025   6.827 -0.3343  0.9542  0.5198
 8739SOL    HW238277   2.553   4.992   6.942  0.1932 -0.5649 -0.4202
 8740SOL     OW38278   1.941   7.990   7.621  0.0719 -0.2612 -0.1762
 8740SOL    HW138279   1.914   8.083   7.597 -0.3189  0.0368  1.3154
 8740SOL    HW238280   1.944   7.933   7.539 -2.0132  0.4811 -0.8006
 8741SOL     OW38281   8.148   2.327   7.427  0.3838  0.1550 -0.1569
 8741SOL    HW138282   8.139   2.427   7.429  1.1895  0.2141  0.7086
 8741SOL    HW238283   8.100   2.291   7.347 -1.5558  1.0717  0.5374
 8742SOL     OW38284   9.859   2.935   4.566  0.4924  0.3172 -0.3636
 8742SOL    HW138285   9.853   2.947   4.467  0.7266 -0.6525 -0.5010
 8742SOL    HW238286   9.773   2.964   4.608 -0.8947 -2.4703 -1.1908
 8743SOL     OW38287   3.829   4.446   2.841  0.0842  0.4451  0.2530
 8743SOL    HW138288   3.844   4.542   2.817 -0.9307  0.3850 -0.6929
 8743SOL    HW238289   3.731   4.427   2.843  0.2338 -0.3010  1.5830
 8744SOL     OW38290   6.092   1.435   8.980  0.1644  0.0390 -0.0854
 8744SOL    HW138291   6.106   1.407   9.074 -1.5300 -0.0979  0.1437
 8744SOL    HW238292   6.061   1.530   8.977  2.4755  0.8013 -0.6525
 8745SOL     OW38293   1.543   5.366   0.428  0.4553  0.3283 -0.3066
 8745SOL    HW138294   1.533   5.386   0.525  2.4147 -0.3130  0.0386
 8745SOL    HW238295   1.452   5.353   0.387 -0.3257 -0.7005  1.7016
 8746SOL     OW38296   2.737   3.016   5.674  0.0534 -0.0458  0.1875
 8746SOL    HW138297   2.758   2.932   5.724  0.5262 -0.5325 -0.8166
 8746SOL    HW238298   2.820   3.052   5.633 -0.7040 -0.9078 -2.1653
 8747SOL     OW38299   0.063   4.875   6.173 -0.4817 -0.4968  0.0831
 8747SOL    HW138300   0.004   4.836   6.244  0.1053 -1.5716 -0.0078
 8747SOL    HW238301   0.083   4.805   6.105  0.6531 -0.0508 -0.0401
 8748SOL     OW38302   2.650   4.186   8.878 -0.1567  0.6546 -0.8203
 8748SOL    HW138303   2.693   4.096   8.886 -0.5472  0.6519  1.4722
 8748SOL    HW238304   2.561   4.184   8.923  0.9215  2.8834  1.4641
 8749SOL     OW38305   6.552   3.517   4.246 -0.2793  0.5247 -0.3592
 8749SOL    HW138306   6.503   3.500   4.331 -1.4094  0.0151 -1.0997
 8749SOL    HW238307   6.486   3.527   4.171  0.7883 -2.2137 -1.7334
 8750SOL     OW38308   2.281   2.090   7.786 -0.0588 -0.5331 -0.0278
 8750SOL    HW138309   2.186   2.057   7.789  0.1288 -1.0984 -0.1531
 8750SOL    HW238310   2.285   2.174   7.733 -0.4711 -0.5810 -0.1415
 8751SOL     OW38311   2.990   2.437   4.331  0.3869  0.6123  0.0449
 8751SOL    HW138312   3.017   2.342   4.350  0.1771  0.6490  0.5106
 8751SOL    HW238313   3.072   2.492   4.316  0.6530  0.9611  2.5437
 8752SOL     OW38314   8.758   6.985   6.301 -0.1179  0.2112 -0.2062
 8752SOL    HW138315   8.830   6.917   6.310  1.6416  1.7221 -2.3521
 8752SOL    HW238316   8.735   7.022   6.391  0.6042 -1.4294  0.6812
 8753SOL     OW38317   4.396   6.649   0.910 -0.1152 -0.2693  0.1791
 8753SOL    HW138318   4.496   6.646   0.923 -0.0918  1.3704  0.5626
 8753SOL    HW238319   4.352   6.661   0.999 -0.4296  2.7819 -0.3481
 8754SOL     OW38320   5.324   0.880   1.691 -0.1138  0.3993 -0.3705
 8754SOL    HW138321   5.251   0.820   1.723  0.3687  0.5374  1.0444
 8754SOL    HW238322   5.313   0.898   1.594 -1.2069 -0.6438 -0.4439
 8755SOL     OW38323   3.592   8.699   1.552  0.9313 -0.3958  0.1609
 8755SOL    HW138324   3.582   8.629   1.480 -1.6276 -1.2157  1.2344
 8755SOL    HW238325   3.519   8.767   1.542  0.9785 -0.1242  1.5405
 8756SOL     OW38326   1.421   0.095   8.169  0.4692 -0.1471 -0.2398
 8756SOL    HW138327   1.369   0.120   8.251 -0.7107  2.2402 -1.6444
 8756SOL    HW238328   1.431   0.176   8.110  3.3049 -1.2511 -1.3744
 8757SOL     OW38329   5.961   4.638   9.103 -0.2058 -0.1593 -0.0191
 8757SOL    HW138330   6.007   4.643   9.015 -0.1080 -1.3141 -0.0472
 8757SOL    HW238331   6.015   4.686   9.173 -1.0283  2.0578 -0.8792
 8758SOL     OW38332   0.940   3.545   7.665 -0.6240  0.2289 -0.4614
 8758SOL    HW138333   1.002   3.467   7.658 -0.0059  0.7864 -1.3188
 8758SOL    HW238334   0.975   3.610   7.733 -0.4914  0.3427 -0.6386
 8759SOL     OW38335   6.878   2.477   2.101 -0.1514  0.6576 -0.0072
 8759SOL    HW138336   6.960   2.434   2.063  0.4468  0.8611  1.0116
 8759SOL    HW238337   6.796   2.437   2.060  0.4824  1.8967 -2.5654
 8760SOL     OW38338   2.347   1.777   6.668 -0.1298 -0.0021 -0.0413
 8760SOL    HW138339   2.423   1.773   6.733 -0.9313  1.1140  1.0042
 8760SOL    HW238340   2.368   1.842   6.595  0.0710  0.0458  0.0610
 8761SOL     OW38341   1.772   1.949   3.329  0.3533 -0.4766  0.1353
 8761SOL    HW138342   1.818   1.902   3.254  0.0894  0.9657 -0.9238
 8761SOL    HW238343   1.840   1.977   3.397  0.7256 -0.6602 -0.1582
 8762SOL     OW38344   3.620   2.827   0.429  0.0240 -0.0437  0.1478
 8762SOL    HW138345   3.567   2.742   0.423  2.2870 -1.4125 -1.3291
 8762SOL    HW238346   3.683   2.821   0.507  0.1179  0.3370  0.1031
 8763SOL     OW38347   9.508   7.602   7.635 -0.0460  0.0390  0.0643
 8763SOL    HW138348   9.596   7.603   7.589  0.1644 -1.8085  0.3770
 8763SOL    HW238349   9.457   7.686   7.613  1.9219  1.2907  0.1850
 8764SOL     OW38350   8.811   1.006   8.460 -0.4748  0.4956 -0.5553
 8764SOL    HW138351   8.714   1.026   8.447 -0.9232 -1.1175  0.2190
 8764SOL    HW238352   8.835   0.923   8.408  0.4932  0.9094 -0.7754
 8765SOL     OW38353   1.042   6.076   9.986 -0.1359 -0.7450  0.3275
 8765SOL    HW138354   1.010   6.027  10.067 -1.6910  0.5230  0.5096
 8765SOL    HW238355   1.056   6.172  10.008 -1.9599 -0.0773 -1.2252
 8766SOL     OW38356   2.290   6.660   9.384 -0.2815  0.3039 -0.2738
 8766SOL    HW138357   2.311   6.563   9.386 -1.8347 -0.0221  0.8798
 8766SOL    HW238358   2.210   6.676   9.326 -1.3738  0.5916  1.2623
 8767SOL     OW38359   1.020   6.692   1.098  0.1124 -0.5530 -0.2629
 8767SOL    HW138360   1.013   6.750   1.016 -0.4011 -0.1549  0.0625
 8767SOL    HW238361   0.930   6.680   1.138  0.2509 -1.4104 -0.2060
 8768SOL     OW38362   4.076   7.929   5.312 -0.7912  0.1034 -0.7565
 8768SOL    HW138363   4.142   7.854   5.319 -1.8931 -0.7749  0.5229
 8768SOL    HW238364   4.109   8.007   5.364 -0.1862  0.0946 -1.1288
 8769SOL     OW38365   8.717   6.878   7.675  0.1228  0.1196  0.1624
 8769SOL    HW138366   8.757   6.962   7.641  0.8921  0.0802  0.9573
 8769SOL    HW238367   8.631   6.859   7.626  0.9878  0.2752 -1.4407
 8770SOL     OW38368   2.297   9.303   1.706 -0.1116  0.7091  0.0270
 8770SOL    HW138369   2.281   9.355   1.622 -0.6830  0.6544  0.1004
 8770SOL    HW238370   2.298   9.205   1.685  0.0489  0.7062  0.0404
 8771SOL     OW38371   2.574   7.622   8.477  0.1662 -0.0959 -0.0946
 8771SOL    HW138372   2.499   7.659   8.422  0.3670 -1.6342 -1.4412
 8771SOL    HW238373   2.545   7.615   8.573 -1.1755 -0.0552 -0.4863
 8772SOL     OW38374   3.364   6.336   3.845  0.4368  0.0630 -1.1218
 8772SOL    HW138375   3.409   6.249   3.867  2.0666  1.2957  0.6346
 8772SOL    HW238376   3.270   6.319   3.817  1.0733 -2.3525 -1.9109
 8773SOL     OW38377   3.594   7.868   9.959  0.2853  0.5734 -1.0147
 8773SOL    HW138378   3.573   7.963   9.935 -2.7442 -0.4357 -2.6388
 8773SOL    HW238379   3.589   7.811   9.878  0.0738 -1.3034  0.2810
 8774SOL     OW38380   1.806   2.812   9.440  0.0603 -0.8487 -0.2226
 8774SOL    HW138381   1.852   2.829   9.527  0.2800  1.4134 -0.7394
 8774SOL    HW238382   1.745   2.733   9.449  1.6848 -1.9690  1.3436
 8775SOL     OW38383   0.685   2.262   3.499  0.2546  0.3026  0.1201
 8775SOL    HW138384   0.782   2.285   3.496  0.0148  1.2488 -0.4367
 8775SOL    HW238385   0.659   2.242   3.593  1.1056 -0.4875  0.2007
 8776SOL     OW38386   3.871   0.984   6.759 -0.1382  0.8865 -0.5755
 8776SOL    HW138387   3.777   1.015   6.776 -0.6315 -1.0850  0.3507
 8776SOL    HW238388   3.905   0.934   6.838  0.4196 -1.4849 -2.2483
 8777SOL     OW38389   2.074   6.466   7.844 -0.3915  0.9710 -0.5590
 8777SOL    HW138390   2.076   6.509   7.934  0.0231  0.0006 -0.0985
 8777SOL    HW238391   1.981   6.436   7.824 -0.0259 -0.9541  0.5801
 8778SOL     OW38392   2.076   0.650   6.847  0.1537 -0.4738 -0.5386
 8778SOL    HW138393   2.054   0.653   6.749 -0.0446  0.0666 -0.4754
 8778SOL    HW238394   2.000   0.608   6.897 -0.2854  0.3918 -0.4614
 8779SOL     OW38395   4.071   5.755   6.519 -0.0185  0.8720  0.0168
 8779SOL    HW138396   4.009   5.788   6.591 -0.5838 -0.2833  0.0720
 8779SOL    HW238397   4.134   5.828   6.494  0.1167  1.3384  1.6131
 8780SOL     OW38398   8.746   2.601   8.652 -0.0723 -0.6375  0.2690
 8780SOL    HW138399   8.677   2.662   8.691  1.3210  1.2404 -0.1434
 8780SOL    HW238400   8.758   2.621   8.555  1.2924 -0.7276  0.4032
 8781SOL     OW38401   1.347   5.071   0.120  0.3637 -0.6091 -0.2782
 8781SOL    HW138402   1.446   5.056   0.113  0.2768 -0.9613 -0.7863
 8781SOL    HW238403   1.320   5.071   0.216  1.1759  1.5695 -0.0148
 8782SOL     OW38404   2.540   4.964   8.493 -0.9059 -0.0669  0.2113
 8782SOL    HW138405   2.571   4.870   8.503 -0.8099 -0.0310  0.2506
 8782SOL    HW238406   2.480   4.987   8.570  0.8896  0.6354  1.4240
 8783SOL     OW38407   0.756   6.642   3.648 -0.0738  1.1204 -0.3630
 8783SOL    HW138408   0.823   6.609   3.713  1.0028 -1.1442 -2.5180
 8783SOL    HW238409   0.751   6.742   3.652  1.8267  1.1747  1.3243
 8784SOL     OW38410   0.271   3.524   7.031  0.4546 -0.0868 -1.0561
 8784SOL    HW138411   0.190   3.465   7.029  0.5324 -0.3374  1.6539
 8784SOL    HW238412   0.352   3.470   7.008 -0.0153 -0.0145 -2.9689
 8785SOL     OW38413   3.906   6.820   7.383  0.1886 -0.0610 -0.0455
 8785SOL    HW138414   3.812   6.856   7.381 -0.5012 -1.8444 -1.0707
 8785SOL    HW238415   3.969   6.894   7.406 -1.4330  1.2450  0.3314
 8786SOL     OW38416   2.904   1.989   2.410 -1.0668 -0.0143  0.6344
 8786SOL    HW138417   2.850   1.906   2.417  0.1830 -0.8188  1.0527
 8786SOL    HW238418   2.874   2.043   2.332 -2.9080 -0.1075  1.2681
 8787SOL     OW38419   3.223   1.828   1.219  0.1391  0.3208 -0.2525
 8787SOL    HW138420   3.245   1.753   1.157 -0.6889 -0.2558  0.1438
 8787SOL    HW238421   3.124   1.840   1.223  0.1057 -0.3584  1.7853
 8788SOL     OW38422   3.866   2.952   3.895 -0.8190 -0.3860 -0.2641
 8788SOL    HW138423   3.961   2.922   3.905 -1.0235 -0.6704  0.8650
 8788SOL    HW238424   3.863   3.052   3.897 -0.6858 -0.4092  0.9557
 8789SOL     OW38425   2.621   7.900   9.621  0.0917 -0.0864 -0.1711
 8789SOL    HW138426   2.581   7.990   9.635  0.2178  0.1180 -1.0681
 8789SOL    HW238427   2.566   7.831   9.668 -1.4637  0.1590 -1.5588
 8790SOL     OW38428   4.609   5.102   9.206 -0.0140 -0.1499 -0.0615
 8790SOL    HW138429   4.518   5.062   9.199 -0.5230  0.9303  0.2710
 8790SOL    HW238430   4.646   5.084   9.297 -0.4246  0.5021  0.2395
 8791SOL     OW38431   4.466   3.215   7.978 -0.6952 -0.6152  0.4326
 8791SOL    HW138432   4.421   3.158   8.046 -1.4409  0.2914  0.7056
 8791SOL    HW238433   4.400   3.243   7.908  0.1309 -1.7748 -0.8207
 8792SOL     OW38434   9.050   1.982   9.133 -0.3406  0.0590  0.1536
 8792SOL    HW138435   9.079   1.909   9.071  1.8698 -0.7281  2.0038
 8792SOL    HW238436   8.961   1.959   9.173  0.9965 -2.4202  1.8397
 8793SOL     OW38437   3.569   6.377   9.750 -0.2790  0.3617 -0.0589
 8793SOL    HW138438   3.533   6.284   9.742 -1.1480  0.7769 -1.1374
 8793SOL    HW238439   3.621   6.385   9.835 -1.1525 -0.7851  0.6033
 8794SOL     OW38440   2.597   4.697   8.213  0.1751 -0.0277 -0.7408
 8794SOL    HW138441   2.688   4.689   8.254 -0.9098  0.1967  1.8363
 8794SOL    HW238442   2.558   4.606   8.199 -0.6304 -0.0900  1.6059
 8795SOL     OW38443   3.405   2.438   0.894  0.4069  0.0250 -0.1187
 8795SOL    HW138444   3.436   2.518   0.946 -1.4421 -0.2972  1.5828
 8795SOL    HW238445   3.452   2.356   0.926  0.9594  0.1659 -0.5725
 8796SOL     OW38446   5.200   7.349   9.861 -0.2597  0.0079 -0.5181
 8796SOL    HW138447   5.109   7.383   9.838 -0.4244 -0.7886 -1.0856
 8796SOL    HW238448   5.191   7.262   9.910  0.1580  0.6408  0.6881
 8797SOL     OW38449   0.492   5.087   1.950 -0.3366 -0.1571  0.2395
 8797SOL    HW138450   0.400   5.049   1.963 -0.8055  0.9062  0.0271
 8797SOL    HW238451   0.487   5.170   1.895  0.9406 -0.9965 -1.1898
 8798SOL     OW38452   5.406   6.845   2.880 -0.2664  0.3515  0.3087
 8798SOL    HW138453   5.317   6.810   2.851 -0.3664  0.7566  0.1354
 8798SOL    HW238454   5.461   6.866   2.799 -0.1067  0.3462  0.4166
 8799SOL     OW38455   2.879   5.995   9.616 -0.1304  0.0873 -0.1459
 8799SOL    HW138456   2.801   5.947   9.576 -1.4262  2.0870 -0.0414
 8799SOL    HW238457   2.948   6.010   9.545 -0.9820  0.6815 -0.8557
 8800SOL     OW38458   1.693   5.818   8.246  0.9413  0.3496  0.3518
 8800SOL    HW138459   1.749   5.830   8.328  0.7118 -0.0292  0.5660
 8800SOL    HW238460   1.671   5.721   8.235  3.1653  0.0189 -1.5984
 8801SOL     OW38461   5.333   4.859   9.123 -0.2316 -0.9027 -0.3369
 8801SOL    HW138462   5.420   4.897   9.091  0.2197  0.0162  1.9194
 8801SOL    HW238463   5.261   4.927   9.112 -0.2366 -0.8790 -0.1593
 8802SOL     OW38464   9.359   6.170   9.387 -0.2773 -0.1283 -0.2200
 8802SOL    HW138465   9.361   6.246   9.322  0.3977 -1.3995 -1.7101
 8802SOL    HW238466   9.283   6.183   9.451  0.1974  2.0896 -0.0938
 8803SOL     OW38467   1.989   1.189   5.009 -0.4410 -0.0265  0.5522
 8803SOL    HW138468   1.958   1.261   5.071  0.5578 -0.4493  1.5484
 8803SOL    HW238469   2.073   1.148   5.044 -2.1935 -3.2146  1.1464
 8804SOL     OW38470   3.275   8.990   0.389 -0.1668 -0.0183  0.6159
 8804SOL    HW138471   3.197   9.050   0.369  1.1392  1.0300 -1.4926
 8804SOL    HW238472   3.256   8.898   0.355 -0.0970  0.4760 -0.7760
 8805SOL     OW38473   2.319   5.210   6.452 -0.1934 -0.6296  0.5201
 8805SOL    HW138474   2.335   5.112   6.466 -0.6243 -0.6089  1.1712
 8805SOL    HW238475   2.354   5.261   6.532  0.9707 -0.1628 -0.2706
 8806SOL     OW38476   1.261   1.197   9.772 -0.4003 -0.0934  0.6838
 8806SOL    HW138477   1.202   1.150   9.707  0.8420 -1.3848  0.4529
 8806SOL    HW238478   1.279   1.290   9.741 -0.6803 -0.3515 -0.2607
 8807SOL     OW38479   1.364   3.608   7.976  0.1909 -0.5009  0.8360
 8807SOL    HW138480   1.381   3.673   8.050 -0.1019 -0.3134  0.7385
 8807SOL    HW238481   1.446   3.600   7.919  0.9443 -1.7963  2.0728
 8808SOL     OW38482   2.081   2.301   4.852 -0.6319  0.1540  0.2650
 8808SOL    HW138483   2.140   2.273   4.928  2.1908  1.3848 -1.3849
 8808SOL    HW238484   2.087   2.234   4.778 -2.1089 -0.2219  0.4718
 8809SOL     OW38485   8.960   7.793   5.472 -0.3594 -0.2259  0.8861
 8809SOL    HW138486   8.966   7.880   5.522 -1.5658 -0.9348  2.2926
 8809SOL    HW238487   8.882   7.797   5.409  1.8518  1.1093 -1.8967
 8810SOL     OW38488   1.105   9.725   1.045  0.1483  0.0606  0.2063
 8810SOL    HW138489   1.105   9.626   1.054  0.7972  0.2322  2.4915
 8810SOL    HW238490   1.170   9.765   1.110 -0.4864  2.0089 -0.3049
 8811SOL     OW38491   4.766   5.680   4.067  0.1662 -0.4430 -0.2017
 8811SOL    HW138492   4.761   5.668   3.968  1.0930 -0.3209 -0.2739
 8811SOL    HW238493   4.793   5.775   4.087  1.4275 -0.8559  0.1173
 8812SOL     OW38494   2.339   0.412   9.290 -0.2960 -0.1808 -0.4638
 8812SOL    HW138495   2.314   0.358   9.210 -2.0932  0.2411 -0.2127
 8812SOL    HW238496   2.339   0.509   9.265 -1.2210 -0.0233  0.1154
 8813SOL     OW38497   9.525   3.611   0.137  0.1683 -0.8313 -0.0511
 8813SOL    HW138498   9.569   3.561   0.062  1.7694 -0.7038  0.7889
 8813SOL    HW238499   9.544   3.565   0.224 -0.0336  0.1049  0.4981
 8814SOL     OW38500   5.920   4.923   0.172  0.7284 -0.2343  0.3003
 8814SOL    HW138501   5.942   4.872   0.088 -1.1290 -0.2626 -0.1912
 8814SOL    HW238502   5.925   4.862   0.251  2.0286 -0.3188  0.1620
 8815SOL     OW38503   9.996   5.886   1.640 -0.7340  0.0811 -0.1905
 8815SOL    HW138504   9.956   5.905   1.730 -0.8271  3.1991 -0.8429
 8815SOL    HW238505   9.935   5.920   1.568  1.6003  2.1612 -1.2762
 8816SOL     OW38506   0.713   2.726   2.399 -0.1381  0.1126  0.1983
 8816SOL    HW138507   0.627   2.682   2.371  0.7315 -0.8942 -0.9377
 8816SOL    HW238508   0.699   2.825   2.406 -1.3226 -0.0155 -0.2462
 8817SOL     OW38509   0.937   5.338   0.648  0.0491  0.2887 -0.4150
 8817SOL    HW138510   0.987   5.283   0.716  0.8816  0.4706 -0.8685
 8817SOL    HW238511   0.906   5.279   0.574  0.6687  0.3686 -0.7443
 8818SOL     OW38512   0.054   2.879   1.187  0.4360 -0.1461 -0.1862
 8818SOL    HW138513   0.095   2.799   1.143 -0.9124 -0.3073 -1.1781
 8818SOL    HW238514  -0.045   2.867   1.193  0.4586  0.4656  1.7090
 8819SOL     OW38515   7.608   8.079   0.384 -0.5700 -0.0390  0.5037
 8819SOL    HW138516   7.542   8.050   0.453 -0.2676 -0.3503  0.6616
 8819SOL    HW238517   7.559   8.114   0.304 -0.9280 -0.2191  0.6430
 8820SOL     OW38518   9.150   5.006   2.616 -0.1442  0.1265 -0.0312
 8820SOL    HW138519   9.195   5.034   2.531  0.1881  1.6155  0.6127
 8820SOL    HW238520   9.214   5.015   2.692 -0.0598 -2.3414  0.2424
 8821SOL     OW38521   1.967   0.010   6.078  0.9544  0.6710  0.0212
 8821SOL    HW138522   2.043  -0.032   6.028 -0.4538 -2.1956  0.1985
 8821SOL    HW238523   1.916   0.071   6.017  0.2494 -1.4946 -1.6110
 8822SOL     OW38524   2.044   0.784   2.394 -0.1639 -0.3782  0.5185
 8822SOL    HW138525   1.949   0.807   2.372 -0.3586 -0.7333  0.9840
 8822SOL    HW238526   2.094   0.867   2.418  0.1279  0.0638 -1.5138
 8823SOL     OW38527   1.753   5.858   0.174 -0.8279  0.1875  0.5296
 8823SOL    HW138528   1.746   5.865   0.274  0.0275 -0.1598  0.6220
 8823SOL    HW238529   1.667   5.824   0.137 -1.0566  0.0460  1.1850
 8824SOL     OW38530   4.016   6.747   0.886  0.0168  0.1551  0.2712
 8824SOL    HW138531   4.019   6.807   0.966 -0.9874  1.3661 -0.5712
 8824SOL    HW238532   4.105   6.747   0.841  0.5539 -0.4523  1.3199
 8825SOL     OW38533   3.901   3.315   1.137  0.3146 -1.0834 -0.0610
 8825SOL    HW138534   3.993   3.315   1.177  1.1054 -1.2701 -1.8054
 8825SOL    HW238535   3.890   3.234   1.080 -0.2550 -0.1080 -1.3618
 8826SOL     OW38536   4.246   3.745   7.642  0.9711  0.1003  0.2647
 8826SOL    HW138537   4.261   3.815   7.712 -0.1174  1.2632 -0.6347
 8826SOL    HW238538   4.334   3.716   7.604  1.3591  2.3504 -0.6466
 8827SOL     OW38539   1.656   3.143   4.649 -0.0434  0.2669 -0.5163
 8827SOL    HW138540   1.602   3.113   4.727  0.6008 -0.7428 -0.4559
 8827SOL    HW238541   1.748   3.105   4.655 -0.3588 -0.8764 -2.4136
 8828SOL     OW38542   3.249   2.302   8.880 -0.3103 -0.1518 -0.2243
 8828SOL    HW138543   3.329   2.337   8.830  0.1654 -0.1799  0.5082
 8828SOL    HW238544   3.167   2.348   8.847  0.0130 -0.0990 -0.9630
 8829SOL     OW38545   2.403   2.602   2.107  0.4021  0.5850  0.0426
 8829SOL    HW138546   2.407   2.702   2.101 -0.3726  0.5436 -1.3772
 8829SOL    HW238547   2.382   2.564   2.017  0.1917 -0.8303  0.6757
 8830SOL     OW38548   0.086   5.446   1.948 -0.2225 -0.4556  0.2507
 8830SOL    HW138549   0.154   5.500   1.900 -0.2571  0.7500  1.5140
 8830SOL    HW238550   0.050   5.375   1.888  2.3842 -1.3340 -0.3338
 8831SOL     OW38551   4.559   4.320   0.049 -0.5833  0.3886  0.2081
 8831SOL    HW138552   4.469   4.283   0.027 -0.2412  0.0978 -0.7228
 8831SOL    HW238553   4.551   4.419   0.065 -0.8819  0.5822 -1.0676
 8832SOL     OW38554   2.803   5.450   9.231  0.0318  0.1992 -0.5554
 8832SOL    HW138555   2.748   5.506   9.294  0.1842 -0.5584  0.2578
 8832SOL    HW238556   2.830   5.506   9.152  0.3891  1.3491  0.3635
 8833SOL     OW38557   2.768   7.760   7.049 -0.1327 -0.7608 -0.2737
 8833SOL    HW138558   2.735   7.820   7.121  1.2946 -0.4908  0.1678
 8833SOL    HW238559   2.692   7.706   7.013 -1.4619  1.3472 -0.7377
 8834SOL     OW38560   3.523   8.872   0.306 -0.4671 -0.4291 -0.3740
 8834SOL    HW138561   3.612   8.888   0.348 -0.3153  0.6522 -1.0725
 8834SOL    HW238562   3.452   8.918   0.360 -0.1393  1.9226 -1.8764
 8835SOL     OW38563   5.852   1.678   8.791 -0.7376 -0.1034  0.4454
 8835SOL    HW138564   5.758   1.699   8.767 -0.6358  0.4439  0.5196
 8835SOL    HW238565   5.896   1.631   8.714 -0.3003  2.0004 -0.6076
 8836SOL     OW38566   2.307   7.002   9.837  0.5738  0.2975  0.5568
 8836SOL    HW138567   2.286   7.072   9.905 -0.5265  0.1917  0.3228
 8836SOL    HW238568   2.252   6.921   9.854  0.7171  0.0575 -0.1058
 8837SOL     OW38569   2.472   5.797   6.569  0.3250  0.1852  0.0952
 8837SOL    HW138570   2.410   5.874   6.555 -0.4940 -0.2102  1.5161
 8837SOL    HW238571   2.545   5.801   6.501 -0.6511  1.2559 -0.9203
 8838SOL     OW38572   0.838   3.662   5.142  0.0496  0.2091 -0.1624
 8838SOL    HW138573   0.767   3.651   5.072  0.3334  0.4895 -0.5017
 8838SOL    HW238574   0.800   3.707   5.222 -0.0487  0.7729 -0.5244
 8839SOL     OW38575   3.162   6.424   2.351 -0.4640 -0.8737  0.2391
 8839SOL    HW138576   3.177   6.498   2.417 -1.8854  1.2242 -1.6816
 8839SOL    HW238577   3.210   6.342   2.381  1.8633  1.0552  2.0402
 8840SOL     OW38578   0.590   2.516   1.218 -0.2898  0.1302 -0.3202
 8840SOL    HW138579   0.598   2.486   1.313 -0.2288 -2.1108 -1.0168
 8840SOL    HW238580   0.656   2.589   1.201  1.4587 -1.1798  0.6859
 8841SOL     OW38581   3.851   8.755   1.583  0.0939 -0.1864 -0.1417
 8841SOL    HW138582   3.757   8.735   1.553 -0.7673 -0.2937  2.4884
 8841SOL    HW238583   3.857   8.850   1.612  0.8345 -0.1438 -0.4328
 8842SOL     OW38584   3.689   8.461   3.733 -0.2827 -0.0360  0.2561
 8842SOL    HW138585   3.714   8.541   3.678  0.9141 -0.6185 -0.0683
 8842SOL    HW238586   3.605   8.480   3.784  1.0463  2.1501  1.7115
 8843SOL     OW38587   1.661   7.183   4.352  0.7036  0.2671 -0.4117
 8843SOL    HW138588   1.620   7.094   4.373  0.5281  0.9104  2.1391
 8843SOL    HW238589   1.736   7.201   4.416  1.6341  1.3537 -1.7863
 8844SOL     OW38590   3.820   2.182   7.783 -0.3290 -0.2537 -0.1638
 8844SOL    HW138591   3.866   2.242   7.849 -0.7711  0.8750 -0.8701
 8844SOL    HW238592   3.833   2.087   7.811  0.5729  0.1470  0.8502
 8845SOL     OW38593   4.542   3.164   0.176 -0.5229  0.1425 -0.3675
 8845SOL    HW138594   4.534   3.147   0.275  0.6910 -2.3019 -0.6587
 8845SOL    HW238595   4.459   3.130   0.131 -0.6190  0.2979 -0.3099
 8846SOL     OW38596   9.281   7.353   4.141  0.1759 -0.0686  0.3242
 8846SOL    HW138597   9.317   7.341   4.048  0.2117  1.1052  0.1748
 8846SOL    HW238598   9.304   7.445   4.174 -0.1964 -0.3310  1.3368
 8847SOL     OW38599   4.462   5.349   1.717  0.0538  0.2289 -0.1234
 8847SOL    HW138600   4.400   5.276   1.690  0.4799  0.6086 -2.2091
 8847SOL    HW238601   4.425   5.437   1.689 -1.1824  1.0219  3.7031
 8848SOL     OW38602   2.550   5.006   0.881  0.2284 -0.2550 -0.0551
 8848SOL    HW138603   2.619   5.037   0.946  0.1975  1.1602 -0.6684
 8848SOL    HW238604   2.467   5.062   0.891  0.1081 -0.2325 -1.0755
 8849SOL     OW38605   0.101   5.504   2.582 -0.5936 -0.0191 -0.1290
 8849SOL    HW138606   0.022   5.478   2.637 -1.8662  0.7802 -1.5108
 8849SOL    HW238607   0.070   5.525   2.489  1.3213 -0.1238 -0.8095
 8850SOL     OW38608   0.457   0.732   7.049 -0.1142  0.2067 -0.2342
 8850SOL    HW138609   0.511   0.668   6.995  1.8984  0.6616  1.1548
 8850SOL    HW238610   0.363   0.733   7.017 -0.0313 -2.9582 -0.6820
 8851SOL     OW38611   1.225   6.122   6.207 -0.1364  0.4087 -0.3368
 8851SOL    HW138612   1.162   6.155   6.277 -0.0965 -0.1129 -0.0548
 8851SOL    HW238613   1.263   6.034   6.235 -0.4581 -0.0131 -1.2146
 8852SOL     OW38614   5.523   4.475   0.341 -0.1356 -0.2209 -0.0468
 8852SOL    HW138615   5.424   4.458   0.332 -0.2500  0.6873 -0.5641
 8852SOL    HW238616   5.573   4.394   0.311 -0.7188 -0.5554 -0.1276
 8853SOL     OW38617   3.558   6.929   0.492  0.3016  0.1645 -0.3016
 8853SOL    HW138618   3.530   6.834   0.480  1.1402  0.0537 -1.4489
 8853SOL    HW238619   3.655   6.933   0.516  0.5262  0.7665 -1.2691
 8854SOL     OW38620   0.200   1.403   0.932  0.0239  0.1816  0.2060
 8854SOL    HW138621   0.131   1.365   0.871  1.2595 -0.6589 -0.6893
 8854SOL    HW238622   0.230   1.333   0.997  1.7061 -0.1850 -0.9182
 8855SOL     OW38623   3.626   4.854   2.795  0.0109  0.2137 -0.2608
 8855SOL    HW138624   3.611   4.873   2.892  0.2607 -1.6394  0.1525
 8855SOL    HW238625   3.643   4.756   2.782 -0.7063  0.3279 -2.2614
 8856SOL     OW38626   5.056   6.653   5.043 -0.2737  0.2754 -0.4974
 8856SOL    HW138627   4.975   6.598   5.027  0.7542 -0.8550 -1.9222
 8856SOL    HW238628   5.072   6.662   5.141 -1.9874  0.3373 -0.2159
 8857SOL     OW38629   7.293   9.845   2.503 -0.5642  0.1224 -0.2883
 8857SOL    HW138630   7.393   9.840   2.512 -0.2050  3.6727 -1.6163
 8857SOL    HW238631   7.252   9.860   2.593  0.0115 -1.8637  0.3380
 8858SOL     OW38632   4.765   5.631   5.511  0.3192  0.0892  0.0509
 8858SOL    HW138633   4.739   5.636   5.607  0.5261  0.0004  0.1118
 8858SOL    HW238634   4.703   5.570   5.462  1.6741 -1.7784  0.6265
 8859SOL     OW38635   1.463   3.340   0.589 -0.1408 -0.1385 -0.0329
 8859SOL    HW138636   1.556   3.304   0.580 -0.3407 -1.0874  1.4435
 8859SOL    HW238637   1.398   3.270   0.558 -0.4176 -0.0523  0.3537
 8860SOL     OW38638   9.146   4.893   0.831  0.4779 -0.5405  0.4637
 8860SOL    HW138639   9.234   4.875   0.876  1.7387  1.8593 -0.8986
 8860SOL    HW238640   9.077   4.914   0.900  1.8315  0.8784  1.4205
 8861SOL     OW38641   1.367   0.718   0.149  0.3700  0.0789  0.3099
 8861SOL    HW138642   1.432   0.790   0.170  0.4140 -0.3116  1.5263
 8861SOL    HW238643   1.300   0.709   0.223  0.4215 -1.1796  0.2286
 8862SOL     OW38644   2.945   6.716   8.033  0.3221  0.5996  0.0714
 8862SOL    HW138645   2.982   6.744   7.945  0.7048 -0.7249 -0.2031
 8862SOL    HW238646   2.847   6.734   8.035  0.4391  1.2788 -0.3677
 8863SOL     OW38647   0.151   7.200   2.471  0.3742  1.1424 -0.6889
 8863SOL    HW138648   0.244   7.175   2.498 -0.1609  3.0569  3.1980
 8863SOL    HW238649   0.145   7.299   2.460 -0.8181  0.8752 -2.6567
 8864SOL     OW38650   3.564   8.121   5.701 -0.7305  0.0595 -0.7067
 8864SOL    HW138651   3.519   8.136   5.613 -1.2605  0.6685 -0.3361
 8864SOL    HW238652   3.514   8.169   5.772  0.2819  0.4160 -0.2296
 8865SOL     OW38653   0.738   1.613   9.446  0.3810  0.1184  0.2417
 8865SOL    HW138654   0.720   1.521   9.482  1.1806 -0.9978 -2.1083
 8865SOL    HW238655   0.651   1.658   9.426 -0.0300  0.0694  1.8406
 8866SOL     OW38656   0.375   1.940   7.235 -0.6756 -0.1328 -0.1254
 8866SOL    HW138657   0.327   2.022   7.263 -1.0389 -0.4647  0.2302
 8866SOL    HW238658   0.427   1.903   7.312  0.4100  0.4040 -0.5927
 8867SOL     OW38659   9.058   4.293   4.291  0.4893  0.1366 -0.0487
 8867SOL    HW138660   9.123   4.354   4.336  1.5344 -0.4915 -0.7007
 8867SOL    HW238661   8.998   4.347   4.232  1.5754  0.5136 -0.8190
 8868SOL     OW38662   0.700   6.021   2.364 -0.1419 -0.4418  0.0945
 8868SOL    HW138663   0.643   6.074   2.427  0.7569  1.1738 -0.4249
 8868SOL    HW238664   0.789   6.004   2.407  0.6264  1.0333 -0.8680
 8869SOL     OW38665   2.611   9.491   2.085 -0.1404 -0.3054  0.0430
 8869SOL    HW138666   2.621   9.406   2.137  1.8732 -1.5080 -2.2223
 8869SOL    HW238667   2.556   9.474   2.004 -0.0269  0.6408 -0.2391
 8870SOL     OW38668   0.543   9.360   9.682  0.4883  0.1302 -0.2021
 8870SOL    HW138669   0.592   9.286   9.727  2.2024 -0.0199 -2.2169
 8870SOL    HW238670   0.603   9.440   9.673 -0.5285  0.9006 -0.2838
 8871SOL     OW38671   9.062   9.892   6.627 -0.2736  0.0671 -0.2144
 8871SOL    HW138672   9.042   9.890   6.529 -2.0076  0.5982  0.1141
 8871SOL    HW238673   9.159   9.913   6.640 -0.2548  1.1079 -1.7920
 8872SOL     OW38674   0.294   5.595   1.875 -0.4826  0.0072  0.3739
 8872SOL    HW138675   0.294   5.568   1.779 -1.0841  0.0041  0.3739
 8872SOL    HW238676   0.259   5.689   1.884  0.7555  0.4692  0.4634
 8873SOL     OW38677   4.051   8.478   2.908  0.1970 -0.5589  0.0704
 8873SOL    HW138678   4.032   8.576   2.913 -0.5531 -0.6238 -1.1460
 8873SOL    HW238679   4.107   8.459   2.827 -1.3401 -1.3670 -0.8223
 8874SOL     OW38680   5.892   1.253   1.845 -0.5201  0.1950 -0.0199
 8874SOL    HW138681   5.958   1.292   1.910  0.5082 -1.5012 -0.0171
 8874SOL    HW238682   5.807   1.230   1.893 -1.2109  2.5560 -0.0598
 8875SOL     OW38683   0.865   6.959   9.860 -0.5916 -0.1041 -0.0254
 8875SOL    HW138684   0.896   7.026   9.928 -1.6459  0.9975 -0.6103
 8875SOL    HW238685   0.805   6.893   9.904 -2.5344  1.5176 -0.1540
 8876SOL     OW38686   0.406   7.901   2.991  0.7293 -0.2109 -0.1695
 8876SOL    HW138687   0.422   7.951   3.076  0.6186 -2.1586  1.0409
 8876SOL    HW238688   0.326   7.843   3.001  1.5959 -1.5984 -1.0656
 8877SOL     OW38689   3.639   7.467   0.822  0.6874 -0.0370  0.3661
 8877SOL    HW138690   3.723   7.463   0.877  2.4800  1.3512 -2.1935
 8877SOL    HW238691   3.646   7.401   0.747  0.0519  1.0304 -0.6306
 8878SOL     OW38692   2.071   5.665   3.337  0.4326  0.3298  0.7888
 8878SOL    HW138693   2.134   5.738   3.311  0.3368  0.3082  0.4955
 8878SOL    HW238694   2.108   5.577   3.308 -0.0482  0.3784  0.0278
 8879SOL     OW38695   2.784   9.318   5.921 -0.8015 -0.0857  0.6956
 8879SOL    HW138696   2.747   9.363   6.003  0.5962  0.7954  0.8463
 8879SOL    HW238697   2.875   9.282   5.941 -0.4980  0.0443 -0.4518
 8880SOL     OW38698   9.578   5.151   1.149 -0.1150  0.2300  0.1095
 8880SOL    HW138699   9.506   5.082   1.148  0.7039 -0.6348 -0.3172
 8880SOL    HW238700   9.560   5.219   1.078 -0.7475  0.2656  0.3019
 8881SOL     OW38701   9.731   9.874   4.290 -0.6372 -0.2641  0.1641
 8881SOL    HW138702   9.696   9.967   4.274  1.4536  0.5681  0.2783
 8881SOL    HW238703   9.664   9.823   4.344 -0.3627  2.2961  3.1040
 8882SOL     OW38704   4.884   9.435   6.817  0.1883 -0.0664  0.0385
 8882SOL    HW138705   4.785   9.441   6.803  0.3955 -0.9081 -1.8821
 8882SOL    HW238706   4.931   9.453   6.731  1.7070 -0.1152  0.8397
 8883SOL     OW38707   6.147   2.592   2.591  0.1999 -0.0333  0.1685
 8883SOL    HW138708   6.230   2.541   2.569 -0.5425 -1.0354 -0.3661
 8883SOL    HW238709   6.136   2.597   2.690 -0.0359 -1.4447  0.2214
 8884SOL     OW38710   4.504   2.947   1.511  0.3565  0.1491  0.5570
 8884SOL    HW138711   4.407   2.967   1.498  0.0564 -1.1252  0.7595
 8884SOL    HW238712   4.527   2.949   1.608  0.3800 -0.2308  0.5602
 8885SOL     OW38713   4.398   5.498   1.147  0.2363  0.1571  0.3614
 8885SOL    HW138714   4.346   5.422   1.184  0.3732 -0.0980  0.0403
 8885SOL    HW238715   4.340   5.580   1.142  0.3611  0.3205  1.5709
 8886SOL     OW38716   4.066   3.787   5.533 -0.0141 -0.8344 -0.0849
 8886SOL    HW138717   4.010   3.806   5.613 -0.6429  0.2769 -0.7758
 8886SOL    HW238718   4.020   3.718   5.476 -0.2276 -0.6286 -0.1648
 8887SOL     OW38719   6.107   5.234   2.368  0.2195  0.5017  0.1896
 8887SOL    HW138720   6.077   5.329   2.360  1.3713  0.7150 -1.7324
 8887SOL    HW238721   6.206   5.231   2.376  0.1525 -0.5373  0.7701
 8888SOL     OW38722   6.874   4.542   0.885  0.2411  0.4271  0.1418
 8888SOL    HW138723   6.962   4.575   0.920  1.3746 -1.5550 -0.7910
 8888SOL    HW238724   6.885   4.452   0.843 -2.0811  0.5119 -0.7664
 8889SOL     OW38725   9.899   6.749   3.802  0.4154  0.2042 -0.1039
 8889SOL    HW138726   9.938   6.658   3.821 -2.6382 -1.2500 -0.4485
 8889SOL    HW238727   9.880   6.795   3.889 -1.0092 -0.8668  0.1847
 8890SOL     OW38728   5.390   8.608   8.548 -0.5640  0.0449  0.6236
 8890SOL    HW138729   5.382   8.609   8.648 -1.0655 -2.0686  0.6428
 8890SOL    HW238730   5.476   8.564   8.522  0.0347  1.5011  0.1275
 8891SOL     OW38731   0.609   5.900   9.850  0.0281 -0.5316  0.2032
 8891SOL    HW138732   0.601   5.991   9.888 -1.2130 -0.7673  0.5168
 8891SOL    HW238733   0.704   5.884   9.821  0.4512  0.5053  0.9964
 8892SOL     OW38734   0.672   1.560   7.202  0.1454  0.2180  0.1094
 8892SOL    HW138735   0.581   1.522   7.218  0.5082 -0.8086 -0.2185
 8892SOL    HW238736   0.711   1.590   7.288  0.3791 -1.3801  0.5739
 8893SOL     OW38737   2.750   8.542   1.276  0.2037  0.3583 -0.2579
 8893SOL    HW138738   2.683   8.543   1.202 -0.1393  0.4546  0.0493
 8893SOL    HW238739   2.717   8.600   1.351  0.0790 -0.5454  0.3867
 8894SOL     OW38740   7.033   0.525   2.257 -0.0862 -0.7514 -0.3324
 8894SOL    HW138741   7.046   0.624   2.251 -0.9356 -0.6400 -0.4136
 8894SOL    HW238742   6.942   0.501   2.223  0.5564 -1.6966 -1.4166
 8895SOL     OW38743   6.210   0.074   0.335  0.2645  0.3358  0.5116
 8895SOL    HW138744   6.154   0.155   0.316  1.6854  1.1521 -0.3203
 8895SOL    HW238745   6.163  -0.007   0.301  0.0606  1.1324 -1.2077
 8896SOL     OW38746   2.189   2.506   3.120 -0.7665  0.7426 -0.3368
 8896SOL    HW138747   2.242   2.428   3.155 -1.6369 -0.2323 -1.1681
 8896SOL    HW238748   2.147   2.554   3.197 -1.3383 -0.4187  0.0861
 8897SOL     OW38749   3.899   6.605   8.030 -0.0477 -0.0410  0.3563
 8897SOL    HW138750   3.863   6.648   8.113  0.6879  1.5374 -0.1315
 8897SOL    HW238751   3.916   6.508   8.048 -0.9486  0.0424  1.7150
 8898SOL     OW38752   0.739   3.942   1.701 -0.4204  0.7632  0.4994
 8898SOL    HW138753   0.699   3.852   1.682 -1.1211  1.3825 -1.1074
 8898SOL    HW238754   0.770   3.983   1.615  0.2523  1.8823  1.2717
 8899SOL     OW38755   7.748   4.290   7.479  0.5296  0.2317  0.1065
 8899SOL    HW138756   7.693   4.370   7.456 -0.1755 -0.2944 -0.0239
 8899SOL    HW238757   7.693   4.208   7.473  1.3489 -0.3107 -0.1000
 8900SOL     OW38758   2.971   5.887   0.279  0.2720  0.1857 -0.3858
 8900SOL    HW138759   2.962   5.979   0.241 -1.7153 -0.3303 -1.2599
 8900SOL    HW238760   3.019   5.891   0.366 -1.1196  2.2428  0.3182
 8901SOL     OW38761   2.507   8.328   3.140  0.5178 -0.0703 -0.2970
 8901SOL    HW138762   2.485   8.243   3.188 -0.1377 -0.1963 -0.8237
 8901SOL    HW238763   2.482   8.320   3.044  1.6431  0.2598 -0.6209
 8902SOL     OW38764   1.101   7.601   2.585 -0.4377  0.2462 -0.1994
 8902SOL    HW138765   1.121   7.677   2.647 -0.8468  0.0386  0.1879
 8902SOL    HW238766   1.187   7.567   2.545 -0.1132  0.0633  0.6271
 8903SOL     OW38767   3.547   3.985   7.885 -0.3243 -0.0031  0.3107
 8903SOL    HW138768   3.470   3.958   7.828 -1.1524  0.6056  1.1376
 8903SOL    HW238769   3.562   3.917   7.956  1.5212 -1.4296 -1.3712
 8904SOL     OW38770   1.193   6.463   2.145 -0.5713  0.6200 -0.5839
 8904SOL    HW138771   1.108   6.480   2.193 -0.5903 -0.9090 -0.0466
 8904SOL    HW238772   1.230   6.374   2.173  1.5616  1.5734 -0.2740
 8905SOL     OW38773   5.312   9.341   7.597  0.7273  0.2640  0.4813
 8905SOL    HW138774   5.406   9.330   7.629  0.5687  1.7327  1.4944
 8905SOL    HW238775   5.297   9.437   7.570 -0.6403  0.1704  0.8701
 8906SOL     OW38776   3.494   6.065   0.945 -0.1953  0.2499 -0.3267
 8906SOL    HW138777   3.513   6.101   0.854  2.3509  0.5869  0.2852
 8906SOL    HW238778   3.486   5.965   0.940 -2.1827  0.4266 -1.2170
 8907SOL     OW38779   3.374   7.778   3.048  0.3269 -0.0486  0.1107
 8907SOL    HW138780   3.282   7.760   3.083  0.5244 -0.4154  0.4293
 8907SOL    HW238781   3.441   7.731   3.104  0.5653 -1.5597 -1.4276
 8908SOL     OW38782   7.227   1.594   3.013 -0.1209  0.1596 -0.6830
 8908SOL    HW138783   7.134   1.618   2.984  0.0943  2.5865  0.4814
 8908SOL    HW238784   7.232   1.601   3.113  0.5536 -2.8485 -0.4624
 8909SOL     OW38785   0.952   8.628   2.894 -0.2129 -0.5595 -0.2803
 8909SOL    HW138786   0.923   8.706   2.950 -0.7113 -0.6850 -0.3697
 8909SOL    HW238787   1.041   8.649   2.853 -1.4793  0.9664 -2.3217
 8910SOL     OW38788   2.863   7.225   9.198 -0.2305  0.1652 -0.1623
 8910SOL    HW138789   2.834   7.215   9.293  0.0103 -0.6019 -0.1670
 8910SOL    HW238790   2.946   7.280   9.194  2.2527 -3.3788  0.4876
 8911SOL     OW38791   1.332   3.381   4.986  0.1977  0.7212 -0.5085
 8911SOL    HW138792   1.387   3.438   5.047  0.2770 -1.5528  1.6652
 8911SOL    HW238793   1.237   3.409   4.989 -0.6034 -2.0107  4.1368
 8912SOL     OW38794   8.372   4.439   7.388 -0.1042 -0.4076  0.2156
 8912SOL    HW138795   8.430   4.491   7.326  1.8788 -0.7892  1.7185
 8912SOL    HW238796   8.278   4.474   7.383  0.7132  1.7516 -0.5180
 8913SOL     OW38797   8.251   6.027   3.547 -0.5366 -0.1169 -1.0145
 8913SOL    HW138798   8.318   6.097   3.521  0.7085 -1.5389 -1.6972
 8913SOL    HW238799   8.290   5.936   3.534 -0.8028 -0.9645  3.2978
 8914SOL     OW38800   6.143   5.333   4.615  0.3571 -0.0923 -0.1412
 8914SOL    HW138801   6.095   5.409   4.570  0.5116  0.3982  0.5167
 8914SOL    HW238802   6.120   5.248   4.569 -0.9579  0.1694 -0.0024
 8915SOL     OW38803   3.471   5.334   1.098 -0.3272 -0.4099  0.2080
 8915SOL    HW138804   3.466   5.288   1.187  1.2610  0.7468  0.9291
 8915SOL    HW238805   3.501   5.269   1.028 -0.9437 -1.1690  0.6451
 8916SOL     OW38806   6.185   4.164   3.133  0.3988 -0.1445  0.0379
 8916SOL    HW138807   6.285   4.155   3.132  0.3863 -0.2326 -1.2028
 8916SOL    HW238808   6.157   4.213   3.215  1.4932  0.2419  0.1937
 8917SOL     OW38809   4.603   6.574   7.361  0.3342 -0.7438  0.0652
 8917SOL    HW138810   4.542   6.643   7.321 -0.7526 -2.6455 -1.6434
 8917SOL    HW238811   4.698   6.596   7.338 -0.0172  0.0866 -0.6307
 8918SOL     OW38812   9.597   7.689   9.117  0.2156 -0.6111 -0.2100
 8918SOL    HW138813   9.666   7.638   9.066  1.5685  1.1614 -0.1925
 8918SOL    HW238814   9.545   7.626   9.175  0.3921 -2.2672 -1.8077
 8919SOL     OW38815   4.687   5.871   4.785  0.0500 -0.1051 -0.5145
 8919SOL    HW138816   4.680   5.785   4.734  0.6130  0.0260 -0.8100
 8919SOL    HW238817   4.628   5.866   4.865 -3.6076  1.0013 -3.0096
 8920SOL     OW38818   3.274   6.390   4.576  0.3884  0.6490  0.4536
 8920SOL    HW138819   3.216   6.339   4.640 -0.0618 -1.8022 -1.8052
 8920SOL    HW238820   3.216   6.437   4.509  0.9066 -0.5854 -0.9039
 8921SOL     OW38821   6.092   3.447   3.028 -0.4546  0.5130  0.5189
 8921SOL    HW138822   6.098   3.465   2.930  0.3488 -1.2601  0.2415
 8921SOL    HW238823   6.018   3.503   3.067 -0.1209  1.9783 -0.8967
 8922SOL     OW38824   6.084   6.390   1.020 -0.1970 -0.0920  0.2734
 8922SOL    HW138825   6.044   6.342   1.098  0.7763 -1.1034  0.1668
 8922SOL    HW238826   6.087   6.488   1.039  1.6210 -0.5008  2.2395
 8923SOL     OW38827   2.386   0.971   3.412 -0.7373  0.0224  0.5455
 8923SOL    HW138828   2.449   0.960   3.335 -1.1844  0.0553  0.1734
 8923SOL    HW238829   2.383   0.886   3.465 -0.3283  0.0435  0.6066
 8924SOL     OW38830   6.084   8.008   2.623 -0.4186 -0.4743  0.3103
 8924SOL    HW138831   6.072   8.105   2.600  0.1424 -0.0639  1.7181
 8924SOL    HW238832   6.069   7.995   2.721 -0.1993 -1.7705  0.1754
 8925SOL     OW38833   0.211   9.201   0.906 -0.3597 -0.2826  0.0288
 8925SOL    HW138834   0.132   9.160   0.858 -0.1449  1.0815 -1.5258
 8925SOL    HW238835   0.282   9.224   0.839  0.3264  0.8247  1.1264
 8926SOL     OW38836   9.811   1.111   0.425  0.3504  0.1937 -0.3215
 8926SOL    HW138837   9.768   1.084   0.339 -2.7352  1.8073  0.6510
 8926SOL    HW238838   9.857   1.199   0.412 -2.1854  1.6530  0.2233
 8927SOL     OW38839   0.521   8.868   7.105  0.7774  0.0744  0.1095
 8927SOL    HW138840   0.561   8.845   7.194  0.0852 -0.4600  0.2833
 8927SOL    HW238841   0.477   8.957   7.110 -2.2414 -1.4286  1.2733
 8928SOL     OW38842   3.144   7.466   2.890 -0.0369 -0.6518 -0.0804
 8928SOL    HW138843   3.190   7.380   2.866 -0.6224 -0.5969 -1.4678
 8928SOL    HW238844   3.045   7.451   2.892 -0.1246 -0.0780 -0.0635
 8929SOL     OW38845   0.261   7.801   6.235  0.5173 -0.0443 -0.0168
 8929SOL    HW138846   0.315   7.719   6.252  0.8312  0.1371 -0.1457
 8929SOL    HW238847   0.205   7.821   6.316  0.5938 -0.2687  0.0906
 8930SOL     OW38848   4.121   4.169   8.564 -0.2373 -0.3504  0.1653
 8930SOL    HW138849   4.119   4.136   8.658  0.9995 -0.8470  0.0302
 8930SOL    HW238850   4.126   4.091   8.502 -1.9758 -0.0576 -0.3542
 8931SOL     OW38851   2.092   3.175   2.190 -0.4172  0.0373  0.5239
 8931SOL    HW138852   2.102   3.233   2.110  1.1135  0.6326  1.1230
 8931SOL    HW238853   1.998   3.178   2.223 -0.5324  1.5579  0.0865
 8932SOL     OW38854   2.022   2.851   6.901 -0.4380  0.1509 -0.0876
 8932SOL    HW138855   2.093   2.911   6.863 -1.3392  0.4066 -1.3884
 8932SOL    HW238856   2.057   2.757   6.905  1.1277  0.7661  2.3292
 8933SOL     OW38857   3.668   6.998   0.166 -0.5330 -0.0198  0.3290
 8933SOL    HW138858   3.644   7.092   0.189 -0.7023  0.3785 -1.4290
 8933SOL    HW238859   3.766   6.985   0.180 -0.2667  0.8107 -0.7529
 8934SOL     OW38860   1.849   3.688   1.606 -0.5407  0.1623 -0.2996
 8934SOL    HW138861   1.842   3.727   1.698 -2.9429  0.8404 -0.7390
 8934SOL    HW238862   1.888   3.757   1.544 -2.2361  0.9733 -0.5026
 8935SOL     OW38863   4.770   7.641   8.977 -0.0661 -0.3953  0.6316
 8935SOL    HW138864   4.773   7.737   8.949 -1.5765  0.1644  2.2448
 8935SOL    HW238865   4.722   7.634   9.064 -2.7229 -2.9457 -0.9496
 8936SOL     OW38866   1.983   8.478   6.583  0.3289 -0.2045 -0.0686
 8936SOL    HW138867   2.037   8.418   6.643  0.7887 -0.5118 -0.7911
 8936SOL    HW238868   1.896   8.433   6.562  0.0262  0.0450  0.6302
 8937SOL     OW38869   5.172   1.800   3.599  0.4763  0.3193  0.4377
 8937SOL    HW138870   5.084   1.753   3.597  0.9385 -0.5257 -0.7386
 8937SOL    HW238871   5.243   1.736   3.629  1.3180 -0.1400 -2.3727
 8938SOL     OW38872   8.962   1.589   0.529  0.0049 -0.4834  0.3984
 8938SOL    HW138873   8.908   1.645   0.466  0.9197  0.2980  0.3121
 8938SOL    HW238874   8.972   1.637   0.616  3.0576  0.7100 -0.5493
 8939SOL     OW38875   4.218   1.078   1.357 -0.1249 -0.1144  0.1843
 8939SOL    HW138876   4.213   1.142   1.281 -1.4442  0.3449  0.6397
 8939SOL    HW238877   4.278   1.115   1.428 -1.7070  1.1314  0.9003
 8940SOL     OW38878   0.672   5.739   4.112 -0.4659  0.3183 -0.2123
 8940SOL    HW138879   0.741   5.691   4.058  0.1147  0.6165  0.2571
 8940SOL    HW238880   0.647   5.824   4.066 -0.8664 -0.0115 -0.6134
 8941SOL     OW38881   1.465   7.211   8.401 -0.4554 -0.6688 -0.4380
 8941SOL    HW138882   1.424   7.203   8.492 -1.6643 -0.9205 -0.9843
 8941SOL    HW238883   1.564   7.215   8.409 -0.5475 -0.7395  0.8877
 8942SOL     OW38884   7.559   4.456   5.719  0.2560 -0.1442  0.3178
 8942SOL    HW138885   7.624   4.504   5.777 -1.3849  2.2243  0.2760
 8942SOL    HW238886   7.520   4.520   5.653 -0.8496 -1.9051 -0.7736
 8943SOL     OW38887   5.167   5.971   1.317  0.5191  0.2799 -0.1850
 8943SOL    HW138888   5.202   5.993   1.408 -1.7299  0.4218  0.6833
 8943SOL    HW238889   5.094   5.902   1.326 -0.8593  1.5061 -1.6936
 8944SOL     OW38890   0.795   3.588   0.474  0.1944 -0.1597  0.2000
 8944SOL    HW138891   0.780   3.685   0.490 -1.0471 -0.4748  0.9519
 8944SOL    HW238892   0.725   3.553   0.411  1.2411 -0.3543 -0.8880
 8945SOL     OW38893   2.686   6.360   1.604 -0.0190 -0.2617 -0.1361
 8945SOL    HW138894   2.746   6.280   1.604 -1.4434 -1.3418 -0.1839
 8945SOL    HW238895   2.738   6.440   1.574  1.4717 -1.1174  0.1079
 8946SOL     OW38896   7.282   8.015   8.741  0.1821 -0.1406 -0.8775
 8946SOL    HW138897   7.377   8.030   8.714  1.0790 -0.7715  1.7221
 8946SOL    HW238898   7.225   8.006   8.660  2.4018 -0.1469 -2.4856
 8947SOL     OW38899   5.142   6.119   1.825  0.0463  0.6845 -0.2718
 8947SOL    HW138900   5.167   6.164   1.739 -0.7229  1.5151 -0.0644
 8947SOL    HW238901   5.160   6.181   1.901  1.2995 -0.2767  0.2227
 8948SOL     OW38902   3.294   8.111   2.276 -0.3455 -0.3820  0.2198
 8948SOL    HW138903   3.282   8.189   2.338  0.6645  1.4707 -1.8436
 8948SOL    HW238904   3.360   8.047   2.315  1.6651  1.6644  0.2383
 8949SOL     OW38905   7.265   6.928   4.196  0.3019  0.3246 -0.0123
 8949SOL    HW138906   7.235   6.881   4.113 -2.8430 -0.7391  1.6886
 8949SOL    HW238907   7.243   6.874   4.276  0.9512  2.5359  1.7185
 8950SOL     OW38908   6.537   1.881   9.946 -0.0427 -0.1732  0.3935
 8950SOL    HW138909   6.589   1.806   9.987  1.4444  0.3942 -0.3865
 8950SOL    HW238910   6.458   1.845   9.897  0.2440 -1.1606  0.6471
 8951SOL     OW38911   9.116   2.295   1.473 -0.2619  0.1436  0.1085
 8951SOL    HW138912   9.031   2.262   1.432  1.0783 -0.4327 -2.2803
 8951SOL    HW238913   9.114   2.276   1.571 -2.5843 -0.5028 -0.0211
 8952SOL     OW38914   1.128   9.357   6.818 -0.1319 -0.0164 -0.2643
 8952SOL    HW138915   1.065   9.348   6.895 -0.1850 -0.2421 -0.3328
 8952SOL    HW238916   1.089   9.313   6.737 -0.1557  0.3777 -0.4680
 8953SOL     OW38917   4.165   6.973   4.535  0.1630 -0.0366 -0.0740
 8953SOL    HW138918   4.182   6.900   4.602  0.9316 -0.0365 -0.2707
 8953SOL    HW238919   4.219   6.956   4.453 -0.5994  0.0939 -0.6058
 8954SOL     OW38920   4.148   8.096   2.207  0.1750 -0.3141  0.1778
 8954SOL    HW138921   4.109   8.046   2.129 -0.6206 -1.0608  1.0449
 8954SOL    HW238922   4.192   8.032   2.269 -1.8431 -0.1157  1.8766
 8955SOL     OW38923   1.912   7.708   7.243 -0.5273 -0.2546 -0.3451
 8955SOL    HW138924   2.012   7.708   7.249 -0.4943  0.0887 -0.8398
 8955SOL    HW238925   1.880   7.614   7.230 -0.1986 -0.2507 -1.2027
 8956SOL     OW38926   9.637   1.350   4.137  0.2366 -0.0001  0.5865
 8956SOL    HW138927   9.671   1.426   4.082  0.1268 -1.7793 -1.9795
 8956SOL    HW238928   9.538   1.356   4.144  0.1304 -0.5073 -0.5122
 8957SOL     OW38929   5.124   4.976   3.812 -0.1052  0.0565 -0.4928
 8957SOL    HW138930   5.146   5.049   3.875 -0.3524 -0.9826  0.8129
 8957SOL    HW238931   5.029   4.948   3.826  1.2425 -3.5250  2.1430
 8958SOL     OW38932   4.254   5.240   8.717 -0.0880 -0.5342 -0.1972
 8958SOL    HW138933   4.257   5.140   8.724 -1.1814 -0.6522 -1.1829
 8958SOL    HW238934   4.305   5.269   8.636  1.0691 -0.2123  0.6394
 8959SOL     OW38935   1.374   5.741   3.537 -0.1858 -0.0285 -0.2028
 8959SOL    HW138936   1.355   5.838   3.525  0.5573  0.0457 -0.7964
 8959SOL    HW238937   1.449   5.713   3.477  0.0852 -0.8089  0.4750
 8960SOL     OW38938   3.360   2.879   9.693  0.3226 -0.5816 -0.0256
 8960SOL    HW138939   3.449   2.845   9.723 -0.3142 -2.0559  0.2478
 8960SOL    HW238940   3.289   2.846   9.755 -0.5034 -0.1451 -0.7312
 8961SOL     OW38941   6.663   5.508   8.188 -0.3802  0.5003 -0.2188
 8961SOL    HW138942   6.674   5.410   8.206  0.5927  0.0808 -2.9044
 8961SOL    HW238943   6.619   5.520   8.099  3.7796  2.5388 -2.1127
 8962SOL     OW38944   0.348   3.632   4.840  0.0983  0.6754  0.0150
 8962SOL    HW138945   0.421   3.567   4.818  1.1779  1.8685  0.0211
 8962SOL    HW238946   0.271   3.619   4.776 -0.1320 -1.2957  0.6898
 8963SOL     OW38947   3.053   8.960   0.128 -0.1051 -0.2521 -0.3376
 8963SOL    HW138948   3.120   8.981   0.057  0.6634  1.0494  0.7508
 8963SOL    HW238949   3.042   9.039   0.187 -0.9102 -1.2496  0.8642
 8964SOL     OW38950   2.540   4.328   5.039  0.2305  0.1788 -0.1397
 8964SOL    HW138951   2.491   4.256   4.990 -1.7189  0.2168  1.6717
 8964SOL    HW238952   2.526   4.317   5.137  1.2698  2.0828  0.2489
 8965SOL     OW38953   0.599   5.686   0.156  0.0477 -0.1899 -0.1481
 8965SOL    HW138954   0.543   5.663   0.236  2.2498 -0.6699  1.3065
 8965SOL    HW238955   0.626   5.782   0.161  2.4762 -0.9106  1.1747
 8966SOL     OW38956   1.213   6.580   6.813 -0.3103 -0.1368  0.4592
 8966SOL    HW138957   1.214   6.667   6.764  0.8349 -0.6552 -0.4645
 8966SOL    HW238958   1.159   6.589   6.897  0.4776  1.6891  0.7843
 8967SOL     OW38959   0.211   8.334   0.123  0.4876  0.8541 -0.0230
 8967SOL    HW138960   0.127   8.363   0.076 -0.8531 -2.6354  0.0578
 8967SOL    HW238961   0.268   8.284   0.059  0.2016 -1.0274  1.1515
 8968SOL     OW38962   3.245   1.186   9.483 -0.1748  0.2176 -0.2289
 8968SOL    HW138963   3.244   1.286   9.472  0.2259 -0.1006 -3.4753
 8968SOL    HW238964   3.339   1.153   9.476 -0.7460 -0.8175 -3.9878
 8969SOL     OW38965   1.611   6.363   4.773 -0.0856  0.0579  0.0843
 8969SOL    HW138966   1.622   6.269   4.804  1.8730 -1.0747 -3.6991
 8969SOL    HW238967   1.523   6.372   4.726  0.9854 -0.7505 -2.1653
 8970SOL     OW38968   5.682   3.884   2.078  0.5971  0.4716  0.2436
 8970SOL    HW138969   5.753   3.828   2.121  0.9478  1.9420  1.6572
 8970SOL    HW238970   5.657   3.958   2.140 -0.1175  1.6655 -1.4454
 8971SOL     OW38971   3.363   9.197   8.237 -0.4157 -0.0725 -0.6650
 8971SOL    HW138972   3.277   9.242   8.260 -0.6160 -1.0348  0.5567
 8971SOL    HW238973   3.418   9.188   8.320  2.4153  3.6762 -2.0241
 8972SOL     OW38974   6.426   3.060   8.753 -0.3731  0.5157 -0.2674
 8972SOL    HW138975   6.452   3.047   8.849 -1.2594  0.3713 -0.0438
 8972SOL    HW238976   6.372   3.144   8.744 -0.0313  0.6916 -0.6881
 8973SOL     OW38977   9.578   3.440   0.343 -0.2872 -0.2107  0.2615
 8973SOL    HW138978   9.646   3.377   0.306 -0.3634  0.2411 -0.6513
 8973SOL    HW238979   9.600   3.459   0.439  1.4465  0.6951 -0.2881
 8974SOL     OW38980   3.810   8.145   0.722 -0.2880  0.0759  0.1824
 8974SOL    HW138981   3.797   8.064   0.780 -0.9280 -0.7755 -1.1382
 8974SOL    HW238982   3.894   8.192   0.749  0.0989 -1.0427  0.9407
 8975SOL     OW38983   9.886   6.793   3.213 -0.4754 -0.2922  0.2376
 8975SOL    HW138984   9.934   6.705   3.208  1.4397  0.7416 -0.4164
 8975SOL    HW238985   9.863   6.813   3.308  1.6769 -0.1769  0.7583
 8976SOL     OW38986   9.394   3.375   4.153 -0.4989 -0.0747  0.2217
 8976SOL    HW138987   9.440   3.348   4.238  2.0641 -0.0288 -1.1186
 8976SOL    HW238988   9.415   3.309   4.081 -0.3617  1.3925 -1.1077
 8977SOL     OW38989   4.396   6.377   7.373 -0.2342 -0.6839 -0.1729
 8977SOL    HW138990   4.475   6.438   7.364 -0.2164 -0.6221  0.3549
 8977SOL    HW238991   4.365   6.378   7.468  0.9843 -2.9910  0.2808
 8978SOL     OW38992   3.750   7.622   3.514 -0.0476 -0.4837  0.0419
 8978SOL    HW138993   3.755   7.715   3.478 -0.7172  0.0938  1.3902
 8978SOL    HW238994   3.836   7.574   3.496  0.3266  0.4093 -0.5913
 8979SOL     OW38995   6.445   2.891   9.550  0.2211  0.2239 -0.1642
 8979SOL    HW138996   6.431   2.990   9.543 -1.6294 -0.0991 -1.3758
 8979SOL    HW238997   6.365   2.849   9.594  0.0124 -0.9720 -1.6517
 8980SOL     OW38998   1.558   4.624   8.039 -0.3989 -0.1642  0.0349
 8980SOL    HW138999   1.493   4.585   7.975 -1.0281 -0.6210  0.9491
 8980SOL    HW239000   1.633   4.560   8.054  0.9382  0.8704 -1.9853
 8981SOL     OW39001   2.704   6.400   3.867  0.7155  0.2039  0.2589
 8981SOL    HW139002   2.722   6.453   3.784  1.0004  0.0175  0.2038
 8981SOL    HW239003   2.775   6.331   3.880 -0.9089 -1.7580 -0.9484
 8982SOL     OW39004   1.944   2.014   3.557  0.0371  0.3932  0.1592
 8982SOL    HW139005   1.871   2.001   3.625  0.4245 -1.1504  0.2979
 8982SOL    HW239006   1.981   2.107   3.566 -0.5056  0.5005  1.4818
 8983SOL     OW39007   2.489   6.598   2.959  0.0744 -0.8661  0.0413
 8983SOL    HW139008   2.441   6.648   2.886  1.7301  2.4323  1.1106
 8983SOL    HW239009   2.548   6.529   2.918  1.5846  1.4542 -1.8687
 8984SOL     OW39010   3.787   6.522   8.695  0.6122 -0.1712  0.3492
 8984SOL    HW139011   3.712   6.575   8.655 -0.0187  0.1693  1.9197
 8984SOL    HW239012   3.874   6.569   8.678  0.6888 -1.3347 -2.7895
 8985SOL     OW39013   3.517   7.316   6.539 -0.4863 -0.3735 -0.0254
 8985SOL    HW139014   3.614   7.314   6.513 -1.1562  0.5990 -2.7402
 8985SOL    HW239015   3.491   7.410   6.562 -0.1776 -1.0437  3.2782
 8986SOL     OW39016   1.933   2.292   0.784  0.1091  0.4049 -1.1617
 8986SOL    HW139017   1.871   2.289   0.706  1.7543 -1.9161 -2.4687
 8986SOL    HW239018   1.921   2.210   0.839  0.3968  1.0492 -0.1324
 8987SOL     OW39019   4.795   5.879   5.406 -0.0471  0.3577  0.0613
 8987SOL    HW139020   4.706   5.927   5.403 -0.6182 -0.5544  1.6435
 8987SOL    HW239021   4.784   5.791   5.453  1.5262 -0.1567 -0.5103
 8988SOL     OW39022   0.761   5.466   2.570  0.0467 -0.1220  0.3671
 8988SOL    HW139023   0.852   5.425   2.577 -0.0232 -0.6414 -1.6663
 8988SOL    HW239024   0.701   5.427   2.640  0.5342 -2.0293 -0.2588
 8989SOL     OW39025   1.066   5.239   3.781 -0.6211 -0.0250  0.1188
 8989SOL    HW139026   1.137   5.309   3.779 -0.5170 -0.1336 -0.0216
 8989SOL    HW239027   0.998   5.258   3.710  1.1295 -1.8669 -2.1185
 8990SOL     OW39028   0.758   5.383   9.016 -0.3971  0.6313 -0.4396
 8990SOL    HW139029   0.839   5.427   8.980  0.8683 -0.4389  1.0147
 8990SOL    HW239030   0.691   5.453   9.043  0.2719  1.5352 -1.1028
 8991SOL     OW39031   2.531   2.685   3.329 -0.7169 -0.5993  0.0346
 8991SOL    HW139032   2.555   2.664   3.234 -0.4161  0.2438 -0.0773
 8991SOL    HW239033   2.610   2.666   3.387 -0.5267 -0.0256 -0.0342
 8992SOL     OW39034   4.576   6.001   0.673 -0.3934 -0.1852 -0.0443
 8992SOL    HW139035   4.644   6.070   0.648 -1.4075  0.8267 -0.0773
 8992SOL    HW239036   4.502   6.001   0.606 -0.0000 -1.8984 -0.4977
 8993SOL     OW39037   0.142   2.498   3.029 -0.3473 -0.0949 -0.1981
 8993SOL    HW139038   0.103   2.466   3.115  1.1851 -1.2154  0.1164
 8993SOL    HW239039   0.105   2.443   2.953 -0.3150 -0.3339 -0.0408
 8994SOL     OW39040   1.067   5.776   2.769  0.4083  0.0853  0.4750
 8994SOL    HW139041   1.061   5.846   2.840  4.0964  1.2732 -0.2905
 8994SOL    HW239042   1.131   5.704   2.798 -2.2302 -2.3041  0.6305
 8995SOL     OW39043   3.165   8.086   5.400 -0.2197  0.5536 -0.4801
 8995SOL    HW139044   3.249   8.033   5.389  0.0248  1.0652 -1.1530
 8995SOL    HW239045   3.088   8.035   5.363 -0.0702  0.4465 -0.6451
 8996SOL     OW39046   7.576   5.765   6.249 -0.3240  0.1610  0.3671
 8996SOL    HW139047   7.655   5.728   6.200 -1.1678 -0.4105 -0.5622
 8996SOL    HW239048   7.535   5.839   6.195 -2.4332 -1.7593 -0.7394
 8997SOL     OW39049   8.969   7.626   9.487 -0.4888 -0.6400  0.4789
 8997SOL    HW139050   8.948   7.602   9.392  2.8100  0.1020 -0.5067
 8997SOL    HW239051   9.025   7.553   9.527  1.6865  0.9897  0.4666
 8998SOL     OW39052   0.281   5.609   8.200 -0.2265 -0.6126  0.9218
 8998SOL    HW139053   0.373   5.644   8.218 -0.6782  0.6805  0.7219
 8998SOL    HW239054   0.257   5.542   8.271  1.4006 -2.0050  0.1826
 8999SOL     OW39055   3.583   5.116   2.726 -0.0884 -0.3228 -0.1269
 8999SOL    HW139056   3.651   5.148   2.660 -1.9608  0.7175 -1.5986
 8999SOL    HW239057   3.585   5.016   2.730  0.4674 -0.3642 -1.3097
 9000SOL     OW39058   9.248   4.629   3.975  0.2350 -0.0262 -0.4107
 9000SOL    HW139059   9.332   4.662   3.932  0.4128  0.8462  0.5768
 9000SOL    HW239060   9.232   4.679   4.060  1.1767 -3.3325  1.8261
 9001SOL     OW39061   1.327   1.259   7.886  0.3498 -0.1901 -0.0430
 9001SOL    HW139062   1.328   1.253   7.786  0.2891  1.4090 -0.1604
 9001SOL    HW239063   1.418   1.238   7.922  0.7761  0.7208 -0.5585
 9002SOL     OW39064   5.244   8.312   3.567  0.1131 -0.5834 -0.8795
 9002SOL    HW139065   5.306   8.283   3.640 -1.1238 -3.1056 -0.7816
 9002SOL    HW239066   5.255   8.253   3.488 -3.1115 -1.9862 -0.3625
 9003SOL     OW39067   5.976   4.350   3.434  0.1325  0.4223 -0.2483
 9003SOL    HW139068   5.992   4.331   3.530  0.7417 -1.0414 -0.6343
 9003SOL    HW239069   5.926   4.274   3.392 -4.3527  3.0164 -0.0243
 9004SOL     OW39070   5.446   4.739   1.472  0.0912  0.2327  0.0000
 9004SOL    HW139071   5.397   4.780   1.395  1.2112 -0.6497 -1.2080
 9004SOL    HW239072   5.436   4.639   1.468  0.8431  0.1357  0.5194
 9005SOL     OW39073   2.958   0.300   5.737  0.0072  0.5431 -0.5662
 9005SOL    HW139074   2.981   0.207   5.764 -0.1384  0.8304  0.5473
 9005SOL    HW239075   2.929   0.300   5.641 -0.8075 -0.6926 -0.3341
 9006SOL     OW39076   0.805   8.534   2.661 -0.5962  0.4938 -0.0418
 9006SOL    HW139077   0.727   8.511   2.719 -0.2001 -1.5711 -0.2807
 9006SOL    HW239078   0.884   8.557   2.718 -0.5471 -0.3723  0.2578
 9007SOL     OW39079   5.186   7.116   1.809  0.2261 -0.5593  0.4447
 9007SOL    HW139080   5.189   7.160   1.719  1.4345 -1.9043 -0.2018
 9007SOL    HW239081   5.098   7.135   1.853 -0.1847  0.5090 -0.8204
 9008SOL     OW39082   6.298   8.514   7.402  0.3057  0.2963 -0.0990
 9008SOL    HW139083   6.227   8.494   7.470  0.1370 -2.4238 -1.0039
 9008SOL    HW239084   6.264   8.581   7.336 -1.5784 -1.2668 -0.7491
 9009SOL     OW39085   3.668   9.446   6.098  0.0806  0.2761 -0.4092
 9009SOL    HW139086   3.573   9.426   6.077  0.1605  0.8916 -1.3926
 9009SOL    HW239087   3.687   9.542   6.081  0.6361  0.3784  0.7314
 9010SOL     OW39088   1.016   3.180   3.449 -0.3040  0.3061  0.4987
 9010SOL    HW139089   1.107   3.138   3.457  1.4781  3.8285 -0.3337
 9010SOL    HW239090   0.967   3.138   3.372  0.7256 -1.3744  0.7315
 9011SOL     OW39091   2.842   6.768   3.966  0.1885 -0.0030  0.4316
 9011SOL    HW139092   2.760   6.793   3.915  1.7253  0.0278 -2.1131
 9011SOL    HW239093   2.876   6.849   4.015  0.2788  0.7128 -0.7838
 9012SOL     OW39094   2.302   4.463   1.613  0.2723  0.3019  0.0406
 9012SOL    HW139095   2.268   4.513   1.533  0.1903  1.8786  1.0490
 9012SOL    HW239096   2.402   4.470   1.616  0.2827  0.1581  0.0156
 9013SOL     OW39097   4.993   5.166   3.198 -0.3444  0.4067  0.2755
 9013SOL    HW139098   5.006   5.099   3.271 -0.3877  0.0087 -0.0819
 9013SOL    HW239099   5.062   5.238   3.207 -1.3962  1.2671  1.7275
 9014SOL     OW39100   5.802   5.331   8.288 -0.2329 -0.1479  0.0873
 9014SOL    HW139101   5.712   5.362   8.319  0.1612  0.9693  0.1596
 9014SOL    HW239102   5.848   5.282   8.362 -0.6260 -0.3778  0.1779
 9015SOL     OW39103   1.632   9.842   3.696 -0.2068 -0.8618  0.1037
 9015SOL    HW139104   1.570   9.833   3.618  0.2223  1.7107 -0.5775
 9015SOL    HW239105   1.712   9.783   3.683  0.4386  0.4315 -1.9775
 9016SOL     OW39106   2.363   2.801   9.657 -0.5200  0.3727  0.1220
 9016SOL    HW139107   2.285   2.739   9.666  0.9021 -1.2436  1.7056
 9016SOL    HW239108   2.387   2.811   9.561 -1.0311 -1.2080 -0.1729
 9017SOL     OW39109   6.595   8.890   3.781  0.0322 -0.2671 -0.3674
 9017SOL    HW139110   6.615   8.809   3.836 -0.3596 -0.3340 -0.3245
 9017SOL    HW239111   6.564   8.964   3.841  0.8640  0.0753 -0.3448
 9018SOL     OW39112   1.089   3.692   2.786 -1.3870 -0.0098 -0.3541
 9018SOL    HW139113   1.115   3.777   2.833  1.0545 -1.0317  0.1904
 9018SOL    HW239114   1.007   3.654   2.830  0.5163 -0.6559  2.8166
 9019SOL     OW39115   8.366   4.206   2.569  0.0229 -0.1545  0.2020
 9019SOL    HW139116   8.268   4.217   2.550  0.2527 -1.3488 -1.9213
 9019SOL    HW239117   8.381   4.121   2.619 -0.0115 -0.0381  0.4100
 9020SOL     OW39118   9.964   8.320   0.379 -0.2248  0.4626  0.1037
 9020SOL    HW139119   9.971   8.314   0.279  0.8337 -3.6928  0.3515
 9020SOL    HW239120  10.049   8.359   0.415 -0.2577  1.1585 -0.5442
 9021SOL     OW39121   5.495   6.946   3.114 -0.4927 -0.5577 -0.1602
 9021SOL    HW139122   5.454   7.037   3.113  0.5300 -0.0665  1.0172
 9021SOL    HW239123   5.466   6.895   3.033 -0.9231  0.8891 -0.9243
 9022SOL     OW39124   4.567   4.153   9.749  0.4821 -0.6225 -0.2778
 9022SOL    HW139125   4.485   4.205   9.724  0.9688 -0.5522 -1.7276
 9022SOL    HW239126   4.646   4.187   9.698  0.8312 -2.7024 -1.1835
 9023SOL     OW39127   0.065   7.276   4.418 -0.8799 -0.5994 -0.7761
 9023SOL    HW139128   0.038   7.191   4.463 -0.7155  0.8835  2.2055
 9023SOL    HW239129  -0.015   7.317   4.375 -1.9837  0.1784  1.9517
 9024SOL     OW39130   7.499   6.884   6.636  0.0726 -0.0875  0.5459
 9024SOL    HW139131   7.595   6.857   6.631 -0.4083 -1.9918  1.3843
 9024SOL    HW239132   7.457   6.876   6.545  0.8288  1.3119  0.0529
 9025SOL     OW39133   4.710   2.248   4.779  0.6155 -0.2944 -0.0006
 9025SOL    HW139134   4.785   2.309   4.806  0.0372  0.5155 -0.2360
 9025SOL    HW239135   4.744   2.154   4.778  1.3534 -0.0499  0.9340
 9026SOL     OW39136   9.266   7.142   3.687  0.1585 -0.7569  0.0737
 9026SOL    HW139137   9.335   7.092   3.635  1.1852 -0.0749  0.7510
 9026SOL    HW239138   9.204   7.189   3.625  1.0717 -0.3517 -0.5322
 9027SOL     OW39139   2.908   3.649   4.959  0.1516  0.7819  0.0589
 9027SOL    HW139140   2.993   3.632   5.009 -0.6916 -0.0705  1.2277
 9027SOL    HW239141   2.877   3.742   4.976  0.5517  0.9148  0.0690
 9028SOL     OW39142   0.380   6.734   6.121  0.5141 -0.7135  0.0862
 9028SOL    HW139143   0.336   6.661   6.174 -0.4307 -1.0093 -1.0760
 9028SOL    HW239144   0.310   6.799   6.090  1.1527 -0.1534 -0.1751
 9029SOL     OW39145   1.691   5.851   7.559 -0.1162 -0.0976  0.1513
 9029SOL    HW139146   1.727   5.945   7.560 -1.2853  0.4567 -2.8220
 9029SOL    HW239147   1.753   5.790   7.608  1.6588  1.8882  0.4370
 9030SOL     OW39148   2.745   5.752   0.158 -0.1892  0.4341  0.3035
 9030SOL    HW139149   2.818   5.739   0.091 -1.7721 -0.6177 -1.2662
 9030SOL    HW239150   2.784   5.784   0.244  2.0960  0.0099 -0.5400
 9031SOL     OW39151   3.382   7.867   0.851  0.1477 -0.2400 -0.0076
 9031SOL    HW139152   3.313   7.859   0.779 -0.2173 -1.2560  0.4393
 9031SOL    HW239153   3.463   7.913   0.815  0.0359 -0.8980 -1.1240
 9032SOL     OW39154   1.462   8.074   3.838  0.5166 -0.4936  0.3143
 9032SOL    HW139155   1.450   8.170   3.814 -1.2710 -1.2618 -2.0533
 9032SOL    HW239156   1.538   8.035   3.785  0.2707 -0.7422  0.1372
 9033SOL     OW39157   0.658   5.300   1.524 -0.3465  0.1087  0.0983
 9033SOL    HW139158   0.623   5.227   1.465 -0.8195  0.3241  0.1135
 9033SOL    HW239159   0.620   5.289   1.616 -0.0175  0.0795  0.2320
 9034SOL     OW39160   0.860   7.781   2.441 -0.0667 -0.8729 -0.2273
 9034SOL    HW139161   0.927   7.709   2.457  0.6228 -0.3103 -0.5525
 9034SOL    HW239162   0.873   7.854   2.509 -0.3114 -0.7389 -0.3245
 9035SOL     OW39163   6.770   3.416   1.628  0.0389  0.3068 -0.1792
 9035SOL    HW139164   6.846   3.353   1.644 -1.4979 -0.9964  2.2770
 9035SOL    HW239165   6.712   3.380   1.555  1.2866  0.9011 -1.5002
 9036SOL     OW39166   7.078   4.605   2.450 -0.8358  0.2005  0.5988
 9036SOL    HW139167   7.014   4.679   2.431 -0.1174  0.6613 -0.0579
 9036SOL    HW239168   7.143   4.597   2.374 -0.8755 -1.0651  0.6885
 9037SOL     OW39169   6.773   0.056   3.706 -0.3050  0.8121  0.2732
 9037SOL    HW139170   6.692   0.031   3.758  0.7703 -0.9614  1.1392
 9037SOL    HW239171   6.766   0.018   3.613 -1.1810  2.0387 -0.1749
 9038SOL     OW39172   4.160   6.291   0.230  0.0626  0.1091 -0.5243
 9038SOL    HW139173   4.177   6.206   0.180 -0.2157  0.8478 -1.8715
 9038SOL    HW239174   4.220   6.295   0.310 -0.9470 -2.0674  0.4021
 9039SOL     OW39175   7.859   6.465   9.308  0.3493 -0.0871 -0.1087
 9039SOL    HW139176   7.911   6.415   9.239  0.1294 -0.1464 -0.2310
 9039SOL    HW239177   7.762   6.443   9.300  0.3102 -0.0090  0.1466
 9040SOL     OW39178   1.519   4.291   7.815  0.5689  0.3914  0.2695
 9040SOL    HW139179   1.472   4.362   7.868  1.3386  2.2157 -1.4390
 9040SOL    HW239180   1.614   4.319   7.800  0.8374 -0.9375 -0.5643
 9041SOL     OW39181   0.281   7.453   1.041 -0.4119 -0.5633 -0.2042
 9041SOL    HW139182   0.354   7.507   1.000 -0.5984  0.6851  1.0986
 9041SOL    HW239183   0.233   7.402   0.969  0.6538 -0.0797 -1.2626
 9042SOL     OW39184   5.553   8.737   1.500 -0.2556  0.4928 -0.0881
 9042SOL    HW139185   5.509   8.764   1.414  1.2119  0.5770 -0.8223
 9042SOL    HW239186   5.621   8.667   1.482 -0.0184  0.4199  1.0377
 9043SOL     OW39187   3.806   5.321   2.081  0.1938  0.2876 -0.0818
 9043SOL    HW139188   3.808   5.223   2.098  0.6047  0.2818 -0.1556
 9043SOL    HW239189   3.728   5.344   2.024 -0.0637  0.0411  0.1689
 9044SOL     OW39190   4.298   7.198   4.277  0.3381  0.0139  0.6023
 9044SOL    HW139191   4.306   7.099   4.267 -1.1909 -0.1367  0.6519
 9044SOL    HW239192   4.366   7.231   4.341  0.8790 -1.0073  0.5608
 9045SOL     OW39193   2.083   0.814   9.203 -0.1181 -0.0870 -0.4965
 9045SOL    HW139194   2.058   0.752   9.129  2.0127 -1.1424 -0.3717
 9045SOL    HW239195   2.066   0.769   9.291  1.3960 -0.5211 -0.4070
 9046SOL     OW39196   3.019   9.578   2.683  0.0433 -0.2432 -0.4135
 9046SOL    HW139197   2.958   9.657   2.677 -0.2844 -0.4951 -0.4409
 9046SOL    HW239198   2.965   9.494   2.673  0.3550 -0.4776 -0.1288
 9047SOL     OW39199   9.384   8.425   2.657 -0.5576  0.0072  0.2992
 9047SOL    HW139200   9.299   8.423   2.709 -0.6480 -0.9234  0.1254
 9047SOL    HW239201   9.413   8.520   2.644 -3.3140  0.5526 -2.4837
 9048SOL     OW39202   3.716   8.575   2.035 -0.3927 -0.3530  0.6943
 9048SOL    HW139203   3.703   8.498   1.971  0.5922  0.3499 -0.3909
 9048SOL    HW239204   3.813   8.579   2.061 -0.2578  1.0542  0.0231
 9049SOL     OW39205   0.868   5.893   9.746  0.4296 -0.0396 -0.5496
 9049SOL    HW139206   0.886   5.798   9.770  0.8510  0.2857  0.4816
 9049SOL    HW239207   0.954   5.944   9.747  0.0335  0.6421  0.2947
 9050SOL     OW39208   5.369   7.959   8.034 -0.1263 -0.0151  0.2903
 9050SOL    HW139209   5.393   8.039   8.089  0.2343  0.2540 -0.2472
 9050SOL    HW239210   5.298   7.983   7.969  1.0225  0.2810 -0.8855
 9051SOL     OW39211   1.711   5.743   9.541 -0.2624 -0.6518  0.0250
 9051SOL    HW139212   1.649   5.776   9.612  0.0015  0.6205 -0.3267
 9051SOL    HW239213   1.801   5.784   9.553 -0.0785 -0.8023 -0.7614
 9052SOL     OW39214   7.702   9.933   6.370  0.0505  0.2115  0.3985
 9052SOL    HW139215   7.736   9.916   6.463 -2.7984  1.0274  1.6337
 9052SOL    HW239216   7.614   9.887   6.357 -0.1123  1.0132 -1.5256
 9053SOL     OW39217   0.008   5.979   2.836 -0.3172 -0.1237 -0.4970
 9053SOL    HW139218  -0.012   5.995   2.740  1.6205  0.2815 -0.8601
 9053SOL    HW239219   0.048   6.062   2.876 -0.1049 -0.6282  0.3675
 9054SOL     OW39220   1.279   8.167   8.642 -0.0452  0.3306  0.4348
 9054SOL    HW139221   1.306   8.174   8.546  0.8158  0.8443  0.7147
 9054SOL    HW239222   1.189   8.123   8.647  0.7357 -1.4723 -0.5033
 9055SOL     OW39223   5.176   4.669   1.619  0.3463  0.5060  0.1851
 9055SOL    HW139224   5.174   4.768   1.632 -0.1451  0.2567  2.0478
 9055SOL    HW239225   5.098   4.642   1.562 -0.1393  1.0623  0.5786
 9056SOL     OW39226   8.525   8.805   6.951  0.6102 -0.0149  0.3321
 9056SOL    HW139227   8.467   8.760   6.882  2.2415  0.1819 -1.1976
 9056SOL    HW239228   8.541   8.900   6.925  3.5068 -0.7011 -0.4738
 9057SOL     OW39229   3.663   3.167   6.585  0.1548 -0.2654 -0.1574
 9057SOL    HW139230   3.735   3.163   6.516  0.4027 -0.9225  0.1324
 9057SOL    HW239231   3.676   3.092   6.650 -0.3897  0.0296  0.2883
 9058SOL     OW39232   4.565   5.728   1.477 -0.2318 -0.1241  0.2455
 9058SOL    HW139233   4.653   5.754   1.515 -0.4742  1.8504 -0.4973
 9058SOL    HW239234   4.577   5.701   1.381 -0.4980  0.7087 -0.0300
 9059SOL     OW39235   3.515   6.894   8.244  0.3870 -0.0954  0.4440
 9059SOL    HW139236   3.505   6.946   8.159 -0.7207  1.4896  1.5171
 9059SOL    HW239237   3.460   6.936   8.316  0.2605 -2.1870  1.6143
 9060SOL     OW39238   1.679   1.601   3.303  0.0354  0.9000 -0.0777
 9060SOL    HW139239   1.627   1.540   3.244 -0.8933  0.2879  1.3248
 9060SOL    HW239240   1.774   1.603   3.275 -0.5207  1.1269 -1.9774
 9061SOL     OW39241   2.032   9.431   4.726  0.4299 -0.3717  0.1541
 9061SOL    HW139242   2.108   9.496   4.729  0.7685 -0.8196  2.4635
 9061SOL    HW239243   1.972   9.446   4.805  0.5217 -2.8387  0.7432
 9062SOL     OW39244   5.068   6.585   4.678  0.3765  0.6127  0.3943
 9062SOL    HW139245   5.105   6.493   4.691 -2.2410 -0.6325 -0.6376
 9062SOL    HW239246   4.968   6.583   4.689  0.1155  3.0348 -1.1241
 9063SOL     OW39247   0.368   0.916   3.347  0.0740 -0.5743 -0.0257
 9063SOL    HW139248   0.434   0.976   3.301 -1.2128 -0.3129 -1.5728
 9063SOL    HW239249   0.417   0.849   3.403  1.5733  1.0626  0.6698
 9064SOL     OW39250   3.549   3.414   4.484 -0.0867  0.1361 -0.0955
 9064SOL    HW139251   3.517   3.320   4.477 -0.2692  0.1773  0.1846
 9064SOL    HW239252   3.510   3.457   4.566 -0.6735  0.7148 -0.6741
 9065SOL     OW39253   0.607   1.704   5.626  0.1380  0.0549 -0.0491
 9065SOL    HW139254   0.579   1.787   5.579  0.1152 -0.0453 -0.2128
 9065SOL    HW239255   0.705   1.710   5.648 -0.3112  0.9943  1.7584
 9066SOL     OW39256   3.260   7.079   2.610 -0.2004 -0.2186 -0.1803
 9066SOL    HW139257   3.160   7.090   2.615 -0.2937 -1.3370  0.5392
 9066SOL    HW239258   3.282   7.007   2.545  0.2668  1.7390 -2.2735
 9067SOL     OW39259   0.788   3.293   4.537 -0.7532 -0.1153  0.0333
 9067SOL    HW139260   0.837   3.251   4.460  1.1502  2.9432 -0.5235
 9067SOL    HW239261   0.691   3.302   4.514 -0.6004 -1.2068 -1.1106
 9068SOL     OW39262   1.042   6.092   7.015  0.1502  0.7637 -0.1792
 9068SOL    HW139263   1.128   6.107   6.968  0.0433  0.6560 -0.4081
 9068SOL    HW239264   1.002   6.181   7.040 -0.4848  0.8658 -1.5409
 9069SOL     OW39265   9.732   2.386   5.918 -0.1944 -0.7691 -0.1388
 9069SOL    HW139266   9.759   2.331   5.839 -0.9410  0.6762 -1.4339
 9069SOL    HW239267   9.813   2.431   5.956 -0.1623  0.4899 -1.6327
 9070SOL     OW39268   2.586   8.790   4.237  0.1816  0.2549  0.0684
 9070SOL    HW139269   2.616   8.859   4.303 -1.2109  1.8443 -0.9036
 9070SOL    HW239270   2.621   8.813   4.146 -0.1495 -0.4019 -0.2315
 9071SOL     OW39271   1.866   7.073   8.384  0.5018 -0.1676 -0.5398
 9071SOL    HW139272   1.953   7.036   8.352  1.0253  1.0158 -0.4837
 9071SOL    HW239273   1.811   6.999   8.423  0.3043 -1.4405 -3.1576
 9072SOL     OW39274   1.003   4.198   5.482 -0.3476 -0.4868 -0.5480
 9072SOL    HW139275   1.072   4.198   5.409  3.0782  1.1689  2.4944
 9072SOL    HW239276   0.970   4.291   5.496 -1.7351 -0.9596 -0.6260
 9073SOL     OW39277   3.868   1.898   5.925  0.4456  0.2237  0.3774
 9073SOL    HW139278   3.905   1.874   6.015 -0.3646  0.5604  0.8050
 9073SOL    HW239279   3.838   1.815   5.877 -0.3634  0.1640  0.9710
 9074SOL     OW39280   2.073   4.219   9.540 -0.4735 -0.0163  0.2300
 9074SOL    HW139281   2.105   4.167   9.619 -1.6219 -1.3008 -0.1225
 9074SOL    HW239282   1.995   4.276   9.568 -1.0877 -0.7160 -0.0327
 9075SOL     OW39283   4.036   7.483   5.863 -0.1887  0.1853 -0.3474
 9075SOL    HW139284   4.120   7.437   5.836 -0.5014  0.5655 -2.0503
 9075SOL    HW239285   3.961   7.417   5.867 -0.2969  0.2399 -1.2083
 9076SOL     OW39286   4.366   0.761   3.449  0.5173 -0.6600 -0.2248
 9076SOL    HW139287   4.447   0.713   3.416  1.1871 -0.5956  1.2847
 9076SOL    HW239288   4.383   0.796   3.541  0.0318  2.4079 -1.2386
 9077SOL     OW39289   0.873   2.332   6.421 -0.5535  0.4075 -0.0698
 9077SOL    HW139290   0.830   2.242   6.425  0.9841 -0.2702  2.1469
 9077SOL    HW239291   0.840   2.388   6.497  0.5555  0.7501  0.1706
 9078SOL     OW39292   9.187   4.517   0.483 -0.0749 -0.4814 -0.7706
 9078SOL    HW139293   9.236   4.583   0.425 -0.7324 -0.5963 -1.4568
 9078SOL    HW239294   9.219   4.527   0.577 -0.3146  0.9782 -0.8226
 9079SOL     OW39295   2.626   7.950   0.920  0.0798 -0.5387  0.9162
 9079SOL    HW139296   2.558   7.884   0.950  0.9443 -0.5414  2.9123
 9079SOL    HW239297   2.718   7.915   0.939  0.7355 -0.8851 -2.4308
 9080SOL     OW39298   4.886   6.065   0.315  0.1396  0.0759  0.0011
 9080SOL    HW139299   4.851   5.979   0.277  0.8665  0.7147 -2.1831
 9080SOL    HW239300   4.986   6.067   0.305  0.1237  1.1629  0.0546
 9081SOL     OW39301   8.981   7.839   2.572 -0.4755  0.2761  0.1823
 9081SOL    HW139302   8.989   7.938   2.583 -1.7764  0.4067  0.0850
 9081SOL    HW239303   8.964   7.818   2.476 -0.6849 -0.0016  0.2791
 9082SOL     OW39304   5.515   7.773   1.611  0.3437 -0.5800 -0.1573
 9082SOL    HW139305   5.599   7.823   1.589  0.2561 -0.3274  0.0747
 9082SOL    HW239306   5.536   7.697   1.672  0.1290  0.7047  1.5596
 9083SOL     OW39307   4.126   9.742   5.314  1.0848  0.4444  0.0429
 9083SOL    HW139308   4.088   9.751   5.406  0.9855  0.0280  0.0397
 9083SOL    HW239309   4.094   9.819   5.258 -0.3028 -0.2554 -0.1567
 9084SOL     OW39310   3.205   6.662   8.582  0.1333 -0.6146  0.3780
 9084SOL    HW139311   3.189   6.565   8.602  1.1973 -0.4420  2.1962
 9084SOL    HW239312   3.194   6.678   8.484  2.9399 -3.2081 -0.4563
 9085SOL     OW39313   5.093   4.212   1.701  0.6039 -0.1180  0.2165
 9085SOL    HW139314   5.094   4.174   1.609 -1.2012 -1.0092  0.5494
 9085SOL    HW239315   5.112   4.311   1.697 -0.0971 -0.0310 -1.1604
 9086SOL     OW39316   1.024   2.796   4.896 -0.2879  0.2682 -0.1076
 9086SOL    HW139317   1.067   2.878   4.934 -1.3554  1.5254 -1.5504
 9086SOL    HW239318   0.924   2.803   4.904 -0.4490 -0.2413 -1.5124
 9087SOL     OW39319   2.098   5.266   4.285  0.1287 -0.2452  0.4011
 9087SOL    HW139320   2.073   5.231   4.376  0.4168 -2.4991 -0.3614
 9087SOL    HW239321   2.138   5.357   4.295  0.7485 -0.7196  2.5953
 9088SOL     OW39322   2.526   8.612   3.116 -0.5204  0.1133 -1.1740
 9088SOL    HW139323   2.505   8.514   3.123  1.0677 -0.0956  1.4472
 9088SOL    HW239324   2.623   8.624   3.098 -0.2600  1.2349  0.8979
 9089SOL     OW39325   7.664   4.641   4.633 -0.3794 -0.0957 -0.2309
 9089SOL    HW139326   7.589   4.579   4.655 -1.0375  0.3464 -1.1526
 9089SOL    HW239327   7.651   4.727   4.682 -1.1953  0.4505 -1.3574
 9090SOL     OW39328   4.965   6.374   2.076 -0.0400 -0.1396  0.4732
 9090SOL    HW139329   4.872   6.400   2.100 -0.1188 -0.1210  0.1603
 9090SOL    HW239330   4.973   6.367   1.976  0.4613  0.5047  0.4624
 9091SOL     OW39331   0.826   6.116   1.012  0.1892  0.1451  0.1310
 9091SOL    HW139332   0.876   6.035   0.983  0.0258  0.6574 -1.6592
 9091SOL    HW239333   0.786   6.161   0.932 -0.9040  1.2116  1.2490
 9092SOL     OW39334   8.779   6.466   6.763 -0.3644 -0.0213 -0.2281
 9092SOL    HW139335   8.761   6.385   6.819 -0.1407  1.0421  1.4383
 9092SOL    HW239336   8.693   6.501   6.726 -0.8828  0.8092  1.6899
 9093SOL     OW39337   2.848   7.255   9.476 -0.1353  0.0593  0.4239
 9093SOL    HW139338   2.915   7.185   9.497 -1.1350 -0.8624  0.5700
 9093SOL    HW239339   2.888   7.346   9.492  1.5961 -0.4234 -1.0644
 9094SOL     OW39340   1.330   4.784   1.181  0.0533  0.2334 -0.2908
 9094SOL    HW139341   1.393   4.734   1.122 -1.7289 -1.0682 -1.1570
 9094SOL    HW239342   1.302   4.869   1.136 -1.6434 -0.9681 -1.5653
 9095SOL     OW39343   1.373   9.515   3.290  0.2326  0.8036 -0.1021
 9095SOL    HW139344   1.397   9.611   3.274  0.5616  0.4953 -1.6008
 9095SOL    HW239345   1.300   9.488   3.226 -0.1345  0.1653  0.5764
 9096SOL     OW39346   4.785   0.241   1.649  0.1268  0.2106 -0.4053
 9096SOL    HW139347   4.835   0.187   1.581  0.4451  0.8148 -0.6508
 9096SOL    HW239348   4.687   0.237   1.629  0.0661 -0.9990  0.0944
 9097SOL     OW39349   6.775   6.643   6.503 -0.5158 -0.2496  0.3036
 9097SOL    HW139350   6.757   6.716   6.569  0.2708 -0.4943  0.7937
 9097SOL    HW239351   6.828   6.679   6.427 -2.2835  0.2717 -0.7146
 9098SOL     OW39352   1.171   6.579   0.896  0.3313  0.2065  0.4576
 9098SOL    HW139353   1.112   6.580   0.977 -0.6226 -0.2490 -0.2181
 9098SOL    HW239354   1.240   6.650   0.905 -0.0373  0.4589  1.4712
 9099SOL     OW39355   5.333   6.550   1.857 -0.5021 -0.1189  0.2754
 9099SOL    HW139356   5.321   6.482   1.929 -0.7039 -0.7650 -0.3541
 9099SOL    HW239357   5.246   6.593   1.836 -0.1571  1.1695  1.4773
 9100SOL     OW39358   1.597   4.995   9.453 -0.1799 -0.4645  0.0532
 9100SOL    HW139359   1.541   5.077   9.439 -1.7596 -1.6726 -0.9005
 9100SOL    HW239360   1.693   5.019   9.444 -0.6433  1.1930 -0.7887
 9101SOL     OW39361   1.984   3.358   8.703  0.5996  0.3327 -0.5456
 9101SOL    HW139362   2.020   3.436   8.650  0.1255  0.5035 -0.6146
 9101SOL    HW239363   1.951   3.390   8.791  2.3192 -0.1020  0.2705
 9102SOL     OW39364   9.879   8.960   6.800 -0.3438  0.8713  0.3843
 9102SOL    HW139365   9.850   9.025   6.870 -1.8374  0.4871  0.1287
 9102SOL    HW239366   9.799   8.913   6.762  0.7380 -1.3646  0.7980
 9103SOL     OW39367   1.145   4.194   3.474 -0.0857  0.0718 -0.3308
 9103SOL    HW139368   1.237   4.207   3.437 -0.0707 -1.3895 -0.8165
 9103SOL    HW239369   1.127   4.265   3.542  1.8781 -0.3769  0.7027
 9104SOL     OW39370   8.335   5.276   4.282 -0.0989 -0.6984 -0.0651
 9104SOL    HW139371   8.316   5.232   4.195 -2.6940 -2.0287  1.1263
 9104SOL    HW239372   8.317   5.212   4.357  0.3308  0.9981  1.5374
 9105SOL     OW39373   0.069   5.968   0.695 -0.0880 -0.0362  0.1873
 9105SOL    HW139374   0.038   5.926   0.781  0.7244  1.8100  1.3975
 9105SOL    HW239375   0.005   6.039   0.668  0.8633  0.9409  0.4807
 9106SOL     OW39376   4.128   5.326   3.046 -0.0399 -0.0581  0.8234
 9106SOL    HW139377   4.138   5.304   3.143  0.2737 -1.1060  0.5575
 9106SOL    HW239378   4.151   5.423   3.031  3.5318 -0.7447  1.2488
 9107SOL     OW39379   3.681   6.880   2.386  0.2056  0.5521  0.0471
 9107SOL    HW139380   3.666   6.789   2.427  0.5473  0.8760  0.8927
 9107SOL    HW239381   3.666   6.950   2.455 -1.4901  1.2261 -0.9677
 9108SOL     OW39382   0.070   2.356   2.811 -0.0152 -0.3138 -0.8566
 9108SOL    HW139383   0.106   2.318   2.726  1.8031 -3.5031  1.2546
 9108SOL    HW239384   0.037   2.282   2.869  0.5355  1.6454  2.0306
 9109SOL     OW39385   6.786   2.122   1.828  0.5621  0.1740 -0.1817
 9109SOL    HW139386   6.833   2.041   1.792 -0.3471 -0.6123  0.3667
 9109SOL    HW239387   6.695   2.128   1.787  0.3366  0.4753  0.3647
 9110SOL     OW39388   2.669   0.057   1.662 -0.0644  0.2761 -0.2890
 9110SOL    HW139389   2.698  -0.030   1.703  2.2853  0.6716 -1.0480
 9110SOL    HW239390   2.596   0.039   1.596 -1.3085 -0.8070  1.3338
 9111SOL     OW39391   2.027   4.552   2.977  0.4419 -0.4892  0.2615
 9111SOL    HW139392   2.018   4.454   2.996  0.5610 -0.4793  0.3670
 9111SOL    HW239393   2.077   4.596   3.052 -0.9097 -0.0883  0.9546
 9112SOL     OW39394   2.971   3.786   1.625  0.0768 -0.5634  0.1807
 9112SOL    HW139395   2.999   3.691   1.612  4.7857  0.7363 -0.1741
 9112SOL    HW239396   2.956   3.803   1.722 -0.0261 -1.4999  0.3327
 9113SOL     OW39397   4.503   5.884   4.223 -0.0176 -0.1429 -0.2874
 9113SOL    HW139398   4.586   5.927   4.258 -0.6291  0.2649  0.6768
 9113SOL    HW239399   4.518   5.855   4.128  1.7123 -1.4174  0.3487
 9114SOL     OW39400   3.124   6.445   3.484 -0.3365 -0.1499  0.0271
 9114SOL    HW139401   3.143   6.543   3.486 -0.9825 -0.0438  1.1735
 9114SOL    HW239402   3.209   6.394   3.473  0.4339  0.3867  3.1965
 9115SOL     OW39403   2.772   5.505   8.498 -0.3732  0.0587  0.2311
 9115SOL    HW139404   2.805   5.431   8.439 -0.7607 -0.1342  0.2550
 9115SOL    HW239405   2.812   5.591   8.469  0.2852 -0.1973  0.3615
 9116SOL     OW39406   4.487   9.487   1.430  0.2520 -0.1011 -0.3927
 9116SOL    HW139407   4.531   9.573   1.406  0.2152 -0.1517 -0.6531
 9116SOL    HW239408   4.553   9.412   1.423  0.2471 -0.1123 -0.3113
 9117SOL     OW39409   4.363   7.656   0.555 -0.2788 -0.1592  0.5803
 9117SOL    HW139410   4.321   7.581   0.505 -0.1910  1.1145 -1.4667
 9117SOL    HW239411   4.294   7.703   0.610 -0.7795 -0.3753  0.1329
 9118SOL     OW39412   3.816   5.150   1.017 -0.2638  0.1415 -0.0602
 9118SOL    HW139413   3.725   5.145   0.977  0.0402  0.1879 -0.7517
 9118SOL    HW239414   3.820   5.092   1.098 -0.5342 -0.8575 -0.7565
 9119SOL     OW39415   3.630   7.073   2.584  0.3777 -0.2523 -0.2967
 9119SOL    HW139416   3.632   7.159   2.533  0.0117 -0.2661 -0.3343
 9119SOL    HW239417   3.548   7.070   2.642  0.9185 -0.1279  0.4843
 9120SOL     OW39418   2.475   5.750   5.982 -0.6693  0.4996 -0.0978
 9120SOL    HW139419   2.392   5.776   5.933 -0.5764  0.0039 -0.5157
 9120SOL    HW239420   2.517   5.832   6.023  0.3143  1.2264 -2.4928
 9121SOL     OW39421   3.428   8.942   3.215 -0.1898  0.0245  0.4892
 9121SOL    HW139422   3.402   8.990   3.132  2.1305 -1.3385 -1.0858
 9121SOL    HW239423   3.519   8.973   3.244 -0.2622 -0.7386  1.5713
 9122SOL     OW39424   4.068   1.437   7.530 -0.0656 -0.5372 -0.2980
 9122SOL    HW139425   4.152   1.475   7.570 -0.6308 -0.9084  1.2523
 9122SOL    HW239426   4.072   1.337   7.532  0.2381 -0.5768 -1.9086
 9123SOL     OW39427   1.390   2.699   4.350 -0.3112 -0.0631  0.1075
 9123SOL    HW139428   1.364   2.642   4.428  1.7872  0.0071  0.8923
 9123SOL    HW239429   1.432   2.783   4.383  3.2247 -1.2916 -1.0815
 9124SOL     OW39430   5.191   8.528   7.243 -0.0655  0.3316  0.2218
 9124SOL    HW139431   5.114   8.555   7.185  1.3928  1.6729 -1.1391
 9124SOL    HW239432   5.275   8.572   7.210  1.0278  0.1158  2.5776
 9125SOL     OW39433   6.202   2.034   1.758 -0.4086 -0.1447  0.2902
 9125SOL    HW139434   6.163   1.944   1.736 -0.0440 -0.6303  1.6085
 9125SOL    HW239435   6.128   2.100   1.769 -0.7248 -0.4712  0.1557
 9126SOL     OW39436   9.229   4.511   4.839 -0.0203  0.1879 -0.1013
 9126SOL    HW139437   9.152   4.482   4.783  0.3987 -0.6879 -0.2250
 9126SOL    HW239438   9.313   4.512   4.784  0.1436  0.6674  0.1518
 9127SOL     OW39439   3.394   2.885   5.348  0.2803 -0.0935 -0.0138
 9127SOL    HW139440   3.396   2.831   5.264  0.2001 -0.3755  0.1633
 9127SOL    HW239441   3.389   2.982   5.325 -0.0467 -0.1838 -0.3357
 9128SOL     OW39442   3.526   0.025   0.532 -0.2477 -0.6422  0.2200
 9128SOL    HW139443   3.513   0.068   0.622  0.7686  1.6072 -0.6454
 9128SOL    HW239444   3.489   0.085   0.461 -1.3072 -2.5408 -0.8654
 9129SOL     OW39445   2.327   2.883   8.845  0.3466 -0.2927  0.1723
 9129SOL    HW139446   2.346   2.792   8.880 -0.4646  0.5378  2.8462
 9129SOL    HW239447   2.389   2.949   8.887  0.9633  0.4173 -1.7713
 9130SOL     OW39448   9.834   7.576   0.304  0.7043 -0.2069 -0.3612
 9130SOL    HW139449   9.768   7.553   0.233  0.0739  1.3454 -0.2914
 9130SOL    HW239450   9.800   7.544   0.393 -0.3611  1.3081 -0.2067
 9131SOL     OW39451   0.170   3.412   4.087  0.3807  0.0415  0.2514
 9131SOL    HW139452   0.261   3.447   4.064  0.0642  0.2800 -0.6544
 9131SOL    HW239453   0.174   3.366   4.176  1.4783 -0.3004  0.0410
 9132SOL     OW39454   1.876   5.909   9.240 -0.8835  0.4704  0.0006
 9132SOL    HW139455   1.877   5.963   9.156 -1.9089  1.1114  0.3919
 9132SOL    HW239456   1.807   5.837   9.233  0.0098 -0.3756 -0.2536
 9133SOL     OW39457   3.630   5.551   2.635 -0.3707 -0.8542  0.0286
 9133SOL    HW139458   3.700   5.598   2.581 -1.2716  0.4092 -0.0500
 9133SOL    HW239459   3.660   5.548   2.731 -0.5622  0.3960  0.1366
 9134SOL     OW39460   1.646   4.533   2.743 -0.4478  0.1509  0.7766
 9134SOL    HW139461   1.666   4.464   2.674  1.3349 -0.8781  2.2900
 9134SOL    HW239462   1.626   4.488   2.831  1.1155  1.5447  1.8724
 9135SOL     OW39463   9.679   2.073   3.158 -0.3049  0.3597 -0.7752
 9135SOL    HW139464   9.581   2.060   3.166 -0.5460  2.5941  0.3247
 9135SOL    HW239465   9.698   2.146   3.091  0.4791  1.5030  0.6584
 9136SOL     OW39466   3.664   6.721   2.111  0.2608 -0.3910  0.4151
 9136SOL    HW139467   3.721   6.774   2.048  2.1202 -2.3261  0.4221
 9136SOL    HW239468   3.643   6.632   2.069 -0.2033 -0.8926  1.6983
 9137SOL     OW39469   9.414   5.343   5.150 -0.4469 -0.2277  0.5106
 9137SOL    HW139470   9.429   5.347   5.249  0.7232 -1.3765  0.3909
 9137SOL    HW239471   9.324   5.381   5.129  0.2797  2.2898  1.7551
 9138SOL     OW39472   2.363   7.635   2.084  0.8343 -0.1170  0.0042
 9138SOL    HW139473   2.333   7.542   2.062  0.6321  0.0140 -0.2870
 9138SOL    HW239474   2.302   7.674   2.152  1.3112 -0.4324  0.6131
 9139SOL     OW39475   5.131   1.289   8.771  0.4707  0.3387 -0.3119
 9139SOL    HW139476   5.182   1.204   8.781 -0.1996 -0.2209 -1.4760
 9139SOL    HW239477   5.035   1.268   8.750  0.3471  1.3797 -0.8282
 9140SOL     OW39478   5.312   4.797   3.721  0.6905  0.1132  0.0736
 9140SOL    HW139479   5.331   4.823   3.626 -1.4398 -2.0590 -0.9980
 9140SOL    HW239480   5.236   4.851   3.756  1.0689  0.4706  0.3580
 9141SOL     OW39481   4.242   2.949   7.727 -0.3101  0.1583 -0.2996
 9141SOL    HW139482   4.342   2.947   7.729 -0.2936  1.2291  0.3746
 9141SOL    HW239483   4.212   3.034   7.683 -0.9259 -0.8741 -1.9288
 9142SOL     OW39484   3.914   7.066   2.543 -0.9247 -0.0422  0.4774
 9142SOL    HW139485   3.816   7.056   2.562 -0.8140 -1.8643  0.1162
 9142SOL    HW239486   3.926   7.096   2.448 -1.1237  0.0548  0.4824
 9143SOL     OW39487   1.492   6.696   0.114 -0.0388  0.2360  0.3935
 9143SOL    HW139488   1.463   6.668   0.022  1.6239 -2.0551  0.5333
 9143SOL    HW239489   1.560   6.769   0.106  0.8554 -0.6456 -0.2668
 9144SOL     OW39490   3.578   2.762   5.501  0.0323  0.1869  0.2697
 9144SOL    HW139491   3.514   2.832   5.469 -0.0374  0.2673  0.5781
 9144SOL    HW239492   3.532   2.704   5.569 -0.3649 -1.0509 -1.0175
 9145SOL     OW39493   3.478   8.998   5.614  0.3922 -0.0177 -0.1073
 9145SOL    HW139494   3.531   8.914   5.617 -2.1010 -1.5909  1.7941
 9145SOL    HW239495   3.529   9.068   5.563  2.9525 -2.3156 -0.8143
 9146SOL     OW39496   9.526   4.166   8.930  0.9263  0.1897 -0.0146
 9146SOL    HW139497   9.534   4.208   8.839 -0.1522  1.5437  0.5003
 9146SOL    HW239498   9.484   4.075   8.921  0.2218  0.5834 -0.8081
 9147SOL     OW39499   7.314   8.711   1.537 -0.2370  0.0971  0.4034
 9147SOL    HW139500   7.413   8.718   1.540 -0.1868  0.0250 -0.7512
 9147SOL    HW239501   7.276   8.723   1.629  0.8165  0.4141  0.7969
 9148SOL     OW39502   6.015   0.380   9.522 -0.2187 -0.6414  0.2777
 9148SOL    HW139503   6.019   0.280   9.530 -2.5849 -0.8214 -0.3259
 9148SOL    HW239504   5.999   0.405   9.427 -1.2725  0.2235  0.6689
 9149SOL     OW39505   1.122   4.883   9.259 -0.2809 -0.4950 -0.0823
 9149SOL    HW139506   1.180   4.826   9.200 -0.2321  0.4212 -0.9482
 9149SOL    HW239507   1.173   4.909   9.341 -0.2798 -1.6305  0.2819
 9150SOL     OW39508   3.121   8.687   8.694 -0.6434 -0.7401  0.1276
 9150SOL    HW139509   3.209   8.716   8.730 -1.0020  1.7203 -0.9076
 9150SOL    HW239510   3.049   8.708   8.759 -0.7215 -0.7292  0.0385
 9151SOL     OW39511   5.451   0.521   1.159 -0.3955  0.4536 -0.2255
 9151SOL    HW139512   5.525   0.583   1.183 -1.4907  1.4770  0.6288
 9151SOL    HW239513   5.439   0.519   1.060  1.6073 -0.7339 -0.4592
 9152SOL     OW39514   3.349   9.662   0.178  0.4550  0.0943  0.0868
 9152SOL    HW139515   3.298   9.684   0.261  0.2793  0.0653 -0.0150
 9152SOL    HW239516   3.415   9.735   0.160 -0.2025  0.5963 -0.3129
 9153SOL     OW39517   2.749   6.875   5.038 -0.0520 -0.1228  0.4831
 9153SOL    HW139518   2.710   6.825   5.116  0.3392 -0.4385  0.4801
 9153SOL    HW239519   2.842   6.841   5.021 -1.6276 -3.0917 -2.8581
 9154SOL     OW39520   1.011   9.743   0.795 -0.5624 -0.0708 -0.0624
 9154SOL    HW139521   1.039   9.741   0.891 -0.5527  0.7890 -0.0404
 9154SOL    HW239522   1.051   9.823   0.750 -2.0855  0.5802 -0.2979
 9155SOL     OW39523   4.293   7.485   1.336 -0.6724 -0.2444  0.1714
 9155SOL    HW139524   4.343   7.422   1.394  0.4730  1.0064  0.5579
 9155SOL    HW239525   4.352   7.561   1.309 -2.6262  1.8637  1.5565
 9156SOL     OW39526   7.343   5.798   4.675 -0.4478  0.8290 -0.3761
 9156SOL    HW139527   7.431   5.822   4.716 -0.0509  3.1238 -2.4884
 9156SOL    HW239528   7.349   5.708   4.632  0.4950  0.4674  0.4951
 9157SOL     OW39529   2.343   6.528   1.188  0.1950 -0.1741  0.1182
 9157SOL    HW139530   2.414   6.576   1.240  1.6952 -3.1035  0.8842
 9157SOL    HW239531   2.254   6.566   1.211  1.0594  0.2282  3.0165
 9158SOL     OW39532   2.508   9.226   5.534  0.0343 -0.3306 -0.4486
 9158SOL    HW139533   2.464   9.151   5.583  0.6867 -0.8745 -0.6782
 9158SOL    HW239534   2.577   9.268   5.593 -0.1667 -0.0651 -0.4030
 9159SOL     OW39535   0.413   6.413   1.057 -0.3685  0.2476  0.0020
 9159SOL    HW139536   0.439   6.441   0.965  0.2427  0.6327  0.2932
 9159SOL    HW239537   0.479   6.347   1.093  0.5798  1.7010  0.9807
 9160SOL     OW39538   7.866   0.818   3.827  0.1925  0.2220  0.0362
 9160SOL    HW139539   7.907   0.814   3.735  0.6309 -2.4510  0.3047
 9160SOL    HW239540   7.893   0.903   3.872  1.2314  0.8569 -1.7396
 9161SOL     OW39541   9.370   4.983   3.974  0.0868 -0.1220  0.4126
 9161SOL    HW139542   9.395   5.079   3.965  0.3311 -0.1295  1.0139
 9161SOL    HW239543   9.271   4.974   3.964  0.2149 -0.0108 -1.2457
 9162SOL     OW39544   2.904   4.296   5.103  0.3574  0.2521 -0.3542
 9162SOL    HW139545   2.843   4.261   5.031  1.5295  1.2095 -1.8477
 9162SOL    HW239546   2.876   4.389   5.127  1.3571  0.7767 -1.2046
 9163SOL     OW39547   4.018   7.564   5.401  0.0976  0.3987 -0.3165
 9163SOL    HW139548   4.018   7.464   5.408 -0.7330  0.3683 -0.7111
 9163SOL    HW239549   3.928   7.595   5.371  0.7928  1.1653 -1.6355
 9164SOL     OW39550   4.203   5.177   2.362  0.5028 -0.2334 -0.2215
 9164SOL    HW139551   4.272   5.249   2.369 -0.0297  0.2417  0.0593
 9164SOL    HW239552   4.248   5.088   2.375  0.8781  0.1396  1.0726
 9165SOL     OW39553   6.445   8.607   2.268 -0.2077  0.0806  0.1503
 9165SOL    HW139554   6.468   8.560   2.353 -1.0331  0.0124  0.3474
 9165SOL    HW239555   6.346   8.602   2.254 -0.0334 -0.2629 -1.0247
 9166SOL     OW39556   0.342   8.323   6.087 -0.6290  0.4119  0.1234
 9166SOL    HW139557   0.268   8.389   6.074  0.9988  2.3647  0.5678
 9166SOL    HW239558   0.303   8.234   6.111 -2.8500  1.2548 -0.2350
 9167SOL     OW39559   2.613   3.262   1.232 -0.4786 -0.2887 -0.0364
 9167SOL    HW139560   2.610   3.257   1.132 -2.4700 -2.2475  0.1015
 9167SOL    HW239561   2.528   3.302   1.266 -0.5455 -1.2941  0.9818
 9168SOL     OW39562   3.180   4.036   3.940  1.0357 -0.0579 -0.1574
 9168SOL    HW139563   3.276   4.052   3.918  1.0630 -0.0989 -0.0696
 9168SOL    HW239564   3.166   4.049   4.039  0.9021  0.1875 -0.2082
 9169SOL     OW39565   3.704   6.243   5.878 -0.1936 -0.0882 -0.3912
 9169SOL    HW139566   3.676   6.163   5.931  0.7334 -0.0225  0.2020
 9169SOL    HW239567   3.684   6.227   5.781  0.2430 -1.1529 -0.3149
 9170SOL     OW39568   2.196   9.020   1.776 -0.2835 -0.6305 -0.0481
 9170SOL    HW139569   2.239   9.028   1.866  0.8776 -0.7502 -0.5813
 9170SOL    HW239570   2.099   9.041   1.784 -0.2063 -0.6921  1.2438
 9171SOL     OW39571   1.994   3.520   3.052  0.0383  0.0326  0.1272
 9171SOL    HW139572   1.948   3.600   3.090  0.3646  0.5388 -0.5234
 9171SOL    HW239573   1.964   3.506   2.958  0.8597  0.0958 -0.1510
 9172SOL     OW39574   3.918   7.598   0.740 -0.4658 -0.2408 -0.1086
 9172SOL    HW139575   3.970   7.620   0.822 -0.5856  1.4739 -0.4795
 9172SOL    HW239576   3.951   7.512   0.702 -0.6893 -1.2736  1.9587
 9173SOL     OW39577   7.463   6.128   4.198  0.1639 -0.3252 -0.3844
 9173SOL    HW139578   7.419   6.049   4.241  1.0521 -0.1452  0.8704
 9173SOL    HW239579   7.395   6.202   4.188 -0.0760 -0.4051  0.6217
 9174SOL     OW39580   9.630   7.505   3.136  0.7538  0.5546 -0.0479
 9174SOL    HW139581   9.586   7.545   3.216  1.1119 -0.1135  0.4842
 9174SOL    HW239582   9.614   7.407   3.135  1.5145  0.4319 -0.3132
 9175SOL     OW39583   2.033   5.089   4.776  0.0620  0.7092 -0.4185
 9175SOL    HW139584   2.009   5.183   4.750  3.0416  1.4683 -0.5955
 9175SOL    HW239585   2.105   5.091   4.845  0.8688 -1.4486 -1.1582
 9176SOL     OW39586   0.096   9.513   5.480 -0.7823  0.0454 -0.0708
 9176SOL    HW139587   0.081   9.607   5.510 -1.7505  0.0699 -0.6155
 9176SOL    HW239588   0.060   9.502   5.387  2.6223  0.1336 -1.4750
 9177SOL     OW39589   1.316   2.248   5.354 -0.2486 -0.0934  0.4352
 9177SOL    HW139590   1.253   2.326   5.359 -1.2063 -0.7969 -0.5360
 9177SOL    HW239591   1.342   2.220   5.446 -1.4509  0.1330  0.8414
 9178SOL     OW39592   3.360   7.686   3.335  0.4249 -0.1541  0.3199
 9178SOL    HW139593   3.281   7.727   3.288  1.2101  1.7631  0.6300
 9178SOL    HW239594   3.340   7.591   3.356 -1.2449 -0.1054 -0.9133
 9179SOL     OW39595   3.286   2.460   4.800  0.5100  0.5004 -0.3134
 9179SOL    HW139596   3.328   2.550   4.814  0.6799  0.2190  1.0737
 9179SOL    HW239597   3.194   2.471   4.764  0.8825  1.2006 -1.0649
 9180SOL     OW39598   2.245   5.659   8.351 -0.1906 -0.7192 -0.3653
 9180SOL    HW139599   2.291   5.586   8.401 -0.7701  0.2988  1.7360
 9180SOL    HW239600   2.164   5.623   8.305 -0.9760 -1.2595  1.3875
 9181SOL     OW39601   1.578   0.494   0.179  0.2114  0.0090 -0.6735
 9181SOL    HW139602   1.617   0.446   0.101  0.7197  0.1681 -0.5204
 9181SOL    HW239603   1.522   0.570   0.146 -0.6665 -0.7404 -0.9149
 9182SOL     OW39604   0.428   5.550   3.158  0.6958 -0.1629 -0.1847
 9182SOL    HW139605   0.502   5.502   3.112  0.3131  0.6032 -1.6464
 9182SOL    HW239606   0.344   5.496   3.151  0.5867  0.0566 -0.5910
 9183SOL     OW39607   2.995   2.234   6.696 -0.4620 -0.1459 -0.1670
 9183SOL    HW139608   2.957   2.303   6.634  0.3213 -0.2834 -0.8025
 9183SOL    HW239609   3.035   2.279   6.776  0.5331  0.1632 -0.8416
 9184SOL     OW39610   6.620   9.593   3.767  0.2241 -0.6973  0.0324
 9184SOL    HW139611   6.706   9.643   3.752  1.2222 -1.8480  1.7095
 9184SOL    HW239612   6.629   9.500   3.731  0.7352 -1.7437  2.7413
 9185SOL     OW39613   0.433   5.630   4.021  0.2123  0.4045  0.4016
 9185SOL    HW139614   0.508   5.688   4.052 -0.1349  1.0499  0.0240
 9185SOL    HW239615   0.380   5.677   3.951 -0.3108 -0.2080  0.3767
 9186SOL     OW39616   8.551   7.036   3.824  0.6441  0.6368  1.1686
 9186SOL    HW139617   8.539   7.076   3.733 -1.1544 -0.1890  1.0189
 9186SOL    HW239618   8.647   7.011   3.837  0.9861  1.1015 -0.3571
 9187SOL     OW39619   0.166   6.196   2.913 -0.0040  0.6561  0.3966
 9187SOL    HW139620   0.180   6.250   2.830 -0.6521 -1.9313 -1.4873
 9187SOL    HW239621   0.248   6.142   2.932 -1.9165 -3.3857 -2.1829
 9188SOL     OW39622   2.953   8.147   8.671 -0.4864  0.4374  0.3238
 9188SOL    HW139623   2.977   8.237   8.634  1.6246 -0.3116 -0.1687
 9188SOL    HW239624   3.026   8.114   8.730 -0.8245 -1.3746 -0.2379
 9189SOL     OW39625   0.915   3.180   1.709 -0.1786 -0.3776  0.0342
 9189SOL    HW139626   0.956   3.089   1.709  0.6544 -0.0119 -1.6691
 9189SOL    HW239627   0.986   3.248   1.728 -0.3059  0.1181 -1.2422
 9190SOL     OW39628   4.221   6.362   5.834  0.2170 -0.5965 -0.1021
 9190SOL    HW139629   4.289   6.303   5.790  1.5316 -0.9108  2.2317
 9190SOL    HW239630   4.184   6.315   5.914 -0.4572  0.8173  0.4273
 9191SOL     OW39631   9.239   8.074   6.804 -0.0043 -0.8643 -0.9385
 9191SOL    HW139632   9.152   8.070   6.854  0.7312 -0.2931  0.4255
 9191SOL    HW239633   9.224   8.115   6.714 -1.0649 -0.3450 -0.5305
 9192SOL     OW39634   3.353   7.632   6.215  0.0974  0.7461 -0.3195
 9192SOL    HW139635   3.326   7.540   6.185  1.6043  0.0526  0.4363
 9192SOL    HW239636   3.287   7.664   6.283  0.8971 -0.7857  1.2286
 9193SOL     OW39637   0.762   5.605   5.446  0.1391 -0.3221 -0.1119
 9193SOL    HW139638   0.686   5.648   5.398  0.5573  0.8128  0.2425
 9193SOL    HW239639   0.847   5.623   5.398  0.1717 -1.7775 -0.6303
 9194SOL     OW39640   1.462   4.119   2.142  0.2789  0.4464 -0.1743
 9194SOL    HW139641   1.448   4.034   2.091 -0.6823 -0.1489  1.0673
 9194SOL    HW239642   1.374   4.157   2.170  0.7466  1.3202  0.1283
 9195SOL     OW39643   4.952   0.263   6.669 -0.7548  0.1053 -0.1149
 9195SOL    HW139644   4.967   0.197   6.595 -1.4777  0.3577 -0.4910
 9195SOL    HW239645   4.887   0.332   6.638  0.0609  1.0377  0.2567
 9196SOL     OW39646   6.327   5.547   5.514 -0.3704  0.4997 -0.1255
 9196SOL    HW139647   6.277   5.464   5.539 -0.6516  1.0594  1.2130
 9196SOL    HW239648   6.325   5.611   5.591  0.3958  1.4829 -0.9198
 9197SOL     OW39649   2.290   9.510   0.873 -0.5429  0.0298  0.1638
 9197SOL    HW139650   2.362   9.580   0.877 -1.9783  1.5654 -0.2070
 9197SOL    HW239651   2.216   9.535   0.935 -0.7957 -1.5184  0.5038
 9198SOL     OW39652   0.785   7.046   3.040 -0.0548  0.2595  0.0005
 9198SOL    HW139653   0.735   7.097   2.970 -1.1679  0.1253  0.6764
 9198SOL    HW239654   0.732   7.046   3.125  0.7316 -0.5612  0.5003
 9199SOL     OW39655   6.760   6.522   7.475 -0.1834  0.4516  0.0763
 9199SOL    HW139656   6.736   6.572   7.558 -1.1710 -0.4690  0.3534
 9199SOL    HW239657   6.676   6.494   7.428  0.3652 -0.7765 -0.1737
 9200SOL     OW39658   3.412   9.775   7.967 -0.2121  0.2011  0.2349
 9200SOL    HW139659   3.500   9.752   7.926 -0.9786 -1.2553 -0.6522
 9200SOL    HW239660   3.395   9.715   8.046 -1.2149 -0.7788 -0.7119
 9201SOL     OW39661   4.491   8.996   5.881  0.0914 -0.0943  0.0145
 9201SOL    HW139662   4.412   9.054   5.860  0.8019  0.6749 -0.5662
 9201SOL    HW239663   4.463   8.900   5.879 -0.7884  0.1601 -0.4070
 9202SOL     OW39664   4.284   3.045   1.975  0.0368  0.0452 -0.3298
 9202SOL    HW139665   4.302   2.981   2.050 -0.2785  2.7034  2.1138
 9202SOL    HW239666   4.186   3.062   1.969  0.1159  0.2786 -0.9709
 9203SOL     OW39667   0.533   2.629   9.635  0.6910  0.9154  0.4253
 9203SOL    HW139668   0.480   2.708   9.603  2.3503  1.7649 -0.2911
 9203SOL    HW239669   0.565   2.647   9.728  0.4227  0.7619  0.5462
 9204SOL     OW39670   2.772   7.598   1.338 -0.3345  0.2822 -0.0004
 9204SOL    HW139671   2.736   7.690   1.325  0.2056  0.5100  0.1349
 9204SOL    HW239672   2.871   7.598   1.328 -0.2545 -0.1453  0.7393
 9205SOL     OW39673   2.147   3.007   5.172  0.1430  0.1276 -0.0573
 9205SOL    HW139674   2.136   2.913   5.204 -1.2559  0.7288  1.3092
 9205SOL    HW239675   2.121   3.070   5.245  2.2368  1.6024 -0.5274
 9206SOL     OW39676   8.239   7.064   6.819  0.1967 -0.3399 -0.4040
 9206SOL    HW139677   8.279   7.155   6.830  0.2984 -0.2572 -1.3799
 9206SOL    HW239678   8.288   6.999   6.877  1.1826 -0.0717 -0.9176
 9207SOL     OW39679   1.610   6.576   6.602  0.1682 -0.1522 -0.3490
 9207SOL    HW139680   1.534   6.526   6.644 -1.6130 -0.9889 -4.3795
 9207SOL    HW239681   1.683   6.512   6.578 -0.2942 -0.2248 -1.6069
 9208SOL     OW39682   1.110   5.561   6.851  0.2900 -0.3023  0.4948
 9208SOL    HW139683   1.017   5.595   6.844  0.4875  0.0535 -0.5669
 9208SOL    HW239684   1.132   5.542   6.947 -0.7749 -0.1389  0.7766
 9209SOL     OW39685   2.884   1.867   2.878  0.3939 -0.0450  0.0265
 9209SOL    HW139686   2.932   1.808   2.813  0.5919 -1.5910  1.5352
 9209SOL    HW239687   2.872   1.818   2.965  0.7048  2.1941  1.3741
 9210SOL     OW39688   4.279   6.906   4.302 -0.3350  0.0859  0.4220
 9210SOL    HW139689   4.203   6.858   4.260  0.1938 -0.0249 -0.4166
 9210SOL    HW239690   4.363   6.854   4.289 -0.2752 -0.3375  2.2873
 9211SOL     OW39691   1.229   2.148   8.036 -0.0294 -0.0531  0.0728
 9211SOL    HW139692   1.205   2.131   8.131  2.5067  0.3250  0.8067
 9211SOL    HW239693   1.191   2.236   8.006 -1.3427 -0.4563  0.5229
 9212SOL     OW39694   3.179   7.361   4.163  0.0699 -0.2630  0.1641
 9212SOL    HW139695   3.276   7.375   4.180  0.2994 -0.2772 -1.0862
 9212SOL    HW239696   3.142   7.294   4.227  0.5540  0.8314  1.6009
 9213SOL     OW39697   3.936   7.115   0.890 -0.1805  0.6054 -0.1159
 9213SOL    HW139698   3.942   7.098   0.988 -1.6613 -0.7147 -0.2318
 9213SOL    HW239699   4.025   7.098   0.848  0.0694 -0.3996  0.7768
 9214SOL     OW39700   0.088   1.002   5.307  0.6953 -0.0925 -0.1336
 9214SOL    HW139701   0.147   0.927   5.336 -2.0091 -3.9136 -3.8759
 9214SOL    HW239702   0.110   1.029   5.214 -1.5178  0.4163 -0.5459
 9215SOL     OW39703   1.749   4.054   8.803 -0.1632  0.1570  0.3909
 9215SOL    HW139704   1.836   4.067   8.755  1.3870  0.6130  3.2642
 9215SOL    HW239705   1.752   3.969   8.855 -2.1404 -0.7302 -0.8730
 9216SOL     OW39706   1.694   2.654   4.912 -0.4508 -0.1898  0.0925
 9216SOL    HW139707   1.597   2.629   4.915 -0.6295  0.4263 -0.5190
 9216SOL    HW239708   1.731   2.633   4.822 -0.0997 -0.0969  0.2150
 9217SOL     OW39709   5.178   5.594   0.798  0.8729 -0.1213 -0.4218
 9217SOL    HW139710   5.168   5.516   0.861  0.6208 -0.4484 -0.8676
 9217SOL    HW239711   5.144   5.569   0.708  0.5383  0.6015 -0.4981
 9218SOL     OW39712   1.179   8.255   1.889  0.3831  0.5168  0.0958
 9218SOL    HW139713   1.178   8.207   1.977 -0.2995  1.4684  0.6255
 9218SOL    HW239714   1.103   8.321   1.887  0.2706  0.3475 -1.2931
 9219SOL     OW39715   9.793   9.809   6.171  0.2587 -0.0884 -0.7237
 9219SOL    HW139716   9.706   9.761   6.185  0.8447 -1.2215 -0.9146
 9219SOL    HW239717   9.862   9.744   6.140  0.9638  0.9672 -1.3722
 9220SOL     OW39718   3.533   9.868   0.926  0.2955 -0.4501 -0.0181
 9220SOL    HW139719   3.588   9.796   0.886 -1.1717 -0.9484 -1.2265
 9220SOL    HW239720   3.586   9.918   0.995  2.0063 -1.2957 -0.7049
 9221SOL     OW39721   3.255   8.486   1.582  0.2579  0.4589  0.2273
 9221SOL    HW139722   3.246   8.412   1.648 -0.4222  0.6846  0.3944
 9221SOL    HW239723   3.322   8.461   1.512  0.6876  0.0540  0.7750
 9222SOL     OW39724   9.169   5.755   3.306 -0.1393 -0.2684 -0.4460
 9222SOL    HW139725   9.195   5.840   3.263  0.5819 -0.6968 -0.8510
 9222SOL    HW239726   9.242   5.723   3.366 -0.8994  0.0298  0.6726
 9223SOL     OW39727   1.782   9.581   5.025 -0.1985  0.3226 -0.0246
 9223SOL    HW139728   1.712   9.580   4.954  0.3302  2.0039 -0.5814
 9223SOL    HW239729   1.740   9.596   5.115 -0.7014 -0.2323 -0.1666
 9224SOL     OW39730   9.589   7.601   2.433 -0.4523 -0.3934  0.7949
 9224SOL    HW139731   9.536   7.561   2.358  0.2326 -0.6521  0.4448
 9224SOL    HW239732   9.539   7.589   2.519 -0.0164 -2.4494  0.7689
 9225SOL     OW39733   6.258   6.628   1.051 -0.1691 -0.1107  0.7055
 9225SOL    HW139734   6.296   6.717   1.025  2.0826 -1.9048 -2.6130
 9225SOL    HW239735   6.318   6.585   1.119  0.9406 -0.6878 -0.6012
 9226SOL     OW39736   8.187   4.522   0.458  0.1151  0.3523  0.0493
 9226SOL    HW139737   8.185   4.446   0.523 -0.0890  0.1235 -0.2251
 9226SOL    HW239738   8.191   4.609   0.509  2.6109  0.1062  0.3447
 9227SOL     OW39739   5.747   5.020   5.903  0.2212 -0.1257  0.5202
 9227SOL    HW139740   5.823   5.084   5.917  0.6127 -0.5679  0.4260
 9227SOL    HW239741   5.696   5.046   5.822 -0.3915  0.8226  1.1995
 9228SOL     OW39742   1.631   2.451   6.419  0.4336 -0.1511 -0.1595
 9228SOL    HW139743   1.539   2.414   6.429  0.7140 -1.5307 -2.4092
 9228SOL    HW239744   1.697   2.392   6.465  0.1350  1.3725  2.3316
 9229SOL     OW39745   4.789   6.295   4.572  0.4818  0.5742 -0.1124
 9229SOL    HW139746   4.693   6.299   4.602 -0.4923 -1.6334 -2.6550
 9229SOL    HW239747   4.807   6.370   4.508 -1.0477 -1.7544 -3.4194
 9230SOL     OW39748   3.360   7.303   4.541  0.0520 -0.3392 -0.4585
 9230SOL    HW139749   3.315   7.390   4.523 -0.0007 -0.5169 -1.2376
 9230SOL    HW239750   3.291   7.230   4.544  0.0940 -0.3474  0.1919
 9231SOL     OW39751   1.910   4.299   5.134 -0.3708  0.6969  0.1668
 9231SOL    HW139752   1.815   4.279   5.108 -0.6253  2.0689  0.0070
 9231SOL    HW239753   1.968   4.222   5.109 -1.1395  0.6361 -1.4813
 9232SOL     OW39754   3.607   6.471   3.115 -0.3627  0.3722  0.0819
 9232SOL    HW139755   3.620   6.381   3.073 -0.4838  1.7524 -3.0699
 9232SOL    HW239756   3.687   6.494   3.170 -0.8702 -2.1550  1.9711
 9233SOL     OW39757   0.632   6.323   6.037  0.2796 -0.9025  0.5575
 9233SOL    HW139758   0.661   6.284   6.125 -0.8222  0.9637  1.7685
 9233SOL    HW239759   0.688   6.402   6.015 -0.6177 -0.2955  0.4399
 9234SOL     OW39760   9.861   6.287   0.158  0.6276  0.2271  0.0097
 9234SOL    HW139761   9.795   6.213   0.165  0.9130  0.1682  2.7483
 9234SOL    HW239762   9.818   6.367   0.116 -1.1146  0.1086  1.5292
 9235SOL     OW39763   6.817   6.817   3.673 -0.5717  0.2719 -0.2095
 9235SOL    HW139764   6.858   6.740   3.624 -0.3960  0.9039 -1.0712
 9235SOL    HW239765   6.775   6.784   3.758  1.0596 -0.5179  0.3265
 9236SOL     OW39766   1.840   6.780   7.065  0.4775  0.5790 -0.6274
 9236SOL    HW139767   1.917   6.724   7.092  0.5486  0.8258 -0.3173
 9236SOL    HW239768   1.813   6.757   6.971  0.2054 -0.2935 -0.3331
 9237SOL     OW39769   3.787   6.389   5.581  0.2972 -0.0187  0.2578
 9237SOL    HW139770   3.762   6.485   5.571  1.0519  0.1739  0.2499
 9237SOL    HW239771   3.752   6.337   5.502 -0.5054  0.1657  0.4889
 9238SOL     OW39772   2.759   2.503   1.027 -0.3109  0.4356 -0.3066
 9238SOL    HW139773   2.856   2.516   1.008 -0.3346 -1.7320 -2.0680
 9238SOL    HW239774   2.709   2.489   0.941 -2.0713  0.8685  0.6240
 9239SOL     OW39775   3.694   9.640   5.189  0.3007  0.8173 -0.7115
 9239SOL    HW139776   3.596   9.630   5.172  0.0578  1.8283  0.0292
 9239SOL    HW239777   3.737   9.549   5.192 -0.4120  0.4287 -2.1273
 9240SOL     OW39778   0.687   0.876   6.231  0.4743 -0.4027  0.0526
 9240SOL    HW139779   0.721   0.870   6.137  0.1487 -1.9407  0.0155
 9240SOL    HW239780   0.761   0.852   6.294 -0.2616 -3.0355  0.0014
 9241SOL     OW39781   0.882   4.593   5.754 -0.4752  0.0821 -0.9604
 9241SOL    HW139782   0.939   4.590   5.836 -1.8870  3.2961  0.1755
 9241SOL    HW239783   0.915   4.524   5.689  2.6968 -0.2910  0.9443
 9242SOL     OW39784   8.456   4.549   3.932 -0.2001  0.3447 -0.6753
 9242SOL    HW139785   8.391   4.525   4.004 -1.8964 -0.4293 -2.4018
 9242SOL    HW239786   8.512   4.626   3.962 -0.8773  0.0399  1.4517
 9243SOL     OW39787   5.001   8.099   4.565 -0.6165  0.1599 -0.3669
 9243SOL    HW139788   4.955   8.023   4.611  0.1153 -0.6595 -0.9938
 9243SOL    HW239789   4.941   8.135   4.494 -0.2682 -0.9599 -1.2349
 9244SOL     OW39790   3.484   2.399   6.620  0.2750  0.0047 -0.0808
 9244SOL    HW139791   3.452   2.362   6.707  0.3686  1.2506  0.4876
 9244SOL    HW239792   3.551   2.336   6.580  1.3471  0.1475  1.4654
 9245SOL     OW39793   5.433   5.595   2.044  0.0414 -0.1110  0.1597
 9245SOL    HW139794   5.353   5.629   1.993 -0.4882  2.5304  2.5932
 9245SOL    HW239795   5.419   5.499   2.068 -1.9532  0.0241 -0.3293
 9246SOL     OW39796   9.759   7.137   2.072  0.2093  0.1287  0.3844
 9246SOL    HW139797   9.676   7.101   2.116 -0.4878  2.0059  0.6303
 9246SOL    HW239798   9.837   7.124   2.133 -0.0485 -0.9035  0.5036
 9247SOL     OW39799   4.833   6.708   3.910 -0.2855 -0.0518 -0.3794
 9247SOL    HW139800   4.898   6.656   3.855 -0.2194  0.4345 -0.7676
 9247SOL    HW239801   4.777   6.765   3.850 -0.4623  0.2052  0.0279
 9248SOL     OW39802   3.283   7.707   0.452 -0.0028 -0.3773  0.1822
 9248SOL    HW139803   3.270   7.683   0.356 -2.7715 -1.0507  0.6805
 9248SOL    HW239804   3.351   7.646   0.493  0.9053 -0.3285 -1.2333
 9249SOL     OW39805   1.741   8.434   1.374  0.4343 -0.0325 -0.0103
 9249SOL    HW139806   1.651   8.446   1.417  0.0791  0.3508 -0.8442
 9249SOL    HW239807   1.813   8.451   1.441 -0.1154 -0.5390  0.7198
 9250SOL     OW39808   4.395   0.198   6.420 -0.1901  0.0646  0.0620
 9250SOL    HW139809   4.354   0.185   6.510 -0.0072 -0.2903  0.0958
 9250SOL    HW239810   4.327   0.177   6.349  0.5746 -2.7661  0.1044
 9251SOL     OW39811   3.560   6.085   9.096  0.5622  0.0610  0.3728
 9251SOL    HW139812   3.581   6.173   9.139 -0.0526 -0.3199  1.4983
 9251SOL    HW239813   3.622   6.015   9.133  1.9026  0.2434 -1.4610
 9252SOL     OW39814   2.762   7.403   2.463  0.3232 -0.2680 -0.2753
 9252SOL    HW139815   2.752   7.447   2.374  2.2253  1.7700  0.4672
 9252SOL    HW239816   2.813   7.463   2.525 -2.4355 -0.8908  2.7526
 9253SOL     OW39817   6.596   8.094   3.261  0.3217  0.4087  0.6980
 9253SOL    HW139818   6.655   8.069   3.184 -0.6103  1.2099 -0.2824
 9253SOL    HW239819   6.552   8.012   3.297 -1.5269  0.3812 -1.5093
 9254SOL     OW39820   9.879   1.840   7.865 -0.5317 -0.0483  0.1266
 9254SOL    HW139821   9.883   1.761   7.925 -0.7761 -0.1958 -0.0497
 9254SOL    HW239822   9.875   1.924   7.920 -0.2407 -0.1549  0.3113
 9255SOL     OW39823   5.375   4.905   3.068 -0.1478 -0.5946  0.4689
 9255SOL    HW139824   5.431   4.825   3.048  1.4816  0.4830  0.5682
 9255SOL    HW239825   5.348   4.904   3.164  1.7461  0.0687  1.0354
 9256SOL     OW39826   3.743   9.773   6.611 -0.0680  0.0630  0.7791
 9256SOL    HW139827   3.687   9.720   6.546  0.3159  1.1205 -0.4281
 9256SOL    HW239828   3.683   9.820   6.675 -0.5377  0.5954 -0.0449
 9257SOL     OW39829   1.566   7.251   3.556  0.0068  0.2203  0.1828
 9257SOL    HW139830   1.604   7.163   3.585 -1.8785 -0.7975 -0.3049
 9257SOL    HW239831   1.634   7.300   3.502  0.8582 -1.2353 -0.1164
 9258SOL     OW39832   4.082   2.659   9.036  0.1092  0.0303 -0.3714
 9258SOL    HW139833   4.067   2.750   8.997 -3.0905 -0.8093 -1.3210
 9258SOL    HW239834   4.073   2.591   8.963 -0.2721 -1.2024  0.8142
 9259SOL     OW39835   3.569   4.413   7.834  0.3662 -0.7026  0.2452
 9259SOL    HW139836   3.651   4.469   7.823  1.6237 -2.8082 -1.4709
 9259SOL    HW239837   3.558   4.389   7.930  2.1417 -0.9537  0.3983
 9260SOL     OW39838   5.318   7.315   5.011 -0.3336 -0.0792  0.1375
 9260SOL    HW139839   5.254   7.283   4.940  0.3684  1.3517 -1.1884
 9260SOL    HW239840   5.363   7.236   5.053 -2.5051 -1.0892  0.6893
 9261SOL     OW39841   2.483   3.005   1.777 -0.0357  0.3495  0.1888
 9261SOL    HW139842   2.407   2.961   1.730 -0.0382  1.2490 -0.6732
 9261SOL    HW239843   2.566   2.995   1.722  0.3765 -0.2461  0.9131
 9262SOL     OW39844   4.160   7.923   2.671 -0.2206  0.1986  0.0806
 9262SOL    HW139845   4.071   7.967   2.657  0.5221  1.5063 -0.6708
 9262SOL    HW239846   4.148   7.825   2.681 -1.6061  0.1789 -1.6035
 9263SOL     OW39847   8.265   4.105   9.773 -0.1768 -0.3276 -0.7344
 9263SOL    HW139848   8.209   4.021   9.775 -0.6990  0.0306  0.0937
 9263SOL    HW239849   8.242   4.158   9.692 -0.4152 -0.6042 -0.8509
 9264SOL     OW39850   5.596   4.566   7.794  0.1738  1.0511 -1.0433
 9264SOL    HW139851   5.673   4.504   7.809 -2.7796 -2.8278 -1.1063
 9264SOL    HW239852   5.618   4.656   7.832  4.4716 -0.0948 -0.5587
 9265SOL     OW39853   1.619   5.576   1.052 -0.0917 -0.7909 -0.3485
 9265SOL    HW139854   1.590   5.606   1.143  0.7272  1.0432 -0.6749
 9265SOL    HW239855   1.542   5.532   1.005 -1.1382  0.2262  0.3882
 9266SOL     OW39856   2.660   7.020   4.280  0.6678 -0.5566 -0.8465
 9266SOL    HW139857   2.695   6.927   4.262 -0.1037 -0.9653 -0.2622
 9266SOL    HW239858   2.653   7.033   4.379  2.7908  0.8906 -0.8500
 9267SOL     OW39859   9.888   7.749   1.598 -0.2099 -0.2793 -0.0542
 9267SOL    HW139860   9.921   7.701   1.679  0.7396  0.2390 -0.1278
 9267SOL    HW239861   9.962   7.804   1.559 -0.4017 -1.1677 -1.7515
 9268SOL     OW39862   5.444   0.600   0.872 -0.3463  0.5249 -0.3652
 9268SOL    HW139863   5.417   0.667   0.804 -0.0179  1.5212  0.4794
 9268SOL    HW239864   5.531   0.558   0.846 -1.8112 -1.4559 -2.2109
 9269SOL     OW39865   2.513   5.415   9.908 -0.4790 -0.0219 -0.1299
 9269SOL    HW139866   2.434   5.469   9.937 -0.6272 -0.4310  0.2404
 9269SOL    HW239867   2.516   5.410   9.808 -2.3735 -2.1064 -0.1232
 9270SOL     OW39868   7.310   7.316   2.861 -0.2226  0.0527  0.4860
 9270SOL    HW139869   7.237   7.256   2.827  1.1641 -0.6797 -1.2490
 9270SOL    HW239870   7.357   7.271   2.937 -2.3620  1.0640  2.4607
 9271SOL     OW39871   7.631   1.290   6.218  0.7606  0.4357 -0.1416
 9271SOL    HW139872   7.598   1.196   6.203  0.1376  0.2744  2.0436
 9271SOL    HW239873   7.724   1.298   6.184  0.9286 -1.0804 -0.0840
 9272SOL     OW39874   1.385   7.799   3.361  0.0869  0.1487 -0.2984
 9272SOL    HW139875   1.366   7.806   3.263 -2.5807  1.0296  0.2366
 9272SOL    HW239876   1.417   7.888   3.396 -2.7551  0.9737  0.3382
 9273SOL     OW39877   4.897   5.115   6.516 -0.5184  0.4508  0.4580
 9273SOL    HW139878   4.812   5.063   6.527 -0.0307  0.0303  2.5803
 9273SOL    HW239879   4.975   5.056   6.534  0.2058  1.0260 -0.7358
 9274SOL     OW39880   9.942   6.782   6.885  0.0646 -0.7424 -0.1096
 9274SOL    HW139881   9.956   6.806   6.981  0.1540 -0.7031 -0.1329
 9274SOL    HW239882   9.893   6.694   6.879 -2.2809  0.5082 -0.0009
 9275SOL     OW39883   2.117   8.176   2.030 -0.3064 -0.1095 -0.1586
 9275SOL    HW139884   2.188   8.177   1.959  0.7957  2.6181  0.9161
 9275SOL    HW239885   2.155   8.141   2.115 -0.4057  0.7402  0.2421
 9276SOL     OW39886   1.740   5.283   1.608  0.4436 -0.0127 -0.1407
 9276SOL    HW139887   1.823   5.266   1.661  0.2630  1.7722  0.7229
 9276SOL    HW239888   1.763   5.337   1.527  0.3256 -0.6812 -0.6294
 9277SOL     OW39889   0.765   5.284   5.119 -0.2860  0.0204  0.2695
 9277SOL    HW139890   0.763   5.222   5.041 -1.3207  0.4802 -0.0868
 9277SOL    HW239891   0.853   5.332   5.121  0.1978 -0.8508  0.0732
 9278SOL     OW39892   6.236   2.688   9.263  0.6269  0.0455 -0.0640
 9278SOL    HW139893   6.166   2.640   9.315 -0.8150  0.9941 -1.1214
 9278SOL    HW239894   6.196   2.730   9.182  2.5222  0.1276 -0.9898
 9279SOL     OW39895   8.636   6.362   3.115 -0.4984 -0.1663  0.5282
 9279SOL    HW139896   8.663   6.421   3.038 -0.4680  0.9494  1.3786
 9279SOL    HW239897   8.566   6.298   3.085  0.5173 -0.6838 -0.7968
 9280SOL     OW39898   2.951   5.851   7.657  0.0413 -0.0692  0.3739
 9280SOL    HW139899   2.905   5.878   7.573 -0.0644  2.9369  1.3233
 9280SOL    HW239900   2.911   5.900   7.735  3.4553  1.1185  1.4891
 9281SOL     OW39901   9.755   5.661   7.369  0.3209  0.4726 -0.4610
 9281SOL    HW139902   9.711   5.655   7.459  0.4958 -0.6558 -0.4441
 9281SOL    HW239903   9.714   5.594   7.308  2.4780 -1.0848 -0.2375
 9282SOL     OW39904   5.591   7.880   6.338  0.2893 -0.0002  0.0335
 9282SOL    HW139905   5.546   7.857   6.424 -0.3097  1.6674  0.1769
 9282SOL    HW239906   5.545   7.957   6.295  0.3843 -1.0189 -1.9642
 9283SOL     OW39907   9.344   0.630   2.154  0.0548 -0.3498 -0.2075
 9283SOL    HW139908   9.307   0.538   2.141 -3.0039  0.7972 -0.0657
 9283SOL    HW239909   9.292   0.695   2.099  0.6989  1.5919  1.4259
 9284SOL     OW39910   1.836   7.043   3.417  0.0137 -0.0052 -0.2133
 9284SOL    HW139911   1.865   7.121   3.362  0.0431  0.3706  0.3292
 9284SOL    HW239912   1.852   7.062   3.514 -0.0140 -0.6699 -0.0733
 9285SOL     OW39913   6.391   9.081   3.265 -0.8046 -0.2927  0.3221
 9285SOL    HW139914   6.439   9.089   3.353  0.0308  1.2319 -0.2593
 9285SOL    HW239915   6.436   9.013   3.208 -1.0184 -0.8869  0.8548
 9286SOL     OW39916   2.073   7.716   4.275  0.1239 -0.5428 -0.0719
 9286SOL    HW139917   2.153   7.749   4.326 -0.1208  0.4172 -0.3057
 9286SOL    HW239918   1.992   7.765   4.305 -0.0969 -0.2849 -1.0647
 9287SOL     OW39919   3.146   4.873   6.090  0.1291  0.1040 -0.0830
 9287SOL    HW139920   3.124   4.953   6.035 -1.1236 -0.2900 -0.1588
 9287SOL    HW239921   3.073   4.856   6.156  1.1914  0.0384  1.1075
 9288SOL     OW39922   1.671   9.131   1.467 -0.0696 -0.3999 -0.3529
 9288SOL    HW139923   1.742   9.059   1.468 -0.9372 -1.2724 -1.0485
 9288SOL    HW239924   1.581   9.089   1.461 -0.6130  0.7502 -0.3871
 9289SOL     OW39925   0.880   6.516   6.619 -0.2028  0.3598  0.0897
 9289SOL    HW139926   0.908   6.606   6.650 -1.7202  0.9912 -0.3157
 9289SOL    HW239927   0.885   6.511   6.519 -0.9504  0.3012  0.0488
 9290SOL     OW39928   2.893   7.806   5.462  0.4385  0.8162 -0.7371
 9290SOL    HW139929   2.953   7.777   5.537  1.2570  3.0403 -0.4880
 9290SOL    HW239930   2.833   7.731   5.437  1.5424 -0.6245  0.7874
 9291SOL     OW39931   9.292   7.900   5.206 -0.1380  0.2800  0.4003
 9291SOL    HW139932   9.316   7.929   5.298 -0.8417 -0.8319  0.9408
 9291SOL    HW239933   9.219   7.831   5.210 -0.1782  0.2196 -0.9787
 9292SOL     OW39934   9.834   6.417   5.134  0.1498  0.2455 -0.2003
 9292SOL    HW139935   9.879   6.432   5.046 -0.5572 -0.0032 -0.6126
 9292SOL    HW239936   9.753   6.360   5.121 -0.7276  1.3176  0.4076
 9293SOL     OW39937   1.542   4.905   6.807  0.0941 -0.1681 -0.0533
 9293SOL    HW139938   1.523   4.881   6.712  3.3128 -0.7055 -0.5990
 9293SOL    HW239939   1.485   4.983   6.834  1.0894  1.7582 -3.2930
 9294SOL     OW39940   8.537   5.460   4.491 -0.8988 -0.2371 -0.5617
 9294SOL    HW139941   8.554   5.489   4.585  0.5299 -2.8877  0.0585
 9294SOL    HW239942   8.439   5.463   4.472 -1.4331 -1.7486  1.7520
 9295SOL     OW39943   1.788   3.660   4.021  0.4684 -0.5243 -0.3179
 9295SOL    HW139944   1.861   3.650   4.087 -0.5894  1.5565  1.2382
 9295SOL    HW239945   1.821   3.710   3.941  0.5638  1.1707  0.7585
 9296SOL     OW39946   5.451   7.584   4.709  0.1183  0.1479  0.2426
 9296SOL    HW139947   5.533   7.534   4.738 -0.6390  0.0601  2.2396
 9296SOL    HW239948   5.433   7.659   4.772 -1.7780 -0.2828  0.2264
 9297SOL     OW39949   0.504   9.210   7.375  0.0035  0.0439 -0.1007
 9297SOL    HW139950   0.541   9.301   7.398  1.4066 -0.3443 -0.7374
 9297SOL    HW239951   0.566   9.140   7.409  0.0115 -0.6257 -1.4678
 9298SOL     OW39952   1.290   8.254   1.350  0.0611 -1.3279  0.1349
 9298SOL    HW139953   1.215   8.298   1.400 -0.0930 -0.6887 -0.6553
 9298SOL    HW239954   1.373   8.309   1.360  0.0089 -1.1564 -0.3881
 9299SOL     OW39955   9.126   5.825   8.307  1.0128  0.1284  0.1587
 9299SOL    HW139956   9.046   5.801   8.361  0.1373  1.1987 -0.6294
 9299SOL    HW239957   9.133   5.925   8.301  2.6310  0.0478  0.5533
 9300SOL     OW39958   5.475   8.133   7.603 -0.0105 -0.1364  0.3007
 9300SOL    HW139959   5.418   8.189   7.663  2.1839 -0.6230  2.9263
 9300SOL    HW239960   5.499   8.048   7.649  1.2198 -0.8246 -1.5362
 9301SOL     OW39961   5.322   9.367   6.927  0.1587  0.4887  0.0365
 9301SOL    HW139962   5.373   9.360   7.012  0.3241 -0.3513 -0.1301
 9301SOL    HW239963   5.356   9.300   6.861 -3.0495 -2.2207  0.9312
 9302SOL     OW39964   7.588   0.629   2.130 -0.3539  0.1395 -0.1807
 9302SOL    HW139965   7.609   0.562   2.059  0.8337 -1.7358  1.8757
 9302SOL    HW239966   7.497   0.610   2.169  0.0115 -0.3267  0.4495
 9303SOL     OW39967   9.648   9.837   2.276  0.3387 -0.1936  0.3392
 9303SOL    HW139968   9.624   9.895   2.198  1.9313  0.8346  0.5874
 9303SOL    HW239969   9.635   9.888   2.361 -1.3154 -1.2846  0.7593
 9304SOL     OW39970   2.573   4.621   1.422 -0.0822 -0.7649  0.1825
 9304SOL    HW139971   2.566   4.536   1.475 -1.8899 -1.0697 -0.5244
 9304SOL    HW239972   2.555   4.699   1.482  2.5255 -0.7747  1.0546
 9305SOL     OW39973   5.002   5.022   3.453 -0.7564 -0.2341  0.1478
 9305SOL    HW139974   5.019   4.924   3.464  0.8759 -0.2132 -1.9205
 9305SOL    HW239975   4.985   5.063   3.543  0.3890 -2.0784  1.2406
 9306SOL     OW39976   6.134   5.927   4.747 -0.5104  0.1155 -0.2541
 9306SOL    HW139977   6.146   5.947   4.650  1.3152  0.3856  0.0285
 9306SOL    HW239978   6.182   5.842   4.770  1.7417  1.7149  1.0798
 9307SOL     OW39979   2.510   3.865   1.400  0.6601  0.5741  0.6429
 9307SOL    HW139980   2.490   3.796   1.330  0.4350  1.3934 -0.1101
 9307SOL    HW239981   2.498   3.825   1.491  1.2663 -0.5961  0.2200
 9308SOL     OW39982   2.240   7.733   5.824  0.1774 -0.1857 -0.4194
 9308SOL    HW139983   2.226   7.638   5.795  0.6487 -0.4116  0.0864
 9308SOL    HW239984   2.279   7.734   5.916 -0.4220  0.5094 -0.1662
 9309SOL     OW39985   3.482   8.236   5.016 -0.0005  0.0231 -0.4958
 9309SOL    HW139986   3.446   8.302   5.082  0.8608  0.6702 -0.6707
 9309SOL    HW239987   3.571   8.266   4.983 -0.0619 -0.7036 -1.3593
 9310SOL     OW39988   2.424   7.084   3.633  0.7995 -0.1824 -0.4968
 9310SOL    HW139989   2.399   7.173   3.594  0.0780 -0.6634 -1.1272
 9310SOL    HW239990   2.427   7.015   3.561 -0.2112 -1.0067  0.2276
 9311SOL     OW39991   4.375   8.364   3.609 -0.4889 -0.4721 -0.0181
 9311SOL    HW139992   4.403   8.349   3.704 -0.8129  0.0937  0.1657
 9311SOL    HW239993   4.281   8.399   3.606  0.6458  2.6711 -0.3789
 9312SOL     OW39994   3.555   3.707   6.680  0.3157  0.2715 -0.0146
 9312SOL    HW139995   3.526   3.684   6.773 -0.2187  0.0728 -0.2302
 9312SOL    HW239996   3.654   3.722   6.679  0.1226  1.6679  0.8622
 9313SOL     OW39997   8.210   8.089   4.067 -0.2584  0.5409 -0.0099
 9313SOL    HW139998   8.133   8.075   4.006 -0.7169  2.0571  0.1837
 9313SOL    HW239999   8.286   8.029   4.041 -1.6481 -1.2907  0.0753
 9314SOL     OW40000   1.085   0.940   7.676  0.3836 -0.1041 -0.1902
 9314SOL    HW140001   1.181   0.924   7.653  0.6938  0.6315  0.6032
 9314SOL    HW240002   1.048   0.858   7.719  1.1112  0.1777  0.9933
 9315SOL     OW40003   4.484   6.719   3.639 -0.2717 -0.5937  0.1375
 9315SOL    HW140004   4.421   6.711   3.716 -0.3911 -0.5868  0.0422
 9315SOL    HW240005   4.564   6.771   3.667 -0.6925  0.1190  0.0283
 9316SOL     OW40006   7.356   5.554   9.815  0.2248  0.3421  0.0906
 9316SOL    HW140007   7.261   5.551   9.784  0.6210  0.2473 -1.1393
 9316SOL    HW240008   7.403   5.470   9.787  1.0209  0.9707 -0.4964
 9317SOL     OW40009   1.057   9.662   4.115  0.1678  0.2283 -0.9070
 9317SOL    HW140010   1.043   9.733   4.045 -1.4863 -0.2040 -1.0421
 9317SOL    HW240011   0.982   9.666   4.181 -0.3241 -1.8214 -1.3058
 9318SOL     OW40012   9.220   8.841   3.170  0.2725  0.2294  0.1480
 9318SOL    HW140013   9.185   8.794   3.251  1.9889 -1.9222 -0.2914
 9318SOL    HW240014   9.240   8.936   3.192  2.4165 -0.7570  2.7900
 9319SOL     OW40015   3.657   7.221   3.194 -0.3827 -0.1289  0.2716
 9319SOL    HW140016   3.653   7.122   3.206 -0.6586 -0.0728  0.6457
 9319SOL    HW240017   3.579   7.251   3.138  0.2068 -0.2348 -0.6234
 9320SOL     OW40018   0.358   1.622   7.474 -0.3808 -0.0206  0.4726
 9320SOL    HW140019   0.422   1.593   7.545 -0.3699 -0.4243  0.3019
 9320SOL    HW240020   0.265   1.600   7.503 -0.3252 -0.8163  0.0689
 9321SOL     OW40021   8.682   9.319   6.262 -0.2341 -0.4798  0.2968
 9321SOL    HW140022   8.650   9.397   6.315 -0.1766  0.6007 -1.2112
 9321SOL    HW240023   8.610   9.249   6.258 -0.3525 -0.4290  1.4907
 9322SOL     OW40024   7.687   5.512   4.147 -0.3200 -0.4069 -0.4670
 9322SOL    HW140025   7.667   5.606   4.120 -0.6137 -0.3374  0.0006
 9322SOL    HW240026   7.603   5.466   4.174  0.0926 -0.2007  1.2011
 9323SOL     OW40027   4.322   5.638   5.170  0.0361  0.0139  0.4039
 9323SOL    HW140028   4.338   5.555   5.118  0.6074  0.6772 -0.4810
 9323SOL    HW240029   4.409   5.684   5.188 -0.3831  1.0676 -0.1893
 9324SOL     OW40030   5.786   0.210   0.746 -0.0126 -0.0193 -0.3021
 9324SOL    HW140031   5.785   0.186   0.649  1.0345  0.9837 -0.5867
 9324SOL    HW240032   5.768   0.129   0.801 -0.4293 -0.6387 -1.3299
 9325SOL     OW40033   2.753   8.663   1.004 -0.0606  0.1527  0.3613
 9325SOL    HW140034   2.664   8.619   1.015 -0.1999  0.5402  0.7940
 9325SOL    HW240035   2.739   8.756   0.969  0.2404 -0.1999 -0.7148
 9326SOL     OW40036   1.170   1.432   3.838  0.2170  0.0810 -0.3049
 9326SOL    HW140037   1.201   1.525   3.819 -0.7414  0.3632 -0.5045
 9326SOL    HW240038   1.215   1.368   3.776  0.7940  0.4213 -0.2396
 9327SOL     OW40039   4.225   6.419   9.065 -0.4706  0.0261 -0.4442
 9327SOL    HW140040   4.191   6.442   9.156  0.5590 -1.4169  0.3369
 9327SOL    HW240041   4.226   6.500   9.007  2.0433  1.6855  1.8554
 9328SOL     OW40042   4.565   7.499   3.603 -0.4043  0.0956 -0.0756
 9328SOL    HW140043   4.591   7.426   3.540 -1.5073 -0.6992  0.3717
 9328SOL    HW240044   4.536   7.580   3.552  0.4584  0.0900 -0.5760
 9329SOL     OW40045   4.216   1.613   9.331 -0.2952  0.1940  0.4690
 9329SOL    HW140046   4.168   1.564   9.404  1.0005 -0.3885  0.9602
 9329SOL    HW240047   4.173   1.701   9.315 -2.4475 -0.9348 -0.1555
 9330SOL     OW40048   4.519   0.520   7.153  0.4371  0.4130  0.0034
 9330SOL    HW140049   4.539   0.480   7.063  0.2450 -0.4171  0.3279
 9330SOL    HW240050   4.427   0.493   7.182  1.3303 -1.1984  1.4523
 9331SOL     OW40051   1.959   9.357   7.483  0.2687  0.3388 -0.3684
 9331SOL    HW140052   1.939   9.260   7.468  0.3529  0.5410 -1.8144
 9331SOL    HW240053   1.927   9.410   7.405  1.1122  1.3651 -0.0233
 9332SOL     OW40054   6.090   8.259   4.654  0.7314  0.5632 -0.6555
 9332SOL    HW140055   5.991   8.247   4.650  0.8209 -0.4553 -0.0096
 9332SOL    HW240056   6.120   8.263   4.750  1.3831  0.2941 -0.8431
 9333SOL     OW40057   9.123   6.745   4.004 -0.1379  0.1908 -0.4384
 9333SOL    HW140058   9.138   6.799   3.922 -0.2136 -0.4008 -0.8426
 9333SOL    HW240059   9.070   6.663   3.982 -0.1037 -0.0045  0.1804
 9334SOL     OW40060   6.584   8.074   4.653 -0.8658  0.1492 -0.2972
 9334SOL    HW140061   6.486   8.094   4.643 -0.9154 -0.0030 -0.1162
 9334SOL    HW240062   6.599   7.975   4.646 -0.9025  0.0324  1.1374
 9335SOL     OW40063   3.974   7.253   1.178 -0.0857  0.4057  0.3617
 9335SOL    HW140064   3.922   7.298   1.251 -1.2462 -0.2616 -0.0250
 9335SOL    HW240065   4.052   7.205   1.217  0.5085  1.7881  0.9075
 9336SOL     OW40066   9.434   6.380   5.817 -0.0237 -0.1356 -0.0612
 9336SOL    HW140067   9.489   6.442   5.761 -0.1399  1.6930  1.7516
 9336SOL    HW240068   9.407   6.427   5.901 -0.1238 -2.6690  1.3863
 9337SOL     OW40069   4.119   6.267   7.359  0.0046 -0.4793 -0.3290
 9337SOL    HW140070   4.142   6.172   7.339  1.1294  0.3357 -3.1590
 9337SOL    HW240071   4.197   6.312   7.403 -0.6454 -0.9237  1.3178
 9338SOL     OW40072   5.148   4.021   8.850  0.6426  0.1799 -0.7456
 9338SOL    HW140073   5.208   4.010   8.929 -0.0617  2.5798  0.1620
 9338SOL    HW240074   5.199   4.067   8.776  0.2053  1.4503 -0.2751
 9339SOL     OW40075   0.445   1.456   4.061 -0.0886  0.1211 -0.7941
 9339SOL    HW140076   0.380   1.458   3.984  0.9956  1.9016 -1.6861
 9339SOL    HW240077   0.399   1.420   4.142 -2.3238  1.7447 -1.2956
 9340SOL     OW40078   1.919   4.466   5.435 -0.2035 -0.1294  0.2920
 9340SOL    HW140079   1.964   4.387   5.475 -0.2549  0.1412  0.8977
 9340SOL    HW240080   1.825   4.442   5.409 -0.3933 -0.1307  0.9630
 9341SOL     OW40081   4.300   7.141   7.566  0.2753  0.3476  0.7511
 9341SOL    HW140082   4.399   7.129   7.556 -0.2835 -1.8188 -3.2657
 9341SOL    HW240083   4.279   7.238   7.578  2.8655  0.8085  1.9173
 9342SOL     OW40084   3.679   0.072   8.854  0.2871  0.2401 -0.0507
 9342SOL    HW140085   3.757   0.078   8.791 -0.2077 -1.1917 -0.8130
 9342SOL    HW240086   3.706   0.020   8.935  0.1129 -0.2700 -0.3221
 9343SOL     OW40087   2.253   8.477   8.443  0.7259  0.0709 -0.0259
 9343SOL    HW140088   2.177   8.541   8.457 -0.2306 -0.9417 -0.4880
 9343SOL    HW240089   2.240   8.398   8.503  1.4122 -0.1208 -0.1284
 9344SOL     OW40090   5.250   5.551   4.305 -0.0807 -0.3130  0.2319
 9344SOL    HW140091   5.327   5.534   4.366 -0.1508  1.6794  0.9135
 9344SOL    HW240092   5.164   5.542   4.357 -0.1783  0.4829  0.2065
 9345SOL     OW40093   4.230   7.413   7.655  0.3395 -0.5836 -0.4769
 9345SOL    HW140094   4.187   7.444   7.570  1.4921  0.9055 -0.5369
 9345SOL    HW240095   4.206   7.475   7.729  1.3231 -0.4768 -0.2442
 9346SOL     OW40096   2.640   1.739   4.801  0.7396 -0.1457  0.1322
 9346SOL    HW140097   2.680   1.734   4.892  0.0093 -1.3196  0.3943
 9346SOL    HW240098   2.636   1.835   4.772  0.5496  0.2756  1.5075
 9347SOL     OW40099   5.453   6.413   7.742 -0.1851  0.0892  0.3155
 9347SOL    HW140100   5.428   6.426   7.646  0.4382 -0.0486  0.1321
 9347SOL    HW240101   5.444   6.499   7.791  0.3181  0.3484 -0.0533
 9348SOL     OW40102   3.854   6.769   9.281 -0.6004  0.1547  0.2079
 9348SOL    HW140103   3.795   6.691   9.263 -0.9378  0.4598 -0.0149
 9348SOL    HW240104   3.922   6.745   9.350 -1.2776 -0.0535  0.7989
 9349SOL     OW40105   2.021   0.830   7.494  0.0626  0.1462  0.0467
 9349SOL    HW140106   1.933   0.783   7.497 -0.3444  0.9686  1.8087
 9349SOL    HW240107   2.062   0.817   7.404 -1.5526 -0.7945 -0.5906
 9350SOL     OW40108   4.281   6.328   0.468 -0.2181 -0.0147  0.0509
 9350SOL    HW140109   4.242   6.238   0.485  0.0682  0.0198  0.9098
 9350SOL    HW240110   4.377   6.318   0.441 -0.1736  0.0305  0.1905
 9351SOL     OW40111   6.837   5.466   6.445 -0.1044 -0.1574 -0.3172
 9351SOL    HW140112   6.744   5.440   6.419  0.4914 -1.2271 -1.4449
 9351SOL    HW240113   6.841   5.482   6.543 -1.5023  0.0084 -0.2765
 9352SOL     OW40114   8.771   6.229   7.421 -0.0639 -0.2548 -0.1381
 9352SOL    HW140115   8.828   6.233   7.339 -1.8623 -0.5207 -1.4287
 9352SOL    HW240116   8.693   6.168   7.405 -0.1709 -0.6869  1.9365
 9353SOL     OW40117   5.657   5.020   7.108 -0.1058 -0.3003 -0.0135
 9353SOL    HW140118   5.591   4.963   7.060  0.1838 -0.9207  0.3165
 9353SOL    HW240119   5.617   5.055   7.192 -0.3435  0.1362 -0.3055
 9354SOL     OW40120   0.034   7.426   6.180 -0.3808  0.5027 -0.0031
 9354SOL    HW140121  -0.045   7.468   6.225 -0.7073  0.5801 -0.6357
 9354SOL    HW240122   0.007   7.339   6.139 -0.1615  0.5593 -0.2772
 9355SOL     OW40123   9.605   7.694   6.982  0.0290 -0.5308 -0.3571
 9355SOL    HW140124   9.676   7.760   7.007 -0.9531  0.0719  0.9514
 9355SOL    HW240125   9.527   7.743   6.942 -1.0959 -0.7573  1.4873
 9356SOL     OW40126   8.653   1.699   2.472  0.1964  0.4139 -0.5177
 9356SOL    HW140127   8.669   1.622   2.533  3.0650  0.0173 -1.6934
 9356SOL    HW240128   8.572   1.750   2.502  0.6442 -0.6821  2.6569
 9357SOL     OW40129   6.988   0.705   3.087 -0.1851 -0.3434  0.1449
 9357SOL    HW140130   6.909   0.644   3.093 -0.7546  0.4335  0.6038
 9357SOL    HW240131   7.054   0.668   3.021 -1.5276 -0.3439 -1.2440
 9358SOL     OW40132   4.683   6.506   0.318 -0.5067 -0.3763 -0.0878
 9358SOL    HW140133   4.778   6.487   0.343 -0.6719  0.3277  1.1286
 9358SOL    HW240134   4.670   6.605   0.308 -0.9070 -0.5264 -1.1321
 9359SOL     OW40135   7.473   9.169   4.063  0.0713 -0.1850  0.4211
 9359SOL    HW140136   7.497   9.236   4.133  0.8824 -1.1501  1.0727
 9359SOL    HW240137   7.477   9.212   3.973 -1.0699  1.0892  0.9572
 9360SOL     OW40138   1.330   2.230   7.764 -0.1226 -0.1296 -0.3750
 9360SOL    HW140139   1.292   2.321   7.781  0.2209 -0.2294  0.9988
 9360SOL    HW240140   1.258   2.169   7.733 -0.2766  0.7107 -1.6825
 9361SOL     OW40141   1.028   3.397   3.964 -0.2879  0.3136 -0.9101
 9361SOL    HW140142   1.015   3.495   3.979 -2.0530  0.3250 -2.2616
 9361SOL    HW240143   1.009   3.347   4.049 -2.4193  0.9358 -0.9842
 9362SOL     OW40144   1.215   1.752   7.150  0.5975  0.1630  0.0130
 9362SOL    HW140145   1.306   1.718   7.124  0.5214  1.1119 -1.6015
 9362SOL    HW240146   1.147   1.712   7.088 -0.0085 -0.0665  0.8319
 9363SOL     OW40147   1.509   4.986   5.060  0.0523  0.5200 -0.1775
 9363SOL    HW140148   1.449   5.020   4.988  2.2623  1.5093 -1.6070
 9363SOL    HW240149   1.587   4.938   5.019  0.3372 -0.6221  1.6292
 9364SOL     OW40150   3.227   8.077   9.757 -0.4394  0.3783 -0.0516
 9364SOL    HW140151   3.156   8.143   9.782  0.0536  0.4459  1.1951
 9364SOL    HW240152   3.206   7.989   9.798 -0.4206  0.0941 -0.6553
 9365SOL     OW40153   4.825   6.712   5.717  0.3208  0.0572  0.1909
 9365SOL    HW140154   4.924   6.709   5.732  0.5174  1.0235 -0.8739
 9365SOL    HW240155   4.778   6.701   5.804  1.3672 -0.4151  0.7052
 9366SOL     OW40156   9.254   8.263   6.230  0.4014  0.4114  0.4583
 9366SOL    HW140157   9.242   8.309   6.317  0.6258  0.0487  0.6854
 9366SOL    HW240158   9.346   8.224   6.226  0.2263  0.0205  0.2526
 9367SOL     OW40159   4.114   2.551   8.333  0.1363  0.0078  0.6690
 9367SOL    HW140160   4.115   2.595   8.423  2.9650 -0.2548  0.8206
 9367SOL    HW240161   4.074   2.460   8.341  0.3438 -0.0031  1.6530
 9368SOL     OW40162   8.123   3.513   8.284  0.4730  0.5249  0.5080
 9368SOL    HW140163   8.088   3.463   8.363 -1.2558 -0.8381 -1.0714
 9368SOL    HW240164   8.218   3.486   8.266 -0.4681 -2.3327 -0.3846
 9369SOL     OW40165   2.871   1.829   3.571 -0.0075 -0.1792 -0.3733
 9369SOL    HW140166   2.857   1.837   3.472  0.2068  2.1292 -0.2507
 9369SOL    HW240167   2.901   1.736   3.593 -1.4331 -1.1323 -2.2920
 9370SOL     OW40168   9.657   5.016   8.703 -0.5185  0.1177 -0.0185
 9370SOL    HW140169   9.600   4.977   8.775 -0.7003  1.9506  0.8530
 9370SOL    HW240170   9.753   5.008   8.729 -0.5368  0.0279  0.0285
 9371SOL     OW40171   1.501   0.416   7.431 -0.1849  0.8441  0.0882
 9371SOL    HW140172   1.576   0.464   7.385  0.2869  0.1413  0.1281
 9371SOL    HW240173   1.470   0.471   7.509  1.9087  0.0150  1.5431
 9372SOL     OW40174   8.628   5.650   2.272 -0.2503  0.1118 -0.8404
 9372SOL    HW140175   8.599   5.559   2.301 -0.9267  0.5266 -0.1833
 9372SOL    HW240176   8.626   5.712   2.351  2.2873  0.1967 -0.8106
 9373SOL     OW40177   2.749   8.785   7.594  0.1135 -0.3749 -0.6917
 9373SOL    HW140178   2.833   8.785   7.541  0.9056 -0.2403  0.5478
 9373SOL    HW240179   2.740   8.697   7.641 -0.7338 -0.6058 -1.2783
 9374SOL     OW40180   6.720   8.033   3.028  0.2605  0.3582 -0.2121
 9374SOL    HW140181   6.803   8.029   2.973  0.8480  0.9274  0.6221
 9374SOL    HW240182   6.647   7.982   2.983  1.4964 -1.4599 -0.1934
 9375SOL     OW40183   6.691   9.460   1.561  0.2700  0.2419  0.0198
 9375SOL    HW140184   6.653   9.462   1.468 -0.5557  1.3492  0.3722
 9375SOL    HW240185   6.739   9.546   1.579  1.1968 -0.3335  0.3060
 9376SOL     OW40186   1.591   3.356   2.923  0.1056  0.2301 -0.3659
 9376SOL    HW140187   1.638   3.345   3.010 -1.0481  0.7166  0.3319
 9376SOL    HW240188   1.658   3.364   2.849  1.0831 -2.2479  0.2118
 9377SOL     OW40189   1.767   8.347   7.188 -0.0259 -0.0569 -0.1798
 9377SOL    HW140190   1.746   8.438   7.226 -0.4784  0.8212 -2.4294
 9377SOL    HW240191   1.683   8.304   7.157  0.1747 -1.3329  1.0196
 9378SOL     OW40192   2.731   0.791   8.378  0.1366  0.0135 -0.0331
 9378SOL    HW140193   2.731   0.806   8.477 -0.1520  0.4808 -0.1001
 9378SOL    HW240194   2.820   0.754   8.350  1.1165  2.1696  0.0826
 9379SOL     OW40195   1.509   6.725   8.164  0.1829 -0.1670 -0.3431
 9379SOL    HW140196   1.537   6.642   8.213 -1.3626  0.2323  1.2971
 9379SOL    HW240197   1.498   6.800   8.230  1.0952  1.2166 -1.7437
 9380SOL     OW40198   0.973   6.583   7.561  0.0888  0.3952  0.0287
 9380SOL    HW140199   0.907   6.520   7.520  2.3267 -0.7152 -1.9662
 9380SOL    HW240200   1.000   6.548   7.652 -0.8512  0.0158  0.1672
 9381SOL     OW40201   4.600   9.818   5.360 -0.0022  0.1955  0.0715
 9381SOL    HW140202   4.656   9.877   5.302 -0.6108 -0.7890 -1.5246
 9381SOL    HW240203   4.651   9.795   5.443  1.0204  1.2884 -0.2396
 9382SOL     OW40204   9.321   9.984   6.648  0.2343  0.5336  0.2272
 9382SOL    HW140205   9.375   9.980   6.732  0.2163  1.8051  0.3064
 9382SOL    HW240206   9.346  10.066   6.596  0.0161 -0.0750 -0.8509
 9383SOL     OW40207   4.979   0.786   7.013  0.0585  0.2157  0.5545
 9383SOL    HW140208   4.895   0.748   7.051  0.2155  0.8258  1.5137
 9383SOL    HW240209   4.995   0.746   6.923 -0.3847 -1.1277  1.0629
 9384SOL     OW40210   9.712   0.978   1.684  0.3711  0.2140  0.2271
 9384SOL    HW140211   9.712   0.987   1.585  0.6568 -0.3519  0.1697
 9384SOL    HW240212   9.778   1.042   1.724  0.7335 -0.0167  0.0016
 9385SOL     OW40213   3.087   1.581   9.879 -0.2586  0.3099  0.5183
 9385SOL    HW140214   3.052   1.620   9.794  0.7358 -0.4632 -0.2595
 9385SOL    HW240215   3.153   1.508   9.858 -0.2112 -0.0767  1.9466
 9386SOL     OW40216   9.095   4.472   6.317  0.3190  0.1538  0.1472
 9386SOL    HW140217   9.029   4.527   6.266  1.5342  0.1203 -1.4931
 9386SOL    HW240218   9.119   4.519   6.402 -0.6092  0.9042  0.0060
 9387SOL     OW40219   3.061   6.980   5.398  0.0789 -0.7787 -0.3546
 9387SOL    HW140220   3.038   7.068   5.357 -0.7102 -2.0629 -2.7463
 9387SOL    HW240221   2.978   6.926   5.411  0.7638 -1.9454 -0.7534
 9388SOL     OW40222   1.398   7.824   0.482  0.2080  0.5580 -0.4836
 9388SOL    HW140223   1.339   7.766   0.537  2.2775 -2.3924 -1.2494
 9388SOL    HW240224   1.459   7.876   0.542  0.2477 -0.1846  0.1257
 9389SOL     OW40225   2.555   3.003   1.403  0.0032 -0.3965  0.3392
 9389SOL    HW140226   2.632   3.050   1.360  0.3210 -1.1656  0.0554
 9389SOL    HW240227   2.497   3.069   1.450  0.2499  0.3160 -0.3594
 9390SOL     OW40228   5.208   5.318   4.871 -0.0695 -0.1134 -0.5485
 9390SOL    HW140229   5.195   5.389   4.803 -0.6404 -0.3569 -0.7042
 9390SOL    HW240230   5.303   5.287   4.871  0.1964  0.7024 -0.4214
 9391SOL     OW40231   3.156   6.860   0.404 -0.8597  0.4113  0.3950
 9391SOL    HW140232   3.218   6.836   0.329 -1.0714 -0.1952  0.4087
 9391SOL    HW240233   3.159   6.958   0.420  0.3254  0.3388  0.6040
 9392SOL     OW40234   0.848   3.776   9.607 -0.2212  0.2318 -0.0110
 9392SOL    HW140235   0.876   3.691   9.562 -2.1423 -0.3416 -0.1691
 9392SOL    HW240236   0.911   3.849   9.581  1.4204 -1.1073  0.0652
 9393SOL     OW40237   2.236   9.222   4.540  0.1905 -0.6158  0.0530
 9393SOL    HW140238   2.219   9.149   4.607  0.1920 -0.5111  0.1663
 9393SOL    HW240239   2.149   9.253   4.502  0.2105 -0.8664 -0.1958
 9394SOL     OW40240   3.777   4.225   6.260  0.0914 -0.3163  0.1101
 9394SOL    HW140241   3.748   4.176   6.342  0.7496  0.1966  0.6555
 9394SOL    HW240242   3.877   4.225   6.255  0.0538 -0.2088 -0.6046
 9395SOL     OW40243   8.244   7.933   2.037 -0.3597  0.3204  0.2557
 9395SOL    HW140244   8.213   7.839   2.031  0.8988 -0.1562  1.0389
 9395SOL    HW240245   8.323   7.939   2.098 -0.4474  1.8862  0.2525
 9396SOL     OW40246   8.450   5.468   6.665 -0.4441  0.5368  0.0540
 9396SOL    HW140247   8.524   5.478   6.598 -0.3969  2.0389  0.2979
 9396SOL    HW240248   8.376   5.414   6.626  0.2914  0.0136 -0.6173
 9397SOL     OW40249   4.086   9.583   8.350  0.4235 -0.2762 -0.1504
 9397SOL    HW140250   4.166   9.527   8.369  1.4835  0.1401 -3.2563
 9397SOL    HW240251   4.109   9.679   8.363  0.3599 -0.1689 -0.8599
 9398SOL     OW40252   7.065   5.324   9.647 -0.4734 -0.2512 -0.5661
 9398SOL    HW140253   6.995   5.277   9.594 -0.2073  1.3993 -2.4275
 9398SOL    HW240254   7.070   5.420   9.619 -0.0503  0.5772  2.1787
 9399SOL     OW40255   5.285   6.951   6.870 -0.7795  0.1401  0.3356
 9399SOL    HW140256   5.193   6.990   6.865 -0.7633  0.2437  0.8145
 9399SOL    HW240257   5.352   7.018   6.840 -0.9515 -0.2976 -1.0436
 9400SOL     OW40258   0.084   3.604   5.435  0.2830 -0.3686 -0.2996
 9400SOL    HW140259   0.102   3.698   5.464 -0.0011 -0.6035  0.6577
 9400SOL    HW240260   0.026   3.558   5.502  0.0063 -1.0795 -1.0061
 9401SOL     OW40261   2.725   5.750   7.196 -0.3326  1.0294  0.1986
 9401SOL    HW140262   2.668   5.689   7.141 -0.5895  1.7813 -0.3874
 9401SOL    HW240263   2.767   5.699   7.271 -0.5271  0.1364 -0.2954
 9402SOL     OW40264   2.372   7.570   7.384 -0.2132  0.3382 -0.1845
 9402SOL    HW140265   2.399   7.664   7.360  0.8110 -0.1465 -0.9568
 9402SOL    HW240266   2.413   7.506   7.319  1.6362 -0.9010  2.0990
 9403SOL     OW40267   7.163   4.648   2.728  0.1469  0.0798 -0.4624
 9403SOL    HW140268   7.120   4.717   2.787 -0.1100  0.0860 -0.6565
 9403SOL    HW240269   7.148   4.672   2.632 -2.0456 -1.5075 -0.5541
 9404SOL     OW40270   1.182   8.991   7.542  0.2675  0.8331 -0.0043
 9404SOL    HW140271   1.250   9.030   7.605  1.4285  1.2339 -1.4757
 9404SOL    HW240272   1.205   8.896   7.522 -0.4292  0.5290  0.6275
 9405SOL     OW40273   4.533   7.816   5.650 -0.1447 -0.0890  0.4349
 9405SOL    HW140274   4.611   7.808   5.586  0.8628  0.3431  1.5908
 9405SOL    HW240275   4.449   7.795   5.601  0.5907  0.3910 -1.1020
 9406SOL     OW40276   3.536   4.057   4.632  0.7781 -0.3022  0.3220
 9406SOL    HW140277   3.488   3.988   4.577 -1.1922  0.4666  1.0141
 9406SOL    HW240278   3.619   4.017   4.671  0.7963 -1.6307 -1.0447
 9407SOL     OW40279   0.076   6.664   6.321  0.9636 -0.1895 -0.7340
 9407SOL    HW140280   0.149   6.596   6.321  1.0707 -0.0966  0.4327
 9407SOL    HW240281   0.093   6.731   6.394  0.2855  0.4470 -1.1572
 9408SOL     OW40282   5.191   4.978   6.028  0.4128  0.6905 -0.5253
 9408SOL    HW140283   5.161   5.064   5.987  2.0148  1.0242 -1.0202
 9408SOL    HW240284   5.286   4.986   6.058  0.0424 -0.3578  0.9972
 9409SOL     OW40285   3.904   5.344   8.118 -0.1615  0.4346  0.2767
 9409SOL    HW140286   3.980   5.311   8.063  0.3781  0.4342  1.0128
 9409SOL    HW240287   3.936   5.416   8.180 -0.2789 -1.0503  2.1105
 9410SOL     OW40288   5.890   7.787   2.853  0.3473 -0.3717 -0.2286
 9410SOL    HW140289   5.883   7.769   2.755 -2.1076 -0.7961  0.0045
 9410SOL    HW240290   5.800   7.777   2.896  1.0233  1.6737  1.7601
 9411SOL     OW40291   4.133   0.155   8.919 -0.2659  0.2360 -0.1363
 9411SOL    HW140292   4.195   0.148   8.998  1.5874 -1.2876 -1.6713
 9411SOL    HW240293   4.047   0.108   8.940 -0.0079  0.3003  1.1463
 9412SOL     OW40294   4.013   6.794   2.518 -0.0720 -0.3924 -0.2925
 9412SOL    HW140295   3.955   6.872   2.540 -0.4064 -0.6656 -0.1932
 9412SOL    HW240296   4.078   6.779   2.592 -1.3618 -1.4633  0.6500
 9413SOL     OW40297   2.411   9.561   6.015 -0.0874  0.2992  0.0610
 9413SOL    HW140298   2.343   9.508   6.067 -2.2966  3.5297  0.5835
 9413SOL    HW240299   2.398   9.545   5.917 -2.6180  1.9985  0.0789
 9414SOL     OW40300   3.431   7.817   1.338 -0.1539 -0.2411  0.2112
 9414SOL    HW140301   3.506   7.855   1.391 -1.2141 -0.5841  1.9779
 9414SOL    HW240302   3.447   7.719   1.323 -0.6406 -0.4900  1.2913
 9415SOL     OW40303   3.708   7.586   4.789 -0.3062 -0.1743 -0.1984
 9415SOL    HW140304   3.625   7.567   4.738 -0.6258 -0.2637  0.3504
 9415SOL    HW240305   3.685   7.606   4.884  0.2878 -0.0826 -0.0710
 9416SOL     OW40306   2.144   2.138   6.769 -0.6395 -0.2455  0.0896
 9416SOL    HW140307   2.226   2.081   6.766 -0.6196 -0.2263  0.2693
 9416SOL    HW240308   2.086   2.117   6.690 -0.0515  0.3645 -0.5044
 9417SOL     OW40309   3.358   8.092   9.317 -0.3906  0.8239 -0.0261
 9417SOL    HW140310   3.281   8.072   9.378  0.1875 -0.2168  0.3773
 9417SOL    HW240311   3.415   8.163   9.359  0.0496  0.0545  0.7039
 9418SOL     OW40312   3.780   4.570   7.874  0.1957 -0.5015  0.3870
 9418SOL    HW140313   3.810   4.550   7.780  1.6646 -3.5357  1.4456
 9418SOL    HW240314   3.848   4.536   7.938 -1.0915  1.0231  2.6057
 9419SOL     OW40315   6.124   8.946   2.430  0.1469 -0.1433  0.0826
 9419SOL    HW140316   6.153   8.864   2.479  2.1917 -0.0687 -0.9445
 9419SOL    HW240317   6.187   9.021   2.451 -0.3797  0.5494 -0.7592
 9420SOL     OW40318   3.629   7.885   5.621  0.2426 -0.2892 -0.6968
 9420SOL    HW140319   3.718   7.862   5.581  0.9872 -1.6551  1.6028
 9420SOL    HW240320   3.635   7.975   5.665  0.2898 -0.0711 -1.1527
 9421SOL     OW40321   9.818   4.408   8.710 -0.2000  0.3793 -0.2600
 9421SOL    HW140322   9.727   4.367   8.703 -0.4266  0.6425  1.0021
 9421SOL    HW240323   9.809   4.508   8.713  0.0328  0.3763  0.9841
 9422SOL     OW40324   6.396   5.612   9.893 -0.3242  0.3783  0.5689
 9422SOL    HW140325   6.480   5.565   9.919  1.0580  1.4060 -1.8168
 9422SOL    HW240326   6.335   5.547   9.846 -1.4476 -0.6720  3.3817
 9423SOL     OW40327   3.876   8.446   6.317 -0.2014  0.4773  0.1757
 9423SOL    HW140328   3.870   8.403   6.227  0.6726  2.4467 -0.8412
 9423SOL    HW240329   3.798   8.417   6.373 -0.9390 -0.4766 -1.3096
 9424SOL     OW40330   2.628   8.762   6.433  0.4584 -0.1633 -0.1095
 9424SOL    HW140331   2.670   8.851   6.449 -1.1090  0.3657  1.2668
 9424SOL    HW240332   2.609   8.752   6.335 -1.2688  1.9374 -0.0428
 9425SOL     OW40333   3.950   4.732   6.339  0.1744  0.0588 -0.1903
 9425SOL    HW140334   3.856   4.699   6.354 -0.2728  1.5071  0.3051
 9425SOL    HW240335   3.990   4.761   6.426  0.2940  1.4542 -0.6952
 9426SOL     OW40336   9.897   3.421   7.540 -0.4964  0.4043 -0.0895
 9426SOL    HW140337   9.960   3.357   7.497 -2.4130 -0.4713 -1.6883
 9426SOL    HW240338   9.879   3.496   7.476  1.0942  2.1605  1.4528
 9427SOL     OW40339   9.459   6.958   8.752 -0.6275  0.0580 -0.1032
 9427SOL    HW140340   9.528   7.024   8.725 -0.4923 -0.7071 -1.6917
 9427SOL    HW240341   9.501   6.887   8.809 -0.4844  0.5668  0.4272
 9428SOL     OW40342   8.133   3.161   6.784  0.6141 -0.1850 -0.0723
 9428SOL    HW140343   8.103   3.229   6.852  1.4632 -1.4816  1.6264
 9428SOL    HW240344   8.233   3.162   6.778  0.5811 -0.6860 -0.6680
 9429SOL     OW40345   8.407   5.281   6.480 -0.4546 -0.4791 -0.1640
 9429SOL    HW140346   8.401   5.279   6.380 -2.0156 -2.3267 -0.0790
 9429SOL    HW240347   8.496   5.247   6.509 -0.8311 -2.1488 -0.9010
 9430SOL     OW40348   3.437   8.530   7.873 -0.0045 -0.1422  0.0740
 9430SOL    HW140349   3.414   8.554   7.967  0.1783  0.9284 -0.1415
 9430SOL    HW240350   3.531   8.559   7.854  0.5503 -1.9002  0.0806
 9431SOL     OW40351   3.943   6.363   9.826 -0.0364  0.1974 -0.1953
 9431SOL    HW140352   3.999   6.442   9.801  0.0009 -0.3435 -1.8853
 9431SOL    HW240353   3.856   6.395   9.865  0.4586  1.0540  0.2208
 9432SOL     OW40354   3.236   7.873   6.001 -0.3789 -0.4317 -0.5045
 9432SOL    HW140355   3.334   7.863   6.019 -0.0845  0.1249 -1.7286
 9432SOL    HW240356   3.222   7.952   5.941 -1.5745 -0.5477 -0.3789
 9433SOL     OW40357   8.034   4.259   7.417 -0.1227  0.1557 -0.9698
 9433SOL    HW140358   7.937   4.248   7.437 -0.2849  1.6887 -0.8333
 9433SOL    HW240359   8.053   4.355   7.396  1.7564  0.2615  1.0934
 9434SOL     OW40360   6.250   9.650   9.008  0.2869 -0.5311  0.5527
 9434SOL    HW140361   6.242   9.623   9.104 -0.5158  0.3402  0.7419
 9434SOL    HW240362   6.238   9.749   9.001 -0.5656 -0.7125 -0.5649
 9435SOL     OW40363   1.067   4.355   9.206 -1.0722 -0.1536  0.0232
 9435SOL    HW140364   1.122   4.291   9.153  0.1272 -0.6350  1.7919
 9435SOL    HW240365   0.986   4.381   9.154  0.6925  0.4023 -2.5357
 9436SOL     OW40366   4.818   1.648   0.399 -0.0116  0.1297  0.4060
 9436SOL    HW140367   4.772   1.660   0.310 -1.1208  0.1823  0.9792
 9436SOL    HW240368   4.772   1.704   0.468  1.4193  0.8062  0.8375
 9437SOL     OW40369   0.488   4.815   6.910 -0.0962  1.0005  0.3519
 9437SOL    HW140370   0.489   4.914   6.928 -3.2719  1.4314 -1.5038
 9437SOL    HW240371   0.526   4.798   6.819 -0.9246  0.6546  0.0715
 9438SOL     OW40372   4.028   8.637   7.725 -0.1281 -0.0725 -0.5433
 9438SOL    HW140373   4.116   8.607   7.689 -0.9379 -1.8252 -1.1639
 9438SOL    HW240374   4.010   8.592   7.812 -1.1534 -1.0975 -1.2585
 9439SOL     OW40375   3.420   0.445   6.239  0.1649  0.4569 -0.1157
 9439SOL    HW140376   3.358   0.478   6.310  0.4511  1.1658 -0.1900
 9439SOL    HW240377   3.452   0.354   6.263 -0.5584  0.2670  0.1431
 9440SOL     OW40378   5.309   8.601   4.105 -0.0401 -0.3049  0.6803
 9440SOL    HW140379   5.243   8.540   4.148  0.6794 -0.1405  2.0634
 9440SOL    HW240380   5.368   8.640   4.175 -0.1207  1.5412 -0.2447
 9441SOL     OW40381   3.987   0.128   2.159 -0.3947  0.1069  0.2515
 9441SOL    HW140382   4.025   0.162   2.073  0.8768  0.9946  1.1665
 9441SOL    HW240383   3.951   0.036   2.144  3.5833 -1.4599 -0.2703
 9442SOL     OW40384   2.034   3.756   7.729  0.6601  0.5424  0.3661
 9442SOL    HW140385   2.051   3.832   7.792  1.1088 -0.3856  1.3730
 9442SOL    HW240386   1.951   3.707   7.757 -0.1223  1.1802 -0.7954
 9443SOL     OW40387   0.108   4.450   2.255  0.1700  0.0868 -0.2057
 9443SOL    HW140388   0.179   4.518   2.238  0.4396  0.1647  1.1558
 9443SOL    HW240389   0.043   4.485   2.323  0.2474 -0.9440  0.4203
 9444SOL     OW40390   0.964   4.292   8.945  0.4725  0.2673  0.6756
 9444SOL    HW140391   1.042   4.241   8.983 -0.1152 -1.0298  0.1570
 9444SOL    HW240392   0.879   4.252   8.977 -0.0192 -0.2328 -1.1884
 9445SOL     OW40393   0.765   6.845   5.755  0.2292 -0.4926  0.3318
 9445SOL    HW140394   0.826   6.769   5.778  2.0163  0.9928  0.6459
 9445SOL    HW240395   0.672   6.822   5.781  0.2404 -3.6702 -2.0149
 9446SOL     OW40396   1.700   3.821   4.217 -0.5890 -0.3144 -0.6116
 9446SOL    HW140397   1.725   3.803   4.122 -0.0872 -0.5052 -0.4466
 9446SOL    HW240398   1.620   3.766   4.242 -0.1956 -0.9189 -0.6684
 9447SOL     OW40399   2.728   4.562   0.268 -0.8956 -0.4661  0.1195
 9447SOL    HW140400   2.644   4.598   0.308 -0.0784  2.7252 -0.8495
 9447SOL    HW240401   2.786   4.638   0.238  3.0249 -2.5138  2.0448
 9448SOL     OW40402   2.447   6.012   8.288  0.3489  0.5321  0.0752
 9448SOL    HW140403   2.514   6.077   8.253 -0.1803  0.2961 -1.3916
 9448SOL    HW240404   2.491   5.923   8.302 -0.1569 -0.2849 -3.1623
 9449SOL     OW40405   6.874   4.084   3.806 -0.4563 -0.2293 -0.2010
 9449SOL    HW140406   6.856   4.180   3.824  1.8102  0.0760  0.6494
 9449SOL    HW240407   6.846   4.029   3.886 -0.5349 -0.1163 -0.1515
 9450SOL     OW40408   6.600   0.309   5.693  0.6065 -0.3218 -0.1198
 9450SOL    HW140409   6.676   0.249   5.720  0.7949  0.8871  2.1257
 9450SOL    HW240410   6.636   0.390   5.648  0.5612 -0.2736 -0.0684
 9451SOL     OW40411   1.343   8.002   5.301  0.4913 -0.6309 -0.0382
 9451SOL    HW140412   1.311   8.089   5.265 -0.1310 -0.8924 -0.1110
 9451SOL    HW240413   1.355   7.937   5.225 -0.1581 -0.9680  0.1517
 9452SOL     OW40414   3.711   9.138   5.495 -0.0501  0.1173  0.0756
 9452SOL    HW140415   3.709   9.233   5.464  2.3657 -0.1142 -0.9309
 9452SOL    HW240416   3.731   9.078   5.417 -0.4984 -1.1264  0.9013
 9453SOL     OW40417   1.544   7.735   0.756 -0.0512  0.7060 -0.2988
 9453SOL    HW140418   1.604   7.809   0.788 -0.8595 -1.0847  6.0807
 9453SOL    HW240419   1.595   7.649   0.757 -1.1016  0.0736 -0.7539
 9454SOL     OW40420   0.938   4.828   8.277  0.0334  0.0537  0.7711
 9454SOL    HW140421   0.888   4.913   8.292  1.1594  0.6086  1.4110
 9454SOL    HW240422   1.030   4.848   8.243  0.3119 -0.9032  0.9400
 9455SOL     OW40423   5.980   5.568   7.233  0.0348  0.0608  0.5032
 9455SOL    HW140424   5.980   5.565   7.133  0.3641 -2.1334  0.5483
 9455SOL    HW240425   6.043   5.640   7.264  0.2919  0.4357 -0.8542
 9456SOL     OW40426   3.980   7.627   8.705  0.1537  0.5310  0.7285
 9456SOL    HW140427   4.065   7.575   8.702  0.0276  0.3983 -0.8011
 9456SOL    HW240428   3.992   7.712   8.653 -1.3354 -0.5325 -1.3969
 9457SOL     OW40429   3.972   7.416   2.074 -0.0653  0.1224 -0.7718
 9457SOL    HW140430   3.971   7.348   2.001 -0.5969 -0.4613 -0.2285
 9457SOL    HW240431   3.905   7.391   2.144 -0.9414  1.7006 -1.0244
 9458SOL     OW40432   5.673   8.703   7.640  0.6353  0.4761 -0.1094
 9458SOL    HW140433   5.660   8.773   7.569  1.2865  0.2513 -0.4587
 9458SOL    HW240434   5.602   8.713   7.710  0.3655  1.1063 -0.4639
 9459SOL     OW40435   5.629   8.327   3.274  0.0139 -0.2370 -0.2384
 9459SOL    HW140436   5.707   8.299   3.218  0.9402 -0.3014  1.0620
 9459SOL    HW240437   5.642   8.421   3.304 -2.6508  1.3809 -3.8311
 9460SOL     OW40438   6.066   5.892   8.475 -0.3081 -0.2878  0.1359
 9460SOL    HW140439   6.018   5.808   8.501  0.0841 -0.1226  1.4111
 9460SOL    HW240440   6.030   5.969   8.528  0.6738  0.0072  0.3930
 9461SOL     OW40441   3.581   9.411   6.388  0.1087 -0.2509  0.0900
 9461SOL    HW140442   3.539   9.320   6.390  0.5151 -0.4001  2.1600
 9461SOL    HW240443   3.636   9.419   6.305 -0.9161 -1.4264 -0.7416
 9462SOL     OW40444   0.638   3.552   7.373 -0.0496 -0.2318 -0.1554
 9462SOL    HW140445   0.702   3.500   7.316 -0.6535 -0.7530 -0.3520
 9462SOL    HW240446   0.617   3.639   7.329 -0.5222 -0.6347 -0.7367
 9463SOL     OW40447   4.416   1.922   7.381  0.0569 -0.1169 -0.1190
 9463SOL    HW140448   4.485   1.965   7.323  0.5377 -0.2676  0.3378
 9463SOL    HW240449   4.375   1.991   7.441  0.8986 -0.2982  0.6830
 9464SOL     OW40450   7.032   6.183   2.163 -0.0940  0.2997 -0.1178
 9464SOL    HW140451   6.935   6.159   2.160 -0.5535  1.9017  1.0485
 9464SOL    HW240452   7.057   6.206   2.257  0.2893  4.2437 -1.0806
 9465SOL     OW40453   2.668   6.092   0.114 -0.1400 -0.9297  0.2217
 9465SOL    HW140454   2.744   6.127   0.168  0.9105 -3.5820  0.5424
 9465SOL    HW240455   2.690   6.100   0.016 -0.3224  0.1382  0.2605
 9466SOL     OW40456   1.038   7.371   6.523 -0.0230  0.0650 -0.2754
 9466SOL    HW140457   1.132   7.354   6.553 -0.0985  1.9048  1.0769
 9466SOL    HW240458   0.983   7.289   6.539  0.2863  0.4749  3.3175
 9467SOL     OW40459   2.773   8.462   2.563 -0.5941  0.0431  0.0151
 9467SOL    HW140460   2.694   8.506   2.522 -0.5452 -0.6040 -0.7937
 9467SOL    HW240461   2.766   8.363   2.552  1.7007  0.1065 -2.6670
 9468SOL     OW40462   2.116   2.951   0.305 -0.5441  0.2633 -0.5876
 9468SOL    HW140463   2.081   2.964   0.398  0.2401 -0.1794 -0.2315
 9468SOL    HW240464   2.100   3.034   0.251  0.4383  1.1056  0.3959
 9469SOL     OW40465   1.644   5.258   4.965 -0.4568  0.4242  0.0380
 9469SOL    HW140466   1.705   5.182   4.986 -0.8300  0.3221  0.7604
 9469SOL    HW240467   1.599   5.242   4.877  0.0657  0.1942 -0.1876
 9470SOL     OW40468   6.501   8.196   6.888  0.3527 -0.0721 -0.2235
 9470SOL    HW140469   6.462   8.259   6.821  0.2183  0.0992  0.0164
 9470SOL    HW240470   6.438   8.119   6.902 -0.6356  0.9979  1.3303
 9471SOL     OW40471   4.611   4.522   5.499  0.4354 -1.0335 -0.0528
 9471SOL    HW140472   4.653   4.485   5.416  1.0808  0.8220 -0.5930
 9471SOL    HW240473   4.682   4.564   5.555 -0.3228 -0.2635  0.3382
 9472SOL     OW40474   3.195   7.098   2.284  0.4237  0.2960  0.1364
 9472SOL    HW140475   3.225   7.188   2.252  0.2227  0.6339  0.9032
 9472SOL    HW240476   3.106   7.076   2.244  1.4546 -0.5194 -1.7999
 9473SOL     OW40477   6.424   7.945   7.036 -0.0224 -0.4445 -0.1113
 9473SOL    HW140478   6.497   7.901   6.984  0.4781  1.7411 -1.3012
 9473SOL    HW240479   6.455   7.961   7.130 -0.2583 -2.6757  0.3852
 9474SOL     OW40480   1.993   8.935   6.620  0.6124 -0.2581 -0.0336
 9474SOL    HW140481   1.994   8.861   6.687  0.1429  0.8766  1.2575
 9474SOL    HW240482   1.971   8.899   6.530 -2.8973 -1.2270  1.1433
 9475SOL     OW40483   3.763   7.811   9.474  0.7627 -0.3065  0.0261
 9475SOL    HW140484   3.852   7.772   9.497  0.6432 -1.2179 -1.0312
 9475SOL    HW240485   3.742   7.885   9.539  1.8802 -0.6604  0.8214
 9476SOL     OW40486   1.961   9.073   5.696 -0.1737 -0.0247 -0.7891
 9476SOL    HW140487   1.988   8.992   5.748  0.7155  0.4568 -0.4999
 9476SOL    HW240488   2.032   9.142   5.702 -2.3423  2.0866  1.7493
 9477SOL     OW40489   8.734   5.291   8.098 -0.1340 -0.3078  0.4931
 9477SOL    HW140490   8.796   5.263   8.024 -0.3167  2.0697 -0.6006
 9477SOL    HW240491   8.642   5.257   8.079 -0.0274 -0.3349  0.0114
 9478SOL     OW40492   3.520   6.868   7.929 -0.0003  0.5885 -0.1667
 9478SOL    HW140493   3.538   6.770   7.934 -0.2615  0.5677  0.5021
 9478SOL    HW240494   3.467   6.888   7.846 -2.5693 -0.2884  1.1801
 9479SOL     OW40495   2.782   4.131   7.549 -0.2471 -0.1485 -0.1031
 9479SOL    HW140496   2.696   4.087   7.575  0.7373 -0.6049  2.5358
 9479SOL    HW240497   2.826   4.167   7.631  2.0045  0.2099 -1.4582
 9480SOL     OW40498   9.719   8.780   5.953  0.2459  0.0323 -0.8660
 9480SOL    HW140499   9.722   8.875   5.982 -0.2234  0.4724 -2.2073
 9480SOL    HW240500   9.734   8.720   6.031 -1.2616  1.1561  0.3012
 9481SOL     OW40501   0.645   7.416   0.048  0.1483  0.1133  0.6574
 9481SOL    HW140502   0.721   7.429  -0.015 -0.9421 -3.2616 -1.5242
 9481SOL    HW240503   0.587   7.498   0.048  2.9421  2.1381  1.2627
 9482SOL     OW40504   9.902   3.768   3.783  0.4629 -0.0187  0.4674
 9482SOL    HW140505   9.935   3.862   3.776  1.1993 -0.1262  2.3497
 9482SOL    HW240506   9.943   3.713   3.710  0.3604  1.0118 -0.3791
 9483SOL     OW40507   3.579   2.755   9.783 -0.2282  0.0413  0.1737
 9483SOL    HW140508   3.563   2.659   9.806 -1.7369  0.3037  0.2895
 9483SOL    HW240509   3.675   2.778   9.799  0.7110 -2.0791 -2.1060
 9484SOL     OW40510   1.687   5.289   8.590  0.7035 -0.4876 -0.0188
 9484SOL    HW140511   1.606   5.343   8.567  0.6519 -0.6886 -0.3103
 9484SOL    HW240512   1.769   5.346   8.580  0.6134 -0.3285  0.1308
 9485SOL     OW40513   3.285   1.073   0.672 -0.6123 -0.2040 -0.3337
 9485SOL    HW140514   3.359   1.051   0.736  2.2167  2.0284 -2.6996
 9485SOL    HW240515   3.254   1.167   0.686 -2.6237 -0.9195  0.2150
 9486SOL     OW40516   3.835   8.999   0.150 -0.0190 -0.6664 -0.2533
 9486SOL    HW140517   3.835   8.974   0.247  0.8590  2.8465  0.7575
 9486SOL    HW240518   3.749   9.046   0.128  0.3612 -0.2099 -0.7876
 9487SOL     OW40519   1.582   7.531   7.113  0.2187  0.0889  0.3791
 9487SOL    HW140520   1.669   7.488   7.089 -1.1087 -1.1261 -2.4349
 9487SOL    HW240521   1.525   7.466   7.163  0.1548  0.2280  0.4874
 9488SOL     OW40522   5.727   4.263   5.063 -0.4099 -0.2233  0.2154
 9488SOL    HW140523   5.808   4.311   5.029 -0.3739 -1.4958 -1.5526
 9488SOL    HW240524   5.752   4.171   5.092 -1.2017 -0.6025 -0.2854
 9489SOL     OW40525   3.084   1.027   9.352  0.4928  0.2833 -0.0243
 9489SOL    HW140526   3.148   1.092   9.394 -0.2690  1.5153 -0.7403
 9489SOL    HW240527   3.085   1.039   9.253  0.3717 -0.8489 -0.1757
 9490SOL     OW40528   9.195   1.529   8.912 -0.0022  0.1012 -0.0330
 9490SOL    HW140529   9.096   1.514   8.919 -0.5200  1.0218 -4.1396
 9490SOL    HW240530   9.239   1.445   8.879  0.3542  0.2813 -0.0220
 9491SOL     OW40531   0.317   1.380   7.145  0.3154  0.1389 -0.0232
 9491SOL    HW140532   0.220   1.358   7.133  0.2135 -0.2019  1.3116
 9491SOL    HW240533   0.326   1.478   7.162  0.4188  0.5433 -2.2028
 9492SOL     OW40534   3.375   7.419   3.354  0.0296  0.5966  0.0986
 9492SOL    HW140535   3.307   7.346   3.368  0.0295  0.2168 -1.6839
 9492SOL    HW240536   3.434   7.425   3.434 -1.1921 -0.0523  1.0775
 9493SOL     OW40537   2.202   2.549   0.109  0.1541  0.3301  0.7740
 9493SOL    HW140538   2.114   2.518   0.072 -0.9899  0.8464  2.9807
 9493SOL    HW240539   2.233   2.629   0.057  1.0217 -1.8525 -2.1895
 9494SOL     OW40540   3.844   0.344   8.867  0.2095  0.2415 -0.2280
 9494SOL    HW140541   3.826   0.310   8.959  0.4278  2.0867  0.5181
 9494SOL    HW240542   3.889   0.272   8.813 -0.4336 -1.0387  0.9118
 9495SOL     OW40543   1.961   7.664   0.611  0.6485 -0.8795 -0.1188
 9495SOL    HW140544   1.955   7.756   0.649 -0.6303 -0.1178 -2.1191
 9495SOL    HW240545   1.961   7.597   0.685  0.0796  0.6548  1.2852
 9496SOL     OW40546   2.832   5.907   7.429 -0.2929  0.0461 -0.1170
 9496SOL    HW140547   2.745   5.919   7.381 -1.1386  0.4405  1.4564
 9496SOL    HW240548   2.907   5.937   7.371 -1.1087 -1.3204 -1.9104
 9497SOL     OW40549   1.968   4.269   9.088  0.4382  0.5201  0.0515
 9497SOL    HW140550   1.875   4.231   9.097  0.1166  1.1239 -0.7373
 9497SOL    HW240551   2.026   4.229   9.159  0.0489 -1.2829 -0.6057
 9498SOL     OW40552   2.177   1.110   1.699  0.4965  0.3138 -0.2588
 9498SOL    HW140553   2.238   1.094   1.622  0.3040  0.2325 -0.3935
 9498SOL    HW240554   2.082   1.104   1.669  0.4235  0.7766 -0.1171
 9499SOL     OW40555   2.378   5.935   7.874  0.6320  0.0043 -0.1234
 9499SOL    HW140556   2.322   5.928   7.792  2.4677  0.3148 -1.4335
 9499SOL    HW240557   2.423   5.847   7.892 -2.0345 -0.9255  2.2427
 9500SOL     OW40558   3.712   5.445   8.407 -0.8082 -0.5188 -0.0962
 9500SOL    HW140559   3.783   5.504   8.367 -2.6012 -0.2597 -3.0126
 9500SOL    HW240560   3.628   5.497   8.417 -1.3925 -1.6034  0.7129
 9501SOL     OW40561   4.301   2.969   6.067  0.7455  0.5600  0.1228
 9501SOL    HW140562   4.353   2.883   6.069 -0.1664 -0.0232 -0.8475
 9501SOL    HW240563   4.280   2.993   5.972 -1.7319  0.1957  0.5596
 9502SOL     OW40564   3.577   5.355   5.358  0.4745  0.4605 -0.2665
 9502SOL    HW140565   3.584   5.455   5.356 -0.6629  0.5580  0.2343
 9502SOL    HW240566   3.555   5.322   5.266  0.0078  0.7415 -0.2583
 9503SOL     OW40567   2.804   6.517   0.745  0.1713  0.1866 -0.1199
 9503SOL    HW140568   2.772   6.522   0.839 -0.2274  1.4345 -0.3168
 9503SOL    HW240569   2.898   6.549   0.740  0.7527 -1.4453  0.1109
 9504SOL     OW40570   0.584   2.732   5.937 -0.5490 -0.4533  0.9041
 9504SOL    HW140571   0.663   2.789   5.960 -0.6271  0.1809 -0.3918
 9504SOL    HW240572   0.602   2.638   5.967  0.8687 -0.3990  0.2812
 9505SOL     OW40573   1.092   8.505   7.981 -0.5402  0.9474  0.1903
 9505SOL    HW140574   1.060   8.598   7.962 -0.9677  0.8163  0.2680
 9505SOL    HW240575   1.040   8.440   7.926  0.2209  0.8041 -0.3770
 9506SOL     OW40576   4.038   0.042   0.076 -0.0070 -0.0960  0.2604
 9506SOL    HW140577   4.022   0.028  -0.022 -0.4891  0.4839  0.2514
 9506SOL    HW240578   4.068  -0.044   0.117 -1.6030 -0.8386 -0.0510
 9507SOL     OW40579   0.969   9.415   5.772 -0.2884  0.2009  0.1872
 9507SOL    HW140580   0.876   9.417   5.735  0.1792  1.6122 -0.9736
 9507SOL    HW240581   0.979   9.487   5.840  0.0845  0.3780 -0.0503
 9508SOL     OW40582   2.031   0.382   9.060 -0.3761  0.3976 -0.0189
 9508SOL    HW140583   1.991   0.393   9.151  1.0232  0.0308  0.6684
 9508SOL    HW240584   2.120   0.337   9.069 -1.3147 -1.9009 -1.8039
 9509SOL     OW40585   5.120   0.723   9.066  0.1186  0.2179  0.6817
 9509SOL    HW140586   5.199   0.665   9.083 -0.8650 -0.8865  1.5803
 9509SOL    HW240587   5.071   0.740   9.152  0.7299  2.9112  0.5417
 9510SOL     OW40588   4.167   5.177   8.058 -0.6005  0.8353  0.4568
 9510SOL    HW140589   4.164   5.092   8.005  1.1343  0.3786  1.0541
 9510SOL    HW240590   4.185   5.254   7.997 -1.0132  0.6327  0.0732
 9511SOL     OW40591   1.778   2.040   3.786 -0.4193  0.0326 -1.1423
 9511SOL    HW140592   1.755   2.137   3.790 -1.7414 -0.3602  1.3020
 9511SOL    HW240593   1.722   1.989   3.851  1.1314 -2.2195 -1.5061
 9512SOL     OW40594   1.662   4.541   6.895 -0.6093  0.0134  0.2908
 9512SOL    HW140595   1.691   4.636   6.909 -1.1490  0.4022 -1.1439
 9512SOL    HW240596   1.681   4.488   6.978  2.0601  0.7796  0.2220
 9513SOL     OW40597   3.843   8.061   6.263  0.3777  0.2583 -0.1877
 9513SOL    HW140598   3.783   8.117   6.206 -0.2239  0.8322  0.9948
 9513SOL    HW240599   3.936   8.061   6.225 -0.1488  0.1406 -1.4902
 9514SOL     OW40600   2.586   9.942   1.087  0.2616  0.4195 -0.3191
 9514SOL    HW140601   2.642  10.025   1.086 -0.2406  0.7610 -0.2465
 9514SOL    HW240602   2.599   9.895   1.174  0.5773  0.4047 -0.3747
 9515SOL     OW40603   2.155   2.805   1.969 -0.1320 -0.5170  0.4435
 9515SOL    HW140604   2.159   2.729   1.904 -0.5363  0.2415 -0.4935
 9515SOL    HW240605   2.246   2.845   1.979 -0.6203  1.3345 -2.0869
 9516SOL     OW40606   6.888   6.180   8.458 -0.3222 -0.4243  0.1377
 9516SOL    HW140607   6.875   6.260   8.399 -1.3693 -0.8058 -0.1480
 9516SOL    HW240608   6.936   6.109   8.407  3.1011  0.9940  1.2036
 9517SOL     OW40609   3.449   6.276   0.013  0.1990 -0.3669 -0.2672
 9517SOL    HW140610   3.366   6.281   0.069 -0.3904 -1.2449 -1.0496
 9517SOL    HW240611   3.439   6.202  -0.054  0.3850  1.4832 -2.3801
 9518SOL     OW40612   3.747   6.647   0.881  0.3879 -0.0932  0.4641
 9518SOL    HW140613   3.700   6.701   0.951 -0.2875 -0.6096  0.4064
 9518SOL    HW240614   3.845   6.667   0.886  0.0716  1.7403 -0.0915
 9519SOL     OW40615   0.702   0.105   8.503 -0.0685 -0.0329 -0.4418
 9519SOL    HW140616   0.648   0.187   8.521  0.7962  0.5353 -0.4017
 9519SOL    HW240617   0.773   0.126   8.435  0.1888 -0.7331 -0.3948
 9520SOL     OW40618   2.831   8.780   7.208  0.2157  0.6127 -0.3341
 9520SOL    HW140619   2.746   8.796   7.257 -1.0786 -1.9458 -1.6391
 9520SOL    HW240620   2.813   8.771   7.111  1.7359 -1.4034 -0.4787
 9521SOL     OW40621   9.773   2.802   8.817  0.7339 -0.2032  0.1325
 9521SOL    HW140622   9.720   2.751   8.749  0.5905  0.5535 -0.3333
 9521SOL    HW240623   9.710   2.842   8.885  0.5665  1.7114 -1.1052
 9522SOL     OW40624   9.233   8.770   9.401 -0.2281  0.2001  0.1983
 9522SOL    HW140625   9.167   8.751   9.474 -0.3886 -0.9899 -0.2391
 9522SOL    HW240626   9.243   8.689   9.343  0.2492  0.9807 -0.8329
 9523SOL     OW40627   1.369   4.703   0.772  0.3335  0.5853 -0.5224
 9523SOL    HW140628   1.315   4.638   0.825 -1.6911  3.1594  0.6732
 9523SOL    HW240629   1.458   4.715   0.815 -0.8326  1.7126  1.6491
 9524SOL     OW40630   4.890   5.738   3.361 -0.3920 -0.1612 -0.1356
 9524SOL    HW140631   4.972   5.782   3.398 -0.7368  0.4847 -0.1375
 9524SOL    HW240632   4.883   5.645   3.399  0.5615 -0.3715 -0.4658
 9525SOL     OW40633   3.594   7.586   7.636  0.0813 -0.1139  0.1801
 9525SOL    HW140634   3.556   7.608   7.726 -0.0746  0.9024 -0.1247
 9525SOL    HW240635   3.539   7.631   7.566  0.7436 -0.1712 -0.3748
 9526SOL     OW40636   0.390   5.789   5.559  0.0110 -0.5354 -0.1814
 9526SOL    HW140637   0.371   5.883   5.528  0.9509 -0.6684 -1.1953
 9526SOL    HW240638   0.425   5.791   5.652 -1.0913  0.0265  0.2315
 9527SOL     OW40639   4.536   7.221   0.740 -0.0538 -0.2383  0.2202
 9527SOL    HW140640   4.538   7.298   0.803  0.5348  1.6509 -2.0357
 9527SOL    HW240641   4.446   7.177   0.744 -0.0640 -0.0592  2.2346
 9528SOL     OW40642   5.803   9.523   6.224 -0.1478 -0.0153  0.7144
 9528SOL    HW140643   5.753   9.542   6.309 -1.0497 -0.0786  0.2028
 9528SOL    HW240644   5.891   9.570   6.227 -1.1721  2.0000  0.6643
 9529SOL     OW40645   5.085   5.958   9.072 -0.0337 -0.4780  0.6552
 9529SOL    HW140646   5.074   5.867   9.111  0.0411 -0.9814 -0.4903
 9529SOL    HW240647   5.183   5.979   9.063 -0.0005 -1.6958 -2.2955
 9530SOL     OW40648   5.021   5.023   7.471  0.9083 -0.5930  0.0014
 9530SOL    HW140649   5.120   5.010   7.467  1.1850  0.9928  0.9603
 9530SOL    HW240650   4.996   5.065   7.559 -0.2477  1.7278 -1.3707
 9531SOL     OW40651   3.444   3.596   6.923  0.0514 -0.0442  0.0260
 9531SOL    HW140652   3.387   3.514   6.934  0.0873 -0.0101  0.4877
 9531SOL    HW240653   3.532   3.580   6.967  1.4140 -1.0978 -2.9586
 9532SOL     OW40654   5.248   9.931   9.245  0.7243  0.2438  0.2894
 9532SOL    HW140655   5.207   9.917   9.155 -0.2774  0.3679  0.7167
 9532SOL    HW240656   5.285   9.845   9.279  0.0545 -0.0619  0.2619
 9533SOL     OW40657   7.995   6.628   6.224  0.1444  0.1558 -0.0619
 9533SOL    HW140658   8.055   6.680   6.163  0.1513 -1.1766 -1.2250
 9533SOL    HW240659   8.034   6.625   6.315  0.9040  0.8957 -0.3581
 9534SOL     OW40660   2.711   6.413   9.536  0.2615  0.4208 -0.1171
 9534SOL    HW140661   2.671   6.500   9.562 -0.0992  0.2024  0.0691
 9534SOL    HW240662   2.681   6.389   9.444 -0.8086 -0.1933  0.3797
 9535SOL     OW40663   0.598   7.675   0.482  0.5209 -0.1113 -0.3317
 9535SOL    HW140664   0.603   7.750   0.548  3.0493  3.1405 -4.0008
 9535SOL    HW240665   0.669   7.608   0.503  1.2236  0.8161  0.3364
 9536SOL     OW40666   8.336   7.217   7.909 -0.6239 -0.3424 -0.4565
 9536SOL    HW140667   8.334   7.296   7.971  1.2571  1.1379 -2.1967
 9536SOL    HW240668   8.256   7.219   7.849 -1.2424 -0.4945  0.3495
 9537SOL     OW40669   2.566   6.339   4.557 -0.4785  0.1528  0.2557
 9537SOL    HW140670   2.618   6.311   4.637 -1.0139 -2.4821 -0.2779
 9537SOL    HW240671   2.491   6.399   4.584 -1.9415 -2.3971  2.0175
 9538SOL     OW40672   2.401   7.953   6.496 -0.5187  0.0948  0.6601
 9538SOL    HW140673   2.356   7.931   6.409  0.2062 -0.4330  0.4163
 9538SOL    HW240674   2.333   7.990   6.560 -1.5741 -1.8680  0.7249
 9539SOL     OW40675   9.341   9.882   8.340  0.0227 -0.4648  0.0482
 9539SOL    HW140676   9.298   9.899   8.252 -0.0333 -0.4489  0.0787
 9539SOL    HW240677   9.303   9.944   8.409  0.5273 -0.0360 -0.0537
 9540SOL     OW40678   9.989   4.203   3.426 -0.0879 -1.0954 -0.8214
 9540SOL    HW140679   9.941   4.263   3.490 -0.5604 -0.8809 -1.3653
 9540SOL    HW240680  10.086   4.226   3.424 -0.0791 -1.0756 -0.2168
 9541SOL     OW40681   1.447   1.896   7.463 -0.2067  0.7407  0.2149
 9541SOL    HW140682   1.441   1.803   7.497  0.4250  0.4387 -0.4725
 9541SOL    HW240683   1.478   1.957   7.536  1.1063  0.1122  0.1820
 9542SOL     OW40684   2.490   5.309   9.114  0.2272  0.0416 -0.4404
 9542SOL    HW140685   2.396   5.297   9.144  0.3316 -1.2733 -0.6275
 9542SOL    HW240686   2.539   5.367   9.179 -0.1164 -1.0871  0.8408
 9543SOL     OW40687   2.916   5.493   8.033 -0.2887 -0.1487  0.2320
 9543SOL    HW140688   2.918   5.487   7.933  0.9176  3.4751 -0.0556
 9543SOL    HW240689   2.967   5.416   8.072  2.6317  0.4833 -2.1164
 9544SOL     OW40690   1.178   0.261   4.245  0.4894  0.4998 -0.4415
 9544SOL    HW140691   1.265   0.241   4.199  0.2281  0.1774 -0.7989
 9544SOL    HW240692   1.194   0.326   4.319  1.0791  0.2671 -0.3559
 9545SOL     OW40693   1.959   4.280   7.378 -0.1348 -0.1792 -0.2297
 9545SOL    HW140694   1.996   4.202   7.427 -0.1726  0.1247  0.2884
 9545SOL    HW240695   1.866   4.259   7.347 -0.1265 -0.3564 -0.1327
 9546SOL     OW40696   5.549   5.733   1.364  0.8719 -0.5005  0.4741
 9546SOL    HW140697   5.487   5.735   1.285  0.3606  1.7393  0.8845
 9546SOL    HW240698   5.501   5.767   1.444  1.9005 -1.1503  1.3788
 9547SOL     OW40699   1.232   6.607   8.626 -0.1663  0.1821  0.7825
 9547SOL    HW140700   1.241   6.552   8.543 -0.7047 -0.0700  0.8946
 9547SOL    HW240701   1.135   6.619   8.649 -0.0263  0.4187  1.2643
 9548SOL     OW40702   2.780   7.257   7.947 -0.0273 -0.0630 -0.0673
 9548SOL    HW140703   2.837   7.335   7.920  0.8409 -0.3008  1.0522
 9548SOL    HW240704   2.687   7.289   7.966  0.5219  0.8298  1.1723
 9549SOL     OW40705   2.165   9.737   1.041 -0.1163  0.5238  0.0955
 9549SOL    HW140706   2.232   9.776   1.105  0.8141  0.6402 -0.9411
 9549SOL    HW240707   2.112   9.667   1.089  1.2308 -0.0862  0.7527
 9550SOL     OW40708   2.295   9.008   6.255  0.3583 -0.5500 -0.1451
 9550SOL    HW140709   2.247   9.045   6.335 -0.6947 -0.1700 -0.9374
 9550SOL    HW240710   2.378   9.060   6.239  1.1732 -1.3516  1.3806
 9551SOL     OW40711   9.410   6.195   1.427 -0.9257 -0.7462  0.2086
 9551SOL    HW140712   9.374   6.251   1.502  0.2535  1.3870 -0.7631
 9551SOL    HW240713   9.408   6.249   1.342 -1.2927 -2.7658 -1.0989
 9552SOL     OW40714   2.855   8.250   9.972  0.4140 -0.3679 -0.1458
 9552SOL    HW140715   2.852   8.342   9.932 -1.0732 -0.3067  0.0712
 9552SOL    HW240716   2.769   8.203   9.952  0.8739 -1.4322  0.3990
 9553SOL     OW40717   4.867   7.350   9.917 -0.7483 -0.1608  0.0844
 9553SOL    HW140718   4.870   7.450   9.923 -0.6400 -0.1265 -0.5571
 9553SOL    HW240719   4.849   7.322   9.823  0.9774 -0.7616 -0.0931
 9554SOL     OW40720   4.041   4.372   7.230 -0.1747  0.6050 -0.1963
 9554SOL    HW140721   4.017   4.357   7.326  1.1685  1.4439  0.2788
 9554SOL    HW240722   4.137   4.350   7.215  0.5000  3.5909 -0.6136
 9555SOL     OW40723   4.066   2.700   5.970  0.2442 -0.0387 -0.0185
 9555SOL    HW140724   3.976   2.673   5.937 -0.3622  1.4058  0.4297
 9555SOL    HW240725   4.076   2.671   6.065  0.1113  0.1332  0.0476
 9556SOL     OW40726   1.888   6.320   9.107 -0.5375  0.0608  0.5124
 9556SOL    HW140727   1.842   6.233   9.088 -0.6454  0.1202  0.5003
 9556SOL    HW240728   1.819   6.389   9.129 -0.4084 -0.0165  1.1511
 9557SOL     OW40729   3.811   8.524   7.581  0.8852 -0.3513  0.5697
 9557SOL    HW140730   3.827   8.532   7.482  0.9231  0.2946  0.6242
 9557SOL    HW240731   3.895   8.547   7.630  0.8598 -0.6500  0.7525
 9558SOL     OW40732   2.175   8.409   0.071  0.0841 -0.0635  0.5260
 9558SOL    HW140733   2.267   8.374   0.087  0.6369  1.2261  0.2219
 9558SOL    HW240734   2.180   8.493   0.017 -1.3169 -0.3875 -0.1384
 9559SOL     OW40735   9.505   6.145   4.606  0.1860  1.0038  0.5498
 9559SOL    HW140736   9.563   6.220   4.575  0.7882  0.2289 -0.2442
 9559SOL    HW240737   9.436   6.125   4.536  1.5532 -0.7571 -0.3215
 9560SOL     OW40738   3.792   4.903   9.390  0.0687  0.0116  0.4281
 9560SOL    HW140739   3.851   4.823   9.401  0.1238  0.1155  0.8786
 9560SOL    HW240740   3.810   4.969   9.463  0.1629  0.5247 -0.0497
 9561SOL     OW40741   9.791   5.297   4.665  0.4302  0.5607 -0.2835
 9561SOL    HW140742   9.744   5.316   4.751 -0.0258  0.8208 -0.5902
 9561SOL    HW240743   9.776   5.201   4.639  0.2555  0.5823 -0.2662
 9562SOL     OW40744   0.863   3.604   6.502 -0.3512  0.6010 -0.0681
 9562SOL    HW140745   0.859   3.695   6.460  0.3687  1.1826  1.0838
 9562SOL    HW240746   0.821   3.537   6.441 -0.3751  1.6122 -1.1878
 9563SOL     OW40747   7.365   6.132   7.982  0.0913 -0.5013 -0.1975
 9563SOL    HW140748   7.317   6.092   8.060 -0.8734 -1.2918 -1.1831
 9563SOL    HW240749   7.388   6.059   7.917  1.9391 -0.0245 -0.1063
 9564SOL     OW40750   1.898   9.103   7.357 -0.5221  0.2987  0.4431
 9564SOL    HW140751   1.927   9.009   7.338  0.8406  0.9494 -0.8865
 9564SOL    HW240752   1.831   9.132   7.289 -0.2214  0.5965  0.2678
 9565SOL     OW40753   3.730   9.085   6.852 -0.1773  0.1899  0.1478
 9565SOL    HW140754   3.726   9.148   6.774  1.6757  1.2281  0.8508
 9565SOL    HW240755   3.678   9.123   6.928  0.9727  0.9302  0.5852
 9566SOL     OW40756   7.185   3.563   4.551 -0.3710  0.2198  0.2378
 9566SOL    HW140757   7.176   3.506   4.469 -1.1866 -0.0107  0.4880
 9566SOL    HW240758   7.282   3.569   4.576 -0.3452 -1.8485  0.7664
 9567SOL     OW40759   2.832   1.730   5.393 -0.4285 -0.1959  0.1583
 9567SOL    HW140760   2.860   1.756   5.486 -1.1287  0.8970  0.0795
 9567SOL    HW240761   2.769   1.799   5.357 -0.0091 -0.5061 -1.2037
 9568SOL     OW40762   9.429   6.656   9.288 -0.2627  0.0507 -0.5585
 9568SOL    HW140763   9.429   6.703   9.200  0.7638 -1.7535 -1.5585
 9568SOL    HW240764   9.518   6.669   9.333 -1.3898  2.4638  1.0753
 9569SOL     OW40765   4.658   6.011   6.385 -0.1674  0.0992  0.1963
 9569SOL    HW140766   4.733   6.077   6.389  0.1699 -0.3223  0.7752
 9569SOL    HW240767   4.588   6.046   6.323 -0.1964  1.2254  0.8331
 9570SOL     OW40768   8.367   6.603   7.224 -0.4451  0.0983  0.2480
 9570SOL    HW140769   8.346   6.522   7.279 -0.4540 -0.6240 -0.8183
 9570SOL    HW240770   8.375   6.578   7.128 -0.0977  1.3066 -0.0519
 9571SOL     OW40771   0.705   3.933   4.045 -0.0145  0.0456  0.1362
 9571SOL    HW140772   0.681   3.871   3.971  0.3176 -1.9024  1.6240
 9571SOL    HW240773   0.797   3.969   4.031  0.2787 -0.7916 -0.0793
 9572SOL     OW40774   7.320   5.154   5.981  0.2774 -0.5823 -0.4095
 9572SOL    HW140775   7.346   5.219   6.053  1.2365 -0.8919 -0.4818
 9572SOL    HW240776   7.327   5.198   5.892  1.8482 -1.0682 -0.5338
 9573SOL     OW40777   1.663   3.911   8.154 -0.1718  0.0961 -0.0534
 9573SOL    HW140778   1.587   3.852   8.180  0.8644 -0.5835  1.4915
 9573SOL    HW240779   1.629   4.000   8.126 -1.5050 -0.0901  0.9646
 9574SOL     OW40780   8.164   2.618   4.938 -0.0454 -0.6012 -0.4642
 9574SOL    HW140781   8.072   2.580   4.948  0.7301 -2.1973  0.6535
 9574SOL    HW240782   8.178   2.690   5.006 -0.8062  0.3778 -1.3102
 9575SOL     OW40783   2.899   7.252   1.342  0.4476 -0.0539 -0.0527
 9575SOL    HW140784   2.828   7.260   1.272 -0.6540 -0.5858  0.9876
 9575SOL    HW240785   2.967   7.324   1.329 -0.4711  0.6801 -0.8501
 9576SOL     OW40786   9.000   6.041   5.408  0.8267 -0.1629  0.2203
 9576SOL    HW140787   8.929   6.060   5.476  0.5271 -0.1037 -0.1091
 9576SOL    HW240788   9.026   5.945   5.412  0.1922 -0.3514 -0.1715
 9577SOL     OW40789   6.155   5.912   3.753  0.3998 -0.2913 -0.1545
 9577SOL    HW140790   6.110   5.996   3.724 -0.3223 -0.8927 -0.7574
 9577SOL    HW240791   6.091   5.856   3.806  0.6903 -0.7440 -0.2783
 9578SOL     OW40792   9.325   4.525   2.025 -0.2717 -0.0904  0.3060
 9578SOL    HW140793   9.282   4.443   1.988 -1.2464  1.3402 -1.8424
 9578SOL    HW240794   9.255   4.582   2.069 -0.4332  1.6383 -2.0794
 9579SOL     OW40795   1.694   1.423   9.534 -0.4441  0.1845 -0.4630
 9579SOL    HW140796   1.766   1.401   9.469  0.9287 -1.1119  1.4568
 9579SOL    HW240797   1.637   1.342   9.550 -0.9535  0.5757 -0.2485
 9580SOL     OW40798   9.955   9.575   7.378  0.0333 -0.3760 -0.6307
 9580SOL    HW140799  10.023   9.623   7.434  0.1199 -0.3698 -0.7406
 9580SOL    HW240800   9.926   9.635   7.303  0.6725 -0.7551 -1.1812
 9581SOL     OW40801   9.765   5.982   0.758  0.3281 -0.5821 -0.3520
 9581SOL    HW140802   9.817   6.062   0.727 -0.9439 -0.1864 -1.4878
 9581SOL    HW240803   9.753   5.918   0.682  1.9108 -2.1829  0.7161
 9582SOL     OW40804   0.299   8.120   5.132  0.8667 -0.2806  0.3931
 9582SOL    HW140805   0.233   8.058   5.174  1.0131  0.1061  1.2031
 9582SOL    HW240806   0.250   8.196   5.089  0.7539 -0.2128  0.6370
 9583SOL     OW40807   6.521   7.117   7.144  0.4429 -0.0780 -0.4159
 9583SOL    HW140808   6.562   7.131   7.054 -0.7972 -0.5619 -1.0577
 9583SOL    HW240809   6.425   7.094   7.134  0.7032 -1.8879  0.9651
 9584SOL     OW40810   5.056   2.284   4.672  0.2219  0.1532  0.0503
 9584SOL    HW140811   5.091   2.363   4.622 -1.4356  0.5880 -0.4276
 9584SOL    HW240812   5.039   2.209   4.608  1.8630 -0.6534  0.5087
 9585SOL     OW40813   3.780   1.682   5.758 -0.6082  0.1145  0.6417
 9585SOL    HW140814   3.749   1.597   5.800 -0.1993  0.3432  1.4247
 9585SOL    HW240815   3.847   1.662   5.687 -0.4044 -0.2115  0.9223
 9586SOL     OW40816   8.442   7.053   5.112  0.2769  0.6482  0.4577
 9586SOL    HW140817   8.531   7.029   5.149  1.4327  2.0196 -1.3720
 9586SOL    HW240818   8.404   7.131   5.162 -1.4679 -2.0024  3.4532
 9587SOL     OW40819   9.731   6.304   6.159  0.5726 -0.4008  0.1879
 9587SOL    HW140820   9.674   6.321   6.078  1.4780 -1.5465 -0.7006
 9587SOL    HW240821   9.698   6.222   6.206  1.4927 -1.0797 -0.3391
 9588SOL     OW40822   0.164   7.705   1.370 -0.0410  0.7913  1.2666
 9588SOL    HW140823   0.263   7.700   1.363  0.0135  0.7176  2.1208
 9588SOL    HW240824   0.138   7.784   1.426 -0.4960  1.3970  0.2379
 9589SOL     OW40825   5.360   0.626   9.679 -0.3584 -0.3041 -0.1226
 9589SOL    HW140826   5.359   0.724   9.661 -0.8322 -0.2285  0.3182
 9589SOL    HW240827   5.427   0.606   9.751  1.8480 -0.6576 -2.2187
 9590SOL     OW40828   2.820   1.735   6.135 -0.2513  0.0393  0.8764
 9590SOL    HW140829   2.889   1.663   6.148  0.3114  0.4863  0.3489
 9590SOL    HW240830   2.865   1.823   6.121 -0.9299  0.3030  0.3203
 9591SOL     OW40831   7.265   1.648   3.293 -0.2571  0.2673 -0.3923
 9591SOL    HW140832   7.219   1.712   3.355 -0.5059  0.1211 -0.4249
 9591SOL    HW240833   7.360   1.675   3.283 -0.3576  0.6262 -0.3958
 9592SOL     OW40834   2.908   3.496   9.184 -0.1537  0.1780 -0.3157
 9592SOL    HW140835   2.965   3.436   9.240  0.2768 -0.9227 -1.8797
 9592SOL    HW240836   2.834   3.443   9.143 -0.5471  0.9956 -0.6791
 9593SOL     OW40837   0.225   9.348   9.101  0.0443  0.2347 -0.0076
 9593SOL    HW140838   0.174   9.268   9.132 -2.6554  2.2386  0.9220
 9593SOL    HW240839   0.180   9.431   9.134  3.4588  2.1418  0.1018
 9594SOL     OW40840   1.467   0.876   1.663 -0.2420 -0.0536  0.3059
 9594SOL    HW140841   1.501   0.783   1.650  0.0352  0.0873  0.0460
 9594SOL    HW240842   1.375   0.883   1.624 -0.4635 -0.3538  0.7633
 9595SOL     OW40843   1.676   3.280   5.976 -0.1846  0.4979 -0.5393
 9595SOL    HW140844   1.713   3.346   6.041  1.4018 -0.4469 -0.4647
 9595SOL    HW240845   1.658   3.193   6.022 -1.6552  0.6749 -0.7757
 9596SOL     OW40846   2.558   8.757   8.457  0.2187  0.1146  0.1669
 9596SOL    HW140847   2.532   8.661   8.463  1.6121 -0.3933 -1.5242
 9596SOL    HW240848   2.552   8.787   8.362 -0.4102  1.7682  0.7085
 9597SOL     OW40849   8.677   6.393   7.810  0.1166 -0.1460  0.4430
 9597SOL    HW140850   8.736   6.329   7.860 -0.0184 -0.0713  0.7005
 9597SOL    HW240851   8.733   6.451   7.751  0.2208 -0.6436  0.0470
 9598SOL     OW40852   5.914   5.308   9.692 -0.7615 -0.4852 -0.0591
 9598SOL    HW140853   5.829   5.276   9.734 -1.2893 -0.4232 -1.0527
 9598SOL    HW240854   5.914   5.408   9.689 -2.8037 -0.4922 -4.2340
 9599SOL     OW40855   7.650   6.366   7.126 -0.4596  0.7939 -0.4030
 9599SOL    HW140856   7.570   6.403   7.174 -0.7004 -1.5193  1.0232
 9599SOL    HW240857   7.620   6.320   7.043 -0.7151 -0.5988  0.4371
 9600SOL     OW40858   1.666   6.318   0.362 -0.3709 -0.5453  0.3515
 9600SOL    HW140859   1.665   6.245   0.294 -1.6017 -0.7112  0.5429
 9600SOL    HW240860   1.687   6.405   0.317  2.1293 -1.1458  0.2797
 9601SOL     OW40861   2.504   4.462   8.473 -0.5201  0.3377 -0.2157
 9601SOL    HW140862   2.417   4.508   8.490 -0.5596 -0.0213  0.6147
 9601SOL    HW240863   2.491   4.363   8.483 -0.5431  0.1052 -2.4439
 9602SOL     OW40864   9.792   4.932   9.852 -0.2126 -0.1291  0.2512
 9602SOL    HW140865   9.799   4.865   9.925 -2.7228  0.6095  1.1952
 9602SOL    HW240866   9.735   4.896   9.778 -0.9018  0.6657  0.3974
 9603SOL     OW40867   1.979   9.022   2.406 -0.2658  0.5418  0.7299
 9603SOL    HW140868   1.921   9.070   2.472  0.0826  0.3251  1.1982
 9603SOL    HW240869   2.035   8.955   2.454 -0.2564  0.1392  0.1660
 9604SOL     OW40870   1.942   4.477   8.343  0.2745  0.1971 -0.1574
 9604SOL    HW140871   1.879   4.401   8.360  0.1465  0.0020 -1.4314
 9604SOL    HW240872   1.900   4.562   8.373 -0.8733  0.1509 -1.5984
 9605SOL     OW40873   3.149   6.097   4.449  0.5327  0.3489  0.7782
 9605SOL    HW140874   3.173   6.121   4.355 -0.0397 -0.4282  0.4278
 9605SOL    HW240875   3.052   6.112   4.464  0.3117 -1.0449  0.7704
 9606SOL     OW40876   8.916   3.159   0.379 -0.5719 -0.8849 -0.4087
 9606SOL    HW140877   8.978   3.212   0.322  0.0977 -1.3970 -0.1752
 9606SOL    HW240878   8.969   3.095   0.435 -0.8979  1.9211  3.3011
 9607SOL     OW40879   7.652   7.908   7.228  0.9016 -0.0846  0.0995
 9607SOL    HW140880   7.673   7.814   7.255  0.4642  0.1531  1.3241
 9607SOL    HW240881   7.556   7.915   7.203  0.5873  0.3090  1.3503
 9608SOL     OW40882   0.300   9.996   6.583  0.1384  0.5159  0.6687
 9608SOL    HW140883   0.377   9.975   6.523  0.5016  1.3597  0.8342
 9608SOL    HW240884   0.220   9.943   6.555  0.6509 -0.0248  0.2179
 9609SOL     OW40885   2.729   7.066   7.753  0.0777  0.1992 -0.1746
 9609SOL    HW140886   2.713   7.108   7.664  1.3343  0.7447 -0.1564
 9609SOL    HW240887   2.740   7.137   7.822 -0.0390 -0.2034  0.2610
 9610SOL     OW40888   1.775   6.761   6.793 -0.6096 -0.4319  0.7821
 9610SOL    HW140889   1.742   6.843   6.746 -2.0153 -0.8044  1.0789
 9610SOL    HW240890   1.730   6.680   6.755  0.3377 -1.0088  0.8780
 9611SOL     OW40891   4.575   5.234   2.435 -0.0750  0.2342 -0.3746
 9611SOL    HW140892   4.629   5.317   2.431 -0.7318  0.6945  0.2168
 9611SOL    HW240893   4.518   5.235   2.517 -0.7750 -0.3678 -0.8464
 9612SOL     OW40894   8.417   4.799   5.931 -0.3165  0.1376  0.3539
 9612SOL    HW140895   8.343   4.848   5.885 -1.2593 -0.2256  1.4643
 9612SOL    HW240896   8.455   4.730   5.870 -0.6045  0.6268 -0.3751
 9613SOL     OW40897   4.678   2.846   1.916  0.0753  0.6438 -0.5324
 9613SOL    HW140898   4.719   2.881   2.000 -0.6597 -0.6797  0.3989
 9613SOL    HW240899   4.721   2.759   1.892  0.4690  1.1508 -1.6786
 9614SOL     OW40900   6.798   7.432   5.664  0.6535  0.6046  0.1702
 9614SOL    HW140901   6.837   7.515   5.622  1.2825 -0.2526 -0.9833
 9614SOL    HW240902   6.851   7.352   5.635 -1.7314 -0.5561 -1.1463
 9615SOL     OW40903   7.316   2.316   7.929 -0.3052 -0.0412 -0.4882
 9615SOL    HW140904   7.224   2.277   7.936 -0.5366  0.6876  0.6680
 9615SOL    HW240905   7.383   2.253   7.968 -0.4422 -0.1240 -0.3908
 9616SOL     OW40906   2.774   6.925   0.591  0.1521 -0.0366 -0.2931
 9616SOL    HW140907   2.779   6.977   0.506  1.4968 -0.8917 -0.7348
 9616SOL    HW240908   2.703   6.855   0.582  1.1930 -0.9966 -1.2035
 9617SOL     OW40909   3.959   5.381   1.121 -0.7077 -0.0708 -0.6838
 9617SOL    HW140910   3.983   5.365   1.216  0.0711  0.3691 -0.8005
 9617SOL    HW240911   3.895   5.311   1.090 -1.7321  0.3434  0.4412
 9618SOL     OW40912   6.363   8.785   7.830  0.0562 -0.2853  0.6639
 9618SOL    HW140913   6.290   8.769   7.764 -0.7023  2.5151  0.7623
 9618SOL    HW240914   6.451   8.762   7.789 -0.4209  1.2468 -1.3011
 9619SOL     OW40915   1.391   7.700   7.583  0.2234  0.1995  0.2375
 9619SOL    HW140916   1.488   7.724   7.578  0.2620 -0.0368 -0.1784
 9619SOL    HW240917   1.366   7.683   7.679  0.4156  0.9764  0.4278
 9620SOL     OW40918   9.668   1.620   8.366 -0.2173  0.1497  0.7403
 9620SOL    HW140919   9.594   1.575   8.316 -1.1391  1.4791  0.8798
 9620SOL    HW240920   9.653   1.719   8.368  1.2352  0.3894  1.3156
 9621SOL     OW40921   0.172   7.407   0.781 -0.4935 -0.1678 -0.2738
 9621SOL    HW140922   0.138   7.501   0.785  0.0121  0.0442 -0.9698
 9621SOL    HW240923   0.217   7.391   0.693 -3.3585 -2.0065 -1.5200
 9622SOL     OW40924   7.672   3.493   7.649  0.2030 -0.0158 -0.3451
 9622SOL    HW140925   7.651   3.586   7.620  1.1084  0.5170  0.6541
 9622SOL    HW240926   7.588   3.438   7.648 -0.2624  0.6923 -1.3284
 9623SOL     OW40927   1.917   9.743   6.014 -0.7300  0.9229  0.4385
 9623SOL    HW140928   1.826   9.702   6.008 -0.5043  0.1125  2.1997
 9623SOL    HW240929   1.913   9.825   6.071 -0.4505  1.1357  0.1509
 9624SOL     OW40930   1.096   5.643   3.713  0.3372 -0.4012 -0.2003
 9624SOL    HW140931   1.152   5.724   3.733 -0.7185  0.1284  0.6911
 9624SOL    HW240932   1.148   5.579   3.657  2.6996 -0.9785  2.5048
 9625SOL     OW40933   2.880   6.463   0.176  0.1101 -0.1169  0.1056
 9625SOL    HW140934   2.835   6.447   0.088 -0.3407 -0.8786  0.4684
 9625SOL    HW240935   2.831   6.535   0.225 -0.0795 -0.2003  0.0420
 9626SOL     OW40936   4.343   6.525   9.702  0.1121  0.0143 -0.1279
 9626SOL    HW140937   4.366   6.432   9.674 -0.7467 -0.8292  1.8718
 9626SOL    HW240938   4.405   6.555   9.775 -0.6201  0.4030  0.3455
 9627SOL     OW40939   2.726   9.046   6.465  0.0146  0.1744 -0.1904
 9627SOL    HW140940   2.696   9.041   6.560 -0.8186 -0.2161 -0.4691
 9627SOL    HW240941   2.704   9.136   6.428  0.2616  0.2966 -0.0447
 9628SOL     OW40942   1.378   1.451   8.752 -0.4642 -0.2573 -0.6032
 9628SOL    HW140943   1.351   1.420   8.844 -3.1640 -1.7251 -1.8233
 9628SOL    HW240944   1.426   1.538   8.759 -0.8095 -0.2358  2.1823
 9629SOL     OW40945   6.256   4.329   9.378  0.0703  0.0332  0.1687
 9629SOL    HW140946   6.255   4.420   9.418 -0.3071  0.0479  0.1254
 9629SOL    HW240947   6.319   4.271   9.430 -2.0815 -0.5711  2.1797
 9630SOL     OW40948   0.245   8.069   8.976  0.3841 -0.2655  0.7077
 9630SOL    HW140949   0.338   8.088   9.008 -0.0493  1.0346  1.2287
 9630SOL    HW240950   0.179   8.101   9.043 -0.4773 -0.1010 -0.1985
 9631SOL     OW40951   0.843   5.156   0.455 -1.0436  0.3664  0.0709
 9631SOL    HW140952   0.806   5.089   0.518 -0.0470  0.1535  0.4420
 9631SOL    HW240953   0.776   5.228   0.438 -1.2267  0.5432  1.5438
 9632SOL     OW40954   9.595   5.421   4.382 -0.0628 -0.1008 -0.2106
 9632SOL    HW140955   9.666   5.429   4.312  1.1050  1.8050  1.1710
 9632SOL    HW240956   9.621   5.473   4.463 -2.7187  0.0456  0.5962
 9633SOL     OW40957   2.303   2.683   2.938  0.4547  0.1074 -0.0181
 9633SOL    HW140958   2.268   2.630   3.016 -2.0522  0.8137 -0.6171
 9633SOL    HW240959   2.269   2.777   2.945 -0.6451 -0.0785 -2.4800
 9634SOL     OW40960   2.184   5.004   8.097 -0.0575 -0.2902  0.3793
 9634SOL    HW140961   2.273   5.010   8.142  0.0936  2.8808 -0.1617
 9634SOL    HW240962   2.196   4.979   8.001  0.4871  2.0753 -0.2049
 9635SOL     OW40963   0.220   7.186   6.527 -0.2761 -0.2829 -0.6932
 9635SOL    HW140964   0.196   7.278   6.559 -0.3772 -0.9189  1.1523
 9635SOL    HW240965   0.289   7.147   6.588 -1.9719 -2.3221 -0.0267
 9636SOL     OW40966   2.604   7.419   1.965 -0.6107 -0.3173 -0.0813
 9636SOL    HW140967   2.595   7.327   1.927 -1.0404 -0.0752 -0.5838
 9636SOL    HW240968   2.611   7.485   1.890 -1.0230  0.1257  0.2660
 9637SOL     OW40969   0.468   7.825   7.024 -0.4490  0.0905 -0.5954
 9637SOL    HW140970   0.468   7.745   6.964 -1.3612 -0.3621  0.0030
 9637SOL    HW240971   0.510   7.902   6.976 -0.7943 -0.3808 -1.6735
 9638SOL     OW40972   2.137   6.791   9.858 -0.0762  0.2665  0.0299
 9638SOL    HW140973   2.051   6.772   9.812 -0.0710 -0.8155  0.4595
 9638SOL    HW240974   2.154   6.722   9.928  0.5652  1.1472  0.7537
 9639SOL     OW40975   2.648   0.386   9.749 -0.0408 -0.3217  0.4090
 9639SOL    HW140976   2.733   0.335   9.735 -0.4865 -0.8478 -0.4808
 9639SOL    HW240977   2.668   0.482   9.764  0.7721 -0.6336  1.3229
 9640SOL     OW40978   3.705   4.429   8.593  0.2391 -0.0814 -0.2029
 9640SOL    HW140979   3.644   4.359   8.630 -0.9745  0.7407 -0.6459
 9640SOL    HW240980   3.748   4.479   8.668 -0.0174 -0.3169  0.0972
 9641SOL     OW40981   7.265   4.362   7.699  0.1258  0.2125 -0.2267
 9641SOL    HW140982   7.244   4.408   7.612 -0.7312  1.0726  0.4280
 9641SOL    HW240983   7.243   4.265   7.691  0.5176  0.1920 -1.1353
 9642SOL     OW40984   0.435   6.275   9.626 -0.5186  0.8314  0.2564
 9642SOL    HW140985   0.369   6.210   9.663  0.3619  0.0138  0.4243
 9642SOL    HW240986   0.431   6.273   9.526  0.2325 -0.2484  0.2448
 9643SOL     OW40987   4.070   6.999   9.992  0.1645 -0.5331 -0.3182
 9643SOL    HW140988   4.064   6.900   9.995  1.5591 -0.5943  0.4927
 9643SOL    HW240989   4.031   7.032   9.906 -0.7850 -1.7390 -0.3503
 9644SOL     OW40990   2.023   5.952   7.561  0.4524 -0.0004  0.3132
 9644SOL    HW140991   1.942   6.005   7.584  0.9673  1.1890 -0.5772
 9644SOL    HW240992   2.028   5.940   7.462  1.7474  0.5657  0.3021
 9645SOL     OW40993   7.504   4.674   5.210  0.1490 -0.2346 -0.0182
 9645SOL    HW140994   7.471   4.768   5.214 -0.1444 -0.3318 -0.0970
 9645SOL    HW240995   7.586   4.669   5.154  0.5991  0.0968  0.6074
 9646SOL     OW40996   4.032   8.032   5.063  0.2536 -0.2183 -0.0536
 9646SOL    HW140997   4.030   7.973   5.143  0.0933 -0.4960 -0.2642
 9646SOL    HW240998   4.089   8.112   5.082  1.2561 -0.9174 -0.0984
 9647SOL     OW40999   4.278   3.309   7.800 -0.2195  0.2118 -0.4885
 9647SOL    HW141000   4.260   3.406   7.811 -2.4214 -0.0441 -1.4965
 9647SOL    HW241001   4.237   3.277   7.714 -0.1853 -1.7458  0.1864
 9648SOL     OW41002   8.760   7.050   9.442  0.0936 -0.3527 -0.2643
 9648SOL    HW141003   8.781   7.037   9.539  0.2669  0.3054 -0.2119
 9648SOL    HW241004   8.729   7.144   9.426  0.0870 -0.4479 -0.8518
 9649SOL     OW41005   9.796   5.621   0.323  0.2474  0.0216 -0.3820
 9649SOL    HW141006   9.704   5.599   0.291 -0.2892  1.4435  0.1407
 9649SOL    HW241007   9.833   5.544   0.374  0.5513 -1.7307 -3.1276
 9650SOL     OW41008   4.218   5.959   5.729 -0.2822  0.0986  0.1805
 9650SOL    HW141009   4.190   5.867   5.701 -0.5347  0.3062 -0.2563
 9650SOL    HW241010   4.153   5.995   5.797  0.1112 -0.2513  0.7474
 9651SOL     OW41011   9.701   8.528   7.491  0.4342  0.5934 -0.0924
 9651SOL    HW141012   9.664   8.603   7.436  1.2874  2.1047  1.3421
 9651SOL    HW241013   9.777   8.485   7.442  0.5718  1.3055 -0.5029
 9652SOL     OW41014   1.601   5.587   8.687 -0.3951  0.3331 -0.3622
 9652SOL    HW141015   1.685   5.628   8.721 -0.9807 -0.0118  1.5492
 9652SOL    HW241016   1.525   5.651   8.699 -0.4665  0.5508 -1.8523
 9653SOL     OW41017   4.769   6.075   7.396 -0.3189  0.4003  0.3454
 9653SOL    HW141018   4.774   6.019   7.478 -2.7984  0.3510  0.4788
 9653SOL    HW241019   4.789   6.171   7.419  0.5906  0.1336  0.6954
 9654SOL     OW41020   0.716   9.802   8.846 -0.0154 -0.0700 -0.3332
 9654SOL    HW141021   0.759   9.731   8.791 -1.4974  0.1697 -1.8626
 9654SOL    HW241022   0.697   9.767   8.938 -0.2914 -1.5003 -0.9228
 9655SOL     OW41023   4.005   9.060   8.763 -0.4713 -0.0747 -0.3942
 9655SOL    HW141024   4.037   8.965   8.770  1.1352  0.3666 -1.4179
 9655SOL    HW241025   4.042   9.101   8.680 -1.8430  1.2038 -0.3792
 9656SOL     OW41026   0.504   5.178   0.529  0.4603  0.0604 -0.2280
 9656SOL    HW141027   0.456   5.263   0.506  1.0980  0.5974  0.3880
 9656SOL    HW241028   0.561   5.150   0.452  0.2899  0.2227 -0.4127
 9657SOL     OW41029   9.787   0.692   7.983 -0.8320  0.2620 -0.3842
 9657SOL    HW141030   9.838   0.607   7.968  0.1957  0.5175  1.4520
 9657SOL    HW241031   9.773   0.739   7.896  0.2111 -0.8736 -1.1805
 9658SOL     OW41032   7.638   9.124   6.427 -0.3361 -0.4786 -0.4167
 9658SOL    HW141033   7.577   9.203   6.416  0.7761  0.1356 -2.4259
 9658SOL    HW241034   7.594   9.056   6.487 -0.5903  2.3838  2.8344
 9659SOL     OW41035   1.969   6.176   0.519  0.0911 -0.1983 -0.3117
 9659SOL    HW141036   2.053   6.149   0.471 -0.2615 -2.1794  0.1210
 9659SOL    HW241037   1.890   6.135   0.472 -0.4779  0.1787  0.3179
 9660SOL     OW41038   3.686   7.434   4.160 -0.3931 -0.5617  0.2012
 9660SOL    HW141039   3.689   7.383   4.246  1.2722  0.4446  0.7593
 9660SOL    HW241040   3.663   7.529   4.178 -1.3407 -0.6316 -0.6132
 9661SOL     OW41041   7.836   7.634   5.112  0.0291  0.0556  0.0718
 9661SOL    HW141042   7.934   7.653   5.109  0.3549 -1.5706  0.1044
 9661SOL    HW241043   7.790   7.687   5.040  0.9670  0.5239 -0.1942
 9662SOL     OW41044   9.475   5.214   7.639  1.1224 -0.0489  0.5227
 9662SOL    HW141045   9.467   5.117   7.665  1.7388  0.3878  2.3844
 9662SOL    HW241046   9.547   5.224   7.571  1.4977 -0.8197  0.7923
 9663SOL     OW41047   1.287   6.186   6.620 -0.2342 -0.2167 -0.4217
 9663SOL    HW141048   1.232   6.156   6.542 -0.0904 -0.9778 -0.2344
 9663SOL    HW241049   1.378   6.144   6.615  0.5035  1.4213 -0.9926
 9664SOL     OW41050   3.298   6.138   1.741 -0.3326 -0.3369  0.3666
 9664SOL    HW141051   3.261   6.193   1.666  0.2430  0.1604  0.4397
 9664SOL    HW241052   3.307   6.043   1.712  1.6715  0.1968 -0.8347
 9665SOL     OW41053   1.275   3.313   7.234 -0.0165  0.2647 -0.3258
 9665SOL    HW141054   1.236   3.257   7.306  4.4856 -0.3945  1.7818
 9665SOL    HW241055   1.336   3.258   7.178  1.5635  2.1904 -0.5799
 9666SOL     OW41056   1.258   4.588   3.699  0.1240  0.1651  0.4762
 9666SOL    HW141057   1.308   4.564   3.783  0.0608 -1.8985 -0.0386
 9666SOL    HW241058   1.320   4.585   3.621 -0.2940 -0.1364  0.1502
 9667SOL     OW41059   4.708   6.038   5.717 -0.1717  0.0674  0.1303
 9667SOL    HW141060   4.808   6.030   5.715 -0.1265  0.8257 -0.7491
 9667SOL    HW241061   4.677   6.037   5.812  0.8870  2.3065  0.5468
 9668SOL     OW41062   6.125   7.479   2.428 -0.0447  0.1188  0.1368
 9668SOL    HW141063   6.197   7.456   2.363 -1.1092 -0.4732 -0.8650
 9668SOL    HW241064   6.082   7.395   2.461 -0.1716  0.4573  0.8407
 9669SOL     OW41065   8.804   2.819   0.219  0.3555  0.4277 -0.3909
 9669SOL    HW141066   8.768   2.792   0.308  1.5033  2.2956  0.6792
 9669SOL    HW241067   8.900   2.792   0.212  0.8326  2.0243 -0.2553
 9670SOL     OW41068   4.623   4.808   5.773  0.1872  0.0837  0.0364
 9670SOL    HW141069   4.693   4.737   5.774 -0.0560 -0.1484  0.5438
 9670SOL    HW241070   4.555   4.786   5.703  1.8650  1.5264 -2.1234
 9671SOL     OW41071   0.934   1.377   6.538 -0.2421 -0.0965  0.0081
 9671SOL    HW141072   0.897   1.284   6.532  2.2398 -1.0431 -1.0238
 9671SOL    HW241073   1.022   1.375   6.585  0.4337  1.5862 -1.1568
 9672SOL     OW41074   1.475   5.726   7.131 -0.1199  0.3144 -0.9598
 9672SOL    HW141075   1.425   5.640   7.123  0.4444 -0.0302 -0.8346
 9672SOL    HW241076   1.412   5.803   7.121 -1.0326 -0.0937  1.2230
 9673SOL     OW41077   2.001   4.843   5.781 -0.6195  0.0286  0.4905
 9673SOL    HW141078   1.987   4.797   5.869 -2.3916 -1.5081 -0.5494
 9673SOL    HW241079   2.042   4.779   5.717 -1.7096  0.3530 -0.5429
 9674SOL     OW41080   2.234   6.583   7.660  0.2107 -0.4957 -0.8179
 9674SOL    HW141081   2.171   6.547   7.729  0.0117  0.0592 -0.7063
 9674SOL    HW241082   2.280   6.507   7.613 -0.3533 -0.8952 -0.7252
 9675SOL     OW41083   3.107   2.328   2.482 -0.5000 -0.0728 -0.2957
 9675SOL    HW141084   3.041   2.374   2.421 -0.3770 -0.5221 -0.7711
 9675SOL    HW241085   3.195   2.320   2.435 -0.8440 -1.8553 -0.6650
 9676SOL     OW41086   3.560   1.448   4.149  0.0636 -0.3220 -0.5356
 9676SOL    HW141087   3.512   1.432   4.235  1.2235 -0.8266  0.0187
 9676SOL    HW241088   3.525   1.385   4.079 -1.2160  0.4144 -0.5735
 9677SOL     OW41089   1.952   4.492   0.048 -0.1275  0.0782  0.0331
 9677SOL    HW141090   1.966   4.585   0.013  2.2721  0.4023  1.7335
 9677SOL    HW241091   1.883   4.494   0.120 -1.2414  0.2503 -1.0129
 9678SOL     OW41092   0.310   9.078   8.031  0.2156  0.0354 -0.1055
 9678SOL    HW141093   0.402   9.116   8.020  0.6396 -1.1193 -0.7040
 9678SOL    HW241094   0.257   9.093   7.948  0.3699 -0.6082 -0.3276
 9679SOL     OW41095   0.076   2.989   3.460  0.1609  0.0918 -0.2961
 9679SOL    HW141096   0.001   2.997   3.526  0.2972 -0.3021 -0.0930
 9679SOL    HW241097   0.153   3.046   3.490  0.7278 -1.1067  0.5918
 9680SOL     OW41098   6.616   5.207   8.750  0.1169 -0.0939  0.0328
 9680SOL    HW141099   6.550   5.204   8.825  0.4142 -1.7681  0.2525
 9680SOL    HW241100   6.707   5.227   8.785 -0.1446  1.5268 -0.1859
 9681SOL     OW41101   9.213   9.917   0.088 -0.3580 -0.8352  0.0914
 9681SOL    HW141102   9.125   9.945   0.126 -0.1546  0.6033 -0.4662
 9681SOL    HW241103   9.201   9.835   0.032 -0.9402 -1.9950  1.8636
 9682SOL     OW41104   4.075   7.917   8.826 -0.1746  0.1470 -0.2821
 9682SOL    HW141105   4.095   7.963   8.739  0.7800 -0.3836 -0.3483
 9682SOL    HW241106   3.994   7.959   8.868 -0.1042  1.0012 -0.9864
 9683SOL     OW41107   1.772   3.391   9.196 -0.4222  0.3048 -0.5701
 9683SOL    HW141108   1.700   3.460   9.183 -1.3688 -1.1228 -3.1622
 9683SOL    HW241109   1.861   3.433   9.180 -0.9010  1.2357 -0.8685
 9684SOL     OW41110   3.108   3.591   5.938 -0.6767 -0.5242  0.2326
 9684SOL    HW141111   3.111   3.596   6.038 -0.4525 -2.6393  0.3606
 9684SOL    HW241112   3.053   3.512   5.910 -1.2898  0.4411 -1.3295
 9685SOL     OW41113   0.847   3.829   6.320 -0.5702 -0.0969 -0.1596
 9685SOL    HW141114   0.852   3.779   6.234 -1.7542 -0.5846  0.0480
 9685SOL    HW241115   0.925   3.891   6.327 -0.2213 -0.3853 -1.3694
 9686SOL     OW41116   0.689   8.116   9.621  0.0462 -0.0325 -0.2797
 9686SOL    HW141117   0.754   8.040   9.624 -0.1023 -0.1976 -1.1588
 9686SOL    HW241118   0.677   8.153   9.713  1.5888  0.1722 -0.1395
 9687SOL     OW41119   9.688   1.168   6.307 -0.0664  0.1526 -0.6355
 9687SOL    HW141120   9.695   1.108   6.228 -0.1848  0.9586 -1.2619
 9687SOL    HW241121   9.613   1.137   6.366  0.7602 -1.1175 -0.2524
 9688SOL     OW41122   0.244   2.425   1.518 -0.6439 -0.1997 -0.7250
 9688SOL    HW141123   0.168   2.369   1.552  0.4172 -1.3030 -0.1780
 9688SOL    HW241124   0.290   2.378   1.444 -0.9250  0.7889 -1.5361
 9689SOL     OW41125   2.135   4.446   2.092 -0.1448 -0.2177  0.1624
 9689SOL    HW141126   2.132   4.488   2.001  1.9539 -1.4769 -0.5248
 9689SOL    HW241127   2.081   4.362   2.091  0.8912 -0.8890 -0.2945
 9690SOL     OW41128   0.955   7.832   1.379 -0.2030  0.8352  0.3938
 9690SOL    HW141129   0.974   7.770   1.455 -1.0213 -2.0957 -1.6787
 9690SOL    HW241130   1.020   7.814   1.305 -1.3757  1.4394 -0.7993
 9691SOL     OW41131   5.111   0.913   7.960 -0.3266 -0.0230 -0.0428
 9691SOL    HW141132   5.059   0.989   7.921 -0.4190 -0.0884 -0.0480
 9691SOL    HW241133   5.086   0.828   7.913  0.2834  0.0478 -0.5092
 9692SOL     OW41134   2.928   3.606   3.741  0.3591  0.2690  0.5987
 9692SOL    HW141135   2.875   3.559   3.670 -0.9940 -0.2793  1.9476
 9692SOL    HW241136   2.945   3.543   3.817 -0.0123  1.4738  1.6890
 9693SOL     OW41137   5.469   1.468   7.990 -0.5748  0.1889  0.1777
 9693SOL    HW141138   5.532   1.481   7.914  0.0706  1.0793  0.8512
 9693SOL    HW241139   5.462   1.371   8.011 -1.6368 -0.1746 -1.7338
 9694SOL     OW41140   9.800   5.400   9.774 -0.2721 -0.3137  0.2176
 9694SOL    HW141141   9.744   5.480   9.754 -0.3288 -0.0968  1.2047
 9694SOL    HW241142   9.743   5.328   9.812 -0.3655 -1.1403 -1.4868
 9695SOL     OW41143   4.254   6.673   1.135  0.4028  0.1501  0.1558
 9695SOL    HW141144   4.313   6.685   1.215  2.0920  0.5345 -1.1258
 9695SOL    HW241145   4.200   6.590   1.146  2.8499 -1.4617  0.3319
 9696SOL     OW41146   0.629   0.935   4.659  0.0064  0.3759 -0.4328
 9696SOL    HW141147   0.684   0.892   4.731 -0.1909  0.6644 -0.1109
 9696SOL    HW241148   0.670   1.023   4.634 -0.1052  0.4240 -0.4473
 9697SOL     OW41149   8.807   0.019   9.384 -0.1337 -0.2347 -0.3912
 9697SOL    HW141150   8.783   0.098   9.328 -0.0513 -0.6619 -1.0266
 9697SOL    HW241151   8.900  -0.010   9.362 -0.5424 -1.1681 -0.9241
 9698SOL     OW41152   2.142   7.768   2.208  0.3611  0.0110  0.1098
 9698SOL    HW141153   2.118   7.768   2.111  0.7034 -0.5336  0.0213
 9698SOL    HW241154   2.090   7.695   2.255  1.0963 -0.5260  0.1030
 9699SOL     OW41155   3.513   8.487   2.229 -0.4387 -0.6371 -0.3282
 9699SOL    HW141156   3.466   8.411   2.185  1.4413 -1.5749 -0.7524
 9699SOL    HW241157   3.570   8.535   2.161  0.5213 -0.5574  0.5186
 9700SOL     OW41158   1.640   2.992   0.550  0.0033 -0.4236 -0.0479
 9700SOL    HW141159   1.655   3.083   0.512 -0.5562 -0.0591  0.5952
 9700SOL    HW241160   1.673   2.923   0.486  3.2631  0.3062  0.7566
 9701SOL     OW41161   7.981   8.061   0.058  0.6286 -0.3097 -0.1234
 9701SOL    HW141162   7.891   8.017   0.055  0.3084  0.4114 -1.2230
 9701SOL    HW241163   7.970   8.160   0.050  1.4469 -0.1182  0.9743
 9702SOL     OW41164   1.552   6.059   9.960 -0.1895  0.4849  0.0814
 9702SOL    HW141165   1.509   6.044  10.049  1.0975 -2.0356  0.3331
 9702SOL    HW241166   1.650   6.040   9.966 -0.2306 -0.6927 -2.0542
 9703SOL     OW41167   3.705   9.549   8.958  0.0993 -0.2163  0.4028
 9703SOL    HW141168   3.616   9.511   8.982 -0.6875  1.1252 -0.3077
 9703SOL    HW241169   3.692   9.636   8.911  1.6708 -1.2549 -2.0553
 9704SOL     OW41170   2.988   6.717   0.635  0.7704  0.2933 -0.5187
 9704SOL    HW141171   3.021   6.790   0.575  0.3772  1.0310  0.1429
 9704SOL    HW241172   2.889   6.726   0.646  0.9811  0.8865  1.1553
 9705SOL     OW41173   4.212   5.637   6.879  0.2323 -0.9420 -0.1711
 9705SOL    HW141174   4.159   5.593   6.807 -0.2343 -0.5319 -0.0727
 9705SOL    HW241175   4.195   5.735   6.879  1.2675 -0.7515 -0.3812
 9706SOL     OW41176   0.978   3.196   7.780  0.9069  0.4309 -0.0196
 9706SOL    HW141177   0.887   3.226   7.808 -0.2278 -2.0057 -0.9382
 9706SOL    HW241178   1.037   3.190   7.860 -0.0923  0.8123  0.7588
 9707SOL     OW41179   3.370   0.485   6.891 -0.2384 -0.4892  0.3022
 9707SOL    HW141180   3.379   0.581   6.867 -1.3388 -0.0190  1.7091
 9707SOL    HW241181   3.361   0.430   6.808  2.7104  0.3364 -0.6238
 9708SOL     OW41182   7.616   4.848   0.773 -0.1614 -0.3745 -0.4715
 9708SOL    HW141183   7.629   4.932   0.825 -1.3740 -1.6804  2.0668
 9708SOL    HW241184   7.537   4.858   0.713 -0.3777  0.2831 -0.0887
 9709SOL     OW41185   6.159   3.137   9.259 -0.1736 -0.4406 -0.2416
 9709SOL    HW141186   6.216   3.206   9.214 -0.5481 -1.3192 -2.0982
 9709SOL    HW241187   6.121   3.175   9.344  0.8300  1.1136 -0.4697
 9710SOL     OW41188   3.282   1.633   8.760 -0.3307  0.5390 -0.5045
 9710SOL    HW141189   3.197   1.661   8.805 -0.0645  3.0361 -1.4709
 9710SOL    HW241190   3.263   1.557   8.698 -1.8876  1.1849 -0.8482
 9711SOL     OW41191   2.447   8.571   7.613  0.0029  0.0093  0.7082
 9711SOL    HW141192   2.397   8.644   7.567  2.0588 -0.2219 -1.9907
 9711SOL    HW241193   2.382   8.507   7.655 -1.8563  1.5859  0.3182
 9712SOL     OW41194   3.218   4.538   1.177  0.2368  0.3350  0.5937
 9712SOL    HW141195   3.306   4.582   1.193  0.4676  0.1645 -0.2342
 9712SOL    HW241196   3.223   4.479   1.097 -0.4512 -0.1691  0.9139
 9713SOL     OW41197   4.377   6.683   7.167  0.4316  0.0850  0.0282
 9713SOL    HW141198   4.409   6.775   7.187  1.2155 -0.8397  3.2510
 9713SOL    HW241199   4.290   6.667   7.214  0.2158 -0.7748 -0.6463
 9714SOL     OW41200   4.680   6.877   8.998  0.7830 -0.5083 -0.0784
 9714SOL    HW141201   4.665   6.780   8.983  0.2675 -0.5112  0.4480
 9714SOL    HW241202   4.640   6.904   9.086  1.0323  0.1496 -0.1653
 9715SOL     OW41203   3.502   0.078   7.972  0.1496 -0.1498  0.5255
 9715SOL    HW141204   3.488  -0.016   8.002  1.4021 -0.7191 -0.5959
 9715SOL    HW241205   3.432   0.102   7.904  0.0008 -0.3819  0.5972
 9716SOL     OW41206   3.646   8.962   3.547  0.2047 -0.4717 -0.2078
 9716SOL    HW141207   3.673   9.004   3.460 -0.4264  0.0441 -0.1581
 9716SOL    HW241208   3.642   9.033   3.618 -0.5522 -0.6645 -0.0519
 9717SOL     OW41209   5.746   4.375   9.465  1.3378  0.3879  0.4232
 9717SOL    HW141210   5.696   4.368   9.378  0.4927  0.3324  0.9111
 9717SOL    HW241211   5.825   4.435   9.453  2.6624 -1.5820 -1.0481
 9718SOL     OW41212   2.541   3.587   9.829  0.0445  0.7073  0.0438
 9718SOL    HW141213   2.562   3.579   9.926  0.6691 -0.3998 -0.1697
 9718SOL    HW241214   2.531   3.683   9.804  0.5301  1.0204  1.0647
 9719SOL     OW41215   9.044   6.524   7.860 -0.4429 -0.0653  0.0188
 9719SOL    HW141216   9.031   6.429   7.832 -1.5613  0.1406 -0.1934
 9719SOL    HW241217   9.106   6.528   7.938  0.7583 -0.8479 -0.8775
 9720SOL     OW41218   1.655   6.496   9.125  0.1399 -0.3955 -1.0158
 9720SOL    HW141219   1.584   6.475   9.192  1.6773  0.9628  1.1002
 9720SOL    HW241220   1.638   6.586   9.085  0.5163 -0.2014 -0.7362
 9721SOL     OW41221   2.618   5.197   0.563  0.1076  0.3683 -0.3060
 9721SOL    HW141222   2.651   5.202   0.657  0.8405  1.4837 -0.6173
 9721SOL    HW241223   2.617   5.101   0.533  0.2294  0.0494  0.7086
 9722SOL     OW41224   4.967   5.972   9.915  0.1991 -0.0119  0.3302
 9722SOL    HW141225   4.895   5.907   9.938 -0.0668  0.5502  1.1115
 9722SOL    HW241226   4.944   6.062   9.952  0.8437  0.3958 -0.2385
 9723SOL     OW41227   2.283   8.670   6.803  0.2940  0.5056 -0.1317
 9723SOL    HW141228   2.287   8.671   6.703 -0.3538  3.4511 -0.1899
 9723SOL    HW241229   2.209   8.609   6.833 -1.4576  1.8491 -1.5809
 9724SOL     OW41230   9.862   5.574   8.785 -0.0506 -0.2301  0.0661
 9724SOL    HW141231   9.913   5.617   8.859  0.1810  1.5359 -1.0860
 9724SOL    HW241232   9.899   5.604   8.697 -2.2273  0.0638 -0.7773
 9725SOL     OW41233   6.533   1.795   0.582  0.0125 -0.0998  0.2628
 9725SOL    HW141234   6.590   1.784   0.664  0.6752 -1.4256 -0.3530
 9725SOL    HW241235   6.592   1.812   0.503 -0.6223  1.0893  0.0444
 9726SOL     OW41236   4.362   5.724   3.330  0.2518 -0.5860  0.7301
 9726SOL    HW141237   4.274   5.684   3.305 -0.1426 -0.1832  1.4484
 9726SOL    HW241238   4.398   5.777   3.254 -0.2077 -0.6209  0.4907
 9727SOL     OW41239   7.173   5.432   8.161  0.1584  0.0713 -0.2381
 9727SOL    HW141240   7.090   5.391   8.123 -0.5743  3.4866 -2.5375
 9727SOL    HW241241   7.164   5.438   8.261 -2.0136 -0.2911 -0.3854
 9728SOL     OW41242   3.618   4.275   7.540 -0.0105  0.2580 -0.3884
 9728SOL    HW141243   3.686   4.330   7.490  0.9596  0.2745  0.9245
 9728SOL    HW241244   3.614   4.306   7.635 -0.9060 -0.6339 -0.1332
 9729SOL     OW41245   4.059   8.778   8.788 -0.9709  0.4814  0.3495
 9729SOL    HW141246   4.059   8.755   8.885  0.1332 -0.0248  0.2336
 9729SOL    HW241247   3.987   8.726   8.741 -0.2025 -0.7732  0.5508
 9730SOL     OW41248   5.676   5.242   4.203  0.2117 -0.2731 -0.1247
 9730SOL    HW141249   5.698   5.191   4.120  1.3405  0.4215 -0.2750
 9730SOL    HW241250   5.649   5.335   4.179  2.3826  0.5129  0.3656
 9731SOL     OW41251   3.971   4.357   7.598  0.1111 -0.4263 -0.2207
 9731SOL    HW141252   3.902   4.309   7.652  0.9031 -0.6623  0.5943
 9731SOL    HW241253   4.049   4.297   7.582  1.7996  1.0813  2.1693
 9732SOL     OW41254   0.883   1.088   4.550  0.4246  0.0556 -0.6280
 9732SOL    HW141255   0.864   1.026   4.473 -0.8523  0.4583 -0.6604
 9732SOL    HW241256   0.961   1.146   4.528  1.7468 -1.6464 -0.5298
 9733SOL     OW41257   2.394   0.437   0.633  0.1627  0.1296  0.0419
 9733SOL    HW141258   2.454   0.441   0.554 -0.4733  0.2186 -0.4409
 9733SOL    HW241259   2.424   0.503   0.702  1.0585 -0.3569  0.1215
 9734SOL     OW41260   3.482   5.154   5.484  0.2423 -0.2817 -0.1998
 9734SOL    HW141261   3.401   5.189   5.532 -0.8323 -0.8365 -1.5822
 9734SOL    HW241262   3.513   5.222   5.417  0.7478 -0.1910  0.1261
 9735SOL     OW41263   9.438   5.729   6.473 -0.0022 -0.5427 -0.4600
 9735SOL    HW141264   9.354   5.755   6.427 -0.1068 -0.8107 -0.4232
 9735SOL    HW241265   9.444   5.629   6.477 -0.6860 -0.5306  1.3451
 9736SOL     OW41266   2.469   5.229   1.618  0.8429 -0.1900 -0.0879
 9736SOL    HW141267   2.503   5.297   1.683 -1.0532  0.1733  0.5551
 9736SOL    HW241268   2.535   5.153   1.611  2.2170  0.9459  0.3774
 9737SOL     OW41269   5.044   6.728   3.601 -0.2086 -0.3233 -0.1322
 9737SOL    HW141270   5.136   6.768   3.608 -0.2007 -0.5427  1.2126
 9737SOL    HW241271   4.980   6.798   3.570 -0.1428  0.7173  1.9394
 9738SOL     OW41272   9.502   6.341   9.581 -0.2235 -0.2700 -0.2227
 9738SOL    HW141273   9.601   6.331   9.581 -0.0494  1.3568 -0.3522
 9738SOL    HW241274   9.463   6.289   9.505  0.6233 -0.0558 -0.8104
 9739SOL     OW41275   7.160   5.654   1.720 -0.1300  0.0663  0.0660
 9739SOL    HW141276   7.177   5.589   1.794 -1.1846 -0.4261 -0.1084
 9739SOL    HW241277   7.191   5.616   1.633  1.7967  0.9495  0.3334
 9740SOL     OW41278   3.987   0.072   4.999 -0.0005 -0.2046 -0.1688
 9740SOL    HW141279   4.060   0.140   4.997  1.0253 -1.3081 -1.9061
 9740SOL    HW241280   3.937   0.074   4.913 -0.1770 -1.4129 -0.1058
 9741SOL     OW41281   2.251   4.412   7.380  0.1517 -0.6771  0.1137
 9741SOL    HW141282   2.327   4.347   7.380 -0.2570 -1.1563  1.2921
 9741SOL    HW241283   2.173   4.372   7.332  0.4130 -0.4468 -0.5103
 9742SOL     OW41284   0.299   8.506   1.110 -0.1515  0.1976  0.2770
 9742SOL    HW141285   0.328   8.433   1.048  1.0183  1.6802 -0.9798
 9742SOL    HW241286   0.229   8.471   1.172  0.8497 -2.1660  0.1523
 9743SOL     OW41287   2.574   8.875   0.803 -0.1664 -0.2590  0.1785
 9743SOL    HW141288   2.559   8.802   0.735 -0.2246  0.5441 -0.6858
 9743SOL    HW241289   2.541   8.962   0.766 -0.1236  0.1999  1.2181
 9744SOL     OW41290   8.970   7.908   6.300 -0.2711 -0.0800  0.1412
 9744SOL    HW141291   9.064   7.939   6.288  0.3058 -2.1585 -0.8829
 9744SOL    HW241292   8.967   7.838   6.372 -0.7924 -1.0852 -0.8467
 9745SOL     OW41293   9.468   7.395   5.131  0.1539 -0.1640  0.7656
 9745SOL    HW141294   9.522   7.322   5.174 -1.7348  0.0067  3.6129
 9745SOL    HW241295   9.409   7.355   5.061  0.9428 -1.0048  0.5724
 9746SOL     OW41296   3.535   9.599   1.781  0.1952 -0.2768 -0.1707
 9746SOL    HW141297   3.479   9.542   1.841  0.4158 -1.4662 -1.0620
 9746SOL    HW241298   3.627   9.606   1.817 -0.2369  0.7788  0.7353
 9747SOL     OW41299   4.686   9.815   8.445  0.4495  0.2649  0.2050
 9747SOL    HW141300   4.737   9.900   8.440  0.0792  0.4166 -1.1524
 9747SOL    HW241301   4.696   9.764   8.359  0.3882 -0.8943  0.8698
 9748SOL     OW41302   9.602   1.603   6.751 -0.3918 -0.1297 -0.7789
 9748SOL    HW141303   9.690   1.556   6.750  0.8741  2.1296 -0.8190
 9748SOL    HW241304   9.578   1.630   6.658  0.4162  1.9356 -0.4241
 9749SOL     OW41305   4.935   0.930   8.340 -0.0121 -0.6455 -0.4724
 9749SOL    HW141306   4.874   0.861   8.378 -0.8589 -0.6361 -1.7611
 9749SOL    HW241307   4.881   0.996   8.287  0.9140  0.3732 -0.1771
 9750SOL     OW41308   1.755   0.802   6.963  0.1454 -0.7781  0.7523
 9750SOL    HW141309   1.761   0.888   7.015 -1.9710 -0.3877  0.3967
 9750SOL    HW241310   1.747   0.823   6.866 -0.4699 -1.3765  0.6720
 9751SOL     OW41311   3.699   6.142   6.720 -0.4201  0.1548 -0.3620
 9751SOL    HW141312   3.716   6.105   6.629  1.1676 -2.4819  0.9300
 9751SOL    HW241313   3.765   6.214   6.740 -1.3325  1.3588 -1.5996
 9752SOL     OW41314   0.495   1.785   4.372 -0.3801  0.3959 -0.4699
 9752SOL    HW141315   0.501   1.798   4.272  0.6329  1.1483 -0.3244
 9752SOL    HW241316   0.568   1.838   4.416 -0.2682 -0.6658  0.6182
 9753SOL     OW41317   8.988   5.860   0.713  0.0577 -0.0576 -0.0751
 9753SOL    HW141318   8.967   5.763   0.699 -1.4788  0.0226  1.4739
 9753SOL    HW241319   8.951   5.914   0.638  1.4983 -0.7151 -1.2878
 9754SOL     OW41320   9.412   6.944   3.483 -0.3702 -0.0734  0.1869
 9754SOL    HW141321   9.484   6.980   3.424  0.1737 -2.2213 -0.5247
 9754SOL    HW241322   9.452   6.912   3.569 -0.9083  1.4523  1.0047
 9755SOL     OW41323   2.560   2.662   3.056 -0.3689 -0.1233  0.7502
 9755SOL    HW141324   2.639   2.699   3.007 -0.2403  0.2237  1.2133
 9755SOL    HW241325   2.480   2.662   2.997  0.2375 -1.5338 -0.1055
 9756SOL     OW41326   2.010   5.511   1.201 -0.6969 -0.0043 -0.8229
 9756SOL    HW141327   2.090   5.564   1.172 -0.2342  0.9507  1.9835
 9756SOL    HW241328   1.955   5.486   1.121  1.1715  1.3220 -2.5736
 9757SOL     OW41329   3.992   5.873   4.388  0.1774  0.2911 -0.1363
 9757SOL    HW141330   3.941   5.957   4.409 -0.4362  0.1417 -1.0112
 9757SOL    HW241331   4.067   5.894   4.326 -1.7518 -0.2640 -2.7226
 9758SOL     OW41332   5.940   8.364   9.678 -0.5643 -0.1715 -0.2142
 9758SOL    HW141333   5.935   8.433   9.605 -0.4021  0.3381  0.2491
 9758SOL    HW241334   5.860   8.374   9.738 -1.4207 -1.4932 -1.1034
 9759SOL     OW41335   3.627   0.438   1.234  0.3814 -0.5530  0.0628
 9759SOL    HW141336   3.541   0.422   1.186  0.8517 -0.4315 -0.8245
 9759SOL    HW241337   3.652   0.355   1.284 -0.3649 -0.5143  0.5192
 9760SOL     OW41338   2.097   0.653   2.638 -0.0618 -0.1875  0.8707
 9760SOL    HW141339   2.097   0.699   2.550 -0.4531 -0.1276  0.9015
 9760SOL    HW241340   2.137   0.562   2.628  0.9629  0.2581  0.8668
 9761SOL     OW41341   2.915   6.387   4.197  0.1932 -0.0571 -0.1082
 9761SOL    HW141342   2.853   6.460   4.167  1.5769  0.8872 -0.6803
 9761SOL    HW241343   2.916   6.314   4.129  2.3889  1.5270 -1.8564
 9762SOL     OW41344   7.616   6.718   4.721 -0.8659 -0.0756  0.1357
 9762SOL    HW141345   7.691   6.669   4.766 -0.9395 -1.3463 -1.0981
 9762SOL    HW241346   7.544   6.653   4.696 -1.0657  0.6944 -1.3210
 9763SOL     OW41347   3.688   4.385   0.053 -0.2163 -0.2376  0.4134
 9763SOL    HW141348   3.758   4.400   0.122  1.4981 -1.8870 -0.8878
 9763SOL    HW241349   3.724   4.412  -0.037 -0.5671 -2.7419 -0.5232
 9764SOL     OW41350   3.721   0.614   9.891 -0.4634 -0.1864  0.1345
 9764SOL    HW141351   3.785   0.553   9.938  0.9537 -0.4528 -2.0679
 9764SOL    HW241352   3.699   0.577   9.801 -2.8591  0.4814  0.4017
 9765SOL     OW41353   0.063   7.085   1.008  0.4117  0.1198 -0.1562
 9765SOL    HW141354   0.126   7.042   0.944  1.3006  1.9750 -0.5575
 9765SOL    HW241355   0.115   7.134   1.079 -0.5393  2.2768 -0.8959
 9766SOL     OW41356   8.550   7.726   8.824 -0.0793  0.1293 -0.1685
 9766SOL    HW141357   8.507   7.810   8.856 -0.3151  0.1048 -0.4130
 9766SOL    HW241358   8.487   7.649   8.837  0.2521 -0.0599  0.3306
 9767SOL     OW41359   4.414   8.732   8.014  0.4382  0.2485 -0.1701
 9767SOL    HW141360   4.503   8.694   7.991  0.4077 -0.2665  0.5523
 9767SOL    HW241361   4.366   8.670   8.076 -1.2801 -0.5123 -2.1786
 9768SOL     OW41362   4.697   2.023   9.053  0.0456  0.2189 -0.2254
 9768SOL    HW141363   4.770   1.990   9.113  0.3877  1.3896  0.0164
 9768SOL    HW241364   4.640   1.946   9.025  0.9253 -0.5986  0.1887
 9769SOL     OW41365   2.172   3.656   9.513  0.1644 -0.2207  0.2305
 9769SOL    HW141366   2.116   3.577   9.538 -1.1480  0.8592  0.8098
 9769SOL    HW241367   2.246   3.627   9.452  0.3557 -2.0583  1.2991
 9770SOL     OW41368   5.093   6.494   2.293 -0.3017 -0.1994  0.1791
 9770SOL    HW141369   5.055   6.448   2.212 -1.5512  0.0231  0.6231
 9770SOL    HW241370   5.129   6.583   2.267 -0.2864 -0.3194 -0.2125
 9771SOL     OW41371   1.924   3.315   8.381  0.5785 -0.1161  0.2960
 9771SOL    HW141372   1.972   3.342   8.464  0.4375  0.4676  0.1962
 9771SOL    HW241373   1.914   3.395   8.321  0.7487 -0.5462 -0.3174
 9772SOL     OW41374   5.494   9.047   0.296 -0.1401  0.0311 -0.3235
 9772SOL    HW141375   5.570   9.036   0.232 -0.6700  0.0454 -0.9672
 9772SOL    HW241376   5.511   9.127   0.354 -0.0857  0.5635 -1.0688
 9773SOL     OW41377   3.330   8.856   4.619 -0.0408  0.8307 -0.6941
 9773SOL    HW141378   3.275   8.776   4.597 -0.2358  0.7115  0.2047
 9773SOL    HW241379   3.398   8.870   4.548  0.8746 -0.9240 -0.1898
 9774SOL     OW41380   3.829   8.472   2.599  0.2653 -0.6048  0.0162
 9774SOL    HW141381   3.831   8.434   2.692  0.6373 -0.7735 -0.0608
 9774SOL    HW241382   3.741   8.449   2.556  0.2253 -0.8166  0.2086
 9775SOL     OW41383   9.097   0.409   6.704 -0.0636 -0.0513 -0.0628
 9775SOL    HW141384   9.025   0.371   6.762 -0.6035  1.4719  0.2798
 9775SOL    HW241385   9.177   0.348   6.706  0.0879  0.1480  2.6260
 9776SOL     OW41386   5.384   5.709   9.308 -0.1134  0.5205 -0.2179
 9776SOL    HW141387   5.422   5.617   9.299 -0.1594  0.1248  3.1806
 9776SOL    HW241388   5.348   5.739   9.219 -0.1875 -2.7537 -1.3570
 9777SOL     OW41389   1.188   1.692   1.758  0.0299  0.0644  0.5241
 9777SOL    HW141390   1.096   1.660   1.735 -0.6446  1.8760  0.6336
 9777SOL    HW241391   1.233   1.726   1.675  0.7481 -1.1565  0.4042
 9778SOL     OW41392   0.357   1.876   2.782  0.3002 -0.1452  0.1578
 9778SOL    HW141393   0.317   1.792   2.745 -0.2737 -0.8725  2.3798
 9778SOL    HW241394   0.284   1.941   2.803  0.6273  0.2639  0.0320
 9779SOL     OW41395   5.267   5.565   3.369  0.5206 -0.4351  0.7275
 9779SOL    HW141396   5.223   5.552   3.280 -1.4195  3.0310  1.0765
 9779SOL    HW241397   5.329   5.643   3.364  0.0188  0.1109  2.5129
 9780SOL     OW41398   5.744   0.290   5.596  0.1714 -0.4796 -0.6723
 9780SOL    HW141399   5.842   0.300   5.576  0.1055 -1.3209 -1.4489
 9780SOL    HW241400   5.710   0.374   5.637  1.1205 -0.0108 -0.8246
 9781SOL     OW41401   8.262   4.068   0.360 -0.5349  0.1265 -0.1411
 9781SOL    HW141402   8.162   4.072   0.363 -0.4617  3.7724 -0.3488
 9781SOL    HW241403   8.299   4.080   0.452 -0.2564 -3.6441  0.3199
 9782SOL     OW41404   3.908   9.489   9.512 -0.0918  0.5215 -0.0602
 9782SOL    HW141405   3.831   9.518   9.455 -0.0499 -0.7824 -0.8134
 9782SOL    HW241406   3.899   9.391   9.530 -0.2942  0.9810  2.4732
 9783SOL     OW41407   8.812   4.357   3.530 -0.3119  0.0456 -0.0791
 9783SOL    HW141408   8.901   4.319   3.504 -1.1675 -1.3999 -0.9273
 9783SOL    HW241409   8.814   4.382   3.627  0.3881 -1.8564  0.4178
 9784SOL     OW41410   3.345   9.215   5.424 -0.4137 -0.5871 -0.1120
 9784SOL    HW141411   3.281   9.248   5.354 -1.4519 -0.5913  0.8127
 9784SOL    HW241412   3.398   9.139   5.388 -0.4319 -0.1228 -1.1298
 9785SOL     OW41413   1.883   4.782   1.470  0.7678 -0.0702  0.6179
 9785SOL    HW141414   1.791   4.797   1.507  1.8454  1.2615  2.8778
 9785SOL    HW241415   1.915   4.691   1.496  0.5506 -0.0873  0.8254
 9786SOL     OW41416   9.223   6.231   6.237 -0.3126 -1.0072 -0.1028
 9786SOL    HW141417   9.274   6.180   6.169 -1.2119 -1.3345 -0.5413
 9786SOL    HW241418   9.282   6.300   6.279  0.1117 -0.4861 -1.5398
 9787SOL     OW41419   9.422   6.219   9.881  0.1957 -0.4815  0.2672
 9787SOL    HW141420   9.386   6.296   9.935  0.9074 -0.2256  0.3867
 9787SOL    HW241421   9.434   6.249   9.786 -1.5441 -1.0869 -0.1543
 9788SOL     OW41422   5.263   2.424   8.557 -0.3115  0.4860  0.2446
 9788SOL    HW141423   5.325   2.346   8.558 -1.3865 -0.4093 -1.8455
 9788SOL    HW241424   5.178   2.399   8.512 -0.9393  2.6600  0.1780
 9789SOL     OW41425   9.568   8.821   6.919 -0.7682  0.2820  0.1374
 9789SOL    HW141426   9.631   8.881   6.969  0.9039 -0.9776 -0.4138
 9789SOL    HW241427   9.517   8.764   6.983 -2.1544  2.0663  0.6504
 9790SOL     OW41428   1.994   5.888   6.407 -0.4856 -0.2791 -0.0902
 9790SOL    HW141429   1.960   5.817   6.345  1.8563 -1.3646 -0.1782
 9790SOL    HW241430   2.025   5.967   6.353  0.0378 -0.5641 -0.2111
 9791SOL     OW41431   3.888   9.126   9.795  0.3723 -0.3163 -0.0623
 9791SOL    HW141432   3.868   9.161   9.887 -0.6417 -1.5153  0.1921
 9791SOL    HW241433   3.958   9.055   9.801 -0.1213 -0.8165 -0.1256
 9792SOL     OW41434   1.583   9.044   1.141 -0.2408  0.3754  0.3651
 9792SOL    HW141435   1.657   9.099   1.181  0.0980  0.9529 -1.0062
 9792SOL    HW241436   1.576   9.065   1.043 -2.3399  0.4353  0.5158
 9793SOL     OW41437   8.604   4.208   8.305  0.5498  0.2417 -0.2558
 9793SOL    HW141438   8.560   4.124   8.273  2.7799 -0.5628 -1.3261
 9793SOL    HW241439   8.534   4.278   8.318 -1.4025 -1.8255  0.9206
 9794SOL     OW41440   3.051   7.770   7.015  0.6201  0.2938  0.1094
 9794SOL    HW141441   2.957   7.767   7.048 -0.1273 -0.3395 -2.0006
 9794SOL    HW241442   3.054   7.745   6.918  2.5521  3.4870 -0.7395
 9795SOL     OW41443   9.731   9.268   8.192  0.1532  0.4569  0.3508
 9795SOL    HW141444   9.638   9.282   8.225  0.3909  0.2107  1.1564
 9795SOL    HW241445   9.731   9.202   8.118 -0.3963  1.0151 -0.1512
 9796SOL     OW41446   0.516   4.329   1.728  0.1243  0.3073 -0.1151
 9796SOL    HW141447   0.441   4.395   1.731  0.4325  0.6562 -0.1512
 9796SOL    HW241448   0.587   4.356   1.793 -0.1396 -0.4506  0.4927
 9797SOL     OW41449   2.415   8.776   9.646  0.0023 -0.4223  0.2967
 9797SOL    HW141450   2.400   8.840   9.722 -1.5740 -1.0845  0.5628
 9797SOL    HW241451   2.400   8.683   9.677  1.3519 -0.8592 -0.3382
 9798SOL     OW41452   2.504   4.331   3.539  0.2268 -0.4930  0.1749
 9798SOL    HW141453   2.520   4.424   3.506  2.9722 -0.3076  1.8685
 9798SOL    HW241454   2.497   4.268   3.461 -1.5431  1.0844 -0.9707
 9799SOL     OW41455   3.137   0.495   9.125  0.0737 -0.2006  0.4464
 9799SOL    HW141456   3.177   0.433   9.057 -1.5526  0.0679 -0.7826
 9799SOL    HW241457   3.048   0.459   9.155  0.2057  0.3329  1.5123
 9800SOL     OW41458   3.166   7.743   8.746  0.6520  0.3105 -0.1658
 9800SOL    HW141459   3.163   7.664   8.685  2.0381  0.5964 -0.6172
 9800SOL    HW241460   3.254   7.745   8.794 -0.4493  0.0467  1.9034
 9801SOL     OW41461   9.427   9.355   9.216 -0.9847  0.4045 -0.3747
 9801SOL    HW141462   9.445   9.340   9.314 -2.6748  1.4393  0.1121
 9801SOL    HW241463   9.445   9.270   9.166  0.2047 -0.0518  0.7821
 9802SOL     OW41464   4.039   6.612   8.593 -0.4704  0.0782 -0.5651
 9802SOL    HW141465   4.029   6.563   8.507  1.3204 -3.6736  1.2443
 9802SOL    HW241466   4.134   6.605   8.624 -0.7427  2.6404  1.0075
 9803SOL     OW41467   6.779   7.919   9.756 -0.2596 -0.0536 -0.6319
 9803SOL    HW141468   6.766   8.014   9.782  1.1368 -0.1490  0.4765
 9803SOL    HW241469   6.710   7.862   9.801  0.4878  0.1248  0.7758
 9804SOL     OW41470   5.147   9.900   7.507  0.0913  0.6319  0.3830
 9804SOL    HW141471   5.117   9.838   7.579 -0.2558  0.2853 -0.0573
 9804SOL    HW241472   5.074   9.911   7.440  0.8000  0.0860 -0.4962
 9805SOL     OW41473   9.012   1.196   0.236  0.0055  0.2967 -0.2534
 9805SOL    HW141474   9.038   1.102   0.217  0.3179  0.1957  0.6669
 9805SOL    HW241475   8.966   1.202   0.325  1.4787  1.2500  0.4735
 9806SOL     OW41476   9.444   2.218   5.140 -0.0395 -0.1776  0.7391
 9806SOL    HW141477   9.493   2.159   5.204 -0.4244  0.2641  1.4454
 9806SOL    HW241478   9.493   2.221   5.053  0.7762 -0.3413  1.1911
 9807SOL     OW41479   2.634   6.661   0.582 -0.5999  0.2538 -0.0679
 9807SOL    HW141480   2.668   6.633   0.492  0.1375  0.6783  0.0710
 9807SOL    HW241481   2.670   6.599   0.652 -1.2841 -0.1580 -0.0821
 9808SOL     OW41482   2.642   6.817   9.058 -0.2859  0.2126  0.2489
 9808SOL    HW141483   2.700   6.898   9.070  1.2384 -0.7081 -0.6406
 9808SOL    HW241484   2.591   6.800   9.142  0.0119  1.6090  0.7319
 9809SOL     OW41485   0.494   6.559   0.811 -0.1571  0.4484 -0.6482
 9809SOL    HW141486   0.468   6.499   0.735  1.5944  0.5110 -1.3236
 9809SOL    HW241487   0.468   6.653   0.790 -0.7857  0.2871 -0.6167
 9810SOL     OW41488   6.155   4.631   0.188  0.2557  0.2629  0.0245
 9810SOL    HW141489   6.198   4.711   0.230  0.8400 -0.0926  0.1172
 9810SOL    HW241490   6.214   4.596   0.115  1.3997 -1.7902  1.8866
 9811SOL     OW41491   4.546   1.004   9.142 -0.5967 -0.4313 -0.0934
 9811SOL    HW141492   4.590   1.076   9.087 -1.4381 -0.4810 -0.8456
 9811SOL    HW241493   4.580   0.915   9.112  0.2228 -0.3744  0.6382
 9812SOL     OW41494   1.782   8.373   7.897  0.7455 -0.5081  0.1529
 9812SOL    HW141495   1.857   8.333   7.845 -1.2463 -1.3020 -2.2418
 9812SOL    HW241496   1.714   8.303   7.917 -0.9227  0.8228 -0.6442
 9813SOL     OW41497   9.594   7.832   3.383  0.0603 -0.4728  0.0881
 9813SOL    HW141498   9.538   7.883   3.317  1.8813  1.1859 -0.2167
 9813SOL    HW241499   9.690   7.837   3.356  0.8226  0.1410  2.8093
 9814SOL     OW41500   9.231   4.468   0.093 -0.1188 -0.4153  0.4067
 9814SOL    HW141501   9.314   4.494   0.042 -1.9053  1.8657 -1.4263
 9814SOL    HW241502   9.202   4.544   0.150 -2.8258  0.0864 -1.5334
 9815SOL     OW41503   7.851   5.897   5.313  0.1257  0.3375  0.1967
 9815SOL    HW141504   7.782   5.896   5.240  0.9112  2.3760 -0.6052
 9815SOL    HW241505   7.907   5.814   5.307 -0.2713  0.1516 -1.0773
 9816SOL     OW41506   0.019   4.513   3.012  0.0313 -0.0085 -0.5936
 9816SOL    HW141507   0.099   4.495   2.955 -0.0847  1.5972 -1.2946
 9816SOL    HW241508  -0.020   4.602   2.987 -0.2956  0.5039  1.6743
 9817SOL     OW41509   1.423   5.647   9.848 -0.8317  1.0057  0.2513
 9817SOL    HW141510   1.506   5.702   9.833 -0.4536  0.6042  0.8576
 9817SOL    HW241511   1.394   5.607   9.761  0.6237 -0.2648  0.3250
 9818SOL     OW41512   6.384   4.284   1.269 -0.0906 -0.8869 -0.2246
 9818SOL    HW141513   6.448   4.232   1.212  0.8153  0.0800 -0.1039
 9818SOL    HW241514   6.375   4.377   1.232 -0.2331 -0.5437  0.6650
 9819SOL     OW41515   2.477   6.714   1.749 -0.3643 -1.0481 -0.4531
 9819SOL    HW141516   2.531   6.777   1.694  0.4904 -0.6011  0.8714
 9819SOL    HW241517   2.441   6.762   1.829 -0.0766 -2.1276  0.3367
 9820SOL     OW41518   4.570   5.032   1.444 -0.3286 -0.2091 -0.0010
 9820SOL    HW141519   4.581   5.122   1.485  0.5570 -0.8367  1.1267
 9820SOL    HW241520   4.569   4.962   1.515  2.8778 -1.4582 -1.1316
 9821SOL     OW41521   4.015   9.369   3.168  0.3536  0.2250  0.6782
 9821SOL    HW141522   4.035   9.385   3.264 -1.7997  1.1515  0.9905
 9821SOL    HW241523   4.051   9.445   3.114 -1.6007  1.5176  1.1577
 9822SOL     OW41524   0.289   0.737   2.951  0.0236  0.1640 -0.1471
 9822SOL    HW141525   0.275   0.661   2.887  0.8683  1.0147 -1.3822
 9822SOL    HW241526   0.212   0.800   2.946 -1.2349 -1.1819  1.7326
 9823SOL     OW41527   2.303   6.084   5.827  0.1687  0.0900  0.3602
 9823SOL    HW141528   2.290   6.033   5.913  0.5941 -1.2244 -0.3349
 9823SOL    HW241529   2.377   6.042   5.775 -0.6633  0.3475 -1.0467
 9824SOL     OW41530   2.951   5.088   5.562  0.5303  0.1103 -0.8186
 9824SOL    HW141531   3.049   5.100   5.552  0.6709 -1.6607 -1.8514
 9824SOL    HW241532   2.903   5.166   5.522  1.5316  1.8027  1.2410
 9825SOL     OW41533   2.319   8.108   0.274  0.1074 -0.3057  0.3841
 9825SOL    HW141534   2.383   8.081   0.345  0.3708 -0.3277  0.1410
 9825SOL    HW241535   2.355   8.187   0.224 -0.4871  0.2721  0.8509
 9826SOL     OW41536   5.935   1.311   8.748 -0.3436 -0.7414 -0.3606
 9826SOL    HW141537   5.876   1.241   8.788  0.0188  0.0312  1.5581
 9826SOL    HW241538   5.979   1.365   8.821  0.9901  0.1477 -1.7756
 9827SOL     OW41539   2.382   5.599   6.745  0.3967 -0.0125 -0.0752
 9827SOL    HW141540   2.415   5.638   6.659 -0.1428  0.1279 -0.2212
 9827SOL    HW241541   2.288   5.629   6.761 -0.0142 -1.2297 -0.1748
 9828SOL     OW41542   6.736   7.142   2.117 -0.3740 -0.1855  0.3160
 9828SOL    HW141543   6.811   7.164   2.181 -0.4576 -2.1622  1.1166
 9828SOL    HW241544   6.733   7.044   2.101 -0.5217  0.2596 -2.5945
 9829SOL     OW41545   2.972   9.091   8.924  0.7105 -0.0801  0.4221
 9829SOL    HW141546   3.052   9.032   8.936  0.5989  0.1028  2.1697
 9829SOL    HW241547   3.002   9.186   8.913  0.8866 -0.4127 -2.3328
 9830SOL     OW41548   7.317   7.508   6.935  0.3140  0.3635  0.5110
 9830SOL    HW141549   7.270   7.423   6.957 -1.6335  0.9916 -1.1235
 9830SOL    HW241550   7.411   7.487   6.909 -0.3557 -1.3777 -0.6325
 9831SOL     OW41551   3.653   9.635   0.414  0.5756 -0.0662  1.4877
 9831SOL    HW141552   3.679   9.728   0.391 -0.5453 -0.0311  0.3196
 9831SOL    HW241553   3.580   9.604   0.353  0.2348 -1.3520  2.5158
 9832SOL     OW41554   5.369   9.060   1.291  0.3468  0.0743 -0.7517
 9832SOL    HW141555   5.360   9.094   1.384 -0.3506  0.8606 -1.1061
 9832SOL    HW241556   5.402   9.133   1.231  2.4826 -0.8935 -0.8022
 9833SOL     OW41557   5.988   6.886   9.024 -0.0449  0.6286  0.2313
 9833SOL    HW141558   6.024   6.793   9.027 -0.5611  0.4568  0.9827
 9833SOL    HW241559   6.012   6.927   8.936  1.0248  0.1306  0.2786
 9834SOL     OW41560   0.275   4.808   9.540  0.4278  0.2561  0.2437
 9834SOL    HW141561   0.303   4.840   9.450 -0.4572  0.4383  0.0265
 9834SOL    HW241562   0.204   4.869   9.577 -0.0554 -0.4811  0.5545
 9835SOL     OW41563   3.418   4.035   6.231  0.2902  0.1394  0.1386
 9835SOL    HW141564   3.369   3.959   6.273  0.8568 -1.6121 -2.2999
 9835SOL    HW241565   3.365   4.071   6.154  0.7059  1.2610  0.3658
 9836SOL     OW41566   3.788   6.474   7.680  0.3623 -0.1758 -0.0465
 9836SOL    HW141567   3.829   6.383   7.673 -0.9058 -0.8580  1.1058
 9836SOL    HW241568   3.852   6.536   7.726  0.8623 -0.7262  0.0086
 9837SOL     OW41569   4.467   8.944   7.489 -0.6379 -0.2031 -0.6519
 9837SOL    HW141570   4.541   8.877   7.500  0.3364  0.8356 -0.7601
 9837SOL    HW241571   4.493   9.011   7.419 -1.0806  0.9760  0.2996
 9838SOL     OW41572   0.021   1.222   2.872  0.4308 -0.6199  0.0045
 9838SOL    HW141573  -0.010   1.232   2.966 -1.7122 -0.3433 -0.7145
 9838SOL    HW241574   0.117   1.193   2.872  0.9671  1.0370  2.2393
 9839SOL     OW41575   8.256   8.857   7.122  0.7269 -0.0607  0.7914
 9839SOL    HW141576   8.263   8.758   7.105  0.5599  0.0812 -0.1566
 9839SOL    HW241577   8.312   8.906   7.055  0.0924  0.5290  0.6904
 9840SOL     OW41578   1.984   3.899   9.711  0.0975  0.1564 -0.0234
 9840SOL    HW141579   1.956   3.929   9.803 -0.0100 -3.0813  1.0575
 9840SOL    HW241580   2.080   3.871   9.714 -0.0164 -0.3117 -0.8244
 9841SOL     OW41581   4.653   0.997   9.624  0.0582 -0.5821  0.0561
 9841SOL    HW141582   4.738   0.999   9.677  0.9576  0.0246 -1.4034
 9841SOL    HW241583   4.610   1.087   9.627 -1.1144 -1.1481  1.6623
 9842SOL     OW41584   3.521   2.036   4.628 -0.5283  0.2847 -0.2748
 9842SOL    HW141585   3.441   2.093   4.647  0.8295  2.4603 -0.8833
 9842SOL    HW241586   3.524   2.014   4.530 -2.1111 -2.5599  0.2503
 9843SOL     OW41587   0.412   5.987   1.337 -0.0054  0.4017  0.1500
 9843SOL    HW141588   0.406   6.042   1.253 -0.4382  0.7568  0.4121
 9843SOL    HW241589   0.326   5.938   1.351  0.4204 -0.4488 -0.1473
 9844SOL     OW41590   1.285   2.152   2.939 -0.6530 -0.2354 -0.4814
 9844SOL    HW141591   1.320   2.076   2.994  0.2769  0.4766 -0.0785
 9844SOL    HW241592   1.203   2.189   2.982 -0.5878 -0.4193 -0.1948
 9845SOL     OW41593   8.815   0.060   7.794  0.4665 -0.4640  0.5836
 9845SOL    HW141594   8.872   0.023   7.721 -0.9849 -3.6364  0.9800
 9845SOL    HW241595   8.856   0.144   7.829  3.0564 -0.8322 -1.4436
 9846SOL     OW41596   1.428   1.421   6.105 -0.1737 -0.0322 -0.2456
 9846SOL    HW141597   1.446   1.519   6.111 -0.8045  0.1851 -1.8496
 9846SOL    HW241598   1.380   1.391   6.188 -3.0740  1.6872 -1.2318
 9847SOL     OW41599   2.666   3.646   0.758 -0.1456  0.3758  0.1037
 9847SOL    HW141600   2.756   3.645   0.714 -0.3327 -0.1865 -0.2686
 9847SOL    HW241601   2.644   3.740   0.785 -0.5347  0.9498 -2.1065
 9848SOL     OW41602   1.172   5.160   1.397  0.3423 -0.2092  0.6132
 9848SOL    HW141603   1.077   5.138   1.378  0.4942  0.4998 -0.9676
 9848SOL    HW241604   1.223   5.076   1.416  0.0135 -0.8491 -1.3071
 9849SOL     OW41605   0.614   3.877   0.967  0.3314  0.6354 -0.1199
 9849SOL    HW141606   0.600   3.778   0.968  1.2005  0.4945 -1.0620
 9849SOL    HW241607   0.598   3.912   0.875  1.2248  1.1824 -0.0737
 9850SOL     OW41608   1.979   0.734   5.034  0.4970  0.4764 -0.0905
 9850SOL    HW141609   2.000   0.696   5.125 -0.6033  0.9738  0.3814
 9850SOL    HW241610   1.949   0.660   4.974 -1.6606  0.5589  0.8346
 9851SOL     OW41611   0.637   0.780   7.452 -0.0754  0.1878  0.2048
 9851SOL    HW141612   0.588   0.852   7.402  0.7535 -0.0145 -0.9259
 9851SOL    HW241613   0.573   0.709   7.480 -0.6552  0.6102 -0.0411
 9852SOL     OW41614   2.559   7.587   6.991 -0.2381  0.1427  0.9396
 9852SOL    HW141615   2.472   7.599   6.943 -0.2717 -0.9619  0.7225
 9852SOL    HW241616   2.547   7.524   7.068  0.0136  1.2232  1.8818
 9853SOL     OW41617   4.182   2.435   9.186  0.4755  0.2693 -0.0732
 9853SOL    HW141618   4.267   2.457   9.234  0.8306  0.6845 -0.8793
 9853SOL    HW241619   4.140   2.519   9.151  1.4111 -0.2082 -2.4626
 9854SOL     OW41620   6.374   1.266   9.215  0.1678  0.5168 -0.4048
 9854SOL    HW141621   6.447   1.278   9.283  0.9196 -0.0681 -1.1023
 9854SOL    HW241622   6.378   1.174   9.177  0.3415  1.1219 -1.9148
 9855SOL     OW41623   0.547   4.723   1.323  0.2017 -0.4316  0.0311
 9855SOL    HW141624   0.589   4.782   1.392 -0.5894  0.4970 -0.2796
 9855SOL    HW241625   0.573   4.628   1.341  0.4067 -0.1430  1.3072
 9856SOL     OW41626   0.832   7.461   9.615  0.1157 -0.1484  0.2771
 9856SOL    HW141627   0.759   7.517   9.653  0.3624 -0.2454  0.9014
 9856SOL    HW241628   0.920   7.506   9.630  0.2774 -0.5124  0.4310
 9857SOL     OW41629   5.553   7.990   8.818  0.4901 -0.1343  0.4844
 9857SOL    HW141630   5.507   8.043   8.889  0.7364  0.7161  0.0123
 9857SOL    HW241631   5.496   7.911   8.794 -0.2757  0.3772  0.5878
 9858SOL     OW41632   7.998   3.288   9.718  0.3264  0.0979  0.3902
 9858SOL    HW141633   7.960   3.381   9.714 -1.3459 -0.5793 -0.1688
 9858SOL    HW241634   8.061   3.281   9.796  0.5833  1.7326  0.3519
 9859SOL     OW41635   1.832   2.097   7.671 -0.0427 -0.1694 -0.5248
 9859SOL    HW141636   1.733   2.112   7.670 -0.2723 -1.6207 -1.2847
 9859SOL    HW241637   1.860   2.062   7.582  1.3355  1.2481 -0.6662
 9860SOL     OW41638   5.042   7.972   9.727  0.3087 -0.0950 -0.6061
 9860SOL    HW141639   5.083   7.894   9.679 -0.0326 -0.2515 -0.6419
 9860SOL    HW241640   4.949   7.987   9.693  0.1464 -0.0649 -0.1537
 9861SOL     OW41641   0.470   3.031   0.276 -0.0184 -0.5607  0.5741
 9861SOL    HW141642   0.385   3.009   0.323 -0.3531  0.4158  0.4471
 9861SOL    HW241643   0.526   3.090   0.334 -0.1640  0.1487  0.0109
 9862SOL     OW41644   5.952   3.316   1.466  0.4402 -0.0250 -0.3052
 9862SOL    HW141645   5.943   3.226   1.424  1.0144  0.5391 -1.6387
 9862SOL    HW241646   5.864   3.364   1.463  0.5035  0.0476 -0.9248
 9863SOL     OW41647   9.455   3.490   8.331  0.0505 -0.4647  0.1555
 9863SOL    HW141648   9.550   3.516   8.344  0.1360 -0.3964 -0.5613
 9863SOL    HW241649   9.431   3.498   8.234 -1.0210  0.6776  0.4978
 9864SOL     OW41650   3.834   9.710   0.017 -0.2668 -0.1535 -0.0615
 9864SOL    HW141651   3.891   9.653  -0.042 -1.0140 -0.3767 -0.5762
 9864SOL    HW241652   3.788   9.653   0.085  0.4898  0.0877  0.6635
 9865SOL     OW41653   3.642   1.520   8.850  0.0931 -0.1585  0.5319
 9865SOL    HW141654   3.591   1.575   8.783  0.1399 -0.5417  0.1834
 9865SOL    HW241655   3.735   1.506   8.817  0.2322 -0.0222  0.8610
 9866SOL     OW41656   2.581   5.828   9.097  0.3367 -0.0378 -0.5833
 9866SOL    HW141657   2.652   5.765   9.064  0.3569 -0.2147 -0.2031
 9866SOL    HW241658   2.526   5.859   9.020  0.1417 -0.7475 -0.7366
 9867SOL     OW41659   9.883   1.630   3.323 -0.4290  0.0375 -0.0211
 9867SOL    HW141660   9.821   1.631   3.244  0.2968 -0.5495 -0.6010
 9867SOL    HW241661   9.960   1.569   3.304  0.5799  1.1395  0.5021
 9868SOL     OW41662   2.023   4.183   5.451  0.2450 -0.2336 -0.0465
 9868SOL    HW141663   2.117   4.192   5.417  1.1563  0.4335  2.5399
 9868SOL    HW241664   2.023   4.126   5.533 -1.9835 -2.3100 -1.3811
 9869SOL     OW41665   9.442   4.563   8.157  0.3733 -0.6983 -0.2100
 9869SOL    HW141666   9.527   4.511   8.151  0.3365 -0.7007 -0.7935
 9869SOL    HW241667   9.365   4.503   8.134  0.4219 -0.1440 -1.8810
 9870SOL     OW41668   6.324   4.956   2.126 -0.0201 -0.0202 -0.2399
 9870SOL    HW141669   6.368   4.866   2.133 -1.8710 -0.9558 -0.5059
 9870SOL    HW241670   6.229   4.950   2.154 -0.4857  1.6187 -1.3679
 9871SOL     OW41671   1.694   4.276   3.685 -0.6082 -1.0467 -0.1023
 9871SOL    HW141672   1.781   4.317   3.712 -2.4643  1.9195  1.6476
 9871SOL    HW241673   1.661   4.216   3.758  0.0314 -2.3355 -0.8526
 9872SOL     OW41674   2.588   7.536   0.518  0.2507 -0.2570 -0.1590
 9872SOL    HW141675   2.651   7.612   0.498 -0.2398 -0.1976 -1.4904
 9872SOL    HW241676   2.513   7.536   0.452  0.2132 -1.8682 -0.1311
 9873SOL     OW41677   2.413   7.534   7.991 -0.1205  0.3546 -0.3536
 9873SOL    HW141678   2.400   7.629   7.962  0.4979  0.1073 -1.4403
 9873SOL    HW241679   2.501   7.525   8.037  0.3578  0.0501 -1.3302
 9874SOL     OW41680   5.788   6.405   7.045 -0.5295 -0.0945 -0.5887
 9874SOL    HW141681   5.803   6.357   6.959  0.9425  0.3700 -0.6040
 9874SOL    HW241682   5.699   6.450   7.043 -0.4620  0.0010 -1.9137
 9875SOL     OW41683   3.581   5.846   1.957 -0.3374  0.3118 -0.7094
 9875SOL    HW141684   3.630   5.933   1.953 -0.3122  0.2938 -0.8017
 9875SOL    HW241685   3.585   5.802   1.867  0.7341 -0.3874 -0.3201
 9876SOL     OW41686   1.336   7.479   2.832  0.0225  0.1116 -0.0925
 9876SOL    HW141687   1.371   7.393   2.795 -0.7349 -0.4662  0.5074
 9876SOL    HW241688   1.236   7.478   2.831  0.0021  0.7813  0.3741
 9877SOL     OW41689   0.827   8.662   0.016  0.0924  0.1911  0.4113
 9877SOL    HW141690   0.746   8.691   0.068 -0.3576 -1.2002  0.4854
 9877SOL    HW241691   0.888   8.741   0.004 -0.6477  0.9442  1.4910
 9878SOL     OW41692   3.777   6.650   1.166 -0.1909  0.0779 -0.2272
 9878SOL    HW141693   3.693   6.679   1.121 -0.2572  0.0771 -0.1044
 9878SOL    HW241694   3.827   6.730   1.200 -1.5962 -0.0547  2.3067
 9879SOL     OW41695   8.771   5.370   3.236 -0.3802  0.7218  0.1735
 9879SOL    HW141696   8.792   5.303   3.308 -0.6491 -0.1066 -0.5197
 9879SOL    HW241697   8.796   5.332   3.147 -0.8503  1.4123 -0.2521
 9880SOL     OW41698   6.438   8.807   4.297 -0.1800 -0.3938 -0.4088
 9880SOL    HW141699   6.483   8.896   4.286 -0.1613 -0.3672 -0.1178
 9880SOL    HW241700   6.407   8.775   4.208 -1.2161  0.4421 -0.3660
 9881SOL     OW41701   0.408   3.042   1.482 -0.0175 -0.3320 -0.1947
 9881SOL    HW141702   0.471   2.978   1.526 -0.0967  0.2083  0.6950
 9881SOL    HW241703   0.314   3.006   1.488 -0.1196  0.0886  0.7032
 9882SOL     OW41704   3.854   8.581   6.671  0.8352 -0.7933  0.2175
 9882SOL    HW141705   3.937   8.564   6.619  1.9266  0.8388  1.3942
 9882SOL    HW241706   3.877   8.613   6.762 -1.0822 -1.6193  1.0285
 9883SOL     OW41707   2.961   4.321   8.598  0.1912  0.3940 -0.2713
 9883SOL    HW141708   2.884   4.375   8.633 -1.7110 -1.2054 -1.8351
 9883SOL    HW241709   2.986   4.354   8.507 -0.7996 -1.1087 -1.1187
 9884SOL     OW41710   2.525   5.447   0.580  0.0176  0.6594 -0.1775
 9884SOL    HW141711   2.477   5.489   0.503 -1.9523 -0.6950  0.2611
 9884SOL    HW241712   2.559   5.357   0.553  0.2662  0.6367  0.2082
 9885SOL     OW41713   0.709   6.548   9.626  0.3785  0.2677 -0.0910
 9885SOL    HW141714   0.670   6.638   9.644  0.1187 -0.2540  2.1384
 9885SOL    HW241715   0.642   6.477   9.649  0.6537 -0.5167 -1.6229
 9886SOL     OW41716   7.274   8.438   7.562 -0.4379 -0.0133 -0.7878
 9886SOL    HW141717   7.212   8.366   7.592  0.0202 -0.5498 -1.1191
 9886SOL    HW241718   7.257   8.459   7.466 -0.9581  0.7243 -0.5414
 9887SOL     OW41719   2.733   2.481   1.297  0.8123  0.0723 -0.5407
 9887SOL    HW141720   2.662   2.411   1.301 -1.1650  2.0648  0.6864
 9887SOL    HW241721   2.750   2.506   1.202  1.2173 -1.7133 -0.9574
 9888SOL     OW41722   5.999   7.046   1.256 -0.2447  0.3128  0.0190
 9888SOL    HW141723   5.965   6.972   1.198 -0.1808 -0.1537  0.5791
 9888SOL    HW241724   5.925   7.112   1.273  0.4385  1.9096 -2.8466
 9889SOL     OW41725   3.496   6.086   9.788  0.8901  0.1313 -0.1919
 9889SOL    HW141726   3.588   6.047   9.793  2.2379  2.8619 -2.2275
 9889SOL    HW241727   3.446   6.044   9.713  0.5280 -1.1304  0.7218
 9890SOL     OW41728   3.636   8.576   5.482 -0.1138  1.1065 -0.3176
 9890SOL    HW141729   3.686   8.491   5.462  0.3929  1.5916 -1.1335
 9890SOL    HW241730   3.544   8.554   5.515  0.0482  0.2396 -0.4396
 9891SOL     OW41731   5.822   8.339   5.164 -0.8023  0.2314  0.8910
 9891SOL    HW141732   5.842   8.277   5.088 -0.7362 -0.9884  1.8971
 9891SOL    HW241733   5.907   8.375   5.201 -0.5748 -2.2523  2.9192
 9892SOL     OW41734   1.980   0.488   1.859  0.0224  0.5470 -0.4985
 9892SOL    HW141735   2.010   0.578   1.829  0.5809  0.6987  0.5043
 9892SOL    HW241736   2.035   0.417   1.815  1.6137  0.8101  1.0246
 9893SOL     OW41737   5.352   9.954   2.983  0.0411  0.4655 -0.1581
 9893SOL    HW141738   5.450   9.953   3.004 -0.2220 -1.0495  1.0845
 9893SOL    HW241739   5.319  10.049   2.982  0.9278  0.8285  2.2321
 9894SOL     OW41740   4.391   7.784   9.446 -0.0216  0.5163 -0.7245
 9894SOL    HW141741   4.349   7.693   9.446 -1.0925  0.9978  0.3487
 9894SOL    HW241742   4.375   7.828   9.357 -1.5042  0.5408 -0.4670
 9895SOL     OW41743   1.757   8.658   8.848  0.1131  0.2486 -0.0405
 9895SOL    HW141744   1.752   8.672   8.749 -0.6048 -0.4950 -0.1099
 9895SOL    HW241745   1.666   8.638   8.884  0.2217  1.3810  0.9117
 9896SOL     OW41746   5.784   4.351   1.149  0.0184 -0.0599  0.3929
 9896SOL    HW141747   5.833   4.350   1.061 -1.1241 -1.7508 -0.2451
 9896SOL    HW241748   5.849   4.365   1.223  1.1899 -0.1190 -0.6085
 9897SOL     OW41749   9.869   6.740   0.283 -0.1181  0.4828 -0.3687
 9897SOL    HW141750   9.918   6.767   0.200 -0.1592 -0.1947 -0.6173
 9897SOL    HW241751   9.772   6.729   0.263 -0.3436  1.5749  0.0664
 9898SOL     OW41752   6.382   8.332   6.652 -0.1985  0.5243  0.1302
 9898SOL    HW141753   6.311   8.276   6.610 -0.2428  0.6720  0.0063
 9898SOL    HW241754   6.464   8.330   6.594  0.5441 -1.1404  1.1843
 9899SOL     OW41755   2.968   2.097   1.798  0.4075  0.1915 -0.0620
 9899SOL    HW141756   3.016   2.122   1.882 -1.3748 -2.2721  1.7531
 9899SOL    HW241757   3.030   2.104   1.721  2.3641  1.5368  1.5938
 9900SOL     OW41758   2.881   8.848   1.938  0.4174  0.3180 -0.4794
 9900SOL    HW141759   2.878   8.754   1.972 -0.1053  0.5639  0.1779
 9900SOL    HW241760   2.828   8.854   1.853  0.7636 -0.0607 -0.7201
 9901SOL     OW41761   2.311   7.750   9.569 -0.1236 -0.0546  0.2163
 9901SOL    HW141762   2.369   7.726   9.647 -0.4742 -2.1999 -0.1362
 9901SOL    HW241763   2.354   7.719   9.484 -0.2253  1.3395 -0.3525
 9902SOL     OW41764   0.593   9.500   7.087 -0.2566 -0.3423 -0.0018
 9902SOL    HW141765   0.555   9.515   6.996  0.2308 -0.6660 -0.2581
 9902SOL    HW241766   0.540   9.553   7.154 -0.1561  0.4700 -0.5600
 9903SOL     OW41767   5.283   9.200   9.928 -0.5429  0.1662 -0.0630
 9903SOL    HW141768   5.295   9.177   9.831  1.3034 -0.8105  0.3588
 9903SOL    HW241769   5.319   9.292   9.945  1.0581 -0.4522  0.0492
 9904SOL     OW41770   3.072   9.122   6.904 -0.2164 -0.4668 -0.6916
 9904SOL    HW141771   3.064   9.026   6.931 -0.1119  0.2401  2.0323
 9904SOL    HW241772   2.983   9.156   6.876 -0.6319 -0.9044  0.0547
 9905SOL     OW41773   2.447   9.384   4.620 -0.0524  0.0907  0.3507
 9905SOL    HW141774   2.484   9.440   4.545  1.7664 -0.7667  0.5705
 9905SOL    HW241775   2.370   9.330   4.586  1.6375 -1.3586 -1.3433
 9906SOL     OW41776   2.817   5.485   0.631 -0.0026  0.5014  0.0172
 9906SOL    HW141777   2.856   5.440   0.551 -1.2465  1.7759 -1.3335
 9906SOL    HW241778   2.738   5.433   0.663 -0.0406  0.4744 -0.1207
 9907SOL     OW41779   2.272   8.149   3.020 -0.2422 -0.2442 -0.3121
 9907SOL    HW141780   2.249   8.057   2.987  0.7121  0.0952 -1.9821
 9907SOL    HW241781   2.344   8.188   2.962 -0.3917  1.4278  0.5998
 9908SOL     OW41782   7.904   5.410   5.577  0.0346 -0.0958 -0.5103
 9908SOL    HW141783   7.930   5.403   5.673 -1.2711  0.0202 -0.1388
 9908SOL    HW241784   7.833   5.479   5.566 -0.8464 -1.0973 -1.3348
 9909SOL     OW41785   2.087   6.322   7.280 -0.0681  0.1383  0.3367
 9909SOL    HW141786   2.181   6.354   7.268 -0.4933  0.9496 -1.0081
 9909SOL    HW241787   2.044   6.315   7.190 -0.5539 -2.5198  0.7600
 9910SOL     OW41788   2.070   9.773   8.084  0.1701 -0.1514  0.0785
 9910SOL    HW141789   2.028   9.710   8.019  1.1664 -1.0132  0.2611
 9910SOL    HW241790   2.035   9.755   8.176 -0.8451  0.7263 -0.1104
 9911SOL     OW41791   3.928   7.035   7.748 -0.1375 -0.4120 -0.1368
 9911SOL    HW141792   4.025   7.040   7.772 -0.0896 -0.4880 -0.3203
 9911SOL    HW241793   3.873   7.054   7.830  0.0293 -1.4224  0.2153
 9912SOL     OW41794   0.161   7.495   9.002 -0.4779 -0.1243  0.0229
 9912SOL    HW141795   0.127   7.445   8.922  2.1210 -2.8778  0.5360
 9912SOL    HW241796   0.253   7.529   8.982 -0.2863  0.1857  1.4254
 9913SOL     OW41797   5.874   2.165   0.400 -0.2548  0.3039  0.5757
 9913SOL    HW141798   5.800   2.122   0.453  0.0743  0.5354  1.2180
 9913SOL    HW241799   5.948   2.099   0.387 -0.9738 -0.2487 -0.8988
 9914SOL     OW41800   5.531   2.516   3.334  0.7502  0.3627 -0.1929
 9914SOL    HW141801   5.458   2.502   3.268  1.6851 -0.4310 -1.0621
 9914SOL    HW241802   5.518   2.604   3.379  0.3922  1.1584 -1.8082
 9915SOL     OW41803   6.100   0.337   8.462  0.3206  0.0368  0.3162
 9915SOL    HW141804   6.174   0.376   8.406  1.7112  0.2393  2.2329
 9915SOL    HW241805   6.137   0.306   8.549 -1.3619 -2.6393  0.1450
 9916SOL     OW41806   6.553   2.190   2.656 -0.2981 -0.1969 -0.2122
 9916SOL    HW141807   6.635   2.244   2.670  0.1259 -1.1440  1.0803
 9916SOL    HW241808   6.576   2.105   2.607 -0.6480 -0.0774 -0.5905
 9917SOL     OW41809   3.073   2.251   9.531  0.0367  0.2283 -0.0770
 9917SOL    HW141810   3.085   2.218   9.625  0.3989  2.3168  0.6502
 9917SOL    HW241811   2.984   2.296   9.522 -0.0221 -0.0159 -0.7520
 9918SOL     OW41812   8.016   6.583   3.242 -0.2343 -0.2439  0.2245
 9918SOL    HW141813   7.992   6.519   3.169 -1.3513 -0.4850  0.7904
 9918SOL    HW241814   8.042   6.532   3.324  0.4407  0.0258  0.1798
 9919SOL     OW41815   4.065   9.670   2.668 -0.0491  0.5083 -0.1692
 9919SOL    HW141816   4.001   9.716   2.730 -0.2184 -2.1657  1.7509
 9919SOL    HW241817   4.158   9.696   2.692 -0.2345  1.4113 -0.4198
 9920SOL     OW41818   5.111   6.299   5.116  0.2912 -0.1691  0.2432
 9920SOL    HW141819   5.173   6.367   5.077  1.3485 -1.7743 -0.9956
 9920SOL    HW241820   5.034   6.284   5.053 -0.9602  1.2217  1.3964
 9921SOL     OW41821   1.152   2.077   5.689  0.2886 -0.2803 -0.4775
 9921SOL    HW141822   1.194   1.998   5.644 -1.2283 -2.4227  1.6765
 9921SOL    HW241823   1.218   2.151   5.697  2.0397 -1.6616 -1.7504
 9922SOL     OW41824   3.175   7.573   0.190  0.8035  0.0120  0.1727
 9922SOL    HW141825   3.222   7.632   0.123  0.7357 -0.3500 -0.1986
 9922SOL    HW241826   3.203   7.478   0.175  0.2685 -0.1514  0.2201
 9923SOL     OW41827   9.967   5.933   7.123 -0.2336  0.6841 -0.3274
 9923SOL    HW141828   9.882   5.969   7.160 -0.5604  1.1271 -1.4841
 9923SOL    HW241829  10.011   6.003   7.066  0.6385  0.2800 -0.1600
 9924SOL     OW41830   0.231   8.083   1.203 -0.1325 -0.2453  0.1496
 9924SOL    HW141831   0.193   8.065   1.112 -0.5955 -1.0251  0.4953
 9924SOL    HW241832   0.329   8.097   1.195 -0.0480 -1.1011 -0.3703
 9925SOL     OW41833   0.914   7.136   6.610 -0.5005 -0.2524 -0.7297
 9925SOL    HW141834   0.870   7.073   6.675 -1.1753  0.5658 -0.3829
 9925SOL    HW241835   1.002   7.098   6.582  0.3376 -0.1061  1.5343
 9926SOL     OW41836   9.711   7.070   8.432 -0.1272  0.3650  0.3664
 9926SOL    HW141837   9.726   7.046   8.336 -2.3830  1.0457 -0.1930
 9926SOL    HW241838   9.671   6.992   8.480 -1.9229  1.0288 -0.0204
 9927SOL     OW41839   7.126   6.218   7.042 -0.2392  0.2452  0.0309
 9927SOL    HW141840   7.107   6.151   7.114 -0.1959  0.6383  0.4128
 9927SOL    HW241841   7.137   6.309   7.084 -0.6604  0.5500 -0.5157
 9928SOL     OW41842   0.628   4.497   1.399 -0.1367 -0.2182 -0.2519
 9928SOL    HW141843   0.696   4.540   1.457 -0.6802  0.9467 -0.4414
 9928SOL    HW241844   0.634   4.398   1.406  0.8559 -0.1022  0.5461
 9929SOL     OW41845   7.276   9.570   2.103  0.4196  0.3300 -0.4797
 9929SOL    HW141846   7.218   9.489   2.090  0.1254  0.4074  0.2980
 9929SOL    HW241847   7.324   9.591   2.018 -1.0733  0.5623 -1.2900
 9930SOL     OW41848   2.575   8.144   3.687 -0.2769 -0.3467  0.0082
 9930SOL    HW141849   2.630   8.219   3.650 -2.4852  0.7887 -1.0124
 9930SOL    HW241850   2.485   8.143   3.644 -0.7962 -2.6940  1.0696
 9931SOL     OW41851   5.448   8.718   0.964  0.0845  0.0675 -1.3569
 9931SOL    HW141852   5.526   8.781   0.960  1.5636 -1.6015  0.2284
 9931SOL    HW241853   5.434   8.678   0.873  2.4576 -1.1851 -1.2279
 9932SOL     OW41854   0.784   7.075   0.717 -0.3731 -0.5588  0.0519
 9932SOL    HW141855   0.832   7.014   0.654  1.1394 -0.8229  1.4466
 9932SOL    HW241856   0.808   7.170   0.697 -1.2542 -0.5219 -0.8846
 9933SOL     OW41857   3.921   3.279   8.679 -0.6612  0.6893 -0.6506
 9933SOL    HW141858   3.843   3.269   8.740 -0.4491 -0.6772 -0.5934
 9933SOL    HW241859   3.911   3.217   8.602  0.7182 -0.0118 -0.2736
 9934SOL     OW41860   1.467   4.640   9.171  0.2060 -0.1198 -1.2718
 9934SOL    HW141861   1.506   4.621   9.261 -0.8287 -2.4675 -1.2784
 9934SOL    HW241862   1.473   4.738   9.152 -0.7326  0.6100  1.8903
 9935SOL     OW41863   0.259   4.142   3.989 -0.1233  0.1689  0.0498
 9935SOL    HW141864   0.198   4.145   3.909  0.1711 -0.5312 -0.2096
 9935SOL    HW241865   0.207   4.110   4.068 -0.8303  2.4547  0.5451
 9936SOL     OW41866   4.089   1.363   9.472  0.3558 -0.1623 -0.0687
 9936SOL    HW141867   4.047   1.289   9.526 -2.7989 -0.0988 -2.3047
 9936SOL    HW241868   4.172   1.329   9.428  0.6192 -1.4619  1.3683
 9937SOL     OW41869   7.198   8.737   9.488  0.4428  0.3307 -0.0250
 9937SOL    HW141870   7.121   8.732   9.551  0.4453 -1.2773 -0.1356
 9937SOL    HW241871   7.169   8.712   9.396  0.7498  1.3177 -0.4044
 9938SOL     OW41872   2.178   2.784   1.369  0.2931 -0.2614  0.2993
 9938SOL    HW141873   2.274   2.782   1.340  0.3057  0.4424  0.2920
 9938SOL    HW241874   2.120   2.812   1.293  0.0704 -0.7787  0.2785
 9939SOL     OW41875   5.666   4.892   5.445 -0.5826  0.6649  0.3796
 9939SOL    HW141876   5.585   4.860   5.396 -0.5417 -0.4471  1.0074
 9939SOL    HW241877   5.740   4.910   5.380 -0.3860 -1.2176  0.0504
 9940SOL     OW41878   5.867   0.770   3.280  0.2080 -0.3008 -0.5707
 9940SOL    HW141879   5.784   0.825   3.270  0.7040  0.1307 -2.6233
 9940SOL    HW241880   5.891   0.763   3.377 -1.9770 -0.0858  0.0086
 9941SOL     OW41881   1.105   1.544   7.023  0.0150 -0.1035  0.0059
 9941SOL    HW141882   1.013   1.507   7.015  0.4233 -1.0736 -0.3218
 9941SOL    HW241883   1.137   1.575   6.932  0.2280 -0.2929  0.0159
 9942SOL     OW41884   0.761   8.110   0.801  0.3640  0.1807  0.4540
 9942SOL    HW141885   0.765   8.208   0.782  1.6383 -0.7446 -4.8954
 9942SOL    HW241886   0.853   8.075   0.816  0.2878 -0.7385 -1.1260
 9943SOL     OW41887   5.889   5.717   8.640  0.4951 -0.0967 -0.1810
 9943SOL    HW141888   5.860   5.621   8.641  0.3344 -0.0608 -1.0906
 9943SOL    HW241889   5.838   5.766   8.570  0.6708  0.6294  0.1999
 9944SOL     OW41890   3.280   4.454   5.609 -0.6116 -0.7577 -0.1508
 9944SOL    HW141891   3.275   4.385   5.537 -2.3217  0.6051 -1.3500
 9944SOL    HW241892   3.315   4.539   5.571 -1.2359 -0.1154  0.7108
 9945SOL     OW41893   2.402   8.144   9.255 -0.0264 -0.3428 -0.2399
 9945SOL    HW141894   2.358   8.207   9.190  0.0892  1.3897  1.3389
 9945SOL    HW241895   2.447   8.071   9.204 -1.5406 -0.0791 -2.0483
 9946SOL     OW41896   1.184   3.147   5.727  0.2164 -0.6161 -0.1555
 9946SOL    HW141897   1.255   3.195   5.676  0.1621 -0.7392 -0.3457
 9946SOL    HW241898   1.094   3.175   5.694  0.1766 -0.4877  0.0611
 9947SOL     OW41899   2.029   3.987   5.658  0.4680  0.4748 -0.4232
 9947SOL    HW141900   1.938   3.975   5.699  0.4957  1.9690  0.0853
 9947SOL    HW241901   2.078   3.900   5.661  0.0778  0.3159  1.7799
 9948SOL     OW41902   2.462   5.541   1.111  0.1564  0.3351  0.5330
 9948SOL    HW141903   2.384   5.496   1.068  0.5668 -0.7307  0.8726
 9948SOL    HW241904   2.491   5.488   1.191  1.9834  0.0216 -0.3045
 9949SOL     OW41905   2.785   7.554   4.827 -0.1666 -0.2389  0.0326
 9949SOL    HW141906   2.734   7.515   4.750 -0.9966 -0.2476  0.5798
 9949SOL    HW241907   2.880   7.567   4.800 -0.0757 -1.7965 -0.4632
 9950SOL     OW41908   0.166   4.416   4.655 -0.0262 -0.5405  0.0998
 9950SOL    HW141909   0.153   4.478   4.733 -0.4454  0.7927 -1.0247
 9950SOL    HW241910   0.080   4.407   4.605  0.1833 -1.5896 -0.0777
 9951SOL     OW41911   1.142   0.957   1.602 -0.5777  0.3111  0.0200
 9951SOL    HW141912   1.128   1.006   1.516 -1.8478  0.0614  0.0634
 9951SOL    HW241913   1.141   0.858   1.584  0.5216  0.2770  0.1321
 9952SOL     OW41914   1.754   7.892   3.162 -0.5187  0.2236 -0.2040
 9952SOL    HW141915   1.711   7.843   3.238  1.0702  2.1835  2.0212
 9952SOL    HW241916   1.744   7.990   3.176  3.0301  0.6802 -0.5750
 9953SOL     OW41917   5.452   5.055   6.073  0.6901  0.5874  0.3591
 9953SOL    HW141918   5.476   4.993   6.148  0.5473 -0.1745 -0.2245
 9953SOL    HW241919   5.534   5.078   6.021  0.8058  1.1942  0.8021
 9954SOL     OW41920   2.986   6.856   1.932 -0.0565  0.3277 -0.0042
 9954SOL    HW141921   2.991   6.880   2.029  0.6137 -0.4288  0.1530
 9954SOL    HW241922   3.037   6.771   1.915 -2.4322 -1.0325 -0.5536
 9955SOL     OW41923   7.698   6.315   9.646 -0.0931  0.2006  0.7266
 9955SOL    HW141924   7.764   6.272   9.584 -0.7585 -0.1532  0.2519
 9955SOL    HW241925   7.724   6.410   9.661 -0.4855  0.5966 -0.9367
 9956SOL     OW41926   3.988   1.613   6.497  0.4196  0.2919  0.3023
 9956SOL    HW141927   4.021   1.528   6.540  0.6049  0.8615  1.3000
 9956SOL    HW241928   3.891   1.604   6.475  0.4654 -0.2235  0.3012
 9957SOL     OW41929   1.515   5.341   4.318 -0.0220 -0.0730  0.2931
 9957SOL    HW141930   1.549   5.290   4.239  2.2410 -0.9803  1.7973
 9957SOL    HW241931   1.462   5.280   4.377  0.1291  0.0552  0.5635
 9958SOL     OW41932   4.569   5.301   5.076  0.6703 -0.1976  0.1420
 9958SOL    HW141933   4.473   5.324   5.060  0.9305 -0.2534 -1.5652
 9958SOL    HW241934   4.574   5.215   5.127 -0.2012  0.9806  2.2857
 9959SOL     OW41935   2.397   0.509   5.483 -0.3349  0.1927  0.9110
 9959SOL    HW141936   2.439   0.425   5.448 -2.3294 -0.3541 -0.2746
 9959SOL    HW241937   2.449   0.588   5.450 -0.0342 -0.4788 -0.2877
 9960SOL     OW41938   9.438   7.428   6.853 -0.3444  0.7252  0.0258
 9960SOL    HW141939   9.407   7.334   6.840 -2.7359  1.4699  0.1260
 9960SOL    HW241940   9.534   7.436   6.824  0.5408 -2.1768  1.9175
 9961SOL     OW41941   0.373   1.567   5.558  0.0804 -0.0567 -0.0493
 9961SOL    HW141942   0.466   1.604   5.561  0.3222 -0.8201  3.1459
 9961SOL    HW241943   0.311   1.635   5.519  1.0995  2.5023  2.6542
 9962SOL     OW41944   5.179   6.320   1.649 -0.2344 -0.0825 -0.1368
 9962SOL    HW141945   5.188   6.344   1.552  0.8684  1.7603  0.3976
 9962SOL    HW241946   5.255   6.359   1.700 -1.8874  0.7131  1.7897
 9963SOL     OW41947   4.837   2.934   2.142  0.0638 -0.3752 -0.2446
 9963SOL    HW141948   4.891   2.850   2.155 -0.9635 -1.3134 -1.9100
 9963SOL    HW241949   4.897   3.007   2.110  1.0758 -0.2967  1.7482
 9964SOL     OW41950   1.881   3.821   4.424 -0.3673  0.0777  0.5576
 9964SOL    HW141951   1.840   3.855   4.509 -0.6347  1.4227 -0.0798
 9964SOL    HW241952   1.813   3.827   4.350 -0.3175 -1.6283  0.3731
 9965SOL     OW41953   2.464   0.266   2.739 -0.1661  0.2457  0.0770
 9965SOL    HW141954   2.431   0.188   2.791  0.6154 -0.9671 -1.2094
 9965SOL    HW241955   2.387   0.310   2.692 -0.3719 -0.8610 -0.6468
 9966SOL     OW41956   5.703   1.769   9.500  0.4465 -0.5444 -0.4983
 9966SOL    HW141957   5.729   1.866   9.502 -3.1583  0.4527  1.1443
 9966SOL    HW241958   5.656   1.748   9.414 -1.2593 -0.1064  0.3046
 9967SOL     OW41959   4.047   7.948   4.807 -0.1693 -0.1892  0.2376
 9967SOL    HW141960   4.129   7.900   4.776 -0.3919  0.5773 -1.6113
 9967SOL    HW241961   4.065   7.992   4.895  1.5597  0.3513 -0.3723
 9968SOL     OW41962   0.652   1.452   2.311  0.5162  0.8598 -0.0374
 9968SOL    HW141963   0.634   1.379   2.245  0.5739  1.4758 -0.7306
 9968SOL    HW241964   0.650   1.413   2.403 -0.8899  0.2357 -0.3001
 9969SOL     OW41965   6.925   0.297   4.182 -0.4682  0.3674 -0.6269
 9969SOL    HW141966   6.847   0.330   4.128 -1.2406 -1.0158 -0.3668
 9969SOL    HW241967   7.003   0.281   4.121 -1.0822 -0.4012 -1.2266
 9970SOL     OW41968   6.523   4.993   5.754 -0.0245  0.3802  0.4394
 9970SOL    HW141969   6.581   4.921   5.793  1.2473  0.0160 -2.0039
 9970SOL    HW241970   6.429   4.959   5.746  0.0692 -0.1469  1.5558
 9971SOL     OW41971   3.209   7.639   5.563 -0.5264 -0.1142  0.2368
 9971SOL    HW141972   3.146   7.703   5.605  0.0874  1.2359 -0.8540
 9971SOL    HW241973   3.158   7.568   5.514 -1.1838  0.3526  0.2462
 9972SOL     OW41974   2.165   9.781   4.044  0.2478 -0.4534  0.0014
 9972SOL    HW141975   2.237   9.839   4.008  0.5291 -0.8344 -0.0506
 9972SOL    HW241976   2.093   9.770   3.975 -1.1539  2.1266  1.0196
 9973SOL     OW41977   5.432   0.348   7.828  0.5787  0.5917  0.4064
 9973SOL    HW141978   5.513   0.298   7.858  0.8387  0.7979  0.0440
 9973SOL    HW241979   5.397   0.403   7.904  1.5588  1.5338  0.1881
 9974SOL     OW41980   0.788   4.949   1.049  0.0981  0.2062  0.1776
 9974SOL    HW141981   0.730   4.908   0.979  1.6630  0.1423 -1.1157
 9974SOL    HW241982   0.852   4.881   1.084  1.2246  0.9658 -0.3857
 9975SOL     OW41983   9.865   4.990   1.746  0.0005  0.6339 -0.1553
 9975SOL    HW141984   9.965   4.989   1.750  0.0675 -0.6895 -1.4591
 9975SOL    HW241985   9.836   4.958   1.656 -1.6818 -2.8596  1.5595
 9976SOL     OW41986   3.987   9.728   1.898  0.0024  0.5881 -0.1779
 9976SOL    HW141987   3.999   9.692   1.805 -0.7945 -1.6481  0.5520
 9976SOL    HW241988   4.077   9.734   1.942  0.1923 -0.1846 -0.4427
 9977SOL     OW41989   1.795   3.928   5.113  0.9022 -0.3117 -0.1021
 9977SOL    HW141990   1.881   3.939   5.062  0.9265 -0.2534 -0.0482
 9977SOL    HW241991   1.720   3.918   5.048  1.1647 -2.0915 -0.1509
 9978SOL     OW41992   2.589   0.402   4.392  1.1099  0.0233 -0.2123
 9978SOL    HW141993   2.581   0.500   4.412 -0.9088 -0.4545  1.6177
 9978SOL    HW241994   2.511   0.373   4.336  0.4963 -0.9186  1.0834
 9979SOL     OW41995   6.023   0.663   9.944 -0.2303 -0.3208  0.3574
 9979SOL    HW141996   5.955   0.726   9.907  0.6626 -0.4663 -1.6058
 9979SOL    HW241997   6.065   0.611   9.869  2.1899 -0.0827  1.4807
 9980SOL     OW41998   1.834   3.814   1.846  0.3289  0.3853 -0.1666
 9980SOL    HW141999   1.751   3.869   1.842 -0.0790  0.0890  2.8134
 9980SOL    HW242000   1.913   3.873   1.856  0.3477  0.6106 -1.6095
 9981SOL     OW42001   9.556   7.080   0.190 -0.1361 -0.7895  0.6280
 9981SOL    HW142002   9.477   7.022   0.208  0.5925 -2.2227 -0.7066
 9981SOL    HW242003   9.526   7.162   0.141 -0.8546 -1.1157  0.5183
 9982SOL     OW42004   6.477   5.190   5.108 -0.4626  0.6958  0.0751
 9982SOL    HW142005   6.477   5.280   5.065  1.1486 -0.6427 -2.8624
 9982SOL    HW242006   6.555   5.137   5.075 -1.2882 -1.7369  1.8707
 9983SOL     OW42007   0.877   5.598   3.987 -0.0675  0.3728 -0.0030
 9983SOL    HW142008   0.869   5.581   3.889  1.4742  2.1634 -0.4628
 9983SOL    HW242009   0.972   5.591   4.015 -0.5191 -0.3248  1.4147
 9984SOL     OW42010   5.789   8.821   1.800  0.3973  0.6708  0.2387
 9984SOL    HW142011   5.809   8.775   1.886  0.3693 -1.9848 -1.1121
 9984SOL    HW242012   5.718   8.889   1.814 -0.1756 -0.2809  2.1537
 9985SOL     OW42013   0.871   5.142   2.497  0.1634 -0.0243 -0.4242
 9985SOL    HW142014   0.886   5.231   2.455 -0.8014  0.1808 -0.3361
 9985SOL    HW242015   0.841   5.077   2.427  0.2013 -0.1121 -0.3595
 9986SOL     OW42016   2.794   9.651   4.512  0.2606  0.5435 -0.0941
 9986SOL    HW142017   2.875   9.621   4.561 -0.1156 -0.6420 -0.1930
 9986SOL    HW242018   2.806   9.637   4.414 -0.7680 -1.3536  0.0322
 9987SOL     OW42019   3.833   7.015   9.147  0.0299  0.6063 -0.2785
 9987SOL    HW142020   3.898   7.030   9.073 -1.5313  0.7403 -1.6577
 9987SOL    HW242021   3.844   6.923   9.184  1.3300  0.8075 -0.1612
 9988SOL     OW42022   3.982   6.097   2.855  0.2286  0.3964 -0.1604
 9988SOL    HW142023   3.903   6.035   2.853  1.4771 -1.1947 -0.7038
 9988SOL    HW242024   4.024   6.101   2.765  0.3247  1.8683 -0.0701
 9989SOL     OW42025   1.119   2.115   1.261  0.0871 -0.1141 -0.3791
 9989SOL    HW142026   1.117   2.209   1.227 -2.0501 -0.6218 -1.7006
 9989SOL    HW242027   1.092   2.114   1.357 -0.4701  0.5429 -0.5281
 9990SOL     OW42028   6.308   5.656   0.492 -0.2249 -0.0918  0.2623
 9990SOL    HW142029   6.392   5.685   0.445  0.3677  0.0394  1.4032
 9990SOL    HW242030   6.231   5.711   0.460  0.4004  0.8576  0.3649
 9991SOL     OW42031   6.817   8.651   9.383  0.3435 -0.0574  0.2259
 9991SOL    HW142032   6.724   8.658   9.419 -0.0379 -0.0754 -0.7381
 9991SOL    HW242033   6.880   8.699   9.445  0.0539 -2.0460  2.1103
 9992SOL     OW42034   4.852   9.268   2.240 -0.2589  0.3815 -0.0962
 9992SOL    HW142035   4.929   9.223   2.286 -0.8980  0.1948  0.7873
 9992SOL    HW242036   4.809   9.333   2.302 -0.5805  0.7611 -0.7163
 9993SOL     OW42037   0.092   1.627   1.062 -0.0261  0.8738 -0.5024
 9993SOL    HW142038   0.008   1.587   1.097  0.3398  1.0963  0.6760
 9993SOL    HW242039   0.138   1.562   1.002  0.3999 -0.3743  1.1328
 9994SOL     OW42040   4.904   6.213   4.949 -0.0824 -0.1718 -0.2643
 9994SOL    HW142041   4.885   6.174   4.858  3.1982 -2.1571 -0.1933
 9994SOL    HW242042   4.873   6.149   5.019  0.8532 -0.4142 -0.0658
 9995SOL     OW42043   5.312   4.558   0.678  0.4836 -0.1098  0.3105
 9995SOL    HW142044   5.393   4.500   0.669  0.1880 -0.4753 -0.0174
 9995SOL    HW242045   5.338   4.653   0.663  1.1484 -0.0447  1.8569
 9996SOL     OW42046   6.700   1.253   2.613 -0.0868 -0.2784 -0.0851
 9996SOL    HW142047   6.666   1.316   2.682 -0.3986  0.2046 -0.6720
 9996SOL    HW242048   6.780   1.294   2.567 -0.5576 -0.1152 -0.7662
 9997SOL     OW42049   2.113   4.877   0.781  0.3808  0.3989 -0.5955
 9997SOL    HW142050   2.156   4.919   0.701  1.0795  1.8815  0.5310
 9997SOL    HW242051   2.183   4.833   0.838  0.5218  3.1296  1.4328
 9998SOL     OW42052   0.362   6.983   2.712  0.2150  0.1525  0.1991
 9998SOL    HW142053   0.428   6.973   2.787 -0.7294  1.0248  1.1549
 9998SOL    HW242054   0.356   7.079   2.686  0.6986 -0.1779 -1.1500
 9999SOL     OW42055   1.956   0.239   3.956  0.4092  0.5571 -0.7731
 9999SOL    HW142056   2.010   0.176   4.012 -0.7558 -0.8184 -1.1396
 9999SOL    HW242057   1.884   0.187   3.908  0.4827  1.9234 -2.4106
10000SOL     OW42058   1.407   0.413   7.148 -0.3597  0.1971 -0.0975
10000SOL    HW142059   1.446   0.399   7.239  3.2194  1.8478 -1.2943
10000SOL    HW242060   1.329   0.475   7.155 -0.1686  0.2566  1.8516
10001SOL     OW42061   1.185   6.588   3.480  0.0101  0.4604  0.1853
10001SOL    HW142062   1.159   6.656   3.412  1.8120  1.4198  0.4224
10001SOL    HW242063   1.248   6.522   3.439 -1.9618 -1.3078 -0.1334
10002SOL     OW42064   0.474   8.375   4.143  0.1048  0.3067 -0.1422
10002SOL    HW142065   0.385   8.389   4.187 -0.8191  1.3764 -2.2618
10002SOL    HW242066   0.531   8.316   4.200 -1.8314 -0.1048  1.4148
10003SOL     OW42067   0.278   7.055   8.446  0.2816  1.6090  0.6002
10003SOL    HW142068   0.350   7.095   8.503 -0.6191  0.5481  2.5252
10003SOL    HW242069   0.304   6.962   8.419  1.2933  2.5557 -1.8719
10004SOL     OW42070   3.329   0.018   9.710 -0.1830  0.1047 -0.1269
10004SOL    HW142071   3.364   0.106   9.675  0.4348  0.2751  0.8941
10004SOL    HW242072   3.353  -0.055   9.646  0.4194  0.4971 -0.3592
10005SOL     OW42073   1.914   6.163   5.434 -0.2059  0.1801 -0.4287
10005SOL    HW142074   1.990   6.146   5.371  2.2958  0.1523  2.4530
10005SOL    HW242075   1.931   6.247   5.485 -1.7659 -0.1975  0.7715
10006SOL     OW42076   8.802   5.027   2.339  0.6324  0.1542  0.0438
10006SOL    HW142077   8.868   5.100   2.320  1.5526 -0.4270  0.9085
10006SOL    HW242078   8.826   4.983   2.426  0.1901 -1.2813 -0.5428
10007SOL     OW42079   1.969   5.198   5.890  0.1675 -0.1580  0.0615
10007SOL    HW142080   2.013   5.184   5.801 -0.7340  0.4309 -0.4822
10007SOL    HW242081   1.874   5.167   5.886  0.5871 -1.6860  1.3172
10008SOL     OW42082   6.714   0.374   7.695  0.1319 -0.0116  0.2313
10008SOL    HW142083   6.755   0.283   7.689 -1.6123 -0.7191 -1.4479
10008SOL    HW242084   6.688   0.405   7.603 -1.3861  1.1797  1.0362
10009SOL     OW42085   5.936   3.396   0.778  0.5201  0.1782  0.3195
10009SOL    HW142086   5.843   3.394   0.815 -0.8822  0.7842 -3.0092
10009SOL    HW242087   5.972   3.302   0.775  0.2281 -0.0067  2.0754
10010SOL     OW42088   1.658   8.578   4.702 -0.2705  0.4056  0.1258
10010SOL    HW142089   1.679   8.482   4.721  0.2829  0.5015 -0.0030
10010SOL    HW242090   1.682   8.634   4.782  0.3124  0.5637 -0.1555
10011SOL     OW42091   9.789   7.528   5.142  0.5656 -0.2229  0.1928
10011SOL    HW142092   9.871   7.576   5.173  0.0590 -0.0490  1.2591
10011SOL    HW242093   9.719   7.594   5.115 -0.6907 -0.3022  3.0984
10012SOL     OW42094   5.071   4.054   7.338  0.3969 -0.8998  0.0031
10012SOL    HW142095   5.027   4.144   7.341  0.1078 -0.8443 -3.4616
10012SOL    HW242096   5.165   4.062   7.373  0.1611  0.6186  0.3532
10013SOL     OW42097   5.831   7.854   4.209  0.5695 -0.0056 -0.2498
10013SOL    HW142098   5.770   7.811   4.142  0.0529 -3.1840  2.1418
10013SOL    HW242099   5.925   7.824   4.193  1.0203  2.0813 -1.7194
10014SOL     OW42100   4.924   9.749   1.998 -0.5164 -0.1991  0.2485
10014SOL    HW142101   4.881   9.831   1.960  1.1948  0.5011 -0.2141
10014SOL    HW242102   4.868   9.669   1.976 -2.6265  0.9093  1.3714
10015SOL     OW42103   3.909   2.440   5.023 -0.3720 -0.1339  0.2918
10015SOL    HW142104   3.905   2.420   5.120 -0.0227  2.2487  0.8367
10015SOL    HW242105   3.996   2.407   4.986 -0.3225 -0.6576  0.8636
10016SOL     OW42106   0.013   1.781   5.605  0.8172  0.7868  0.4172
10016SOL    HW142107   0.103   1.765   5.564  0.4931  1.3471 -0.4974
10016SOL    HW242108  -0.049   1.820   5.538 -1.1672 -2.8666  0.0097
10017SOL     OW42109   4.375   5.236   2.674  0.8924  0.2526 -0.0060
10017SOL    HW142110   4.303   5.166   2.678  1.0903  0.1508  2.2121
10017SOL    HW242111   4.334   5.324   2.649  0.4350 -0.3559 -1.4761
10018SOL     OW42112   3.558   5.844   8.547  0.4102 -0.2671  0.2496
10018SOL    HW142113   3.528   5.780   8.477 -1.1171  2.6251 -1.8836
10018SOL    HW242114   3.628   5.802   8.604  1.3067 -2.9167 -2.6933
10019SOL     OW42115   2.619   9.941   2.273 -0.3634 -0.4890  0.0465
10019SOL    HW142116   2.696   9.941   2.336 -0.5117  1.8144  0.2734
10019SOL    HW242117   2.578  10.033   2.270 -1.3053 -0.9418 -2.2415
10020SOL     OW42118   0.274   8.024   0.791 -0.0394 -0.4439  0.0477
10020SOL    HW142119   0.229   7.947   0.835 -0.7253  0.6566  1.3081
10020SOL    HW242120   0.299   7.999   0.698  0.1367 -2.3284  0.5730
10021SOL     OW42121   1.857   5.913   4.306  0.7110 -0.2426  0.3962
10021SOL    HW142122   1.797   5.869   4.374 -0.9807  2.6800  0.8804
10021SOL    HW242123   1.804   5.976   4.250  2.8440  0.3270 -1.0521
10022SOL     OW42124   9.296   9.384   1.731  0.2981  0.1485  0.2183
10022SOL    HW142125   9.374   9.437   1.764  1.3031 -0.2659 -1.4493
10022SOL    HW242126   9.229   9.446   1.689  0.1622  0.3897  0.7798
10023SOL     OW42127   4.869   6.980   1.708  0.0028  0.4380 -0.0143
10023SOL    HW142128   4.907   6.891   1.685  0.7972  0.9653 -0.7515
10023SOL    HW242129   4.929   7.027   1.772 -0.3325  0.5179  0.2467
10024SOL     OW42130   3.539   7.290   2.192 -0.3169 -0.1418  0.1158
10024SOL    HW142131   3.559   7.337   2.106  0.5120  0.7833  0.8105
10024SOL    HW242132   3.551   7.191   2.180  2.5380  0.1950 -0.0938
10025SOL     OW42133   2.907   9.118   0.709 -0.2402  0.0152 -0.1035
10025SOL    HW142134   2.842   9.193   0.723 -0.4816 -0.5146  1.7086
10025SOL    HW242135   3.000   9.155   0.702 -0.2968  0.4418  1.3416
10026SOL     OW42136   3.058   9.083   2.528 -0.7621 -0.1855 -0.0738
10026SOL    HW142137   3.110   9.137   2.461 -0.7965 -1.0818 -0.8482
10026SOL    HW242138   3.027   9.142   2.602  2.3181  0.1801  0.9955
10027SOL     OW42139   4.545   3.863   5.179 -0.0467  0.2201  0.7167
10027SOL    HW142140   4.473   3.928   5.205 -0.1624 -0.1097  1.2367
10027SOL    HW242141   4.533   3.779   5.231  0.7317  0.1668  0.8098
10028SOL     OW42142   0.876   8.224   5.389 -0.2658 -0.2840  0.5759
10028SOL    HW142143   0.797   8.229   5.450 -0.5522 -1.7958  0.3476
10028SOL    HW242144   0.861   8.284   5.310 -0.2665  1.0152  1.5317
10029SOL     OW42145   3.271   9.703   6.318  0.4085  0.5917  0.2583
10029SOL    HW142146   3.304   9.633   6.255  0.6322  0.8839  0.0489
10029SOL    HW242147   3.303   9.684   6.410 -1.6772 -1.0093  0.6690
10030SOL     OW42148   5.412   6.697   1.432  0.6042 -0.3852  0.3250
10030SOL    HW142149   5.443   6.639   1.357 -0.3869  0.5246 -0.7908
10030SOL    HW242150   5.454   6.665   1.517  0.2214 -2.6312 -0.2849
10031SOL     OW42151   4.482   9.357   9.392 -0.0174 -0.1272  0.0437
10031SOL    HW142152   4.438   9.323   9.475 -0.1080 -0.1975 -0.0316
10031SOL    HW242153   4.568   9.308   9.376  0.6926  0.8507  0.8477
10032SOL     OW42154   4.893   3.233   5.144 -0.1401  0.2224  0.1427
10032SOL    HW142155   4.815   3.246   5.204 -0.2317  1.5003 -0.2423
10032SOL    HW242156   4.976   3.263   5.190  0.1171 -0.9997  0.4994
10033SOL     OW42157   9.766   2.441   1.094  0.1002 -0.3575  0.1001
10033SOL    HW142158   9.808   2.482   1.175 -0.5531 -2.0054  1.3016
10033SOL    HW242159   9.825   2.454   1.015  1.3553  0.1281  1.1107
10034SOL     OW42160   1.384   2.750   4.862 -0.1677 -0.0226  0.2748
10034SOL    HW142161   1.301   2.806   4.851 -0.0483  0.7011  2.8476
10034SOL    HW242162   1.464   2.809   4.862  0.2474 -0.5686 -0.4615
10035SOL     OW42163   9.098   0.340   9.135  0.3347  0.0158 -0.6392
10035SOL    HW142164   9.159   0.261   9.128 -0.9161 -1.0839  0.5195
10035SOL    HW242165   9.042   0.346   9.052 -1.2476 -1.7769  0.2454
10036SOL     OW42166   3.536   8.937   0.046 -0.1443 -0.3716 -0.1523
10036SOL    HW142167   3.531   9.037   0.049 -0.0247 -0.3652 -0.1289
10036SOL    HW242168   3.536   8.901   0.140 -1.7066 -0.4730 -0.1759
10037SOL     OW42169   1.854   4.274   4.428 -0.3587  0.1290  0.1269
10037SOL    HW142170   1.935   4.224   4.459 -1.4032 -0.3216  2.1572
10037SOL    HW242171   1.791   4.210   4.384  0.1737  0.4058 -1.0593
10038SOL     OW42172   0.522   4.925   4.565  0.1104 -0.2731  0.0762
10038SOL    HW142173   0.552   4.990   4.634  0.8283 -0.9327  0.3859
10038SOL    HW242174   0.594   4.858   4.548 -0.5990 -0.9573 -0.2797
10039SOL     OW42175   3.103   1.879   8.173  0.0249 -0.1310  0.0080
10039SOL    HW142176   3.076   1.791   8.212  0.9436 -0.2251  0.4381
10039SOL    HW242177   3.134   1.866   8.079  0.8009 -0.3633  0.2982
10040SOL     OW42178   1.430   0.800   2.810  0.1617  0.4843 -0.2295
10040SOL    HW142179   1.513   0.840   2.772  1.4377  0.1367  2.1181
10040SOL    HW242180   1.353   0.862   2.796  0.6096  0.4435 -3.1737
10041SOL     OW42181   1.550   1.671   2.735 -0.7761  0.1034 -0.1879
10041SOL    HW142182   1.613   1.744   2.760  0.9877 -1.0696 -1.1225
10041SOL    HW242183   1.499   1.698   2.653 -0.0117  0.2237 -0.6263
10042SOL     OW42184   6.684   1.964   3.345  0.2937 -0.2504  0.0111
10042SOL    HW142185   6.763   1.978   3.404  0.0353 -1.2187  0.5932
10042SOL    HW242186   6.681   1.869   3.315  0.5856  0.3043 -1.8051
10043SOL     OW42187   1.739   8.960   3.613  0.3836 -0.1250 -0.1024
10043SOL    HW142188   1.731   9.059   3.626  0.4685 -0.2918  1.2401
10043SOL    HW242189   1.789   8.920   3.689 -0.9440 -1.4120  0.1217
10044SOL     OW42190   4.706   6.641   5.264  0.1611  0.8776 -0.0505
10044SOL    HW142191   4.662   6.689   5.189  2.0536  1.1974 -0.9967
10044SOL    HW242192   4.652   6.560   5.288  0.0201  0.1930 -2.4621
10045SOL     OW42193   1.206   9.812   4.844  0.1198  0.2404  0.0566
10045SOL    HW142194   1.286   9.833   4.789  0.1260 -0.4040 -0.1913
10045SOL    HW242195   1.137   9.884   4.833  0.5182  0.6103 -0.0115
10046SOL     OW42196   0.753   8.835   4.633 -0.7869  0.1820  0.3912
10046SOL    HW142197   0.740   8.736   4.632 -1.0667  0.2232 -0.6782
10046SOL    HW242198   0.701   8.875   4.708 -0.9702 -0.4500  0.5983
10047SOL     OW42199   3.607   7.020   2.128  0.0480 -0.6985  0.3157
10047SOL    HW142200   3.610   6.979   2.219  0.6919 -3.5295 -0.9289
10047SOL    HW242201   3.684   6.985   2.073  0.0693  1.4919 -1.1035
10048SOL     OW42202   3.118   5.300   8.806  0.1702 -0.0995 -0.2010
10048SOL    HW142203   3.019   5.308   8.805  0.2043  0.2857 -1.4339
10048SOL    HW242204   3.150   5.263   8.719  1.1769  0.7146 -0.1958
10049SOL     OW42205   1.156   5.453   4.618 -0.3339 -0.3240 -0.2201
10049SOL    HW142206   1.200   5.462   4.707  0.1394  0.2162 -0.5079
10049SOL    HW242207   1.101   5.369   4.616 -0.4189 -0.2885  0.6078
10050SOL     OW42208   3.174   1.888   9.687  0.2483  0.1066  0.0387
10050SOL    HW142209   3.246   1.873   9.619  1.7019 -0.8396  1.7226
10050SOL    HW242210   3.205   1.853   9.776 -1.0379  2.5576  1.5084
10051SOL     OW42211   1.843   7.984   5.387  0.2230 -0.8022 -0.0238
10051SOL    HW142212   1.868   8.002   5.483  1.0617 -0.8854 -0.2236
10051SOL    HW242213   1.754   7.937   5.384 -0.4546  0.3981  0.6518
10052SOL     OW42214   6.323   5.005   1.439 -0.3576  0.1033 -0.0957
10052SOL    HW142215   6.349   5.102   1.438  3.2856 -0.8126 -0.4351
10052SOL    HW242216   6.370   4.957   1.365 -1.1540 -2.1662  0.8295
10053SOL     OW42217   1.991   6.783   2.267  0.1029  0.0258 -0.3652
10053SOL    HW142218   1.948   6.812   2.353  0.4636  0.5223 -0.3496
10053SOL    HW242219   1.920   6.772   2.197  0.1636  3.2051 -1.0050
10054SOL     OW42220   6.215   8.499   2.903  0.2168  0.4922 -0.7715
10054SOL    HW142221   6.306   8.474   2.936  0.1021  1.9905  0.7328
10054SOL    HW242222   6.218   8.592   2.866 -0.8200  0.7542 -0.2067
10055SOL     OW42223   4.668   3.321   7.620 -0.3151 -0.4971  0.0567
10055SOL    HW142224   4.729   3.246   7.646  0.0833 -0.3402 -0.4108
10055SOL    HW242225   4.695   3.404   7.667 -1.7148 -0.9813  1.7859
10056SOL     OW42226   5.238   6.304   0.074  0.7393 -0.0739  0.1837
10056SOL    HW142227   5.145   6.341   0.066  0.7741  0.0295  0.2548
10056SOL    HW242228   5.270   6.316   0.167  1.7930  2.2173 -0.4500
10057SOL     OW42229   1.275   9.504   4.122 -0.2811 -0.2060  0.7980
10057SOL    HW142230   1.202   9.572   4.130 -0.4812 -0.2896 -0.2186
10057SOL    HW242231   1.235   9.418   4.089  0.2888 -0.2356  0.1945
10058SOL     OW42232   1.763   3.947   0.618  0.4829 -0.1247  0.3045
10058SOL    HW142233   1.751   4.031   0.565  0.3834 -1.1765 -1.3899
10058SOL    HW242234   1.823   3.965   0.696  1.6935  1.1464 -0.8953
10059SOL     OW42235   2.453   7.390   5.620  0.4400 -0.4512  0.0743
10059SOL    HW142236   2.531   7.453   5.624 -0.4587  0.7024 -0.1609
10059SOL    HW242237   2.468   7.322   5.549  1.5040 -0.6123  0.4410
10060SOL     OW42238   5.389   8.190   1.098  0.0273  0.3106 -0.0887
10060SOL    HW142239   5.304   8.139   1.089  0.4749 -0.5394  0.3760
10060SOL    HW242240   5.381   8.278   1.051 -1.2558  0.4324  0.3383
10061SOL     OW42241   1.919   7.490   7.941 -0.1501  0.0835 -0.5507
10061SOL    HW142242   1.910   7.580   7.983  1.6818  1.0645 -2.1892
10061SOL    HW242243   1.904   7.497   7.842 -0.0660 -1.4279 -0.6957
10062SOL     OW42244   7.094   7.028   0.300  0.5346 -0.0276  0.0200
10062SOL    HW142245   7.132   7.118   0.322 -1.4386  0.5196  1.3897
10062SOL    HW242246   7.135   6.959   0.360  1.0085  0.1863 -0.0551
10063SOL     OW42247   9.558   6.006   3.521 -0.3563 -0.6082  0.1590
10063SOL    HW142248   9.459   6.000   3.537 -0.6897 -0.9087 -1.8502
10063SOL    HW242249   9.607   5.973   3.601 -1.8978 -1.9155  0.5835
10064SOL     OW42250   3.419   4.427   0.021  1.0335 -0.2092  0.4624
10064SOL    HW142251   3.509   4.434   0.066  0.6835  0.9002  1.0151
10064SOL    HW242252   3.431   4.399  -0.074  1.9012 -1.0112  0.8018
10065SOL     OW42253   1.952   4.629   3.908 -0.8128 -0.0801 -0.8653
10065SOL    HW142254   2.027   4.687   3.941  0.9792 -2.7322 -0.0979
10065SOL    HW242255   1.957   4.621   3.809 -0.1686 -0.1258 -0.8317
10066SOL     OW42256   1.703   0.452   4.073 -0.3466  0.0820  0.0109
10066SOL    HW142257   1.744   0.485   3.988  1.0427 -1.1654  0.1730
10066SOL    HW242258   1.763   0.474   4.150  0.8210 -2.9962  0.0938
10067SOL     OW42259   5.236   7.315   2.720  0.0859  0.8055  0.1873
10067SOL    HW142260   5.288   7.288   2.639  0.3816 -0.8479  0.9014
10067SOL    HW242261   5.141   7.285   2.710  0.7012 -1.7164  1.5286
10068SOL     OW42262   5.326   8.016   3.084 -0.0976  0.2975  0.0560
10068SOL    HW142263   5.355   7.936   3.032 -0.4104 -0.0766  0.4603
10068SOL    HW242264   5.228   8.011   3.103  0.5446 -1.1056  3.3212
10069SOL     OW42265   2.519   2.663   2.563 -0.5964  0.0258 -0.0960
10069SOL    HW142266   2.444   2.609   2.601 -0.8479  0.2576 -0.2660
10069SOL    HW242267   2.485   2.752   2.533 -0.0873  0.4818  0.6489
10070SOL     OW42268   6.231   0.380   5.159  0.3626  0.4118  0.4129
10070SOL    HW142269   6.312   0.391   5.216  1.8474  1.4704 -1.8702
10070SOL    HW242270   6.214   0.282   5.144  3.0426  0.1925 -1.5924
10071SOL     OW42271   1.261   0.186   5.428 -0.2917  0.0746  0.1482
10071SOL    HW142272   1.331   0.141   5.372  0.5959  0.2684  1.1006
10071SOL    HW242273   1.255   0.283   5.401  1.0711  0.4859  1.2908
10072SOL     OW42274   1.925   6.219   5.794  0.0125  0.1080  0.7715
10072SOL    HW142275   1.911   6.147   5.863  0.5919  1.0954  1.9291
10072SOL    HW242276   2.015   6.207   5.752 -0.3691 -0.5371  0.1360
10073SOL     OW42277   0.680   5.765   3.661  0.0676  0.4818 -0.0731
10073SOL    HW142278   0.649   5.784   3.755  0.1207  0.1273  0.0164
10073SOL    HW242279   0.642   5.834   3.599  0.1935  0.8316  0.2383
10074SOL     OW42280   0.525   5.730   1.634  0.5038 -0.3377 -0.2729
10074SOL    HW142281   0.497   5.748   1.728  0.2350 -0.6354 -0.2973
10074SOL    HW242282   0.569   5.812   1.597 -0.2979  0.1149 -0.2283
10075SOL     OW42283   2.803   0.391   7.223 -0.4142  0.4384 -0.1581
10075SOL    HW142284   2.753   0.419   7.305 -0.6666 -0.3527 -0.0407
10075SOL    HW242285   2.883   0.337   7.250  0.0759  1.0288 -0.3870
10076SOL     OW42286   8.617   4.891   0.325  0.8293 -0.3812  0.0187
10076SOL    HW142287   8.646   4.874   0.231 -0.9035  1.6040 -0.9306
10076SOL    HW242288   8.630   4.988   0.347  2.1923 -1.0291  2.1975
10077SOL     OW42289   5.799   5.369   8.843 -0.4690  0.2348 -0.5270
10077SOL    HW142290   5.700   5.355   8.855 -0.1632 -2.6849 -1.1523
10077SOL    HW242291   5.832   5.429   8.915 -2.3048 -0.6117  1.0897
10078SOL     OW42292   4.422   3.235   4.506 -0.4568  0.1615  0.0457
10078SOL    HW142293   4.490   3.275   4.567 -1.5974  1.9159  0.1998
10078SOL    HW242294   4.425   3.135   4.514  1.0433  0.2787  1.1724
10079SOL     OW42295   6.797   0.525   7.199  0.1252  0.5965 -0.1565
10079SOL    HW142296   6.808   0.455   7.128 -0.0104  0.6695 -0.2500
10079SOL    HW242297   6.888   0.557   7.227  0.2946 -1.5784  1.8695
10080SOL     OW42298   2.599   5.584   8.698  0.1275  0.4228 -0.5253
10080SOL    HW142299   2.682   5.543   8.662  0.1194  0.7502 -0.9139
10080SOL    HW242300   2.585   5.674   8.657 -0.4972  0.3062 -0.5745
10081SOL     OW42301   2.442   8.050   1.339 -0.3018  0.0065 -0.2706
10081SOL    HW142302   2.479   8.142   1.351 -0.6173 -0.1443  1.9441
10081SOL    HW242303   2.343   8.055   1.325 -0.1537  0.0675 -1.3754
10082SOL     OW42304   6.315   7.593   4.606 -0.4472  0.2304 -0.2317
10082SOL    HW142305   6.315   7.645   4.520  2.1252  0.5357 -0.0690
10082SOL    HW242306   6.347   7.500   4.589 -2.2106 -0.4311 -0.0019
10083SOL     OW42307   2.609   9.496   4.076  0.8505  0.1333 -0.5683
10083SOL    HW142308   2.632   9.500   3.979  0.3365  2.6352 -0.6135
10083SOL    HW242309   2.517   9.534   4.091  1.8072  1.8670  1.1519
10084SOL     OW42310   3.452   0.052   9.954 -0.6945  0.2336 -0.2775
10084SOL    HW142311   3.424   0.060   9.858  0.1903 -1.5522 -0.7079
10084SOL    HW242312   3.496   0.137   9.982 -1.3739  0.9473 -1.3172
10085SOL     OW42313   8.699   4.387   1.826 -0.1335 -0.1946  0.3344
10085SOL    HW142314   8.602   4.399   1.847 -0.0067 -1.2814  1.6225
10085SOL    HW242315   8.743   4.477   1.821 -0.8916  0.2430  1.3554
10086SOL     OW42316   5.067   5.768   6.274  0.3651  0.4518 -0.3248
10086SOL    HW142317   5.131   5.737   6.203  0.7384  0.6729 -0.0840
10086SOL    HW242318   4.985   5.711   6.272  0.6628  0.0341 -0.4890
10087SOL     OW42319   4.159   8.294   4.738 -0.2043  0.2777 -0.6381
10087SOL    HW142320   4.109   8.289   4.652 -2.6727  0.2319  0.7456
10087SOL    HW242321   4.221   8.216   4.745 -1.2396 -0.6480 -1.6269
10088SOL     OW42322   0.852   6.387   4.260 -0.1421  0.1136 -0.1338
10088SOL    HW142323   0.778   6.450   4.286 -1.0172 -1.3580  0.9974
10088SOL    HW242324   0.914   6.374   4.338 -0.5092 -1.1820 -0.0518
10089SOL     OW42325   6.890   9.414   9.736  0.5780  0.3254  0.6299
10089SOL    HW142326   6.849   9.373   9.817  0.0567  0.7937  0.6094
10089SOL    HW242327   6.988   9.393   9.734  0.1022 -1.9474 -0.0341
10090SOL     OW42328   2.350   8.488   1.812 -0.2041  0.5186 -0.1134
10090SOL    HW142329   2.281   8.508   1.882 -1.0301 -2.5102  0.0168
10090SOL    HW242330   2.385   8.574   1.774 -2.1861  2.1541  1.6286
10091SOL     OW42331   8.715   2.399   5.836 -0.0554 -0.0968 -0.4710
10091SOL    HW142332   8.698   2.344   5.755  0.2185  0.0366 -0.6194
10091SOL    HW242333   8.670   2.488   5.826 -0.0273 -0.0831 -0.4719
10092SOL     OW42334   1.427   5.108   3.286 -0.4315 -0.7172  0.0871
10092SOL    HW142335   1.433   5.095   3.385  1.5004  0.6344  0.1789
10092SOL    HW242336   1.519   5.104   3.247 -1.1814 -1.2271 -1.6662
10093SOL     OW42337   1.138   1.655   9.681  0.1667 -0.2756 -0.2460
10093SOL    HW142338   1.072   1.588   9.647  1.0057 -0.7807 -0.9280
10093SOL    HW242339   1.114   1.682   9.774 -0.3445 -1.3073 -0.0710
10094SOL     OW42340   9.357   6.382   9.234 -0.2057  0.1049 -0.9207
10094SOL    HW142341   9.338   6.368   9.137  2.2804  0.1976 -1.4446
10094SOL    HW242342   9.346   6.478   9.257  0.5667  0.3262 -1.4445
10095SOL     OW42343   5.757   5.147   9.127 -0.2271  0.6203  0.5136
10095SOL    HW142344   5.827   5.077   9.132  0.4179  1.2145 -0.0755
10095SOL    HW242345   5.686   5.119   9.062 -0.2828  0.2424  0.7388
10096SOL     OW42346   9.472   8.121   4.024 -0.3810 -0.3677 -0.0956
10096SOL    HW142347   9.479   8.214   3.989 -1.2976 -0.7888 -1.4396
10096SOL    HW242348   9.562   8.078   4.025 -0.2264 -0.0790 -1.2301
10097SOL     OW42349   3.419   8.021   1.844  0.3536 -0.3486  0.0225
10097SOL    HW142350   3.437   7.956   1.918  2.1968  2.0924  1.8050
10097SOL    HW242351   3.326   8.056   1.853 -0.0509 -1.4285  0.0850
10098SOL     OW42352   5.169   5.454   2.856 -0.3143  0.1915  0.0642
10098SOL    HW142353   5.250   5.511   2.846  0.7862 -1.0654  1.5220
10098SOL    HW242354   5.092   5.509   2.890  0.2515  1.1296 -0.1643
10099SOL     OW42355   1.389   7.453   6.195  0.6470  0.2383 -0.8888
10099SOL    HW142356   1.289   7.452   6.194  0.6478 -1.2974 -0.0133
10099SOL    HW242357   1.424   7.449   6.101 -0.1121  0.3170 -1.1728
10100SOL     OW42358   6.872   8.741   2.934 -0.2754 -0.1636 -0.3334
10100SOL    HW142359   6.946   8.675   2.941 -0.7735 -1.0560 -2.6962
10100SOL    HW242360   6.903   8.820   2.881 -1.0108 -0.6117 -1.4717
10101SOL     OW42361   3.236   2.490   5.312  0.8808 -0.4638  0.4435
10101SOL    HW142362   3.181   2.488   5.396  1.8179 -1.8551  1.0485
10101SOL    HW242363   3.186   2.445   5.238  1.4437 -2.3877  1.1788
10102SOL     OW42364   4.248   4.436   9.429  0.2011 -0.2902 -0.8796
10102SOL    HW142365   4.338   4.430   9.384 -0.0225 -1.2436 -1.2052
10102SOL    HW242366   4.179   4.459   9.361  0.8218  5.0173  0.0919
10103SOL     OW42367   3.323   6.281   2.916  0.6131  0.6261  0.2466
10103SOL    HW142368   3.277   6.318   2.997 -1.6836  0.0557 -0.7397
10103SOL    HW242369   3.324   6.351   2.844 -0.0158  0.1506 -0.2254
10104SOL     OW42370   4.107   9.291   2.192 -0.1045  0.0835 -1.0549
10104SOL    HW142371   4.017   9.251   2.206  0.8377 -1.9908 -0.7122
10104SOL    HW242372   4.120   9.311   2.095 -0.1247 -1.6727 -1.4411
10105SOL     OW42373   6.027   7.174   6.541  0.1235 -0.4093  0.0716
10105SOL    HW142374   6.049   7.194   6.446 -0.2144 -2.3470 -0.4383
10105SOL    HW242375   5.969   7.092   6.546  0.5160 -0.6102  1.9590
10106SOL     OW42376   1.112   7.243   3.303 -0.1810  0.2196  0.2265
10106SOL    HW142377   1.196   7.190   3.294 -0.4989 -0.0264 -1.4773
10106SOL    HW242378   1.124   7.313   3.373  1.0651 -0.5137  0.7685
10107SOL     OW42379   4.487   6.323   6.761  0.1021 -0.3253  0.3809
10107SOL    HW142380   4.545   6.362   6.689 -0.2000  2.3360  1.5359
10107SOL    HW242381   4.466   6.393   6.829 -1.8454 -2.0983  1.6658
10108SOL     OW42382   5.176   0.019   2.667  0.3338  0.0694  0.2140
10108SOL    HW142383   5.092  -0.004   2.618  0.5733 -0.5390  0.0753
10108SOL    HW242384   5.154   0.054   2.758 -0.1709  2.4134 -0.7780
10109SOL     OW42385   2.670   1.334   2.258  0.3761  0.1334 -0.2624
10109SOL    HW142386   2.733   1.308   2.331  0.1162 -0.9256 -0.4049
10109SOL    HW242387   2.716   1.394   2.193  1.8394 -2.1787 -1.4177
10110SOL     OW42388   1.958   4.587   5.160  0.2385  0.2284 -0.1462
10110SOL    HW142389   1.872   4.623   5.197 -0.4519 -0.7543 -0.7518
10110SOL    HW242390   1.949   4.489   5.146  0.7643  0.4395 -2.1086
10111SOL     OW42391   1.500   5.777   4.013 -0.3361 -0.2089  0.0236
10111SOL    HW142392   1.588   5.746   3.977 -0.9894  0.5259 -2.2634
10111SOL    HW242393   1.497   5.877   4.010 -0.2451 -0.1031  2.5622
10112SOL     OW42394   3.899   8.115   8.512 -0.5331  0.4351  0.7882
10112SOL    HW142395   3.942   8.026   8.527 -2.3158 -0.8498 -1.4272
10112SOL    HW242396   3.889   8.161   8.600  0.2693 -1.6062  2.0076
10113SOL     OW42397   4.103   0.337   7.425  0.2922 -0.9077  0.2067
10113SOL    HW142398   4.071   0.374   7.513 -0.4988  0.2909 -0.5837
10113SOL    HW242399   4.040   0.265   7.395  0.3850 -1.0945  0.4530
10114SOL     OW42400   2.111   5.796   5.146  0.0212 -0.4944  0.1008
10114SOL    HW142401   2.193   5.744   5.170  0.1433  0.0475  0.8696
10114SOL    HW242402   2.108   5.810   5.047  2.1455  1.5821  0.2685
10115SOL     OW42403   6.583   6.977   4.475 -0.4856  0.0391 -0.1674
10115SOL    HW142404   6.505   6.945   4.528  1.8086 -2.9286  1.5824
10115SOL    HW242405   6.591   6.922   4.392 -0.5034  0.6224 -0.5571
10116SOL     OW42406   3.459   6.817   9.090  0.4775 -1.3092  0.2516
10116SOL    HW142407   3.520   6.752   9.135 -0.3325 -0.6681  2.3341
10116SOL    HW242408   3.467   6.906   9.136 -0.4243 -0.6632 -0.8427
10117SOL     OW42409   0.283   2.009   2.528  0.4067  0.3636 -0.1822
10117SOL    HW142410   0.274   2.108   2.518  2.4267  0.4844 -1.1028
10117SOL    HW242411   0.324   1.988   2.616 -4.2038  0.0422  2.0601
10118SOL     OW42412   3.534   1.759   5.382  0.1218  0.2353 -0.2135
10118SOL    HW142413   3.483   1.674   5.365 -0.7302  0.1015  2.8156
10118SOL    HW242414   3.624   1.736   5.417 -0.4602  0.5516  1.5455
10119SOL     OW42415   6.883   2.001   2.949 -0.5054 -0.0718  0.2532
10119SOL    HW142416   6.883   2.078   2.886  1.3741  0.3428  0.7395
10119SOL    HW242417   6.804   2.008   3.011 -0.7802  1.0262 -0.2140
10120SOL     OW42418   1.745   9.607   3.892  0.2299  0.3346  0.0661
10120SOL    HW142419   1.649   9.578   3.893 -0.5821  2.7494 -1.6945
10120SOL    HW242420   1.762   9.666   3.970 -0.5459  2.1915 -1.1104
10121SOL     OW42421   3.949   1.416   4.319 -0.4123  0.1582 -0.1569
10121SOL    HW142422   3.951   1.326   4.274 -0.4841 -0.4064  0.9474
10121SOL    HW242423   3.912   1.484   4.256 -0.8546 -0.6878 -0.8203
10122SOL     OW42424   3.741   9.112   1.613  0.5798 -0.6743  0.2972
10122SOL    HW142425   3.782   9.058   1.686 -1.1177  0.1343  1.8747
10122SOL    HW242426   3.643   9.093   1.608  0.7758 -1.2838 -2.2850
10123SOL     OW42427   8.085   7.793   8.990 -0.2395  0.2862  0.4621
10123SOL    HW142428   8.019   7.745   9.048  0.0811  0.0364  0.6228
10123SOL    HW242429   8.067   7.891   8.994 -2.6010  0.0257 -1.9628
10124SOL     OW42430   1.870   9.351   5.397  0.0240 -0.4325 -0.4581
10124SOL    HW142431   1.916   9.438   5.379 -0.5412  0.0064  0.1869
10124SOL    HW242432   1.790   9.343   5.337  0.1561 -0.5773 -0.6171
10125SOL     OW42433   2.680   0.124   4.754  0.4966  0.7418  0.0331
10125SOL    HW142434   2.706   0.065   4.677  0.5883  0.1119  0.5469
10125SOL    HW242435   2.616   0.193   4.722 -0.2010 -0.0994 -0.4191
10126SOL     OW42436   0.396   0.399   8.046 -0.4820 -0.0044 -0.2785
10126SOL    HW142437   0.428   0.352   8.128  0.0210  0.1110 -0.4075
10126SOL    HW242438   0.306   0.440   8.064 -0.5321 -0.2775  0.1012
10127SOL     OW42439   6.824   8.202   4.755  0.0111 -0.4250  0.7683
10127SOL    HW142440   6.753   8.144   4.716  0.2994  0.0453 -0.4772
10127SOL    HW242441   6.867   8.155   4.832  0.2930 -1.8871 -0.2618
10128SOL     OW42442   2.550   6.497   2.587 -0.3790  0.0399 -0.1090
10128SOL    HW142443   2.535   6.484   2.489 -4.3435 -0.0111  0.4273
10128SOL    HW242444   2.563   6.594   2.607 -2.1720  0.3621 -0.4189
10129SOL     OW42445   9.955   7.501   1.746 -0.4074  0.2569  0.4026
10129SOL    HW142446   9.969   7.431   1.675 -0.0506  1.1208 -0.3973
10129SOL    HW242447   9.858   7.507   1.767 -0.5405  0.1103 -0.1492
10130SOL     OW42448   1.807   6.111   2.921  0.4098 -0.1945 -0.7941
10130SOL    HW142449   1.723   6.130   2.869  1.7320 -0.6929 -3.1646
10130SOL    HW242450   1.838   6.195   2.966 -0.1762  0.4995 -1.6588
10131SOL     OW42451   5.946   5.381   5.315  0.2079  0.1662  0.8569
10131SOL    HW142452   6.031   5.360   5.267  0.1411  0.5588  0.5595
10131SOL    HW242453   5.965   5.398   5.412  0.4214 -0.0735  0.8566
10132SOL     OW42454   4.745   2.252   3.215  0.6197  0.6307 -0.3332
10132SOL    HW142455   4.721   2.243   3.311  0.7843  0.6214 -0.2924
10132SOL    HW242456   4.845   2.248   3.205  0.5634 -0.3187 -0.6024
10133SOL     OW42457   5.111   1.596   2.903 -0.0381  0.0300 -0.3746
10133SOL    HW142458   5.143   1.514   2.856  0.6082 -0.6572  1.2075
10133SOL    HW242459   5.123   1.584   3.002 -4.5562  0.0283  0.2539
10134SOL     OW42460   3.329   6.999   3.297  0.7506  0.1956 -0.0726
10134SOL    HW142461   3.379   6.993   3.383 -1.0548 -1.8594  0.8952
10134SOL    HW242462   3.380   6.952   3.225  1.2520  0.0678  0.3646
10135SOL     OW42463   0.236   7.611   4.047 -0.0461 -0.3012  0.2969
10135SOL    HW142464   0.206   7.603   4.142  1.5089 -1.0794  0.7376
10135SOL    HW242465   0.311   7.677   4.042 -0.4270  0.0787 -0.4663
10136SOL     OW42466   0.238   2.389   2.339  0.2666  0.1117 -0.1901
10136SOL    HW142467   0.229   2.487   2.321 -0.7439 -0.1094 -0.9081
10136SOL    HW242468   0.197   2.337   2.264  1.5548 -0.8771 -0.2332
10137SOL     OW42469   4.859   7.158   2.753  0.6822 -0.1107  0.1237
10137SOL    HW142470   4.835   7.238   2.808 -1.1217 -0.2338 -0.4683
10137SOL    HW242471   4.786   7.090   2.759  0.3861 -0.0843 -2.4977
10138SOL     OW42472   0.807   9.664   3.596  0.2644  0.3097  0.1377
10138SOL    HW142473   0.842   9.669   3.690 -1.2384  1.0418  0.6785
10138SOL    HW242474   0.742   9.589   3.589 -2.1276  2.2638  0.5826
10139SOL     OW42475   0.832   7.943   2.915 -0.2537  0.5734  0.5226
10139SOL    HW142476   0.751   7.895   2.949 -0.7919  0.3948 -0.9888
10139SOL    HW242477   0.821   8.041   2.928 -0.3143  0.4802  1.1674
10140SOL     OW42478   4.275   3.877   7.887 -0.1135  0.0144  0.8138
10140SOL    HW142479   4.198   3.874   7.950 -0.5953 -2.1738  0.1835
10140SOL    HW242480   4.357   3.842   7.933 -0.0638  0.0291  0.7373
10141SOL     OW42481   4.718   4.464   8.510 -0.0744 -0.3880 -0.4034
10141SOL    HW142482   4.770   4.545   8.484 -1.5324  0.3307 -1.0882
10141SOL    HW242483   4.752   4.430   8.598  0.1964  1.2494  0.1448
10142SOL     OW42484   5.749   9.864   0.547  0.2058 -0.1262 -0.2370
10142SOL    HW142485   5.795   9.840   0.462 -0.2602 -1.2371 -0.1898
10142SOL    HW242486   5.699   9.784   0.581 -1.6651  1.0101 -0.2473
10143SOL     OW42487   1.462   6.818   2.957 -0.1458 -0.0706  0.6271
10143SOL    HW142488   1.534   6.827   3.026 -0.5729  0.8403  0.9485
10143SOL    HW242489   1.502   6.827   2.865  0.1520  0.4299  0.8046
10144SOL     OW42490   6.975   3.442   9.479  0.1255  0.3530 -0.0980
10144SOL    HW142491   6.922   3.360   9.454  1.0578 -0.2445 -0.1438
10144SOL    HW242492   6.913   3.512   9.514 -0.8276  0.0408 -1.1276
10145SOL     OW42493   8.072   9.235   4.322  0.7257 -0.0202 -0.3502
10145SOL    HW142494   8.016   9.257   4.402  0.0946  0.8148 -1.0133
10145SOL    HW242495   8.115   9.146   4.335  0.2617 -0.0950  0.7192
10146SOL     OW42496   8.243   0.027   6.044 -0.1872 -0.0918 -0.1702
10146SOL    HW142497   8.310   0.101   6.040 -1.0377  0.6212 -1.3459
10146SOL    HW242498   8.205   0.022   6.136  0.3095  0.5367  0.0759
10147SOL     OW42499   8.850   6.842   5.881  0.2454 -0.0905 -0.2133
10147SOL    HW142500   8.754   6.852   5.905 -0.3427 -2.1193 -1.5577
10147SOL    HW242501   8.863   6.865   5.784  0.6633 -2.0789 -0.6522
10148SOL     OW42502   2.563   6.648   7.594 -0.5531  0.4734 -0.4369
10148SOL    HW142503   2.558   6.745   7.574 -0.7168  0.0964 -2.2749
10148SOL    HW242504   2.558   6.634   7.693 -3.1662  2.1677 -0.2992
10149SOL     OW42505   0.932   8.807   7.187 -0.2968 -0.3270  0.2980
10149SOL    HW142506   0.856   8.756   7.227 -1.3663  1.0985  0.1384
10149SOL    HW242507   0.970   8.869   7.255  0.1759 -0.4280  0.1284
10150SOL     OW42508   4.589   1.425   9.555 -0.3340 -0.4279 -0.7543
10150SOL    HW142509   4.683   1.392   9.546 -0.7820 -2.6779  1.7962
10150SOL    HW242510   4.526   1.352   9.527 -1.3243 -0.1938  0.7960
10151SOL     OW42511   4.440   1.292   6.825  0.1004  0.2375  0.3708
10151SOL    HW142512   4.400   1.255   6.741  1.3904  1.2860 -0.7299
10151SOL    HW242513   4.525   1.244   6.845 -0.2058 -0.0122  1.0954
10152SOL     OW42514   5.865   7.995   7.442 -0.0341 -0.4955  0.3978
10152SOL    HW142515   5.914   8.012   7.357  0.1837  0.6397  0.7349
10152SOL    HW242516   5.917   7.932   7.499 -0.9374 -2.5348 -0.9648
10153SOL     OW42517   1.038   3.338   7.089  0.1035  0.0437 -0.5701
10153SOL    HW142518   1.121   3.315   7.139 -0.1524 -0.2192 -0.2671
10153SOL    HW242519   1.063   3.373   6.998  0.5059 -1.3649 -1.0239
10154SOL     OW42520   2.969   7.422   8.421 -0.3642 -0.6496 -0.2017
10154SOL    HW142521   2.915   7.504   8.441 -0.0993 -0.4259 -0.4033
10154SOL    HW242522   2.948   7.391   8.328 -1.4296 -1.5586  0.3241
10155SOL     OW42523   5.679   4.624   2.786 -0.0522 -0.4549  0.3155
10155SOL    HW142524   5.748   4.686   2.823 -0.3403 -0.0054  0.1030
10155SOL    HW242525   5.595   4.675   2.767  0.4817 -0.4267 -2.1201
10156SOL     OW42526   7.545   4.483   0.229  0.0645 -0.7293 -0.2481
10156SOL    HW142527   7.464   4.426   0.239 -0.0855 -0.4277  0.2769
10156SOL    HW242528   7.548   4.549   0.304 -0.0346  0.2732 -1.1096
10157SOL     OW42529   2.174   1.027   5.595 -0.5233 -0.1894 -0.0012
10157SOL    HW142530   2.263   1.024   5.639 -0.2752  1.4348 -0.3681
10157SOL    HW242531   2.111   0.967   5.643  0.4222 -0.3736  1.0192
10158SOL     OW42532   0.727   9.257   6.637 -0.2187 -0.1968  0.2213
10158SOL    HW142533   0.722   9.213   6.727 -1.1691 -1.5620 -0.4772
10158SOL    HW242534   0.677   9.201   6.571 -2.0841  2.3201 -0.5634
10159SOL     OW42535   3.439   3.508   4.984  0.2809 -0.1419  0.2052
10159SOL    HW142536   3.500   3.557   4.922 -0.4252 -0.3729 -0.6626
10159SOL    HW242537   3.471   3.414   4.995  1.2884  0.3165  1.4035
10160SOL     OW42538   5.325   6.704   4.382  0.2303 -0.6674  0.2260
10160SOL    HW142539   5.254   6.641   4.351  0.6235 -2.9882  3.8444
10160SOL    HW242540   5.301   6.740   4.472  1.7874  1.5958 -0.2169
10161SOL     OW42541   1.505   7.488   1.044 -0.1065  1.0548 -0.3840
10161SOL    HW142542   1.426   7.484   0.982  0.2536 -1.2258 -0.7608
10161SOL    HW242543   1.584   7.526   0.997 -0.2397  0.7301 -0.8661
10162SOL     OW42544   1.350   2.541   7.697  0.4972 -0.9919  0.0397
10162SOL    HW142545   1.358   2.539   7.796 -0.8861  0.0993  0.1970
10162SOL    HW242546   1.393   2.624   7.662 -0.2366 -0.6734 -0.1274
10163SOL     OW42547   1.247   1.279   8.599  0.0101  0.4529 -0.8114
10163SOL    HW142548   1.151   1.269   8.628 -0.3819  0.9061 -1.9169
10163SOL    HW242549   1.292   1.347   8.657 -1.2603  2.6572 -2.3674
10164SOL     OW42550   5.255   6.306   4.716  0.1481 -0.0770 -0.2221
10164SOL    HW142551   5.284   6.214   4.745  1.5087  0.9538  1.8291
10164SOL    HW242552   5.191   6.298   4.640 -0.1550 -2.7578  0.2533
10165SOL     OW42553   9.026   2.305   5.382 -0.3160  0.1694 -0.1179
10165SOL    HW142554   9.021   2.396   5.342 -1.5233  0.0091 -0.3591
10165SOL    HW242555   9.121   2.282   5.404  0.0118  1.3849 -0.2753
10166SOL     OW42556   5.100   5.619   8.237  0.0024  0.5236  0.5156
10166SOL    HW142557   5.143   5.529   8.240 -1.0644  0.0356  1.6325
10166SOL    HW242558   5.065   5.642   8.328 -2.6166  0.6364 -0.4826
10167SOL     OW42559   6.234   1.584   2.760 -0.0482  0.5253 -0.0698
10167SOL    HW142560   6.296   1.551   2.831 -0.4896  0.0303  0.0848
10167SOL    HW242561   6.265   1.550   2.671  0.8054  1.5728 -0.1905
10168SOL     OW42562   4.323   1.255   6.554 -0.5261 -0.5032  0.5429
10168SOL    HW142563   4.236   1.266   6.508 -0.4106  0.6956  0.5931
10168SOL    HW242564   4.397   1.252   6.487 -0.3161  1.6918  0.6535
10169SOL     OW42565   0.318   4.847   6.358  0.1921 -0.1995  0.1741
10169SOL    HW142566   0.257   4.781   6.403 -0.5817  0.5032  0.1651
10169SOL    HW242567   0.273   4.884   6.277  1.8574 -2.0080 -1.6522
10170SOL     OW42568   6.086   9.717   2.216 -0.0620  0.0674 -0.1126
10170SOL    HW142569   6.101   9.814   2.236 -1.0055  0.2833 -0.4111
10170SOL    HW242570   6.026   9.709   2.136  0.7227 -0.7652 -0.6320
10171SOL     OW42571   9.806   8.817   3.637 -0.1816  0.2651  0.2107
10171SOL    HW142572   9.833   8.911   3.617  0.2514  0.1503  0.2463
10171SOL    HW242573   9.846   8.756   3.568  0.6129 -0.0381  0.9257
10172SOL     OW42574   2.102   7.151   6.905 -0.1586 -0.4143 -0.4913
10172SOL    HW142575   2.023   7.134   6.964 -0.8684  0.5736 -1.1448
10172SOL    HW242576   2.171   7.202   6.957  0.7908 -2.7332  0.6036
10173SOL     OW42577   6.922   8.947   3.194  0.4012  0.0309  0.3492
10173SOL    HW142578   6.893   8.995   3.112 -0.4830 -0.8404  0.1434
10173SOL    HW242579   6.939   8.851   3.173  3.3794  0.4842  0.4894
10174SOL     OW42580   0.623   7.316   3.550  0.0473 -0.0707 -0.2300
10174SOL    HW142581   0.659   7.409   3.541 -0.0136  0.0034  0.2777
10174SOL    HW242582   0.697   7.250   3.537  0.1192  0.0513 -0.4456
10175SOL     OW42583   5.815   5.843   9.449  0.0172 -0.5065  0.0407
10175SOL    HW142584   5.819   5.943   9.447  0.7040 -0.5237  0.1667
10175SOL    HW242585   5.782   5.813   9.538  0.4091 -0.3977  0.2287
10176SOL     OW42586   3.003   6.550   4.837 -0.4866  0.2323  0.8529
10176SOL    HW142587   3.070   6.477   4.849  0.9167  1.6457  1.8643
10176SOL    HW242588   2.956   6.539   4.750  0.6619 -1.1073  0.3971
10177SOL     OW42589   4.284   5.707   9.724 -0.3199  0.1629 -0.1528
10177SOL    HW142590   4.191   5.709   9.689  0.2182  2.3352 -1.5578
10177SOL    HW242591   4.349   5.695   9.649  0.5348 -2.1656  0.8945
10178SOL     OW42592   5.499   4.502   7.434  0.4629  0.0736  0.1894
10178SOL    HW142593   5.597   4.503   7.415  0.2502  0.5331 -0.9646
10178SOL    HW242594   5.465   4.408   7.425  0.6496  0.0456 -0.2766
10179SOL     OW42595   2.616   4.474   5.431  0.2011 -0.4571 -0.7173
10179SOL    HW142596   2.705   4.436   5.456  0.7755  1.5118  0.4362
10179SOL    HW242597   2.627   4.541   5.358 -0.1228  0.6392  0.2017
10180SOL     OW42598   1.721   8.030   2.814  0.7073  0.1816 -0.1034
10180SOL    HW142599   1.716   7.933   2.838  0.0959  0.3409  0.4259
10180SOL    HW242600   1.668   8.046   2.730  1.8154 -0.1525 -0.8762
10181SOL     OW42601   0.482   1.202   6.716  0.3318  0.0631  0.2290
10181SOL    HW142602   0.569   1.161   6.688  0.9293  2.5247 -1.6677
10181SOL    HW242603   0.493   1.245   6.806  1.1545  0.5892 -0.1207
10182SOL     OW42604   4.669   9.128   0.341 -0.2101 -0.1517  0.1351
10182SOL    HW142605   4.665   9.046   0.398  1.1552 -0.8975 -0.8092
10182SOL    HW242606   4.610   9.115   0.260 -0.3552 -0.0088  0.2175
10183SOL     OW42607   0.888   8.489   5.719 -0.3719 -0.2747  0.0936
10183SOL    HW142608   0.899   8.521   5.625 -1.5361 -0.4916 -0.1233
10183SOL    HW242609   0.873   8.568   5.779 -0.7395 -0.2142 -0.0735
10184SOL     OW42610   1.958   7.968   5.115 -0.1217 -0.1164 -0.3464
10184SOL    HW142611   1.886   7.899   5.113 -0.8779  0.6851 -2.1023
10184SOL    HW242612   1.942   8.031   5.191 -1.2022 -0.0551 -0.6144
10185SOL     OW42613   4.886   8.614   5.426 -0.3008 -0.1014 -0.1621
10185SOL    HW142614   4.886   8.635   5.329 -0.6571 -0.2870 -0.2014
10185SOL    HW242615   4.878   8.515   5.439 -0.1343 -0.0867  0.0515
10186SOL     OW42616   2.264   7.009   2.498  0.4126  0.4354 -0.3350
10186SOL    HW142617   2.240   7.049   2.409 -0.5455  0.1501 -0.2106
10186SOL    HW242618   2.303   6.918   2.484 -1.9594 -0.6396 -0.3658
10187SOL     OW42619   6.405   6.311   1.711  0.3843 -0.5882 -0.3450
10187SOL    HW142620   6.408   6.318   1.811 -0.6417  0.1048 -0.3576
10187SOL    HW242621   6.481   6.363   1.672 -0.4454  0.9245  0.0098
10188SOL     OW42622   4.494   3.556   5.318  0.1047 -0.1456  0.1179
10188SOL    HW142623   4.574   3.514   5.274  1.0532  0.7373  0.9777
10188SOL    HW242624   4.511   3.566   5.416 -0.1813  2.0834 -0.0390
10189SOL     OW42625   0.939   5.157   4.016  0.3216  0.7072  1.2507
10189SOL    HW142626   0.850   5.201   4.031 -0.2021  0.0751  0.0548
10189SOL    HW242627   0.988   5.206   3.945 -0.3332 -0.7074 -0.2061
10190SOL     OW42628   6.692   2.873   9.314  0.6496 -0.4378  0.0452
10190SOL    HW142629   6.687   2.964   9.273  0.6458 -0.6593 -0.4558
10190SOL    HW242630   6.620   2.863   9.383  0.7835  0.0080  0.2521
10191SOL     OW42631   1.421   5.193   3.819 -0.3086 -0.8142 -0.4292
10191SOL    HW142632   1.483   5.194   3.740 -1.6637 -1.6719 -1.5465
10191SOL    HW242633   1.379   5.102   3.827 -0.7502 -0.5070  0.8303
10192SOL     OW42634   4.474   5.671   0.299  0.2364  0.1264 -0.0211
10192SOL    HW142635   4.462   5.697   0.395  1.3668 -1.6544  0.6200
10192SOL    HW242636   4.442   5.578   0.285  0.6401  0.1574 -1.2523
10193SOL     OW42637   0.667   5.477   4.468  0.3552 -0.5275 -0.4281
10193SOL    HW142638   0.626   5.403   4.521  0.3900 -1.1988 -1.3253
10193SOL    HW242639   0.600   5.551   4.456 -0.5013 -1.5016 -1.6586
10194SOL     OW42640   5.440   5.131   4.018 -0.0065  0.1883 -0.0072
10194SOL    HW142641   5.442   5.175   4.108 -1.1533 -0.3338  0.2825
10194SOL    HW242642   5.351   5.147   3.975 -0.2517 -1.4107 -0.1186
10195SOL     OW42643   1.734   8.380   6.225 -0.6406 -0.6941 -0.1543
10195SOL    HW142644   1.652   8.343   6.182 -0.6228  0.3640 -1.1444
10195SOL    HW242645   1.800   8.406   6.154  0.6190 -1.6751  0.6360
10196SOL     OW42646   4.142   5.012   3.213 -0.3207  0.2849 -0.4083
10196SOL    HW142647   4.141   4.950   3.290 -0.7158  0.8558  0.0549
10196SOL    HW242648   4.132   5.106   3.245  0.7445  0.6335 -1.0632
10197SOL     OW42649   3.512   0.193   6.359 -0.0816 -0.5277 -0.5774
10197SOL    HW142650   3.597   0.236   6.390 -1.1907  0.1490  1.6392
10197SOL    HW242651   3.520   0.094   6.366  0.2543 -0.4382  0.3864
10198SOL     OW42652   9.345   9.847   6.049 -0.1635  0.0548 -0.0266
10198SOL    HW142653   9.397   9.892   6.121 -1.5643  0.3335  0.8331
10198SOL    HW242654   9.250   9.835   6.079 -0.7641  0.1702 -1.8086
10199SOL     OW42655   2.887   9.641   3.167 -0.6652 -0.1828  0.0009
10199SOL    HW142656   2.938   9.580   3.107  0.4120  0.0050  0.7254
10199SOL    HW242657   2.910   9.622   3.262  0.2810  1.8580  0.2147
10200SOL     OW42658   1.534   7.390   3.153 -0.7144  0.6479 -0.2237
10200SOL    HW142659   1.476   7.321   3.110 -1.4886 -0.1961  2.0669
10200SOL    HW242660   1.479   7.471   3.176 -0.7425  0.3395  0.8369
10201SOL     OW42661   0.006   2.236   3.481 -0.3694 -0.0065  0.0202
10201SOL    HW142662   0.073   2.164   3.468 -1.1371 -1.6581  4.2562
10201SOL    HW242663  -0.086   2.199   3.466 -0.6492  0.6704  0.0534
10202SOL     OW42664   4.189   6.412   5.170  0.0085 -0.2134  0.6220
10202SOL    HW142665   4.207   6.315   5.184  1.5136  0.0278  0.4881
10202SOL    HW242666   4.164   6.454   5.257  0.6886 -0.4631  0.9469
10203SOL     OW42667   6.047   6.171   6.506  0.2792  0.4487 -0.1417
10203SOL    HW142668   5.950   6.182   6.487  0.1719 -0.3928 -0.0842
10203SOL    HW242669   6.098   6.243   6.460 -0.3784  0.9442 -0.1023
10204SOL     OW42670   2.878   0.458   1.650  0.5381 -0.1452 -0.3335
10204SOL    HW142671   2.853   0.532   1.713  3.2926 -0.3580  1.0653
10204SOL    HW242672   2.865   0.370   1.695  1.8883 -0.3201 -0.2600
10205SOL     OW42673   6.891   3.127   7.365 -0.1452  0.1035  0.5213
10205SOL    HW142674   6.825   3.202   7.376  0.7062  0.8163  0.9187
10205SOL    HW242675   6.961   3.135   7.436 -0.7282 -1.8173  1.3331
10206SOL     OW42676   1.034   2.032   0.346  0.5576  0.5369  0.8477
10206SOL    HW142677   1.096   2.110   0.350 -1.6868  2.5177 -1.0779
10206SOL    HW242678   0.991   2.018   0.435  2.6812  0.0571  1.8000
10207SOL     OW42679   1.623   6.126   4.897 -0.1075 -0.0146 -0.1645
10207SOL    HW142680   1.612   6.163   4.989 -1.6528 -1.5104  0.2770
10207SOL    HW242681   1.589   6.032   4.894 -0.8101  0.2683 -2.4597
10208SOL     OW42682   6.041   5.336   4.131  0.1124 -0.2182  0.3589
10208SOL    HW142683   6.064   5.348   4.035 -1.6131 -1.8201 -0.2703
10208SOL    HW242684   6.067   5.244   4.161  1.7358  0.6635  1.7655
10209SOL     OW42685   3.872   8.621   4.354  0.5570 -0.4505 -0.4853
10209SOL    HW142686   3.787   8.577   4.327 -0.3100 -0.0373  1.4878
10209SOL    HW242687   3.900   8.686   4.283 -1.1965 -0.0127 -0.7887
10210SOL     OW42688   8.926   4.373   6.586  0.4938  0.2455  0.5646
10210SOL    HW142689   8.828   4.370   6.571  0.3420  2.0679  1.0033
10210SOL    HW242690   8.974   4.345   6.502 -0.3904 -2.1521  0.8449
10211SOL     OW42691   4.600   3.222   9.681  0.1751  0.3911 -0.0050
10211SOL    HW142692   4.697   3.242   9.692  0.6671 -1.5069 -0.5714
10211SOL    HW242693   4.588   3.157   9.606 -1.4819  0.2651  0.3505
10212SOL     OW42694   1.382   5.680   0.725  0.0938  0.1253  0.3537
10212SOL    HW142695   1.345   5.767   0.692 -0.6602 -0.5915 -0.7050
10212SOL    HW242696   1.306   5.619   0.749  0.5956  0.6166  3.4659
10213SOL     OW42697   3.493   0.118   0.788 -0.1833  0.1443  0.4193
10213SOL    HW142698   3.410   0.158   0.826  1.0627  0.9227  2.4195
10213SOL    HW242699   3.514   0.033   0.836  0.2952  0.0828  0.1029
10214SOL     OW42700   4.276   7.498   3.250  0.2632  0.2692  0.1552
10214SOL    HW142701   4.371   7.501   3.220 -0.3615  0.0391 -1.9042
10214SOL    HW242702   4.258   7.410   3.296  1.2068  0.6032  1.1865
10215SOL     OW42703   7.938   9.092   2.920  0.7232  0.1656 -0.1612
10215SOL    HW142704   7.967   9.090   2.824 -2.6505 -1.8312 -1.2122
10215SOL    HW242705   7.950   9.002   2.960 -0.3898  0.2970  0.4940
10216SOL     OW42706   6.180   0.382   4.877  0.4770  0.2671  0.7410
10216SOL    HW142707   6.266   0.350   4.837  0.0998 -1.0052  0.9211
10216SOL    HW242708   6.194   0.401   4.974  1.0372  1.9728  0.3402
10217SOL     OW42709   4.010   8.483   9.300 -0.2208  0.3110  0.1227
10217SOL    HW142710   4.000   8.478   9.400  0.7904  0.8998  0.2654
10217SOL    HW242711   4.085   8.545   9.278  0.1578 -0.5346 -0.9889
10218SOL     OW42712   1.064   3.889   5.798 -0.0945 -0.4432  0.3466
10218SOL    HW142713   1.059   3.887   5.897  2.4943  2.8661  0.6022
10218SOL    HW242714   0.994   3.950   5.762 -0.2687 -0.7223  0.2121
10219SOL     OW42715   5.297   7.693   3.806 -0.1533  0.2718  0.4197
10219SOL    HW142716   5.207   7.736   3.816 -0.4831 -0.7034  1.7182
10219SOL    HW242717   5.313   7.630   3.882  1.8587  0.8235  0.4888
10220SOL     OW42718   0.247   1.268   5.570  0.2521  0.4612 -0.1224
10220SOL    HW142719   0.272   1.364   5.557  0.1571  0.7080  1.4186
10220SOL    HW242720   0.315   1.209   5.526  1.4246  1.1953  0.6914
10221SOL     OW42721   7.495   1.185   2.264 -0.4708 -0.1018 -0.5807
10221SOL    HW142722   7.432   1.261   2.278  1.3037  1.3586 -0.4105
10221SOL    HW242723   7.566   1.212   2.199  0.3667 -1.5117 -0.2692
10222SOL     OW42724   0.435   8.596   6.479  0.2600 -0.0097 -0.7188
10222SOL    HW142725   0.381   8.572   6.560  1.7875 -1.9950 -0.2466
10222SOL    HW242726   0.481   8.514   6.445  1.3250  1.2411 -2.3543
10223SOL     OW42727   4.339   7.174   4.000  0.4176  0.4004  0.2558
10223SOL    HW142728   4.322   7.206   4.094  0.0460 -0.2655  0.4199
10223SOL    HW242729   4.388   7.245   3.949 -1.1125  1.5663  0.3765
10224SOL     OW42730   4.537   1.288   1.139  0.2632 -0.0436  0.1567
10224SOL    HW142731   4.602   1.264   1.211  0.1181 -0.7098  0.0654
10224SOL    HW242732   4.570   1.369   1.090  1.3269 -0.7247 -0.2768
10225SOL     OW42733   2.075   6.133   0.165  0.0467 -0.3164 -0.1432
10225SOL    HW142734   2.121   6.206   0.114  1.5630 -0.3122  1.1915
10225SOL    HW242735   2.121   6.119   0.252 -2.0095 -0.8891  0.8915
10226SOL     OW42736   6.026   5.728   4.512 -0.1283 -0.1212  0.1928
10226SOL    HW142737   6.018   5.798   4.441 -0.8975 -0.3222  0.0694
10226SOL    HW242738   6.068   5.646   4.473  0.0863  0.0118  0.1444
10227SOL     OW42739   2.609   7.053   4.554 -0.0953 -0.5225  0.2857
10227SOL    HW142740   2.665   7.076   4.634 -1.9287 -0.8370  1.6841
10227SOL    HW242741   2.584   6.957   4.558 -0.3404 -0.4916 -0.5857
10228SOL     OW42742   4.689   9.462   8.122 -0.6064  0.1022  0.3341
10228SOL    HW142743   4.727   9.433   8.210 -0.1909 -1.8070 -0.4310
10228SOL    HW242744   4.621   9.395   8.092 -0.1778  0.3162 -1.1557
10229SOL     OW42745   2.430   1.027   2.147 -0.3013 -0.0261  0.0321
10229SOL    HW142746   2.339   1.050   2.111 -0.7519 -1.8070  0.0059
10229SOL    HW242747   2.498   1.035   2.074 -0.6302  0.0758 -0.2646
10230SOL     OW42748   8.174   4.346   5.472  0.4911  0.6630  0.2451
10230SOL    HW142749   8.164   4.419   5.405 -0.1469  1.5342  1.2633
10230SOL    HW242750   8.183   4.385   5.564  0.0454 -0.5331  0.8233
10231SOL     OW42751   4.509   9.492   6.505 -0.0183 -0.2038  0.1370
10231SOL    HW142752   4.514   9.573   6.446  1.7072 -2.0334 -2.3745
10231SOL    HW242753   4.416   9.454   6.502 -0.0920  0.0434 -0.9871
10232SOL     OW42754   0.520   1.360   5.420 -0.0578 -0.3067  0.0201
10232SOL    HW142755   0.450   1.325   5.359 -0.6512  0.2233  0.3936
10232SOL    HW242756   0.494   1.451   5.452  0.9118 -0.0035 -0.0337
10233SOL     OW42757   3.818   7.601   7.452  0.4058 -0.0797  0.3607
10233SOL    HW142758   3.756   7.573   7.526  2.2288 -0.9625  1.6048
10233SOL    HW242759   3.842   7.697   7.462 -2.1528  0.7660 -1.1839
10234SOL     OW42760   5.790   8.822   9.834 -0.5076 -0.0755  0.0411
10234SOL    HW142761   5.718   8.787   9.893 -1.4709  0.3206 -0.8860
10234SOL    HW242762   5.796   8.922   9.843 -0.0360 -0.1105  0.1496
10235SOL     OW42763   6.059   7.696   4.739 -0.2913 -0.6948  0.1757
10235SOL    HW142764   5.989   7.640   4.783 -1.0742 -0.1359 -0.3446
10235SOL    HW242765   6.147   7.650   4.745 -0.8359 -1.7464  0.1877
10236SOL     OW42766   9.277   2.197   5.450 -0.0459 -0.2199 -0.3452
10236SOL    HW142767   9.328   2.278   5.478 -1.1462  0.2318  0.4118
10236SOL    HW242768   9.339   2.132   5.407  1.0181  0.6362 -0.1433
10237SOL     OW42769   1.544   7.123   1.405  0.7078  0.0984 -0.0279
10237SOL    HW142770   1.459   7.160   1.442  0.3460 -1.3903  0.6821
10237SOL    HW242771   1.612   7.117   1.478  0.7169 -0.7448 -0.1016
10238SOL     OW42772   1.847   3.555   6.767 -0.1071  0.3851  0.3230
10238SOL    HW142773   1.893   3.555   6.855 -0.0091 -0.3364  0.2791
10238SOL    HW242774   1.815   3.462   6.747 -1.7890  0.9240  0.4706
10239SOL     OW42775   0.056   9.502   7.960  0.2597  0.3923  0.0216
10239SOL    HW142776   0.054   9.524   8.058 -0.2574  2.0075 -0.3341
10239SOL    HW242777  -0.029   9.456   7.934  0.1137  0.5542  0.2071
10240SOL     OW42778   1.337   9.519   7.570 -0.2668 -0.3828 -0.6891
10240SOL    HW142779   1.368   9.564   7.653  0.0815  1.8836 -1.9866
10240SOL    HW242780   1.415   9.498   7.511 -0.6946  0.2949 -1.5197
10241SOL     OW42781   9.504   9.578   1.765 -0.1926  0.1980  0.4740
10241SOL    HW142782   9.547   9.499   1.722 -0.0283  0.5814 -0.0678
10241SOL    HW242783   9.465   9.637   1.695  1.0834  1.4105  0.7660
10242SOL     OW42784   8.446   6.193   3.473 -0.5904 -0.3504 -0.0299
10242SOL    HW142785   8.513   6.132   3.432  1.2155 -0.7883  3.3951
10242SOL    HW242786   8.472   6.288   3.456 -2.4319 -0.4630 -3.8300
10243SOL     OW42787   8.910   0.402   6.904  0.1517 -0.6781 -0.5827
10243SOL    HW142788   8.927   0.414   7.002 -0.7152  1.6375 -0.6754
10243SOL    HW242789   8.813   0.417   6.885  0.5350  0.1625 -1.9621
10244SOL     OW42790   4.953   6.276   3.591 -0.1938  0.3338  0.2814
10244SOL    HW142791   5.030   6.303   3.533  0.3650 -0.2476  0.7431
10244SOL    HW242792   4.976   6.191   3.639 -2.1734 -1.3655 -1.6874
10245SOL     OW42793   2.081   9.712   6.648  0.2586 -0.8816 -0.0254
10245SOL    HW142794   2.122   9.656   6.576  0.1775  0.2562 -0.9805
10245SOL    HW242795   2.093   9.809   6.625 -0.2608 -0.5137  1.2213
10246SOL     OW42796   6.703   0.493   8.465  0.7760  0.5714  0.0125
10246SOL    HW142797   6.791   0.539   8.475  0.7745  0.5885 -0.0443
10246SOL    HW242798   6.715   0.408   8.413  0.7976  0.4520  0.2131
10247SOL     OW42799   0.636   1.406   5.761  0.0024 -0.4837  0.1698
10247SOL    HW142800   0.625   1.424   5.859  1.3385 -1.5596  0.5235
10247SOL    HW242801   0.646   1.493   5.712 -1.5706  0.1059  0.8595
10248SOL     OW42802   3.891   0.040   5.645 -0.0279 -0.1921 -0.5624
10248SOL    HW142803   3.848   0.114   5.594  0.3536  0.1240 -0.4248
10248SOL    HW242804   3.965   0.076   5.702  1.5142 -0.9288 -2.0422
10249SOL     OW42805   2.064   5.365   3.546  0.3495 -0.4083  0.2810
10249SOL    HW142806   2.064   5.459   3.580  0.6946 -0.7011  1.0965
10249SOL    HW242807   2.066   5.301   3.623 -0.9142 -1.0986 -0.2438
10250SOL     OW42808   5.849   7.268   0.720 -0.0854 -0.5729  0.6689
10250SOL    HW142809   5.895   7.202   0.660  0.2203  0.5298 -0.3430
10250SOL    HW242810   5.916   7.333   0.755 -0.5503 -0.1911  0.8458
10251SOL     OW42811   1.356   7.586   5.034 -0.5136  0.1239  0.3233
10251SOL    HW142812   1.406   7.501   5.053  2.3263  2.2177  2.8709
10251SOL    HW242813   1.364   7.608   4.937  3.6539  0.3239  0.6097
10252SOL     OW42814   2.769   1.850   8.431 -0.3964  0.3225  0.3957
10252SOL    HW142815   2.842   1.912   8.460 -0.4138  0.6890 -0.3144
10252SOL    HW242816   2.733   1.881   8.343 -0.7968 -0.3714  0.3103
10253SOL     OW42817   2.493   8.772   6.961 -0.4677 -0.3120  0.1913
10253SOL    HW142818   2.455   8.812   7.044  0.2885 -1.2983  1.0348
10253SOL    HW242819   2.423   8.717   6.916 -0.9417  0.3959  0.0574
10254SOL     OW42820   2.935   0.032   2.158 -0.0891 -0.5578  0.5886
10254SOL    HW142821   2.842   0.051   2.126  0.2003 -2.6560 -1.5772
10254SOL    HW242822   3.001   0.057   2.087  1.0147  0.3315  1.8739
10255SOL     OW42823   3.062   7.536   4.781  0.3369 -0.1102 -0.5229
10255SOL    HW142824   3.072   7.631   4.813  0.0698 -0.2378 -0.0541
10255SOL    HW242825   3.075   7.474   4.858 -1.1201 -0.3998 -0.4947
10256SOL     OW42826   1.827   5.918   4.010 -0.1727 -0.1132  0.1128
10256SOL    HW142827   1.921   5.903   4.038  0.0030  0.3010 -0.2481
10256SOL    HW242828   1.797   6.009   4.037 -1.0723 -0.8929  1.8437
10257SOL     OW42829   2.419   9.672   4.975 -0.4059 -0.3218 -0.2352
10257SOL    HW142830   2.519   9.669   4.967 -0.3761 -0.7683  0.2626
10257SOL    HW242831   2.391   9.759   5.014 -0.0565 -1.0282  1.6531
10258SOL     OW42832   1.791   7.500   4.992  0.3692 -0.3657  0.4073
10258SOL    HW142833   1.795   7.584   5.046  0.3280  1.0788 -1.7998
10258SOL    HW242834   1.697   7.482   4.965  0.6618  0.0115 -0.8766
10259SOL     OW42835   4.831   7.308   3.789  0.7504 -0.2243  0.1638
10259SOL    HW142836   4.926   7.321   3.818  0.9492 -1.3203  0.0093
10259SOL    HW242837   4.771   7.323   3.867  1.0088  0.8775  0.1717
10260SOL     OW42838   2.359   9.586   4.068 -0.1181 -0.1809  0.4513
10260SOL    HW142839   2.287   9.655   4.075 -0.0581 -0.2152  1.4337
10260SOL    HW242840   2.332   9.503   4.117 -0.1817 -0.8535 -0.7133
10261SOL     OW42841   3.133   2.189   2.012 -0.0330  0.9739  0.2241
10261SOL    HW142842   3.084   2.265   2.054 -3.5943 -1.0556 -0.0153
10261SOL    HW242843   3.110   2.105   2.062 -0.4202 -0.7230 -2.7108
10262SOL     OW42844   0.842   1.993   8.481  0.5581  0.6619 -0.3741
10262SOL    HW142845   0.889   2.081   8.483  0.8082  0.5064  1.2717
10262SOL    HW242846   0.743   2.009   8.485  0.6176  0.8539  0.3656
10263SOL     OW42847   5.938   4.288   7.649 -0.2713 -0.1955  0.5100
10263SOL    HW142848   5.921   4.364   7.586 -2.9091 -1.8257 -0.8491
10263SOL    HW242849   5.942   4.202   7.598  0.3941 -1.2337  2.2636
10264SOL     OW42850   5.626   5.102   0.500 -0.0333 -0.2502  0.4032
10264SOL    HW142851   5.643   5.007   0.476 -1.6360 -0.6531  0.8251
10264SOL    HW242852   5.709   5.141   0.542  0.5328 -1.5297  0.5010
10265SOL     OW42853   5.005   5.957   5.668 -0.0123  0.1616  0.3507
10265SOL    HW142854   5.020   6.048   5.630  1.0014  0.1672  0.7504
10265SOL    HW242855   5.052   5.889   5.611  0.3646  0.0307  0.8131
10266SOL     OW42856   1.586   7.640   2.445 -0.2878  0.2347 -0.0978
10266SOL    HW142857   1.573   7.658   2.543  0.0182  2.2952 -0.4122
10266SOL    HW242858   1.683   7.652   2.422 -0.0026 -2.1578 -0.3075
10267SOL     OW42859   3.016   9.492   2.983  0.1837  0.0577  0.3361
10267SOL    HW142860   3.005   9.527   2.890 -0.3933 -3.1694 -0.8848
10267SOL    HW242861   3.101   9.440   2.990  0.9558  1.4945  2.0507
10268SOL     OW42862   1.097   6.099   9.697 -0.0235  0.0980 -0.0713
10268SOL    HW142863   1.104   6.091   9.796  2.6825  2.4035 -0.0163
10268SOL    HW242864   1.169   6.044   9.654  0.7548  1.5178 -0.6226
10269SOL     OW42865   1.872   8.214   2.431  0.1044  0.1291  0.2550
10269SOL    HW142866   1.838   8.121   2.421  1.0777 -0.0249 -2.0712
10269SOL    HW242867   1.811   8.277   2.384 -1.3510  0.9008  3.0555
10270SOL     OW42868   7.302   3.128   3.602 -0.7109 -0.0152  0.2841
10270SOL    HW142869   7.236   3.077   3.546 -1.8104  1.2215  0.4195
10270SOL    HW242870   7.358   3.186   3.542 -0.0492 -0.7169  0.2150
10271SOL     OW42871   3.430   9.092   7.856 -0.1444  0.0774 -0.4485
10271SOL    HW142872   3.404   9.078   7.760 -0.8527  0.7055 -0.3532
10271SOL    HW242873   3.420   9.189   7.879 -0.1091 -0.0989  0.3022
10272SOL     OW42874   7.121   9.228   8.357 -0.0103  0.1138  0.2273
10272SOL    HW142875   7.134   9.130   8.341 -1.5266 -0.0839  0.1180
10272SOL    HW242876   7.145   9.250   8.452  1.4228 -0.1439 -0.0595
10273SOL     OW42877   2.249   7.895   6.226 -0.1281  0.0330 -0.4830
10273SOL    HW142878   2.299   7.826   6.173  0.0555  0.1196 -0.4239
10273SOL    HW242879   2.160   7.859   6.251  0.0326 -0.2470 -0.3113
10274SOL     OW42880   9.529   6.663   2.920 -0.3886  0.1304 -0.3815
10274SOL    HW142881   9.489   6.588   2.972 -0.6736  0.7047  0.2441
10274SOL    HW242882   9.501   6.750   2.961  0.7624  0.5594 -0.4850
10275SOL     OW42883   1.875   1.161   6.048 -0.3726  0.3099 -0.4630
10275SOL    HW142884   1.946   1.216   6.006  0.4308  1.5391  2.3949
10275SOL    HW242885   1.787   1.209   6.041 -0.3791  0.1844 -1.3103
10276SOL     OW42886   0.952   7.295   1.801  0.2111 -0.1799 -0.2032
10276SOL    HW142887   0.933   7.197   1.803 -1.1601  0.0804 -0.3570
10276SOL    HW242888   0.872   7.344   1.767  0.3192  1.1428  1.3927
10277SOL     OW42889   3.472   5.650   2.120  0.3246 -0.7365 -0.7910
10277SOL    HW142890   3.517   5.724   2.071  0.5213 -0.6744 -0.5188
10277SOL    HW242891   3.377   5.675   2.139  0.4317 -0.4955 -0.5764
10278SOL     OW42892   2.031   2.626   4.367  0.0018 -0.1022 -0.0620
10278SOL    HW142893   2.034   2.726   4.375 -0.8594  0.0673 -1.7323
10278SOL    HW242894   1.963   2.590   4.431  1.0319  0.2820  1.2754
10279SOL     OW42895   3.082   9.269   3.596  0.5043  0.4556 -0.2719
10279SOL    HW142896   3.047   9.189   3.644 -0.5382 -0.3652 -2.3133
10279SOL    HW242897   3.171   9.249   3.556  0.7743  0.6927  0.2193
10280SOL     OW42898   7.227   6.408   2.156 -0.3718 -0.3537 -0.4880
10280SOL    HW142899   7.202   6.459   2.239  1.0695 -1.3443  0.5899
10280SOL    HW242900   7.144   6.375   2.111 -1.2771  1.9920 -0.6245
10281SOL     OW42901   4.807   9.203   5.977  0.3222 -0.3545  0.2499
10281SOL    HW142902   4.737   9.137   6.003 -0.5205  0.4323 -0.0114
10281SOL    HW242903   4.785   9.241   5.887  0.1084  1.2341  0.9671
10282SOL     OW42904   4.019   7.042   5.766  0.0770  0.3572  0.2052
10282SOL    HW142905   4.098   7.006   5.816 -1.0366 -1.7220  0.5201
10282SOL    HW242906   4.013   6.996   5.677 -0.7638  0.5318  0.1736
10283SOL     OW42907   2.777   0.736   6.801 -0.2345  0.1510 -0.3311
10283SOL    HW142908   2.791   0.771   6.894  0.6172 -1.1369  0.0405
10283SOL    HW242909   2.801   0.639   6.798 -0.4796  0.1271 -1.8463
10284SOL     OW42910   3.374   7.329   2.622 -0.1063  0.7420 -0.3104
10284SOL    HW142911   3.332   7.238   2.621  0.4628  0.4648  0.2728
10284SOL    HW242912   3.303   7.398   2.612 -0.9552  0.3441  2.4905
10285SOL     OW42913   1.355   8.477   5.464  0.0260  0.2740  0.8290
10285SOL    HW142914   1.309   8.403   5.415  0.2847  0.9068 -0.3867
10285SOL    HW242915   1.340   8.466   5.562  0.6509 -1.7982  0.7287
10286SOL     OW42916   3.189   7.114   4.601  1.0701  0.5247  0.7281
10286SOL    HW142917   3.256   7.046   4.572 -0.1062 -0.3233 -0.0750
10286SOL    HW242918   3.185   7.117   4.701  0.9987 -0.7361  0.7738
10287SOL     OW42919   4.870   4.839   4.744 -0.2359 -0.3521  0.1007
10287SOL    HW142920   4.812   4.835   4.825  1.3056 -0.9212  1.1973
10287SOL    HW242921   4.923   4.755   4.736 -0.2732 -0.2441 -1.4328
10288SOL     OW42922   2.107   4.770   9.523  0.1284 -0.5373 -0.1335
10288SOL    HW142923   2.024   4.824   9.530 -1.1309 -2.5245  0.7578
10288SOL    HW242924   2.146   4.757   9.614  1.3408  0.2616 -0.5321
10289SOL     OW42925   2.050   9.784   1.934  0.2683  0.5752  0.5394
10289SOL    HW142926   2.119   9.728   1.981  0.0298  0.3381  0.6053
10289SOL    HW242927   2.092   9.870   1.904  0.3335  0.8824  1.4993
10290SOL     OW42928   4.137   1.609   8.416 -0.1456  0.1000 -0.0204
10290SOL    HW142929   4.131   1.513   8.387  1.9773 -0.3677  1.0086
10290SOL    HW242930   4.209   1.655   8.364 -0.1168  0.7197  0.5614
10291SOL     OW42931   3.186   8.636   2.791  0.1544 -0.5790  0.5074
10291SOL    HW142932   3.148   8.724   2.763  2.4687  0.9155  1.8994
10291SOL    HW242933   3.150   8.612   2.882  0.8806 -0.1930  0.9013
10292SOL     OW42934   2.512   5.899   4.636  0.0849  0.4603 -0.1813
10292SOL    HW142935   2.484   5.950   4.717 -0.5339  0.8335 -0.6162
10292SOL    HW242936   2.537   5.963   4.563  0.0826  0.1398 -0.4680
10293SOL     OW42937   1.870   4.378   6.050  0.5319  0.0146 -0.5229
10293SOL    HW142938   1.817   4.432   5.985 -0.1326 -0.5490 -0.4477
10293SOL    HW242939   1.812   4.307   6.090  0.2654  1.8137  2.4320
10294SOL     OW42940   1.005   1.262   8.720  0.9075 -0.5302  0.2080
10294SOL    HW142941   0.953   1.191   8.673  0.1566  0.0036  0.2240
10294SOL    HW242942   0.953   1.294   8.799  0.0751  1.8311 -1.2517
10295SOL     OW42943   3.012   1.651   4.245  0.2080 -0.1797  0.2540
10295SOL    HW142944   3.098   1.601   4.237  0.0029 -0.7758  1.7762
10295SOL    HW242945   2.959   1.616   4.321 -1.6291 -0.1448 -0.9747
10296SOL     OW42946   0.261   1.026   6.767  0.0236 -0.1144 -0.4826
10296SOL    HW142947   0.331   1.094   6.745 -1.3355  1.5689  0.2918
10296SOL    HW242948   0.179   1.043   6.712  0.1532 -1.9972 -1.2971
10297SOL     OW42949   2.192   1.931   6.313 -0.1418 -0.5645  0.5051
10297SOL    HW142950   2.221   2.011   6.260  1.1293  0.6523  2.9658
10297SOL    HW242951   2.268   1.900   6.371 -1.4694 -1.9136  1.5527
10298SOL     OW42952   1.373   6.627   7.680  0.9327  0.1560 -0.1579
10298SOL    HW142953   1.318   6.653   7.759  0.6476  0.8869 -0.5948
10298SOL    HW242954   1.467   6.609   7.709  1.1724  1.7900  0.1470
10299SOL     OW42955   9.507   2.913   8.326 -0.0750 -0.2799  0.4675
10299SOL    HW142956   9.464   2.989   8.276  1.3523 -0.0360 -0.4076
10299SOL    HW242957   9.438   2.843   8.345 -0.7422 -0.2041 -1.5039
10300SOL     OW42958   0.184   6.759   1.053  0.1793  0.3041  0.8597
10300SOL    HW142959   0.275   6.800   1.043  1.0397 -1.9300 -0.9427
10300SOL    HW242960   0.178   6.713   1.142  1.5016 -1.1427  0.2189
10301SOL     OW42961   9.196   6.540   6.708  0.2681  0.2447 -0.2042
10301SOL    HW142962   9.157   6.457   6.667 -0.0813  0.6007 -0.5935
10301SOL    HW242963   9.292   6.523   6.731 -0.1868 -0.7338  1.0359
10302SOL     OW42964   4.262   8.432   7.152  0.4006  0.1055 -0.0106
10302SOL    HW142965   4.206   8.354   7.124  2.0646 -0.8093 -0.8718
10302SOL    HW242966   4.210   8.516   7.139 -1.5742 -0.8715  1.3210
10303SOL     OW42967   3.198   7.998   6.616  0.1189 -0.5753  0.2292
10303SOL    HW142968   3.127   8.040   6.559  0.9278 -1.3592 -1.3959
10303SOL    HW242969   3.215   8.056   6.696 -1.8757 -0.0573  0.3067
10304SOL     OW42970   3.832   1.514   1.870 -0.1147 -0.0009 -0.3900
10304SOL    HW142971   3.826   1.601   1.821  2.1701 -0.3517 -1.3953
10304SOL    HW242972   3.798   1.525   1.963 -2.7988  1.1510 -1.4663
10305SOL     OW42973   6.085   6.586   5.591 -0.1502 -0.3769  0.0136
10305SOL    HW142974   6.075   6.511   5.656  2.7924 -1.0163 -0.2251
10305SOL    HW242975   5.998   6.600   5.543 -2.0615 -0.5785  3.2796
10306SOL     OW42976   2.810   5.454   9.645 -0.0694  0.8159 -0.0594
10306SOL    HW142977   2.796   5.370   9.593  1.5817 -0.2469  1.1864
10306SOL    HW242978   2.894   5.499   9.615 -1.2011  2.3012 -1.0669
10307SOL     OW42979   9.105   6.039   4.435  0.8890  0.9897  0.2274
10307SOL    HW142980   9.037   5.966   4.430  3.2343 -1.3845  1.6402
10307SOL    HW242981   9.073   6.118   4.383 -1.1278 -1.5038 -2.4888
10308SOL     OW42982   1.062   7.607   9.668 -0.0333  0.4195  0.1474
10308SOL    HW142983   1.137   7.548   9.699  1.3913  1.9482 -0.3371
10308SOL    HW242984   1.059   7.689   9.723 -0.7834  0.7822 -0.4272
10309SOL     OW42985   4.619   8.083   5.263 -0.1173 -0.6393 -0.0086
10309SOL    HW142986   4.548   8.013   5.254 -1.3458  0.5801  0.0180
10309SOL    HW242987   4.579   8.165   5.303  0.9081  0.6663 -1.6070
10310SOL     OW42988   8.793   1.500   8.348  0.3967 -0.1930 -0.0464
10310SOL    HW142989   8.795   1.525   8.251  1.9811 -2.4693 -0.6481
10310SOL    HW242990   8.702   1.517   8.385 -0.1596  0.9432 -1.8680
10311SOL     OW42991   4.258   8.108   5.433 -0.5869  0.4007 -0.3938
10311SOL    HW142992   4.235   8.111   5.530 -0.6241  0.8627 -0.4149
10311SOL    HW242993   4.337   8.168   5.416  0.8846 -1.4274 -0.2468
10312SOL     OW42994   2.964   6.288   4.693  0.1641 -0.3341 -0.2785
10312SOL    HW142995   2.973   6.237   4.607 -2.0421 -0.0176 -0.7263
10312SOL    HW242996   2.892   6.356   4.684  1.1735  0.9746  1.2462
10313SOL     OW42997   1.184   7.568   5.840  0.1030 -0.0964 -0.4705
10313SOL    HW142998   1.142   7.477   5.837 -1.0093  0.4110 -0.3490
10313SOL    HW242999   1.159   7.619   5.758  1.2722 -0.1333 -0.8562
10314SOL     OW43000   9.254   8.281   5.944  0.1791 -0.1087 -0.1990
10314SOL    HW143001   9.191   8.319   5.877  0.7686  1.7585  0.2883
10314SOL    HW243002   9.204   8.253   6.025 -0.3058 -0.7200 -0.7083
10315SOL     OW43003   2.595   8.387   0.658 -0.0343  0.3569 -0.6064
10315SOL    HW143004   2.670   8.357   0.717 -1.1304 -0.9810  0.1652
10315SOL    HW243005   2.528   8.313   0.650 -0.6571  1.0858 -2.2934
10316SOL     OW43006   7.448   0.634   6.624 -0.0251 -0.3215 -0.0719
10316SOL    HW143007   7.458   0.727   6.658 -0.7569 -0.5789  0.8616
10316SOL    HW243008   7.521   0.613   6.559  0.4526  0.7079  0.1436
10317SOL     OW43009   9.083   6.351   0.781  0.4674 -0.2793  0.2764
10317SOL    HW143010   9.114   6.406   0.704 -0.6327  0.5893  0.4417
10317SOL    HW243011   8.998   6.304   0.757  1.5053 -2.1089  0.0572
10318SOL     OW43012   6.287   9.919   3.819 -0.1795 -0.3102 -0.0843
10318SOL    HW143013   6.209   9.979   3.797 -0.7470 -0.3137  1.8736
10318SOL    HW243014   6.271   9.874   3.906  0.8965 -2.2618 -0.8587
10319SOL     OW43015   6.923   2.843   9.470 -0.1938  0.1250  0.1419
10319SOL    HW143016   6.828   2.832   9.441 -0.0150 -1.8692  0.2635
10319SOL    HW243017   6.958   2.756   9.504  1.9730  0.5853 -0.8151
10320SOL     OW43018   5.612   7.195   5.037  0.3774 -0.3433  0.1225
10320SOL    HW143019   5.545   7.156   5.100 -0.9599 -0.8197 -1.5809
10320SOL    HW243020   5.620   7.138   4.955 -0.5929  2.1603 -1.7901
10321SOL     OW43021   0.711   8.588   3.715 -0.2523  0.7644  0.0620
10321SOL    HW143022   0.689   8.538   3.799 -3.0116  0.4105 -0.7976
10321SOL    HW243023   0.659   8.673   3.713 -0.6935  0.4752 -1.5605
10322SOL     OW43024   3.698   3.755   2.909  0.3416 -0.8032  0.6043
10322SOL    HW143025   3.780   3.789   2.863  0.7897 -0.5919  1.5661
10322SOL    HW243026   3.663   3.676   2.859  0.2468  0.0247 -0.6877
10323SOL     OW43027   3.763   7.656   6.816  0.5628 -0.1710 -0.3654
10323SOL    HW143028   3.777   7.715   6.736 -1.3396  0.9146  0.0709
10323SOL    HW243029   3.672   7.615   6.812  1.0972 -1.4375  0.3940
10324SOL     OW43030   3.900   8.350   6.061 -0.0805  0.5827  0.5734
10324SOL    HW143031   3.987   8.386   6.026  0.4441 -1.3240 -0.2037
10324SOL    HW243032   3.847   8.313   5.984 -0.4299 -0.5672  1.3539
10325SOL     OW43033   0.784   4.327   9.520  0.1500  0.1642  0.0165
10325SOL    HW143034   0.864   4.295   9.571 -1.1910 -2.3805  0.6118
10325SOL    HW243035   0.703   4.325   9.579 -0.8071  0.4615 -1.2459
10326SOL     OW43036   2.417   9.652   7.452 -0.0951  0.3240  0.1265
10326SOL    HW143037   2.436   9.554   7.460 -0.2685  0.4017  1.8416
10326SOL    HW243038   2.492   9.704   7.493 -0.1249  0.8967 -0.5395
10327SOL     OW43039   4.967   7.634   3.307 -0.3161 -0.1258  0.0267
10327SOL    HW143040   5.051   7.686   3.295 -1.3235  1.4389 -0.5111
10327SOL    HW243041   4.965   7.558   3.242  1.1239 -0.7577  0.7301
10328SOL     OW43042   2.849   8.990   5.025 -0.2638  0.1432 -0.7115
10328SOL    HW143043   2.773   9.033   5.074 -0.2761  0.4266 -0.9790
10328SOL    HW243044   2.829   8.990   4.927  0.2839  0.6265 -0.8242
10329SOL     OW43045   6.789   7.844   0.390 -0.7036 -0.0916  0.2961
10329SOL    HW143046   6.814   7.754   0.425  0.2050  0.6686  1.6518
10329SOL    HW243047   6.689   7.854   0.391 -0.7704 -0.8047  0.8593
10330SOL     OW43048   5.596   7.960   3.676 -0.2443  0.3685 -0.6213
10330SOL    HW143049   5.592   7.995   3.583 -1.5912  0.4175 -0.5503
10330SOL    HW243050   5.505   7.962   3.717  0.0696 -0.9807  0.2024
10331SOL     OW43051   2.972   5.594   7.551  0.4840  0.0885 -0.7984
10331SOL    HW143052   2.888   5.557   7.510  0.2434 -0.7548  0.4433
10331SOL    HW243053   2.952   5.684   7.590 -0.2087 -0.7170  0.7448
10332SOL     OW43054   3.073   7.633   5.132 -0.0743 -0.2660 -0.3725
10332SOL    HW143055   3.151   7.668   5.184 -0.1866  0.5201 -0.7321
10332SOL    HW243056   3.058   7.689   5.051  0.4626 -1.8584 -1.5869
10333SOL     OW43057   2.403   8.373   7.291 -0.2472  0.4575  0.3097
10333SOL    HW143058   2.413   8.345   7.196  0.6722  1.9485 -0.0448
10333SOL    HW243059   2.493   8.370   7.336 -0.7817 -0.8969  1.3311
10334SOL     OW43060   3.206   9.074   5.674 -0.0160  0.2467 -0.1560
10334SOL    HW143061   3.215   9.170   5.701  1.2615  0.7145 -2.1619
10334SOL    HW243062   3.292   9.042   5.634 -0.6614 -1.5372 -0.1867
10335SOL     OW43063   5.868   7.030   6.040 -0.1576  0.5660 -0.4135
10335SOL    HW143064   5.870   7.035   6.140 -0.0154 -0.1738 -0.3779
10335SOL    HW243065   5.848   6.936   6.012 -0.8779  0.9121 -1.0767
10336SOL     OW43066   8.330   8.323   4.176 -0.5924  0.0755 -0.0791
10336SOL    HW143067   8.303   8.230   4.154  0.2538 -0.4844  1.2199
10336SOL    HW243068   8.403   8.353   4.114 -0.8150 -0.1513 -0.4499
10337SOL     OW43069   5.220   7.029   5.812  0.7710 -0.6449  0.6201
10337SOL    HW143070   5.183   7.065   5.898 -0.6628  0.7602 -0.5472
10337SOL    HW243071   5.319   7.045   5.808  0.5079  1.2223  1.0918
10338SOL     OW43072   0.036   2.372   7.828  0.2578 -0.3173  0.1622
10338SOL    HW143073   0.108   2.374   7.897  0.2274 -0.8740  0.2111
10338SOL    HW243074   0.075   2.346   7.739  0.6970  2.5414 -0.5226
10339SOL     OW43075   3.987   1.021   1.228 -0.2706  0.5976  0.1654
10339SOL    HW143076   4.062   1.054   1.285  0.3482  2.3511 -1.6176
10339SOL    HW243077   3.978   1.079   1.147 -2.2763 -0.7814 -0.6460
10340SOL     OW43078   2.554   1.755   0.464 -0.0561 -0.5281  0.1312
10340SOL    HW143079   2.580   1.670   0.418 -0.5314 -0.2101 -0.7350
10340SOL    HW243080   2.508   1.733   0.551  3.0793 -1.1041  1.7255
10341SOL     OW43081   3.649   9.075   3.300  0.0698 -0.3738  0.1414
10341SOL    HW143082   3.743   9.081   3.267  0.7663 -2.1108  1.7252
10341SOL    HW243083   3.624   9.161   3.344  0.4740  0.5394 -1.3877
10342SOL     OW43084   3.596   7.516   5.585  0.3269 -0.3956 -0.3673
10342SOL    HW143085   3.541   7.525   5.502 -1.1522  0.8108  0.7205
10342SOL    HW243086   3.543   7.546   5.664  1.1707 -2.9400  1.2491
10343SOL     OW43087   1.649   7.821   9.041  0.1662 -0.0377  0.5527
10343SOL    HW143088   1.697   7.858   9.121  1.0265  0.5859 -0.2462
10343SOL    HW243089   1.563   7.870   9.028  0.6083  0.7077  0.3745
10344SOL     OW43090   1.987   7.295   4.240  0.1373  0.1689 -0.6350
10344SOL    HW143091   1.956   7.202   4.223 -0.9850  0.6765 -1.4289
10344SOL    HW243092   1.925   7.359   4.195 -0.6627  1.4092  2.1100
10345SOL     OW43093   7.180   6.574   4.573  0.4712 -0.2051 -0.4281
10345SOL    HW143094   7.257   6.559   4.510  0.5410 -0.6947 -0.2328
10345SOL    HW243095   7.213   6.619   4.655  0.4694 -0.0138 -0.5315
10346SOL     OW43096   3.808   0.579   4.422  0.3834  0.3491 -0.3740
10346SOL    HW143097   3.886   0.516   4.432 -1.4441 -2.3019 -2.1290
10346SOL    HW243098   3.777   0.579   4.327 -2.3424  0.6347  0.4686
10347SOL     OW43099   3.608   7.541   4.425  0.5332  0.2306  0.2440
10347SOL    HW143100   3.579   7.568   4.517  1.5364 -0.5065  0.7960
10347SOL    HW243101   3.631   7.444   4.425 -0.9268 -0.1290 -1.1742
10348SOL     OW43102   0.734   5.345   4.025 -0.0846  0.8158  0.3700
10348SOL    HW143103   0.720   5.349   4.124 -0.4506  0.3966  0.3354
10348SOL    HW243104   0.742   5.438   3.989 -2.7126  1.1039  0.4171
10349SOL     OW43105   8.960   5.727   1.841 -0.0202  0.1686 -0.2517
10349SOL    HW143106   8.965   5.650   1.906  2.2948  0.8480  0.4145
10349SOL    HW243107   8.927   5.808   1.889  0.6931  0.4159 -0.1875
10350SOL     OW43108   3.422   0.755   3.982  0.2538 -0.0392 -0.7863
10350SOL    HW143109   3.326   0.768   3.959  0.3125 -0.5466 -1.3228
10350SOL    HW243110   3.472   0.725   3.901  0.8163 -0.0095 -0.4511
10351SOL     OW43111   4.982   6.729   0.768  0.3896  0.2272  0.0029
10351SOL    HW143112   5.015   6.754   0.859  0.8923  0.5449 -0.2642
10351SOL    HW243113   4.982   6.810   0.710 -0.3444  0.1157 -0.1609
10352SOL     OW43114   4.014   4.605   8.718  0.3902  0.1497 -0.1317
10352SOL    HW143115   4.101   4.571   8.756  0.1008 -1.5666 -0.9506
10352SOL    HW243116   4.006   4.576   8.623 -0.6332  1.1614 -0.3608
10353SOL     OW43117   9.846   6.543   5.660 -0.5101 -0.0658 -0.4057
10353SOL    HW143118   9.823   6.546   5.563 -1.6535 -1.0347 -0.1806
10353SOL    HW243119   9.879   6.452   5.684  2.7480  1.0271 -0.5055
10354SOL     OW43120   3.501   5.199   9.518 -0.0439 -0.4839 -0.2562
10354SOL    HW143121   3.447   5.160   9.593  1.6788 -1.7334  0.3746
10354SOL    HW243122   3.561   5.129   9.480  0.0252  0.4794 -1.9709
10355SOL     OW43123   4.673   7.317   4.017 -0.4538 -0.1106 -0.3277
10355SOL    HW143124   4.589   7.362   4.046  0.2695  0.0453  1.5776
10355SOL    HW243125   4.696   7.244   4.081  1.3110  0.4055 -0.3286
10356SOL     OW43126   0.263   3.524   6.427  0.1345 -0.1530 -0.3811
10356SOL    HW143127   0.250   3.604   6.485  0.3755 -0.1147 -0.3783
10356SOL    HW243128   0.357   3.491   6.436 -0.1395 -0.8120  0.0961
10357SOL     OW43129   0.854   9.356   1.606 -0.2558  0.0022  0.3219
10357SOL    HW143130   0.917   9.412   1.552 -1.7847  1.6940  0.2421
10357SOL    HW243131   0.885   9.353   1.701  0.8083 -0.5106 -0.0392
10358SOL     OW43132   2.987   6.614   1.311 -0.0874 -0.4743 -0.2359
10358SOL    HW143133   2.972   6.592   1.407 -0.0758 -0.4665 -0.2324
10358SOL    HW243134   3.046   6.545   1.270 -0.6021 -0.8245 -0.3934
10359SOL     OW43135   1.041   3.618   0.216  0.0708 -0.2308 -0.3712
10359SOL    HW143136   1.109   3.684   0.184  0.5024 -0.3675  0.2568
10359SOL    HW243137   0.965   3.615   0.152  1.7429 -1.8119 -2.3709
10360SOL     OW43138   6.545   7.344   4.871  0.0713  0.2968 -0.0626
10360SOL    HW143139   6.519   7.253   4.836  1.2704  0.0196 -0.2630
10360SOL    HW243140   6.464   7.391   4.905 -0.7883 -0.3077 -1.2275
10361SOL     OW43141   4.768   2.707   6.309  0.6936 -0.4253  0.1043
10361SOL    HW143142   4.727   2.763   6.381  1.0558  0.5388 -0.4247
10361SOL    HW243143   4.740   2.742   6.220 -0.4265 -2.1323 -0.2185
10362SOL     OW43144   4.291   9.163   4.836 -0.9002 -0.1462 -0.5016
10362SOL    HW143145   4.240   9.079   4.850 -1.4554 -0.0434 -1.8362
10362SOL    HW243146   4.262   9.206   4.750 -0.3036  1.1692 -0.0593
10363SOL     OW43147   0.983   3.056   7.027  0.0390  0.0280 -0.1783
10363SOL    HW143148   0.890   3.090   7.039 -0.4788 -1.1944 -0.6301
10363SOL    HW243149   1.040   3.127   6.984 -0.6417  0.8243  0.2364
10364SOL     OW43150   3.059   0.059   9.741 -0.0880  0.1630 -0.5102
10364SOL    HW143151   3.159   0.056   9.734  0.0798 -0.1669  1.8163
10364SOL    HW243152   3.021  -0.028   9.711  0.2573  0.4701 -1.9171
10365SOL     OW43153   5.321   7.742   7.578 -0.2325  0.0333  0.1725
10365SOL    HW143154   5.242   7.799   7.596  0.3499  1.4250 -1.4608
10365SOL    HW243155   5.396   7.769   7.638  0.3093  1.6255 -1.1591
10366SOL     OW43156   7.633   4.989   8.451  0.1051 -0.3805  0.8389
10366SOL    HW143157   7.630   4.981   8.551  0.3770  0.5572  0.9205
10366SOL    HW243158   7.572   4.921   8.411 -0.2433 -0.5560  1.6547
10367SOL     OW43159   4.400   9.110   5.513 -0.3153  0.6483 -0.3999
10367SOL    HW143160   4.340   9.178   5.471 -0.4719  0.7416 -0.0221
10367SOL    HW243161   4.354   9.021   5.512 -0.1434  0.5610 -0.8185
10368SOL     OW43162   9.278   5.527   8.362  0.3756 -0.3561  0.3508
10368SOL    HW143163   9.360   5.472   8.380  1.6897  2.0492  2.0371
10368SOL    HW243164   9.293   5.583   8.281 -0.2372 -1.0895 -0.2731
10369SOL     OW43165   8.144   6.476   7.604  0.1266 -0.7718  0.2169
10369SOL    HW143166   8.202   6.509   7.679 -1.0537  0.6330  0.5360
10369SOL    HW243167   8.111   6.554   7.551 -1.5787 -1.5405  0.1317
10370SOL     OW43168   2.003   8.272   5.480  0.2235  0.2050  0.2589
10370SOL    HW143169   1.971   8.253   5.573 -0.1624  3.3198  0.8050
10370SOL    HW243170   2.103   8.273   5.479  0.2797 -1.9363  0.1428
10371SOL     OW43171   1.076   0.861   8.244 -0.2805  0.1660 -0.0034
10371SOL    HW143172   1.100   0.957   8.258 -0.0841  0.0637  0.3636
10371SOL    HW243173   0.982   0.855   8.210 -0.2123  0.5004 -0.2573
10372SOL     OW43174   4.897   3.413   7.075  0.2321  0.3260 -0.0502
10372SOL    HW143175   4.862   3.333   7.027 -0.4092  0.3028  0.4426
10372SOL    HW243176   4.822   3.477   7.092  0.1879 -0.2460  2.0370
10373SOL     OW43177   3.560   9.780   4.650  0.0292  0.3320  0.4286
10373SOL    HW143178   3.531   9.874   4.633  0.7356  0.5406  0.3536
10373SOL    HW243179   3.489   9.732   4.702 -0.5534  0.7536  0.0364
10374SOL     OW43180   3.956   3.610   8.191  0.0845 -0.5177 -0.0752
10374SOL    HW143181   3.917   3.540   8.131  0.7758 -0.2365 -0.8550
10374SOL    HW243182   3.983   3.690   8.137  0.6196 -0.2185  0.6212
10375SOL     OW43183   4.389   7.129   4.674 -0.4741 -0.5560  0.4889
10375SOL    HW143184   4.300   7.150   4.635 -0.0488 -0.9220 -0.7105
10375SOL    HW243185   4.395   7.031   4.692 -0.3604 -0.5130  0.6853
10376SOL     OW43186   3.143   8.488   6.113 -0.5033 -0.0580  0.4872
10376SOL    HW143187   3.159   8.554   6.039 -0.3434 -0.8606 -0.2001
10376SOL    HW243188   3.095   8.408   6.076 -0.1899 -0.5794  1.2058
10377SOL     OW43189   4.870   1.711   8.473  0.0917  0.2357 -0.2951
10377SOL    HW143190   4.775   1.681   8.483  0.8054 -1.9032  0.4508
10377SOL    HW243191   4.910   1.666   8.394  1.2450 -0.9614  0.9472
10378SOL     OW43192   0.509   8.142   5.888  0.9049 -0.1729  0.6435
10378SOL    HW143193   0.501   8.146   5.988 -0.6941  0.8619  0.4885
10378SOL    HW243194   0.590   8.193   5.860  0.2624  1.2559  1.2929
10379SOL     OW43195   6.306   4.616   1.700 -0.0085 -0.1188 -0.2061
10379SOL    HW143196   6.262   4.647   1.785  1.7278 -1.3327  1.1600
10379SOL    HW243197   6.356   4.692   1.659  1.2453 -0.1741  1.2036
10380SOL     OW43198   6.363   7.065   5.822 -0.2194 -1.0136 -0.3254
10380SOL    HW143199   6.457   7.040   5.840 -0.5638 -1.1013  1.4356
10380SOL    HW243200   6.341   7.048   5.726  1.9866  0.4365 -1.1053
10381SOL     OW43201   8.560   7.827   6.677  0.0201  0.7746 -0.4943
10381SOL    HW143202   8.462   7.829   6.661  0.1363 -0.5962 -1.4086
10381SOL    HW243203   8.582   7.759   6.747  0.3292  1.0749 -0.2915
10382SOL     OW43204   4.516   6.772   5.077 -0.4212  0.1383  0.0515
10382SOL    HW143205   4.470   6.856   5.107 -0.3382  0.8945 -1.8598
10382SOL    HW243206   4.447   6.706   5.046 -0.4033  0.1120  0.0684
10383SOL     OW43207   0.998   6.657   0.273  0.1468 -0.5074 -0.1552
10383SOL    HW143208   0.961   6.610   0.353  1.5890  2.0320  2.0511
10383SOL    HW243209   1.094   6.633   0.261  0.2636  0.0814 -0.4054
10384SOL     OW43210   4.733   7.141   3.622  0.0834  0.2809 -0.1866
10384SOL    HW143211   4.769   7.204   3.691  2.3554  0.7608 -1.7270
10384SOL    HW243212   4.705   7.192   3.541  1.9205 -0.6205 -1.4403
10385SOL     OW43213   5.737   9.269   7.248 -0.4741 -0.4586 -0.0952
10385SOL    HW143214   5.672   9.220   7.191 -0.2565 -0.2067 -0.5575
10385SOL    HW243215   5.827   9.269   7.205  0.3403 -2.5838  1.4888
10386SOL     OW43216   8.646   5.465   6.383 -0.5198 -0.1974 -0.2173
10386SOL    HW143217   8.683   5.395   6.444  0.4736  0.0749 -0.4959
10386SOL    HW243218   8.664   5.439   6.288 -1.2201 -0.1554 -0.3666
10387SOL     OW43219   5.378   8.514   4.617 -0.4159  0.0652 -0.1801
10387SOL    HW143220   5.301   8.453   4.633 -0.5949  0.5597  0.8922
10387SOL    HW243221   5.352   8.583   4.550 -0.7028 -0.1451 -0.2850
10388SOL     OW43222   3.060   7.747   9.311 -0.6926 -0.5949 -0.6324
10388SOL    HW143223   3.160   7.744   9.305 -0.6653  0.0007 -0.4287
10388SOL    HW243224   3.028   7.675   9.373 -0.4206 -1.1049 -1.0833
10389SOL     OW43225   2.642   2.635   6.142 -0.3172 -0.2859 -0.3562
10389SOL    HW143226   2.652   2.634   6.241  0.8866  1.6226 -0.4290
10389SOL    HW243227   2.617   2.543   6.109 -0.5257 -0.9654  1.6671
10390SOL     OW43228   3.033   0.038   0.345 -0.3162  0.1130  0.2193
10390SOL    HW143229   3.078   0.107   0.401  0.7005 -1.2114  1.0644
10390SOL    HW243230   3.068  -0.053   0.369 -0.1991 -0.5258 -2.2155
10391SOL     OW43231   9.373   7.780   5.548 -0.1320 -0.1399 -0.2876
10391SOL    HW143232   9.331   7.783   5.639 -0.3036 -0.6662 -0.3491
10391SOL    HW243233   9.362   7.689   5.509  0.1085  0.0325 -0.7597
10392SOL     OW43234   1.325   3.314   2.605  0.0441  0.0071  0.6163
10392SOL    HW143235   1.344   3.409   2.631  1.3000  0.5258 -2.0472
10392SOL    HW243236   1.410   3.268   2.581 -0.9735 -0.5335 -2.1564
10393SOL     OW43237   2.020   7.408   8.283 -0.1755 -0.3769  0.6290
10393SOL    HW143238   2.041   7.326   8.231 -2.0383 -2.0328  2.3898
10393SOL    HW243239   2.092   7.476   8.270  0.1326 -1.2941 -2.8716
10394SOL     OW43240   1.455   2.626   4.091 -0.3586  0.3865  0.0702
10394SOL    HW143241   1.373   2.568   4.098  0.8628 -1.2286  1.5276
10394SOL    HW243242   1.451   2.697   4.162  0.6497 -1.2449  1.8188
10395SOL     OW43243   1.722   3.290   0.573  0.0220  0.2073  0.0217
10395SOL    HW143244   1.748   3.341   0.655  0.0658  0.4646 -0.1525
10395SOL    HW243245   1.800   3.284   0.511 -0.0293  0.0664 -0.0287
10396SOL     OW43246   3.659   1.963   0.384 -0.1345 -0.7595 -0.0654
10396SOL    HW143247   3.630   1.910   0.464 -0.0438 -0.9923 -0.1873
10396SOL    HW243248   3.581   2.012   0.346 -0.3306 -1.2220 -0.2679
10397SOL     OW43249   9.838   6.766   4.986  0.1119  0.4335  0.1515
10397SOL    HW143250   9.863   6.707   4.910  2.1206 -0.3432  1.3714
10397SOL    HW243251   9.773   6.719   5.046 -1.0974  0.8647 -0.8011
10398SOL     OW43252   4.253   7.112   3.465  0.3536 -0.4508  0.6181
10398SOL    HW143253   4.164   7.106   3.419  1.2642 -0.6400 -1.1402
10398SOL    HW243254   4.242   7.085   3.561 -1.4711 -0.5461  0.4033
10399SOL     OW43255   1.516   5.978   6.447 -0.0858  0.2739 -0.3199
10399SOL    HW143256   1.496   5.948   6.540  0.4224 -2.0023 -0.9048
10399SOL    HW243257   1.450   5.938   6.384  0.1521  1.0146 -1.0506
10400SOL     OW43258   2.003   4.521   1.583  0.0228 -0.1707  0.4572
10400SOL    HW143259   1.918   4.471   1.599 -0.4182  0.9208  1.6848
10400SOL    HW243260   2.043   4.548   1.671  0.9561  0.4389 -0.1415
10401SOL     OW43261   0.113   7.057   6.817  0.4703  0.2540 -0.2929
10401SOL    HW143262   0.186   7.122   6.836  0.6563 -0.2754  0.8092
10401SOL    HW243263   0.146   6.964   6.832 -0.5015  0.0273  0.4538
10402SOL     OW43264   8.933   7.412   0.196 -0.2835 -0.1111 -0.2679
10402SOL    HW143265   8.838   7.444   0.184 -0.1896  0.0180 -0.6700
10402SOL    HW243266   8.989   7.488   0.230 -0.8200 -0.8114  2.3021
10403SOL     OW43267   2.008   8.930   4.812  0.3512  0.6702 -0.4617
10403SOL    HW143268   2.000   8.849   4.754 -1.1967  0.2509  0.3023
10403SOL    HW243269   2.043   8.904   4.901  1.3574  1.0925 -0.7314
10404SOL     OW43270   7.365   2.613   5.629 -0.2888  0.0506 -0.1930
10404SOL    HW143271   7.371   2.532   5.686 -0.8648  1.0302  1.2945
10404SOL    HW243272   7.390   2.590   5.535 -0.0831 -1.7483  0.2887
10405SOL     OW43273   3.805   5.525   4.745  0.0712 -0.2539  0.3066
10405SOL    HW143274   3.836   5.616   4.716 -0.8934  0.2758  0.9013
10405SOL    HW243275   3.758   5.480   4.669 -1.1814  0.5486  0.5882
10406SOL     OW43276   1.858   1.984   8.319  0.0311 -0.0334  0.3103
10406SOL    HW143277   1.770   2.025   8.300 -0.7543 -0.7319  2.2910
10406SOL    HW243278   1.852   1.927   8.401  1.9901 -1.1521 -0.2624
10407SOL     OW43279   1.621   8.160   7.959  0.1682 -0.0252  0.1216
10407SOL    HW143280   1.523   8.155   7.938  0.1920 -1.8665  0.3388
10407SOL    HW243281   1.672   8.108   7.891  0.8766 -0.1385  0.7329
10408SOL     OW43282   4.720   8.392   0.182  0.1717  0.3902  0.0398
10408SOL    HW143283   4.707   8.463   0.112 -0.1876 -0.2070 -0.5091
10408SOL    HW243284   4.652   8.320   0.169 -0.2605  0.5454  1.3663
10409SOL     OW43285   5.619   9.316   5.842  0.0207  0.1996 -0.1398
10409SOL    HW143286   5.571   9.370   5.773  3.1095  2.0608 -0.9076
10409SOL    HW243287   5.647   9.375   5.918  2.0642 -0.6074 -0.2337
10410SOL     OW43288   0.050   8.358   9.516 -0.2177  1.0503  0.1518
10410SOL    HW143289   0.050   8.259   9.530 -1.5063  1.1463  0.8853
10410SOL    HW243290   0.035   8.378   9.419  0.2988  0.5237 -0.0351
10411SOL     OW43291   0.373   6.791   8.033 -0.0753  0.0190  0.5299
10411SOL    HW143292   0.388   6.780   7.934 -0.0144  1.3355  0.3803
10411SOL    HW243293   0.286   6.748   8.058 -0.3495  0.1326 -0.1975
10412SOL     OW43294   3.003   4.126   6.572 -0.3802  0.0951 -0.2685
10412SOL    HW143295   2.993   4.141   6.670  1.2076  0.0309 -0.0924
10412SOL    HW243296   3.095   4.152   6.543 -0.2267 -1.6339 -1.4059
10413SOL     OW43297   2.684   4.745   9.895  0.8022  0.3116 -0.3328
10413SOL    HW143298   2.650   4.799   9.818  0.1939 -1.8125 -1.5994
10413SOL    HW243299   2.640   4.775   9.980 -1.6706 -0.0719 -1.4355
10414SOL     OW43300   2.079   0.039   7.981 -0.8979 -0.5784 -0.1300
10414SOL    HW143301   2.089   0.082   8.071 -1.9860  0.8575 -0.6680
10414SOL    HW243302   2.067  -0.059   7.992  0.2615 -0.5929  1.2173
10415SOL     OW43303   5.944   5.338   7.525 -0.2277 -0.2499  0.2147
10415SOL    HW143304   6.043   5.345   7.516 -0.2372  0.0218  0.3331
10415SOL    HW243305   5.909   5.415   7.578 -0.7157  0.6608 -1.3700
10416SOL     OW43306   3.770   8.972   5.299 -0.0802  0.4674  0.3118
10416SOL    HW143307   3.861   8.955   5.260 -0.0885 -2.4059  1.4815
10416SOL    HW243308   3.701   8.922   5.247 -0.9611  2.1167 -0.1562
10417SOL     OW43309   3.523   1.627   1.681  0.3520 -0.7170  0.1377
10417SOL    HW143310   3.468   1.622   1.597  1.3986 -2.6744 -0.4577
10417SOL    HW243311   3.618   1.645   1.657  0.3653  0.4975  1.0428
10418SOL     OW43312   1.377   1.907   3.053  0.0938 -0.2272  0.2271
10418SOL    HW143313   1.289   1.877   3.015  0.1992  0.1128 -0.2947
10418SOL    HW243314   1.450   1.889   2.987  0.2249  0.7201  0.1003
10419SOL     OW43315   1.350   1.153   6.602 -0.4220  0.6925 -0.1275
10419SOL    HW143316   1.267   1.098   6.596  0.1664 -0.3767  1.3049
10419SOL    HW243317   1.331   1.236   6.655 -0.4675  0.2212  0.6049
10420SOL     OW43318   1.112   7.237   8.631 -0.0427 -0.0990 -0.1008
10420SOL    HW143319   1.206   7.214   8.656 -0.7326 -0.9790  1.7156
10420SOL    HW243320   1.081   7.316   8.684 -0.4406 -0.0105 -0.4571
10421SOL     OW43321   9.898   4.278   8.242  0.4221 -0.2117  0.1404
10421SOL    HW143322   9.889   4.178   8.242  0.1851 -0.1954  0.8182
10421SOL    HW243323   9.968   4.305   8.307  0.4837  0.0644 -0.0399
10422SOL     OW43324   8.152   2.583   3.653 -0.0087  0.0319  0.0337
10422SOL    HW143325   8.152   2.485   3.675 -0.6521 -0.2341 -1.0531
10422SOL    HW243326   8.092   2.598   3.574  0.0638  1.3129  0.2180
10423SOL     OW43327   2.576   2.001   9.590 -0.3600  0.2373  0.4361
10423SOL    HW143328   2.575   1.915   9.642  1.3830 -0.6264 -0.9103
10423SOL    HW243329   2.611   2.075   9.648  0.6223 -0.5075  0.8068
10424SOL     OW43330   1.968   1.812   9.793 -0.0360 -0.6087 -0.0223
10424SOL    HW143331   2.064   1.799   9.767 -0.3636  0.7200 -2.0325
10424SOL    HW243332   1.915   1.836   9.711 -1.7623  0.4241  1.3722
10425SOL     OW43333   4.205   2.724   7.942 -0.5374 -0.5441 -0.6119
10425SOL    HW143334   4.140   2.757   8.010 -1.0627 -0.6804 -1.0480
10425SOL    HW243335   4.252   2.803   7.901 -0.5656 -0.4352 -0.4389
10426SOL     OW43336   1.193   9.105   6.427 -0.3807 -0.7696 -0.1715
10426SOL    HW143337   1.160   9.042   6.357  0.3381 -3.1370  1.5319
10426SOL    HW243338   1.116   9.157   6.464 -1.1530 -1.3352 -0.9617
10427SOL     OW43339   3.892   1.377   0.868 -0.4239  0.5380  0.2250
10427SOL    HW143340   3.955   1.453   0.857 -0.9257  0.9323  0.0846
10427SOL    HW243341   3.847   1.357   0.780 -1.1200  0.8045  0.5192
10428SOL     OW43342   2.247   7.037   2.790 -0.4903 -0.0269 -0.2828
10428SOL    HW143343   2.276   7.126   2.823  0.8509 -0.8374  0.7996
10428SOL    HW243344   2.229   7.041   2.692  1.0226  1.0610 -0.5238
10429SOL     OW43345   6.538   8.635   6.112  0.1158  0.0991  0.5093
10429SOL    HW143346   6.532   8.690   6.029 -0.1509 -2.3297 -1.1154
10429SOL    HW243347   6.528   8.538   6.090  1.6290 -0.7358  3.1815
10430SOL     OW43348   1.264   7.164   8.212  0.0534  0.5677 -0.3776
10430SOL    HW143349   1.310   7.190   8.297 -2.1703 -0.1601  1.1102
10430SOL    HW243350   1.190   7.229   8.193 -0.0405  0.2065 -1.2817
10431SOL     OW43351   6.289   8.362   8.327 -0.3256  0.6213  0.4698
10431SOL    HW143352   6.253   8.327   8.413  1.2120 -1.1442  0.4246
10431SOL    HW243353   6.308   8.460   8.337 -0.5103  0.5149  2.0234
10432SOL     OW43354   2.267   3.951   9.252 -0.0165 -0.6201 -0.2728
10432SOL    HW143355   2.197   3.892   9.292 -1.2716  0.2255 -1.1651
10432SOL    HW243356   2.226   4.040   9.231  1.8463  0.6147  1.1250
10433SOL     OW43357   9.498   3.964   3.495  0.2203  0.0683  0.3315
10433SOL    HW143358   9.426   3.977   3.563  0.0948  0.1231  0.1888
10433SOL    HW243359   9.526   3.867   3.494  0.1849  0.0574  0.4231
10434SOL     OW43360   3.299   0.208   7.805 -0.1225  0.3946 -0.4141
10434SOL    HW143361   3.222   0.148   7.782  0.7421 -0.8394 -0.1861
10434SOL    HW243362   3.306   0.281   7.737  0.3113 -1.2173 -2.1354
10435SOL     OW43363   4.662   9.864   2.068 -0.1374  0.7364  0.1669
10435SOL    HW143364   4.707   9.900   2.149 -0.4910  2.0292 -0.2045
10435SOL    HW243365   4.705   9.901   1.986 -1.9755  2.1642 -0.1871
10436SOL     OW43366   9.348   9.376   8.706  0.0828 -0.2596  0.0735
10436SOL    HW143367   9.332   9.401   8.611 -1.3905 -1.5672 -0.0490
10436SOL    HW243368   9.440   9.335   8.715  0.8959  1.4192 -0.4426
10437SOL     OW43369   2.356   8.686   4.563 -0.0438  0.9994  0.3093
10437SOL    HW143370   2.411   8.687   4.479 -1.5641  0.8838 -0.7140
10437SOL    HW243371   2.405   8.636   4.634  0.0307 -1.4174 -1.3845
10438SOL     OW43372   3.668   7.127   5.223  0.3485 -0.5204  0.3993
10438SOL    HW143373   3.660   7.214   5.173  1.5847 -0.6551 -0.0468
10438SOL    HW243374   3.744   7.133   5.288  0.2339 -1.1642  0.5973
10439SOL     OW43375   9.958   2.867   3.109 -0.0061 -0.3690 -0.0080
10439SOL    HW143376  10.030   2.847   3.175 -1.7074 -0.6365  1.8128
10439SOL    HW243377   9.873   2.889   3.157 -0.8872  0.9701 -2.0964
10440SOL     OW43378   2.673   0.146   4.106 -0.3378  0.6639  0.1802
10440SOL    HW143379   2.633   0.108   4.189  1.8187  0.8267  1.3265
10440SOL    HW243380   2.725   0.228   4.128  1.9293 -0.4015 -1.0104
10441SOL     OW43381   5.861   4.344   5.679 -0.2869 -0.5580  0.0890
10441SOL    HW143382   5.812   4.394   5.607 -0.1142 -1.5335 -0.7240
10441SOL    HW243383   5.933   4.402   5.717 -0.3710 -0.0365 -0.5424
10442SOL     OW43384   5.096   4.321   6.075 -0.3771  0.4889  0.7117
10442SOL    HW143385   5.181   4.368   6.096 -0.7912  1.1360  0.9623
10442SOL    HW243386   5.029   4.338   6.148 -0.7131 -0.0401  0.5351
10443SOL     OW43387   5.580   5.294   8.473 -0.1796 -0.1911  0.7371
10443SOL    HW143388   5.506   5.359   8.489 -0.4091 -0.6932  1.7288
10443SOL    HW243389   5.571   5.216   8.534  0.2773 -1.0208 -0.2284
10444SOL     OW43390   4.846   6.230   5.287  0.7786 -0.4940  0.7362
10444SOL    HW143391   4.822   6.193   5.197 -1.7268 -0.5632  1.4184
10444SOL    HW243392   4.852   6.329   5.282 -0.5351 -0.4056  0.7422
10445SOL     OW43393   6.293   6.380   7.047  0.1387  1.1270 -0.1952
10445SOL    HW143394   6.370   6.443   7.036 -0.3015  1.7438  0.1934
10445SOL    HW243395   6.314   6.293   7.001  1.0631  1.2839 -0.0923
10446SOL     OW43396   7.467   4.796   8.035  0.5904  0.1703 -0.3136
10446SOL    HW143397   7.446   4.799   7.938 -0.4959  1.0680 -0.0768
10446SOL    HW243398   7.560   4.829   8.051 -0.0401  2.3144 -0.8549
10447SOL     OW43399   2.933   7.042   0.756 -0.3430  0.3386  0.0390
10447SOL    HW143400   2.869   6.987   0.703  1.1697 -0.4331 -1.0105
10447SOL    HW243401   3.004   7.078   0.696  0.9615  0.1014  1.4054
10448SOL     OW43402   9.458   1.370   5.418  0.8169  0.5577 -0.3133
10448SOL    HW143403   9.556   1.380   5.434  0.8428 -0.2840  0.0813
10448SOL    HW243404   9.416   1.460   5.407  1.6305  0.9189 -0.4758
10449SOL     OW43405   5.675   7.334   6.846 -0.3311 -0.1957 -0.2773
10449SOL    HW143406   5.590   7.385   6.839  0.2937  0.9679  0.4638
10449SOL    HW243407   5.655   7.237   6.858 -1.5239 -0.1585 -1.8627
10450SOL     OW43408   7.635   3.728   7.288 -0.0551  0.5078 -0.3102
10450SOL    HW143409   7.579   3.745   7.369  0.0378  1.4454 -0.4292
10450SOL    HW243410   7.727   3.702   7.316  0.3582  2.1244 -0.0869
10451SOL     OW43411   1.929   8.431   6.022 -0.2076  0.3110  0.1002
10451SOL    HW143412   1.966   8.339   6.026  0.6641  0.5768 -1.5552
10451SOL    HW243413   2.001   8.497   6.044 -0.7838  0.6249  1.1126
10452SOL     OW43414   8.270   9.651   6.886 -0.0076  0.1992 -0.0692
10452SOL    HW143415   8.315   9.740   6.873 -3.2648  1.7100 -1.8409
10452SOL    HW243416   8.237   9.618   6.797 -1.3563 -1.3625  0.9929
10453SOL     OW43417   0.487   6.822   5.481  0.0472  0.1820  0.0410
10453SOL    HW143418   0.410   6.884   5.464  0.9035  2.0154  2.5467
10453SOL    HW243419   0.458   6.750   5.544  0.1641  0.4327  0.3832
10454SOL     OW43420   6.242   8.719   3.109  0.0440 -0.0873 -0.2418
10454SOL    HW143421   6.192   8.640   3.145 -0.1424 -0.0199 -0.3559
10454SOL    HW243422   6.239   8.717   3.009 -0.6759  0.5286 -0.2373
10455SOL     OW43423   0.869   0.415   7.565  0.1556 -0.4908  0.1395
10455SOL    HW143424   0.776   0.453   7.567  0.1800 -0.4890  2.8439
10455SOL    HW243425   0.872   0.332   7.619  1.9260 -0.0357  0.7623
10456SOL     OW43426   4.083   7.650   5.658 -0.4767 -0.1788  0.4853
10456SOL    HW143427   4.041   7.618   5.572 -3.2145  3.0587  0.5155
10456SOL    HW243428   4.057   7.589   5.732 -1.5252 -0.6876 -0.2869
10457SOL     OW43429   1.745   3.934   4.634 -0.2681 -0.2630  0.1818
10457SOL    HW143430   1.820   3.985   4.675 -1.5949  2.3445 -0.4960
10457SOL    HW243431   1.679   3.908   4.705  0.2992 -0.8439  0.4980
10458SOL     OW43432   1.931   6.333   6.164  0.2314  0.2426  0.3118
10458SOL    HW143433   1.987   6.390   6.225 -1.3656  0.7734  1.3228
10458SOL    HW243434   1.842   6.376   6.150 -0.1524 -0.8697 -0.8089
10459SOL     OW43435   2.414   0.978   5.758  0.6383 -0.2105 -0.3830
10459SOL    HW143436   2.464   1.016   5.680  0.0290 -1.3564 -1.3587
10459SOL    HW243437   2.474   0.917   5.810  0.4318 -1.1988 -1.2681
10460SOL     OW43438   7.931   9.985   3.841  0.0855  0.2124  0.5216
10460SOL    HW143439   7.993  10.044   3.894  0.9866 -1.5981  1.5107
10460SOL    HW243440   7.838   9.995   3.876  0.5719 -0.4906  2.0408
10461SOL     OW43441   2.633   1.776   7.207 -0.5637 -0.6653 -0.4032
10461SOL    HW143442   2.603   1.758   7.300  0.4202 -0.5593 -0.0605
10461SOL    HW243443   2.616   1.695   7.150  0.3899 -1.3488  0.2673
10462SOL     OW43444   2.378   5.339   5.882 -0.1940 -1.2549 -0.1337
10462SOL    HW143445   2.360   5.317   5.978 -1.2953 -0.1982 -0.0835
10462SOL    HW243446   2.297   5.382   5.842  0.3089 -1.5621 -1.5042
10463SOL     OW43447   0.885   2.366   1.517 -0.0585  0.4665 -0.5285
10463SOL    HW143448   0.787   2.361   1.498 -0.0572  0.4572 -0.5328
10463SOL    HW243449   0.919   2.275   1.542 -0.4296  0.8395  1.3719
10464SOL     OW43450   2.799   3.671   8.239 -0.2605 -0.7667  0.3641
10464SOL    HW143451   2.887   3.637   8.271 -1.1671 -1.7983  1.8197
10464SOL    HW243452   2.768   3.745   8.298 -1.2058 -1.6270  0.9785
10465SOL     OW43453   4.001   7.860   8.526  0.2962  0.0824  0.1343
10465SOL    HW143454   4.083   7.820   8.486  0.9348  0.8145  0.6926
10465SOL    HW243455   3.923   7.799   8.512  1.0379 -0.8445  0.0348
10466SOL     OW43456   9.550   1.094   5.559 -0.1054 -0.6287  0.5265
10466SOL    HW143457   9.506   1.142   5.484 -0.4048 -1.2092  0.3248
10466SOL    HW243458   9.525   1.137   5.646  0.7060  0.3988  0.2623
10467SOL     OW43459   3.390   2.132   5.096  0.0334  0.0691 -0.3977
10467SOL    HW143460   3.457   2.175   5.036 -0.1817 -0.5122 -1.0621
10467SOL    HW243461   3.366   2.042   5.060 -0.3163 -0.1595  0.4062
10468SOL     OW43462   8.496   5.983   7.754  0.2649  0.1490 -0.0590
10468SOL    HW143463   8.579   5.948   7.711 -0.6467 -0.9112 -1.0123
10468SOL    HW243464   8.520   6.049   7.825  1.8739  0.4600 -0.8775
10469SOL     OW43465   4.413   7.686   5.889  0.0284 -0.3845  0.0926
10469SOL    HW143466   4.488   7.620   5.887  1.4609  1.1567  1.1618
10469SOL    HW243467   4.410   7.735   5.802  1.1136  0.4400  0.5035
10470SOL     OW43468   4.935   4.901   7.896 -0.4928  0.7742 -0.3427
10470SOL    HW143469   4.928   4.851   7.810  0.4177  2.2766 -1.3172
10470SOL    HW243470   4.887   4.851   7.968 -1.0689 -0.6125 -1.6674
10471SOL     OW43471   4.711   9.533   6.215  0.5364 -0.2521 -0.3182
10471SOL    HW143472   4.778   9.572   6.151 -0.2560  0.0863 -0.9510
10471SOL    HW243473   4.742   9.547   6.309  1.0137  0.5160 -0.5863
10472SOL     OW43474   2.916   7.013   2.172 -0.1149 -0.5886 -0.3780
10472SOL    HW143475   2.827   6.966   2.170  0.8339 -2.4298 -0.7313
10472SOL    HW243476   2.904   7.109   2.148 -2.1040 -0.6721  0.2273
10473SOL     OW43477   5.762   7.891   4.874  0.1183  0.1149 -0.4921
10473SOL    HW143478   5.766   7.909   4.776  1.0473 -0.0146 -0.4838
10473SOL    HW243479   5.770   7.978   4.924  2.4948 -0.0804 -0.4888
10474SOL     OW43480   5.801   8.925   8.669 -0.0751  0.0617  0.6209
10474SOL    HW143481   5.769   8.912   8.575 -2.2657  0.5675  1.2726
10474SOL    HW243482   5.835   8.838   8.704 -2.4450 -0.9772  0.4827
10475SOL     OW43483   0.057   0.719   7.868  0.1720 -0.4291  0.1431
10475SOL    HW143484   0.085   0.753   7.779  1.6954  0.4865  0.9608
10475SOL    HW243485  -0.024   0.661   7.858  0.0178  0.1081 -1.7548
10476SOL     OW43486   0.497   5.786   8.290 -0.2228  0.4335 -0.0175
10476SOL    HW143487   0.433   5.851   8.330 -1.2205 -1.8683  2.2523
10476SOL    HW243488   0.528   5.721   8.360  2.0978 -0.4781 -1.8074
10477SOL     OW43489   1.665   8.288   7.460 -0.2869 -0.1787 -0.1857
10477SOL    HW143490   1.704   8.268   7.369 -3.4861  0.7504 -1.8390
10477SOL    HW243491   1.643   8.202   7.506  0.3986 -0.6414 -0.7027
10478SOL     OW43492   3.154   0.326   2.313  0.2518 -0.7422 -0.2621
10478SOL    HW143493   3.181   0.394   2.246 -1.6560 -0.0388 -0.3474
10478SOL    HW243494   3.211   0.244   2.303  1.0609 -0.0156 -1.6445
10479SOL     OW43495   1.154   9.498   8.557 -0.1114 -0.8756  0.1523
10479SOL    HW143496   1.188   9.587   8.588 -1.0090 -0.1457 -0.9136
10479SOL    HW243497   1.127   9.443   8.636 -0.4743  0.1805  0.7749
10480SOL     OW43498   8.588   5.384   5.871  0.5718 -0.0942 -0.1469
10480SOL    HW143499   8.571   5.468   5.820  1.7822 -1.2892 -2.6601
10480SOL    HW243500   8.663   5.398   5.935 -0.4895  1.2505  0.8190
10481SOL     OW43501   0.984   4.822   4.412 -0.2470 -0.4160 -0.1405
10481SOL    HW143502   1.036   4.736   4.418  0.5114  0.0517  0.0763
10481SOL    HW243503   0.983   4.854   4.317  1.3659  0.4835  0.1304
10482SOL     OW43504   7.416   6.539   8.004 -0.0452 -0.3962  0.0577
10482SOL    HW143505   7.349   6.556   8.077 -0.1051  0.4894 -0.1956
10482SOL    HW243506   7.472   6.620   7.991  0.2422 -0.6974 -0.5990
10483SOL     OW43507   6.326   9.872   3.489 -0.6456  0.4334  0.6391
10483SOL    HW143508   6.307   9.791   3.544  1.3728  0.7512  1.8682
10483SOL    HW243509   6.425   9.877   3.470 -1.0745  1.2466 -1.5948
10484SOL     OW43510   1.546   3.169   1.921 -0.0712  0.1629 -0.4155
10484SOL    HW143511   1.453   3.205   1.926  0.2286  0.8857  0.0913
10484SOL    HW243512   1.575   3.164   1.826  0.0645  1.7481 -0.4727
10485SOL     OW43513   3.608   1.545   9.388  0.3434  0.1075 -0.2185
10485SOL    HW143514   3.599   1.469   9.323 -0.1034 -1.2542  1.4032
10485SOL    HW243515   3.571   1.628   9.348 -2.1574 -1.2465 -0.7888
10486SOL     OW43516   3.740   5.262   1.360  1.0321 -0.0862 -0.4064
10486SOL    HW143517   3.735   5.362   1.354  2.2242  0.1012  1.5229
10486SOL    HW243518   3.662   5.227   1.412  0.9650 -0.1285 -0.5322
10487SOL     OW43519   0.900   9.796   7.431  0.1707 -0.2369  0.1100
10487SOL    HW143520   0.836   9.872   7.449 -0.2080 -0.1579 -1.5306
10487SOL    HW243521   0.898   9.733   7.509 -1.9793 -0.2770  0.0725
10488SOL     OW43522   4.142   6.162   5.516  1.1596  0.1906 -0.0520
10488SOL    HW143523   4.175   6.071   5.544 -1.4975 -0.8822 -0.1905
10488SOL    HW243524   4.057   6.183   5.566  0.0621  1.2244 -2.3008
10489SOL     OW43525   9.698   6.716   7.733 -0.5034 -0.1600  0.4966
10489SOL    HW143526   9.614   6.670   7.704 -1.5027  0.7436  1.9153
10489SOL    HW243527   9.676   6.803   7.777  1.2469  0.6156 -0.0997
10490SOL     OW43528   4.321   0.593   8.202  0.1102  0.3745  0.4579
10490SOL    HW143529   4.409   0.546   8.208  0.6463  1.4111  0.8137
10490SOL    HW243530   4.292   0.598   8.106  0.5957  0.3022  0.3055
10491SOL     OW43531   1.837   7.774   4.850 -0.2029 -0.1441 -0.3086
10491SOL    HW143532   1.804   7.757   4.943  1.9146 -1.2090  0.2923
10491SOL    HW243533   1.937   7.773   4.850 -0.0252  4.5685 -1.7478
10492SOL     OW43534   6.486   6.532   9.873  0.0745  0.2291  0.0212
10492SOL    HW143535   6.420   6.481   9.817 -1.2642  1.0706  0.7896
10492SOL    HW243536   6.452   6.539   9.967 -0.2997  3.3801 -0.2916
10493SOL     OW43537   3.719   7.566   0.044 -0.5491  0.3695  0.4282
10493SOL    HW143538   3.811   7.590   0.014 -0.9253 -0.4088 -1.3906
10493SOL    HW243539   3.699   7.611   0.132  0.5014  2.7994 -0.5565
10494SOL     OW43540   2.279   6.387   2.000  0.2692  0.3862 -0.4435
10494SOL    HW143541   2.240   6.296   2.001 -0.6575  0.7832 -0.0098
10494SOL    HW243542   2.353   6.392   1.932  0.0452 -0.5594 -0.7489
10495SOL     OW43543   0.037   8.393   5.126 -0.1449  0.0698 -0.3485
10495SOL    HW143544  -0.060   8.382   5.105  0.5013 -0.6846 -3.1803
10495SOL    HW243545   0.067   8.485   5.099 -0.2920  0.7224  1.6054
10496SOL     OW43546   4.786   1.052   8.128  0.0102 -0.1815  0.7454
10496SOL    HW143547   4.859   1.119   8.139 -0.5005  0.5631 -0.3572
10496SOL    HW243548   4.729   1.077   8.050 -0.4987 -1.6129  0.6433
10497SOL     OW43549   9.817   2.440   5.126  0.0473 -0.3790 -0.4999
10497SOL    HW143550   9.909   2.480   5.121  0.2628 -0.9337 -1.0383
10497SOL    HW243551   9.753   2.507   5.164  0.6574  0.0407 -0.2070
10498SOL     OW43552   1.865   5.422   0.984  0.2728  0.3467 -0.5318
10498SOL    HW143553   1.858   5.346   0.919  1.4008  1.5320 -2.0648
10498SOL    HW243554   1.774   5.461   0.997  0.2727  1.1782 -2.7464
10499SOL     OW43555   2.578   0.754   1.105 -0.0494  0.1137  0.5210
10499SOL    HW143556   2.558   0.823   1.174  0.5667 -0.2218  1.0390
10499SOL    HW243557   2.493   0.727   1.059 -0.4390  0.4345  1.0497
10500SOL     OW43558   2.121   8.259   8.539  1.0164 -0.7919  0.0582
10500SOL    HW143559   2.080   8.295   8.455  0.4458 -1.9950 -0.1870
10500SOL    HW243560   2.172   8.175   8.518  1.1581 -0.9099  0.8640
10501SOL     OW43561   2.617   8.836   0.025 -0.2143 -0.0811 -0.5053
10501SOL    HW143562   2.570   8.750   0.044 -1.9705  0.8722 -0.5083
10501SOL    HW243563   2.613   8.895   0.106  0.1078  0.4028 -0.8361
10502SOL     OW43564   7.037   4.003   9.808 -0.6293  0.3234  0.2606
10502SOL    HW143565   6.954   3.971   9.762 -0.6204  0.2277  0.3111
10502SOL    HW243566   7.114   3.998   9.744 -0.6761  0.4763  0.1921
10503SOL     OW43567   0.935   9.834   6.992  0.3562  0.5267 -0.2063
10503SOL    HW143568   0.842   9.797   6.981 -0.1307  1.9256 -0.8091
10503SOL    HW243569   0.989   9.813   6.911  0.5918 -0.3386  0.1678
10504SOL     OW43570   3.456   0.597   8.715 -0.3330 -0.3533  0.2714
10504SOL    HW143571   3.489   0.659   8.644 -1.4161 -1.1347 -0.9451
10504SOL    HW243572   3.499   0.508   8.705 -0.7868 -0.5830  0.3524
10505SOL     OW43573   4.852   0.558   6.667  0.0013  0.4067 -0.7161
10505SOL    HW143574   4.919   0.549   6.741 -1.9507  1.1751  1.1988
10505SOL    HW243575   4.899   0.556   6.579  2.5321  0.9463  0.5833
10506SOL     OW43576   9.424   5.404   1.216  0.7947 -0.2702 -0.1455
10506SOL    HW143577   9.376   5.354   1.288 -0.8360  1.2547 -0.1335
10506SOL    HW243578   9.516   5.430   1.248  0.1402  0.2671  1.3463
10507SOL     OW43579   2.346   9.363   0.342  0.4649 -0.6816  0.4723
10507SOL    HW143580   2.333   9.357   0.243  0.0076 -1.2187  0.5596
10507SOL    HW243581   2.295   9.441   0.378 -0.3196 -1.1767  0.4419
10508SOL     OW43582   6.874   9.433   5.580  0.0880  0.1318  0.1355
10508SOL    HW143583   6.902   9.448   5.674  0.9457 -1.3361  0.1304
10508SOL    HW243584   6.889   9.337   5.555 -1.9975  0.0229 -0.8671
10509SOL     OW43585   0.429   5.262   5.587 -0.8105 -0.2257 -0.6592
10509SOL    HW143586   0.390   5.338   5.534  0.3447 -0.7588 -2.3281
10509SOL    HW243587   0.521   5.242   5.553  0.1038 -0.3911  1.8041
10510SOL     OW43588   4.197   9.833   3.029 -0.2353 -0.2901  0.5490
10510SOL    HW143589   4.281   9.783   3.045 -0.0697 -0.5195 -0.9702
10510SOL    HW243590   4.218   9.929   3.012 -0.1817 -0.5697 -0.9784
10511SOL     OW43591   1.186   0.860   5.370  0.4546  0.0380 -1.3405
10511SOL    HW143592   1.128   0.889   5.446 -0.1467 -4.1502 -0.1107
10511SOL    HW243593   1.280   0.848   5.402  0.7561  0.8673 -1.9014
10512SOL     OW43594   0.471   4.745   2.363  0.4090  0.2293 -0.0228
10512SOL    HW143595   0.405   4.742   2.439 -0.5968 -3.0186 -0.9336
10512SOL    HW243596   0.563   4.753   2.399 -0.0449 -1.5205  1.5808
10513SOL     OW43597   5.095   7.722   9.921 -0.0332  0.1889  0.2193
10513SOL    HW143598   5.186   7.684   9.905 -0.3833 -0.5473 -0.0653
10513SOL    HW243599   5.094   7.819   9.896  0.4688  0.0074 -0.5183
10514SOL     OW43600   3.131   5.701   1.514 -0.0591  0.3596  0.0639
10514SOL    HW143601   3.034   5.723   1.503 -0.0506  1.4832  2.1100
10514SOL    HW243602   3.144   5.602   1.503 -1.4625  0.1721  0.0447
10515SOL     OW43603   5.287   2.110   1.087  0.0536  0.2119 -0.2972
10515SOL    HW143604   5.204   2.076   1.133 -0.4799  2.0203  0.1096
10515SOL    HW243605   5.366   2.090   1.145 -0.4766  1.3808  0.8597
10516SOL     OW43606   1.014   0.356   1.699 -0.4555  0.6111 -0.0868
10516SOL    HW143607   1.021   0.443   1.749  0.0870  1.0295 -0.8924
10516SOL    HW243608   0.932   0.358   1.641 -2.8879 -1.0931  3.1152
10517SOL     OW43609   2.242   3.670   2.473 -0.5692 -0.2760 -0.5677
10517SOL    HW143610   2.207   3.655   2.565  0.7343 -2.2037 -0.3563
10517SOL    HW243611   2.255   3.582   2.427  2.7015  0.4251 -1.0941
10518SOL     OW43612   4.763   6.322   8.632  0.3148 -0.1271 -0.3256
10518SOL    HW143613   4.800   6.411   8.657 -1.3889  1.0942 -2.0475
10518SOL    HW243614   4.838   6.255   8.628  1.3389  0.6659  3.0915
10519SOL     OW43615   3.959   8.212   6.657 -0.4144 -0.6358 -0.4639
10519SOL    HW143616   3.990   8.124   6.620 -2.3561 -1.3852 -0.3903
10519SOL    HW243617   3.943   8.202   6.756  1.8169  0.5169  0.0336
10520SOL     OW43618   2.910   0.410   9.232  0.2189  0.0804 -0.0948
10520SOL    HW143619   2.912   0.366   9.323 -1.1716  2.1515  0.9755
10520SOL    HW243620   2.819   0.401   9.193  0.4562  0.3359 -0.7102
10521SOL     OW43621   1.554   8.648   1.480 -0.2074 -0.1398 -0.1718
10521SOL    HW143622   1.547   8.689   1.571  0.6524 -0.7362  0.1678
10521SOL    HW243623   1.571   8.720   1.412 -2.7083  0.5344 -0.1308
10522SOL     OW43624   2.273   8.977   6.584 -0.0792 -0.4186 -0.0064
10522SOL    HW143625   2.185   8.954   6.625 -0.0533 -0.4121  0.0533
10522SOL    HW243626   2.317   8.894   6.550  0.4139 -0.5784  1.0068
10523SOL     OW43627   3.909   9.816   0.535  0.3052 -0.1346  0.4090
10523SOL    HW143628   3.916   9.717   0.527 -1.2615 -0.0396 -3.0325
10523SOL    HW243629   3.921   9.843   0.631 -0.1370 -3.7052  1.5437
10524SOL     OW43630   2.216   8.639   1.005  0.5708  0.1880  0.0911
10524SOL    HW143631   2.221   8.627   0.906 -0.1472  0.1761  0.0567
10524SOL    HW243632   2.263   8.723   1.032 -0.4398  0.9055 -0.3979
10525SOL     OW43633   4.037   7.578   4.410  0.0731  0.0377 -0.2904
10525SOL    HW143634   4.024   7.482   4.386  2.2066 -0.1510 -0.8155
10525SOL    HW243635   3.975   7.603   4.483 -0.5592 -1.7291 -0.2099
10526SOL     OW43636   6.347   6.959   4.629 -0.0186 -0.2085 -0.2683
10526SOL    HW143637   6.298   6.925   4.709 -1.4286 -0.4916 -1.2148
10526SOL    HW243638   6.286   6.955   4.549  0.7164  1.8642 -0.9683
10527SOL     OW43639   3.604   7.740   9.717  0.2875 -0.4137  0.3697
10527SOL    HW143640   3.532   7.760   9.651  1.5537 -0.3207 -1.0188
10527SOL    HW243641   3.629   7.643   9.712  1.4040 -0.0993 -0.3446
10528SOL     OW43642   0.254   2.488   8.977 -0.0295 -0.1297  0.3994
10528SOL    HW143643   0.196   2.549   8.925 -1.1388  1.0367  2.9048
10528SOL    HW243644   0.246   2.394   8.942 -2.2219  0.2932 -0.2566
10529SOL     OW43645   0.867   1.436   2.617  0.0947  0.6025  0.1476
10529SOL    HW143646   0.930   1.492   2.564  1.2128 -1.0493 -0.2849
10529SOL    HW243647   0.918   1.376   2.678 -1.1279  0.8572  1.4677
10530SOL     OW43648   3.132   9.488   8.637 -0.6138  0.0760  0.7044
10530SOL    HW143649   3.080   9.546   8.574  1.9755  1.0041 -0.6737
10530SOL    HW243650   3.145   9.398   8.596 -0.0255  0.2736  0.4442
10531SOL     OW43651   5.657   7.353   3.135  0.9703 -0.7954  0.3447
10531SOL    HW143652   5.645   7.401   3.222  0.5682 -1.5992  0.7312
10531SOL    HW243653   5.710   7.411   3.073 -2.3307  1.5916 -0.3762
10532SOL     OW43654   8.857   5.802   2.868  0.2613  0.7222 -0.1611
10532SOL    HW143655   8.920   5.775   2.940 -0.2166  1.6500  0.6232
10532SOL    HW243656   8.804   5.723   2.838  0.1007  0.4292  0.8702
10533SOL     OW43657   0.529   8.116   8.597  0.0611  0.2636 -0.3153
10533SOL    HW143658   0.496   8.194   8.544 -0.0671 -0.3799 -1.1954
10533SOL    HW243659   0.540   8.037   8.536  1.3007 -0.0812  0.3365
10534SOL     OW43660   9.919   9.915   8.397  0.8174 -0.0909 -0.2262
10534SOL    HW143661   9.966   9.885   8.314  0.3603 -0.9646 -0.1710
10534SOL    HW243662   9.840   9.971   8.373  0.3480 -0.8190 -0.4104
10535SOL     OW43663   3.144   6.931   4.079 -0.9878  0.5663  0.1740
10535SOL    HW143664   3.075   6.989   4.123 -0.4757  2.6464 -1.6930
10535SOL    HW243665   3.190   6.982   4.006  0.5824 -1.6992 -0.4932
10536SOL     OW43666   3.827   8.886   5.958 -0.1442 -0.3287 -0.4855
10536SOL    HW143667   3.793   8.806   6.008 -1.7714  0.0590 -0.9468
10536SOL    HW243668   3.927   8.886   5.959 -0.1457 -1.1749  1.4070
10537SOL     OW43669   8.617   7.083   8.123 -0.5540  0.3864 -0.2743
10537SOL    HW143670   8.548   7.142   8.165  0.6835 -0.1985  2.6657
10537SOL    HW243671   8.699   7.136   8.103 -0.3668  0.1996  0.0050
10538SOL     OW43672   3.941   8.927   5.594  0.0739  0.2548  0.2681
10538SOL    HW143673   3.848   8.953   5.565 -0.4550 -0.5974  1.1599
10538SOL    HW243674   3.999   8.914   5.514 -1.2885 -1.7911 -0.4261
10539SOL     OW43675   6.024   9.091   7.584  0.1830 -0.1860 -0.2751
10539SOL    HW143676   6.061   9.017   7.528 -0.5562  0.1154 -1.1936
10539SOL    HW243677   5.940   9.126   7.541 -0.2247  0.2684  0.8612
10540SOL     OW43678   3.686   1.152   7.982 -0.1282 -0.7580 -0.1246
10540SOL    HW143679   3.649   1.195   8.065  2.1835 -0.2601  0.7078
10540SOL    HW243680   3.625   1.080   7.952 -0.8381 -1.2086  2.2706
10541SOL     OW43681   3.525   8.687   9.596  0.0961  0.0769 -0.3890
10541SOL    HW143682   3.473   8.741   9.661  0.1083 -0.3168 -0.0481
10541SOL    HW243683   3.474   8.679   9.510 -0.4034 -0.2966 -0.0611
10542SOL     OW43684   1.253   0.697   1.185 -0.1592  0.0867 -0.0580
10542SOL    HW143685   1.234   0.762   1.258 -0.8992  0.6721 -0.7577
10542SOL    HW243686   1.291   0.613   1.224  2.0061  1.3925  0.7393
10543SOL     OW43687   5.391   7.172   6.715  0.0379  0.7518  0.8642
10543SOL    HW143688   5.445   7.140   6.637 -1.5060  0.4206 -0.0895
10543SOL    HW243689   5.307   7.214   6.682 -1.4207 -0.8638  2.3815
10544SOL     OW43690   0.060   8.758   6.124  0.0213  0.0541  0.3310
10544SOL    HW143691   0.111   8.835   6.087 -0.2661  0.2331  0.3083
10544SOL    HW243692  -0.024   8.791   6.168 -0.0085 -0.2263  0.4896
10545SOL     OW43693   3.695   0.094   3.105  0.2279 -0.5281  0.1645
10545SOL    HW143694   3.655   0.172   3.056  1.9238 -0.6074 -1.4039
10545SOL    HW243695   3.700   0.116   3.203 -0.7286  0.7061 -0.0428
10546SOL     OW43696   0.893   7.779   8.580  0.0502  0.5583 -0.3011
10546SOL    HW143697   0.938   7.868   8.578 -0.1372  0.6454 -1.2781
10546SOL    HW243698   0.961   7.706   8.585  0.1720  0.7795  1.2745
10547SOL     OW43699   3.061   7.476   9.765  0.7734 -0.6087  0.0991
10547SOL    HW143700   3.016   7.524   9.840  2.1687  0.0584  0.5245
10547SOL    HW243701   3.160   7.491   9.770  0.9039 -0.6722 -1.7911
10548SOL     OW43702   9.594   6.023   8.302 -0.3739 -0.0545  0.1127
10548SOL    HW143703   9.579   5.982   8.392 -2.8938  2.6637  1.0118
10548SOL    HW243704   9.691   6.020   8.280  0.3663 -0.2423  3.1865
10549SOL     OW43705   1.627   9.364   4.729 -0.5737  0.0450 -0.5756
10549SOL    HW143706   1.613   9.397   4.636  1.4155  0.7990 -0.6378
10549SOL    HW243707   1.706   9.302   4.731  2.0027  3.2143  1.2403
10550SOL     OW43708   1.460   1.750   6.577  0.3820 -0.2167 -0.0209
10550SOL    HW143709   1.393   1.724   6.507  0.2544  0.6627 -0.2222
10550SOL    HW243710   1.466   1.849   6.583  2.9847 -0.2446 -1.3075
10551SOL     OW43711   2.225   1.015   5.093 -0.0528  0.1680  0.2445
10551SOL    HW143712   2.219   0.928   5.044 -2.0582 -0.0546  0.8215
10551SOL    HW243713   2.170   1.011   5.176  1.0416  1.4941  1.0696
10552SOL     OW43714   0.274   9.387   7.289 -0.4258  0.3938  0.1569
10552SOL    HW143715   0.332   9.305   7.293  1.0953  1.4665  0.1905
10552SOL    HW243716   0.266   9.417   7.194  0.1714  1.0258  0.3048
10553SOL     OW43717   2.300   1.067   0.815  1.0109 -0.2890  0.2254
10553SOL    HW143718   2.320   1.132   0.742  0.1841  0.3131  0.5236
10553SOL    HW243719   2.292   0.975   0.777 -1.9892  0.3580 -0.8787
10554SOL     OW43720   9.215   9.891   9.709 -0.5478 -0.3221  0.5080
10554SOL    HW143721   9.221   9.889   9.609  1.3004  2.3691  0.4859
10554SOL    HW243722   9.119   9.892   9.737 -1.1009  1.1675 -1.3435
10555SOL     OW43723   5.252   9.088   8.372  0.3428  0.5601  0.9146
10555SOL    HW143724   5.284   9.175   8.334  0.3756  0.8810  1.6715
10555SOL    HW243725   5.202   9.038   8.301  0.9742  0.8510  0.2541
10556SOL     OW43726   2.117   0.019   8.895 -0.5624  0.0274  0.1837
10556SOL    HW143727   2.124  -0.001   8.797 -0.6973  0.8945 -0.0089
10556SOL    HW243728   2.021   0.024   8.922 -0.5410 -2.2897  0.8107
10557SOL     OW43729   1.959   6.705   9.662 -0.3130 -0.5002  1.1004
10557SOL    HW143730   1.929   6.777   9.600  1.5830  0.0617  0.7881
10557SOL    HW243731   1.981   6.623   9.609  0.2491 -0.3799  1.1452
10558SOL     OW43732   5.023   1.986   6.972 -0.0082 -0.1780 -0.3645
10558SOL    HW143733   4.970   1.929   6.909 -0.7559  0.6417 -0.4810
10558SOL    HW243734   4.998   2.082   6.960  1.3880  0.1985 -0.2919
10559SOL     OW43735   9.246   0.160   9.742  0.1133 -0.1657  0.2137
10559SOL    HW143736   9.212   0.066   9.742  0.4196 -0.2761  0.3938
10559SOL    HW243737   9.342   0.161   9.770 -0.5007  0.4177  2.3814
10560SOL     OW43738   4.751   2.180   1.599  0.3686 -0.1824  0.3023
10560SOL    HW143739   4.655   2.182   1.573  0.5685 -0.0567 -0.4344
10560SOL    HW243740   4.778   2.270   1.634  1.0954  0.8380 -2.7293
10561SOL     OW43741   2.603   7.624   3.368 -0.1428  0.1018 -0.5924
10561SOL    HW143742   2.701   7.609   3.355 -0.2531 -0.5877 -0.6117
10561SOL    HW243743   2.589   7.693   3.439  0.3639  0.4319 -0.8138
10562SOL     OW43744   4.058   8.336   5.524 -0.0524 -0.4451  0.5385
10562SOL    HW143745   4.121   8.288   5.585 -0.4184 -2.2156 -0.4515
10562SOL    HW243746   3.968   8.293   5.528 -0.6208  0.7010  0.2778
10563SOL     OW43747   3.055   9.718   9.152 -0.5108  0.0029  0.5127
10563SOL    HW143748   2.968   9.713   9.201  0.5228 -0.0799  2.3921
10563SOL    HW243749   3.130   9.713   9.217  0.9164  0.1986 -1.0777
10564SOL     OW43750   6.708   1.680   9.695  0.2769 -0.3471 -0.0677
10564SOL    HW143751   6.752   1.671   9.606  0.9293  0.7675  0.1308
10564SOL    HW243752   6.672   1.591   9.723  0.7801 -0.8820 -1.0720
10565SOL     OW43753   6.913   9.284   8.596  0.1412 -0.0704 -0.1558
10565SOL    HW143754   6.962   9.256   8.679  0.8944 -0.6394 -0.7811
10565SOL    HW243755   6.902   9.383   8.596  0.0919 -0.0682  0.6509
10566SOL     OW43756   1.524   6.915   6.698 -0.4002 -0.0754 -0.1263
10566SOL    HW143757   1.483   6.918   6.607 -0.8568  0.6321  0.1018
10566SOL    HW243758   1.452   6.919   6.767 -0.0432 -0.4388  0.2662
10567SOL     OW43759   6.765   7.036   7.885  0.1483 -0.1808  0.0509
10567SOL    HW143760   6.741   7.130   7.860  0.1025  0.1559  1.3262
10567SOL    HW243761   6.812   7.036   7.973 -0.9786 -1.4685  0.6671
10568SOL     OW43762   0.501   9.919   8.414 -0.4862  0.0447  0.1041
10568SOL    HW143763   0.575   9.975   8.450 -0.9011  0.4749  0.2872
10568SOL    HW243764   0.440   9.892   8.488 -0.3835 -0.5182 -0.0090
10569SOL     OW43765   0.779   6.882   7.211 -0.4703  0.5309 -0.0593
10569SOL    HW143766   0.782   6.925   7.301  1.1674  0.1158  0.1005
10569SOL    HW243767   0.730   6.794   7.218  1.5183 -0.5223  0.8826
10570SOL     OW43768   9.754   0.670   5.392  0.3866 -0.0349 -0.4166
10570SOL    HW143769   9.814   0.679   5.471 -0.8127 -1.5445  0.6813
10570SOL    HW243770   9.693   0.749   5.386 -0.4542 -0.5739  0.9701
10571SOL     OW43771   1.201   9.287   9.458  0.6252 -0.4631  0.3086
10571SOL    HW143772   1.237   9.205   9.501  0.2551 -0.1874  1.1517
10571SOL    HW243773   1.109   9.306   9.492  1.5255  1.5071  1.7443
10572SOL     OW43774   3.912   0.087   8.672 -0.2198 -0.3489 -0.6229
10572SOL    HW143775   3.947  -0.001   8.637  0.8841 -0.9174  1.7978
10572SOL    HW243776   3.988   0.150   8.686 -0.6645 -0.0678  0.5571
10573SOL     OW43777   0.470   8.321   1.643 -0.0797 -0.2342  0.1713
10573SOL    HW143778   0.432   8.233   1.612 -2.6781  1.4472 -1.5748
10573SOL    HW243779   0.520   8.363   1.567  0.6578  0.0915  0.8357
10574SOL     OW43780   1.938   6.131   8.728 -0.1881 -0.0671  0.2098
10574SOL    HW143781   1.883   6.059   8.687 -1.2122 -0.1058  1.6278
10574SOL    HW243782   2.023   6.142   8.676 -0.1227 -2.1223 -0.1437
10575SOL     OW43783   4.628   7.259   2.049  0.3258 -0.8104  0.3009
10575SOL    HW143784   4.638   7.167   2.087 -1.9542 -1.5168 -0.6599
10575SOL    HW243785   4.577   7.253   1.963  0.4023  1.3400  0.0792
10576SOL     OW43786   2.295   1.845   9.798  0.0517  0.2088 -0.2253
10576SOL    HW143787   2.292   1.746   9.810  2.2814  0.0751 -0.5023
10576SOL    HW243788   2.330   1.888   9.881  0.1927  0.6680 -0.5192
10577SOL     OW43789   2.340   5.915   2.728 -0.0897 -0.3287  0.3420
10577SOL    HW143790   2.276   5.940   2.800 -0.6496 -1.3870  0.2187
10577SOL    HW243791   2.303   5.838   2.676  1.9411 -1.9215  1.2038
10578SOL     OW43792   4.642   0.352   1.098 -0.0031 -0.3222  0.0886
10578SOL    HW143793   4.674   0.443   1.072 -0.0383 -0.1845  0.5224
10578SOL    HW243794   4.719   0.293   1.121  0.0376 -0.4930 -0.4812
10579SOL     OW43795   3.512   6.698   9.834  0.4571 -0.4926  0.1895
10579SOL    HW143796   3.466   6.717   9.748 -0.3746  0.3601  0.8116
10579SOL    HW243797   3.521   6.599   9.846 -1.0407 -0.6727 -0.0469
10580SOL     OW43798   2.903   3.007   1.190 -0.3293 -0.0929  0.3481
10580SOL    HW143799   2.999   2.988   1.174 -0.7824 -2.2255  0.0340
10580SOL    HW243800   2.888   3.028   1.286  0.7079  2.0148  0.0767
10581SOL     OW43801   8.846   8.052   8.965  0.6255  0.1922  0.1715
10581SOL    HW143802   8.898   7.966   8.961 -0.8584 -0.6628 -1.5412
10581SOL    HW243803   8.834   8.087   8.872 -0.5666  1.1704  0.6916
10582SOL     OW43804   1.858   6.901   8.672 -0.0500  0.2118  0.2620
10582SOL    HW143805   1.949   6.931   8.645  0.3571 -0.5267  0.7871
10582SOL    HW243806   1.812   6.860   8.594 -0.3332  1.5168 -0.2707
10583SOL     OW43807   6.715   4.713   6.123  0.0043  0.2530 -0.0898
10583SOL    HW143808   6.706   4.624   6.167 -0.5005  0.9781  1.3037
10583SOL    HW243809   6.812   4.737   6.116  0.0168  1.1212  2.6974
10584SOL     OW43810   3.096   2.130   9.754  1.0136 -0.0552  0.0392
10584SOL    HW143811   3.107   2.035   9.725 -0.3727 -0.0917 -0.4128
10584SOL    HW243812   3.061   2.133   9.848  0.0882 -0.0143 -0.3002
10585SOL     OW43813   7.953   8.917   6.141 -0.3925 -0.1163  0.1505
10585SOL    HW143814   8.009   8.926   6.224 -0.9539 -0.6101  0.5827
10585SOL    HW243815   7.943   8.821   6.117  1.0518  0.0876 -1.3834
10586SOL     OW43816   0.633   8.510   8.766  0.2383  0.3726  0.7393
10586SOL    HW143817   0.685   8.438   8.811  1.1832 -0.3028 -1.3602
10586SOL    HW243818   0.694   8.565   8.709 -0.7534  1.8226  1.0404
10587SOL     OW43819   2.395   5.376   4.873  0.3677 -0.9390 -0.2182
10587SOL    HW143820   2.454   5.428   4.811 -1.7952  0.1001 -1.4427
10587SOL    HW243821   2.348   5.305   4.821 -0.0698 -1.2392  0.5924
10588SOL     OW43822   2.372   7.865   8.868 -0.7729  0.0625  0.0743
10588SOL    HW143823   2.356   7.876   8.770 -0.1216 -2.8023 -0.3906
10588SOL    HW243824   2.294   7.817   8.910 -1.2608  1.6699  1.0753
10589SOL     OW43825   0.218   7.239   9.564  0.1941  0.7167 -0.3436
10589SOL    HW143826   0.169   7.169   9.616  3.3037 -0.0621  1.6789
10589SOL    HW243827   0.212   7.218   9.466  0.3748 -1.9494  0.1675
10590SOL     OW43828   4.456   7.994   9.964 -0.3578  0.2281  0.5451
10590SOL    HW143829   4.400   7.942  10.028 -1.7948 -0.2108 -1.0142
10590SOL    HW243830   4.535   7.939   9.937 -0.8603 -0.4134  0.3556
10591SOL     OW43831   0.336   5.327   9.458 -0.1572 -0.0045 -0.4786
10591SOL    HW143832   0.288   5.287   9.536 -2.0756  0.8494 -1.1932
10591SOL    HW243833   0.426   5.358   9.487  0.5422 -2.8425  0.5864
10592SOL     OW43834   2.052   6.086   6.183  0.5201 -0.2523 -0.0608
10592SOL    HW143835   1.996   6.167   6.166  0.1100 -0.4397  0.3569
10592SOL    HW243836   2.004   6.005   6.149  0.3523 -0.4580  0.6451
10593SOL     OW43837   2.176   0.681   9.634  0.4921  0.3445 -0.0867
10593SOL    HW143838   2.263   0.670   9.587  0.0162 -1.2497 -0.6096
10593SOL    HW243839   2.166   0.609   9.703 -0.7666  0.0375 -0.5838
10594SOL     OW43840   3.659   7.102   0.838 -0.0174  0.1778 -0.0489
10594SOL    HW143841   3.747   7.087   0.883  0.3630 -2.0712 -1.4209
10594SOL    HW243842   3.671   7.168   0.764 -0.1956  2.2745  1.7493
10595SOL     OW43843   2.441   6.689   6.750 -0.2043 -0.2548  0.0256
10595SOL    HW143844   2.418   6.749   6.827 -0.2931  0.2143 -0.3600
10595SOL    HW243845   2.501   6.616   6.781  1.6515  1.2536  0.1027
10596SOL     OW43846   1.754   3.508   1.434  0.0297 -0.2593 -0.0589
10596SOL    HW143847   1.672   3.453   1.451  0.9165 -1.4569  0.3540
10596SOL    HW243848   1.780   3.557   1.517 -1.0581  1.2123 -0.5650
10597SOL     OW43849   3.195   6.813   1.059 -0.1890 -0.1412 -0.0587
10597SOL    HW143850   3.242   6.735   1.100  0.5457 -0.8787 -2.2817
10597SOL    HW243851   3.101   6.815   1.093  0.2966 -0.9094  1.4190
10598SOL     OW43852   0.221   9.821   9.948 -0.1237  0.1685 -0.6797
10598SOL    HW143853   0.211   9.918   9.927  0.7728  0.7651  1.5308
10598SOL    HW243854   0.186   9.803  10.040  0.2896 -1.4898 -0.8341
10599SOL     OW43855   4.194   0.125   2.985  0.2256 -0.5804 -0.1984
10599SOL    HW143856   4.159   0.139   3.078 -1.0858 -0.5424 -0.6890
10599SOL    HW243857   4.128   0.159   2.918 -0.1707 -3.2209 -1.2251
10600SOL     OW43858   4.165   6.683   8.206 -0.1567 -0.3300  0.1169
10600SOL    HW143859   4.078   6.656   8.248  0.1465 -0.5305  0.6263
10600SOL    HW243860   4.228   6.715   8.278 -0.1068  0.6304 -0.3476
10601SOL     OW43861   2.794   6.800   4.264 -0.6181 -0.1440  0.0910
10601SOL    HW143862   2.817   6.703   4.260 -1.4731 -0.2818 -2.4879
10601SOL    HW243863   2.862   6.848   4.320 -0.1961 -2.1986  1.4048
10602SOL     OW43864   3.854   0.765   7.509 -0.2767  0.5216 -0.1338
10602SOL    HW143865   3.820   0.860   7.509 -4.9015 -0.9753  2.2070
10602SOL    HW243866   3.892   0.743   7.599  0.5382  0.0534 -0.5899
10603SOL     OW43867   9.947   8.137   2.646  0.1457 -0.3258 -0.0845
10603SOL    HW143868   9.849   8.143   2.625 -0.0007 -0.8421  0.4411
10603SOL    HW243869  10.000   8.147   2.562 -0.3278  0.7299 -0.2681
10604SOL     OW43870   6.569   8.980   4.812 -0.0183 -0.1835 -0.2648
10604SOL    HW143871   6.489   8.920   4.813  0.5522 -0.9697 -0.9384
10604SOL    HW243872   6.604   8.992   4.905 -0.8918  0.1270  0.0208
10605SOL     OW43873   2.847   7.680   8.421 -0.3956 -0.1109 -0.1362
10605SOL    HW143874   2.754   7.709   8.397 -0.2054  0.2892 -0.3989
10605SOL    HW243875   2.912   7.747   8.387 -0.0509 -0.0649  0.5980
10606SOL     OW43876   4.281   8.454   6.121 -0.6185 -0.5182  0.1923
10606SOL    HW143877   4.271   8.532   6.182  1.1733 -0.8332  0.9141
10606SOL    HW243878   4.330   8.381   6.169  0.1026 -1.0600 -1.3533
10607SOL     OW43879   0.273   6.694   9.755  0.1296  0.2070  0.3842
10607SOL    HW143880   0.267   6.697   9.855  2.3442 -2.9010  0.6875
10607SOL    HW243881   0.241   6.604   9.723 -0.9855  1.3384 -1.7576
10608SOL     OW43882   5.993   6.166   4.488  0.6503  0.1503 -0.1642
10608SOL    HW143883   5.968   6.097   4.420  1.0057  0.1025 -0.2488
10608SOL    HW243884   6.039   6.242   4.443  0.4308  0.3550 -0.0454
10609SOL     OW43885   1.098   4.668   1.579  0.1600 -0.1188  0.0533
10609SOL    HW143886   1.129   4.635   1.490 -0.6550 -0.3489 -0.1508
10609SOL    HW243887   1.169   4.651   1.648  0.3769 -0.8845 -0.3547
10610SOL     OW43888   1.338   4.034   5.585 -0.0412 -0.0423  0.1376
10610SOL    HW143889   1.289   4.086   5.515  0.4991  0.5539  0.2071
10610SOL    HW243890   1.296   3.943   5.594 -1.5465  0.6817  0.6330
10611SOL     OW43891   1.817   0.249   9.455 -0.0430 -0.2625  0.3973
10611SOL    HW143892   1.909   0.216   9.475  0.2666 -0.2619 -0.9416
10611SOL    HW243893   1.758   0.173   9.427 -0.0491 -0.0703 -0.1307
10612SOL     OW43894   7.947   9.463   6.651  0.1539  0.3624 -0.1037
10612SOL    HW143895   7.933   9.367   6.629 -1.9879  0.3725  1.1494
10612SOL    HW243896   7.869   9.517   6.619  0.0116  1.2643  1.7291
10613SOL     OW43897   3.225   7.713   2.827 -0.0078  0.0852  0.2371
10613SOL    HW143898   3.176   7.627   2.841  0.2932 -0.3619 -1.2419
10613SOL    HW243899   3.293   7.725   2.899 -0.9798 -0.2361  1.2162
10614SOL     OW43900   5.576   2.506   9.859 -0.0687 -0.2299 -1.1256
10614SOL    HW143901   5.483   2.528   9.828 -1.0656 -0.5247  1.5214
10614SOL    HW243902   5.614   2.433   9.802 -2.0694 -1.1903 -1.2628
10615SOL     OW43903   7.990   8.621   6.085  0.1193  0.5198  0.0135
10615SOL    HW143904   7.967   8.608   5.988  0.5457 -1.3369  0.1338
10615SOL    HW243905   7.946   8.549   6.139  0.3360  1.2250  1.1293
10616SOL     OW43906   4.597   0.867   6.918 -0.0951  0.1343  0.2993
10616SOL    HW143907   4.597   0.873   7.018 -0.9947 -0.2104  0.3293
10616SOL    HW243908   4.634   0.951   6.879  0.1750  0.3075  0.9207
10617SOL     OW43909   2.989   7.938   5.252 -0.0074  0.8054  0.2734
10617SOL    HW143910   2.914   7.948   5.188  1.5203 -1.5707 -1.9946
10617SOL    HW243911   2.959   7.885   5.331 -0.2212 -2.0549 -1.6497
10618SOL     OW43912   4.097   7.177   8.410 -0.3273  0.0641 -0.7364
10618SOL    HW143913   4.120   7.214   8.500  1.5816  0.8615 -1.5238
10618SOL    HW243914   4.156   7.099   8.390 -0.2570  0.3313 -1.5863
10619SOL     OW43915   3.739   8.564   9.265 -0.2705  0.1874  0.4827
10619SOL    HW143916   3.678   8.531   9.193  0.6071 -2.2596  0.8349
10619SOL    HW243917   3.833   8.537   9.245  0.1441  0.4627  1.9878
10620SOL     OW43918   4.990   3.981   7.074  0.0521  0.3003  0.7873
10620SOL    HW143919   5.026   3.993   7.166 -0.4886 -0.5256  1.1133
10620SOL    HW243920   4.955   4.068   7.039  0.1256  0.5815  1.4155
10621SOL     OW43921   2.563   4.932   0.487  0.3692 -0.5030  0.1003
10621SOL    HW143922   2.598   4.880   0.565 -0.5074  1.1222  1.6045
10621SOL    HW243923   2.621   4.916   0.407  2.1305 -1.0452  1.4704
10622SOL     OW43924   3.896   6.162   0.142  0.2416  0.1983  0.0710
10622SOL    HW143925   3.942   6.187   0.227 -0.3235  0.7918  0.2039
10622SOL    HW243926   3.954   6.187   0.064  0.6192 -0.0580  0.2658
10623SOL     OW43927   7.274   9.941   7.011  0.6117  0.1227 -0.0967
10623SOL    HW143928   7.310   9.958   6.919 -0.5286 -0.0382 -0.5927
10623SOL    HW243929   7.242  10.027   7.050 -0.7841 -0.0963 -0.6946
10624SOL     OW43930   0.268   9.624   3.405  0.2792  0.3349  0.2647
10624SOL    HW143931   0.171   9.600   3.392  0.9299 -2.2227 -0.1309
10624SOL    HW243932   0.322   9.540   3.411  2.2723  1.7298  2.2661
10625SOL     OW43933   0.068   7.151   5.663 -0.1486  0.1608 -0.6139
10625SOL    HW143934   0.168   7.156   5.661 -0.0249 -1.5694  0.6983
10625SOL    HW243935   0.031   7.182   5.575  1.5297  0.8153 -1.0995
10626SOL     OW43936   5.579   4.727   8.174 -0.5384  0.0525 -0.1663
10626SOL    HW143937   5.601   4.632   8.154 -0.6409 -0.0104  0.0238
10626SOL    HW243938   5.655   4.768   8.225 -0.5568  0.0315 -0.1205
10627SOL     OW43939   0.989   8.103   9.357 -0.6398 -0.1755 -0.5174
10627SOL    HW143940   1.032   8.043   9.426 -1.4160 -1.1315 -0.8455
10627SOL    HW243941   0.942   8.178   9.403  2.2821  1.5118 -0.2017
10628SOL     OW43942   2.325   3.680   7.557  0.3110  0.6053 -0.0370
10628SOL    HW143943   2.235   3.696   7.596  0.9058  2.2803  0.6990
10628SOL    HW243944   2.395   3.710   7.622  1.3596  1.6160 -1.6104
10629SOL     OW43945   3.262   5.328   0.051  0.1893  0.4331  0.5895
10629SOL    HW143946   3.166   5.341   0.075  0.2717  0.5319  0.8713
10629SOL    HW243947   3.287   5.390  -0.023 -0.4540 -0.8899 -0.7496
10630SOL     OW43948   4.234   2.529   5.803 -0.3570  0.6537  0.1216
10630SOL    HW143949   4.206   2.588   5.878 -0.3273  1.3182 -0.3822
10630SOL    HW243950   4.154   2.506   5.747 -0.6717 -1.2238  1.3176
10631SOL     OW43951   1.787   8.849   2.595 -0.2511 -0.5217 -0.3196
10631SOL    HW143952   1.715   8.795   2.552 -0.1786 -0.6803 -0.2426
10631SOL    HW243953   1.751   8.939   2.620 -0.0796 -0.1546 -1.4100
10632SOL     OW43954   1.968   9.151   0.054 -0.6412 -0.0959 -0.0774
10632SOL    HW143955   1.877   9.118   0.027 -0.6917  1.7114 -2.2283
10632SOL    HW243956   1.960   9.201   0.140 -1.0279 -3.0803  1.6978
10633SOL     OW43957   8.986   0.568   8.056 -1.0833  0.1971  0.6519
10633SOL    HW143958   9.029   0.574   7.966 -2.5517  2.1324  0.0370
10633SOL    HW243959   9.006   0.651   8.108 -1.2293 -0.3966  1.6742
10634SOL     OW43960   1.065   9.640   4.494  0.1351 -0.3541 -0.3692
10634SOL    HW143961   1.129   9.704   4.453  2.3034 -2.2892 -0.1489
10634SOL    HW243962   1.039   9.570   4.427 -2.9502  1.2196 -0.8961
10635SOL     OW43963   9.729   1.845   1.515 -0.1214 -0.2221 -0.2057
10635SOL    HW143964   9.806   1.884   1.567 -0.5718 -1.4360  1.4392
10635SOL    HW243965   9.726   1.746   1.531 -1.9187 -0.2115 -0.3784
10636SOL     OW43966   1.339   7.996   9.233  0.1205  0.3951  0.1625
10636SOL    HW143967   1.370   8.061   9.302  1.0061  0.3847 -0.2239
10636SOL    HW243968   1.409   7.985   9.163  0.8021 -2.4447  1.2524
10637SOL     OW43969   2.671   8.393   4.148 -0.0439  0.2876  0.2420
10637SOL    HW143970   2.592   8.414   4.206  0.0979  0.5680  0.3382
10637SOL    HW243971   2.679   8.463   4.077 -0.4453 -0.2717 -0.3524
10638SOL     OW43972   2.847   7.748   6.637  0.0260 -0.1593  0.1838
10638SOL    HW143973   2.801   7.688   6.702  0.7228 -1.7259 -0.7374
10638SOL    HW243974   2.780   7.799   6.584 -0.5853 -0.8510  0.2969
10639SOL     OW43975   6.693   7.717   8.202 -0.5901 -0.0635 -0.1846
10639SOL    HW143976   6.729   7.798   8.248 -2.9271  0.4783  0.7662
10639SOL    HW243977   6.710   7.636   8.258  1.5950 -0.2465 -1.0547
10640SOL     OW43978   1.917   0.478   6.636 -0.2645  0.1289 -0.0529
10640SOL    HW143979   1.876   0.413   6.701 -1.0738  0.4278 -0.2591
10640SOL    HW243980   1.873   0.468   6.547 -0.9460  1.5009  0.1158
10641SOL     OW43981   1.557   9.460   7.411 -0.3199 -0.1771  0.1069
10641SOL    HW143982   1.577   9.422   7.321 -0.1833 -0.5775  0.2986
10641SOL    HW243983   1.620   9.536   7.430 -2.5694  2.1400 -1.5053
10642SOL     OW43984   2.063   8.031   2.266 -0.3106 -0.5006 -0.2097
10642SOL    HW143985   2.106   8.055   2.353 -0.9474 -1.1714  0.2924
10642SOL    HW243986   2.089   7.937   2.241 -1.7302 -1.0394  0.2668
10643SOL     OW43987   5.339   5.255   1.328  0.0239  0.3355  0.4106
10643SOL    HW143988   5.346   5.332   1.264 -1.6314 -0.1917 -0.4288
10643SOL    HW243989   5.276   5.278   1.402 -0.8722 -0.3852 -0.1172
10644SOL     OW43990   0.219   7.313   8.772 -0.1822 -0.5205  0.0800
10644SOL    HW143991   0.282   7.328   8.695 -0.4425 -0.2715 -0.0853
10644SOL    HW243992   0.133   7.359   8.753 -0.3428 -0.6910  0.4005
10645SOL     OW43993   1.823   8.741   5.983  0.2845  0.0176  0.4192
10645SOL    HW143994   1.788   8.825   6.024 -1.7953 -0.0230 -1.2099
10645SOL    HW243995   1.788   8.662   6.032  0.3976  0.0432  0.5415
10646SOL     OW43996   8.064   4.233   7.121 -0.3923  0.2220 -0.2381
10646SOL    HW143997   8.137   4.181   7.077  0.0269  0.9916 -0.4589
10646SOL    HW243998   8.071   4.223   7.220 -0.1771  0.0514 -0.2710
10647SOL     OW43999   2.685   0.840   8.651 -0.3485  0.0022 -0.0561
10647SOL    HW144000   2.725   0.902   8.719  0.5544 -0.7806  0.1362
10647SOL    HW244001   2.591   0.819   8.676  1.0387 -3.1278  2.9740
10648SOL     OW44002   6.377   7.169   6.595 -0.3287  0.9148  0.6547
10648SOL    HW144003   6.348   7.244   6.655  0.0147 -0.6824  2.8850
10648SOL    HW244004   6.304   7.102   6.586  0.5279 -0.1614  1.4696
10649SOL     OW44005   0.903   4.740   9.303  0.0249 -0.1609  0.3534
10649SOL    HW144006   0.884   4.749   9.400  0.3098  1.4118  0.2717
10649SOL    HW244007   0.959   4.817   9.272 -1.9185  0.5289 -1.5304
10650SOL     OW44008   4.726   8.515   8.595 -0.1042  0.1440 -0.3588
10650SOL    HW144009   4.812   8.526   8.546 -0.2218  0.0075 -0.5937
10650SOL    HW244010   4.678   8.434   8.561 -0.1399 -0.0062  0.0462
10651SOL     OW44011   0.369   9.032   9.512  0.0230 -0.3031  0.0225
10651SOL    HW144012   0.338   9.081   9.593 -0.6672 -0.0957 -0.3630
10651SOL    HW244013   0.443   9.082   9.468  0.1538 -0.2343  0.3219
10652SOL     OW44014   4.722   1.987   1.845  0.5614  0.0011  0.5564
10652SOL    HW144015   4.700   2.038   1.929  0.9425  0.3082  0.4673
10652SOL    HW244016   4.705   2.045   1.765  0.8745 -0.0550  0.4506
10653SOL     OW44017   2.294   1.908   5.694  0.1256  0.0505  0.1379
10653SOL    HW144018   2.264   2.003   5.702  0.4721  0.2945 -1.2425
10653SOL    HW244019   2.219   1.846   5.717 -0.2152  0.6622  0.6578
10654SOL     OW44020   3.918   6.012   0.782 -0.2815  0.6540 -0.2457
10654SOL    HW144021   3.868   5.965   0.855 -0.1525  1.1859  0.1882
10654SOL    HW244022   3.970   6.088   0.821  2.4323 -1.0602 -0.3710
10655SOL     OW44023   7.671   5.000   7.102  0.1208 -0.0546 -0.3927
10655SOL    HW144024   7.730   5.079   7.084  1.6309 -0.9753  0.3448
10655SOL    HW244025   7.634   4.965   7.016  1.5895 -0.1543 -1.0002
10656SOL     OW44026   3.854   9.721   7.307 -0.1050 -0.4364 -0.0707
10656SOL    HW144027   3.920   9.767   7.366  0.8950 -0.6127 -1.0351
10656SOL    HW244028   3.818   9.640   7.354  1.0457 -0.8481  0.1068
10657SOL     OW44029   5.451   9.750   2.141 -0.1661  0.3002  0.0681
10657SOL    HW144030   5.406   9.800   2.067  0.3923  0.2856 -0.2806
10657SOL    HW244031   5.534   9.707   2.107 -0.6134 -0.8355  0.3749
10658SOL     OW44032   5.737   4.851   3.420  0.3099  0.2533  0.0964
10658SOL    HW144033   5.694   4.763   3.396  1.1043 -0.0311 -0.3101
10658SOL    HW244034   5.674   4.905   3.475 -0.4319 -0.3111 -0.1932
10659SOL     OW44035   3.209   6.651   2.570  0.5129 -0.0553 -0.2039
10659SOL    HW144036   3.190   6.651   2.668 -2.3820 -0.1284 -0.7075
10659SOL    HW244037   3.216   6.746   2.538 -2.7220  0.0932 -0.6125
10660SOL     OW44038   5.523   8.947   9.474  0.2554  0.3134  0.0486
10660SOL    HW144039   5.591   8.983   9.411  0.5064 -0.8838 -0.3565
10660SOL    HW244040   5.449   8.904   9.423 -0.4894  1.0188  0.5086
10661SOL     OW44041   4.385   2.901   0.813  0.5223 -0.3164 -0.5698
10661SOL    HW144042   4.451   2.836   0.776 -1.7517 -2.5161 -0.8540
10661SOL    HW244043   4.329   2.938   0.739  0.9427  1.0207 -0.2426
10662SOL     OW44044   4.552   3.304   1.424  0.4315  0.3737  0.5911
10662SOL    HW144045   4.584   3.395   1.451 -0.2805  0.9005 -0.3152
10662SOL    HW244046   4.631   3.243   1.414  0.8882  0.8036  1.5028
10663SOL     OW44047   1.105   6.175   5.471 -0.1468  0.1871 -0.1260
10663SOL    HW144048   1.189   6.147   5.425  0.5006  0.4093  0.9004
10663SOL    HW244049   1.058   6.093   5.505 -0.7084  0.0149 -1.3226
10664SOL     OW44050   2.191   7.498   8.731 -0.1879 -0.2517 -0.0293
10664SOL    HW144051   2.155   7.427   8.671 -1.0025  0.3087 -0.2116
10664SOL    HW244052   2.117   7.560   8.759 -0.0939 -1.3181  2.7060
10665SOL     OW44053   1.011   8.117   0.223  0.8173 -0.1279 -0.1004
10665SOL    HW144054   1.070   8.191   0.253 -0.3374  0.7651  0.0217
10665SOL    HW244055   1.008   8.046   0.294 -0.3408  1.0581  1.0842
10666SOL     OW44056   4.146   8.836   3.681 -0.8798 -0.4300  0.5956
10666SOL    HW144057   4.242   8.808   3.675 -0.6644  0.2715  0.7594
10666SOL    HW244058   4.106   8.837   3.589 -0.7459 -0.7839  0.5334
10667SOL     OW44059   3.039   2.169   1.308 -0.2690 -0.4166 -0.4141
10667SOL    HW144060   3.084   2.190   1.221 -1.9945  0.9946 -0.9900
10667SOL    HW244061   3.029   2.253   1.361 -1.1265 -0.9109  0.2164
10668SOL     OW44062   9.059   9.286   7.952 -0.1485  0.4818  0.0368
10668SOL    HW144063   8.994   9.291   7.876 -1.3256  0.3375  0.9965
10668SOL    HW244064   9.008   9.293   8.038  1.0544 -0.3445  0.8224
10669SOL     OW44065   3.249   9.377   7.671 -0.4459 -0.1817  0.0104
10669SOL    HW144066   3.237   9.376   7.770 -3.4146  0.9431 -0.2599
10669SOL    HW244067   3.192   9.306   7.630  0.4263 -0.3477 -0.9241
10670SOL     OW44068   2.738   5.162   0.289  0.5065  0.1984 -0.3910
10670SOL    HW144069   2.671   5.175   0.216 -0.0414 -2.2606 -0.3857
10670SOL    HW244070   2.696   5.180   0.377 -0.3599 -1.8592 -0.3474
10671SOL     OW44071   3.749   7.115   4.244 -0.2827 -0.0335 -0.2298
10671SOL    HW144072   3.836   7.077   4.273 -0.9180  0.3238  2.1932
10671SOL    HW244073   3.759   7.155   4.152  1.2954 -2.6982 -1.2622
10672SOL     OW44074   4.058   7.062   9.012 -0.2039  0.7550  0.2882
10672SOL    HW144075   4.083   7.159   9.009  0.0342  0.7160  0.9992
10672SOL    HW244076   4.030   7.032   8.920 -1.2301  1.7486  0.2773
10673SOL     OW44077   4.221   6.980   5.398  0.1446 -0.6209  0.0580
10673SOL    HW144078   4.230   6.957   5.495  1.0422 -0.6334 -0.0219
10673SOL    HW244079   4.195   7.076   5.389  2.4526  0.0575  0.2821
10674SOL     OW44080   3.725   0.894   9.459  0.0634 -0.4081 -0.1630
10674SOL    HW144081   3.798   0.954   9.423 -1.1268  1.3829  0.3346
10674SOL    HW244082   3.721   0.904   9.558 -0.5662 -0.8402 -0.1485
10675SOL     OW44083   2.962   0.694   0.306  0.4441  0.9392 -0.6404
10675SOL    HW144084   3.040   0.756   0.313  0.9397  0.3934 -1.1203
10675SOL    HW244085   2.996   0.600   0.298 -0.2691  0.6877 -0.7442
10676SOL     OW44086   4.428   0.860   2.585 -0.3427 -0.0954 -0.1393
10676SOL    HW144087   4.401   0.820   2.497 -1.6012  1.2407 -0.3822
10676SOL    HW244088   4.473   0.948   2.570  0.2781 -0.2977  0.5074
10677SOL     OW44089   2.449   0.757   5.354 -0.2406  0.4374 -0.1309
10677SOL    HW144090   2.402   0.836   5.392 -2.3620 -0.6138 -0.5284
10677SOL    HW244091   2.450   0.764   5.254  2.4094  1.5290 -0.0896
10678SOL     OW44092   0.445   2.246   2.227  0.2692 -0.4270 -0.5813
10678SOL    HW144093   0.538   2.253   2.262 -0.0735 -3.0830  1.0535
10678SOL    HW244094   0.387   2.313   2.274  0.9398 -0.1934 -0.0736
10679SOL     OW44095   5.727   8.815   6.116 -0.4527 -0.4052 -0.2729
10679SOL    HW144096   5.738   8.777   6.024 -1.2807  0.3470 -0.7011
10679SOL    HW244097   5.815   8.847   6.150 -0.1315 -0.7335 -0.7940
10680SOL     OW44098   3.393   9.463   1.983 -0.4237  0.4249 -0.2837
10680SOL    HW144099   3.306   9.444   2.029 -0.0196 -0.8662 -0.0249
10680SOL    HW244100   3.440   9.377   1.963 -0.1100  1.0121 -2.1969
10681SOL     OW44101   2.160   8.218   0.511 -0.0666 -0.3699 -0.6489
10681SOL    HW144102   2.071   8.262   0.528 -0.5528 -0.9891 -1.5533
10681SOL    HW244103   2.179   8.220   0.413  0.8603 -0.3647 -0.4667
10682SOL     OW44104   8.743   9.175   4.973  0.1958  0.0729  0.2060
10682SOL    HW144105   8.735   9.203   5.069  1.2144 -0.1183  0.3587
10682SOL    HW244106   8.653   9.176   4.930 -0.0906  1.5168  0.7874
10683SOL     OW44107   2.664   6.811   8.009 -0.6427 -0.6260  0.3779
10683SOL    HW144108   2.583   6.806   8.067 -1.5592 -0.9148 -0.9013
10683SOL    HW244109   2.723   6.885   8.041 -2.1719  0.6243  0.3741
10684SOL     OW44110   1.927   2.708   1.524 -0.3049  0.5895 -0.3894
10684SOL    HW144111   1.916   2.611   1.504  0.5702 -0.2383  2.8781
10684SOL    HW244112   2.015   2.739   1.487  1.1405 -0.8197  1.7373
10685SOL     OW44113   8.853   3.626   9.868 -0.5236 -0.2936 -0.0697
10685SOL    HW144114   8.763   3.583   9.855 -0.9417  1.1018 -2.1256
10685SOL    HW244115   8.843   3.705   9.927 -0.6122 -0.2874 -0.0917
10686SOL     OW44116   4.137   4.737   2.212 -0.2705  0.2039 -0.8007
10686SOL    HW144117   4.191   4.803   2.264 -0.7655 -0.4221  0.5483
10686SOL    HW244118   4.106   4.664   2.274 -2.2413  0.3013 -1.6523
10687SOL     OW44119   4.270   9.751   2.294 -0.3119 -0.8226 -0.0737
10687SOL    HW144120   4.338   9.819   2.322 -0.8587  0.5864 -2.0121
10687SOL    HW244121   4.313   9.661   2.291  0.9608 -0.2526  0.6066
10688SOL     OW44122   2.250   7.254   1.315 -0.2596 -0.8249  0.2110
10688SOL    HW144123   2.193   7.318   1.367 -0.1882 -0.1569 -0.5371
10688SOL    HW244124   2.232   7.161   1.347 -1.0334 -0.5210  0.6709
10689SOL     OW44125   9.015   5.599   8.126  0.6083 -0.1917  0.0386
10689SOL    HW144126   9.031   5.548   8.211  1.8539 -0.2990 -0.2410
10689SOL    HW244127   9.096   5.655   8.107 -1.2753  2.9705  1.0738
10690SOL     OW44128   0.853   6.811   7.688 -0.0483 -0.1801 -0.0316
10690SOL    HW144129   0.876   6.732   7.631  0.4358 -0.3208  0.3515
10690SOL    HW244130   0.937   6.852   7.724 -0.3300  0.1207  0.2960
10691SOL     OW44131   2.891   0.152   0.127  0.5288 -0.2588  0.0410
10691SOL    HW144132   2.950   0.144   0.207  1.4621 -0.6298 -0.6740
10691SOL    HW244133   2.837   0.235   0.134  2.3208  0.9564 -0.0408
10692SOL     OW44134   4.703   5.780   9.748  0.2647  0.0553 -0.2856
10692SOL    HW144135   4.683   5.803   9.843 -2.2557 -0.4839 -0.6530
10692SOL    HW244136   4.696   5.862   9.691  5.4942  1.2016  0.4517
10693SOL     OW44137   2.578   9.983   7.616  0.5922 -0.2851 -0.5049
10693SOL    HW144138   2.493   9.932   7.604 -0.1370  0.7222  0.3954
10693SOL    HW244139   2.577  10.064   7.558  0.3759  0.4208  0.4707
10694SOL     OW44140   1.280   7.544   0.358 -0.7814 -0.2279  0.1796
10694SOL    HW144141   1.261   7.582   0.268 -0.9472  0.7494  0.6258
10694SOL    HW244142   1.374   7.566   0.384 -0.3692 -1.4507 -0.2160
10695SOL     OW44143   8.754   2.961   8.201  0.2456 -0.0526  0.3293
10695SOL    HW144144   8.798   2.921   8.282 -0.9254  1.0755  1.5490
10695SOL    HW244145   8.662   2.992   8.226 -0.0464  0.4889 -1.4052
10696SOL     OW44146   1.939   3.965   9.973  0.2146 -0.7526 -0.2070
10696SOL    HW144147   1.988   4.052   9.984  0.8146 -1.0489 -0.4919
10696SOL    HW244148   1.904   3.936  10.062 -0.3122 -0.0334 -0.1739
10697SOL     OW44149   3.419   1.239   3.968 -0.4703  0.0710  0.3795
10697SOL    HW144150   3.497   1.213   3.910  0.7042  1.6672  1.2289
10697SOL    HW244151   3.346   1.172   3.955 -0.6902  0.9703 -3.8057
10698SOL     OW44152   8.969   0.682   2.554 -0.4869  0.2937 -0.4271
10698SOL    HW144153   8.995   0.604   2.499  0.6786  1.2546 -1.2548
10698SOL    HW244154   8.871   0.699   2.543 -0.2841  0.4264 -2.1491
10699SOL     OW44155   2.361   0.183   0.033  1.0962 -0.1859  0.1069
10699SOL    HW144156   2.366   0.230  -0.055 -1.4891  1.6378  0.8819
10699SOL    HW244157   2.412   0.234   0.101  0.7606 -0.0865  0.2856
10700SOL     OW44158   2.982   5.234   6.552  0.4584  0.4477  0.4671
10700SOL    HW144159   2.926   5.313   6.579  0.9643  0.5689  1.1711
10700SOL    HW244160   2.996   5.236   6.453 -0.8544  0.3700  0.2689
10701SOL     OW44161   7.055   0.243   8.986 -0.0284  0.0805  0.2012
10701SOL    HW144162   7.060   0.212   8.892  1.6258  0.9661 -0.0162
10701SOL    HW244163   6.959   0.247   9.015 -0.6097  0.7921 -1.7780
10702SOL     OW44164   1.280   4.150   7.696 -0.0146 -0.6640  0.1644
10702SOL    HW144165   1.351   4.218   7.711 -0.4410 -0.4400  1.1627
10702SOL    HW244166   1.215   4.151   7.772 -1.9054  0.1241 -1.4146
10703SOL     OW44167   6.023   8.674   7.366 -0.1797  0.1742 -0.6129
10703SOL    HW144168   5.961   8.598   7.385  1.1972 -0.5565  1.0423
10703SOL    HW244169   6.071   8.658   7.280 -0.4349 -0.4852 -0.6306
10704SOL     OW44170   4.307   8.017   0.734  0.4359  0.2511  0.3337
10704SOL    HW144171   4.253   8.101   0.730  0.0065 -0.1121 -3.9474
10704SOL    HW244172   4.400   8.035   0.703  1.3714 -0.1752  2.7939
10705SOL     OW44173   0.609   2.440   1.469 -0.5516 -0.1656  0.2152
10705SOL    HW144174   0.552   2.519   1.492  1.1239  0.6731  1.5638
10705SOL    HW244175   0.609   2.375   1.545 -0.4008 -0.5841 -0.1387
10706SOL     OW44176   3.408   2.020   1.230  0.3955  0.1437 -0.5174
10706SOL    HW144177   3.455   1.978   1.308  0.2740 -1.1518 -1.1199
10706SOL    HW244178   3.328   1.965   1.207 -0.1522  1.1053 -0.9007
10707SOL     OW44179   0.092   5.440   4.138  0.0787 -0.1647  0.3841
10707SOL    HW144180   0.162   5.490   4.188 -1.9294  0.9963  2.1119
10707SOL    HW244181   0.077   5.351   4.181  1.8173 -1.2158 -1.1354
10708SOL     OW44182   8.291   4.446   4.111  0.3237 -0.1493  0.0771
10708SOL    HW144183   8.207   4.495   4.090  0.9027  1.1535  0.7110
10708SOL    HW244184   8.273   4.374   4.177 -0.0076  1.2610  1.5603
10709SOL     OW44185   1.095   7.616   6.692 -0.5671  0.2894  0.1322
10709SOL    HW144186   1.033   7.556   6.641 -0.0516 -0.6534  0.6017
10709SOL    HW244187   1.054   7.638   6.781 -0.2253 -0.3876  0.4705
10710SOL     OW44188   2.815   9.605   5.586 -0.9716  0.1000 -0.1699
10710SOL    HW144189   2.724   9.648   5.594  0.4213  3.1045  0.2938
10710SOL    HW244190   2.871   9.633   5.664  0.0880 -2.5169  0.0565
10711SOL     OW44191   2.254   8.514   1.352 -0.3360 -0.1826 -0.3245
10711SOL    HW144192   2.302   8.602   1.361  1.0862 -0.9426 -0.3512
10711SOL    HW244193   2.302   8.444   1.405 -1.8383 -0.8066  0.2288
10712SOL     OW44194   1.149   3.202   0.867 -0.5473  0.5175 -0.4929
10712SOL    HW144195   1.074   3.137   0.857 -0.3587  0.3694 -1.0008
10712SOL    HW244196   1.229   3.155   0.904 -0.8855  0.8064  0.5960
10713SOL     OW44197   6.746   8.991   0.785  0.2727  0.3262 -0.0325
10713SOL    HW144198   6.656   8.995   0.829  0.7761 -0.9249  1.1449
10713SOL    HW244199   6.734   8.968   0.688 -0.7112  0.9146 -0.0597
10714SOL     OW44200   0.770   8.294   8.879  0.1922 -0.4267 -0.5180
10714SOL    HW144201   0.859   8.331   8.854 -0.0714  0.0645 -0.7476
10714SOL    HW244202   0.775   8.250   8.968  0.3576  0.7688  0.0737
10715SOL     OW44203   1.520   4.115   8.053  0.2930  0.0179 -0.0696
10715SOL    HW144204   1.531   4.143   7.958 -1.1897  0.7014 -0.0634
10715SOL    HW244205   1.505   4.196   8.110  2.0796 -0.3077  0.8971
10716SOL     OW44206   9.695   9.515   7.432  0.0451  0.4785 -0.3105
10716SOL    HW144207   9.690   9.502   7.333  0.0396  1.1514 -0.4008
10716SOL    HW244208   9.781   9.560   7.455  1.1959 -1.8800  0.2406
10717SOL     OW44209   0.841   1.443   9.802 -0.4856  0.7623  0.1533
10717SOL    HW144210   0.803   1.459   9.893 -1.0924  0.4021 -0.0350
10717SOL    HW244211   0.857   1.345   9.790 -0.3224  0.8201 -0.1003
10718SOL     OW44212   2.023   6.563   9.417 -0.1892  0.4637 -0.0146
10718SOL    HW144213   2.031   6.583   9.320 -0.5358 -1.0414 -0.3613
10718SOL    HW244214   2.114   6.542   9.454 -0.0078  1.3808  0.0730
10719SOL     OW44215   8.133   9.102   8.115 -0.2979  0.8668  0.1554
10719SOL    HW144216   8.132   9.179   8.179 -0.8868  1.1807 -0.2193
10719SOL    HW244217   8.226   9.068   8.105  0.1767  2.3767 -0.6566
10720SOL     OW44218   0.907   8.551   7.550 -0.3001 -0.7086  0.5512
10720SOL    HW144219   0.991   8.537   7.601 -0.3920  1.6354  1.4081
10720SOL    HW244220   0.922   8.529   7.454  2.3739  3.1004 -0.0253
10721SOL     OW44221   6.157   5.259   0.831 -0.0812  0.3006 -0.0806
10721SOL    HW144222   6.159   5.330   0.902 -1.5561  0.5499 -0.2637
10721SOL    HW244223   6.209   5.290   0.751  1.8928 -0.1298  0.9960
10722SOL     OW44224   8.027   4.173   9.215 -0.4224 -0.2578  0.3258
10722SOL    HW144225   8.012   4.270   9.195 -1.9285 -0.4275  0.6117
10722SOL    HW244226   8.042   4.123   9.130 -0.0886  0.1419  0.1483
10723SOL     OW44227   3.411   8.883   8.693  0.1077 -0.0338 -0.7317
10723SOL    HW144228   3.365   8.969   8.673  0.7328  0.3498 -0.5334
10723SOL    HW244229   3.433   8.835   8.608  0.6388  0.4706 -0.8794
10724SOL     OW44230   6.050   8.125   9.468  0.4313  0.0502 -0.1739
10724SOL    HW144231   6.056   8.178   9.553  0.1259  0.7797 -0.5999
10724SOL    HW244232   6.055   8.028   9.489  0.4052  0.2280  0.6765
10725SOL     OW44233   2.371   5.431   9.494  0.2748  0.4179  0.2051
10725SOL    HW144234   2.339   5.503   9.556  1.3514  1.2446 -0.1881
10725SOL    HW244235   2.432   5.369   9.543  0.8007  0.8331  0.0722
10726SOL     OW44236   2.280   5.265   8.686 -0.0539 -0.2731  0.3895
10726SOL    HW144237   2.340   5.302   8.757  0.3440 -0.4333  0.1413
10726SOL    HW244238   2.305   5.170   8.668 -0.1912 -0.2505  0.0760
10727SOL     OW44239   4.509   7.233   9.583  0.7008 -0.1162  0.1892
10727SOL    HW144240   4.496   7.329   9.558  2.3360 -0.3924 -1.8603
10727SOL    HW244241   4.420   7.191   9.604 -0.2490  1.2948 -0.9489
10728SOL     OW44242   1.856   7.788   8.020 -0.2643  0.1600 -0.4915
10728SOL    HW144243   1.942   7.838   8.027 -0.1507 -0.1895  0.7615
10728SOL    HW244244   1.832   7.749   8.109 -1.4011 -0.2795 -0.9689
10729SOL     OW44245   4.657   9.815   9.109 -0.4316 -0.2607 -0.2808
10729SOL    HW144246   4.738   9.832   9.053 -1.7134  1.9974 -1.5073
10729SOL    HW244247   4.668   9.858   9.198 -0.6772  0.9785 -0.8282
10730SOL     OW44248   1.360   0.306   2.685 -0.0378  0.2269 -0.0197
10730SOL    HW144249   1.449   0.295   2.730 -0.7983  1.2708  1.8163
10730SOL    HW244250   1.289   0.318   2.755 -1.4770  0.4165 -1.4874
10731SOL     OW44251   6.652   0.668   1.720  0.2253 -0.1358  0.1396
10731SOL    HW144252   6.565   0.658   1.768  1.1201  0.7183  1.9994
10731SOL    HW244253   6.645   0.744   1.655  0.1542  1.1995  1.6731
10732SOL     OW44254   4.813   6.062   9.039 -0.4269  0.6103  0.5112
10732SOL    HW144255   4.837   6.142   8.985  0.0503 -0.4164 -0.8175
10732SOL    HW244256   4.894   6.030   9.089 -0.3272  0.2532  0.1199
10733SOL     OW44257   9.920   8.131   5.616 -0.4882 -0.4095 -0.1272
10733SOL    HW144258   9.899   8.100   5.709  0.2973  2.0876  0.9207
10733SOL    HW244259   9.889   8.062   5.551 -0.5312 -2.4869  1.9994
10734SOL     OW44260   4.152   5.812   6.044  0.3330 -0.0102  0.1119
10734SOL    HW144261   4.138   5.750   6.122  1.3520 -1.3383 -0.7366
10734SOL    HW244262   4.181   5.759   5.965 -1.4941  1.2350 -1.4119
10735SOL     OW44263   8.391   8.906   9.524 -0.1115  0.5480 -0.1547
10735SOL    HW144264   8.450   8.922   9.603  0.2689 -1.2841 -0.0541
10735SOL    HW244265   8.447   8.885   9.444 -0.5622  0.3755 -0.4280
10736SOL     OW44266   0.799   8.214   2.934 -0.4957  0.3773  0.1373
10736SOL    HW144267   0.745   8.254   2.860 -1.5346 -1.2091  0.0065
10736SOL    HW244268   0.772   8.256   3.021 -1.8967 -0.3100  0.0590
10737SOL     OW44269   0.096   1.459   3.200 -0.2175  0.3079 -1.0323
10737SOL    HW144270   0.151   1.418   3.273  0.5876 -0.2052 -1.9186
10737SOL    HW244271   0.044   1.388   3.154  0.2391  0.4582 -1.7782
10738SOL     OW44272   5.490   6.905   8.149 -0.5782  0.3241 -0.0011
10738SOL    HW144273   5.498   6.981   8.084 -2.6973  1.0549  0.5607
10738SOL    HW244274   5.397   6.901   8.185  0.4617 -0.2698  2.7624
10739SOL     OW44275   4.367   9.507   6.895 -0.1394 -0.4838 -0.5030
10739SOL    HW144276   4.291   9.503   6.830 -0.5320  0.0097 -0.0744
10739SOL    HW244277   4.350   9.578   6.962  1.5487  0.8852 -1.4760
10740SOL     OW44278   5.627   8.951   1.017 -0.1722 -0.5556  0.3849
10740SOL    HW144279   5.701   9.009   0.984 -1.8451  1.6633  0.4682
10740SOL    HW244280   5.655   8.908   1.104  1.0000  0.2599  0.4200
10741SOL     OW44281   3.819   1.060   9.037 -0.2766  0.0078  0.5497
10741SOL    HW144282   3.793   1.148   8.996 -0.6932  0.5904  2.0228
10741SOL    HW244283   3.749   0.992   9.017 -0.9709  0.5436  1.0914
10742SOL     OW44284   4.014   2.316   8.971 -0.3853  0.5772 -0.2138
10742SOL    HW144285   3.932   2.268   9.004 -0.7712  0.2111 -1.6612
10742SOL    HW244286   4.066   2.350   9.049 -1.1204 -0.5194  0.7758
10743SOL     OW44287   3.215   6.367   3.143 -0.2301  0.5375 -0.5564
10743SOL    HW144288   3.271   6.350   3.224  1.8659  0.5281 -1.9817
10743SOL    HW244289   3.133   6.417   3.170 -1.3514 -2.5434  2.1142
10744SOL     OW44290   5.235   5.491   4.667  0.1752  0.0193  0.2667
10744SOL    HW144291   5.152   5.546   4.663  0.4784  0.7997  3.6457
10744SOL    HW244292   5.310   5.543   4.625 -0.4626  0.3855 -0.4382
10745SOL     OW44293   2.972   2.140   4.257 -0.3331 -0.6815  0.0323
10745SOL    HW144294   2.972   2.200   4.177 -1.6060 -0.2592  0.3352
10745SOL    HW244295   2.952   2.046   4.229 -0.7306 -0.5419 -0.1475
10746SOL     OW44296   5.842   6.084   8.060 -0.3358  0.0036 -0.1794
10746SOL    HW144297   5.745   6.111   8.056  0.0206  1.9262  2.9209
10746SOL    HW244298   5.852   6.004   8.119  0.0812  0.3320  0.1956
10747SOL     OW44299   0.149   5.530   2.983  0.1991  0.1186 -0.1569
10747SOL    HW144300   0.117   5.622   3.008 -1.4789  0.0503 -1.9278
10747SOL    HW244301   0.119   5.464   3.052 -0.1809  0.6401  0.1840
10748SOL     OW44302   1.425   0.465   8.116  0.0125  0.2617  0.7632
10748SOL    HW144303   1.474   0.544   8.080  0.5681  0.2114  1.3918
10748SOL    HW244304   1.437   0.387   8.053  1.0793  0.1407  1.1059
10749SOL     OW44305   1.385   6.424   7.153 -0.0337 -0.1978 -0.4028
10749SOL    HW144306   1.351   6.465   7.237  0.1248  0.4516 -0.6509
10749SOL    HW244307   1.426   6.495   7.095 -1.3590 -0.4179 -1.6252
10750SOL     OW44308   5.178   4.935   7.769  0.3392 -0.2435 -0.0375
10750SOL    HW144309   5.246   4.894   7.829  0.1109 -0.5188  0.0363
10750SOL    HW244310   5.087   4.927   7.811 -0.0395 -1.8033 -1.1113
10751SOL     OW44311   5.110   9.956   0.462 -0.1037  0.2060  0.5420
10751SOL    HW144312   5.181  10.025   0.442 -0.7016  1.1548  1.6645
10751SOL    HW244313   5.138   9.902   0.541 -0.3334  0.1373  0.5751
10752SOL     OW44314   3.622   0.597   6.127 -0.6065 -0.5125  0.1657
10752SOL    HW144315   3.687   0.617   6.200 -0.0493  1.3280 -0.7855
10752SOL    HW244316   3.539   0.558   6.166  0.4813 -1.5052  1.5491
10753SOL     OW44317   7.245   0.502   9.586 -0.0808 -0.4650 -0.0234
10753SOL    HW144318   7.226   0.509   9.684 -0.6389 -0.0868 -0.1508
10753SOL    HW244319   7.201   0.579   9.538 -0.7332 -1.2405 -0.6957
10754SOL     OW44320   0.985   0.607   1.371 -0.0491  0.2736  0.5830
10754SOL    HW144321   0.977   0.608   1.271 -0.3311  1.3557  0.6134
10754SOL    HW244322   0.950   0.520   1.406  1.3073 -0.6664 -0.3643
10755SOL     OW44323   1.107   7.976   9.566  0.4865  0.0926  0.4501
10755SOL    HW144324   1.143   7.899   9.513  1.9880  0.7564  0.4857
10755SOL    HW244325   1.024   7.948   9.613  0.2778 -1.1147 -0.6093
10756SOL     OW44326   3.076   3.232   9.701  0.9024 -0.1676 -0.0089
10756SOL    HW144327   2.995   3.238   9.759  1.7083 -0.3018  1.1294
10756SOL    HW244328   3.101   3.137   9.688  0.7951 -0.1333 -0.4881
10757SOL     OW44329   5.694   9.637   5.536  0.3899  0.2657 -0.3260
10757SOL    HW144330   5.665   9.676   5.449 -0.8614  1.4478  0.6006
10757SOL    HW244331   5.640   9.555   5.555 -0.5075  0.9539  0.1233
10758SOL     OW44332   3.884   7.082   2.814  0.2388  0.1186  0.5360
10758SOL    HW144333   3.800   7.027   2.810  1.1014 -1.1907 -0.0593
10758SOL    HW244334   3.932   7.074   2.727  0.9873  0.8607  0.8831
10759SOL     OW44335   2.796   8.282   3.518 -0.3734  0.0703  0.4367
10759SOL    HW144336   2.863   8.213   3.549 -0.4441 -0.1669  0.0617
10759SOL    HW244337   2.823   8.317   3.429 -0.7537 -0.0338  0.2772
10760SOL     OW44338   8.631   8.457   9.334  0.0687 -0.2960  0.2702
10760SOL    HW144339   8.673   8.464   9.424  1.1041 -0.2416 -0.2093
10760SOL    HW244340   8.688   8.506   9.267 -1.3479  0.7447 -0.1911
10761SOL     OW44341   0.650   1.998   8.800 -0.0372 -0.1336 -0.6453
10761SOL    HW144342   0.746   2.017   8.818  0.1967  0.1420 -2.0966
10761SOL    HW244343   0.637   1.899   8.791  0.0730 -0.1858 -0.2105
10762SOL     OW44344   0.020   7.090   8.049 -0.2959 -0.1182 -0.3484
10762SOL    HW144345   0.109   7.137   8.050  0.0059 -0.7121  1.4602
10762SOL    HW244346   0.013   7.036   7.964  0.7812  0.4842 -0.8367
10763SOL     OW44347   8.275   0.533   2.215 -0.0164 -0.6422  0.1829
10763SOL    HW144348   8.210   0.457   2.217 -0.6534 -0.2475 -3.0039
10763SOL    HW244349   8.352   0.510   2.155  0.8590  0.3848  0.8967
10764SOL     OW44350   3.226   0.539   0.878  0.1300 -0.4562 -0.1872
10764SOL    HW144351   3.128   0.543   0.856  0.0695 -2.2750 -0.3219
10764SOL    HW244352   3.279   0.574   0.800 -0.3044 -2.1475 -1.2679
10765SOL     OW44353   3.149   0.463   4.107  0.3167  0.0029  0.4888
10765SOL    HW144354   3.179   0.465   4.202 -0.8793 -2.3891  0.9424
10765SOL    HW244355   3.072   0.526   4.096 -0.0664 -0.3187  1.2920
10766SOL     OW44356   4.980   0.408   2.400 -0.1573 -0.1607  0.5101
10766SOL    HW144357   5.038   0.337   2.359 -0.3682 -0.9461  1.5616
10766SOL    HW244358   5.014   0.498   2.373  2.0561 -0.5852  1.7737
10767SOL     OW44359   4.353   9.445   3.136  0.2303  0.5837 -0.3236
10767SOL    HW144360   4.341   9.394   3.221 -0.0879  1.4665  0.1762
10767SOL    HW244361   4.404   9.390   3.070  1.6449  0.3891  0.9038
10768SOL     OW44362   2.929   9.665   0.132 -0.3585  0.6592  0.3925
10768SOL    HW144363   2.897   9.606   0.058 -0.0498  0.4596  0.4168
10768SOL    HW244364   2.934   9.760   0.099  0.3555  0.4810 -0.0240
10769SOL     OW44365   1.564   8.317   2.996  0.0763 -0.0752  0.5743
10769SOL    HW144366   1.494   8.359   2.939  1.1409 -1.3596 -1.7504
10769SOL    HW244367   1.654   8.352   2.969  0.6960 -1.5890  0.6144
10770SOL     OW44368   2.119   8.897   8.003  0.4794 -0.2379  0.0592
10770SOL    HW144369   2.151   8.804   7.982 -1.3862 -1.5331  2.6767
10770SOL    HW244370   2.058   8.928   7.931 -0.9783 -2.1393  0.4400
10771SOL     OW44371   4.656   0.784   9.011 -0.0847 -0.4533  0.8295
10771SOL    HW144372   4.580   0.745   8.959  0.0031 -0.7602  0.9325
10771SOL    HW244373   4.728   0.715   9.022  1.8424  0.9120 -2.4684
10772SOL     OW44374   8.378   3.932   8.860 -0.2566 -0.1369 -0.5009
10772SOL    HW144375   8.383   3.985   8.775 -0.3879 -0.2534 -0.5824
10772SOL    HW244376   8.395   3.836   8.841 -1.9563 -0.4325 -0.6775
10773SOL     OW44377   3.176   9.680   9.845 -0.4487  0.1495  0.7305
10773SOL    HW144378   3.204   9.656   9.938 -0.2447  3.1265  1.4977
10773SOL    HW244379   3.255   9.675   9.784 -0.6427 -2.1020  0.6222
10774SOL     OW44380   4.499   7.823   7.665  0.7241  0.2751 -0.1814
10774SOL    HW144381   4.489   7.727   7.641  0.4414 -0.1017  1.3784
10774SOL    HW244382   4.566   7.866   7.605  3.1382 -1.6241  1.0591
10775SOL     OW44383   2.349   9.411   2.723  0.0570  0.6302 -0.2727
10775SOL    HW144384   2.441   9.420   2.762  0.2845  3.5605 -1.3718
10775SOL    HW244385   2.355   9.417   2.623 -1.0324 -2.2307 -0.5547
10776SOL     OW44386   9.962   1.623   1.811 -0.1821 -0.1601 -0.2197
10776SOL    HW144387  10.058   1.594   1.813  0.2317  1.0580 -1.4856
10776SOL    HW244388   9.954   1.709   1.761 -1.8884 -0.0178  0.2621
10777SOL     OW44389   0.129   6.419   9.739 -0.3610 -0.1779  0.0124
10777SOL    HW144390   0.088   6.328   9.742  0.5588 -0.5456  1.4748
10777SOL    HW244391   0.145   6.452   9.832 -0.8965  1.5856 -0.4884
10778SOL     OW44392   1.248   5.331   4.198  0.1321  0.1032  0.2728
10778SOL    HW144393   1.299   5.347   4.283 -1.4669 -0.8732  1.4326
10778SOL    HW244394   1.309   5.347   4.120  1.5308  1.3582  1.5735
10779SOL     OW44395   2.615   1.247   9.367  0.0203 -0.0704  0.1646
10779SOL    HW144396   2.598   1.321   9.431  1.3975 -0.8050  1.4136
10779SOL    HW244397   2.613   1.282   9.273 -0.5101  1.2942  0.6780
10780SOL     OW44398   4.344   5.212   3.816 -0.9378 -0.2176  0.2850
10780SOL    HW144399   4.317   5.288   3.876  0.5630  0.0178  0.6851
10780SOL    HW244400   4.369   5.133   3.872 -0.5184 -0.3302 -0.0580
10781SOL     OW44401   2.131   6.263   9.205 -0.3814 -0.2904 -0.0161
10781SOL    HW144402   2.136   6.163   9.215  0.7176 -0.2281  0.1867
10781SOL    HW244403   2.037   6.290   9.189 -0.5641 -1.4499 -0.9884
10782SOL     OW44404   0.672   1.347   4.158  0.0703  0.3185 -0.2751
10782SOL    HW144405   0.605   1.412   4.121  0.9640  0.7152 -1.2228
10782SOL    HW244406   0.638   1.310   4.244 -1.2636  0.6890 -0.6301
10783SOL     OW44407   5.619   2.892   0.864  0.1087 -0.0158  0.3759
10783SOL    HW144408   5.528   2.910   0.828  0.0110  0.8948  1.0672
10783SOL    HW244409   5.686   2.949   0.816  0.3375 -0.7753 -0.2189
10784SOL     OW44410   5.396   7.384   1.886 -0.3285 -0.1625  0.1418
10784SOL    HW144411   5.401   7.325   1.805 -1.3752 -1.0672  0.7270
10784SOL    HW244412   5.301   7.408   1.904  0.0019  0.8924  0.4933
10785SOL     OW44413   9.261   1.321   0.332  0.8495 -0.4103  0.2601
10785SOL    HW144414   9.243   1.406   0.381  0.7325 -0.6167  0.5735
10785SOL    HW244415   9.175   1.281   0.300  0.9471 -0.1035 -0.4058
10786SOL     OW44416   3.726   8.311   4.884  0.2771 -0.4532  0.1397
10786SOL    HW144417   3.727   8.381   4.812  0.7553  0.3935  0.9619
10786SOL    HW244418   3.744   8.221   4.843  0.3149 -0.0159 -0.8263
10787SOL     OW44419   3.192   7.573   8.534 -0.6435 -0.6146 -0.3898
10787SOL    HW144420   3.153   7.492   8.492 -0.4268 -0.7188 -0.3900
10787SOL    HW244421   3.260   7.613   8.472  1.8517 -2.4525  1.0782
10788SOL     OW44422   5.253   1.612   8.112  0.1018 -0.5242  0.4638
10788SOL    HW144423   5.339   1.585   8.069  0.6630  0.2186  1.1246
10788SOL    HW244424   5.189   1.534   8.110  0.8666 -1.1508  0.1987
10789SOL     OW44425   6.925   8.744   0.588  0.1526  0.2101  0.0155
10789SOL    HW144426   6.877   8.672   0.638 -0.3895  1.3898  1.2162
10789SOL    HW244427   7.024   8.730   0.595  0.0392 -0.6884 -0.1648
10790SOL     OW44428   9.849   0.340   2.512 -0.2379  0.3501 -0.3072
10790SOL    HW144429   9.866   0.289   2.597 -1.5747  1.1252  0.4397
10790SOL    HW244430   9.915   0.311   2.443  0.6499 -0.5524  0.8838
10791SOL     OW44431   2.269   0.903   4.416  0.2759  0.0490  0.1596
10791SOL    HW144432   2.297   0.997   4.434 -0.3349  0.2982 -0.1877
10791SOL    HW244433   2.220   0.867   4.495 -0.0201  0.2236  0.0537
10792SOL     OW44434   2.344   9.114   1.222  0.3084 -0.1175 -0.4516
10792SOL    HW144435   2.377   9.029   1.181  0.9796 -0.1761  0.1998
10792SOL    HW244436   2.246   9.106   1.243 -0.2032  0.1562 -2.6574
10793SOL     OW44437   2.381   5.849   9.321  0.2004  0.4248 -0.2331
10793SOL    HW144438   2.445   5.834   9.246 -1.2230 -1.7131 -1.0898
10793SOL    HW244439   2.302   5.900   9.287  0.5935  1.4526  0.3777
10794SOL     OW44440   0.193   2.921   4.143 -0.2857 -0.7519  0.1901
10794SOL    HW144441   0.155   2.843   4.093  0.4076 -0.7913 -0.2694
10794SOL    HW244442   0.172   2.911   4.241 -1.6687 -0.6477 -0.0920
10795SOL     OW44443   0.465   2.948   4.527  0.4030 -0.1344 -0.0780
10795SOL    HW144444   0.422   3.036   4.504  1.9138  0.4165 -0.9159
10795SOL    HW244445   0.433   2.917   4.616  0.2268  1.5359  0.4556
10796SOL     OW44446   1.361   4.074   1.269  0.0049  0.1215 -0.0393
10796SOL    HW144447   1.310   3.988   1.261  2.2587 -1.2314 -0.0716
10796SOL    HW244448   1.446   4.068   1.216  0.1423  2.4234 -0.1461
10797SOL     OW44449   3.062   1.194   4.103 -0.3299 -0.1493  0.0868
10797SOL    HW144450   3.093   1.186   4.198 -1.3973  0.9283  0.5321
10797SOL    HW244451   3.024   1.284   4.088  0.8133  0.0699 -1.6788
10798SOL     OW44452   1.383   2.889   0.523  0.2772 -0.3800 -0.2047
10798SOL    HW144453   1.387   2.790   0.540  2.1990 -0.2291  0.3453
10798SOL    HW244454   1.472   2.929   0.543 -1.3158  1.9297  2.5554
10799SOL     OW44455   2.818   1.089   2.325 -0.2089 -0.1476 -0.2704
10799SOL    HW144456   2.859   1.176   2.296 -2.0182  0.6235 -0.5890
10799SOL    HW244457   2.889   1.031   2.366  1.5751  0.3520 -2.5525
10800SOL     OW44458   1.045   8.026   8.647 -0.5836 -0.5846 -0.2346
10800SOL    HW144459   1.005   8.105   8.692  1.6778 -0.0624  0.9196
10800SOL    HW244460   1.079   7.962   8.715  1.7911 -0.3551 -1.1348
10801SOL     OW44461   3.261   5.619   0.223 -0.3340  0.3487  0.7730
10801SOL    HW144462   3.262   5.651   0.129  1.3942  4.1587  2.0108
10801SOL    HW244463   3.320   5.539   0.232  0.1440  0.4632 -1.1884
10802SOL     OW44464   2.850   0.673   1.823 -0.6736 -0.4270  0.7294
10802SOL    HW144465   2.864   0.650   1.919  0.3155 -2.7085  0.0667
10802SOL    HW244466   2.752   0.683   1.804 -0.8021  1.3687  2.2430
10803SOL     OW44467   3.736   0.264   5.022  0.7591  0.3030 -0.2075
10803SOL    HW144468   3.754   0.171   5.053  0.2777  0.8780  1.9617
10803SOL    HW244469   3.799   0.289   4.949 -0.7505 -2.5777 -2.5838
10804SOL     OW44470   0.073   0.025   2.339  0.2128 -0.1288  0.6903
10804SOL    HW144471   0.106  -0.043   2.405 -0.6398 -1.8837 -0.6671
10804SOL    HW244472   0.047  -0.020   2.254 -0.9582  1.8194 -0.0279
10805SOL     OW44473   3.221   1.467   9.491 -0.6127  0.1938 -0.0611
10805SOL    HW144474   3.132   1.510   9.509 -0.3559  0.4179  0.6857
10805SOL    HW244475   3.269   1.517   9.420 -0.8864  0.3457 -0.1399
10806SOL     OW44476   2.728   9.344   0.711 -0.3175  0.2990 -0.1761
10806SOL    HW144477   2.657   9.348   0.781  0.0795  1.3937  0.1811
10806SOL    HW244478   2.685   9.343   0.620 -0.7976  0.7858  0.0429
10807SOL     OW44479   4.141   4.526   0.646 -0.0577  0.2827 -0.2859
10807SOL    HW144480   4.214   4.518   0.715  1.0690  0.1523 -1.4695
10807SOL    HW244481   4.058   4.560   0.689  1.5475  3.3622  0.5674
10808SOL     OW44482   0.614   8.335   3.554 -0.8606 -0.2098  0.1053
10808SOL    HW144483   0.552   8.310   3.629 -1.9950  1.1928 -0.3373
10808SOL    HW244484   0.677   8.405   3.586 -1.0392  0.0497 -0.1032
10809SOL     OW44485   1.521   0.745   1.377  0.7813  0.2038 -0.3581
10809SOL    HW144486   1.510   0.844   1.365 -2.9827 -0.1761 -0.5538
10809SOL    HW244487   1.478   0.697   1.301  2.5529 -1.6343 -0.2482
10810SOL     OW44488   1.260   2.592   3.707  0.4524 -0.6420  0.3370
10810SOL    HW144489   1.245   2.576   3.805  0.8074 -0.1660  0.4689
10810SOL    HW244490   1.234   2.686   3.684  0.5175 -0.7052  0.0039
10811SOL     OW44491   4.274   0.457   2.119  0.3631  0.1838 -0.1101
10811SOL    HW144492   4.194   0.470   2.177  1.1416  0.1116  1.0021
10811SOL    HW244493   4.268   0.370   2.072  0.4553 -0.4634  1.0588
10812SOL     OW44494   9.237   9.398   3.817 -0.3715 -0.0899 -0.0292
10812SOL    HW144495   9.303   9.439   3.754 -1.8458  0.8308 -1.0117
10812SOL    HW244496   9.241   9.445   3.905 -0.6203  0.8269 -0.4988
10813SOL     OW44497   1.060   3.001   4.547  0.3393  0.2385 -0.5276
10813SOL    HW144498   0.966   2.967   4.539  0.9292 -1.4860 -0.4099
10813SOL    HW244499   1.116   2.961   4.474  1.4266 -0.3595  0.6151
10814SOL     OW44500   2.333   1.769   1.925 -0.1377 -0.9302  0.6001
10814SOL    HW144501   2.242   1.765   1.885  0.0538  0.1573  0.0194
10814SOL    HW244502   2.402   1.753   1.854  0.1189 -2.2507  1.1290
10815SOL     OW44503   1.054   0.206   2.939 -0.4515 -0.7262 -0.0744
10815SOL    HW144504   0.988   0.215   2.865 -1.9793  0.1160  1.3641
10815SOL    HW244505   1.036   0.121   2.989  1.5423 -2.0781 -1.5662
10816SOL     OW44506   9.743   9.065   7.001  0.4234  0.5948  0.0616
10816SOL    HW144507   9.684   9.130   6.953  2.5025  1.8567 -0.9145
10816SOL    HW244508   9.737   9.081   7.100 -1.0091  0.5515 -0.0119
10817SOL     OW44509   6.064   1.005   9.974 -0.1207 -0.0463  0.0484
10817SOL    HW144510   6.066   1.105   9.971  1.1179 -0.0444  0.4990
10817SOL    HW244511   5.974   0.972   9.946 -0.7538  1.2222  0.5673
10818SOL     OW44512   6.182   0.665   2.508  0.1889  0.3193  0.1027
10818SOL    HW144513   6.182   0.722   2.425  3.2172 -0.4009 -0.4707
10818SOL    HW244514   6.138   0.578   2.489  0.8049  0.1892 -0.7487
10819SOL     OW44515   2.643   9.024   0.232  0.0624  0.2543  0.2430
10819SOL    HW144516   2.701   9.021   0.313 -0.7489  2.0392  0.9086
10819SOL    HW244517   2.547   9.030   0.260 -0.2280  0.9086 -0.8496
10820SOL     OW44518   5.128   7.455   4.397  0.1586 -0.2049 -0.3485
10820SOL    HW144519   5.046   7.455   4.340 -0.4072 -0.3893  0.4589
10820SOL    HW244520   5.110   7.406   4.482  0.9805  0.1071  0.0153
10821SOL     OW44521   1.956   1.609   9.467 -0.1984  0.3292 -0.8251
10821SOL    HW144522   1.972   1.654   9.379 -0.1142  0.5762 -0.6866
10821SOL    HW244523   1.879   1.654   9.513  0.3955  0.8619 -0.3315
10822SOL     OW44524   0.844   8.341   4.270  0.0300  0.1887 -0.1108
10822SOL    HW144525   0.891   8.259   4.237  2.4098  1.1778  0.6946
10822SOL    HW244526   0.842   8.410   4.198  0.6376  0.4739  0.1391
10823SOL     OW44527   0.900   9.784   2.185 -0.0537  0.1918 -0.5884
10823SOL    HW144528   0.896   9.705   2.124  0.3744 -1.2354  1.1610
10823SOL    HW244529   0.976   9.843   2.158  0.6551 -0.8609 -0.9436
10824SOL     OW44530   4.738   8.133   7.765  0.0416 -0.4153  0.3181
10824SOL    HW144531   4.682   8.196   7.819  0.1816  0.6546 -0.7492
10824SOL    HW244532   4.802   8.186   7.710 -1.3880 -1.3779 -2.3318
10825SOL     OW44533   5.807   6.604   6.330 -0.2673  0.1561  0.4571
10825SOL    HW144534   5.817   6.529   6.396  1.4061 -0.8223 -0.8674
10825SOL    HW244535   5.722   6.592   6.279 -1.4464  0.7826  2.2195
10826SOL     OW44536   2.407   3.865   8.916 -0.0121 -0.6551  0.0110
10826SOL    HW144537   2.390   3.962   8.933  1.8464 -0.7778  2.9049
10826SOL    HW244538   2.501   3.854   8.883 -1.3508 -1.1703 -3.8970
10827SOL     OW44539   3.120   7.967   0.366 -0.0972 -0.5012 -0.4231
10827SOL    HW144540   3.122   7.951   0.465  0.7780  1.9901  0.0048
10827SOL    HW244541   3.039   8.021   0.343  1.6775  2.2478 -0.4639
10828SOL     OW44542   9.947   1.199   1.010  0.2818  0.3016  0.0573
10828SOL    HW144543   9.853   1.235   1.006 -0.0914 -0.7878 -1.1204
10828SOL    HW244544   9.945   1.100   0.998  1.3708 -0.0580  2.5375
10829SOL     OW44545   6.441   6.215   4.447  0.0882 -0.5110 -0.4964
10829SOL    HW144546   6.394   6.282   4.390  0.9852  0.2198 -0.3984
10829SOL    HW244547   6.537   6.241   4.456 -0.1129 -0.4034  1.6456
10830SOL     OW44548   2.234   7.034   6.522 -0.0806  0.8586  0.4215
10830SOL    HW144549   2.162   7.082   6.572 -0.4628  1.7664 -0.9819
10830SOL    HW244550   2.206   6.939   6.508 -0.4401  0.8743  0.9899
10831SOL     OW44551   1.654   9.095   2.657 -0.5544 -0.1006 -0.3557
10831SOL    HW144552   1.609   9.135   2.737  1.0504 -2.7889  1.9914
10831SOL    HW244553   1.719   9.160   2.618 -0.5819  0.8452  1.1623
10832SOL     OW44554   4.938   5.599   3.077  0.2310 -0.2675 -0.4234
10832SOL    HW144555   5.015   5.662   3.064 -1.1828  1.6235  0.0657
10832SOL    HW244556   4.888   5.624   3.160 -0.2570 -2.1841 -0.1118
10833SOL     OW44557   1.760   9.907   1.590  0.1157  1.0549 -0.1628
10833SOL    HW144558   1.710   9.824   1.562 -0.2801  0.3137  2.6141
10833SOL    HW244559   1.715   9.987   1.550 -1.4066  0.1498 -0.3356
10834SOL     OW44560   5.090   0.976   0.781 -0.1360 -0.4277  0.2893
10834SOL    HW144561   5.118   1.072   0.786 -2.6135  0.3294  0.0037
10834SOL    HW244562   5.094   0.936   0.872 -0.3235  0.3115  0.6279
10835SOL     OW44563   9.747   2.619   0.456 -0.0653  0.4098  0.2007
10835SOL    HW144564   9.776   2.530   0.492  1.6076  1.2885  1.0538
10835SOL    HW244565   9.814   2.689   0.481 -2.1156  2.2051  0.8905
10836SOL     OW44566   5.604   6.343   3.708 -0.0967  0.0248  0.2302
10836SOL    HW144567   5.663   6.347   3.789  0.9711  2.2401 -0.6208
10836SOL    HW244568   5.509   6.354   3.736 -0.0031 -1.9705  1.4482
10837SOL     OW44569   4.137   9.452   6.180 -0.4747 -0.0596 -0.0937
10837SOL    HW144570   4.049   9.410   6.158 -0.8870  0.6623  0.1680
10837SOL    HW244571   4.198   9.382   6.220 -1.0869 -0.4470  0.1646
10838SOL     OW44572   3.126   7.763   4.419 -0.5593  0.2291 -0.3080
10838SOL    HW144573   3.029   7.767   4.439 -0.7362  1.8075 -1.4201
10838SOL    HW244574   3.163   7.855   4.410  1.0202 -0.3441 -0.0587
10839SOL     OW44575   6.334   8.128   3.583 -0.1270 -0.1262 -0.0875
10839SOL    HW144576   6.371   8.111   3.675 -0.3055  2.5151  0.5180
10839SOL    HW244577   6.234   8.130   3.588 -0.1281  0.2801 -0.2962
10840SOL     OW44578   0.530   5.924   3.502  0.0758 -0.5620 -0.2340
10840SOL    HW144579   0.564   5.857   3.436  1.2493  1.9162 -2.2251
10840SOL    HW244580   0.434   5.943   3.484  0.0823 -0.7579 -0.4798
10841SOL     OW44581   4.254   6.478   3.200 -0.5854 -0.4696 -0.3713
10841SOL    HW144582   4.217   6.386   3.196  1.4346 -1.2414 -2.1640
10841SOL    HW244583   4.305   6.497   3.117  2.2077  0.9026  1.5760
10842SOL     OW44584   0.868   3.318   8.792 -0.2242 -0.4865 -0.8225
10842SOL    HW144585   0.927   3.239   8.774  0.9738 -0.1918  1.5845
10842SOL    HW244586   0.924   3.401   8.790 -1.0918  0.0973 -1.2102
10843SOL     OW44587   9.087   9.557   3.207  0.3520 -0.3990 -0.1818
10843SOL    HW144588   9.132   9.607   3.134 -0.0461  0.6436  0.2839
10843SOL    HW244589   9.099   9.606   3.294 -2.0814  0.1520 -0.1317
10844SOL     OW44590   1.482   1.815   0.487 -0.7209 -0.6717  0.1872
10844SOL    HW144591   1.531   1.851   0.566 -0.8536 -2.0990  0.9406
10844SOL    HW244592   1.515   1.722   0.468  1.0808  0.5472 -2.9645
10845SOL     OW44593   2.906   1.426   2.690 -0.4597 -0.1707  0.1918
10845SOL    HW144594   2.826   1.365   2.689 -0.0460 -0.7147 -0.0323
10845SOL    HW244595   2.907   1.477   2.776 -0.2529 -1.2335  0.8279
10846SOL     OW44596   4.366   1.513   5.878  0.0737 -0.4411 -0.1634
10846SOL    HW144597   4.426   1.502   5.957 -1.0957 -1.0320  0.6557
10846SOL    HW244598   4.407   1.579   5.814  1.9919 -1.4667 -0.0380
10847SOL     OW44599   0.072   6.932   1.325 -0.3445  0.5640  0.4805
10847SOL    HW144600   0.131   6.995   1.376  0.4396  0.8876 -0.7744
10847SOL    HW244601   0.098   6.935   1.228  0.1398 -2.1763  0.4851
10848SOL     OW44602   4.331   6.177   1.443 -0.3017  0.2900 -0.2846
10848SOL    HW144603   4.370   6.206   1.356 -1.1254 -2.3843 -1.5736
10848SOL    HW244604   4.403   6.138   1.500 -0.1202  0.2898 -0.5123
10849SOL     OW44605   3.975   9.514   8.879 -1.4084  0.2498  0.6619
10849SOL    HW144606   3.875   9.506   8.878 -1.4283  0.6625 -0.6573
10849SOL    HW244607   4.012   9.489   8.790 -0.3780  0.8269  0.9192
10850SOL     OW44608   3.190   8.818   2.249 -0.9969 -0.0443 -0.6907
10850SOL    HW144609   3.246   8.804   2.167 -0.8911 -1.1424 -0.4334
10850SOL    HW244610   3.174   8.916   2.261  0.3964  0.2467 -1.0833
10851SOL     OW44611   0.568   9.665   2.395  0.2407 -0.4693  0.4600
10851SOL    HW144612   0.603   9.759   2.390 -0.2503 -0.2438  1.0899
10851SOL    HW244613   0.643   9.602   2.416  0.3309 -0.0395  1.4485
10852SOL     OW44614   4.413   6.045   3.791  0.6150  0.2292 -0.2677
10852SOL    HW144615   4.359   6.121   3.827  2.1504  0.9404  0.5855
10852SOL    HW244616   4.499   6.080   3.755  0.9908 -1.0199 -0.5984
10853SOL     OW44617   4.973   6.420   1.793 -0.1411 -0.8764 -0.0592
10853SOL    HW144618   4.889   6.373   1.766  1.2849 -3.0790 -0.7857
10853SOL    HW244619   5.052   6.377   1.748  1.1044  3.2918 -2.0855
10854SOL     OW44620   2.139   9.472   1.155  0.1852  0.7662  0.3150
10854SOL    HW144621   2.239   9.469   1.149  0.1079  0.3788 -0.7484
10854SOL    HW244622   2.108   9.406   1.223  0.6410  0.8047  0.5667
10855SOL     OW44623   6.360   0.648   3.363 -0.5036  0.0795 -0.5857
10855SOL    HW144624   6.379   0.745   3.347  1.4097 -0.0703  0.5721
10855SOL    HW244625   6.345   0.633   3.461 -1.3377 -0.7109 -0.8299
10856SOL     OW44626   3.011   9.219   2.767  0.4582 -0.2477  0.3182
10856SOL    HW144627   2.923   9.266   2.768 -0.2237 -1.4984 -0.0314
10856SOL    HW244628   3.025   9.173   2.855  0.5164 -0.5137  0.1681
10857SOL     OW44629   5.000   0.338   6.154 -0.1419  0.0027  0.0265
10857SOL    HW144630   5.081   0.343   6.213 -1.0476  1.5105  1.1777
10857SOL    HW244631   5.027   0.352   6.059  1.0149 -0.0613  0.3342
10858SOL     OW44632   9.370   7.514   3.782  0.4705 -0.0138  0.2896
10858SOL    HW144633   9.290   7.567   3.752  0.3976  0.4442  1.2888
10858SOL    HW244634   9.442   7.521   3.713  0.1945  0.7758  0.0761
10859SOL     OW44635   0.646   1.990   2.689  0.0176 -0.0669 -0.1532
10859SOL    HW144636   0.709   1.914   2.676 -1.0741 -1.1856  0.9358
10859SOL    HW244637   0.560   1.971   2.642 -1.3279 -0.8932  2.5094
10860SOL     OW44638   4.785   5.484   2.866 -0.3520 -0.2973  0.4432
10860SOL    HW144639   4.831   5.527   2.944  2.3393 -1.2399 -0.5626
10860SOL    HW244640   4.813   5.389   2.860  1.0345  0.2669 -2.8303
10861SOL     OW44641   0.038   7.092   9.719  0.3154  0.4138 -0.0239
10861SOL    HW144642  -0.059   7.112   9.735 -0.0083 -0.2338 -1.1078
10861SOL    HW244643   0.074   7.040   9.797 -0.3888  0.0844  0.0922
10862SOL     OW44644   0.904   2.518   7.431 -0.0342 -0.3243 -0.5655
10862SOL    HW144645   0.913   2.618   7.432 -0.1676 -0.3133  1.5490
10862SOL    HW244646   0.818   2.493   7.386 -0.5017  0.5596 -0.1753
10863SOL     OW44647   2.425   8.962   2.685  0.1245  0.3677 -0.4002
10863SOL    HW144648   2.395   8.907   2.607  0.3258 -1.4808  0.8071
10863SOL    HW244649   2.442   8.903   2.764  0.6083  2.1296  0.8580
10864SOL     OW44650   9.371   0.898   3.514 -0.2013  0.2197  0.2221
10864SOL    HW144651   9.420   0.944   3.588  0.9452 -1.2106  0.3905
10864SOL    HW244652   9.376   0.799   3.528 -0.2277 -0.0606 -1.6007
10865SOL     OW44653   3.219   5.988   0.125  0.3092  0.3437  0.3929
10865SOL    HW144654   3.135   5.943   0.155  0.6222 -0.3470  0.2400
10865SOL    HW244655   3.198   6.081   0.096 -0.7859 -0.4992 -1.6570
10866SOL     OW44656   3.006   0.055   6.015  0.2302  0.2863  0.2937
10866SOL    HW144657   3.024   0.031   5.920  1.4076  0.8050  0.3768
10866SOL    HW244658   2.912   0.086   6.025  0.2914  0.8267 -0.8217
10867SOL     OW44659   4.912   9.138   1.896  0.3330  0.1531  0.9643
10867SOL    HW144660   4.853   9.072   1.850  0.0164  0.1083  1.4312
10867SOL    HW244661   4.891   9.139   1.994  2.5830 -1.4317  1.5006
10868SOL     OW44662   0.482   1.268   0.126 -0.2416  0.3713  0.1724
10868SOL    HW144663   0.472   1.172   0.100 -2.6411  0.1911  1.6320
10868SOL    HW244664   0.529   1.274   0.214 -1.9354  0.4078  1.0885
10869SOL     OW44665   4.515   5.960   8.493  0.5899  0.5037  0.6029
10869SOL    HW144666   4.569   5.938   8.412 -1.8733  0.7982 -1.1730
10869SOL    HW244667   4.503   5.877   8.548  0.6214 -0.1437 -0.3527
10870SOL     OW44668   4.540   0.727   7.571 -0.5325 -0.5025  0.6278
10870SOL    HW144669   4.442   0.710   7.567 -0.5152 -0.3864 -0.5121
10870SOL    HW244670   4.589   0.643   7.547 -0.3719 -0.2151 -0.0462
10871SOL     OW44671   8.173   9.318   4.683  0.6000 -0.3920 -0.6781
10871SOL    HW144672   8.105   9.294   4.752  0.2731 -1.4030 -1.3340
10871SOL    HW244673   8.224   9.398   4.713 -1.5184  0.9735 -0.6346
10872SOL     OW44674   1.190   9.943   0.680  0.3609  0.7121 -0.9067
10872SOL    HW144675   1.227   9.928   0.589  0.8301 -1.0492 -0.4627
10872SOL    HW244676   1.265   9.968   0.743  0.2100  0.8816 -0.7943
10873SOL     OW44677   0.122   7.873   3.616  0.2500 -0.8826 -0.0246
10873SOL    HW144678   0.175   7.953   3.643 -0.2630 -1.0384  1.5355
10873SOL    HW244679   0.034   7.902   3.578  0.9357 -0.6616 -1.4914
10874SOL     OW44680   1.356   9.938   7.715 -0.2298 -0.1614  0.2001
10874SOL    HW144681   1.405   9.935   7.802 -1.9087 -0.2227  1.1711
10874SOL    HW244682   1.282   9.871   7.716  0.9885 -1.5829 -2.0725
10875SOL     OW44683   6.281   2.220   1.526 -0.2262 -0.3460 -0.2577
10875SOL    HW144684   6.319   2.136   1.487  0.1677 -0.5258  0.5009
10875SOL    HW244685   6.181   2.213   1.530 -0.1422 -1.0878  0.5215
10876SOL     OW44686   0.937   2.073   7.290  0.5097 -0.1267  0.6022
10876SOL    HW144687   1.029   2.113   7.280  0.9294 -1.4788 -1.1793
10876SOL    HW244688   0.871   2.146   7.308  1.8052  0.9612  1.0099
10877SOL     OW44689   0.376   9.756   9.117  0.7493  0.1568 -0.0363
10877SOL    HW144690   0.432   9.832   9.150  1.7271  0.0037 -1.3142
10877SOL    HW244691   0.435   9.681   9.088 -0.0414  0.4388 -2.5103
10878SOL     OW44692   1.760   9.992   4.146 -0.4664 -0.1275  0.0058
10878SOL    HW144693   1.756  10.020   4.050 -2.3452 -0.8708 -0.1668
10878SOL    HW244694   1.722  10.065   4.203 -0.7883 -0.2992  0.0165
10879SOL     OW44695   1.649   3.378   0.332 -0.4032  0.1724 -0.2538
10879SOL    HW144696   1.562   3.360   0.285  1.2394 -0.5635 -3.1385
10879SOL    HW244697   1.648   3.332   0.421 -2.7010 -0.3943 -0.5260
10880SOL     OW44698   6.349   0.674   5.301  0.0458  0.3926  0.2210
10880SOL    HW144699   6.375   0.697   5.207 -0.4840  3.0981  0.6776
10880SOL    HW244700   6.388   0.586   5.326 -0.8479 -0.9603 -2.9502
10881SOL     OW44701   0.402   6.085   1.913  0.2692 -0.4460  0.1697
10881SOL    HW144702   0.447   6.056   1.998  1.0626  0.3948  0.0477
10881SOL    HW244703   0.472   6.105   1.844 -0.2184  2.1457  0.3803
10882SOL     OW44704   3.561   3.809   3.464 -0.7597 -1.2134 -0.2727
10882SOL    HW144705   3.571   3.766   3.374 -1.4830 -0.3304 -0.7748
10882SOL    HW244706   3.583   3.742   3.535 -1.5162 -2.3119 -1.0570
10883SOL     OW44707   7.171   2.484   1.665 -0.4380 -0.2177 -0.6330
10883SOL    HW144708   7.114   2.404   1.647  0.5194 -0.6792 -1.7027
10883SOL    HW244709   7.213   2.514   1.580  1.2432 -0.1458  0.2083
10884SOL     OW44710   9.976   0.134   4.543  0.2830 -0.3449 -0.1455
10884SOL    HW144711  10.019   0.187   4.616  0.7824 -0.5532 -0.2880
10884SOL    HW244712  10.026   0.148   4.458  1.1122 -1.9493  0.0636
10885SOL     OW44713   3.049   9.712   4.858  0.2204 -0.2445  0.5973
10885SOL    HW144714   3.102   9.797   4.863 -3.0298  2.0718 -2.3076
10885SOL    HW244715   3.027   9.680   4.950  0.5609  2.6817  1.7229
10886SOL     OW44716   3.711   1.208   5.318 -0.1754 -0.2941 -0.2017
10886SOL    HW144717   3.667   1.162   5.396 -1.6496  0.0941 -0.7980
10886SOL    HW244718   3.739   1.139   5.251  1.6355 -0.6840  0.9195
10887SOL     OW44719   2.611   0.958   4.836 -0.3007 -0.3263  0.0799
10887SOL    HW144720   2.697   0.913   4.860 -0.2524  0.0148  0.5488
10887SOL    HW244721   2.602   1.043   4.888 -0.6636 -0.0851 -0.3729
10888SOL     OW44722   1.348   6.022   4.267  0.2240 -0.5838  0.1851
10888SOL    HW144723   1.255   5.984   4.272 -0.0826  0.3572  2.0996
10888SOL    HW244724   1.343   6.122   4.263  1.1564 -0.5474 -0.1660
10889SOL     OW44725   3.737   1.485   1.058 -0.7195  0.4055  0.4161
10889SOL    HW144726   3.680   1.411   1.095  2.2866 -1.3114  1.7699
10889SOL    HW244727   3.781   1.455   0.974 -0.9322  1.3361 -0.0371
10890SOL     OW44728   4.422   8.917   6.236  0.3011  0.0573  0.3920
10890SOL    HW144729   4.350   8.900   6.168 -0.3598  1.8001  0.6486
10890SOL    HW244730   4.442   8.831   6.284  2.1956 -1.7186 -3.3312
10891SOL     OW44731   7.416   8.354   4.223  0.0134 -0.2092  0.0268
10891SOL    HW144732   7.492   8.417   4.210 -0.2917  0.0616 -0.4778
10891SOL    HW244733   7.342   8.399   4.272 -1.0513  0.5105 -2.1587
10892SOL     OW44734   9.497   4.762   2.019 -0.3610 -0.0421 -0.0809
10892SOL    HW144735   9.456   4.673   1.995  0.1376  0.0538 -1.3039
10892SOL    HW244736   9.590   4.748   2.053  0.3308  0.1476 -1.8651
10893SOL     OW44737   3.164   9.830   8.076 -0.1756  0.2285  0.4843
10893SOL    HW144738   3.242   9.819   8.013  0.5507 -0.8601  1.5429
10893SOL    HW244739   3.142   9.927   8.086 -1.5947  0.3491 -2.9920
10894SOL     OW44740   8.757   3.526   4.960  0.3928  0.1195 -0.4983
10894SOL    HW144741   8.674   3.544   4.908 -0.1159  0.6724  0.5066
10894SOL    HW244742   8.795   3.438   4.932 -0.1335  0.1908 -1.4657
10895SOL     OW44743   6.001   7.730   2.536  0.3866  0.8008 -0.1136
10895SOL    HW144744   6.050   7.663   2.481  1.5702 -0.1005  1.9698
10895SOL    HW244745   6.059   7.810   2.550  0.5242  0.5588  0.7270
10896SOL     OW44746   3.056   9.535   3.941  0.4061  0.3847 -0.2897
10896SOL    HW144747   2.963   9.501   3.957  0.6966 -0.1605  0.2560
10896SOL    HW244748   3.121   9.474   3.985  0.9579  1.5749  0.5552
10897SOL     OW44749   2.935   2.580   5.894 -0.2207 -0.2823  0.7066
10897SOL    HW144750   3.031   2.609   5.890  0.0022 -1.0175  0.6684
10897SOL    HW244751   2.915   2.548   5.987 -0.6010  0.4421  0.8790
10898SOL     OW44752   7.110   8.128   9.921 -0.0654 -0.1546 -0.2674
10898SOL    HW144753   7.076   8.171   9.838 -1.0995 -0.8153 -0.1954
10898SOL    HW244754   7.089   8.030   9.920 -1.0523  0.0088  1.2322
10899SOL     OW44755   1.316   2.004   5.012  0.1085  0.7190 -0.4417
10899SOL    HW144756   1.404   1.967   5.043 -1.1229 -0.3131  1.9506
10899SOL    HW244757   1.263   1.931   4.968 -0.7725  0.5173  0.8976
10900SOL     OW44758   4.482   6.701   7.943  0.1273 -0.3135  0.1630
10900SOL    HW144759   4.383   6.709   7.950  0.0377 -1.1927 -0.0738
10900SOL    HW244760   4.506   6.663   7.854  0.6730 -0.1477  0.2393
10901SOL     OW44761   6.981   9.028   2.909 -0.1716  0.2055 -0.8622
10901SOL    HW144762   7.029   9.107   2.947 -1.6774 -1.0393  3.9561
10901SOL    HW244763   6.888   9.056   2.884 -0.5699  0.1086  0.4528
10902SOL     OW44764   8.847   3.157   1.985  0.0630 -0.5062  0.0469
10902SOL    HW144765   8.796   3.166   2.070  0.1053 -3.1583  0.3832
10902SOL    HW244766   8.945   3.163   2.003  0.0764 -1.1829  0.2059
10903SOL     OW44767   4.000   8.922   5.142  0.3534 -0.0167 -0.3261
10903SOL    HW144768   4.096   8.941   5.122  0.2250 -1.1170 -2.1115
10903SOL    HW244769   3.945   8.935   5.060 -1.1504  1.1645  0.8093
10904SOL     OW44770   7.159   7.919   5.658 -0.2522  0.5542 -0.1406
10904SOL    HW144771   7.138   7.883   5.567  0.8531 -0.8110  0.1158
10904SOL    HW244772   7.196   7.845   5.714  2.2007  2.1364  0.3810
10905SOL     OW44773   1.729   6.634   3.294 -0.1803 -0.4812  0.1776
10905SOL    HW144774   1.722   6.733   3.288  1.6297 -0.4351 -1.9884
10905SOL    HW244775   1.788   6.609   3.371 -1.4232  0.0583  1.3275
10906SOL     OW44776   2.350   0.450   3.960 -0.0045  0.7923 -0.2276
10906SOL    HW144777   2.307   0.536   3.934  0.4712  0.7616 -1.1281
10906SOL    HW244778   2.318   0.377   3.899  0.4531  0.5514 -0.1816
10907SOL     OW44779   5.427   7.750   4.493 -0.0596 -0.1725  0.3445
10907SOL    HW144780   5.380   7.699   4.564 -1.2570  0.0123 -0.3011
10907SOL    HW244781   5.390   7.843   4.488  0.4146 -0.0042 -0.1228
10908SOL     OW44782   5.178   8.260   6.717 -0.3710 -0.0258  0.0994
10908SOL    HW144783   5.175   8.331   6.787 -0.3203 -0.1406  0.2174
10908SOL    HW244784   5.101   8.197   6.730 -0.2754 -0.1348  0.1454
10909SOL     OW44785   4.295   0.128   8.013 -0.1370  0.4586 -0.2599
10909SOL    HW144786   4.257   0.214   7.979 -0.0171  1.0008  0.9631
10909SOL    HW244787   4.394   0.129   8.003 -0.2935 -0.3781 -2.1298
10910SOL     OW44788   9.537   4.818   3.117 -0.3118 -0.7136  0.3821
10910SOL    HW144789   9.448   4.776   3.132  0.8332 -2.8992  1.5003
10910SOL    HW244790   9.575   4.786   3.030  0.0785 -1.1186  0.6972
10911SOL     OW44791   5.269   4.154   5.846 -0.2713 -0.3197 -0.7473
10911SOL    HW144792   5.243   4.083   5.911 -1.2857 -1.0750 -1.9673
10911SOL    HW244793   5.258   4.244   5.889  0.5698 -0.8561  0.6428
10912SOL     OW44794   1.125   9.613   1.870 -0.0014 -0.2231 -0.4388
10912SOL    HW144795   1.211   9.601   1.920  0.8721  2.1466 -1.2948
10912SOL    HW244796   1.141   9.674   1.792 -2.7218  1.2257  0.0938
10913SOL     OW44797   3.200   4.945   8.217 -0.2638 -0.2688  0.4706
10913SOL    HW144798   3.299   4.935   8.229 -0.0135  2.4356  0.8338
10913SOL    HW244799   3.181   4.979   8.125 -0.8412 -0.5305  0.4904
10914SOL     OW44800   5.208   7.988   5.438  0.4312 -0.1125  0.2603
10914SOL    HW144801   5.268   7.934   5.379  0.8541 -0.4519  0.9860
10914SOL    HW244802   5.262   8.056   5.487  0.2603 -0.5542  1.0684
10915SOL     OW44803   9.783   8.937   3.252 -0.1575 -0.1561  0.2010
10915SOL    HW144804   9.822   8.925   3.161  2.3228 -0.2145  1.2009
10915SOL    HW244805   9.686   8.958   3.245 -0.0230 -0.2454 -2.4335
10916SOL     OW44806   8.526   8.984   3.259  0.0074 -0.2939 -0.1165
10916SOL    HW144807   8.469   9.055   3.217 -0.0120 -1.9289 -2.9354
10916SOL    HW244808   8.472   8.934   3.327 -1.1608 -0.1359 -0.9106
10917SOL     OW44809   5.481   9.738   6.627 -0.0945 -0.4559  0.2277
10917SOL    HW144810   5.515   9.700   6.540  0.2356  1.9701 -0.7330
10917SOL    HW244811   5.383   9.723   6.634  0.0793 -1.7557  0.0190
10918SOL     OW44812   5.889   8.171   1.439 -0.3154  0.0352 -0.1710
10918SOL    HW144813   5.940   8.157   1.524 -1.8162 -1.3976  0.5245
10918SOL    HW244814   5.861   8.267   1.433 -1.4798 -0.1426  1.7325
10919SOL     OW44815   1.609   6.900   3.355 -0.0174  0.4831  0.2700
10919SOL    HW144816   1.675   6.967   3.390  0.3743 -0.7751  2.0316
10919SOL    HW244817   1.520   6.915   3.397  0.0436 -0.0115  0.5902
10920SOL     OW44818   1.030   1.730   4.510 -0.0510 -0.0539 -0.6915
10920SOL    HW144819   1.108   1.679   4.474  0.6509  0.9351 -0.5697
10920SOL    HW244820   0.984   1.675   4.580  0.5043 -0.6435 -0.7819
10921SOL     OW44821   4.285   9.063   7.776 -0.3216  0.2636 -0.0415
10921SOL    HW144822   4.264   9.028   7.867 -0.3417  1.3384  0.3696
10921SOL    HW244823   4.284   8.987   7.710 -1.2686 -0.3611  0.6821
10922SOL     OW44824   1.095   5.899   4.351 -0.0666 -0.0170 -0.1301
10922SOL    HW144825   0.999   5.900   4.322  0.2955 -0.4439 -1.3798
10922SOL    HW244826   1.126   5.804   4.359  0.3468  0.1269 -0.0322
10923SOL     OW44827   5.858   2.187   2.508  0.1503 -0.4822 -0.1123
10923SOL    HW144828   5.902   2.267   2.550  0.6864 -0.3315 -0.9517
10923SOL    HW244829   5.762   2.208   2.489 -0.3397 -0.8623  1.8609
10924SOL     OW44830   5.842   5.702   6.680  0.5384 -0.0340  0.1458
10924SOL    HW144831   5.938   5.679   6.693 -0.1815 -1.8565  2.4429
10924SOL    HW244832   5.785   5.644   6.737 -1.9277  1.3881 -0.7713
10925SOL     OW44833   1.742   4.212   6.945 -0.0706 -0.0302 -0.1721
10925SOL    HW144834   1.758   4.289   7.007  2.5088  0.2362 -1.0810
10925SOL    HW244835   1.668   4.235   6.882  0.4244  1.5841 -0.1883
10926SOL     OW44836   6.247   9.681   3.180  0.6712  0.8287 -0.1164
10926SOL    HW144837   6.261   9.683   3.279  1.7010  0.4262 -0.2437
10926SOL    HW244838   6.179   9.611   3.157 -1.7322  2.9061  0.5354
10927SOL     OW44839   8.973   8.567   2.622 -0.3246  0.3823  0.2568
10927SOL    HW144840   8.884   8.533   2.592 -0.6802  1.3229  0.2539
10927SOL    HW244841   9.026   8.597   2.543  0.9833 -2.4755 -0.0228
10928SOL     OW44842   0.057   0.832   7.204 -0.1803 -0.1697 -0.8833
10928SOL    HW144843   0.092   0.921   7.233  2.2454 -1.2563 -0.3595
10928SOL    HW244844   0.009   0.842   7.117  1.3719  1.4180 -1.5900
10929SOL     OW44845   1.255   1.953   7.854 -0.3617 -0.5353 -0.8440
10929SOL    HW144846   1.258   2.023   7.925 -1.3808 -1.7867  0.4652
10929SOL    HW244847   1.200   1.986   7.777 -2.8000 -0.7384  0.7475
10930SOL     OW44848   2.681   9.748   9.779 -0.2094  0.1958  0.5419
10930SOL    HW144849   2.670   9.805   9.860 -0.2508 -1.0005  1.4013
10930SOL    HW244850   2.593   9.738   9.733 -0.6465 -0.9577  1.6202
10931SOL     OW44851   3.069   0.255   6.860 -0.0495 -0.5418  0.0234
10931SOL    HW144852   2.987   0.213   6.899  0.2914 -1.4184 -0.1831
10931SOL    HW244853   3.148   0.199   6.882  0.6186  0.7106  0.8930
10932SOL     OW44854   0.751   3.184   6.056 -0.4409  0.6795 -0.6662
10932SOL    HW144855   0.762   3.164   6.153  1.2933 -0.4551 -1.0612
10932SOL    HW244856   0.658   3.214   6.037 -1.7439 -2.2925  0.8042
10933SOL     OW44857   1.944   2.712   0.701 -0.0660  0.2945 -0.3314
10933SOL    HW144858   1.856   2.688   0.742  0.2505  0.3537  0.3990
10933SOL    HW244859   1.950   2.811   0.689  0.0694  0.3296  0.0177
10934SOL     OW44860   1.484   8.709   5.408  0.2023 -0.8791 -0.1496
10934SOL    HW144861   1.436   8.781   5.356  1.0323 -1.1258 -1.2818
10934SOL    HW244862   1.428   8.626   5.409 -0.0323 -0.7225 -0.2471
10935SOL     OW44863   1.599   4.075   3.344  0.0268 -0.0188  0.6154
10935SOL    HW144864   1.679   4.135   3.351  1.1567 -1.6278  1.7080
10935SOL    HW244865   1.601   4.026   3.257  0.0256  0.1924  0.4940
10936SOL     OW44866   2.321   1.871   4.275 -0.0559 -0.1277 -0.3304
10936SOL    HW144867   2.315   1.774   4.297  0.6741  0.0082  0.5542
10936SOL    HW244868   2.396   1.912   4.328 -0.0074  0.8012 -1.0986
10937SOL     OW44869   1.118   8.501   5.074  0.2456 -0.0436 -0.8840
10937SOL    HW144870   1.127   8.571   5.145 -0.3177 -0.5324 -0.3303
10937SOL    HW244871   1.146   8.539   4.986  1.1607  0.4974 -0.3601
10938SOL     OW44872   0.576   5.003   5.169 -0.4215 -0.2921  0.0179
10938SOL    HW144873   0.560   5.026   5.265 -0.3894 -1.0222  0.2036
10938SOL    HW244874   0.512   5.053   5.111  1.1174  2.0151  0.2189
10939SOL     OW44875   3.066   8.432   2.666 -0.0996  0.2868 -0.1133
10939SOL    HW144876   3.126   8.496   2.714 -0.2240 -0.5217  1.1176
10939SOL    HW244877   2.973   8.468   2.663  0.1714  0.9352 -0.8901
10940SOL     OW44878   2.131   1.698   5.758  0.2401 -0.5240  0.5341
10940SOL    HW144879   2.101   1.667   5.848 -0.1540 -1.6071  0.0374
10940SOL    HW244880   2.194   1.632   5.719 -0.8867 -0.9080 -0.6874
10941SOL     OW44881   9.364   0.397   7.025 -0.0777 -0.1000 -0.0102
10941SOL    HW144882   9.457   0.426   7.049 -0.0375  0.0514 -0.3377
10941SOL    HW244883   9.319   0.357   7.105 -0.6528  2.1815  0.8478
10942SOL     OW44884   1.115   7.404   1.618  0.3531 -0.1567  0.1468
10942SOL    HW144885   1.044   7.458   1.574  0.6649  1.2570  1.3462
10942SOL    HW244886   1.077   7.358   1.698  0.1793 -1.4432 -0.6579
10943SOL     OW44887   2.645   8.407   5.831  0.5497 -0.1498  0.3542
10943SOL    HW144888   2.575   8.444   5.769 -0.1320  0.8379  1.6926
10943SOL    HW244889   2.727   8.464   5.826  0.2941  0.2532  0.7792
10944SOL     OW44890   2.067   9.960   0.897 -0.2627  0.1790 -0.1601
10944SOL    HW144891   1.991   9.897   0.884 -0.1810  0.3512 -1.6122
10944SOL    HW244892   2.132   9.921   0.963 -0.2252 -1.2570 -1.0164
10945SOL     OW44893   2.959   4.038   9.760  0.1175 -0.4688 -0.3279
10945SOL    HW144894   3.014   3.955   9.766 -0.0846 -0.5825 -0.0336
10945SOL    HW244895   2.881   4.031   9.823  1.8843  1.2749  2.1506
10946SOL     OW44896   2.344   7.863   0.579  0.0223 -0.7552  0.7569
10946SOL    HW144897   2.356   7.766   0.598  0.5821 -0.4725  1.8506
10946SOL    HW244898   2.247   7.886   0.585 -0.3199 -1.5987 -1.2365
10947SOL     OW44899   8.563   0.251   9.926  0.2741 -0.1838  0.2112
10947SOL    HW144900   8.533   0.292  10.012 -1.2485  0.4755 -0.6176
10947SOL    HW244901   8.495   0.268   9.855  0.7056 -2.1472 -0.7289
10948SOL     OW44902   0.488   0.497   5.675  0.6451  0.3235  0.0218
10948SOL    HW144903   0.508   0.425   5.740 -1.9823  1.3551  2.0557
10948SOL    HW244904   0.513   0.586   5.714 -2.6932  1.1272  0.4881
10949SOL     OW44905   0.317   1.821   3.789  0.4859 -0.6952 -0.6442
10949SOL    HW144906   0.372   1.744   3.823  1.8816  0.4247 -0.3350
10949SOL    HW244907   0.305   1.811   3.690  1.5950 -0.7376 -0.7819
10950SOL     OW44908   6.978   8.808   7.036  0.4619 -0.3946  0.0947
10950SOL    HW144909   6.925   8.779   6.957  1.1174 -0.2427 -0.4083
10950SOL    HW244910   6.932   8.884   7.082  0.6124  0.2253 -0.7726
10951SOL     OW44911   0.025   2.265   0.635  0.4080 -0.3550  0.1833
10951SOL    HW144912   0.110   2.318   0.636  0.1174  0.1342 -0.5924
10951SOL    HW244913   0.036   2.186   0.575  0.5337 -0.6540  0.6021
10952SOL     OW44914   9.906   7.296   9.144  0.0592  0.2830 -0.3152
10952SOL    HW144915   9.969   7.339   9.208  0.4005 -1.8504  0.8220
10952SOL    HW244916   9.957   7.233   9.085 -0.6259  0.4361 -1.0744
10953SOL     OW44917   2.673   7.235   7.485 -0.2269 -0.3764  0.1130
10953SOL    HW144918   2.573   7.230   7.482 -0.1829 -0.7542 -1.1680
10953SOL    HW244919   2.705   7.307   7.424  0.2936 -0.4091  0.3391
10954SOL     OW44920   6.025   8.526   5.602 -0.0989 -0.3627  0.2707
10954SOL    HW144921   6.093   8.514   5.529  0.3169  0.1730  0.5653
10954SOL    HW244922   6.013   8.623   5.621 -1.8617 -0.3817 -0.6222
10955SOL     OW44923   0.721   2.063   1.899  0.6106 -0.1873 -0.2309
10955SOL    HW144924   0.702   1.987   1.960  1.1502 -0.3074 -0.2080
10955SOL    HW244925   0.649   2.071   1.831  0.1411 -0.2169  0.2597
10956SOL     OW44926   2.707   8.832   4.010  0.1476 -0.0145 -0.5683
10956SOL    HW144927   2.699   8.770   3.931  0.9846  0.0958 -0.7458
10956SOL    HW244928   2.803   8.842   4.034 -0.0971  0.0910  0.3675
10957SOL     OW44929   2.068   8.679   3.515  0.6573  0.4302  0.2910
10957SOL    HW144930   2.154   8.635   3.491  0.7698  0.2012  1.0913
10957SOL    HW244931   2.042   8.745   3.444  1.5317  0.5634  0.0971
10958SOL     OW44932   6.675   2.753   7.175 -0.5050 -0.1905 -0.2629
10958SOL    HW144933   6.750   2.712   7.227 -0.6016 -1.6179 -1.2503
10958SOL    HW244934   6.636   2.686   7.112 -0.3098  1.5482 -2.2828
10959SOL     OW44935   2.883   1.238   4.462 -0.7992  0.1603  0.0620
10959SOL    HW144936   2.875   1.142   4.437  0.4716  0.3158 -1.0407
10959SOL    HW244937   2.965   1.252   4.517 -0.8197  0.6483 -0.0254
10960SOL     OW44938   9.558   0.943   6.527  0.4683 -0.1630 -0.8603
10960SOL    HW144939   9.518   0.891   6.602  1.0932 -1.1713 -1.2146
10960SOL    HW244940   9.487   0.967   6.461  0.0700 -0.0225 -0.3861
10961SOL     OW44941   9.868   5.131   5.016  0.4142  0.8490  0.7739
10961SOL    HW144942   9.780   5.175   5.000  0.8849  1.6961  0.4586
10961SOL    HW244943   9.867   5.084   5.104 -0.4890  0.5075  0.5805
10962SOL     OW44944   0.285   0.776   6.685  0.1592  0.1266 -0.4323
10962SOL    HW144945   0.251   0.718   6.760  0.8852 -1.1593 -1.0728
10962SOL    HW244946   0.289   0.871   6.715 -0.9542 -0.1600  0.6859
10963SOL     OW44947   1.924   3.700   8.020 -0.2061 -0.6056 -0.2769
10963SOL    HW144948   1.918   3.798   7.998 -1.4485 -0.1617  1.8495
10963SOL    HW244949   2.016   3.679   8.052 -0.5836  0.4550  1.6512
10964SOL     OW44950   9.071   0.091   6.887 -0.0660 -0.1804  0.4809
10964SOL    HW144951   9.103   0.051   6.801 -2.3592  0.7113 -0.8561
10964SOL    HW244952   9.078   0.191   6.881  0.9781 -0.1601  1.8618
10965SOL     OW44953   3.186   6.951   9.989  0.3951 -0.3488  0.3289
10965SOL    HW144954   3.219   7.044   9.973 -0.4430 -0.0348  0.3970
10965SOL    HW244955   3.087   6.953  10.002  0.2372 -1.3852 -0.6761
10966SOL     OW44956   8.345   8.307   6.737  0.0553  0.7311  0.3178
10966SOL    HW144957   8.254   8.268   6.754 -0.2215  0.9997 -0.5487
10966SOL    HW244958   8.414   8.250   6.783 -0.4504 -0.1056  0.0506
10967SOL     OW44959   4.508   6.724   1.702  0.1679  0.3761 -0.0454
10967SOL    HW144960   4.523   6.662   1.624  1.1862 -0.1905  0.5830
10967SOL    HW244961   4.412   6.724   1.727 -0.0429 -0.0057 -0.8344
10968SOL     OW44962   3.049   1.202   6.965 -0.5036  0.2055  0.0348
10968SOL    HW144963   3.051   1.250   7.052 -0.9381 -0.8996  0.6606
10968SOL    HW244964   3.084   1.109   6.977  0.6131  0.4461 -1.2218
10969SOL     OW44965   4.425   8.414   9.579 -0.0378  0.1616 -0.6664
10969SOL    HW144966   4.477   8.418   9.493  0.6517 -0.9649 -0.3047
10969SOL    HW244967   4.398   8.320   9.598 -0.9322  0.5327 -0.0844
10970SOL     OW44968   3.305   1.070   8.094 -0.7742 -0.1992 -0.0499
10970SOL    HW144969   3.248   1.089   8.014 -0.9249 -0.1806  0.0583
10970SOL    HW244970   3.286   1.138   8.165 -0.1593  0.1730 -0.2418
10971SOL     OW44971   9.965   8.899   7.443 -0.2642  0.5322  0.2127
10971SOL    HW144972  10.044   8.938   7.395  0.3691  0.8163  1.4599
10971SOL    HW244973   9.931   8.820   7.393  0.0303  1.1540 -0.9991
10972SOL     OW44974   2.271   8.822   4.239 -0.3503 -0.4579 -0.7985
10972SOL    HW144975   2.249   8.916   4.216  0.0937 -0.0151  0.5327
10972SOL    HW244976   2.369   8.813   4.256 -0.5487 -0.9047  0.1813
10973SOL     OW44977   1.573   8.420   7.734  0.1028 -0.2862  0.2268
10973SOL    HW144978   1.657   8.393   7.780 -1.1461 -0.4639  2.4528
10973SOL    HW244979   1.573   8.382   7.641  1.4939 -2.1019  0.9350
10974SOL     OW44980   4.324   8.135   6.879  0.3093  0.2365 -0.1658
10974SOL    HW144981   4.300   8.180   6.793 -1.9725  0.1479  0.4081
10974SOL    HW244982   4.267   8.054   6.893  1.2780 -0.2734  1.0082
10975SOL     OW44983   2.421   8.997   8.438  0.2435 -0.1169 -0.4739
10975SOL    HW144984   2.337   9.005   8.492  1.1617 -1.2848  1.1505
10975SOL    HW244985   2.469   8.913   8.463  1.9673  0.6045 -1.3166
10976SOL     OW44986   8.580   1.627   8.568  0.2993  0.2758  0.5406
10976SOL    HW144987   8.504   1.604   8.629  0.0430  0.9831  0.4974
10976SOL    HW244988   8.562   1.716   8.525  2.6404  1.9983  2.9970
10977SOL     OW44989   1.984   2.129   7.354 -0.2659  0.0617 -0.3805
10977SOL    HW144990   1.902   2.072   7.354  0.8915 -1.6540  0.5854
10977SOL    HW244991   1.992   2.175   7.266 -3.4641  2.0740  0.2797
10978SOL     OW44992   0.562   8.777   9.085 -0.0380  0.5647 -0.3911
10978SOL    HW144993   0.521   8.738   9.167  2.2022 -1.1880 -0.0627
10978SOL    HW244994   0.526   8.729   9.004 -1.2589  1.4080 -0.3531
10979SOL     OW44995   8.326   3.231   1.751 -0.6760 -0.2215 -0.0424
10979SOL    HW144996   8.393   3.305   1.749 -1.8133  0.8128 -2.5335
10979SOL    HW244997   8.235   3.269   1.769 -1.1961 -1.0426 -0.8763
10980SOL     OW44998   5.934   6.903   4.439 -0.2642 -0.1566  0.0606
10980SOL    HW144999   6.030   6.890   4.415 -0.0919 -0.2921  0.8123
10980SOL    HW245000   5.893   6.972   4.379 -0.4689 -2.1899 -2.2127
10981SOL     OW45001   4.502   5.213   7.484  0.2303 -0.0660  0.3879
10981SOL    HW145002   4.574   5.268   7.527 -0.3805  0.0657  1.2598
10981SOL    HW245003   4.483   5.133   7.540 -0.6075  0.1303  0.3969
10982SOL     OW45004   3.861   3.809   1.219 -0.1638 -0.4044  0.0286
10982SOL    HW145005   3.953   3.808   1.260  0.1133 -0.2071 -0.5758
10982SOL    HW245006   3.841   3.719   1.181 -1.3622 -1.2826  2.6256
10983SOL     OW45007   4.112   2.381   7.031  0.0143  0.3320 -0.0711
10983SOL    HW145008   4.045   2.392   6.957 -0.5132  0.6125  0.4507
10983SOL    HW245009   4.201   2.360   6.991 -0.5294 -0.7776 -0.7423
10984SOL     OW45010   2.775   0.750   5.686  0.4419 -0.5109 -0.1340
10984SOL    HW145011   2.809   0.660   5.716  0.3912 -0.5334 -0.1430
10984SOL    HW245012   2.742   0.743   5.592 -0.2864 -0.6694  0.1333
10985SOL     OW45013   0.254   0.154   7.803  0.1082  0.3526 -0.0279
10985SOL    HW145014   0.194   0.112   7.735 -0.7551  0.4161  0.6933
10985SOL    HW245015   0.302   0.232   7.762 -3.3870  2.8934  0.5039
10986SOL     OW45016   9.721   0.969   3.567 -0.3990  0.4968 -0.0674
10986SOL    HW145017   9.813   0.967   3.527 -0.5894 -1.9659 -0.4430
10986SOL    HW245018   9.654   0.980   3.494 -0.4509  1.8251  0.1651
10987SOL     OW45019   4.238   4.920   7.317 -0.5334  0.1130  0.7966
10987SOL    HW145020   4.167   4.908   7.387 -0.9986  0.7476  0.4404
10987SOL    HW245021   4.221   4.857   7.241 -0.2459 -0.3096  1.0828
10988SOL     OW45022   2.873   7.825   0.979  0.7062 -0.1686 -0.6232
10988SOL    HW145023   2.928   7.834   1.063  0.7051  1.3815 -0.7796
10988SOL    HW245024   2.838   7.732   0.973  0.3169 -0.1732  1.3482
10989SOL     OW45025   1.565   0.484   6.317  0.4670 -0.0419 -0.3600
10989SOL    HW145026   1.541   0.551   6.247 -0.1216 -0.0953 -0.2149
10989SOL    HW245027   1.500   0.407   6.312  2.1736 -1.4427 -1.6791
10990SOL     OW45028   6.947   6.158   1.464  0.1657 -0.5415  0.2929
10990SOL    HW145029   6.876   6.091   1.485  0.0359 -0.0585  1.4216
10990SOL    HW245030   6.909   6.230   1.406 -0.3251 -0.1860  1.0457
10991SOL     OW45031   1.427   1.171   2.342  0.1840  0.0303 -0.1708
10991SOL    HW145032   1.327   1.172   2.339  0.1920 -0.1189 -0.4905
10991SOL    HW245033   1.463   1.140   2.254  0.5314  0.8385 -0.3183
10992SOL     OW45034   2.636   7.027   5.569  0.2928  0.1373  0.3031
10992SOL    HW145035   2.644   7.019   5.668  5.1205 -1.4323 -0.1078
10992SOL    HW245036   2.682   7.111   5.538  0.6402 -0.4569 -0.8184
10993SOL     OW45037   3.783   0.930   6.377  0.1582  0.2639  0.6084
10993SOL    HW145038   3.809   0.984   6.297  0.7551 -2.6710 -1.2484
10993SOL    HW245039   3.865   0.912   6.432 -0.3740  2.9274  2.3495
10994SOL     OW45040   3.614   0.365   3.752  0.2135  0.3617  0.6641
10994SOL    HW145041   3.577   0.279   3.786 -1.0226  0.7296  0.2872
10994SOL    HW245042   3.617   0.363   3.652 -2.2023  1.6730  0.5212
10995SOL     OW45043   4.393   0.121   5.537  0.0633 -0.2124 -0.1156
10995SOL    HW145044   4.389   0.025   5.510  0.9010  0.2412 -1.8684
10995SOL    HW245045   4.487   0.146   5.558 -0.3098 -0.0567  1.4913
10996SOL     OW45046   5.076   0.089   8.039  0.6537  0.4966 -0.3167
10996SOL    HW145047   5.079  -0.008   8.015  0.9198  0.2716  0.6014
10996SOL    HW245048   5.169   0.125   8.049  0.5425  0.2417  1.6989
10997SOL     OW45049   3.868   7.898   7.520 -0.4069 -0.8021 -0.2369
10997SOL    HW145050   3.961   7.918   7.551 -0.6804 -1.4966  1.0634
10997SOL    HW245051   3.828   7.979   7.477  1.2391 -0.8564 -1.9388
10998SOL     OW45052   1.008   1.789   7.332 -0.2902  0.1431  0.1935
10998SOL    HW145053   1.086   1.797   7.270  0.0861 -1.3345  0.4741
10998SOL    HW245054   0.936   1.852   7.302  0.2379  0.0995 -1.2061
10999SOL     OW45055   0.835   0.721   2.670 -0.2322 -0.0721 -0.1188
10999SOL    HW145056   0.885   0.785   2.611 -0.0073  0.6665  0.8718
10999SOL    HW245057   0.755   0.687   2.621 -1.5023  2.5512  0.0971
11000SOL     OW45058   2.588   5.634   1.481  0.0237  0.4289 -0.5423
11000SOL    HW145059   2.552   5.544   1.456 -1.5713  0.7790  0.3850
11000SOL    HW245060   2.579   5.697   1.404  0.8867 -0.1288 -1.1016
11001SOL     OW45061   1.701   3.515   0.791  0.7103 -0.1825  0.8395
11001SOL    HW145062   1.727   3.611   0.785 -0.3694 -0.0318 -3.0501
11001SOL    HW245063   1.606   3.509   0.822  0.4750  0.0958  0.1996
11002SOL     OW45064   8.243   8.950   2.244 -0.6916  0.2811 -0.4339
11002SOL    HW145065   8.293   8.898   2.176  0.6112 -1.5684  1.8729
11002SOL    HW245066   8.305   8.977   2.318 -2.3681  0.9364  0.7691
11003SOL     OW45067   5.962   5.182   8.740 -0.5835  0.0840  0.3794
11003SOL    HW145068   5.908   5.249   8.791  1.9223  1.0696  1.8490
11003SOL    HW245069   6.026   5.137   8.802  0.9604 -0.3349 -1.4655
11004SOL     OW45070   4.218   4.589   8.155  0.3489 -0.2688  0.3624
11004SOL    HW145071   4.273   4.644   8.093  0.2517 -1.0595 -0.4374
11004SOL    HW245072   4.204   4.639   8.241  0.3384  0.8896 -0.3119
11005SOL     OW45073   3.457   7.904   2.392 -0.5945 -0.1143 -0.2291
11005SOL    HW145074   3.427   7.848   2.469  0.5818 -1.0206 -0.4234
11005SOL    HW245075   3.522   7.973   2.423 -2.4283  1.5208  0.1008
11006SOL     OW45076   2.837   0.813   7.038 -0.1991  0.1338 -0.1926
11006SOL    HW145077   2.777   0.769   7.103  0.0028 -1.6735 -1.1865
11006SOL    HW245078   2.932   0.791   7.060  0.0227  1.5332  0.3310
11007SOL     OW45079   3.217   9.405   9.946 -0.4756 -0.1922  0.1607
11007SOL    HW145080   3.144   9.431   9.884  0.6970  3.0473  0.0652
11007SOL    HW245081   3.295   9.370   9.894 -0.0683  1.0906 -0.0970
11008SOL     OW45082   2.283   1.595   3.113 -0.1805  0.5109  0.2145
11008SOL    HW145083   2.208   1.576   3.050  0.3066  0.5192 -0.3768
11008SOL    HW245084   2.293   1.518   3.176  0.6037 -0.4251 -1.0079
11009SOL     OW45085   5.279   3.230   9.245 -0.8252  0.0638  0.5804
11009SOL    HW145086   5.214   3.154   9.250 -0.4296 -0.5211 -2.4644
11009SOL    HW245087   5.369   3.199   9.276 -1.4491  0.2506  2.6164
11010SOL     OW45088   6.193   0.658   6.561 -0.0256 -0.2568  0.3530
11010SOL    HW145089   6.267   0.623   6.619 -0.8847  2.4923  3.2790
11010SOL    HW245090   6.112   0.600   6.571  1.2502 -2.5124 -1.8445
11011SOL     OW45091   3.095   9.585   8.178  0.3660 -0.1589 -0.2012
11011SOL    HW145092   3.128   9.668   8.135 -0.9094 -0.4024 -1.6934
11011SOL    HW245093   3.018   9.607   8.238 -0.1383 -0.2903 -0.7967
11012SOL     OW45094   1.980   0.705   5.320 -0.6109  0.3946  0.1426
11012SOL    HW145095   1.892   0.684   5.363 -0.4488  0.4243  0.4955
11012SOL    HW245096   2.038   0.624   5.321 -0.7061  0.3241 -0.2606
11013SOL     OW45097   7.337   1.087   9.400  1.2605  0.4203 -0.0134
11013SOL    HW145098   7.288   1.172   9.416  3.2789  2.4255 -3.7663
11013SOL    HW245099   7.434   1.107   9.384  2.0976 -2.7713  0.8041
11014SOL     OW45100   4.431   7.829   9.165  0.2740  0.2036  0.1547
11014SOL    HW145101   4.489   7.755   9.200  1.9088  1.6968  0.7187
11014SOL    HW245102   4.489   7.901   9.127 -1.3587  0.2958 -2.2896
11015SOL     OW45103   8.100   8.377   7.489  0.4838 -0.1936  0.1467
11015SOL    HW145104   8.035   8.301   7.487 -0.6974  0.8289 -2.5236
11015SOL    HW245105   8.114   8.407   7.583 -1.7936 -1.3973  0.8942
11016SOL     OW45106   5.304   9.691   5.340 -0.2359  0.0111  0.3198
11016SOL    HW145107   5.273   9.596   5.339  0.4327 -0.2185  1.5550
11016SOL    HW245108   5.369   9.705   5.265  1.3182 -1.0580  1.4573
11017SOL     OW45109   2.636   7.339   3.624  0.1104  0.1086  0.3099
11017SOL    HW145110   2.601   7.252   3.591 -0.6296  0.7368 -0.5866
11017SOL    HW245111   2.727   7.356   3.585  1.5661 -1.6136  2.7899
11018SOL     OW45112   0.326   6.335   7.737  0.1601 -0.2413 -0.3695
11018SOL    HW145113   0.237   6.290   7.740 -0.6217  1.2286 -0.9736
11018SOL    HW245114   0.390   6.286   7.797 -0.7662 -1.8832 -0.6924
11019SOL     OW45115   1.193   1.362   6.697 -0.1704  0.4985  0.1528
11019SOL    HW145116   1.206   1.304   6.778 -1.6324  2.3489  1.7786
11019SOL    HW245117   1.249   1.444   6.706 -0.3652  0.7286 -0.6871
11020SOL     OW45118   7.552   9.255   5.689 -0.1807  0.1720 -0.1709
11020SOL    HW145119   7.559   9.292   5.597 -0.2141 -0.1597 -0.3043
11020SOL    HW245120   7.639   9.269   5.737 -0.2192  0.4985 -0.1938
11021SOL     OW45121   5.054   0.798   7.267  0.2233 -0.2925 -0.6069
11021SOL    HW145122   5.147   0.834   7.282  1.2289 -2.5027 -1.2940
11021SOL    HW245123   5.034   0.798   7.169 -0.6484  0.4688 -0.4371
11022SOL     OW45124   3.128   0.502   4.464 -0.1277  0.0399 -0.1537
11022SOL    HW145125   3.082   0.414   4.460 -0.0808  0.0720 -2.1167
11022SOL    HW245126   3.224   0.490   4.438  0.0032  0.5850  0.0753
11023SOL     OW45127   3.185   9.890   6.142 -0.1640 -0.4407 -0.0089
11023SOL    HW145128   3.217   9.814   6.198  0.8285 -0.7700 -0.9829
11023SOL    HW245129   3.094   9.918   6.171 -0.7887 -2.4002 -0.0225
11024SOL     OW45130   2.662   7.455   4.196  0.0806  0.7415  0.4685
11024SOL    HW145131   2.663   7.387   4.270  0.9179  0.8762  0.5874
11024SOL    HW245132   2.629   7.412   4.112 -1.2182  0.6708  0.9975
11025SOL     OW45133   9.358   7.930   6.473 -0.4183 -0.4010  0.4949
11025SOL    HW145134   9.320   7.998   6.536 -0.6583  1.2115 -1.3421
11025SOL    HW245135   9.331   7.953   6.380  2.4912 -0.9551 -0.5484
11026SOL     OW45136   2.163   8.520   6.344 -0.2121 -0.1396 -0.3128
11026SOL    HW145137   2.104   8.538   6.423  0.7121  1.9358 -0.0516
11026SOL    HW245138   2.173   8.422   6.331 -1.2850 -0.5052  1.4633
11027SOL     OW45139   1.222   3.973   7.232 -0.0548 -0.2435 -0.0668
11027SOL    HW145140   1.132   3.961   7.273 -0.7434  0.5990 -1.3384
11027SOL    HW245141   1.218   3.955   7.134  1.1836 -0.3340 -0.1119
11028SOL     OW45142   9.228   5.919   6.408  0.1596 -0.3802 -0.5375
11028SOL    HW145143   9.249   6.012   6.440  0.3514  0.0468 -1.8844
11028SOL    HW245144   9.144   5.887   6.451  0.9404 -0.2129  1.1622
11029SOL     OW45145   2.263   3.252   0.993  0.1250  0.0394  0.5675
11029SOL    HW145146   2.230   3.167   0.952  0.6037  0.7198 -1.2921
11029SOL    HW245147   2.207   3.328   0.960  2.0145  0.9049 -0.7576
11030SOL     OW45148   2.851   4.563   6.957 -0.1529  0.3067  0.4227
11030SOL    HW145149   2.800   4.600   7.034  0.5387 -0.8637  1.4562
11030SOL    HW245150   2.791   4.559   6.876 -0.9358  1.3252  0.9399
11031SOL     OW45151   8.505   4.461   5.014 -0.5378 -0.6668  0.4952
11031SOL    HW145152   8.471   4.549   4.980  0.8023 -0.7541 -1.1445
11031SOL    HW245153   8.557   4.476   5.098 -1.3914 -0.0658  0.9343
11032SOL     OW45154   3.226   8.037   5.743  0.4981 -0.0773 -0.3534
11032SOL    HW145155   3.254   7.983   5.664 -0.1310  1.8134 -1.9265
11032SOL    HW245156   3.304   8.088   5.778  0.8271 -1.0847  0.3988
11033SOL     OW45157   1.624   8.188   9.924 -0.4483  0.0398 -0.6049
11033SOL    HW145158   1.630   8.119   9.851  1.1134 -0.9417  0.4126
11033SOL    HW245159   1.714   8.230   9.937 -0.5257 -0.3533  1.2975
11034SOL     OW45160   3.077   8.776   4.269  0.0065  0.3671 -0.1179
11034SOL    HW145161   3.025   8.781   4.184  0.0322  2.6001 -0.0409
11034SOL    HW245162   3.024   8.727   4.338 -0.8417  0.2532 -0.8458
11035SOL     OW45163   1.457   7.126   0.922  0.2387 -0.3463 -0.8266
11035SOL    HW145164   1.556   7.136   0.910  0.2479  0.6296  0.0014
11035SOL    HW245165   1.439   7.077   1.007 -0.0309  1.9749  0.4995
11036SOL     OW45166   4.398   1.830   9.476 -0.1791 -0.1814 -0.0315
11036SOL    HW145167   4.464   1.767   9.434  1.3306  1.4024 -0.1283
11036SOL    HW245168   4.334   1.779   9.533  1.0240 -1.7916 -0.0817
11037SOL     OW45169   2.693   1.701   4.400 -0.3176  0.3375 -0.0970
11037SOL    HW145170   2.759   1.640   4.444  0.0261  2.3518  2.2696
11037SOL    HW245171   2.659   1.659   4.316  1.5661 -2.1199  0.3411
11038SOL     OW45172   5.852   8.752   9.265  0.0320 -0.1232  0.6233
11038SOL    HW145173   5.755   8.773   9.253  0.0051  0.7726  2.2242
11038SOL    HW245174   5.893   8.729   9.177 -1.3213  0.8882 -0.2879
11039SOL     OW45175   0.285   8.536   9.182 -0.0948 -0.0378 -0.0505
11039SOL    HW145176   0.199   8.509   9.225  1.1710 -1.3767  1.7568
11039SOL    HW245177   0.343   8.581   9.250 -0.0782  2.5572 -1.7300
11040SOL     OW45178   7.674   0.117   4.244 -0.1340  0.3904 -0.9268
11040SOL    HW145179   7.761   0.086   4.206 -0.0267 -0.3600 -0.0985
11040SOL    HW245180   7.692   0.185   4.315 -0.3715  2.4051 -2.7629
11041SOL     OW45181   3.452   3.150   4.543  0.2671  0.0430  0.1741
11041SOL    HW145182   3.527   3.084   4.534 -0.3052 -0.8208  1.5328
11041SOL    HW245183   3.366   3.104   4.523 -0.0218  0.6795 -0.0263
11042SOL     OW45184   4.434   0.980   6.357 -0.8001 -0.0707 -0.1665
11042SOL    HW145185   4.363   0.957   6.423  0.1686 -0.5754  0.7262
11042SOL    HW245186   4.438   1.079   6.345 -1.2416 -0.0028  0.2483
11043SOL     OW45187   0.182   8.714   4.190 -0.9143 -0.1124  0.0457
11043SOL    HW145188   0.110   8.744   4.252 -0.0351  1.5497  0.3113
11043SOL    HW245189   0.251   8.663   4.241 -1.4746 -0.9851 -0.0590
11044SOL     OW45190   4.280   0.651   7.556  0.0886  0.7556 -0.3112
11044SOL    HW145191   4.258   0.554   7.549 -0.5077  0.8625  0.0650
11044SOL    HW245192   4.252   0.698   7.472  1.8444  0.3330 -1.1719
11045SOL     OW45193   5.175   4.904   7.128 -0.3768  0.0096  1.2567
11045SOL    HW145194   5.117   4.982   7.105  0.2063 -0.1955 -0.9883
11045SOL    HW245195   5.131   4.820   7.099  1.4566 -0.0733 -1.4651
11046SOL     OW45196   2.485   9.117   4.256  0.4563 -0.1212  0.1826
11046SOL    HW145197   2.404   9.066   4.286  0.8685 -0.7891  0.1914
11046SOL    HW245198   2.497   9.106   4.158 -0.0887  0.8974 -0.0042
11047SOL     OW45199   2.742   1.328   8.333  0.3084  0.2044  0.4104
11047SOL    HW145200   2.725   1.229   8.336  1.0402 -0.0002 -1.2991
11047SOL    HW245201   2.655   1.376   8.344 -0.1448 -0.6480  0.6602
11048SOL     OW45202   4.536   3.090   0.459  0.4998 -0.5417  0.0488
11048SOL    HW145203   4.611   3.117   0.519 -0.4360  0.3388  0.8429
11048SOL    HW245204   4.555   3.001   0.419 -0.1965 -2.5528  3.9959
11049SOL     OW45205   2.011   2.225   2.686  0.0421 -0.2697  0.7965
11049SOL    HW145206   1.919   2.261   2.669 -0.7980 -1.8151  1.9820
11049SOL    HW245207   2.033   2.236   2.782  0.2990 -1.7202  0.9083
11050SOL     OW45208   2.531   1.246   1.569  0.6615  0.0868  0.0449
11050SOL    HW145209   2.611   1.290   1.526  0.0946 -0.7840 -1.9836
11050SOL    HW245210   2.461   1.314   1.586  0.8781  0.4478 -0.4800
11051SOL     OW45211   7.168   0.531   7.898 -0.3788  0.1537  0.5943
11051SOL    HW145212   7.101   0.503   7.830 -1.8020  0.5865  1.8007
11051SOL    HW245213   7.148   0.623   7.929  0.8468  0.3336  0.8993
11052SOL     OW45214   1.454   2.749   3.102  0.5281  0.0001 -0.3581
11052SOL    HW145215   1.376   2.692   3.075 -1.5520  1.7481  1.8402
11052SOL    HW245216   1.472   2.817   3.031  0.6448 -0.9606 -1.2656
11053SOL     OW45217   9.396   5.850   6.798 -0.5148  0.1207 -0.3718
11053SOL    HW145218   9.442   5.848   6.709  0.5179 -1.5703  0.1698
11053SOL    HW245219   9.375   5.756   6.827 -1.2501  0.6775  0.9571
11054SOL     OW45220   5.024   4.268   4.955 -0.4849 -0.1356 -0.1968
11054SOL    HW145221   4.963   4.345   4.935  0.2377  0.1798 -1.2124
11054SOL    HW245222   5.056   4.274   5.050 -2.3114 -0.5094  0.4718
11055SOL     OW45223   3.311   1.669   1.428 -0.8426  0.4077  0.5433
11055SOL    HW145224   3.304   1.581   1.381 -2.4790 -0.0177  1.5458
11055SOL    HW245225   3.307   1.744   1.361  1.6920 -0.2742 -0.4229
11056SOL     OW45226   0.622   2.329   0.150  0.0512 -0.0232  0.6735
11056SOL    HW145227   0.592   2.314   0.056  0.2282  1.8283  0.3039
11056SOL    HW245228   0.609   2.425   0.175 -0.1861 -0.5307  2.6205
11057SOL     OW45229   0.737   8.847   5.632 -0.1609 -0.0467 -0.4657
11057SOL    HW145230   0.681   8.912   5.581 -0.0300  0.5410  0.1338
11057SOL    HW245231   0.699   8.755   5.621 -2.2446  0.5415  1.2245
11058SOL     OW45232   6.204   5.307   6.011 -0.3699  0.2174 -0.0034
11058SOL    HW145233   6.184   5.351   5.923 -0.4056  1.0187  0.4039
11058SOL    HW245234   6.233   5.376   6.077  1.4359 -0.6057  0.1041
11059SOL     OW45235   8.905   8.028   5.174 -0.1126  0.8349  0.6642
11059SOL    HW145236   8.978   8.062   5.233  2.5736 -0.9774 -1.4780
11059SOL    HW245237   8.876   7.937   5.204  0.9724  0.0818 -0.5327
11060SOL     OW45238   4.972   8.025   8.018 -0.3473 -0.4678 -0.1572
11060SOL    HW145239   4.944   7.938   8.059 -0.6198 -1.2746 -2.0134
11060SOL    HW245240   5.044   8.008   7.950  0.4538  0.9050  0.3341
11061SOL     OW45241   2.509   3.704   7.372 -0.3464  0.5773  0.0878
11061SOL    HW145242   2.580   3.639   7.398  0.8786  0.9003 -2.2877
11061SOL    HW245243   2.435   3.701   7.438  0.5978 -1.7949  1.0863
11062SOL     OW45244   5.516   1.133   9.788 -0.2400  0.7023  0.8246
11062SOL    HW145245   5.518   1.177   9.698 -1.5930 -1.1959 -0.1841
11062SOL    HW245246   5.609   1.109   9.815  0.0692 -0.0082 -0.7636
11063SOL     OW45247   1.416   5.236   6.592  0.1888 -0.5487 -0.1882
11063SOL    HW145248   1.325   5.197   6.581 -0.1989  0.5057 -0.7772
11063SOL    HW245249   1.485   5.166   6.573 -0.4960 -0.9056 -1.4321
11064SOL     OW45250   3.172   3.976   1.589 -0.1196  0.2261 -0.2008
11064SOL    HW145251   3.082   3.932   1.589  0.5928 -1.2785 -1.3013
11064SOL    HW245252   3.224   3.944   1.510  1.8135  0.2155  1.0698
11065SOL     OW45253   4.262   3.527   5.511 -0.3048 -0.8599 -0.5759
11065SOL    HW145254   4.242   3.624   5.503 -0.2330 -0.6159  1.7045
11065SOL    HW245255   4.177   3.477   5.528  0.0452 -0.7240  1.7895
11066SOL     OW45256   4.908   8.647   4.952 -0.2240 -0.2433  0.2055
11066SOL    HW145257   4.899   8.560   5.002  0.9164 -1.8020 -2.2233
11066SOL    HW245258   4.823   8.666   4.903 -0.0962 -0.5335 -0.1274
11067SOL     OW45259   3.811   0.536   4.135  0.0088  0.5656 -0.0172
11067SOL    HW145260   3.730   0.478   4.127  1.3591 -1.3655  0.1516
11067SOL    HW245261   3.785   0.631   4.115 -2.2873 -0.0098  0.0439
11068SOL     OW45262   2.987   0.737   9.122  0.1325 -0.4776 -0.2479
11068SOL    HW145263   2.891   0.761   9.105  0.3227 -0.6611 -1.6749
11068SOL    HW245264   2.998   0.638   9.115 -0.0487 -0.7066  2.4667
11069SOL     OW45265   3.843   3.262   3.950  0.1303  0.8662  0.7333
11069SOL    HW145266   3.863   3.294   4.043  1.4199  1.3599  0.2973
11069SOL    HW245267   3.747   3.281   3.928  0.1501  1.9290  1.4985
11070SOL     OW45268   0.215   8.877   6.941 -0.7415 -0.1365  0.8311
11070SOL    HW145269   0.268   8.795   6.962  0.3150  0.5230  0.7405
11070SOL    HW245270   0.171   8.866   6.852  1.7691  0.5561 -0.5528
11071SOL     OW45271   0.945   0.220   2.534  0.7681 -0.3238  0.0365
11071SOL    HW145272   0.874   0.281   2.499  0.6299  0.5749  1.8418
11071SOL    HW245273   1.034   0.249   2.500  0.5900  0.2880  0.0925
11072SOL     OW45274   6.260   8.270   5.954  0.2142  0.4687 -0.2394
11072SOL    HW145275   6.265   8.321   6.039  2.8916 -0.1856  0.0409
11072SOL    HW245276   6.305   8.181   5.965  0.2618  0.2091 -2.2143
11073SOL     OW45277   3.139   9.250   5.195 -0.3854 -0.1107  0.1723
11073SOL    HW145278   3.073   9.310   5.241 -0.5107 -0.5792  0.6055
11073SOL    HW245279   3.103   9.157   5.192  0.1936 -0.3379  0.2705
11074SOL     OW45280   1.670   7.023   7.808  0.1470  0.0302 -0.4474
11074SOL    HW145281   1.640   6.982   7.723 -0.3725 -0.4279 -0.0490
11074SOL    HW245282   1.653   6.960   7.884 -0.7742  1.0065  0.1903
11075SOL     OW45283   1.210   0.465   5.272  0.2016 -0.3203  0.8825
11075SOL    HW145284   1.260   0.508   5.347  0.2719 -0.9208  1.1775
11075SOL    HW245285   1.113   0.487   5.280  0.0645 -1.2049  1.7149
11076SOL     OW45286   0.981   3.474   9.924  0.0726  0.0557  0.1679
11076SOL    HW145287   1.059   3.429   9.968  0.0697 -0.4805 -0.3632
11076SOL    HW245288   0.948   3.548   9.983 -0.5689 -1.2866  1.5427
11077SOL     OW45289   7.845   1.154   4.863  0.2757  0.6538 -0.3184
11077SOL    HW145290   7.881   1.093   4.793  1.3567 -0.5503  1.2418
11077SOL    HW245291   7.832   1.103   4.948 -1.5320  1.9578  0.2090
11078SOL     OW45292   5.014   8.677   0.041  0.1622  0.3718 -1.2303
11078SOL    HW145293   5.006   8.586   0.082  0.1682  0.1425 -1.7343
11078SOL    HW245294   4.966   8.744   0.098  0.0987  0.0394 -0.8951
11079SOL     OW45295   0.930   2.749   8.146  0.0815 -0.4658  0.4663
11079SOL    HW145296   0.987   2.801   8.082  0.0113 -1.0915 -0.1217
11079SOL    HW245297   0.860   2.699   8.094 -2.0307  1.5333  1.3044
11080SOL     OW45298   6.923   1.413   8.162 -0.0726  0.2516  0.4800
11080SOL    HW145299   6.886   1.500   8.196  0.2188  0.6136 -0.1294
11080SOL    HW245300   6.915   1.410   8.063 -0.2212 -0.4911  0.5118
11081SOL     OW45301   4.170   0.076   1.485  0.4097  0.1394 -0.2351
11081SOL    HW145302   4.098   0.066   1.553 -0.1921 -0.4320 -0.9507
11081SOL    HW245303   4.165   0.167   1.445  1.4117  0.8453  1.2039
11082SOL     OW45304   0.968   2.851   6.282  0.7213  0.2491 -0.6349
11082SOL    HW145305   1.039   2.784   6.300  1.4124  1.2038  0.2181
11082SOL    HW245306   0.922   2.828   6.196  0.5459 -1.6391 -0.0521
11083SOL     OW45307   0.500   5.430   7.828 -0.8887 -0.0286 -0.1863
11083SOL    HW145308   0.591   5.412   7.864 -0.9737 -1.5137 -0.6552
11083SOL    HW245309   0.431   5.400   7.893 -1.0394 -0.4571 -0.5390
11084SOL     OW45310   2.576   7.766   2.610  0.5201 -0.4186 -1.0656
11084SOL    HW145311   2.489   7.813   2.613  0.5643 -0.4058  0.4318
11084SOL    HW245312   2.561   7.667   2.615  0.5682 -0.4431 -1.3818
11085SOL     OW45313   2.022   8.294   9.500 -0.3887  0.4327 -0.0577
11085SOL    HW145314   2.105   8.244   9.476 -1.4310 -1.8115  0.8685
11085SOL    HW245315   2.043   8.367   9.564  0.6500 -1.0893  1.3505
11086SOL     OW45316   3.294   7.216   5.508  0.3041 -0.0196 -0.1961
11086SOL    HW145317   3.232   7.157   5.559  0.9446 -1.0940 -0.6412
11086SOL    HW245318   3.327   7.168   5.427  2.0563  0.3537  0.2709
11087SOL     OW45319   0.169   8.530   8.676 -0.8074 -0.3472  1.0041
11087SOL    HW145320   0.129   8.621   8.671 -0.2770 -0.2113 -0.9209
11087SOL    HW245321   0.132   8.482   8.756 -1.4616  1.3610  1.7367
11088SOL     OW45322   2.963   9.506   4.711 -0.2114  0.0949 -0.0939
11088SOL    HW145323   2.990   9.586   4.765  1.1627 -0.1951 -0.3205
11088SOL    HW245324   2.920   9.438   4.772 -0.3955  0.5531  0.2911
11089SOL     OW45325   3.560   7.644   1.007 -0.0371 -0.6026  0.0462
11089SOL    HW145326   3.494   7.701   0.958 -0.6279 -0.3451  1.1200
11089SOL    HW245327   3.586   7.566   0.951 -2.4281 -1.5429  0.2021
11090SOL     OW45328   5.495   7.898   6.979 -0.1404 -0.2202  1.1085
11090SOL    HW145329   5.555   7.830   6.939  0.7166  1.2892 -0.2446
11090SOL    HW245330   5.411   7.905   6.926 -0.4994 -0.6588  1.6139
11091SOL     OW45331   3.156   1.797   7.923  0.0536  0.0617  0.4704
11091SOL    HW145332   3.245   1.755   7.906 -0.1963 -0.0750 -0.5256
11091SOL    HW245333   3.141   1.871   7.857  0.0212  1.0121  1.5162
11092SOL     OW45334   8.281   1.641   5.875 -0.1756  0.3016 -0.3194
11092SOL    HW145335   8.332   1.584   5.939 -0.3477 -1.0330 -1.3440
11092SOL    HW245336   8.345   1.689   5.815 -0.0520  0.6161  0.0613
11093SOL     OW45337   3.076   0.532   9.518 -0.2464 -0.7737 -0.4760
11093SOL    HW145338   3.081   0.624   9.477 -0.0633 -0.9902 -0.9451
11093SOL    HW245339   3.093   0.538   9.616  1.9516 -0.5676 -0.8570
11094SOL     OW45340   4.251   5.080   9.868  0.0696 -0.0377  0.1384
11094SOL    HW145341   4.351   5.078   9.861  0.1079  0.9786  0.2730
11094SOL    HW245342   4.220   5.175   9.862 -1.0333 -0.4952 -1.8009
11095SOL     OW45343   7.757   2.668   9.600  0.6266 -0.0141  0.0839
11095SOL    HW145344   7.797   2.715   9.522  0.5720 -1.0648 -0.5833
11095SOL    HW245345   7.829   2.628   9.656  0.7029  1.3370  0.9614
11096SOL     OW45346   2.352   0.729   7.411  0.0097 -0.5865  0.2926
11096SOL    HW145347   2.324   0.648   7.462 -1.4807 -0.6062 -0.5109
11096SOL    HW245348   2.295   0.738   7.329  0.2878  1.1423  0.2662
11097SOL     OW45349   2.012   2.419   8.246  0.3032  0.0926  0.2592
11097SOL    HW145350   1.961   2.503   8.264  2.3118  1.9501 -2.2946
11097SOL    HW245351   1.998   2.390   8.151  3.5678  0.4291 -0.3972
11098SOL     OW45352   6.417   9.488   0.917  0.5660 -0.6357 -0.4281
11098SOL    HW145353   6.403   9.540   1.002  1.1973 -2.3172  0.7363
11098SOL    HW245354   6.415   9.390   0.938  2.9780 -1.0618 -1.9836
11099SOL     OW45355   3.700   5.244   7.967 -0.8994 -0.3636 -0.0894
11099SOL    HW145356   3.782   5.267   8.020 -1.3550  0.6266  0.2131
11099SOL    HW245357   3.699   5.146   7.948  1.0870 -0.1879 -1.3232
11100SOL     OW45358   3.267   8.420   5.806  0.2639  0.0115 -0.5990
11100SOL    HW145359   3.180   8.468   5.801  0.4892  0.3108 -2.0380
11100SOL    HW245360   3.280   8.366   5.722 -0.5941 -3.6262  1.5042
11101SOL     OW45361   4.170   0.418   9.808  0.1979  0.0176 -0.8241
11101SOL    HW145362   4.262   0.439   9.775  0.0016  1.6401 -0.3988
11101SOL    HW245363   4.176   0.352   9.883  0.8987 -0.9493 -1.7222
11102SOL     OW45364   4.748   0.052   6.648  0.1353  0.2193  0.2258
11102SOL    HW145365   4.712   0.144   6.633  0.4041  0.2902  0.0061
11102SOL    HW245366   4.682  -0.016   6.616 -0.9893  0.2762  2.3084
11103SOL     OW45367   1.651   7.303   2.216  0.2847 -0.0890  0.0940
11103SOL    HW145368   1.622   7.228   2.157 -1.5085  1.6384 -1.3209
11103SOL    HW245369   1.605   7.387   2.187  2.9490  1.7582  1.0339
11104SOL     OW45370   5.684   1.999   3.724  0.3946  0.4469  0.6217
11104SOL    HW145371   5.605   1.994   3.664  1.8558  0.5554 -1.3641
11104SOL    HW245372   5.706   2.095   3.743 -0.1008  0.4113  1.3779
11105SOL     OW45373   7.288   6.464   9.250 -0.0856  0.2267  0.7493
11105SOL    HW145374   7.365   6.515   9.290  0.4667  0.8398 -1.0502
11105SOL    HW245375   7.315   6.428   9.161 -1.8427  0.2839  0.1817
11106SOL     OW45376   0.879   7.959   5.367  0.1069 -0.2726 -0.0593
11106SOL    HW145377   0.874   8.059   5.359  0.0643 -0.1856  1.0550
11106SOL    HW245378   0.929   7.922   5.288  1.2591  0.7367  0.1813
11107SOL     OW45379   3.803   8.819   7.195  0.2929  0.7321 -0.9838
11107SOL    HW145380   3.831   8.759   7.270  0.5337  1.0392 -0.8277
11107SOL    HW245381   3.747   8.894   7.230 -0.1207  0.5254 -1.1986
11108SOL     OW45382   6.836   8.232   5.571  0.6971 -0.0611 -0.3085
11108SOL    HW145383   6.855   8.137   5.594 -0.5023 -0.3810 -0.6048
11108SOL    HW245384   6.874   8.253   5.481  1.4723 -0.0839  0.0061
11109SOL     OW45385   9.619   7.055   3.352  0.1981 -0.4491 -0.6739
11109SOL    HW145386   9.588   7.112   3.276 -2.2679  0.2980  0.8349
11109SOL    HW245387   9.685   7.106   3.407 -0.2729  0.1101 -0.6217
11110SOL     OW45388   3.804   4.983   6.592  0.3531  0.5462  0.2977
11110SOL    HW145389   3.861   5.031   6.525  0.5167 -0.1743 -0.0865
11110SOL    HW245390   3.769   4.899   6.551  0.5147  0.0615  1.1435
11111SOL     OW45391   2.817   1.549   9.074 -0.1054 -1.1361  0.3746
11111SOL    HW145392   2.782   1.625   9.018 -0.9860 -0.1106  2.2650
11111SOL    HW245393   2.769   1.465   9.050  1.9064 -1.4828 -2.7950
11112SOL     OW45394   1.337   1.685   9.466 -0.1627  0.1315 -0.1400
11112SOL    HW145395   1.271   1.631   9.518  1.1254 -0.1782  1.2012
11112SOL    HW245396   1.304   1.780   9.459 -1.1178 -0.1974 -0.1549
11113SOL     OW45397   1.394   1.651   5.031 -0.6721  0.5934 -0.4516
11113SOL    HW145398   1.435   1.707   5.103 -1.6385 -0.1993  0.7139
11113SOL    HW245399   1.325   1.590   5.070 -1.3863  0.3343 -2.0804
11114SOL     OW45400   1.604   8.632   4.145  0.1854  0.2216 -0.2695
11114SOL    HW145401   1.689   8.601   4.187  0.0580  1.9879  1.3503
11114SOL    HW245402   1.623   8.711   4.087 -0.3003  0.4179 -0.1603
11115SOL     OW45403   4.950   9.016   7.564 -0.3750 -0.5139  0.3319
11115SOL    HW145404   4.911   8.948   7.502 -0.7008  0.7785 -0.8919
11115SOL    HW245405   4.879   9.081   7.592  0.6155  1.1837 -1.0051
11116SOL     OW45406   3.302   8.977   5.017  0.1632 -0.0655  0.3962
11116SOL    HW145407   3.280   9.014   4.927 -0.7001  0.6237  0.8784
11116SOL    HW245408   3.219   8.974   5.073  0.8717  0.3991  1.4832
11117SOL     OW45409   1.176   4.229   6.905 -0.1264 -0.1470 -0.0446
11117SOL    HW145410   1.215   4.137   6.910 -1.0786 -0.7290 -2.4186
11117SOL    HW245411   1.082   4.227   6.938 -0.6330 -0.3674 -1.4434
11118SOL     OW45412   6.755   3.216   0.465 -0.0356 -0.4308  0.3073
11118SOL    HW145413   6.692   3.281   0.507  0.5747  1.0100 -0.9556
11118SOL    HW245414   6.849   3.239   0.491  0.1620 -0.9916  0.1005
11119SOL     OW45415   3.141   9.407   2.086  0.0751  0.2862 -0.7149
11119SOL    HW145416   3.090   9.482   2.128  2.0669  0.2331  1.9356
11119SOL    HW245417   3.077   9.342   2.044 -1.9227  0.9778  1.1765
11120SOL     OW45418   6.875   8.852   7.426  0.0208  0.4507  0.1205
11120SOL    HW145419   6.886   8.922   7.355  1.1826  0.9138  0.7456
11120SOL    HW245420   6.822   8.775   7.389  0.8097  0.5862 -1.3295
11121SOL     OW45421   2.357   5.533   7.622 -0.1415  0.2598 -0.5742
11121SOL    HW145422   2.441   5.585   7.605 -0.7416  1.5054  0.1654
11121SOL    HW245423   2.374   5.436   7.607  1.1104  0.6257 -1.6139
11122SOL     OW45424   7.932   7.706   6.984  0.2889 -0.6567  0.3674
11122SOL    HW145425   7.907   7.799   6.958 -0.5204 -0.7709  0.7330
11122SOL    HW245426   7.941   7.650   6.902  1.7220 -0.0301  0.0808
11123SOL     OW45427   1.408   9.787   6.533 -0.4235 -0.2335 -0.4908
11123SOL    HW145428   1.456   9.820   6.615 -0.8514 -1.7676  0.4009
11123SOL    HW245429   1.359   9.703   6.555  1.0627 -1.7586 -2.8261
11124SOL     OW45430   4.072   7.692   0.943  0.2617 -0.3890  0.5202
11124SOL    HW145431   4.082   7.646   1.032 -1.2212 -1.4672  0.1464
11124SOL    HW245432   4.159   7.733   0.917  0.4991  0.6390  2.8629
11125SOL     OW45433   9.598   5.688   8.846  0.4272 -0.2340 -0.0166
11125SOL    HW145434   9.678   5.630   8.836 -0.3987 -1.4152  0.1549
11125SOL    HW245435   9.613   5.754   8.919  0.7850 -1.2116  0.7942
11126SOL     OW45436   2.903   8.685   8.886 -0.2450  0.0319  0.3410
11126SOL    HW145437   2.848   8.769   8.885  0.0354  0.2147 -0.1892
11126SOL    HW245438   2.855   8.614   8.835 -1.0581 -0.5072  1.8464
11127SOL     OW45439   7.315   8.524   5.950  0.0946 -0.1240 -0.1841
11127SOL    HW145440   7.271   8.527   5.860 -0.5864  1.9273  0.1931
11127SOL    HW245441   7.402   8.574   5.947  0.2726 -0.4070  0.1770
11128SOL     OW45442   3.317   8.339   3.052  0.0924  0.2436 -0.2809
11128SOL    HW145443   3.292   8.301   2.963  0.6354 -0.8257  0.0092
11128SOL    HW245444   3.334   8.264   3.116  1.6181  0.9839  0.1968
11129SOL     OW45445   2.114   0.170   5.263 -0.6177 -0.1317 -0.1691
11129SOL    HW145446   2.029   0.131   5.229  1.4107 -2.3548 -2.9895
11129SOL    HW245447   2.172   0.097   5.299  0.4208  1.2428  1.0005
11130SOL     OW45448   6.543   6.032   8.848  0.5674 -0.2951  0.0578
11130SOL    HW145449   6.606   5.975   8.900  1.6511  0.5406 -0.3119
11130SOL    HW245450   6.592   6.074   8.772 -0.5502  0.0105 -0.5065
11131SOL     OW45451   2.702   7.895   9.104  0.0227 -0.3868  0.3389
11131SOL    HW145452   2.794   7.930   9.121  0.1642  0.2978 -1.7452
11131SOL    HW245453   2.650   7.896   9.189  0.6506  3.0497  0.7511
11132SOL     OW45454   4.815   7.072   7.614  0.5274  0.0739  0.2181
11132SOL    HW145455   4.892   7.014   7.587 -0.2428 -1.1288  0.5657
11132SOL    HW245456   4.830   7.104   7.708  0.0329 -1.1882  0.7521
11133SOL     OW45457   9.165   6.677   8.964 -0.4306  0.0465  0.3726
11133SOL    HW145458   9.125   6.585   8.967 -1.5459  0.5663  2.4754
11133SOL    HW245459   9.182   6.703   8.869 -2.0500 -1.5129 -0.3671
11134SOL     OW45460   1.177   2.565   2.188  0.2102 -0.0789 -0.5281
11134SOL    HW145461   1.140   2.473   2.177  0.5052 -0.2984  0.2834
11134SOL    HW245462   1.275   2.560   2.206 -0.0477  0.3093  1.0282
11135SOL     OW45463   6.707   6.050   7.888 -0.6388 -0.5458 -0.6764
11135SOL    HW145464   6.701   5.954   7.861  0.5798 -0.0854 -2.6749
11135SOL    HW245465   6.803   6.076   7.899 -0.9240  0.6317 -0.8777
11136SOL     OW45466   1.117   6.111   0.826 -0.1401  0.0966 -0.3523
11136SOL    HW145467   1.200   6.151   0.865 -1.1483  1.6293  0.2547
11136SOL    HW245468   1.081   6.042   0.890 -0.4692  0.9055  0.3451
11137SOL     OW45469   9.539   2.563   9.600  1.0989  0.4537 -0.0585
11137SOL    HW145470   9.488   2.637   9.643  1.9344  1.3983 -0.6615
11137SOL    HW245471   9.481   2.517   9.532  0.8110  1.0392 -0.2159
11138SOL     OW45472   2.060   4.183   1.517  0.6299  0.1293 -0.2480
11138SOL    HW145473   2.149   4.141   1.499  0.9035  0.8571 -0.6027
11138SOL    HW245474   2.073   4.273   1.559  0.0876  0.6889 -1.2573
11139SOL     OW45475   6.087   8.488   7.683 -0.5273 -0.5073  0.5097
11139SOL    HW145476   6.047   8.478   7.774 -2.0102  0.3447 -0.0309
11139SOL    HW245477   6.073   8.404   7.631 -1.2325 -0.3764  0.4809
11140SOL     OW45478   0.154   9.743   0.205  0.4075  0.0996  0.2378
11140SOL    HW145479   0.096   9.746   0.286  0.8124 -2.8959  0.6813
11140SOL    HW245480   0.246   9.712   0.230  1.1529  1.1718 -1.0582
11141SOL     OW45481   5.580   3.015   0.011  0.0523  0.2894  0.4820
11141SOL    HW145482   5.494   2.989  -0.033 -0.6756  2.0720  0.8154
11141SOL    HW245483   5.657   2.988  -0.047 -0.8093  0.4646 -0.7541
11142SOL     OW45484   2.114   2.939   2.943 -0.6961 -0.4966 -0.3578
11142SOL    HW145485   2.161   2.974   2.862  2.0044 -0.8997  0.9987
11142SOL    HW245486   2.038   2.880   2.914 -0.4918  0.2889 -2.5823
11143SOL     OW45487   2.875   1.049   1.176  1.0934  0.0187  0.3822
11143SOL    HW145488   2.940   1.036   1.251 -0.2949 -2.4228  1.2195
11143SOL    HW245489   2.803   1.112   1.205  1.7648  0.8350  0.2968
11144SOL     OW45490   6.384   9.573   1.927 -0.2397  0.0592 -0.5469
11144SOL    HW145491   6.472   9.540   1.964  0.6070 -0.4102 -2.8997
11144SOL    HW245492   6.327   9.495   1.902 -0.4772  0.3579 -0.9450
11145SOL     OW45493   5.447   4.748   3.428 -0.0492 -0.1649  0.1446
11145SOL    HW145494   5.424   4.658   3.390 -1.4010 -0.3012  1.2495
11145SOL    HW245495   5.395   4.819   3.378 -0.6071 -0.1987  0.6706
11146SOL     OW45496   1.037   9.082   1.778 -0.2150 -0.2191  0.0229
11146SOL    HW145497   1.019   9.109   1.872  1.2822 -1.3388  0.6378
11146SOL    HW245498   0.959   9.030   1.743 -1.3514  1.3270  0.1691
11147SOL     OW45499   2.371   6.614   3.188 -0.1436  0.1222 -0.2092
11147SOL    HW145500   2.359   6.528   3.237  0.0831 -0.0567 -0.4612
11147SOL    HW245501   2.406   6.595   3.096  1.9008  0.6027  0.4497
11148SOL     OW45502   7.152   2.115   3.462 -0.2216  0.7452  0.3496
11148SOL    HW145503   7.195   2.174   3.394  0.0476  1.1880  0.8892
11148SOL    HW245504   7.202   2.123   3.549  0.7473 -1.4577  0.0178
11149SOL     OW45505   8.906   6.960   8.705  0.4583 -0.1490 -0.5806
11149SOL    HW145506   8.892   6.865   8.734  0.0453  0.3524  0.8836
11149SOL    HW245507   8.855   6.977   8.621 -1.2201 -0.6214  0.3158
11150SOL     OW45508   3.261   1.042   9.882  0.7853 -0.0487  0.4554
11150SOL    HW145509   3.251   0.979   9.805  0.2028  0.8550 -0.2131
11150SOL    HW245510   3.180   1.037   9.940  0.3711  0.7101 -0.0610
11151SOL     OW45511   6.228   8.943   2.074  0.2291 -0.2956 -0.2558
11151SOL    HW145512   6.138   8.939   2.119 -0.6125 -1.8425 -2.0263
11151SOL    HW245513   6.258   9.038   2.068 -0.2016  0.0694  2.4154
11152SOL     OW45514   0.412   6.871   9.396  0.4137 -0.5018 -0.4938
11152SOL    HW145515   0.420   6.957   9.345  2.2050 -1.2093 -1.4514
11152SOL    HW245516   0.419   6.794   9.332 -0.5254 -1.3748  0.4420
11153SOL     OW45517   1.538   2.947   3.421 -0.2267 -0.5842  0.0975
11153SOL    HW145518   1.522   3.038   3.384 -0.3148 -1.0932 -1.1405
11153SOL    HW245519   1.626   2.944   3.468 -0.9856  0.5955  1.6542
11154SOL     OW45520   1.185   5.350   3.013  0.3433 -0.1069  0.3737
11154SOL    HW145521   1.202   5.326   3.109  0.9829 -2.3470 -0.2633
11154SOL    HW245522   1.092   5.322   2.989  0.9881 -1.7585 -0.2878
11155SOL     OW45523   0.549   3.725   3.447  0.4509  0.5612  0.1550
11155SOL    HW145524   0.631   3.713   3.503  1.0875 -0.8042 -1.0271
11155SOL    HW245525   0.529   3.639   3.400  0.1179  1.7589 -1.9473
11156SOL     OW45526   5.077   5.252   1.123  0.4702  0.1099  0.7623
11156SOL    HW145527   5.049   5.325   1.185 -1.5378 -1.4432  1.7314
11156SOL    HW245528   5.009   5.242   1.050  1.1796 -0.2340  0.1322
11157SOL     OW45529   0.600   2.066   9.417  0.5594  0.1694  0.2821
11157SOL    HW145530   0.695   2.085   9.441  0.2836  1.2284  0.5712
11157SOL    HW245531   0.554   2.151   9.393 -0.2710 -0.3603 -0.0233
11158SOL     OW45532   0.465   0.503   9.866 -0.3657 -0.0094  0.5135
11158SOL    HW145533   0.511   0.420   9.897 -2.0228 -0.9223  0.5968
11158SOL    HW245534   0.462   0.504   9.766  1.3715  0.9327  0.4436
11159SOL     OW45535   0.033   0.408   5.725 -0.9644 -0.4741 -0.8795
11159SOL    HW145536   0.120   0.406   5.775 -0.9985  0.6649 -0.7560
11159SOL    HW245537   0.028   0.330   5.663 -0.6060 -1.5123  0.3840
11160SOL     OW45538   7.631   3.546   9.674 -0.0242  0.3534  0.8829
11160SOL    HW145539   7.611   3.497   9.589  0.9922 -0.0431  0.8595
11160SOL    HW245540   7.556   3.533   9.739  1.2208 -3.1771  1.7192
11161SOL     OW45541   7.116   8.741   3.220 -0.1780  0.1457  0.2691
11161SOL    HW145542   7.093   8.748   3.317  1.2438 -0.3776  0.6652
11161SOL    HW245543   7.199   8.794   3.201  1.2248 -2.0812 -0.0299
11162SOL     OW45544   5.490   6.709   2.579  0.0975  0.1283 -0.0691
11162SOL    HW145545   5.436   6.709   2.495 -1.3696  0.2066  0.8621
11162SOL    HW245546   5.501   6.803   2.612 -0.5452 -0.0272  0.5963
11163SOL     OW45547   6.834   9.090   0.255 -0.6215 -0.2481  0.1554
11163SOL    HW145548   6.845   9.013   0.192  2.4641  0.8274 -0.7262
11163SOL    HW245549   6.853   9.060   0.349  1.3414 -0.4464 -0.2807
11164SOL     OW45550   5.931   3.897   8.685  0.0560 -0.4026  0.9693
11164SOL    HW145551   5.910   3.864   8.777 -1.0444 -0.2160  0.7951
11164SOL    HW245552   5.846   3.924   8.639  0.8130  1.6866  0.7275
11165SOL     OW45553   6.006   5.232   1.139  0.7723  0.0890 -0.1732
11165SOL    HW145554   5.924   5.211   1.086  1.0248  1.4347 -1.0990
11165SOL    HW245555   6.050   5.314   1.104  0.0091  2.0269  3.1900
11166SOL     OW45556   9.454   1.694   0.849 -0.4902 -0.2382 -0.3991
11166SOL    HW145557   9.421   1.788   0.858  1.8538  0.5507  0.4317
11166SOL    HW245558   9.443   1.647   0.936 -2.3608 -0.9768 -1.0308
11167SOL     OW45559   6.254   0.918   6.562  0.4720 -0.2026  0.1267
11167SOL    HW145560   6.225   0.822   6.568 -1.3350  0.2757 -0.7372
11167SOL    HW245561   6.208   0.962   6.485  1.1922  1.4093  0.5942
11168SOL     OW45562   6.880   6.982   0.872  0.1394  0.1049  0.7370
11168SOL    HW145563   6.932   7.054   0.917 -0.5507 -0.3566  2.3085
11168SOL    HW245564   6.796   7.020   0.834  0.5947  0.4447  0.0558
11169SOL     OW45565   0.239   1.013   6.442 -0.2416  0.5778  0.0662
11169SOL    HW145566   0.282   1.101   6.463  0.5202 -0.3514  2.5370
11169SOL    HW245567   0.297   0.961   6.379  0.8739  0.5187  1.1315
11170SOL     OW45568   2.918   2.283   0.136 -0.3983  0.0238  0.3543
11170SOL    HW145569   2.910   2.222   0.215 -0.0449  0.1498  0.4869
11170SOL    HW245570   2.844   2.350   0.139 -0.8157 -0.4228  0.1857
11171SOL     OW45571   3.166   4.529   0.064  0.2441  0.0757  0.2630
11171SOL    HW145572   3.246   4.469   0.063  1.4522  1.6908 -1.6901
11171SOL    HW245573   3.117   4.520  -0.023 -0.6771  0.4624  0.7387
11172SOL     OW45574   4.159   0.498   4.912  0.3569  0.0741 -0.1611
11172SOL    HW145575   4.198   0.549   4.835  0.1509 -2.4740 -2.0353
11172SOL    HW245576   4.101   0.559   4.967  4.1891  3.0635  0.7166
11173SOL     OW45577   3.201   3.875   2.002 -0.1323 -0.0240 -0.0265
11173SOL    HW145578   3.106   3.868   1.970  0.5395 -0.6812 -1.9228
11173SOL    HW245579   3.263   3.863   1.925  1.5000  1.0880  1.0841
11174SOL     OW45580   1.406   7.430   9.178  0.0424 -0.3381 -0.1501
11174SOL    HW145581   1.472   7.420   9.251 -1.2158  0.0114  1.0572
11174SOL    HW245582   1.377   7.526   9.171  3.1375  0.4612 -3.7773
11175SOL     OW45583   6.571   1.951   2.511 -0.5900 -0.1400 -0.0119
11175SOL    HW145584   6.471   1.944   2.510 -0.6344  0.0886  1.9070
11175SOL    HW245585   6.611   1.860   2.509 -0.8075 -0.2212 -1.5219
11176SOL     OW45586   0.905   9.813   9.772 -0.3695  0.8723  0.3082
11176SOL    HW145587   0.881   9.815   9.675 -0.7122  0.2612  0.3759
11176SOL    HW245588   0.912   9.906   9.806 -0.7929  1.0867 -0.1731
11177SOL     OW45589   4.518   1.346   8.093 -0.1176  0.0362  0.1421
11177SOL    HW145590   4.516   1.445   8.078 -1.2666  0.0936  0.6396
11177SOL    HW245591   4.570   1.326   8.177  0.3958  0.1834 -0.1355
11178SOL     OW45592   0.709   5.425   8.418 -0.6867 -0.4211 -0.4536
11178SOL    HW145593   0.736   5.433   8.513 -2.1237 -3.1013  0.2407
11178SOL    HW245594   0.786   5.448   8.359  1.0514 -1.3979  1.3866
11179SOL     OW45595   0.119   7.732   0.431  0.4451  0.0327 -0.3192
11179SOL    HW145596   0.105   7.655   0.369  5.7606 -1.7932  0.4714
11179SOL    HW245597   0.161   7.808   0.380  1.7790 -0.2793  0.2729
11180SOL     OW45598   4.561   3.720   9.033  0.3059 -0.2096  0.1635
11180SOL    HW145599   4.473   3.679   9.009 -0.2190  1.0905 -0.1308
11180SOL    HW245600   4.576   3.709   9.132  0.0759 -0.9088  0.1294
11181SOL     OW45601   3.193   1.943   0.342 -0.4202 -0.2997  0.0931
11181SOL    HW145602   3.104   1.986   0.356 -0.2145  0.0547  0.3410
11181SOL    HW245603   3.194   1.895   0.254 -0.6634  0.1915 -0.1784
11182SOL     OW45604   8.471   6.220   3.750  0.2650 -0.6514  0.1190
11182SOL    HW145605   8.425   6.268   3.825 -0.4443 -1.5875  0.2927
11182SOL    HW245606   8.432   6.249   3.663  2.2242  1.6955 -0.0334
11183SOL     OW45607   8.180   1.964   1.849 -0.2384 -0.6217  0.8316
11183SOL    HW145608   8.100   1.959   1.790  1.0219 -3.8044 -0.7622
11183SOL    HW245609   8.225   2.053   1.838 -1.4314 -0.2381 -1.1437
11184SOL     OW45610   1.152   7.305   7.865 -0.0833 -0.4446  0.2640
11184SOL    HW145611   1.070   7.286   7.918  0.9880 -0.1162  2.0755
11184SOL    HW245612   1.190   7.219   7.830 -2.9432 -0.3644 -3.3493
11185SOL     OW45613   5.240   2.026   0.833  0.6183  0.1318 -0.8984
11185SOL    HW145614   5.260   2.116   0.794  1.5582  0.3730  0.1258
11185SOL    HW245615   5.257   2.028   0.931 -2.2066 -0.3233 -0.3447
11186SOL     OW45616   1.727   9.675   7.467  0.1740  0.1940  0.1967
11186SOL    HW145617   1.722   9.687   7.368  0.1568  0.6216  0.2485
11186SOL    HW245618   1.817   9.702   7.500  0.3099 -0.3215  0.2486
11187SOL     OW45619   4.271   7.949   2.399 -0.8018 -0.0624  0.1765
11187SOL    HW145620   4.227   7.974   2.485 -1.3548 -0.2628 -0.0436
11187SOL    HW245621   4.324   7.865   2.412 -0.8198 -0.0476  0.3431
11188SOL     OW45622   3.950   1.899   1.797 -0.2556  0.5298 -0.1188
11188SOL    HW145623   3.854   1.899   1.767 -0.5759  1.7471  0.8539
11188SOL    HW245624   4.002   1.964   1.743  0.2482 -0.8006 -1.2721
11189SOL     OW45625   0.218   0.945   0.873  0.3888  0.2002  0.0421
11189SOL    HW145626   0.275   1.024   0.848  1.4883 -0.6677 -0.2409
11189SOL    HW245627   0.173   0.909   0.791  0.1513  0.3284  0.1160
11190SOL     OW45628   6.709   2.003   2.279  0.0881 -0.5402  0.2934
11190SOL    HW145629   6.680   1.991   2.373 -0.3166 -0.6921  0.1476
11190SOL    HW245630   6.801   2.042   2.277  0.4748 -1.4200  0.7600
11191SOL     OW45631   6.556   7.817   5.121 -0.0322  0.3975  0.0966
11191SOL    HW145632   6.516   7.751   5.185  1.8864  1.6979  2.7019
11191SOL    HW245633   6.641   7.854   5.158 -0.2000  3.1428 -2.0245
11192SOL     OW45634   7.239   9.667   9.594 -0.2457  0.1258 -0.0862
11192SOL    HW145635   7.325   9.710   9.624 -1.1039  1.3797  0.5952
11192SOL    HW245636   7.222   9.691   9.499 -1.1491  2.0404  0.5292
11193SOL     OW45637   2.663   2.333   2.173 -0.1967  0.0465 -0.0780
11193SOL    HW145638   2.687   2.397   2.246 -0.2350 -0.5170  0.4279
11193SOL    HW245639   2.615   2.382   2.100 -0.5594  0.5215  0.4820
11194SOL     OW45640   4.054   0.324   8.283  0.4641  0.0301 -0.0742
11194SOL    HW145641   4.136   0.307   8.230  0.7961  0.6522  0.2378
11194SOL    HW245642   3.980   0.264   8.251  0.5857  0.5913 -1.3909
11195SOL     OW45643   5.001   6.067   3.789  0.1346  0.6718  0.1070
11195SOL    HW145644   4.972   5.986   3.738  1.4346  0.0718  0.2953
11195SOL    HW245645   4.921   6.120   3.816 -0.7322 -0.5348 -0.0494
11196SOL     OW45646   3.063   8.488   0.739  0.3794 -0.2421 -0.0341
11196SOL    HW145647   3.107   8.520   0.823 -0.6768 -0.1701  0.5035
11196SOL    HW245648   2.981   8.436   0.763  1.2303 -2.0159 -0.9638
11197SOL     OW45649   6.608   7.229   3.198 -0.5557 -0.3487  0.2506
11197SOL    HW145650   6.610   7.162   3.272 -0.3614 -0.9059 -0.2538
11197SOL    HW245651   6.674   7.202   3.127 -0.4082  0.4295  0.0951
11198SOL     OW45652   2.618   1.211   1.016 -0.0869  0.1820 -0.3366
11198SOL    HW145653   2.536   1.265   1.030 -1.2834 -1.6965  0.1204
11198SOL    HW245654   2.648   1.172   1.103  0.0620 -0.8449 -0.8388
11199SOL     OW45655   6.455   9.730   0.111 -0.2716 -0.3000 -0.2591
11199SOL    HW145656   6.430   9.691   0.199 -0.7206 -1.8784 -1.0639
11199SOL    HW245657   6.554   9.723   0.098 -0.2234 -0.2012  0.0432
11200SOL     OW45658   6.378   3.818   4.010 -0.3236 -0.1725  0.4506
11200SOL    HW145659   6.289   3.843   3.972 -0.8954 -0.7424  1.3902
11200SOL    HW245660   6.415   3.895   4.061 -0.3399  0.0246  0.1651
11201SOL     OW45661   7.122   9.354   4.454 -0.2309  0.2458  0.8636
11201SOL    HW145662   7.099   9.257   4.463  4.4640 -1.0256  0.3116
11201SOL    HW245663   7.132   9.377   4.357  0.0015  0.9497  1.0525
11202SOL     OW45664   6.013   6.233   1.806  0.3501  0.2943 -0.1264
11202SOL    HW145665   6.026   6.159   1.739 -0.0540  0.9735 -0.9592
11202SOL    HW245666   5.929   6.283   1.785 -0.3549 -0.1485  1.5239
11203SOL     OW45667   1.634   9.837   9.262 -0.2506  0.2485  0.1040
11203SOL    HW145668   1.630   9.840   9.162  2.9036  0.5516 -0.0623
11203SOL    HW245669   1.607   9.746   9.293  2.7537 -1.2200 -1.3459
11204SOL     OW45670   0.156   6.685   8.470  0.2566 -0.4335 -0.6889
11204SOL    HW145671   0.079   6.729   8.423  0.2685 -0.4428 -0.7170
11204SOL    HW245672   0.180   6.601   8.421  2.0253  0.9422 -2.2677
11205SOL     OW45673   6.163   7.998   0.920 -0.6143  0.0313  0.1932
11205SOL    HW145674   6.250   7.997   0.871  0.8811 -0.5291  2.7933
11205SOL    HW245675   6.108   7.919   0.893  0.0328 -0.0825 -0.8088
11206SOL     OW45676   6.876   2.059   9.116 -0.2090 -0.2415 -0.0328
11206SOL    HW145677   6.925   1.996   9.056  0.4791 -0.4701  0.7465
11206SOL    HW245678   6.899   2.153   9.091 -0.8823 -0.3100 -0.9062
11207SOL     OW45679   6.538   5.127   7.558 -0.1651  0.3120  0.3301
11207SOL    HW145680   6.484   5.053   7.520  1.1829 -0.1544 -0.7082
11207SOL    HW245681   6.489   5.168   7.635 -0.8083 -1.8157  1.0883
11208SOL     OW45682   9.371   9.302   5.086  0.0951  0.0278  0.2044
11208SOL    HW145683   9.292   9.243   5.074 -0.6889  0.9082  0.9801
11208SOL    HW245684   9.440   9.255   5.141  0.2257 -0.8250 -0.6666
11209SOL     OW45685   6.567   5.293   2.679  0.0994  0.2182  0.0535
11209SOL    HW145686   6.606   5.228   2.744 -1.0874 -0.4616  0.0981
11209SOL    HW245687   6.467   5.289   2.684 -0.0113  0.0884 -1.8939
11210SOL     OW45688   9.123   9.199   7.630 -0.1106  0.0362  0.5143
11210SOL    HW145689   9.036   9.176   7.672  0.2382 -1.9766  0.1781
11210SOL    HW245690   9.197   9.148   7.675  0.7043  0.5985 -0.1618
11211SOL     OW45691   0.422   0.977   6.213 -0.0158  0.1466 -0.2363
11211SOL    HW145692   0.384   1.044   6.149 -0.9869 -0.0351  0.1280
11211SOL    HW245693   0.493   0.923   6.167  0.6171  1.2704 -0.5941
11212SOL     OW45694   3.892   9.567   9.183  0.2047 -0.4776  0.3372
11212SOL    HW145695   3.840   9.482   9.178 -0.3092 -0.2293  1.2273
11212SOL    HW245696   3.885   9.616   9.097  0.3560 -1.2587 -0.1200
11213SOL     OW45697   6.589   5.898   0.951  0.4076 -0.0299  0.4207
11213SOL    HW145698   6.644   5.972   0.990 -0.1603  0.4098  0.3930
11213SOL    HW245699   6.644   5.815   0.945  1.5577  0.8472 -1.1563
11214SOL     OW45700   0.338   2.561   4.517 -0.2631  0.3202  0.0190
11214SOL    HW145701   0.395   2.481   4.497 -1.3345 -0.5106  0.2454
11214SOL    HW245702   0.394   2.631   4.562  0.6083 -0.4204  0.1092
11215SOL     OW45703   0.914   7.017   8.632  0.0447 -0.6056  0.5335
11215SOL    HW145704   0.955   6.928   8.651  0.4086 -0.8241 -1.2052
11215SOL    HW245705   0.975   7.090   8.663  0.3565 -0.9552  0.7428
11216SOL     OW45706   2.792   1.276   6.853 -1.0400  0.0038 -0.0373
11216SOL    HW145707   2.876   1.252   6.903  0.0412  0.7457 -1.4823
11216SOL    HW245708   2.732   1.196   6.850  0.2317 -0.9731 -0.2000
11217SOL     OW45709   6.868   1.995   0.192  0.4348  0.0789 -0.1952
11217SOL    HW145710   6.912   1.935   0.125 -0.1326 -0.3955 -0.1457
11217SOL    HW245711   6.937   2.054   0.235  0.9083 -0.1475 -0.6489
11218SOL     OW45712   6.366   5.245   2.212 -0.3595 -0.2907  0.2663
11218SOL    HW145713   6.460   5.260   2.242 -0.3962 -0.3759  0.4213
11218SOL    HW245714   6.363   5.163   2.154 -0.4411 -0.6427  0.7593
11219SOL     OW45715   3.821   9.468   2.916  0.1963 -0.1784  0.3227
11219SOL    HW145716   3.765   9.446   2.996 -0.3844 -1.0950 -0.3266
11219SOL    HW245717   3.899   9.524   2.944  0.3198 -0.9826  1.6239
11220SOL     OW45718   4.346   1.225   2.930 -0.2289  0.1131  0.1866
11220SOL    HW145719   4.408   1.215   2.852 -0.0342 -0.1996  0.3791
11220SOL    HW245720   4.335   1.136   2.975 -1.6968 -0.0739 -0.5133
11221SOL     OW45721   4.499   1.620   2.107 -0.6037  0.5794 -0.4944
11221SOL    HW145722   4.507   1.521   2.123 -2.0843  0.5517  0.1651
11221SOL    HW245723   4.570   1.649   2.044  0.3757 -0.7666 -0.0482
11222SOL     OW45724   7.078   0.278   8.132  0.3468 -0.4473 -0.2047
11222SOL    HW145725   7.001   0.220   8.105 -0.9941  0.3410  1.7805
11222SOL    HW245726   7.044   0.366   8.164  1.9786 -0.4012  1.5211
11223SOL     OW45727   4.647   2.903   4.675  0.0767 -0.3384  0.5699
11223SOL    HW145728   4.643   2.855   4.762 -0.2509 -0.6813  0.3696
11223SOL    HW245729   4.702   2.851   4.610 -0.8697 -0.8056  0.1341
11224SOL     OW45730   6.517   0.053   1.718 -0.0697 -0.4786 -0.5261
11224SOL    HW145731   6.466   0.061   1.632 -1.8623 -0.4703  0.5077
11224SOL    HW245732   6.557  -0.039   1.725  0.0101 -0.5104 -1.3096
11225SOL     OW45733   0.037   8.858   5.678 -0.3411  0.2092  0.8322
11225SOL    HW145734   0.012   8.768   5.713  1.5034 -0.4728  0.4573
11225SOL    HW245735   0.042   8.923   5.755 -3.4359  0.4713  0.8919
11226SOL     OW45736   8.355   1.581   3.271 -0.5587 -0.0331  0.0238
11226SOL    HW145737   8.421   1.574   3.196 -0.2889 -2.2831  0.4242
11226SOL    HW245738   8.268   1.538   3.244 -0.2227 -1.5451  1.2066
11227SOL     OW45739   8.210   0.133   4.643 -0.7399  0.0251 -0.1086
11227SOL    HW145740   8.221   0.115   4.740 -2.5402 -0.3455  0.0539
11227SOL    HW245741   8.299   0.151   4.601  0.0814 -0.2051  1.5198
11228SOL     OW45742   4.223   8.853   9.997  0.2517  0.3127  0.0176
11228SOL    HW145743   4.131   8.873   9.964 -0.0752 -0.1184  0.6614
11228SOL    HW245744   4.290   8.875   9.926 -0.5137 -1.4935 -1.2780
11229SOL     OW45745   4.192   2.181   0.026  0.1017 -0.0213  0.2642
11229SOL    HW145746   4.290   2.161   0.030 -0.0684 -0.8108  0.5058
11229SOL    HW245747   4.153   2.139  -0.056 -0.1612 -0.2636  0.5131
11230SOL     OW45748   0.936   7.822   5.130 -0.1828 -0.1266 -1.0597
11230SOL    HW145749   0.931   7.842   5.032  0.1270  1.6430 -0.7208
11230SOL    HW245750   0.983   7.735   5.144 -1.7776 -1.2577 -2.5693
11231SOL     OW45751   1.105   5.999   5.767  0.2606 -0.1700 -0.4336
11231SOL    HW145752   1.093   5.984   5.668  0.2197  2.6857 -0.9038
11231SOL    HW245753   1.202   6.011   5.787  0.0363  2.2487 -0.6362
11232SOL     OW45754   5.022   9.617   2.235 -0.1051 -0.3456 -0.3881
11232SOL    HW145755   5.111   9.571   2.234  0.3400  0.5043 -0.1906
11232SOL    HW245756   5.006   9.660   2.146 -0.6556 -1.1271 -0.6747
11233SOL     OW45757   6.730   8.777   1.849  0.4823  0.0178  0.5405
11233SOL    HW145758   6.736   8.846   1.921  3.0356  0.5076 -0.1051
11233SOL    HW245759   6.788   8.803   1.773 -1.2889 -1.0957 -1.2376
11234SOL     OW45760   4.994   1.636   0.805 -0.1684  0.7765  0.6045
11234SOL    HW145761   4.976   1.734   0.814 -1.9986  0.3623  1.5964
11234SOL    HW245762   4.947   1.587   0.877  0.6738 -0.8664  0.0584
11235SOL     OW45763   3.110   0.443   0.239 -0.6589 -0.0786 -0.1428
11235SOL    HW145764   3.140   0.451   0.334 -1.8987 -2.6142  0.5095
11235SOL    HW245765   3.181   0.480   0.178  1.2426 -0.7005  1.6395
11236SOL     OW45766   5.641   6.287   9.678  0.0474 -0.0513  0.7544
11236SOL    HW145767   5.584   6.309   9.758  0.3857  0.8497  0.7588
11236SOL    HW245768   5.633   6.190   9.657 -0.5705 -0.1648  1.4768
11237SOL     OW45769   7.087   8.413   0.541 -0.4614 -0.2233 -0.4121
11237SOL    HW145770   7.032   8.400   0.458  1.7118 -0.1321 -1.8875
11237SOL    HW245771   7.032   8.386   0.620 -3.1920  1.3211 -1.6729
11238SOL     OW45772   6.053   6.414   3.230 -0.2176 -0.2623  0.3296
11238SOL    HW145773   5.981   6.405   3.161 -0.3525  2.3812  0.0889
11238SOL    HW245774   6.141   6.429   3.185 -0.1873  0.7133  0.7050
11239SOL     OW45775   5.108   6.696   9.818  0.2608  0.3442  0.0006
11239SOL    HW145776   5.179   6.674   9.751 -0.2970 -1.9034  0.0863
11239SOL    HW245777   5.036   6.749   9.774 -0.0017 -0.9343 -1.1663
11240SOL     OW45778   5.461   2.208   8.577  0.0905  0.1301  0.4978
11240SOL    HW145779   5.505   2.253   8.655  1.1547 -2.5553  1.5091
11240SOL    HW245780   5.531   2.170   8.517 -0.7688  0.8821 -1.0097
11241SOL     OW45781   0.684   0.428   0.469  0.0601 -0.8039  0.4578
11241SOL    HW145782   0.723   0.398   0.556 -0.3227 -1.3359  0.4530
11241SOL    HW245783   0.589   0.457   0.483 -0.1888 -1.4370  0.1260
11242SOL     OW45784   2.644   9.535   3.131  0.1360 -0.3193  0.0321
11242SOL    HW145785   2.572   9.601   3.154  0.0471 -1.6364  3.9494
11242SOL    HW245786   2.733   9.581   3.130  0.1083 -0.1095  2.9979
11243SOL     OW45787   6.924   3.979   8.257  0.8334 -0.0182 -0.0979
11243SOL    HW145788   6.885   3.954   8.168 -0.3250  2.0283 -0.1813
11243SOL    HW245789   6.992   3.910   8.284 -0.8108 -2.1324 -1.2495
11244SOL     OW45790   6.976   3.217   2.997 -0.3706 -0.2981  0.1429
11244SOL    HW145791   7.000   3.254   2.908  0.8458 -0.6142  0.3271
11244SOL    HW245792   6.957   3.292   3.061  0.7030 -0.0309  0.1442
11245SOL     OW45793   6.071   0.998   8.266  0.2081  0.0736 -0.3433
11245SOL    HW145794   6.082   1.075   8.329  0.0327  1.4053 -1.8932
11245SOL    HW245795   6.160   0.960   8.244  0.2224 -0.8053  1.1856
11246SOL     OW45796   6.017   9.103   8.983  0.2954  0.3477 -0.2374
11246SOL    HW145797   6.015   9.007   8.956  0.3812  0.5494 -0.9771
11246SOL    HW245798   6.110   9.128   9.009  0.1191  0.0225  0.7575
11247SOL     OW45799   7.223   8.770   0.307 -0.6120  0.0615  0.2482
11247SOL    HW145800   7.281   8.820   0.372 -0.8511  0.7790 -0.0822
11247SOL    HW245801   7.271   8.687   0.277 -1.6024 -1.7624  3.4395
11248SOL     OW45802   2.423   0.971   8.485 -0.5026  0.6003  0.2298
11248SOL    HW145803   2.507   0.920   8.501 -1.8050 -2.0204 -0.8950
11248SOL    HW245804   2.378   0.935   8.403 -2.9932  1.5387  1.1393
11249SOL     OW45805   5.115   1.498   3.172  0.4554  0.4852 -0.1630
11249SOL    HW145806   5.104   1.400   3.184  0.1246  0.7981  2.1794
11249SOL    HW245807   5.025   1.541   3.160  0.4677  0.7066  0.5101
11250SOL     OW45808   3.689   6.210   2.990 -0.3312 -0.4313  0.4331
11250SOL    HW145809   3.741   6.227   3.074 -0.4001 -0.8442  0.5626
11250SOL    HW245810   3.602   6.166   3.013 -0.1221 -1.0291  0.1132
11251SOL     OW45811   4.098   5.812   4.027  0.2851 -0.2607 -0.0151
11251SOL    HW145812   4.093   5.789   3.930  0.8419 -0.0908 -0.0861
11251SOL    HW245813   4.051   5.742   4.081 -2.1172  0.8558 -0.5851
11252SOL     OW45814   3.011   5.902   2.865  0.1087  0.8991 -0.0299
11252SOL    HW145815   3.004   5.948   2.954  0.5744  0.3855  0.2770
11252SOL    HW245816   2.919   5.881   2.832 -0.0447  0.2370  0.7913
11253SOL     OW45817   7.433   4.783   9.877  0.3450  0.1038  0.6249
11253SOL    HW145818   7.384   4.724   9.941  2.1074 -1.5039  0.5224
11253SOL    HW245819   7.511   4.825   9.923  2.0653 -1.6511 -0.6424
11254SOL     OW45820   3.980   3.069   9.041 -0.2051 -0.5556 -0.5055
11254SOL    HW145821   3.899   3.078   9.100 -1.0685 -1.0254 -1.5895
11254SOL    HW245822   3.970   2.988   8.984  1.3416 -0.9730 -0.2115
11255SOL     OW45823   4.879   9.438   2.028  0.0505 -0.4216 -0.0186
11255SOL    HW145824   4.869   9.369   2.099 -0.3119  0.8311  1.1816
11255SOL    HW245825   4.976   9.448   2.005  0.4187  0.6941  1.8945
11256SOL     OW45826   1.605   3.922   4.901  0.6158 -0.1427  0.1985
11256SOL    HW145827   1.512   3.887   4.905  0.3532  0.6783  1.4183
11256SOL    HW245828   1.603   4.019   4.877  1.1741 -0.1843 -0.0325
11257SOL     OW45829   0.384   1.803   2.386 -0.3026  0.0376  0.5879
11257SOL    HW145830   0.334   1.847   2.460 -1.5317 -2.6308  1.4280
11257SOL    HW245831   0.372   1.703   2.393  2.2628 -0.4416 -1.2739
11258SOL     OW45832   3.573   0.322   9.886  0.6202 -0.1325 -0.0199
11258SOL    HW145833   3.651   0.327   9.824  0.7108 -0.8026  0.0274
11258SOL    HW245834   3.503   0.387   9.858  0.0484 -1.4334 -1.7114
11259SOL     OW45835   4.484   9.638   2.035 -0.5064  0.6317 -0.3231
11259SOL    HW145836   4.472   9.580   2.116  1.4395 -0.1762 -0.5999
11259SOL    HW245837   4.539   9.718   2.061 -0.7522  0.8927 -0.6153
11260SOL     OW45838   0.199   1.670   1.489  0.0424 -0.2709  0.0791
11260SOL    HW145839   0.216   1.626   1.577 -0.9527 -3.5220 -1.2960
11260SOL    HW245840   0.242   1.618   1.416 -1.3540  0.9235 -1.6543
11261SOL     OW45841   9.674   4.150   2.563 -0.3543 -0.0561 -0.4783
11261SOL    HW145842   9.710   4.165   2.471  0.0312  0.2827 -0.2760
11261SOL    HW245843   9.746   4.113   2.621 -0.4416  0.2581 -0.1696
11262SOL     OW45844   2.868   1.292   9.436 -0.4074  0.0929  0.0794
11262SOL    HW145845   2.780   1.264   9.399 -0.9999  1.7515  0.2168
11262SOL    HW245846   2.932   1.310   9.361 -0.7602  0.7402 -0.0660
11263SOL     OW45847   8.820   1.605   1.683  0.4566  0.2573 -0.0902
11263SOL    HW145848   8.857   1.631   1.594  1.2126  0.8258  0.3815
11263SOL    HW245849   8.767   1.680   1.721 -2.0466 -0.8992 -1.1930
11264SOL     OW45850   4.025   4.716   7.478 -0.0840 -0.0983  0.6470
11264SOL    HW145851   3.943   4.704   7.423 -0.5483  0.4666  1.2123
11264SOL    HW245852   4.059   4.626   7.507 -0.0059 -0.3802 -0.2937
11265SOL     OW45853   9.330   4.226   1.458 -0.4629 -0.1471  0.1920
11265SOL    HW145854   9.369   4.138   1.430 -1.3039 -0.2689 -0.6193
11265SOL    HW245855   9.266   4.212   1.533 -0.1750 -0.1492  0.4404
11266SOL     OW45856   9.310   1.261   8.848  0.4068  0.0710 -0.0222
11266SOL    HW145857   9.270   1.172   8.827 -1.4141  1.0927 -1.0292
11266SOL    HW245858   9.376   1.286   8.777  1.3999 -0.7408  0.5994
11267SOL     OW45859   0.769   2.788   5.005 -0.0687  0.0569  0.3081
11267SOL    HW145860   0.699   2.766   5.073 -0.0973 -1.0016 -0.0487
11267SOL    HW245861   0.738   2.757   4.915 -0.4698  2.3211 -0.3732
11268SOL     OW45862   2.463   2.064   9.967 -0.4390 -0.0536 -0.3104
11268SOL    HW145863   2.550   2.086   9.921  0.2834 -0.8537  0.6492
11268SOL    HW245864   2.393   2.129   9.938  0.0092 -0.5105 -2.5156
11269SOL     OW45865   2.319   8.915   1.542 -0.1447  0.1691  0.0377
11269SOL    HW145866   2.266   8.951   1.619 -0.2791 -1.4443  0.7007
11269SOL    HW245867   2.398   8.975   1.525 -0.2279  0.6413  1.2922
11270SOL     OW45868   4.705   9.920   7.038 -0.1339  0.4504 -0.4269
11270SOL    HW145869   4.770   9.846   7.017  1.6138  1.4536  1.2877
11270SOL    HW245870   4.729  10.001   6.984  0.5584  1.0656  0.7728
11271SOL     OW45871   3.098   0.744   2.307 -0.3450  0.5846  0.4968
11271SOL    HW145872   3.159   0.788   2.242 -1.0900  1.4661  0.3799
11271SOL    HW245873   3.075   0.808   2.380 -1.7885  0.5707  0.0864
11272SOL     OW45874   6.818   1.662   8.066  0.4056  0.3819  0.2458
11272SOL    HW145875   6.740   1.658   8.129  0.4655  0.3237  0.3168
11272SOL    HW245876   6.870   1.745   8.083  1.0486 -0.1690  1.0279
11273SOL     OW45877   1.922   3.344   4.118  0.4873 -0.3686 -0.1597
11273SOL    HW145878   1.914   3.442   4.136  1.6987 -0.4327  0.7980
11273SOL    HW245879   1.896   3.326   4.023  1.1575  1.0092 -0.6277
11274SOL     OW45880   4.288   5.005   0.136  0.0401 -0.3794  0.1398
11274SOL    HW145881   4.385   4.980   0.133 -0.3070 -1.5635 -1.9030
11274SOL    HW245882   4.247   4.989   0.046 -1.3069  3.1698  0.0514
11275SOL     OW45883   2.344   7.967   9.886  0.2582 -0.1808  0.7024
11275SOL    HW145884   2.299   7.983   9.798  0.3226  1.9792  1.0242
11275SOL    HW245885   2.284   7.911   9.944 -0.6095 -0.0264 -0.0283
11276SOL     OW45886   5.657   0.160   3.430  0.4513  0.0242  0.0110
11276SOL    HW145887   5.754   0.138   3.417  0.8059  0.4956  1.7998
11276SOL    HW245888   5.601   0.096   3.377  1.6027 -2.6590  1.9639
11277SOL     OW45889   2.260   3.655   5.171 -0.1417  0.6864  0.4490
11277SOL    HW145890   2.228   3.723   5.237 -1.6592 -0.2526  0.7022
11277SOL    HW245891   2.205   3.572   5.179 -0.3924  0.5726 -2.0444
11278SOL     OW45892   0.181   0.812   0.610  0.3278  0.2571 -0.2191
11278SOL    HW145893   0.179   0.724   0.658 -1.2655  0.6083  0.4083
11278SOL    HW245894   0.156   0.798   0.515  0.8477 -0.0788 -0.3073
11279SOL     OW45895   6.036   9.885   1.535  0.1815 -0.5326 -0.2219
11279SOL    HW145896   5.974   9.963   1.522  0.0186 -0.8791 -1.5512
11279SOL    HW245897   6.055   9.875   1.633  0.6273  1.4865 -0.0732
11280SOL     OW45898   1.983   2.135   0.269  0.1918  0.0471 -0.7903
11280SOL    HW145899   2.014   2.062   0.208 -1.8748 -2.3874  1.0169
11280SOL    HW245900   2.041   2.137   0.351 -0.1908 -0.0023 -0.5207
11281SOL     OW45901   8.168   4.644   6.511  0.3514 -0.0196  0.1693
11281SOL    HW145902   8.082   4.658   6.463 -0.1520 -0.8901  0.8074
11281SOL    HW245903   8.233   4.597   6.451 -0.6596 -2.1454  0.6802
11282SOL     OW45904   4.778   3.080   7.706 -0.2198  0.3834 -0.9421
11282SOL    HW145905   4.752   3.025   7.626 -1.0672 -2.0793  0.9539
11282SOL    HW245906   4.738   3.039   7.788  5.3011 -0.5239  1.5007
11283SOL     OW45907   4.623   2.956   6.873 -0.0365  0.0555  0.3109
11283SOL    HW145908   4.541   2.950   6.930  0.2036 -0.7546  0.5720
11283SOL    HW245909   4.647   2.865   6.839  1.3523  0.1122  1.0800
11284SOL     OW45910   4.790   0.744   8.486 -0.1921  0.2374 -0.1859
11284SOL    HW145911   4.777   0.706   8.578  0.5539  1.2861  0.3560
11284SOL    HW245912   4.717   0.711   8.426 -0.3573 -0.9204  0.6313
11285SOL     OW45913   1.053   2.560   7.770  0.1819 -0.1751  0.0608
11285SOL    HW145914   0.957   2.533   7.763 -0.7406  3.0759 -1.0443
11285SOL    HW245915   1.091   2.571   7.678  0.9737  0.5914  0.4658
11286SOL     OW45916   2.918   4.757   0.473 -0.3981 -0.5561  0.3129
11286SOL    HW145917   2.910   4.698   0.554  2.2309 -0.6640  0.5273
11286SOL    HW245918   2.980   4.714   0.407  0.4211  1.3082 -0.1390
11287SOL     OW45919   8.683   8.741   7.809  0.1737 -0.5541  0.2117
11287SOL    HW145920   8.629   8.751   7.726  0.0747  1.5282  0.5008
11287SOL    HW245921   8.779   8.727   7.785  0.5280  2.4219 -0.2806
11288SOL     OW45922   2.571   7.053   1.486  0.2261 -0.2076 -0.0514
11288SOL    HW145923   2.602   6.961   1.509 -0.2998 -0.5239 -0.5913
11288SOL    HW245924   2.607   7.118   1.553  1.2537 -0.6918 -0.1232
11289SOL     OW45925   5.120   0.683   0.530  0.4261  0.7360  0.0990
11289SOL    HW145926   5.149   0.668   0.435  1.3742 -0.2806  0.5388
11289SOL    HW245927   5.038   0.740   0.531 -0.0468  0.1053 -1.3811
11290SOL     OW45928   5.349   1.339   0.699 -0.4372  0.2311  0.1859
11290SOL    HW145929   5.385   1.404   0.633 -0.4186  2.0954  1.9878
11290SOL    HW245930   5.391   1.249   0.684  3.1739  1.7621  0.6936
11291SOL     OW45931   2.726   8.949   1.713  0.5594 -0.4841  0.2633
11291SOL    HW145932   2.741   8.944   1.614 -1.1757  0.0662 -0.0305
11291SOL    HW245933   2.733   9.044   1.743  1.7854 -0.7256  0.8070
11292SOL     OW45934   1.222   8.847   1.570  0.3455 -0.1760 -0.2577
11292SOL    HW145935   1.145   8.783   1.574 -0.4444  0.8941  2.0078
11292SOL    HW245936   1.192   8.934   1.531  0.3798  0.2584  0.6680
11293SOL     OW45937   7.800   8.676   7.180 -0.2473 -0.1785 -0.5095
11293SOL    HW145938   7.871   8.606   7.195 -0.5159 -0.1983  0.7591
11293SOL    HW245939   7.745   8.685   7.263 -0.9092  0.7705 -1.0468
11294SOL     OW45940   6.523   4.579   8.895 -0.0299  0.6366  0.1580
11294SOL    HW145941   6.569   4.497   8.862  1.9515  1.3218  1.1565
11294SOL    HW245942   6.453   4.554   8.962 -1.2056 -0.4167 -1.4308
11295SOL     OW45943   0.022   1.368   1.583 -0.1026  0.7755 -0.3618
11295SOL    HW145944  -0.061   1.417   1.609 -1.3564 -1.8468  0.6994
11295SOL    HW245945   0.019   1.348   1.485 -0.5549  1.0026 -0.3954
11296SOL     OW45946   3.818   2.176   9.100 -0.3862  0.6189 -0.3076
11296SOL    HW145947   3.796   2.211   9.191 -0.1053  1.4359 -0.5486
11296SOL    HW245948   3.758   2.098   9.079  0.4379 -0.4101  1.0976
11297SOL     OW45949   3.144   4.273   8.996  0.5749  0.3222 -0.3851
11297SOL    HW145950   3.109   4.333   9.068  2.3631  2.3506 -1.1403
11297SOL    HW245951   3.241   4.253   9.012 -0.2706 -3.4643  0.5229
11298SOL     OW45952   4.978   3.324   1.072 -0.0847  0.3045 -0.4417
11298SOL    HW145953   4.907   3.279   1.018  0.4458  0.8081 -1.5760
11298SOL    HW245954   5.026   3.391   1.015 -0.7598  2.2051  1.1687
11299SOL     OW45955   8.395   8.456   5.984  0.3664 -0.0274 -0.5001
11299SOL    HW145956   8.427   8.438   6.077 -2.0966 -0.5039  0.2839
11299SOL    HW245957   8.358   8.548   5.979 -1.2184 -0.6504 -0.5054
11300SOL     OW45958   5.347   1.488   9.669  0.3072 -0.3598 -0.4135
11300SOL    HW145959   5.356   1.471   9.767  0.9559  0.9595 -0.2324
11300SOL    HW245960   5.437   1.507   9.630 -0.0911  0.2289 -1.0458
11301SOL     OW45961   6.668   1.979   1.460 -0.4602 -0.1050 -0.0921
11301SOL    HW145962   6.628   2.006   1.547  1.4443 -0.5217  0.9247
11301SOL    HW245963   6.695   1.883   1.464 -2.0455 -0.6710 -1.7959
11302SOL     OW45964   4.441   1.403   3.406  0.6117  0.5646  0.4651
11302SOL    HW145965   4.459   1.384   3.309  1.1696 -0.1377  0.7029
11302SOL    HW245966   4.345   1.383   3.426  0.4627  0.8258  0.0300
11303SOL     OW45967   6.774   2.158   0.984  0.4333 -0.3861 -0.4661
11303SOL    HW145968   6.851   2.211   0.951  1.3368 -0.3552  1.5874
11303SOL    HW245969   6.711   2.218   1.035  1.1746 -1.1179  1.3757
11304SOL     OW45970   0.026   0.975   4.186 -0.2074  0.0222 -0.2440
11304SOL    HW145971  -0.059   0.994   4.138 -0.9790 -0.2064  0.9906
11304SOL    HW245972   0.082   1.057   4.189 -0.8146  0.4430 -0.2383
11305SOL     OW45973   2.506   6.341   4.050  0.5708 -0.2209 -0.3580
11305SOL    HW145974   2.481   6.403   4.125 -1.5987 -0.3585 -0.9110
11305SOL    HW245975   2.580   6.380   3.997  1.7354  0.1597  1.5075
11306SOL     OW45976   7.322   1.370   1.091 -0.3470 -0.3204 -0.3490
11306SOL    HW145977   7.288   1.354   0.999 -0.2052  1.6751 -0.7818
11306SOL    HW245978   7.245   1.389   1.152 -0.3456 -0.2438 -0.3698
11307SOL     OW45979   7.657   8.051   9.846 -0.6665 -0.5074  0.0711
11307SOL    HW145980   7.560   8.072   9.861 -0.3671  1.9923 -1.2021
11307SOL    HW245981   7.712   8.133   9.867  1.0236 -1.4340 -0.6534
11308SOL     OW45982   4.101   0.253   1.129 -0.0521  0.0706 -0.5088
11308SOL    HW145983   4.167   0.328   1.144  2.3233 -1.9895 -0.3159
11308SOL    HW245984   4.015   0.291   1.095  0.9777  2.9218 -0.1194
11309SOL     OW45985   6.650   0.711   4.258 -0.5775 -0.2754 -0.1251
11309SOL    HW145986   6.649   0.707   4.358  2.1440  2.3000  0.0636
11309SOL    HW245987   6.589   0.784   4.227 -0.8329 -0.5730 -0.3298
11310SOL     OW45988   4.419   2.219   6.070  0.5573  0.1011 -0.0675
11310SOL    HW145989   4.439   2.153   6.142  0.3996  0.8341  0.6590
11310SOL    HW245990   4.354   2.180   6.005  0.7275 -0.5770  0.1702
11311SOL     OW45991   7.555   1.477   1.001 -0.3799  0.7321  0.0517
11311SOL    HW145992   7.476   1.420   1.027 -1.1045  2.1990  1.1138
11311SOL    HW245993   7.526   1.573   0.996  1.1632  1.1790 -0.3344
11312SOL     OW45994   4.254   2.027   5.953  0.5279  0.5594  0.0490
11312SOL    HW145995   4.204   2.047   5.869 -0.2665  0.2527  0.4419
11312SOL    HW245996   4.322   1.955   5.936  0.8268  0.9680 -0.4801
11313SOL     OW45997   3.006   0.482   0.679 -0.2543 -0.1069  0.1243
11313SOL    HW145998   2.980   0.563   0.730  0.9766  1.5410 -1.7745
11313SOL    HW245999   2.924   0.435   0.646 -0.9557  1.1497  0.0597
11314SOL     OW46000   7.981   8.378   8.587 -0.4334  0.1277 -0.4387
11314SOL    HW146001   8.018   8.303   8.641  0.7921  0.3868 -0.9155
11314SOL    HW246002   7.993   8.464   8.636 -0.7767  0.1626 -0.4138
11315SOL     OW46003   0.155   9.128   7.137  0.1381  0.3236  0.0664
11315SOL    HW146004   0.071   9.178   7.155 -0.3797 -0.7362  0.6691
11315SOL    HW246005   0.166   9.115   7.038 -1.8855 -1.9478  0.0720
11316SOL     OW46006   6.489   1.646   1.099  0.1244  0.2134 -0.2120
11316SOL    HW146007   6.455   1.726   1.147 -1.9319 -0.4774 -0.4772
11316SOL    HW246008   6.499   1.667   1.002 -2.0733 -0.3368 -0.5778
11317SOL     OW46009   2.958   1.241   9.932 -0.3722 -0.2815  0.2983
11317SOL    HW146010   2.993   1.212   9.843  0.9496 -0.3651  0.8250
11317SOL    HW246011   2.992   1.333   9.953 -0.1505 -0.5169  0.9913
11318SOL     OW46012   7.254   4.865   7.707  1.0271  0.7729  0.1207
11318SOL    HW146013   7.179   4.815   7.751  0.7553  0.8844 -0.2170
11318SOL    HW246014   7.227   4.893   7.615  2.0355 -0.5296 -0.5994
11319SOL     OW46015   6.614   5.415   2.232  0.2213  0.1503  0.3787
11319SOL    HW146016   6.698   5.381   2.189  0.7684  0.5312  1.1209
11319SOL    HW246017   6.586   5.500   2.189  0.3218  0.1174  0.2478
11320SOL     OW46018   4.355   1.193   7.709 -0.7900 -0.0573  0.0022
11320SOL    HW146019   4.414   1.260   7.753 -1.6957  1.8201 -1.5857
11320SOL    HW246020   4.410   1.130   7.655  0.1123 -0.9579  1.9071
11321SOL     OW46021   3.373   0.600   9.190 -0.3490  0.1952 -0.7646
11321SOL    HW146022   3.282   0.563   9.175  1.0211 -2.5830 -2.6294
11321SOL    HW246023   3.400   0.657   9.112  1.0636 -2.3326 -2.1801
11322SOL     OW46024   6.536   0.545   5.977  0.2784 -0.5854 -0.0829
11322SOL    HW146025   6.535   0.576   5.882 -0.6069  0.0501  0.1355
11322SOL    HW246026   6.447   0.507   6.001  0.7894 -1.6226  0.2090
11323SOL     OW46027   2.556   1.554   8.336  0.0470 -0.4525  0.2049
11323SOL    HW146028   2.553   1.594   8.428 -2.5502  1.7321 -0.7606
11323SOL    HW246029   2.636   1.589   8.287  0.8228 -0.7483  1.2518
11324SOL     OW46030   9.934   2.222   0.885  0.0709  0.1752 -0.5942
11324SOL    HW146031   9.963   2.246   0.792  0.0155  1.3794 -0.3086
11324SOL    HW246032   9.954   2.298   0.947 -2.4828  0.5361 -0.1376
11325SOL     OW46033   3.527   1.138   9.507 -0.3040 -0.3373 -0.6993
11325SOL    HW146034   3.591   1.061   9.512  0.3617  0.2768  0.4076
11325SOL    HW246035   3.498   1.163   9.599  0.7780  1.8074 -0.9160
11326SOL     OW46036   3.514   9.840   5.926 -0.1096 -0.3937  0.2886
11326SOL    HW146037   3.472   9.779   5.859  2.6819 -0.1170 -1.8107
11326SOL    HW246038   3.471   9.930   5.921 -0.2843 -0.5275 -0.7538
11327SOL     OW46039   5.314   2.546   9.777 -0.4205 -0.0967  0.6973
11327SOL    HW146040   5.218   2.565   9.796 -0.5075 -1.5595  1.8162
11327SOL    HW246041   5.324   2.454   9.740  0.6348 -0.3510  1.5640
11328SOL     OW46042   0.684   9.371   8.924  0.0544 -0.0126  0.0223
11328SOL    HW146043   0.738   9.305   8.976 -1.3916 -1.2629 -0.0424
11328SOL    HW246044   0.746   9.439   8.883  1.3535  0.0399  1.9823
11329SOL     OW46045   6.479   2.579   1.726  0.5950 -0.8121  0.5015
11329SOL    HW146046   6.566   2.591   1.773  1.1654 -2.4063 -0.1306
11329SOL    HW246047   6.493   2.586   1.628 -0.0868 -0.5264  0.4221
11330SOL     OW46048   5.046   2.914   1.088  0.2951 -0.2839 -0.4831
11330SOL    HW146049   5.027   2.951   0.997 -0.2328 -0.8652 -0.6123
11330SOL    HW246050   5.109   2.837   1.080  1.8678  0.9451 -0.1581
11331SOL     OW46051   8.741   8.016   9.313 -0.5018 -0.1799  0.1958
11331SOL    HW146052   8.674   8.088   9.332 -1.2673 -1.2323  1.6385
11331SOL    HW246053   8.698   7.927   9.329  1.1159 -0.8861  0.6589
11332SOL     OW46054   3.970   0.073   9.825 -0.3326  0.1834  0.6266
11332SOL    HW146055   3.874   0.044   9.826 -1.1006  2.5963  0.8163
11332SOL    HW246056   3.975   0.171   9.805  2.0971  0.1189  0.7602
11333SOL     OW46057   5.005   4.119   2.669  0.1150 -0.0217 -0.1031
11333SOL    HW146058   4.919   4.142   2.624 -0.1697 -1.3485 -0.2632
11333SOL    HW246059   5.078   4.180   2.636 -0.0507 -1.0815 -2.5092
11334SOL     OW46060   7.902   1.245   0.428 -0.0993 -0.0787 -0.5101
11334SOL    HW146061   7.879   1.318   0.492 -2.0617 -1.8306  0.8617
11334SOL    HW246062   7.827   1.231   0.364 -1.1627 -2.9452  1.2410
11335SOL     OW46063   7.439   6.176   8.873 -0.5367 -0.2945 -0.0624
11335SOL    HW146064   7.479   6.213   8.957 -2.0390  0.3157  0.3995
11335SOL    HW246065   7.475   6.083   8.858  1.7210  0.5489 -0.1654
11336SOL     OW46066   5.022   6.773   1.029  0.6216 -0.3176 -0.2108
11336SOL    HW146067   5.120   6.764   1.047  0.6747  1.0716  0.2142
11336SOL    HW246068   4.987   6.857   1.071 -0.8800 -1.1045  0.1669
11337SOL     OW46069   6.050   1.032   0.872 -0.0614  0.1778  0.4555
11337SOL    HW146070   6.003   0.949   0.842 -1.5033  1.1413  0.0067
11337SOL    HW246071   6.071   1.025   0.969 -1.5939 -0.0663  0.7820
11338SOL     OW46072   5.874   2.012   8.794 -0.0720 -0.3792 -0.0743
11338SOL    HW146073   5.819   2.063   8.727 -0.1745  0.6116  0.7581
11338SOL    HW246074   5.913   1.931   8.750  1.4060  1.2531 -1.8888
11339SOL     OW46075   1.937   9.792   9.747 -0.2143 -0.1775 -0.2506
11339SOL    HW146076   2.012   9.858   9.747 -0.2868 -0.0924  0.4888
11339SOL    HW246077   1.886   9.799   9.661 -0.9493  1.5539  0.3132
11340SOL     OW46078   6.197   6.941   3.741 -0.1663 -0.6601  0.7194
11340SOL    HW146079   6.140   7.020   3.766  0.6614  0.1618  0.0256
11340SOL    HW246080   6.168   6.905   3.653  0.8585  0.2182  0.0163
11341SOL     OW46081   5.005   5.827   0.544  0.1138 -0.4798 -0.0702
11341SOL    HW146082   4.907   5.809   0.544 -0.0453  0.2052 -2.4906
11341SOL    HW246083   5.026   5.898   0.611 -1.4636  1.3110 -1.4253
11342SOL     OW46084   7.292   8.131   1.512 -0.6922  0.5118 -0.1024
11342SOL    HW146085   7.207   8.080   1.524 -0.5381  0.4181  0.6185
11342SOL    HW246086   7.274   8.229   1.523 -1.0320  0.6448 -1.7253
11343SOL     OW46087   6.986   2.405   3.582  0.0217  0.3075 -0.3904
11343SOL    HW146088   7.071   2.447   3.550  1.5313 -1.1633  1.5577
11343SOL    HW246089   6.974   2.424   3.679 -1.2568 -0.5056 -0.3812
11344SOL     OW46090   7.831   8.755   2.005 -0.1699 -0.1866 -0.0706
11344SOL    HW146091   7.790   8.838   1.967 -0.8003 -0.1150  0.7567
11344SOL    HW246092   7.903   8.779   2.070 -0.2351 -0.2893  0.0404
11345SOL     OW46093   5.782   0.912   0.586 -0.0557 -0.8218 -0.1375
11345SOL    HW146094   5.688   0.885   0.566 -1.5986  0.9846  4.2158
11345SOL    HW246095   5.821   0.852   0.655  0.3555  1.2290  1.4561
11346SOL     OW46096   3.911   0.406   6.182 -0.1309  0.3961 -0.2593
11346SOL    HW146097   3.947   0.496   6.207 -2.1851  0.9491  0.8109
11346SOL    HW246098   3.931   0.341   6.255 -0.5134  0.4747 -0.0890
11347SOL     OW46099   0.362   1.877   0.751  0.0032 -0.6106  0.1654
11347SOL    HW146100   0.264   1.861   0.737 -0.8386  1.7423  2.7694
11347SOL    HW246101   0.400   1.921   0.670 -1.3312 -0.6050 -0.4773
11348SOL     OW46102   8.455   9.760   4.353 -0.0663  0.3380  0.1198
11348SOL    HW146103   8.504   9.847   4.361 -0.9096  0.8081  0.1235
11348SOL    HW246104   8.487   9.711   4.272  0.1931  0.7818 -0.0452
11349SOL     OW46105   0.912   1.615   5.223 -0.5144  0.1871  0.2538
11349SOL    HW146106   0.833   1.654   5.175 -0.7814 -2.7956 -1.8967
11349SOL    HW246107   0.883   1.539   5.281  0.6512 -0.5857 -0.1287
11350SOL     OW46108   9.360   9.328   0.174  0.1864 -0.0243 -0.2241
11350SOL    HW146109   9.311   9.339   0.088  0.4967  0.5109 -0.3309
11350SOL    HW246110   9.367   9.416   0.221  0.2723 -0.2587  0.2092
11351SOL     OW46111   0.915   1.698   9.861 -0.7871  0.4952  0.0609
11351SOL    HW146112   0.997   1.679   9.915 -0.6741  0.8265  0.0042
11351SOL    HW246113   0.883   1.613   9.819  0.1312  0.5581 -0.7703
11352SOL     OW46114   6.777   1.147   2.994 -0.5012 -0.4531 -0.0585
11352SOL    HW146115   6.814   1.096   3.071 -0.8611 -1.6273 -0.6585
11352SOL    HW246116   6.758   1.085   2.918 -0.9827  0.5579 -0.7849
11353SOL     OW46117   6.432   4.108   1.758  0.2005  0.4238 -0.6720
11353SOL    HW146118   6.492   4.119   1.678  0.9356 -0.3181 -0.2298
11353SOL    HW246119   6.338   4.130   1.732  0.6251  1.3881 -1.4331
11354SOL     OW46120   6.087   0.170   4.093 -0.6485 -0.0502 -0.6064
11354SOL    HW146121   6.019   0.228   4.138 -1.4958 -0.7486 -0.9627
11354SOL    HW246122   6.123   0.104   4.159  0.4411  0.9819 -0.1582
11355SOL     OW46123   4.450   4.564   8.596  0.1090  0.1754  0.0000
11355SOL    HW146124   4.545   4.535   8.589  0.6763  1.8622  0.3272
11355SOL    HW246125   4.447   4.661   8.623 -1.7159 -0.2446  1.4073
11356SOL     OW46126   0.985   6.647   8.733 -0.0333 -0.2021  0.7758
11356SOL    HW146127   0.976   6.712   8.809 -0.8299 -0.3140  0.7777
11356SOL    HW246128   0.899   6.641   8.683  0.3846 -0.3894  0.0625
11357SOL     OW46129   4.606   0.624   3.409  0.0616  0.4762 -0.0144
11357SOL    HW146130   4.689   0.666   3.371  1.7897 -1.6371  1.3210
11357SOL    HW246131   4.621   0.600   3.505 -2.0791  0.0013  0.2248
11358SOL     OW46132   9.267   8.268   8.363  0.1213  0.1742 -1.1963
11358SOL    HW146133   9.219   8.192   8.317  0.2939 -0.2460 -0.6879
11358SOL    HW246134   9.204   8.344   8.376 -0.0692  0.0978 -1.6562
11359SOL     OW46135   5.213   3.415   0.347 -0.1695 -0.2398  0.2676
11359SOL    HW146136   5.305   3.376   0.347 -0.7255 -1.5723 -0.3417
11359SOL    HW246137   5.188   3.439   0.253  0.2320  1.7574  0.6557
11360SOL     OW46138   1.142   8.386   2.760  0.1257  0.0917 -1.1020
11360SOL    HW146139   1.079   8.383   2.682  0.3372 -0.8488 -1.2446
11360SOL    HW246140   1.096   8.348   2.841 -0.9579  3.3270 -0.1177
11361SOL     OW46141   4.448   7.345   3.787  0.2101 -0.2613 -0.4749
11361SOL    HW146142   4.359   7.389   3.783  0.3988  0.4765  2.3556
11361SOL    HW246143   4.512   7.395   3.729 -0.4045  1.2595  0.1195
11362SOL     OW46144   7.444   0.120   1.314  0.2756  0.3245 -0.3245
11362SOL    HW146145   7.345   0.119   1.324  0.2348 -1.3454 -0.7502
11362SOL    HW246146   7.467   0.117   1.217  0.7387  0.3394 -0.2151
11363SOL     OW46147   5.802   7.771   9.774  0.6225  0.7261  0.6952
11363SOL    HW146148   5.730   7.704   9.795 -0.1569  1.7919  1.4690
11363SOL    HW246149   5.861   7.783   9.854  1.2724  0.3420  0.2772
11364SOL     OW46150   3.829   5.982   3.235 -0.1609 -0.2407  0.6521
11364SOL    HW146151   3.857   6.078   3.231 -2.1268  0.4212  2.0770
11364SOL    HW246152   3.858   5.943   3.322 -0.1284 -0.7022  0.4345
11365SOL     OW46153   4.218   2.147   1.101  0.5879 -0.2493 -0.1159
11365SOL    HW146154   4.257   2.180   1.015  1.2739  0.2334  0.3801
11365SOL    HW246155   4.283   2.161   1.175 -1.0449  1.8526  0.9810
11366SOL     OW46156   6.394   9.439   0.499 -0.6212  0.2024  0.1530
11366SOL    HW146157   6.360   9.457   0.592  1.1057 -0.4568  0.9372
11366SOL    HW246158   6.468   9.373   0.503 -0.3737  0.3413 -1.6966
11367SOL     OW46159   7.605   2.418   3.213 -0.5632  0.6062  0.3386
11367SOL    HW146160   7.623   2.517   3.209  1.2913  0.3822  2.3007
11367SOL    HW246161   7.647   2.374   3.134 -1.0935  1.3385 -0.3588
11368SOL     OW46162   6.317   1.408   0.475  0.1664 -0.2382 -0.1739
11368SOL    HW146163   6.387   1.341   0.500  0.8459  0.6009  0.1995
11368SOL    HW246164   6.229   1.362   0.465  0.1970 -0.8784  2.1467
11369SOL     OW46165   5.026   4.691   7.010 -0.3508  0.3163 -0.4725
11369SOL    HW146166   5.013   4.655   6.917 -1.5381 -1.3343  0.3039
11369SOL    HW246167   4.940   4.732   7.041  0.1193  1.0910 -0.1807
11370SOL     OW46168   7.671   0.310   0.087 -0.9556  0.1821  0.5886
11370SOL    HW146169   7.653   0.278  -0.006  2.2244  0.8871 -0.3278
11370SOL    HW246170   7.697   0.407   0.083  0.3046 -0.0950  2.0919
11371SOL     OW46171   7.519   8.864   2.676 -0.1114  0.2942 -0.0351
11371SOL    HW146172   7.480   8.949   2.640  1.8355  1.8261  1.3066
11371SOL    HW246173   7.585   8.827   2.611 -1.0454 -0.2717 -0.6709
11372SOL     OW46174   3.783   5.658   6.270  0.4449 -0.2442 -0.0509
11372SOL    HW146175   3.773   5.683   6.367 -2.2739 -0.9392 -0.1208
11372SOL    HW246176   3.759   5.562   6.258 -1.6760  0.4842 -1.7924
11373SOL     OW46177   9.782   6.395   2.506 -0.2420  0.4405  0.0238
11373SOL    HW146178   9.869   6.445   2.499 -1.2253  1.9714 -1.3046
11373SOL    HW246179   9.713   6.438   2.449 -1.2672 -2.1694 -0.7912
11374SOL     OW46180   6.074   4.730   3.756  0.2489  0.3508  0.4580
11374SOL    HW146181   6.015   4.746   3.835  0.1650 -1.6996  0.8517
11374SOL    HW246182   6.159   4.688   3.786 -0.2117 -1.4148 -0.6317
11375SOL     OW46183   1.863   9.194   4.680  0.0492  0.4452 -0.2722
11375SOL    HW146184   1.926   9.272   4.681  0.6462 -0.0262  1.8668
11375SOL    HW246185   1.905   9.117   4.730 -1.3090 -0.6208 -0.7391
11376SOL     OW46186   5.636   7.020   4.822  0.3985 -0.4063 -0.2056
11376SOL    HW146187   5.641   6.921   4.830  0.3145 -0.5622 -1.9559
11376SOL    HW246188   5.727   7.057   4.800  0.2133 -0.2066 -0.6440
11377SOL     OW46189   0.821   1.143   2.661 -0.4138  0.2176  0.3136
11377SOL    HW146190   0.724   1.148   2.686 -0.7813 -1.4251 -0.7089
11377SOL    HW246191   0.876   1.182   2.735 -1.7492 -0.3548  1.6494
11378SOL     OW46192   2.529   8.271   1.802 -0.0569  0.0595 -0.2717
11378SOL    HW146193   2.621   8.301   1.778  0.1837  0.0580  0.6482
11378SOL    HW246194   2.464   8.344   1.781  0.2890  0.4767  0.1119
11379SOL     OW46195   6.291   1.951   2.455  0.4846  0.2436  0.4133
11379SOL    HW146196   6.248   1.898   2.527  1.0407  2.0486  2.1131
11379SOL    HW246197   6.237   2.033   2.436  0.8261  0.2506 -0.5777
11380SOL     OW46198   0.275   3.897   2.713 -0.4278 -0.2390 -0.4680
11380SOL    HW146199   0.244   3.834   2.783 -1.5531 -1.4972 -2.0756
11380SOL    HW246200   0.374   3.910   2.721 -0.5555 -0.3442  1.3443
11381SOL     OW46201   7.486   1.680   0.411 -0.8688 -0.6028 -0.2962
11381SOL    HW146202   7.454   1.765   0.369  1.6191  0.7519  0.4512
11381SOL    HW246203   7.540   1.628   0.345  1.4259  0.6107  0.5635
11382SOL     OW46204   5.331   9.488   2.503 -0.1950 -0.4920 -0.0307
11382SOL    HW146205   5.413   9.478   2.447  0.6054  0.0495  1.0237
11382SOL    HW246206   5.297   9.581   2.495 -1.5400 -1.0995 -1.5765
11383SOL     OW46207   6.056   2.667   8.507  0.5679  0.0466  0.5755
11383SOL    HW146208   6.118   2.702   8.577  0.1444  0.5486  0.7050
11383SOL    HW246209   6.105   2.655   8.421  0.9351  0.0530  0.7873
11384SOL     OW46210   7.937   1.587   3.591  0.6739  0.1493  0.2622
11384SOL    HW146211   7.963   1.606   3.685  0.1925  1.3472  0.1672
11384SOL    HW246212   7.944   1.489   3.573 -0.4435 -0.2467  1.9159
11385SOL     OW46213   8.969   6.297   5.045 -0.3293 -0.0353 -0.6249
11385SOL    HW146214   8.974   6.219   5.107  1.6316  0.2010 -0.4661
11385SOL    HW246215   9.019   6.276   4.961 -0.1337  0.8944 -0.7446
11386SOL     OW46216   7.928   4.574   0.206  0.2391  0.3475  0.6833
11386SOL    HW146217   8.000   4.547   0.141  1.4597 -0.7278  2.4513
11386SOL    HW246218   7.845   4.598   0.155  1.2901 -0.1058 -1.2944
11387SOL     OW46219   3.083   6.068   3.099 -0.1712 -0.2312  0.1868
11387SOL    HW146220   3.098   6.162   3.069 -0.8826 -0.1744 -0.0073
11387SOL    HW246221   3.087   6.063   3.199 -1.0609  0.1834  0.2527
11388SOL     OW46222   6.700   3.870   0.810 -0.5702  0.5909  0.0536
11388SOL    HW146223   6.618   3.838   0.762  0.5429 -0.0809 -1.4305
11388SOL    HW246224   6.749   3.792   0.848  0.0741  0.8760 -0.1864
11389SOL     OW46225   7.137   1.179   2.679  0.0796 -0.6935  0.0597
11389SOL    HW146226   7.159   1.187   2.581 -1.0581 -1.8591 -0.3074
11389SOL    HW246227   7.089   1.093   2.695 -2.3926  0.8275  1.1512
11390SOL     OW46228   0.439   1.960   0.510 -0.5464  0.3033 -0.0190
11390SOL    HW146229   0.465   2.050   0.473  1.1007 -0.2145 -0.1466
11390SOL    HW246230   0.423   1.897   0.434  1.5895 -0.4111  0.0840
11391SOL     OW46231   1.211   1.778   9.922  0.2995  0.1480  0.0256
11391SOL    HW146232   1.169   1.714   9.986 -0.0574 -0.4212 -0.7685
11391SOL    HW246233   1.293   1.818   9.963  0.2166 -0.4044  0.7340
11392SOL     OW46234   3.967   7.298   3.683 -0.3153  0.6320  0.2162
11392SOL    HW146235   3.915   7.338   3.758  0.6308  0.6439  0.8836
11392SOL    HW246236   4.033   7.231   3.720  0.9007  1.4218 -0.4862
11393SOL     OW46237   3.969   0.003   1.665  0.0656  0.4385  0.4215
11393SOL    HW146238   3.914  -0.075   1.637 -1.0047  0.1692  3.1318
11393SOL    HW246239   3.957   0.019   1.763  1.1678  3.2897  0.1416
11394SOL     OW46240   3.628   0.285   5.834  0.0453 -0.1234 -0.0269
11394SOL    HW146241   3.651   0.255   5.926 -0.3385 -0.0565  0.0918
11394SOL    HW246242   3.560   0.222   5.794  1.7302 -1.3408 -1.0357
11395SOL     OW46243   5.704   4.083   0.164 -0.4782  0.7869  0.0631
11395SOL    HW146244   5.782   4.020   0.173  0.5695  1.9721 -0.4951
11395SOL    HW246245   5.731   4.173   0.198 -0.5092  2.0619 -3.1384
11396SOL     OW46246   3.005   2.675   4.536 -0.2113  0.4495 -0.5432
11396SOL    HW146247   3.099   2.708   4.533  0.6366 -1.7989 -0.2531
11396SOL    HW246248   2.960   2.694   4.449  0.5364  1.4916 -0.7075
11397SOL     OW46249   4.864   2.207   2.353 -0.1870 -0.0935 -0.5349
11397SOL    HW146250   4.849   2.109   2.362  1.8091 -0.2608  1.3830
11397SOL    HW246251   4.961   2.225   2.337 -0.0623  1.6919  1.9319
11398SOL     OW46252   6.246   9.214   0.744 -0.0606  0.5808  0.7614
11398SOL    HW146253   6.197   9.298   0.721 -0.3626  0.0608 -0.5353
11398SOL    HW246254   6.195   9.164   0.814 -1.3459  0.1150 -0.4729
11399SOL     OW46255   6.276   8.414   6.193 -0.0993 -0.5348  0.2089
11399SOL    HW146256   6.263   8.505   6.154  0.4356  0.3281  2.0259
11399SOL    HW246257   6.189   8.380   6.228  0.3896  0.8095  2.7979
11400SOL     OW46258   4.006   2.293   8.430  0.4745  0.1975 -0.2570
11400SOL    HW146259   4.082   2.324   8.487  0.9759  0.2513 -0.9550
11400SOL    HW246260   3.993   2.195   8.443 -0.2078  0.4255  0.8826
11401SOL     OW46261   6.911   1.770   0.617  0.5271  0.0365  0.0888
11401SOL    HW146262   6.873   1.858   0.588  0.5233 -0.0902 -0.2980
11401SOL    HW246263   6.838   1.713   0.655  0.3181 -0.2049 -0.6499
11402SOL     OW46264   9.175   1.536   4.365 -0.2146 -0.4551 -0.1756
11402SOL    HW146265   9.130   1.459   4.410  1.6451 -1.3286  0.2808
11402SOL    HW246266   9.261   1.557   4.413 -1.2075  2.6280  0.3707
11403SOL     OW46267   3.571   3.045   1.996  0.0562 -0.6843  0.3372
11403SOL    HW146268   3.554   2.980   1.922 -0.8603 -0.6692  0.5189
11403SOL    HW246269   3.485   3.090   2.020  0.9648  1.7298 -0.8412
11404SOL     OW46270   7.223   9.717   3.487  0.2087  0.2288  0.1062
11404SOL    HW146271   7.161   9.652   3.531  0.5075  0.2534  0.5663
11404SOL    HW246272   7.233   9.798   3.545 -0.2385  0.7267 -0.5093
11405SOL     OW46273   3.443   0.103   2.674 -0.1569  0.6351 -0.2015
11405SOL    HW146274   3.519   0.093   2.737  0.4961 -2.8516 -1.4319
11405SOL    HW246275   3.466   0.060   2.586 -2.0847  2.9283 -1.9170
11406SOL     OW46276   4.819   8.882   7.951 -0.6072  0.1685 -0.0144
11406SOL    HW146277   4.751   8.945   7.913 -0.9291 -1.1260 -1.6569
11406SOL    HW246278   4.905   8.889   7.900 -0.6558 -0.7323 -0.2422
11407SOL     OW46279   5.180   1.550   4.278 -0.0146  0.3177 -0.0013
11407SOL    HW146280   5.130   1.483   4.224 -1.8704  1.2385  0.5279
11407SOL    HW246281   5.116   1.600   4.337  1.4254  2.0831  0.1076
11408SOL     OW46282   4.759   4.892   9.983 -0.1226  0.1609 -0.3862
11408SOL    HW146283   4.746   4.938   9.895  1.1964  1.4596  0.0663
11408SOL    HW246284   4.831   4.939  10.035 -0.6146 -0.8096  1.2302
11409SOL     OW46285   1.331   2.404   1.844 -0.2620  0.4354 -0.4148
11409SOL    HW146286   1.293   2.495   1.864  0.1374  0.8019 -1.2865
11409SOL    HW246287   1.416   2.392   1.896 -1.1542 -0.0821  0.9441
11410SOL     OW46288   6.851   9.044   9.858  0.0045 -0.3710  0.1861
11410SOL    HW146289   6.944   9.066   9.830  0.0565  0.2013  0.8113
11410SOL    HW246290   6.852   8.984   9.938 -0.1758  1.2086  1.3801
11411SOL     OW46291   3.779   2.137   9.728 -0.1047  0.2899  0.4319
11411SOL    HW146292   3.819   2.228   9.730  1.0631  0.0017 -4.3463
11411SOL    HW246293   3.689   2.140   9.685 -0.7175 -0.6186  1.6063
11412SOL     OW46294   0.892   8.061   1.128  0.2211 -0.1235  0.1556
11412SOL    HW146295   0.903   8.061   1.029  2.4623  2.0085  0.3530
11412SOL    HW246296   0.883   7.967   1.161  1.3721 -0.9746 -1.8890
11413SOL     OW46297   5.822   2.783   0.352  0.5033  0.0789  0.0499
11413SOL    HW146298   5.732   2.783   0.309  0.6206  0.6978 -0.2068
11413SOL    HW246299   5.817   2.738   0.441  0.1228 -0.6454 -0.3349
11414SOL     OW46300   5.100   0.394   9.784  0.2604 -0.2089  0.1265
11414SOL    HW146301   5.149   0.440   9.711  0.3281 -0.8182 -0.2164
11414SOL    HW246302   5.002   0.403   9.770  0.2610  0.9672  0.7865
11415SOL     OW46303   5.633   4.444   1.846  0.4527  0.3228 -0.3671
11415SOL    HW146304   5.635   4.429   1.945  1.5262  0.7619 -0.3129
11415SOL    HW246305   5.638   4.542   1.827 -1.2422  0.3396 -0.8347
11416SOL     OW46306   5.462   1.481   0.495  0.1689 -0.0057 -0.4535
11416SOL    HW146307   5.468   1.576   0.525  1.6119 -0.8550  2.1777
11416SOL    HW246308   5.551   1.453   0.458 -0.0255 -0.5417 -0.5091
11417SOL     OW46309   3.730   9.755   3.060  0.2393 -0.0945  0.8251
11417SOL    HW146310   3.791   9.818   3.107 -0.8853  1.3061  0.4503
11417SOL    HW246311   3.668   9.712   3.126  0.6160 -0.3813  0.9985
11418SOL     OW46312   3.229   1.336   0.651 -0.1418  0.2407  0.2620
11418SOL    HW146313   3.212   1.325   0.553 -0.8741 -0.7593  0.4950
11418SOL    HW246314   3.192   1.424   0.682  0.0773  0.5500 -0.3424
11419SOL     OW46315   7.687   0.024   5.322 -0.4202 -0.1155  0.1267
11419SOL    HW146316   7.773   0.043   5.275 -0.8176 -0.8319 -0.9166
11419SOL    HW246317   7.610   0.043   5.260 -0.9294 -1.6215  0.2805
11420SOL     OW46318   7.243   0.514   1.755  0.2216 -0.0467 -0.3253
11420SOL    HW146319   7.167   0.458   1.721  0.4786 -0.3683 -0.3780
11420SOL    HW246320   7.322   0.502   1.695  0.1046  0.8092 -0.6507
11421SOL     OW46321   4.351   8.082   9.589 -0.0753 -0.1888 -0.1137
11421SOL    HW146322   4.293   8.094   9.508 -0.2326  2.0228  0.2940
11421SOL    HW246323   4.447   8.095   9.565 -0.0706 -0.1321 -0.0661
11422SOL     OW46324   7.699   2.281   2.941  0.0045  0.0132  0.2596
11422SOL    HW146325   7.608   2.243   2.957  0.0243 -0.1001  0.0936
11422SOL    HW246326   7.690   2.374   2.906 -0.0567 -0.3108 -0.5885
11423SOL     OW46327   6.053   7.190   4.735 -1.2099 -0.6259  0.3831
11423SOL    HW146328   6.090   7.199   4.643 -0.6564 -2.1604  0.4484
11423SOL    HW246329   6.114   7.237   4.799  0.5362 -2.8576  0.4467
11424SOL     OW46330   6.087   9.879   1.859 -0.1160  0.0476  0.3635
11424SOL    HW146331   6.136   9.810   1.805 -0.4041  0.3927 -0.3466
11424SOL    HW246332   6.153   9.942   1.900  0.0902 -0.0632  0.2047
11425SOL     OW46333   4.754   8.071   7.049  0.4236  0.0824 -0.2239
11425SOL    HW146334   4.780   8.157   7.093  0.4370 -0.6778  1.2924
11425SOL    HW246335   4.719   8.090   6.957 -1.0279  1.8742  0.6535
11426SOL     OW46336   5.879   4.672   1.561  0.2499  0.5370 -0.5187
11426SOL    HW146337   5.814   4.659   1.487  0.6078 -0.1514 -0.7177
11426SOL    HW246338   5.941   4.748   1.539  1.3228 -0.6289 -1.6231
11427SOL     OW46339   2.756   1.534   2.048 -0.3493  0.0486 -0.3132
11427SOL    HW146340   2.698   1.503   1.973 -1.4422 -2.1208  1.3968
11427SOL    HW246341   2.707   1.602   2.102 -1.2949 -1.6515  1.0243
11428SOL     OW46342   4.582   1.820   1.094 -0.4689  0.8397  0.0792
11428SOL    HW146343   4.489   1.821   1.130 -0.6556  1.9053 -0.4150
11428SOL    HW246344   4.642   1.869   1.157 -0.3025  0.4801  0.2065
11429SOL     OW46345   6.221   3.405   2.374  0.3033  0.4089 -0.2889
11429SOL    HW146346   6.311   3.429   2.408  0.4782  0.1158 -0.5448
11429SOL    HW246347   6.229   3.367   2.282 -0.1347  0.8819 -0.5249
11430SOL     OW46348   8.581   1.761   2.935 -0.8622 -0.4145  0.4033
11430SOL    HW146349   8.654   1.829   2.930  0.1972 -1.6093 -0.7018
11430SOL    HW246350   8.493   1.806   2.923 -0.2296  0.8904  0.5797
11431SOL     OW46351   6.963   1.840   8.493  0.4774 -0.3028  0.3365
11431SOL    HW146352   7.048   1.863   8.445  0.8481  0.4149  1.3103
11431SOL    HW246353   6.911   1.924   8.509 -0.0569 -0.6479  0.4087
11432SOL     OW46354   6.706   0.660   3.411 -0.2417 -0.3055 -0.1295
11432SOL    HW146355   6.630   0.619   3.460 -0.0162 -0.2167  0.2992
11432SOL    HW246356   6.775   0.590   3.391  0.4451 -0.0219  1.1831
11433SOL     OW46357   6.773   0.685   2.807  0.0302 -0.5028  0.2665
11433SOL    HW146358   6.873   0.688   2.808  0.0284 -0.4729  2.4528
11433SOL    HW246359   6.742   0.590   2.807  0.0348 -0.5255 -1.5005
11434SOL     OW46360   9.047   9.713   5.283 -0.0726 -0.0230  0.1364
11434SOL    HW146361   9.021   9.663   5.366 -0.1336 -0.6905 -0.2804
11434SOL    HW246362   9.068   9.648   5.210  0.7291  0.5530 -0.1516
11435SOL     OW46363   2.629   4.231   7.892  0.4661 -0.0241 -0.2864
11435SOL    HW146364   2.606   4.300   7.824 -0.2495 -1.3385 -1.3933
11435SOL    HW246365   2.562   4.234   7.967 -0.4832 -0.5754 -1.1080
11436SOL     OW46366   6.164   8.371   4.112  0.1512 -0.2861  0.8533
11436SOL    HW146367   6.251   8.360   4.064  0.4320  2.3758  0.6850
11436SOL    HW246368   6.178   8.424   4.195 -1.3290  0.1535  0.8390
11437SOL     OW46369   9.344   1.252   7.076  0.1571 -0.0664  0.0758
11437SOL    HW146370   9.285   1.332   7.086  1.5023  1.0814 -1.0262
11437SOL    HW246371   9.386   1.231   7.165  1.0418  1.4381  0.0219
11438SOL     OW46372   7.637   5.156   1.570 -0.2843  0.0928 -0.1519
11438SOL    HW146373   7.590   5.180   1.655  0.5440 -0.3955  0.4439
11438SOL    HW246374   7.704   5.226   1.548  0.2308 -0.3046  0.1494
11439SOL     OW46375   8.269   2.352   1.322  0.3679 -0.5275  0.0938
11439SOL    HW146376   8.352   2.398   1.289  0.9888 -1.6893  0.0010
11439SOL    HW246377   8.276   2.254   1.304 -1.2004 -0.5908 -0.2455
11440SOL     OW46378   2.396   7.133   9.247 -0.2892 -0.1635 -0.1514
11440SOL    HW146379   2.433   7.133   9.154 -0.1663  0.2799 -0.1079
11440SOL    HW246380   2.299   7.110   9.244  0.3194 -2.8619 -0.1137
11441SOL     OW46381   2.491   2.191   0.359 -0.2199 -0.5449  0.3521
11441SOL    HW146382   2.450   2.264   0.304  1.5138 -1.3605 -2.0663
11441SOL    HW246383   2.426   2.116   0.369  0.3908 -1.6127 -3.0378
11442SOL     OW46384   9.711   0.689   1.223 -0.3815  0.7479 -0.5780
11442SOL    HW146385   9.642   0.626   1.258 -0.5135  1.2847  0.1405
11442SOL    HW246386   9.683   0.721   1.133 -0.7199  0.4146 -0.5942
11443SOL     OW46387   8.067   4.863   6.071  0.1155 -0.3328  0.2203
11443SOL    HW146388   8.075   4.948   6.123  0.3134 -0.5194  0.4929
11443SOL    HW246389   8.118   4.791   6.116  0.4740 -0.4432 -0.3572
11444SOL     OW46390   6.328   2.474   0.714 -0.0054  0.2440 -0.3710
11444SOL    HW146391   6.297   2.466   0.809  0.7866 -0.4822 -0.1707
11444SOL    HW246392   6.309   2.389   0.665 -0.8247  0.7731 -1.0007
11445SOL     OW46393   3.586   0.448   4.565 -0.0876  0.0189  0.0113
11445SOL    HW146394   3.663   0.507   4.541 -0.5133  0.2133 -0.8715
11445SOL    HW246395   3.567   0.458   4.663  0.4875  0.5825  0.0738
11446SOL     OW46396   6.061   0.110   1.035 -0.2015 -0.3627 -0.3663
11446SOL    HW146397   6.083   0.021   0.994 -0.3688 -0.9535  0.8066
11446SOL    HW246398   6.123   0.128   1.111 -1.5234 -0.4743  0.7696
11447SOL     OW46399   4.607   7.277   1.105  0.2471 -0.0051  0.2278
11447SOL    HW146400   4.573   7.325   1.186  2.2687 -0.3930  1.3472
11447SOL    HW246401   4.679   7.332   1.062 -0.1795 -0.2242 -0.7841
11448SOL     OW46402   2.135   2.728   5.221  0.0191 -0.0605  0.0143
11448SOL    HW146403   2.107   2.652   5.162 -0.9647  1.4870 -1.5815
11448SOL    HW246404   2.229   2.714   5.251  1.0292 -0.2373 -3.0426
11449SOL     OW46405   5.547   3.202   2.285  0.5359  0.3421  0.0983
11449SOL    HW146406   5.517   3.284   2.235 -1.2227 -1.0542 -1.2090
11449SOL    HW246407   5.550   3.124   2.222  0.2371 -1.0164  1.7413
11450SOL     OW46408   9.326   0.275   6.800 -0.7763  0.3654 -0.5099
11450SOL    HW146409   9.329   0.323   6.887 -0.8372  1.0677 -0.8912
11450SOL    HW246410   9.413   0.227   6.785 -1.0268 -0.3473  0.2618
11451SOL     OW46411   4.683   3.740   0.939 -0.6970 -0.4404  0.3010
11451SOL    HW146412   4.668   3.676   0.863 -2.0060 -0.0981  0.2562
11451SOL    HW246413   4.777   3.775   0.935 -0.3638 -1.3874 -0.4160
11452SOL     OW46414   8.266   7.956   2.729  0.0389  0.5733 -0.1632
11452SOL    HW146415   8.182   7.990   2.686 -0.8010 -1.2652 -0.0103
11452SOL    HW246416   8.256   7.961   2.829 -0.3015 -0.6338 -0.1373
11453SOL     OW46417   5.077   4.525   2.760  0.1504  0.2857  0.1414
11453SOL    HW146418   5.099   4.576   2.843 -0.1289 -0.8238  0.9218
11453SOL    HW246419   4.980   4.500   2.762  0.5382 -1.2641  0.3430
11454SOL     OW46420   6.587   5.295   8.498  0.1353 -0.2589  0.2184
11454SOL    HW146421   6.612   5.248   8.583  1.0344  0.0708  0.1324
11454SOL    HW246422   6.510   5.356   8.516  1.1769  0.8104  1.0972
11455SOL     OW46423   7.723   8.534   2.301  0.3376  0.3427 -0.1758
11455SOL    HW146424   7.700   8.533   2.204 -0.6077  0.2412  0.0445
11455SOL    HW246425   7.645   8.568   2.354  0.9516  0.6828  0.5200
11456SOL     OW46426   6.490   1.740   2.724 -0.5112 -0.2973 -0.0498
11456SOL    HW146427   6.460   1.826   2.766  2.0551  0.2488  0.7556
11456SOL    HW246428   6.432   1.719   2.646 -1.3335  2.0388 -0.1066
11457SOL     OW46429   6.016   4.889   5.399  0.3667 -0.7057  0.2082
11457SOL    HW146430   5.973   4.933   5.320  1.1892  0.4893  0.4006
11457SOL    HW246431   6.114   4.881   5.382  0.7848  0.9010  1.6834
11458SOL     OW46432   1.242   9.063   0.774 -0.1345 -0.0076  0.0390
11458SOL    HW146433   1.270   9.158   0.783  0.1922 -0.0657 -0.3567
11458SOL    HW246434   1.143   9.056   0.783 -0.0343  0.1863  1.5366
11459SOL     OW46435   5.071   2.262   3.051 -0.0486  0.1275  0.0470
11459SOL    HW146436   5.144   2.276   3.118 -0.5266  2.5584  0.1182
11459SOL    HW246437   5.110   2.263   2.959  0.0527  1.4110  0.0865
11460SOL     OW46438   0.219   5.894   8.964  0.0642 -0.0195  0.4762
11460SOL    HW146439   0.213   5.875   9.062  0.6775  0.9782  0.7177
11460SOL    HW246440   0.308   5.934   8.944 -0.6048  1.1287 -0.2497
11461SOL     OW46441   0.876   0.158   3.868 -0.1961  0.3601 -0.1018
11461SOL    HW146442   0.832   0.214   3.798 -0.5282  0.2223 -0.0080
11461SOL    HW246443   0.888   0.212   3.951 -0.3885  0.3356 -0.0572
11462SOL     OW46444   2.284   8.611   4.984  0.3633 -0.4573  0.2450
11462SOL    HW146445   2.356   8.563   5.033  1.2736 -2.2813 -2.7054
11462SOL    HW246446   2.230   8.546   4.930 -1.2657  1.3034 -0.3409
11463SOL     OW46447   4.455   3.046   2.531 -0.0482 -0.0007 -0.3069
11463SOL    HW146448   4.520   3.054   2.606 -1.8724 -2.0313  1.5909
11463SOL    HW246449   4.384   2.980   2.556 -2.5327  1.7240 -2.5154
11464SOL     OW46450   1.704   1.984   1.766 -0.3644  0.1593  0.0624
11464SOL    HW146451   1.784   1.926   1.783 -0.8605 -0.3123  0.8434
11464SOL    HW246452   1.702   2.011   1.670  1.4409  1.2454  0.2971
11465SOL     OW46453   3.345   6.344   0.592 -0.0700  0.1033  0.3812
11465SOL    HW146454   3.320   6.349   0.689  0.4380 -1.2828  0.6022
11465SOL    HW246455   3.295   6.414   0.540  0.4258  1.5460  1.8027
11466SOL     OW46456   3.863   0.893   3.865 -0.3373 -0.0212 -0.3816
11466SOL    HW146457   3.803   0.869   3.788  0.1104 -0.4339 -0.6082
11466SOL    HW246458   3.822   0.862   3.950 -0.4770 -0.2464 -0.5298
11467SOL     OW46459   4.395   2.058   5.643  0.3041 -0.8414 -0.1374
11467SOL    HW146460   4.420   2.151   5.669 -0.0405 -1.2005  1.5012
11467SOL    HW246461   4.403   2.048   5.543  1.2911  0.6444 -0.2203
11468SOL     OW46462   1.627   1.726   3.573 -0.6194 -0.1544 -0.0237
11468SOL    HW146463   1.651   1.689   3.483  0.0345  0.0250  0.0709
11468SOL    HW246464   1.593   1.820   3.563  1.5806  0.6877  0.1162
11469SOL     OW46465   4.827   3.405   1.718  0.3118  0.0949  0.0606
11469SOL    HW146466   4.892   3.408   1.794  0.9155  0.9311 -0.4800
11469SOL    HW246467   4.801   3.498   1.693 -1.0373 -0.2246  0.2092
11470SOL     OW46468   9.304   0.029   1.815  0.6485 -0.2966 -0.3184
11470SOL    HW146469   9.402   0.009   1.822  0.8342  0.6293 -0.1943
11470SOL    HW246470   9.264  -0.026   1.742  1.0938 -1.2843  0.1701
11471SOL     OW46471   7.097   9.658   3.788 -0.3329 -0.3460 -0.5929
11471SOL    HW146472   7.077   9.685   3.882  0.1757 -0.3488 -0.4804
11471SOL    HW246473   7.015   9.665   3.733 -0.6047 -0.2223 -0.1739
11472SOL     OW46474   4.987   6.771   6.917 -0.4608 -0.6393  0.3242
11472SOL    HW146475   4.984   6.871   6.928 -1.3740 -0.5428 -0.7565
11472SOL    HW246476   4.911   6.730   6.967 -1.4839 -0.6073 -1.1896
11473SOL     OW46477   5.938   5.970   4.934 -0.2465 -0.1351  0.0038
11473SOL    HW146478   5.858   5.956   4.875 -0.6441  1.0135  0.2560
11473SOL    HW246479   6.021   5.943   4.884 -0.7100 -0.4911 -0.5806
11474SOL     OW46480   5.033   1.547   2.258 -0.3032  0.3642 -0.6741
11474SOL    HW146481   5.067   1.635   2.291  1.0123 -0.5850  0.5637
11474SOL    HW246482   4.954   1.520   2.313  1.0011 -0.5311  0.7864
11475SOL     OW46483   2.184   3.214   3.432 -0.0552 -0.4476 -0.1921
11475SOL    HW146484   2.181   3.270   3.350 -1.4425 -0.0655  0.1074
11475SOL    HW246485   2.235   3.262   3.504 -0.2854 -0.0596 -0.2899
11476SOL     OW46486   5.788   0.686   7.516 -0.1248  0.5347  0.2897
11476SOL    HW146487   5.731   0.644   7.445  0.2251  0.7460 -0.1194
11476SOL    HW246488   5.837   0.764   7.477  0.1829  0.5591  0.7266
11477SOL     OW46489   3.274   3.472   9.433 -0.5062  0.2908 -0.6951
11477SOL    HW146490   3.176   3.455   9.420 -0.7222 -1.6702  2.7959
11477SOL    HW246491   3.322   3.384   9.443  1.1465  1.2828  0.4742
11478SOL     OW46492   2.920   8.120   4.191 -0.1867  0.3006 -0.1567
11478SOL    HW146493   3.005   8.134   4.140 -1.2752  1.0504 -1.7879
11478SOL    HW246494   2.867   8.047   4.148 -0.3169 -0.2643  0.9413
11479SOL     OW46495   2.234   2.780   0.819  0.4073 -0.0001  0.2210
11479SOL    HW146496   2.309   2.737   0.767  1.1228  1.6855 -0.1579
11479SOL    HW246497   2.152   2.724   0.810  1.1740 -1.0039 -0.7311
11480SOL     OW46498   9.467   2.525   2.175 -0.0711 -0.0443 -0.1807
11480SOL    HW146499   9.500   2.607   2.221 -1.8044 -0.0580  1.1132
11480SOL    HW246500   9.528   2.504   2.098  2.3305  0.5157  1.4847
11481SOL     OW46501   1.983   0.251   1.209 -0.2151 -0.1379 -0.3599
11481SOL    HW146502   1.985   0.230   1.307 -1.0489 -1.8961 -0.7061
11481SOL    HW246503   2.076   0.275   1.179  0.5504 -2.0758  0.3395
11482SOL     OW46504   8.866   9.954   7.034 -0.5998  0.2188  0.4463
11482SOL    HW146505   8.953   9.988   7.000 -1.5411  0.9104 -1.3505
11482SOL    HW246506   8.801  10.030   7.040 -1.5212 -0.5431  0.3205
11483SOL     OW46507   4.719   0.618   8.728  0.0731 -0.4699 -0.2967
11483SOL    HW146508   4.623   0.647   8.724 -0.3778 -1.4525  2.5411
11483SOL    HW246509   4.723   0.519   8.745  1.6143 -0.6544 -1.6098
11484SOL     OW46510   7.149   7.122   5.092  0.2057 -0.1044 -0.0222
11484SOL    HW146511   7.138   7.221   5.092  1.0545  0.0575  3.2903
11484SOL    HW246512   7.239   7.098   5.128 -0.3077 -2.0974  0.0163
11485SOL     OW46513   3.519   7.929   0.307 -0.5509 -0.0064  0.4582
11485SOL    HW146514   3.428   7.911   0.271 -0.1948 -0.0929 -0.4042
11485SOL    HW246515   3.512   7.957   0.403 -1.5095  0.3367  0.2936
11486SOL     OW46516   1.437   1.505   2.897  0.1745  0.1694 -0.0329
11486SOL    HW146517   1.486   1.578   2.848 -0.5112  0.3829 -0.4088
11486SOL    HW246518   1.405   1.437   2.832 -1.0855  0.6565  0.0690
11487SOL     OW46519   4.349   3.841   1.187  0.3347 -0.6479 -0.0294
11487SOL    HW146520   4.387   3.875   1.101 -0.7464 -0.2695 -0.3689
11487SOL    HW246521   4.419   3.790   1.236  1.3676  0.2846 -0.5009
11488SOL     OW46522   9.375   2.181   4.450  0.2443 -0.1133  0.2233
11488SOL    HW146523   9.393   2.268   4.405 -1.1110 -0.3865 -0.8834
11488SOL    HW246524   9.374   2.107   4.382 -1.0369 -0.6457  0.7956
11489SOL     OW46525   5.729   1.604   0.744  0.0224 -0.3961  0.1837
11489SOL    HW146526   5.771   1.677   0.690  0.2942 -0.5257  0.2215
11489SOL    HW246527   5.715   1.524   0.686  0.5617 -0.6281  0.3756
11490SOL     OW46528   9.744   2.412   2.364 -0.4984 -0.1299 -0.3389
11490SOL    HW146529   9.804   2.332   2.369 -1.0163 -0.6344 -1.9721
11490SOL    HW246530   9.649   2.384   2.376 -0.6221  0.3488 -0.1751
11491SOL     OW46531   5.078   0.951   3.584 -0.1390 -0.5040  0.0944
11491SOL    HW146532   5.080   0.924   3.488 -0.0416  0.9282 -0.3080
11491SOL    HW246533   5.109   0.874   3.641 -2.6603 -2.2342 -0.8023
11492SOL     OW46534   5.452   1.309   3.347 -0.1890  0.1649 -0.0993
11492SOL    HW146535   5.404   1.396   3.339  0.7317  0.6978  0.2436
11492SOL    HW246536   5.516   1.312   3.423  1.2072 -0.1635 -1.2497
11493SOL     OW46537   1.138   1.990   4.095 -0.2485 -0.6076 -0.0226
11493SOL    HW146538   1.149   1.890   4.099  0.8109 -0.4688  0.6756
11493SOL    HW246539   1.041   2.012   4.095 -0.4993 -1.6573 -0.5337
11494SOL     OW46540   4.263   3.554   2.966  0.0249 -0.4353 -0.3788
11494SOL    HW146541   4.270   3.460   2.934  0.7000 -1.9004  3.7662
11494SOL    HW246542   4.350   3.581   3.008  0.0011  2.2459 -1.9526
11495SOL     OW46543   3.668   0.975   3.412 -0.2149  0.9948 -0.2174
11495SOL    HW146544   3.760   0.992   3.376 -0.0117 -0.2174 -0.3073
11495SOL    HW246545   3.611   0.934   3.341 -0.3209  0.1774  0.3330
11496SOL     OW46546   0.206   6.777   1.582 -0.3916  0.0261  0.0873
11496SOL    HW146547   0.140   6.850   1.563 -1.4123 -0.5933  1.2066
11496SOL    HW246548   0.292   6.817   1.614 -0.9015  0.7440  0.5810
11497SOL     OW46549   5.977   9.924   3.080 -0.4243 -0.0141  0.3343
11497SOL    HW146550   6.011   9.991   3.014 -1.4114  1.1890  1.0168
11497SOL    HW246551   5.996   9.957   3.173 -0.8135 -0.7476  0.6762
11498SOL     OW46552   2.270   6.044   4.034 -0.3619 -0.1160  0.1814
11498SOL    HW146553   2.209   5.981   4.080 -1.6806  1.1913  0.2559
11498SOL    HW246554   2.357   6.049   4.084 -2.0171  1.8232  3.0089
11499SOL     OW46555   4.027   3.937   2.363 -0.2996  0.7432  0.2834
11499SOL    HW146556   4.102   3.873   2.345  0.4507  1.0763  2.0505
11499SOL    HW246557   3.940   3.897   2.336 -0.0980 -1.9398  3.3306
11500SOL     OW46558   6.793   0.444   1.639  0.3956  0.1680 -0.1683
11500SOL    HW146559   6.744   0.517   1.688  0.1637 -0.2875  0.2765
11500SOL    HW246560   6.822   0.374   1.703  1.4848  0.3439 -0.4650
11501SOL     OW46561   0.875   1.190   0.912 -0.8102 -0.7741 -0.5793
11501SOL    HW146562   0.810   1.169   0.985  0.4356 -0.5886  0.6123
11501SOL    HW246563   0.949   1.123   0.913 -0.4140 -0.3507 -1.2212
11502SOL     OW46564   2.070   1.960   0.716  0.4781  0.6771 -0.0188
11502SOL    HW146565   1.988   1.935   0.664 -0.5438  0.2590  1.7371
11502SOL    HW246566   2.115   1.878   0.750  1.1842  0.9445 -0.2932
11503SOL     OW46567   0.992   2.492   3.563  0.1406  0.4635  0.1706
11503SOL    HW146568   0.936   2.549   3.503  1.8652  1.7091 -0.3106
11503SOL    HW246569   1.043   2.551   3.626  0.4262 -0.6715  1.0109
11504SOL     OW46570   1.343   2.996   0.840 -0.2868  0.5487  0.2133
11504SOL    HW146571   1.436   2.959   0.833 -1.2760 -1.8735 -1.2287
11504SOL    HW246572   1.325   3.056   0.762 -0.4660 -0.3746 -0.4755
11505SOL     OW46573   6.313   5.488   0.184 -0.1684  0.1421 -0.3017
11505SOL    HW146574   6.288   5.499   0.088  2.7579 -1.0727 -1.2488
11505SOL    HW246575   6.387   5.551   0.207  0.9008 -1.3759  0.4646
11506SOL     OW46576   1.629   2.917   0.034 -0.0838 -0.1752 -0.0660
11506SOL    HW146577   1.579   2.878  -0.043  0.9585  0.0614 -0.8766
11506SOL    HW246578   1.704   2.856   0.060  0.7915  0.6687 -0.5429
11507SOL     OW46579   5.455   4.118   2.266 -0.1833  0.3883 -0.0971
11507SOL    HW146580   5.395   4.116   2.186 -1.5675  1.6323  0.8921
11507SOL    HW246581   5.520   4.193   2.257 -1.8112  1.9688  0.9619
11508SOL     OW46582   2.350   1.398   1.043  0.7641 -0.9070 -0.0523
11508SOL    HW146583   2.286   1.336   0.997  0.8706 -2.1721  1.4558
11508SOL    HW246584   2.351   1.486   0.996 -1.7309 -1.0312 -0.4131
11509SOL     OW46585   0.468   4.659   1.038  0.0444  0.1003 -0.3739
11509SOL    HW146586   0.429   4.567   1.041 -1.0929  0.6037  0.1443
11509SOL    HW246587   0.503   4.684   1.128  0.0092  0.3310 -0.4230
11510SOL     OW46588   1.552   1.073   0.770  0.0691 -0.0996  0.2091
11510SOL    HW146589   1.592   1.001   0.826  0.4288  0.8197  1.1635
11510SOL    HW246590   1.495   1.033   0.698  1.5196 -1.3803 -0.2447
11511SOL     OW46591   0.535   4.884   5.665 -0.0244  0.0074 -0.0619
11511SOL    HW146592   0.594   4.824   5.611  0.0995  0.1797 -0.1161
11511SOL    HW246593   0.586   4.919   5.744  0.0873  0.5235 -0.3607
11512SOL     OW46594   5.343   0.882   6.778 -0.1619 -0.4147 -0.6828
11512SOL    HW146595   5.296   0.814   6.721 -0.2735  0.6216 -1.8391
11512SOL    HW246596   5.404   0.937   6.721  2.6894 -1.9191  0.8438
11513SOL     OW46597   5.532   2.085   2.313  0.3211  0.3023  0.6661
11513SOL    HW146598   5.546   2.060   2.409 -1.8189  1.6932  1.3824
11513SOL    HW246599   5.484   2.011   2.266  3.1648 -1.2529  0.1088
11514SOL     OW46600   3.677   8.815   2.184  0.4177  0.3422 -0.4278
11514SOL    HW146601   3.677   8.799   2.283 -0.4207 -0.2053 -0.5145
11514SOL    HW246602   3.707   8.732   2.137 -4.8948 -1.4497 -0.9343
11515SOL     OW46603   1.149   7.222   2.923  0.0126  0.4342  0.4819
11515SOL    HW146604   1.170   7.160   2.847  0.0739 -0.7081  1.4247
11515SOL    HW246605   1.080   7.287   2.893 -1.3776 -1.2074  0.0126
11516SOL     OW46606   0.206   2.588   4.762  0.0791  0.1387 -0.0453
11516SOL    HW146607   0.131   2.650   4.780  0.5130  0.7570 -0.3626
11516SOL    HW246608   0.223   2.583   4.663 -0.4889 -1.1143 -0.0874
11517SOL     OW46609   8.785   0.149   6.117  0.3808 -0.3931  0.1820
11517SOL    HW146610   8.799   0.185   6.209 -0.0192 -0.3791  0.2362
11517SOL    HW246611   8.734   0.217   6.063 -2.0462 -1.6409  0.8288
11518SOL     OW46612   1.946   9.604   2.676  0.2657  0.2064  0.9059
11518SOL    HW146613   1.958   9.615   2.577 -0.9437 -1.1889  0.5902
11518SOL    HW246614   1.949   9.507   2.699  0.0905  0.5031  2.1874
11519SOL     OW46615   2.447   1.898   1.432 -0.6584 -0.1338 -0.1304
11519SOL    HW146616   2.412   1.831   1.366  2.5637 -3.8943  1.7235
11519SOL    HW246617   2.516   1.955   1.388  1.3545 -2.5079 -0.1496
11520SOL     OW46618   6.774   3.296   3.626 -0.1991  0.1195 -0.1345
11520SOL    HW146619   6.728   3.318   3.712  1.4210  1.1347  0.5025
11520SOL    HW246620   6.711   3.248   3.566 -1.6527  0.2495  1.2482
11521SOL     OW46621   4.219   9.074   6.903  0.0343 -0.6663  0.3411
11521SOL    HW146622   4.166   9.155   6.928 -0.5676 -1.1824  0.7414
11521SOL    HW246623   4.316   9.098   6.897 -0.4372  0.6840 -2.1322
11522SOL     OW46624   1.877   5.942   8.551  0.0932 -0.1027 -0.0830
11522SOL    HW146625   1.898   5.845   8.536  0.7617  0.1777 -1.0276
11522SOL    HW246626   1.957   5.997   8.528 -0.9861  0.8432 -1.6647
11523SOL     OW46627   4.034   0.071   7.131 -0.4337  0.4475  0.0160
11523SOL    HW146628   4.070   0.063   7.037 -0.4212 -0.1474  0.0684
11523SOL    HW246629   4.110   0.087   7.194 -0.2846 -0.5055  0.0889
11524SOL     OW46630   6.042   8.290   9.250  0.3513 -0.4653 -0.3813
11524SOL    HW146631   6.124   8.331   9.290 -0.4250 -0.8804  1.6960
11524SOL    HW246632   6.036   8.194   9.277 -1.0528 -0.3207 -0.1556
11525SOL     OW46633   3.227   8.597   7.476 -0.2969  0.1997  0.4426
11525SOL    HW146634   3.257   8.531   7.545 -0.6763  0.4416  0.8413
11525SOL    HW246635   3.287   8.677   7.479 -1.4505  1.0370  1.7934
11526SOL     OW46636   3.015   5.017   3.501 -0.5758  0.6582  0.4893
11526SOL    HW146637   3.063   4.999   3.587  0.4297  0.5069 -0.0891
11526SOL    HW246638   2.990   5.114   3.496 -1.3116  0.5133  1.2816
11527SOL     OW46639   4.751   0.595   3.018 -0.4760  0.2397 -0.2363
11527SOL    HW146640   4.736   0.502   3.050 -0.6236  0.4986  0.4604
11527SOL    HW246641   4.663   0.642   3.011 -0.3284  0.5860  0.2226
11528SOL     OW46642   3.718   0.856   2.346 -0.3635 -0.1412 -0.1043
11528SOL    HW146643   3.771   0.807   2.416 -1.7414  0.0929  1.1264
11528SOL    HW246644   3.749   0.951   2.342  1.5380 -0.7777 -1.7074
11529SOL     OW46645   4.684   7.487   4.503  0.1695 -0.4254 -0.0803
11529SOL    HW146646   4.779   7.457   4.514 -0.0043 -0.7113  0.6745
11529SOL    HW246647   4.649   7.520   4.591 -0.3072  0.0316 -0.4429
11530SOL     OW46648   2.325   3.557   9.307 -0.1654  0.0376 -0.4019
11530SOL    HW146649   2.377   3.471   9.310  0.9434  0.7145  0.1222
11530SOL    HW246650   2.371   3.622   9.246  0.1110  0.9512  0.7575
11531SOL     OW46651   4.683   8.564   5.216 -0.1337  0.5685  0.1888
11531SOL    HW146652   4.755   8.495   5.208  0.3231  1.1988 -1.1973
11531SOL    HW246653   4.609   8.543   5.152 -0.8962  0.2956  1.1381
11532SOL     OW46654   6.744   0.937   2.583  0.0697 -0.2673 -0.5304
11532SOL    HW146655   6.699   1.024   2.565 -1.6737 -1.2658 -1.0856
11532SOL    HW246656   6.739   0.917   2.681  0.6173  0.3197 -0.3760
11533SOL     OW46657   7.859   1.439   0.619  0.3597  0.0287  0.0509
11533SOL    HW146658   7.774   1.451   0.671  0.1912  1.9249 -0.6099
11533SOL    HW246659   7.935   1.424   0.682 -0.1269  0.4528  0.7448
11534SOL     OW46660   8.812   0.325   5.731 -0.1735  0.3344 -0.6560
11534SOL    HW146661   8.877   0.253   5.756 -1.2192 -0.5528 -0.4962
11534SOL    HW246662   8.857   0.388   5.667  0.6672 -0.5875 -0.9910
11535SOL     OW46663   4.499   4.991   3.686  0.2938  0.1424  0.1506
11535SOL    HW146664   4.565   5.017   3.615  1.0092  0.0008  0.7564
11535SOL    HW246665   4.473   5.073   3.738 -0.3816  0.2799 -0.3947
11536SOL     OW46666   0.816   3.952   8.116  0.8277  0.1909  0.2544
11536SOL    HW146667   0.724   3.988   8.104 -0.1721 -2.0111  1.0181
11536SOL    HW246668   0.867   3.959   8.030 -0.1979  1.0119 -0.2919
11537SOL     OW46669   7.100   1.817   2.153 -0.6466  0.0755 -0.0291
11537SOL    HW146670   7.092   1.837   2.250 -1.2441 -0.8853  0.1166
11537SOL    HW246671   7.026   1.864   2.103  0.0649  1.1328 -0.1129
11538SOL     OW46672   6.581   0.652   4.791  0.1547  0.0732 -1.0346
11538SOL    HW146673   6.565   0.558   4.822 -3.0267  1.1543  0.7555
11538SOL    HW246674   6.666   0.686   4.832 -0.7910 -0.6463  1.5938
11539SOL     OW46675   0.277   0.073   3.703  0.1090  0.2044  0.1180
11539SOL    HW146676   0.374   0.088   3.688  0.1673  0.1345  0.4243
11539SOL    HW246677   0.238   0.022   3.626  0.3800 -0.0439  0.1475
11540SOL     OW46678   3.873   1.779   0.845 -0.7448  1.0731 -0.0421
11540SOL    HW146679   3.829   1.807   0.930  0.7547 -0.8663  1.3919
11540SOL    HW246680   3.967   1.753   0.862 -1.1227 -1.7512 -1.8395
11541SOL     OW46681   6.981   3.291   7.060  0.3763  0.2894  0.1611
11541SOL    HW146682   7.022   3.278   6.970 -0.1138 -0.8594  0.0934
11541SOL    HW246683   7.039   3.247   7.129  0.4080  0.5999  0.3344
11542SOL     OW46684   3.650   4.657   9.128  0.0006  0.6337  0.1640
11542SOL    HW146685   3.706   4.739   9.123 -0.4851  1.2815  3.9009
11542SOL    HW246686   3.554   4.683   9.139 -0.2937 -0.4559  0.2357
11543SOL     OW46687   7.787   3.744   3.267 -0.3393 -0.0932 -0.1101
11543SOL    HW146688   7.838   3.706   3.344 -2.0820 -0.9246  0.6602
11543SOL    HW246689   7.833   3.722   3.182  0.4396 -1.0649  0.5596
11544SOL     OW46690   5.429   9.236   9.289 -0.2617 -0.3302  0.0948
11544SOL    HW146691   5.488   9.156   9.297  0.7501  0.0811 -2.8689
11544SOL    HW246692   5.336   9.206   9.264  0.0613 -0.6083 -0.7866
11545SOL     OW46693   3.820   2.483   0.034 -0.2342 -0.3534  0.3555
11545SOL    HW146694   3.760   2.532  -0.029 -2.5309  1.5413  3.8152
11545SOL    HW246695   3.794   2.387   0.038 -0.9302 -0.2040 -0.5186
11546SOL     OW46696   7.127   3.560   4.128 -0.3011 -0.3616 -0.3387
11546SOL    HW146697   7.216   3.518   4.112 -0.2816 -0.1532 -0.7915
11546SOL    HW246698   7.131   3.614   4.212 -0.4510 -1.5975  0.4751
11547SOL     OW46699   7.769   9.014   8.128 -0.0711 -0.1113 -0.3261
11547SOL    HW146700   7.782   8.970   8.039 -0.9694 -0.4969 -0.2741
11547SOL    HW246701   7.749   8.944   8.196  4.4530 -0.2770  0.9974
11548SOL     OW46702   6.496   9.253   8.034 -0.1783  0.2723  0.8455
11548SOL    HW146703   6.466   9.210   7.948  0.6981 -2.2578  1.7832
11548SOL    HW246704   6.576   9.310   8.017 -0.1969  0.0301 -0.0714
11549SOL     OW46705   7.383   1.281   3.394 -0.0898  0.2108  0.1517
11549SOL    HW146706   7.350   1.259   3.302 -1.4060 -0.7304  0.8275
11549SOL    HW246707   7.364   1.377   3.413 -1.8487 -0.1336  0.2510
11550SOL     OW46708   1.212   3.947   6.961  0.1871 -0.0968 -0.0268
11550SOL    HW146709   1.163   3.864   6.991  0.8538 -0.3415  0.3985
11550SOL    HW246710   1.286   3.921   6.899  0.7167  0.1330  0.5073
11551SOL     OW46711   4.614   3.935   1.601 -0.2345  0.2412  0.1145
11551SOL    HW146712   4.656   3.857   1.648 -0.0507 -0.1872 -0.7399
11551SOL    HW246713   4.627   3.925   1.502 -1.3166  0.7196 -0.0821
11552SOL     OW46714   2.189   9.765   6.886  0.5993 -0.1543  0.2722
11552SOL    HW146715   2.124   9.769   6.810  1.6610  0.5534 -0.5988
11552SOL    HW246716   2.245   9.848   6.887  1.1967 -0.5597  1.2915
11553SOL     OW46717   4.633   0.154   8.269  0.3052 -0.2200  0.1690
11553SOL    HW146718   4.589   0.197   8.190  1.1828 -0.2948 -0.3597
11553SOL    HW246719   4.565   0.142   8.342 -1.5833 -3.9201 -2.0391
11554SOL     OW46720   5.568   0.494   2.185 -0.1413 -0.1299 -0.0193
11554SOL    HW146721   5.488   0.468   2.239  0.3167 -0.7477  0.3624
11554SOL    HW246722   5.544   0.572   2.127 -0.1056  1.7746  2.4328
11555SOL     OW46723   7.491   7.665   4.728  0.1440 -0.6715 -0.5193
11555SOL    HW146724   7.430   7.744   4.721  0.4463 -0.3812  0.1710
11555SOL    HW246725   7.485   7.611   4.643 -1.1978 -0.7448 -0.3887
11556SOL     OW46726   3.608   3.919   9.051  1.0829  0.4463  0.1993
11556SOL    HW146727   3.539   3.882   9.114  0.3831  0.8317 -0.3393
11556SOL    HW246728   3.698   3.916   9.095  0.8337 -0.6898  0.6559
11557SOL     OW46729   2.281   2.390   7.743 -0.0311 -0.1475  0.2916
11557SOL    HW146730   2.288   2.423   7.837  1.2547 -1.1174  0.5406
11557SOL    HW246731   2.188   2.357   7.726 -0.6473  1.3021  0.7927
11558SOL     OW46732   1.261   5.493   4.889 -0.3670 -0.4445 -0.9349
11558SOL    HW146733   1.296   5.462   4.978 -1.4952  0.8656 -0.0126
11558SOL    HW246734   1.161   5.495   4.891 -0.3392  2.3726 -1.2585
11559SOL     OW46735   3.919   9.789   8.539  0.1904  0.4484  0.6483
11559SOL    HW146736   3.862   9.785   8.457  1.8216  1.9224 -0.5914
11559SOL    HW246737   4.012   9.816   8.514  1.3984 -1.6054  2.6630
11560SOL     OW46738   6.266   0.105   5.103  0.6481 -0.3767 -0.1920
11560SOL    HW146739   6.363   0.127   5.114  0.8766 -1.3006 -0.3346
11560SOL    HW246740   6.252   0.061   5.014 -0.5821  3.6418 -2.1397
11561SOL     OW46741   8.623   7.453   5.873 -0.3658  0.2828 -0.4076
11561SOL    HW146742   8.524   7.441   5.864 -0.4698  0.0533  1.0647
11561SOL    HW246743   8.642   7.522   5.943  0.5290 -0.0399 -0.3286
11562SOL     OW46744   2.043   2.937   4.070 -0.2240  0.1311  0.0194
11562SOL    HW146745   2.128   2.900   4.109  0.1041  0.5846 -0.2592
11562SOL    HW246746   2.058   3.032   4.042  0.4012 -1.0130 -3.7988
11563SOL     OW46747   4.773   3.904   5.031 -0.6705 -0.8605  0.1932
11563SOL    HW146748   4.834   3.893   5.110 -1.8515 -0.0251  1.2406
11563SOL    HW246749   4.678   3.895   5.061 -1.2066  1.0670 -0.8576
11564SOL     OW46750   7.015   3.888   2.856  0.5651 -0.4921 -0.0095
11564SOL    HW146751   7.035   3.818   2.925  0.0580 -0.6640 -0.0371
11564SOL    HW246752   7.098   3.941   2.838  1.6273 -2.6406 -1.7473
11565SOL     OW46753   1.833   0.086   3.211 -0.4453 -0.5115 -0.5046
11565SOL    HW146754   1.799   0.007   3.262  0.9837 -0.2610  0.8836
11565SOL    HW246755   1.910   0.058   3.153  0.5983 -0.0037  0.6113
11566SOL     OW46756   3.113   3.179   9.176 -0.6890 -0.1440  0.5078
11566SOL    HW146757   3.164   3.241   9.117  0.1514 -0.4378  0.9178
11566SOL    HW246758   3.130   3.203   9.272 -0.2980 -1.0614  0.6667
11567SOL     OW46759   3.178   1.399   8.635  0.0611 -0.1254  0.5684
11567SOL    HW146760   3.130   1.377   8.719  0.4655 -1.9691  0.3542
11567SOL    HW246761   3.112   1.427   8.565 -0.7116 -2.4142  0.3368
11568SOL     OW46762   2.905   7.667   0.247 -0.0256 -0.3592 -0.4198
11568SOL    HW146763   2.988   7.613   0.240  0.4378 -0.1251  2.3671
11568SOL    HW246764   2.834   7.628   0.189  1.0570 -2.4850 -0.3489
11569SOL     OW46765   6.658   0.690   4.537  0.1720 -0.3362  0.1168
11569SOL    HW146766   6.686   0.784   4.553  2.0209 -0.8091 -0.2770
11569SOL    HW246767   6.611   0.655   4.619  3.3884 -0.5004  1.9521
11570SOL     OW46768   3.644   2.004   7.438 -0.5671  0.0400 -0.1103
11570SOL    HW146769   3.629   2.030   7.343  1.4237  1.4885 -0.0690
11570SOL    HW246770   3.635   2.085   7.497 -1.2600 -0.7355  0.8671
11571SOL     OW46771   5.503   6.328   1.565 -0.3966  0.0628 -0.1490
11571SOL    HW146772   5.530   6.296   1.474 -2.3158 -0.5123 -0.5352
11571SOL    HW246773   5.506   6.428   1.568  4.3361  0.0076  0.6505
11572SOL     OW46774   1.330   0.793   9.152 -0.4765  0.0071 -0.2374
11572SOL    HW146775   1.393   0.756   9.220 -1.8495  0.8106  1.5201
11572SOL    HW246776   1.323   0.892   9.163 -0.3294  0.2250 -1.8977
11573SOL     OW46777   2.754   0.389   3.310 -0.4118 -0.0409 -0.9262
11573SOL    HW146778   2.731   0.373   3.214 -2.1931  1.4443 -0.7560
11573SOL    HW246779   2.679   0.358   3.368 -0.4301  1.4344 -0.1516
11574SOL     OW46780   4.342   1.632   2.449 -0.1019 -0.1573  0.0804
11574SOL    HW146781   4.351   1.725   2.414  1.5220 -0.4017 -0.1978
11574SOL    HW246782   4.284   1.579   2.387  1.8689 -0.2810 -1.7143
11575SOL     OW46783   5.982   3.171   0.091 -0.3468  0.3835 -0.6097
11575SOL    HW146784   5.966   3.269   0.078  1.1224  0.8258  0.8107
11575SOL    HW246785   6.058   3.158   0.153  0.1377 -1.6825 -1.6074
11576SOL     OW46786   8.291   0.980   3.333 -0.2306  0.8351 -0.5900
11576SOL    HW146787   8.283   1.027   3.246 -0.2654  2.4410  0.2710
11576SOL    HW246788   8.311   1.046   3.405 -0.3994 -0.4478  0.6516
11577SOL     OW46789   0.453   1.897   1.644  0.1932  0.1581 -0.1167
11577SOL    HW146790   0.378   1.961   1.629  0.3836  0.4909  0.3299
11577SOL    HW246791   0.519   1.906   1.570  0.4298  0.7832  0.1661
11578SOL     OW46792   1.635   4.234   5.997  0.2324  0.2857 -0.1052
11578SOL    HW146793   1.680   4.145   5.991  0.6050  0.6164 -3.0630
11578SOL    HW246794   1.549   4.224   6.047 -0.1354 -1.9215 -1.0927
11579SOL     OW46795   1.259   3.051   2.004 -0.4246  0.4353 -0.0285
11579SOL    HW146796   1.168   3.017   2.026 -0.4386  1.1337  1.0242
11579SOL    HW246797   1.252   3.143   1.965 -0.2488  0.0421 -0.9973
11580SOL     OW46798   5.184   2.221   1.459  0.2504  0.1698 -0.2431
11580SOL    HW146799   5.140   2.310   1.450  0.1057  0.1282  0.0414
11580SOL    HW246800   5.116   2.153   1.488  0.3651 -0.0285 -0.4291
11581SOL     OW46801   7.795   6.045   8.974 -0.2000 -0.0674  0.0115
11581SOL    HW146802   7.708   6.011   9.011  0.5809  0.2530  2.2462
11581SOL    HW246803   7.868   5.980   8.996  0.1270 -0.4085 -1.9822
11582SOL     OW46804   5.483   1.695   2.318  1.0147  0.1151  0.3130
11582SOL    HW146805   5.469   1.793   2.314  0.6753  0.0530 -0.0938
11582SOL    HW246806   5.472   1.663   2.412  2.1833  0.6197  0.6274
11583SOL     OW46807   1.777   7.737   5.140  0.6364  1.3866  0.2548
11583SOL    HW146808   1.698   7.797   5.127 -0.3694  0.2865  1.0818
11583SOL    HW246809   1.795   7.726   5.238  0.0386 -0.5868  0.1809
11584SOL     OW46810   2.311   0.671   5.720 -0.2295  0.0299 -0.1135
11584SOL    HW146811   2.327   0.646   5.815 -0.6981  0.5948  0.1151
11584SOL    HW246812   2.349   0.761   5.702 -1.1033  0.3921 -0.1705
11585SOL     OW46813   8.680   9.622   5.024  0.0287 -0.5186  0.0469
11585SOL    HW146814   8.755   9.687   5.014 -0.5403  0.2973  0.9472
11585SOL    HW246815   8.662   9.577   4.937 -1.0768  2.2108 -1.2051
11586SOL     OW46816   6.341   8.758   8.087  0.1432 -0.1758 -0.1987
11586SOL    HW146817   6.316   8.661   8.090 -0.3024 -0.0535  0.1363
11586SOL    HW246818   6.365   8.784   7.994  1.3828 -0.8841 -0.0898
11587SOL     OW46819   7.509   8.638   2.805 -0.0114  0.3602 -0.1043
11587SOL    HW146820   7.523   8.726   2.759  0.3578 -1.1373 -2.9709
11587SOL    HW246821   7.458   8.652   2.890  1.3971  3.5102  0.2777
11588SOL     OW46822   2.545   9.620   5.322  0.4669  0.5661 -0.5525
11588SOL    HW146823   2.610   9.553   5.286  1.0327  0.8599 -0.0709
11588SOL    HW246824   2.462   9.618   5.267  0.3366 -0.7944 -0.3364
11589SOL     OW46825   4.062   8.960   2.603 -0.2759  0.2607  0.1094
11589SOL    HW146826   4.038   8.868   2.635  1.5072 -0.1457  0.3292
11589SOL    HW246827   4.114   8.953   2.519  0.2716  1.0556  0.3788
11590SOL     OW46828   7.371   6.722   7.344  0.1370 -0.4622 -0.7546
11590SOL    HW146829   7.319   6.791   7.293 -1.4933 -1.0071  0.1191
11590SOL    HW246830   7.314   6.640   7.356  0.0961  0.0030  2.7175
11591SOL     OW46831   6.386   4.510   2.765  0.4454  0.1516  0.1332
11591SOL    HW146832   6.365   4.445   2.692  1.7776  0.4467 -0.5226
11591SOL    HW246833   6.485   4.523   2.771  0.2121  1.8570  0.4990
11592SOL     OW46834   6.141   6.415   6.317 -0.3548 -0.3173 -0.1044
11592SOL    HW146835   6.220   6.426   6.256 -0.2556 -0.3497  0.0178
11592SOL    HW246836   6.100   6.505   6.334  0.5065 -0.1248  0.9586
11593SOL     OW46837   4.424   2.319   5.808 -0.0468 -0.0151  0.5557
11593SOL    HW146838   4.469   2.300   5.895 -4.0326  0.5944  2.8725
11593SOL    HW246839   4.384   2.411   5.810 -1.8583 -0.7202 -1.1330
11594SOL     OW46840   8.832   1.338   3.845  0.3211 -0.0393  0.0055
11594SOL    HW146841   8.880   1.420   3.876 -0.5853  0.1725  0.8559
11594SOL    HW246842   8.735   1.358   3.833  0.0512 -1.0499  0.4742
11595SOL     OW46843   3.965   9.117   5.838 -0.2178 -0.0526  0.2787
11595SOL    HW146844   3.973   9.038   5.777 -0.1586 -0.0299  0.2582
11595SOL    HW246845   3.890   9.102   5.903  0.4441 -0.5641  0.9321
11596SOL     OW46846   3.860   8.903   4.934  1.0553 -0.2862  0.5185
11596SOL    HW146847   3.920   8.873   4.860  0.9299 -0.1881  0.3755
11596SOL    HW246848   3.797   8.828   4.958  0.3337  0.0589 -0.2554
11597SOL     OW46849   2.215   7.279   2.345  0.0015  0.2612 -0.5827
11597SOL    HW146850   2.165   7.296   2.260 -0.2394 -0.5395 -0.6110
11597SOL    HW246851   2.313   7.289   2.328  0.0320 -0.9852 -1.2497
11598SOL     OW46852   6.662   4.931   9.997 -0.4603 -0.0629 -0.6700
11598SOL    HW146853   6.593   4.977  10.052  0.3401 -1.8038  1.8304
11598SOL    HW246854   6.686   4.990   9.919 -1.3362  2.5990  0.9969
11599SOL     OW46855   5.493   1.567   3.982 -0.0732  0.0235  0.4217
11599SOL    HW146856   5.546   1.621   4.048  1.1060 -0.1744 -0.3352
11599SOL    HW246857   5.451   1.489   4.028  1.6711 -0.7528  0.7554
11600SOL     OW46858   6.193   1.237   4.044 -0.0004  0.2014  0.1563
11600SOL    HW146859   6.208   1.231   3.945 -0.8832  1.2238 -0.0418
11600SOL    HW246860   6.275   1.206   4.092  0.6580  0.2966 -0.8965
11601SOL     OW46861   9.061   2.366   5.706  0.1922 -0.4036  0.0313
11601SOL    HW146862   9.041   2.290   5.644 -1.9818  0.3096 -0.1643
11601SOL    HW246863   9.019   2.350   5.795 -2.0937  1.4994 -0.6434
11602SOL     OW46864   3.498   9.564   7.189  0.2619  0.3768 -0.3999
11602SOL    HW146865   3.517   9.472   7.224 -0.6214  0.4234  0.2531
11602SOL    HW246866   3.502   9.629   7.265 -1.6150  0.4969 -0.3846
11603SOL     OW46867   6.914   6.407   0.330 -0.0675 -0.3726 -0.0848
11603SOL    HW146868   6.857   6.440   0.406  1.6530  1.3334  0.4994
11603SOL    HW246869   6.941   6.484   0.273  2.3286 -1.0229  0.1205
11604SOL     OW46870   8.486   9.554   8.552 -0.2015  0.1728  0.1619
11604SOL    HW146871   8.467   9.638   8.603  0.4234  0.1582  0.4217
11604SOL    HW246872   8.553   9.572   8.481  0.1001 -0.1487  0.3605
11605SOL     OW46873   5.230   5.038   4.694 -0.0510 -0.0583 -0.1687
11605SOL    HW146874   5.217   4.998   4.603  0.6742 -0.9848  0.1337
11605SOL    HW246875   5.294   5.115   4.687 -0.9249  0.6434 -0.6333
11606SOL     OW46876   9.470   1.727   1.732 -0.3344  0.2537 -0.3714
11606SOL    HW146877   9.420   1.695   1.652  0.3122  0.5029 -0.8794
11606SOL    HW246878   9.465   1.658   1.805 -0.1571 -0.3638 -0.9446
11607SOL     OW46879   4.080   6.115   2.573  0.3529  0.1700 -0.1329
11607SOL    HW146880   4.137   6.196   2.587  2.1591 -0.6753 -2.2813
11607SOL    HW246881   3.985   6.143   2.560  0.4694  1.6997  2.0136
11608SOL     OW46882   6.131   4.695   1.922  0.4334  0.0949  0.7041
11608SOL    HW146883   6.060   4.627   1.903  2.4251 -1.8156  0.0009
11608SOL    HW246884   6.185   4.666   2.001  0.8840  1.2236  0.8262
11609SOL     OW46885   9.228   1.811   6.555  0.0676  0.3551 -0.7303
11609SOL    HW146886   9.294   1.884   6.573 -0.9642  1.0503  0.3364
11609SOL    HW246887   9.267   1.724   6.582  0.7814  0.6867 -0.6774
11610SOL     OW46888   3.471   9.933   6.404 -0.3618 -0.5293 -0.0167
11610SOL    HW146889   3.551   9.873   6.410 -0.4344 -0.4328  2.7524
11610SOL    HW246890   3.388   9.877   6.400 -0.2373 -0.6213 -1.4209
11611SOL     OW46891   3.454   0.700   6.478  0.0531 -0.9730  0.0296
11611SOL    HW146892   3.363   0.709   6.437  0.7718  1.3121 -1.1521
11611SOL    HW246893   3.458   0.756   6.561  1.4377  1.8512 -1.8591
11612SOL     OW46894   8.534   5.087   3.237  0.8052  0.1224 -0.1210
11612SOL    HW146895   8.578   5.042   3.315 -0.4239 -1.7186 -0.4663
11612SOL    HW246896   8.477   5.162   3.270 -0.7474 -1.4737  0.9035
11613SOL     OW46897   6.630   4.631   8.187  0.1986  0.0988  0.1418
11613SOL    HW146898   6.679   4.583   8.114  0.4120  1.4218 -0.5929
11613SOL    HW246899   6.692   4.696   8.231  0.1654 -0.9245  1.7358
11614SOL     OW46900   6.009   0.616   0.209 -0.3787  0.5099  0.4057
11614SOL    HW146901   5.923   0.577   0.244  0.1625 -0.8489  0.2561
11614SOL    HW246902   5.999   0.636   0.112 -0.4633  0.1457  0.3378
11615SOL     OW46903   4.578   4.121   5.477 -0.4289 -0.6932  0.0845
11615SOL    HW146904   4.521   4.203   5.474 -1.6961 -1.5204  1.0838
11615SOL    HW246905   4.533   4.051   5.532  0.3134 -2.3101 -1.3131
11616SOL     OW46906   7.206   5.147   5.408  0.3396  0.3949 -0.1575
11616SOL    HW146907   7.109   5.138   5.431  0.5373 -2.6346 -0.3442
11616SOL    HW246908   7.219   5.224   5.345 -1.9491  0.7239 -0.2516
11617SOL     OW46909   1.780   9.289   3.089  0.3090  0.4295 -0.3720
11617SOL    HW146910   1.713   9.327   3.152  2.3684  0.1154  2.0922
11617SOL    HW246911   1.743   9.206   3.047 -1.3227  0.9947 -0.0942
11618SOL     OW46912   4.859   3.237   9.775  1.0293  0.5346 -0.2249
11618SOL    HW146913   4.819   3.209   9.863  1.9325  0.6685  0.2379
11618SOL    HW246914   4.858   3.159   9.712  1.3162  0.1415  0.2521
11619SOL     OW46915   7.669   1.503   3.881 -0.2255 -0.0059  0.2017
11619SOL    HW146916   7.620   1.559   3.814  0.3184 -0.1487 -0.3207
11619SOL    HW246917   7.732   1.561   3.933 -0.9555  0.1814  0.8874
11620SOL     OW46918   3.452   1.214   9.776  0.1551 -0.1550 -0.4093
11620SOL    HW146919   3.377   1.174   9.830 -0.1165 -0.4755 -1.0204
11620SOL    HW246920   3.432   1.311   9.758 -0.7224 -0.5556 -1.6375
11621SOL     OW46921   6.813   4.990   7.099  0.2140 -0.0270 -0.0219
11621SOL    HW146922   6.873   5.064   7.069 -1.3399  2.0253  1.7615
11621SOL    HW246923   6.719   5.023   7.103 -0.4442 -1.9622  1.2516
11622SOL     OW46924   5.735   8.527   7.835  0.2663  0.5283  0.5588
11622SOL    HW146925   5.665   8.549   7.902 -0.7435 -1.2969  0.1219
11622SOL    HW246926   5.712   8.570   7.747 -0.6426 -0.5984  0.2445
11623SOL     OW46927   9.600   1.419   4.498 -0.0161  0.4001 -0.4411
11623SOL    HW146928   9.563   1.419   4.591 -0.4828  0.1450 -0.6204
11623SOL    HW246929   9.672   1.351   4.490 -2.5230 -2.2613 -1.2303
11624SOL     OW46930   5.109   9.819   7.966 -0.1910  0.2764 -0.4819
11624SOL    HW146931   5.074   9.795   7.876  1.6127  0.1879 -1.1841
11624SOL    HW246932   5.109   9.738   8.025 -1.3745  0.3376 -0.3996
11625SOL     OW46933   6.437   9.554   2.523  0.9317  0.1357  0.0472
11625SOL    HW146934   6.481   9.471   2.489  0.0912 -0.1552 -0.3553
11625SOL    HW246935   6.415   9.614   2.446 -1.9226 -0.9889 -0.0811
11626SOL     OW46936   3.098   0.797   3.647 -0.0785 -0.1177 -0.0184
11626SOL    HW146937   3.027   0.867   3.642 -1.0480 -1.0222  0.5626
11626SOL    HW246938   3.063   0.712   3.607  0.9100 -0.3896 -0.3067
11627SOL     OW46939   1.655   2.758   8.772  0.0955  0.1275  0.2306
11627SOL    HW146940   1.709   2.797   8.846 -0.2347 -0.5998  0.8623
11627SOL    HW246941   1.707   2.685   8.727  0.0065  0.0718  0.2172
11628SOL     OW46942   8.862   9.634   6.069  0.2771 -0.1357  0.1763
11628SOL    HW146943   8.842   9.540   6.042 -0.8321  0.6438 -1.8063
11628SOL    HW246944   8.796   9.663   6.138  0.1702 -0.5860  0.2658
11629SOL     OW46945   5.615   6.024   4.006 -0.9042  0.5024  0.2557
11629SOL    HW146946   5.694   6.026   3.945  0.8688 -0.7164  2.4397
11629SOL    HW246947   5.620   6.100   4.070  0.4282 -1.5900  2.7009
11630SOL     OW46948   2.892   5.005   8.794 -0.4758  0.2966 -0.4653
11630SOL    HW146949   2.885   5.059   8.710  0.3479 -0.2890 -0.9133
11630SOL    HW246950   2.982   4.963   8.799 -0.4362  0.5029  0.8227
11631SOL     OW46951   5.901   0.536   2.755  0.3380  0.3185 -0.2245
11631SOL    HW146952   5.883   0.442   2.785 -1.3701  1.2937  1.9845
11631SOL    HW246953   5.828   0.565   2.693 -0.8768  1.1795  1.5378
11632SOL     OW46954   7.329   2.707   4.540  0.1353 -0.5584  0.6077
11632SOL    HW146955   7.341   2.641   4.466 -1.6737  0.0779 -0.2759
11632SOL    HW246956   7.270   2.669   4.610  0.1779 -0.3746  0.7465
11633SOL     OW46957   4.709   0.356   8.822 -0.8758  0.1675 -0.5258
11633SOL    HW146958   4.723   0.265   8.783 -0.0604  0.3726 -0.7296
11633SOL    HW246959   4.701   0.349   8.921  2.5138  0.1951 -0.1993
11634SOL     OW46960   4.947   5.169   0.392  0.0422  0.0097  0.0099
11634SOL    HW146961   4.950   5.117   0.478 -0.7896 -1.3735 -0.7823
11634SOL    HW246962   4.865   5.226   0.391 -1.0103 -1.4756 -0.6942
11635SOL     OW46963   9.196   9.978   7.326  0.0561  0.2841  0.6484
11635SOL    HW146964   9.242   9.942   7.407  0.6395  0.1638  0.2689
11635SOL    HW246965   9.101   9.946   7.324  0.2782 -0.3926  0.8467
11636SOL     OW46966   4.565   3.623   2.279  0.4470 -0.2978  0.1160
11636SOL    HW146967   4.512   3.643   2.197  0.4723  1.1481  0.4396
11636SOL    HW246968   4.645   3.568   2.255  0.0307 -0.5434 -0.7058
11637SOL     OW46969   0.019   9.860   2.138 -0.1924 -0.0056  0.1582
11637SOL    HW146970  -0.022   9.805   2.210  2.0850 -0.0609  1.4619
11637SOL    HW246971   0.041   9.801   2.060 -2.2368 -0.0294 -0.4122
11638SOL     OW46972   3.447   2.577   4.226 -0.0158 -0.4594 -0.5175
11638SOL    HW146973   3.434   2.497   4.284  3.4753 -0.9159 -0.2605
11638SOL    HW246974   3.489   2.550   4.140  1.6364  1.1005 -0.2460
11639SOL     OW46975   3.887   3.102   4.331  0.0841 -0.0459  0.3674
11639SOL    HW146976   3.961   3.157   4.294 -1.2636  0.2467 -1.9777
11639SOL    HW246977   3.894   3.009   4.297 -0.9756  0.1431 -0.3908
11640SOL     OW46978   4.344   9.394   9.667 -0.0532  0.4034  0.0929
11640SOL    HW146979   4.391   9.446   9.739 -0.1668 -1.2677  1.4075
11640SOL    HW246980   4.273   9.451   9.626 -0.5285  1.1405  1.8683
11641SOL     OW46981   9.256   9.294   5.859 -0.3786  0.1166 -0.4293
11641SOL    HW146982   9.306   9.301   5.772  0.6910  0.5521  0.2092
11641SOL    HW246983   9.285   9.212   5.907 -0.6143  0.1297 -0.2672
11642SOL     OW46984   3.552   9.528   2.842  0.2649  0.0027 -0.0299
11642SOL    HW146985   3.644   9.499   2.870 -0.4306 -1.1325  1.0952
11642SOL    HW246986   3.526   9.481   2.758  0.8151  0.5426 -0.5099
11643SOL     OW46987   2.262   9.679   1.687 -0.5142 -0.3227  0.4908
11643SOL    HW146988   2.167   9.657   1.707 -1.1051 -0.3730 -2.2152
11643SOL    HW246989   2.291   9.633   1.603  1.0133  1.9172 -0.2668
11644SOL     OW46990   0.684   8.932   5.912  0.1646  0.1060 -0.4302
11644SOL    HW146991   0.670   8.884   5.825 -0.6226  0.6660 -0.6117
11644SOL    HW246992   0.629   8.888   5.983  0.9416 -0.4590 -0.1674
11645SOL     OW46993   0.903   2.213   7.822 -0.5393 -0.3967  0.7711
11645SOL    HW146994   0.867   2.206   7.915 -1.8202 -1.0651  0.2410
11645SOL    HW246995   0.827   2.212   7.757  0.4667 -3.9410 -0.5086
11646SOL     OW46996   4.743   1.300   5.727  0.0804  0.5754  0.1127
11646SOL    HW146997   4.674   1.227   5.724  1.4737 -0.7181 -1.3286
11646SOL    HW246998   4.786   1.301   5.817 -1.1220  0.7331  0.6949
11647SOL     OW46999   4.935   2.613   0.672 -0.3752 -0.3959 -0.4190
11647SOL    HW147000   4.855   2.673   0.667 -0.4312 -0.3779  0.4969
11647SOL    HW247001   4.926   2.539   0.606 -2.2040 -1.6461  1.1590
11648SOL     OW47002   7.964   7.531   7.420 -0.0173 -0.4407 -0.0297
11648SOL    HW147003   8.011   7.590   7.353 -0.6008 -0.2558 -0.2835
11648SOL    HW247004   7.979   7.567   7.512 -2.6762  1.7650 -0.3912
11649SOL     OW47005   5.825   1.760   3.140  0.5570  0.1852 -0.4291
11649SOL    HW147006   5.773   1.796   3.063  1.7858 -0.9434 -1.8162
11649SOL    HW247007   5.859   1.836   3.196 -1.8531  0.9591  0.0429
11650SOL     OW47008   8.606   3.049   2.447  0.2249 -0.7888 -0.4587
11650SOL    HW147009   8.607   2.949   2.443  0.5818 -0.8593  1.3086
11650SOL    HW247010   8.512   3.082   2.450  0.1002 -1.0453 -1.4884
11651SOL     OW47011   6.115   9.664   6.544  0.2022  0.5581  0.2288
11651SOL    HW147012   6.052   9.741   6.548 -0.3957 -0.0152  1.7834
11651SOL    HW247013   6.177   9.667   6.622 -1.3471 -1.8398  1.6011
11652SOL     OW47014   2.686   6.204   8.570  0.5400  0.6938  0.0362
11652SOL    HW147015   2.590   6.182   8.555  1.3961 -2.3722 -1.4634
11652SOL    HW247016   2.718   6.158   8.653  1.5882 -1.2772 -1.4342
11653SOL     OW47017   1.521   0.029   7.499 -0.5447  0.1495 -0.3322
11653SOL    HW147018   1.486  -0.040   7.562  1.2472  0.0631  0.5653
11653SOL    HW247019   1.455   0.104   7.493  0.8421  1.8852  4.4143
11654SOL     OW47020   5.509   1.658   9.285 -0.6097  0.1434  0.0560
11654SOL    HW147021   5.482   1.565   9.258 -1.8245  0.4176  0.2981
11654SOL    HW247022   5.427   1.713   9.303  0.1431  0.3493  3.0970
11655SOL     OW47023   4.903   3.716   2.508 -0.4039  0.2374 -0.0685
11655SOL    HW147024   4.997   3.722   2.542  0.5047  0.3485 -2.4888
11655SOL    HW247025   4.889   3.626   2.467 -1.0643  0.5631 -0.5524
11656SOL     OW47026   7.030   9.064   5.112 -0.1345 -0.4647 -0.0596
11656SOL    HW147027   7.106   9.077   5.176 -0.3246 -1.0412  0.2927
11656SOL    HW247028   7.062   9.019   5.029 -0.1962 -1.2132  0.3225
11657SOL     OW47029   5.908   2.145   3.520  0.6063 -0.5359  0.3100
11657SOL    HW147030   5.878   2.119   3.612  0.5692  0.3219  0.5393
11657SOL    HW247031   6.007   2.133   3.513  0.6547 -0.2929  0.5650
11658SOL     OW47032   2.424   0.544   4.921 -0.0152  0.2923  0.0199
11658SOL    HW147033   2.470   0.602   4.855 -1.1616  0.2827 -0.8017
11658SOL    HW247034   2.349   0.495   4.877  1.4567 -2.4988  0.4783
11659SOL     OW47035   5.455   9.328   8.095 -0.2331 -0.1404  0.3620
11659SOL    HW147036   5.411   9.332   8.185  0.8662  1.5852  0.8387
11659SOL    HW247037   5.542   9.279   8.102 -1.9146 -3.3656 -0.5396
11660SOL     OW47038   8.427   2.898   5.047 -0.5021 -0.0627  0.3547
11660SOL    HW147039   8.514   2.940   5.022 -0.1894  0.1183  1.7161
11660SOL    HW247040   8.440   2.838   5.125 -1.4598 -0.6353  0.0829
11661SOL     OW47041   4.899   1.314   7.341 -0.2172 -0.3164 -0.2765
11661SOL    HW147042   4.835   1.353   7.276 -0.6364  0.8084  0.7974
11661SOL    HW247043   4.894   1.364   7.427  0.5547 -1.5839  0.5234
11662SOL     OW47044   8.631   6.867   9.811  0.4045 -0.1024  0.0249
11662SOL    HW147045   8.634   6.902   9.905  0.8258  0.9957 -0.3785
11662SOL    HW247046   8.723   6.868   9.772  0.4878 -2.1478  0.1577
11663SOL     OW47047   7.064   0.120   0.299  1.1077  0.4433 -0.4649
11663SOL    HW147048   7.111   0.136   0.386 -0.1548 -0.9747  0.4946
11663SOL    HW247049   6.979   0.172   0.298  1.2713  0.7001 -0.9879
11664SOL     OW47050   0.921   9.559   5.999 -0.5124 -0.4366 -0.4887
11664SOL    HW147051   0.957   9.492   6.064 -0.7661  1.6228  1.8369
11664SOL    HW247052   0.821   9.560   6.005 -0.5210 -0.0673 -0.7225
11665SOL     OW47053   7.222   3.335   2.027  0.1030 -0.7032  0.3116
11665SOL    HW147054   7.305   3.287   2.055  0.5631  0.5819  1.2081
11665SOL    HW247055   7.150   3.269   2.008  0.5239 -1.7155  2.1689
11666SOL     OW47056   2.344   0.181   9.532 -0.1652 -0.1246  0.0688
11666SOL    HW147057   2.394   0.219   9.454 -1.1340 -1.2186 -1.1215
11666SOL    HW247058   2.379   0.089   9.552  0.2014  0.2230  1.0464
11667SOL     OW47059   7.359   4.207   5.436 -0.7912 -0.3749 -0.3993
11667SOL    HW147060   7.330   4.303   5.438 -1.1374 -0.4645 -1.1137
11667SOL    HW247061   7.419   4.189   5.514  2.1171  1.3307 -2.1571
11668SOL     OW47062   5.878   6.959   5.257 -0.1328 -0.2472 -0.1378
11668SOL    HW147063   5.923   6.920   5.177  1.1078 -2.0330  1.3970
11668SOL    HW247064   5.781   6.934   5.255 -0.0481 -0.5521 -0.9141
11669SOL     OW47065   1.391   1.552   4.789 -0.0542 -0.1128 -0.6114
11669SOL    HW147066   1.406   1.572   4.886  2.7734 -1.6700 -0.6845
11669SOL    HW247067   1.385   1.638   4.738  0.8605  0.6893  0.6095
11670SOL     OW47068   3.757   8.472   1.338  0.6144 -0.2237  0.4654
11670SOL    HW147069   3.665   8.497   1.368 -0.1671 -0.3651 -1.7684
11670SOL    HW247070   3.802   8.551   1.298  0.5120 -0.7869 -0.7733
11671SOL     OW47071   9.541   1.712   5.093  0.1997  0.5890  0.1757
11671SOL    HW147072   9.546   1.799   5.044  0.0555  0.1720 -0.5837
11671SOL    HW247073   9.486   1.647   5.040  0.1533  0.0941  0.8285
11672SOL     OW47074   4.276   1.236   7.041  0.4159  0.0952  0.0428
11672SOL    HW147075   4.334   1.273   6.968  0.5549  0.0490  0.1291
11672SOL    HW247076   4.210   1.172   7.003 -0.0972  0.7437 -0.1688
11673SOL     OW47077   0.930   8.922   0.042 -0.1493  0.0534  0.0868
11673SOL    HW147078   0.918   8.939   0.140  0.9536  0.2048  0.2090
11673SOL    HW247079   0.964   9.005  -0.002  0.7813 -0.4491 -0.1514
11674SOL     OW47080   7.124   0.488   5.877 -0.2500  0.5336  0.2272
11674SOL    HW147081   7.208   0.542   5.891  1.0422 -1.7473  1.4746
11674SOL    HW247082   7.130   0.440   5.790 -0.6821  1.0794 -0.1091
11675SOL     OW47083   0.043   0.052   7.203  0.2289 -0.2668 -0.5584
11675SOL    HW147084   0.085   0.113   7.136 -0.8663  1.0904 -0.0425
11675SOL    HW247085  -0.053   0.036   7.179  0.2529 -1.0249 -0.1718
11676SOL     OW47086   0.442   9.279   6.427 -0.1845  0.3575 -0.6758
11676SOL    HW147087   0.508   9.301   6.355  1.1430  3.3904  1.3379
11676SOL    HW247088   0.404   9.364   6.464 -0.4079 -1.0653  2.5706
11677SOL     OW47089   4.362   4.076   5.245 -0.1436 -0.1626 -0.2952
11677SOL    HW147090   4.361   4.134   5.327  3.1690  0.3381 -0.5416
11677SOL    HW247091   4.395   4.129   5.167  0.6865 -1.7433 -1.0389
11678SOL     OW47092   1.928   8.125   9.743  0.0583 -0.4272  0.2382
11678SOL    HW147093   1.883   8.212   9.766  1.3990  0.4385 -0.3303
11678SOL    HW247094   1.993   8.140   9.669  2.4577 -1.3034  2.1056
11679SOL     OW47095   3.828   2.883   6.027  0.5154 -0.0975 -0.0662
11679SOL    HW147096   3.774   2.853   6.105 -0.1995 -1.9080 -1.2397
11679SOL    HW247097   3.925   2.874   6.048  0.3905  1.8363  1.5236
11680SOL     OW47098   4.535   4.249   7.974  0.0261  0.1767 -0.6206
11680SOL    HW147099   4.528   4.261   8.072 -2.5914 -1.8015 -0.5154
11680SOL    HW247100   4.444   4.240   7.934  1.0606  0.3235 -3.1449
11681SOL     OW47101   4.761   7.049   8.430  0.6005  0.5465  0.0537
11681SOL    HW147102   4.710   6.974   8.474 -0.3219  0.2329 -1.5143
11681SOL    HW247103   4.787   7.116   8.499  0.5629 -0.7305  1.3294
11682SOL     OW47104   4.292   0.716   9.091  0.6196 -0.3587  0.1207
11682SOL    HW147105   4.277   0.718   8.993 -0.7240 -0.7501  0.2983
11682SOL    HW247106   4.279   0.622   9.124  1.6545 -0.3402  0.5792
11683SOL     OW47107   8.515   8.613   2.551 -0.0413  0.3583 -0.9349
11683SOL    HW147108   8.453   8.632   2.628 -0.5844  0.0581 -1.2904
11683SOL    HW247109   8.461   8.581   2.473  0.5922 -0.1590 -1.1670
11684SOL     OW47110   8.109   1.664   0.887  0.2777  0.2643 -0.3912
11684SOL    HW147111   8.051   1.699   0.961  1.5358 -1.9221  1.7052
11684SOL    HW247112   8.066   1.585   0.844  1.9680 -1.9088  1.7449
11685SOL     OW47113   3.779   1.404   6.186 -0.0617  0.3288  0.1993
11685SOL    HW147114   3.872   1.403   6.150 -0.0507  1.4284  0.1640
11685SOL    HW247115   3.736   1.315   6.172  1.3211 -0.4855  1.0973
11686SOL     OW47116   6.223   5.278   7.291  0.0212 -0.0144  0.6338
11686SOL    HW147117   6.229   5.290   7.192 -1.5673 -0.2720  0.4953
11686SOL    HW247118   6.189   5.362   7.333  1.5505  0.4040  1.0706
11687SOL     OW47119   1.183   1.445   5.952 -0.1325 -0.0043 -0.1643
11687SOL    HW147120   1.266   1.441   6.008  0.4420 -1.8539 -1.0952
11687SOL    HW247121   1.106   1.409   6.004  0.2193 -0.8811 -0.2420
11688SOL     OW47122   5.117   1.347   4.095  0.0945 -0.0611  0.0045
11688SOL    HW147123   5.071   1.390   4.018 -1.2603 -1.0398  0.2571
11688SOL    HW247124   5.208   1.316   4.067  1.0201  2.6922 -0.2546
11689SOL     OW47125   0.155   2.862   6.078 -0.5526 -0.0409 -0.0289
11689SOL    HW147126   0.217   2.827   6.148 -0.0080  1.2260  0.1520
11689SOL    HW247127   0.174   2.816   5.991  2.2725  1.9285 -0.5332
11690SOL     OW47128   6.391   7.477   6.251  0.3469 -0.1070 -0.4052
11690SOL    HW147129   6.334   7.475   6.334  0.1324  1.2830 -0.5051
11690SOL    HW247130   6.389   7.569   6.212  0.4131 -0.7692 -1.9898
11691SOL     OW47131   4.243   7.784   8.463  0.0442 -0.0235  0.1804
11691SOL    HW147132   4.250   7.860   8.528 -2.5679  1.0950 -0.7794
11691SOL    HW247133   4.321   7.786   8.401 -0.5180  2.5395 -0.4972
11692SOL     OW47134   4.069   5.715   9.183 -0.3080  0.1962  0.3632
11692SOL    HW147135   4.148   5.663   9.217 -0.0964 -1.2820 -2.2923
11692SOL    HW247136   4.097   5.808   9.161  0.5901 -0.1995 -0.1820
11693SOL     OW47137   4.139   7.818   0.637 -0.1967  0.0078  0.1697
11693SOL    HW147138   4.190   7.901   0.656 -0.2135 -0.1008  0.6769
11693SOL    HW247139   4.120   7.769   0.722 -0.1360 -0.5465 -0.1295
11694SOL     OW47140   5.902   9.929   5.728  0.0044 -0.2684  0.4305
11694SOL    HW147141   5.935   9.836   5.745  0.3359  0.0878  1.7898
11694SOL    HW247142   5.808   9.938   5.759  0.0606 -0.0765  0.5461
11695SOL     OW47143   3.624   6.622   9.247  0.1284  0.0472  0.5041
11695SOL    HW147144   3.545   6.608   9.307  0.2788 -0.6288  0.5401
11695SOL    HW247145   3.613   6.569   9.163  0.8324 -0.5312  0.7728
11696SOL     OW47146   3.886   6.493   0.410  0.1458 -0.2104 -0.3687
11696SOL    HW147147   3.808   6.504   0.473  0.0996 -0.1518 -0.4363
11696SOL    HW247148   3.971   6.497   0.462  0.1205  0.2073 -0.3588
11697SOL     OW47149   2.822   8.017   3.704  0.3230  0.1121  0.3494
11697SOL    HW147150   2.728   8.050   3.701  0.2246 -0.2260 -0.7387
11697SOL    HW247151   2.822   7.919   3.722  0.3019 -0.4542 -2.4604
11698SOL     OW47152   1.165   1.593   2.974 -0.2015 -0.1647 -0.2029
11698SOL    HW147153   1.255   1.561   2.945 -0.4107 -0.8498 -0.1003
11698SOL    HW247154   1.130   1.659   2.908 -0.2362 -0.9496 -0.9713
11699SOL     OW47155   6.411   4.627   8.348 -1.0058 -0.1993  0.0422
11699SOL    HW147156   6.446   4.677   8.428  1.0842 -1.3346 -0.1133
11699SOL    HW247157   6.485   4.615   8.282 -1.9745 -1.8096 -0.7757
11700SOL     OW47158   2.122   3.120   2.527 -0.4997 -0.1608 -0.0403
11700SOL    HW147159   2.112   3.026   2.494 -1.0592  0.3794 -1.4471
11700SOL    HW247160   2.040   3.172   2.505 -0.2084  0.6525  0.7763
11701SOL     OW47161   1.076   7.138   2.081 -0.1359 -0.3867  0.9538
11701SOL    HW147162   1.012   7.129   2.006  2.5187  1.6526 -1.6807
11701SOL    HW247163   1.139   7.060   2.081  0.3397 -0.0105  0.5431
11702SOL     OW47164   3.530   1.382   6.802  0.3199 -1.3399  0.0091
11702SOL    HW147165   3.566   1.337   6.884  1.8292 -1.1639 -0.5395
11702SOL    HW247166   3.430   1.375   6.801  0.1953 -0.2182  2.5220
11703SOL     OW47167   4.092   8.143   5.926 -0.4083 -0.2915  0.4265
11703SOL    HW147168   3.995   8.166   5.913 -0.7056 -1.0173  1.3154
11703SOL    HW247169   4.109   8.121   6.022  0.5053 -0.7790  0.1632
11704SOL     OW47170   5.971   4.040   3.761  0.0477 -0.4122  0.1848
11704SOL    HW147171   5.877   4.071   3.752 -0.0239 -0.6292  0.1768
11704SOL    HW247172   6.001   3.998   3.676 -0.5080 -2.1261  0.8129
11705SOL     OW47173   2.881   9.623   6.124 -0.8665  0.3461 -0.1653
11705SOL    HW147174   2.895   9.720   6.140 -0.6826  0.6244 -1.8765
11705SOL    HW247175   2.786   9.599   6.146 -1.0783  1.0446 -0.3022
11706SOL     OW47176   5.607   0.012   8.183  0.2717  0.3212 -0.3198
11706SOL    HW147177   5.629  -0.085   8.185  1.4356  0.5792  2.1137
11706SOL    HW247178   5.508   0.024   8.175  0.1005 -1.0552 -0.3740
11707SOL     OW47179   7.851   5.003   5.496  0.1167 -0.0231 -0.0357
11707SOL    HW147180   7.901   4.982   5.580 -0.5329  0.6882  0.5404
11707SOL    HW247181   7.754   4.979   5.507 -0.1060  0.7115 -0.3278
11708SOL     OW47182   6.163   8.445   1.547  0.1718  0.4658 -0.5534
11708SOL    HW147183   6.145   8.444   1.645 -0.2788  1.6210 -0.6182
11708SOL    HW247184   6.249   8.397   1.528  0.8234  1.2066  0.5267
11709SOL     OW47185   6.221   0.913   9.053  0.3674  0.0205  0.3098
11709SOL    HW147186   6.317   0.915   9.024 -0.3326 -1.5969 -2.1844
11709SOL    HW247187   6.174   0.995   9.019  0.1523 -0.6477 -1.0119
11710SOL     OW47188   8.027   1.072   6.371  0.2170  0.1699  0.3123
11710SOL    HW147189   8.115   1.076   6.323 -0.0677  0.3301 -0.2069
11710SOL    HW247190   7.969   1.004   6.327  0.3194 -0.4141  1.0718
11711SOL     OW47191   2.608   2.717   6.925  0.2920  0.0664  0.2497
11711SOL    HW147192   2.602   2.675   6.834  0.5000 -0.1653  0.3432
11711SOL    HW247193   2.524   2.767   6.944 -0.0525 -0.5116  0.2399
11712SOL     OW47194   5.698   0.314   6.216 -0.0327  0.5323  0.1366
11712SOL    HW147195   5.738   0.405   6.228 -0.4548  0.7873 -0.3742
11712SOL    HW247196   5.751   0.262   6.150 -0.7075  0.9768 -0.7643
11713SOL     OW47197   8.376   8.676   3.055  0.3698  0.6063 -0.2190
11713SOL    HW147198   8.472   8.674   3.084  0.7644  1.0819 -1.4669
11713SOL    HW247199   8.371   8.687   2.956 -0.9711 -1.9865 -0.4656
11714SOL     OW47200   3.787   1.531   4.780  0.1131 -0.3545 -0.3907
11714SOL    HW147201   3.714   1.597   4.769 -0.0573 -0.7247 -1.5747
11714SOL    HW247202   3.760   1.462   4.848  0.1972  0.6472  0.6578
11715SOL     OW47203   2.937   3.460   7.932  0.0595 -0.4101 -0.3402
11715SOL    HW147204   2.848   3.479   7.973 -0.1330  0.0454 -0.9604
11715SOL    HW247205   2.925   3.419   7.842  0.4345  1.6276 -1.3668
11716SOL     OW47206   5.675   1.013   7.244  0.5492 -0.3377  0.0595
11716SOL    HW147207   5.642   0.919   7.251 -2.4345  0.6823  0.5391
11716SOL    HW247208   5.622   1.062   7.175  1.5149  1.2378  0.3947
11717SOL     OW47209   5.018   4.046   1.442 -0.0787  0.2922  0.5478
11717SOL    HW147210   4.953   3.995   1.385 -0.0889 -0.2018  1.0024
11717SOL    HW247211   5.089   3.984   1.476 -0.5224  0.4236  1.7306
11718SOL     OW47212   1.385   2.801   8.123 -0.1882 -0.4178  0.0497
11718SOL    HW147213   1.437   2.880   8.156 -1.5112  0.1121  0.8766
11718SOL    HW247214   1.359   2.816   8.027  0.3305 -0.2485 -0.0659
11719SOL     OW47215   4.530   0.416   8.194 -0.2534 -0.0963  0.0382
11719SOL    HW147216   4.545   0.369   8.282  1.2225  0.3204  0.0233
11719SOL    HW247217   4.612   0.468   8.170 -0.4882 -0.5553 -1.8078
11720SOL     OW47218   2.206   3.681   4.880 -0.7409 -0.0844  0.7472
11720SOL    HW147219   2.211   3.678   4.979 -0.5936 -0.0349  0.7418
11720SOL    HW247220   2.201   3.588   4.843 -0.5218 -0.1136  0.7885
11721SOL     OW47221   9.864   4.956   2.225  0.1691 -0.5108 -0.2922
11721SOL    HW147222   9.891   4.893   2.298  0.5835  0.4058  0.3648
11721SOL    HW247223   9.912   5.043   2.237 -1.2730  0.3337 -0.4985
11722SOL     OW47224   9.004   6.136   7.581 -0.1070  0.8608  0.7132
11722SOL    HW147225   8.927   6.178   7.532  0.0231  0.3726  0.0851
11722SOL    HW247226   9.077   6.116   7.517 -0.3589 -0.7690  0.9219
11723SOL     OW47227   2.812   9.059   9.168  0.1443 -1.0940 -0.7986
11723SOL    HW147228   2.763   9.140   9.199  2.7717 -0.8163  2.9590
11723SOL    HW247229   2.870   9.082   9.089  0.9853  0.7210  0.3403
11724SOL     OW47230   6.746   5.689   8.734  0.2453  0.4377  0.4974
11724SOL    HW147231   6.748   5.756   8.808  1.6865 -0.3264  1.1673
11724SOL    HW247232   6.696   5.727   8.657  0.8695  2.2166  0.9324
11725SOL     OW47233   7.524   0.726   4.439  0.2297 -0.3380 -0.4329
11725SOL    HW147234   7.445   0.782   4.413 -0.2136  0.2450  2.1195
11725SOL    HW247235   7.508   0.631   4.411 -1.3900 -0.2230  0.0800
11726SOL     OW47236   2.019   9.003   2.126  0.0964  0.3138 -0.3095
11726SOL    HW147237   1.998   9.080   2.065  0.5149  0.5314 -0.1779
11726SOL    HW247238   1.992   9.027   2.220 -0.5313 -0.0141 -0.4071
11727SOL     OW47239   4.498   6.342   5.728 -0.5432 -0.0264  0.0177
11727SOL    HW147240   4.563   6.269   5.709  0.5043  0.3462  2.1108
11727SOL    HW247241   4.528   6.426   5.682  0.4460  0.1343  0.9414
11728SOL     OW47242   0.606   2.462   5.977  0.1094 -0.7697  0.0038
11728SOL    HW147243   0.606   2.456   6.077  2.1767 -0.9658  0.0059
11728SOL    HW247244   0.673   2.398   5.939  0.2281  0.1770 -1.4404
11729SOL     OW47245   5.309   1.154   1.786  0.3122 -0.4151 -0.8451
11729SOL    HW147246   5.347   1.068   1.752 -1.1717 -2.4553  2.4125
11729SOL    HW247247   5.212   1.158   1.765 -0.2909 -1.0053  1.7622
11730SOL     OW47248   8.545   1.444   6.636  0.3974 -0.5463 -0.2597
11730SOL    HW147249   8.548   1.543   6.648  1.2524 -0.4698 -1.0646
11730SOL    HW247250   8.577   1.420   6.544  1.0059 -1.6332  0.2291
11731SOL     OW47251   8.459   2.692   4.079 -0.3821 -0.1173 -0.6870
11731SOL    HW147252   8.484   2.613   4.134  2.9002  0.4147 -1.2572
11731SOL    HW247253   8.480   2.776   4.130  0.1856  0.3642 -1.6918
11732SOL     OW47254   2.249   5.295   9.232  0.0816  0.5336 -0.3277
11732SOL    HW147255   2.151   5.298   9.248  0.1975 -2.6213  1.1970
11732SOL    HW247256   2.298   5.315   9.316  0.7648  0.8102 -0.7804
11733SOL     OW47257   6.077   0.734   8.085  0.0281  0.5214  0.5706
11733SOL    HW147258   6.009   0.808   8.079  0.7190  1.1401  0.2435
11733SOL    HW247259   6.075   0.680   8.001 -2.3025 -1.4677  1.8591
11734SOL     OW47260   4.305   1.016   2.175  0.1907 -0.1173 -0.0693
11734SOL    HW147261   4.394   1.003   2.130 -0.4414 -0.8526 -1.1278
11734SOL    HW247262   4.233   1.016   2.106 -0.7849 -1.0865  0.9229
11735SOL     OW47263   1.332   8.871   1.129  0.5646 -0.6744  0.2565
11735SOL    HW147264   1.389   8.942   1.170 -2.1478  0.7171  1.8262
11735SOL    HW247265   1.322   8.889   1.031 -0.4914  1.4873  0.7218
11736SOL     OW47266   8.067   4.597   4.050 -0.6225 -0.6143 -0.2019
11736SOL    HW147267   7.996   4.571   3.985 -0.3092  0.3683 -0.9638
11736SOL    HW247268   8.036   4.676   4.103  0.8064  1.3414 -2.2035
11737SOL     OW47269   7.009   1.076   5.792  0.0254  0.0742  0.1497
11737SOL    HW147270   6.961   1.039   5.871  0.3489 -0.0917  0.2687
11737SOL    HW247271   7.048   1.166   5.816  1.4052 -0.6397  0.6506
11738SOL     OW47272   1.909   1.044   9.479 -0.4940 -0.8000 -0.5106
11738SOL    HW147273   1.924   1.125   9.535 -2.3662 -1.7627  1.4257
11738SOL    HW247274   1.995   1.019   9.433  1.3387 -0.5743  2.6794
11739SOL     OW47275   3.906   9.215   9.533  0.2535  0.3203  0.2513
11739SOL    HW147276   3.909   9.186   9.628 -2.1556 -1.0582 -0.0388
11739SOL    HW247277   3.935   9.140   9.474  1.0941  0.9485 -0.1488
11740SOL     OW47278   3.651   0.013   2.846  0.3766 -0.4545  0.6454
11740SOL    HW147279   3.688   0.033   2.937  0.4304  2.1567  0.0810
11740SOL    HW247280   3.584  -0.061   2.853 -0.8400  0.7912  3.1198
11741SOL     OW47281   5.256   9.320   6.033  0.3905 -0.5418 -0.3888
11741SOL    HW147282   5.193   9.367   6.094  0.4717 -0.8589 -0.0568
11741SOL    HW247283   5.236   9.346   5.938  0.9653  0.7900 -0.1547
11742SOL     OW47284   4.235   2.159   9.222  0.6920  0.5126 -0.0417
11742SOL    HW147285   4.275   2.119   9.139 -3.2693 -3.0645 -0.3781
11742SOL    HW247286   4.197   2.249   9.201 -2.4282 -1.3459 -2.8652
11743SOL     OW47287   6.181   8.251   4.401 -0.3577  0.4632  0.2232
11743SOL    HW147288   6.212   8.339   4.368  1.2406  0.1192  0.7841
11743SOL    HW247289   6.136   8.263   4.490 -1.2513  0.8652 -0.2762
11744SOL     OW47290   4.583   0.381   6.922 -0.6641  0.4935  0.3445
11744SOL    HW147291   4.625   0.412   6.837 -1.3688  1.7228  0.4225
11744SOL    HW247292   4.622   0.294   6.949  0.1874  0.5138 -0.7812
11745SOL     OW47293   5.773   4.123   2.242 -0.7570 -0.2161  0.7975
11745SOL    HW147294   5.740   4.196   2.182  0.7256  1.0472  1.4695
11745SOL    HW247295   5.870   4.138   2.261 -0.3807 -2.5098  0.7654
11746SOL     OW47296   4.002   1.293   5.027  0.2116 -0.1143 -0.0581
11746SOL    HW147297   4.024   1.390   5.023 -1.3855  0.1993 -3.8546
11746SOL    HW247298   4.086   1.240   5.040  1.4350  1.6469 -0.5572
11747SOL     OW47299   2.257   3.798   9.745 -0.1749 -0.2740  0.6472
11747SOL    HW147300   2.234   3.733   9.817 -1.3263  1.1099  1.5571
11747SOL    HW247301   2.235   3.758   9.656  0.5460 -1.6978  1.0963
11748SOL     OW47302   9.506   1.912   7.538 -0.7837 -0.7616 -0.1733
11748SOL    HW147303   9.422   1.949   7.498 -0.4998 -2.4083 -2.3914
11748SOL    HW247304   9.584   1.937   7.481 -0.2796 -2.5063 -0.2965
11749SOL     OW47305   9.630   2.202   8.512 -0.1680  1.0016 -0.0931
11749SOL    HW147306   9.617   2.105   8.529  0.4330  1.2668  2.0915
11749SOL    HW247307   9.677   2.216   8.425 -1.3605 -0.5834 -1.0190
11750SOL     OW47308   1.412   0.496   8.775 -0.1975  0.2014  0.2130
11750SOL    HW147309   1.378   0.561   8.708  1.2358 -1.2273 -1.9558
11750SOL    HW247310   1.339   0.473   8.840 -1.4759  1.9136 -0.5858
11751SOL     OW47311   5.775   9.919   7.552 -0.7233  0.0357 -0.5428
11751SOL    HW147312   5.779   9.920   7.453 -0.3653  0.4079 -0.5286
11751SOL    HW247313   5.726  10.000   7.585  0.7322  0.8832 -0.3667
11752SOL     OW47314   9.937   9.843   4.149  0.1841  0.3264  0.7325
11752SOL    HW147315   9.863   9.871   4.210 -0.6481 -0.1352 -0.0495
11752SOL    HW247316   9.931   9.893   4.063  1.0331  0.5861  0.8151
11753SOL     OW47317   1.302   1.145   7.005 -0.1177 -0.1396 -0.5693
11753SOL    HW147318   1.343   1.176   7.091  0.0712  2.7600 -1.6771
11753SOL    HW247319   1.369   1.090   6.954  0.3203 -0.4868  0.3701
11754SOL     OW47320   4.674   9.823   9.434 -0.1902  0.7945  0.3603
11754SOL    HW147321   4.630   9.740   9.469  2.0230 -0.5875 -0.0160
11754SOL    HW247322   4.626   9.904   9.468 -1.1907 -0.6127  2.3557
11755SOL     OW47323   0.916   0.501   5.422  0.8448  0.0825 -0.3917
11755SOL    HW147324   0.971   0.516   5.503  0.0927 -0.7474  0.2886
11755SOL    HW247325   0.875   0.409   5.426  2.0922 -0.6045 -2.4726
11756SOL     OW47326   0.770   8.584   8.547 -0.2944  0.2154 -0.3353
11756SOL    HW147327   0.683   8.622   8.515  0.6704  2.6239 -0.2140
11756SOL    HW247328   0.840   8.598   8.477 -0.1044 -2.2664 -0.6894
11757SOL     OW47329   3.588   1.013   1.881 -0.4212  0.5481  0.1403
11757SOL    HW147330   3.589   0.915   1.900 -1.7380  0.4582 -0.1817
11757SOL    HW247331   3.649   1.060   1.945  1.4462 -0.6415 -0.7320
11758SOL     OW47332   7.119   6.548   0.888  0.2507  0.0108 -0.2429
11758SOL    HW147333   7.059   6.626   0.874 -1.2852 -1.2132 -0.5667
11758SOL    HW247334   7.157   6.518   0.800  1.0917  0.5888 -0.0788
11759SOL     OW47335   6.059   9.610   0.099 -0.3341  0.0911  0.3667
11759SOL    HW147336   6.138   9.555   0.125  0.9566  1.2836 -0.9586
11759SOL    HW247337   5.976   9.569   0.138  0.9254 -1.0992  1.8807
11760SOL     OW47338   3.623   7.014   6.129  0.5666 -0.2883  0.3259
11760SOL    HW147339   3.664   7.100   6.159  1.3917 -0.3866 -0.5081
11760SOL    HW247340   3.527   7.012   6.155  1.0026  0.0896  1.9944
11761SOL     OW47341   5.469   5.124   7.884 -0.3406  0.3383  0.4008
11761SOL    HW147342   5.546   5.184   7.907 -0.6005  0.6487  0.4480
11761SOL    HW247343   5.384   5.175   7.888 -0.4239  0.3101 -0.9432
11762SOL     OW47344   9.600   5.841   6.131 -0.1390 -0.1415 -0.1256
11762SOL    HW147345   9.536   5.810   6.061  1.4079 -1.2587 -1.0852
11762SOL    HW247346   9.642   5.927   6.102  0.1614 -0.3659 -0.3598
11763SOL     OW47347   9.497   1.038   3.708 -0.0783 -0.2163 -0.5056
11763SOL    HW147348   9.507   1.056   3.806 -2.4656  2.0873 -0.6287
11763SOL    HW247349   9.587   1.018   3.669  1.0166 -0.4306  2.0096
11764SOL     OW47350   5.276   3.373   8.992 -0.2994 -0.2619  0.3965
11764SOL    HW147351   5.263   3.328   9.080 -0.5652  0.5934  0.7984
11764SOL    HW247352   5.196   3.429   8.970  0.2388  0.4218  0.1527
11765SOL     OW47353   5.083   9.968   6.990  0.3276  0.3900  0.3007
11765SOL    HW147354   5.063   9.915   6.908  0.4692 -1.3859  1.3940
11765SOL    HW247355   5.179   9.995   6.991 -0.0591  1.8874 -0.9318
11766SOL     OW47356   9.495   8.690   7.963  0.5991  0.7697 -0.2858
11766SOL    HW147357   9.470   8.625   7.891  1.6055 -0.3621  0.3598
11766SOL    HW247358   9.576   8.742   7.934  0.8529  0.4903 -0.0813
11767SOL     OW47359   3.707   1.744   6.671  0.6596  0.4493 -0.4411
11767SOL    HW147360   3.690   1.679   6.598 -1.5720  1.4214 -0.8088
11767SOL    HW247361   3.661   1.715   6.754  2.2032 -0.0236  0.2751
11768SOL     OW47362   5.533   9.596   6.376 -0.2684  0.0058  0.0909
11768SOL    HW147363   5.514   9.513   6.428  1.8470  0.4517  1.6686
11768SOL    HW247364   5.473   9.600   6.297 -0.7637 -2.7618  0.2618
11769SOL     OW47365   2.560   9.716   5.587  0.2865  0.5405 -0.6268
11769SOL    HW147366   2.559   9.810   5.553  1.2045 -0.0110 -2.2438
11769SOL    HW247367   2.533   9.654   5.513  1.2436 -0.5894 -0.0350
11770SOL     OW47368   8.076   2.041   2.702  0.4215  0.1052  0.8582
11770SOL    HW147369   8.074   1.966   2.635 -0.1575  2.2869 -1.6753
11770SOL    HW247370   7.999   2.031   2.765 -0.2555 -0.8976 -0.0972
11771SOL     OW47371   7.310   6.490   6.887  0.1374  0.3715 -0.1801
11771SOL    HW147372   7.341   6.458   6.977 -1.9063  0.4416  0.5776
11771SOL    HW247373   7.348   6.430   6.816  0.5611 -0.5992  0.8378
11772SOL     OW47374   3.637   2.136   0.740  0.0046 -0.6169 -0.3155
11772SOL    HW147375   3.610   2.215   0.685  0.6677  0.0851  0.3411
11772SOL    HW247376   3.570   2.063   0.729 -1.7569  0.8088  0.7247
11773SOL     OW47377   1.476   1.021   1.368  0.8056  0.1403 -0.0751
11773SOL    HW147378   1.377   1.020   1.352  0.6523 -1.8942  0.7956
11773SOL    HW247379   1.501   1.106   1.414 -0.4642  0.9020 -0.7651
11774SOL     OW47380   5.043   6.236   7.273 -0.0121  0.3484 -0.6155
11774SOL    HW147381   5.101   6.272   7.346  0.0216 -0.3311 -0.3044
11774SOL    HW247382   5.015   6.143   7.296 -2.2336  1.0792 -0.1749
11775SOL     OW47383   4.614   7.982   4.331 -0.1611  0.1711  0.3593
11775SOL    HW147384   4.653   7.891   4.340  2.2225  1.1649  0.5946
11775SOL    HW247385   4.565   7.990   4.244 -0.7068 -1.4233  0.5062
11776SOL     OW47386   3.177   2.284   6.918  0.5476 -0.8484 -0.5470
11776SOL    HW147387   3.170   2.383   6.930  1.0618 -0.8259 -0.3901
11776SOL    HW247388   3.207   2.243   7.004  1.1523 -1.0432 -0.8471
11777SOL     OW47389   2.630   1.370   7.425  0.8573 -0.6799  0.2364
11777SOL    HW147390   2.663   1.323   7.343 -0.4494 -0.2514 -0.5327
11777SOL    HW247391   2.657   1.317   7.506  0.7428 -1.9411 -0.5438
11778SOL     OW47392   5.368   9.871   2.370 -0.3596  0.2401  0.0995
11778SOL    HW147393   5.316   9.812   2.433 -1.4795 -0.1716 -1.1945
11778SOL    HW247394   5.407   9.815   2.297 -3.3866  1.3667 -2.4539
11779SOL     OW47395   4.005   5.212   7.542 -0.7204  0.1834 -0.0617
11779SOL    HW147396   3.981   5.285   7.478 -1.0645  0.6837  0.6251
11779SOL    HW247397   4.093   5.172   7.516 -0.4620  0.9324 -0.3658
11780SOL     OW47398   5.669   9.531   6.015  0.2130  0.2891  0.2672
11780SOL    HW147399   5.738   9.517   6.087  0.5350  2.4576  0.4397
11780SOL    HW247400   5.583   9.560   6.057  0.5230  1.9743 -0.2223
11781SOL     OW47401   0.937   0.177   6.226  0.2869  0.2627 -0.0947
11781SOL    HW147402   0.917   0.262   6.275 -1.5985 -0.8590  1.1657
11781SOL    HW247403   0.923   0.192   6.128 -1.2796  1.0721  0.2294
11782SOL     OW47404   4.922   7.502   8.804 -0.2250  0.2004 -0.0585
11782SOL    HW147405   4.879   7.539   8.887 -1.1193 -0.3510 -0.2720
11782SOL    HW247406   4.883   7.545   8.723  0.0513  0.1362 -0.2276
11783SOL     OW47407   3.498   9.072   2.140  0.5063  0.0874 -0.3072
11783SOL    HW147408   3.425   9.068   2.208  1.6632  1.8450  1.0911
11783SOL    HW247409   3.555   8.991   2.147 -0.5268 -0.6706 -0.5301
11784SOL     OW47410   3.675   0.112   3.392  0.0129  0.1442 -0.1487
11784SOL    HW147411   3.594   0.136   3.446  1.2839 -1.0730  2.3828
11784SOL    HW247412   3.714   0.027   3.426  1.0690 -0.4757 -2.8200
11785SOL     OW47413   6.888   0.985   8.005 -0.7993  0.4066  0.2677
11785SOL    HW147414   6.821   0.994   7.932 -1.1059 -0.7535  0.3998
11785SOL    HW247415   6.872   1.055   8.074 -0.1608  1.8666 -1.0379
11786SOL     OW47416   6.621   6.759   7.198 -0.1657 -0.5026  0.3934
11786SOL    HW147417   6.553   6.689   7.219  0.4302 -0.6358  1.8875
11786SOL    HW247418   6.575   6.847   7.185 -0.7128 -0.7649  0.5338
11787SOL     OW47419   0.293   3.162   3.500  0.0119  0.5556  0.4837
11787SOL    HW147420   0.325   3.174   3.406 -0.5526 -0.5726  0.1505
11787SOL    HW247421   0.372   3.145   3.559  0.1914 -0.6485 -0.0892
11788SOL     OW47422   5.397   1.927   9.098  0.5691 -0.8182 -0.4882
11788SOL    HW147423   5.359   1.911   9.007  2.8432  1.6049 -1.9264
11788SOL    HW247424   5.491   1.893   9.101  1.4594  1.5808  0.0474
11789SOL     OW47425   4.248   6.310   7.095 -0.0104 -0.3093  0.0906
11789SOL    HW147426   4.237   6.308   7.194  0.3917 -0.3822  0.1335
11789SOL    HW247427   4.343   6.333   7.072  0.4976 -2.6093 -0.2456
11790SOL     OW47428   3.846   1.270   6.446  0.0184 -0.1499  0.0091
11790SOL    HW147429   3.761   1.218   6.456 -0.1689  0.3324  0.9714
11790SOL    HW247430   3.829   1.354   6.395  0.0368 -0.3243 -0.2882
11791SOL     OW47431   3.777   1.311   8.431 -0.0940  0.2240  0.2176
11791SOL    HW147432   3.871   1.277   8.428  0.1695  0.7824  1.7794
11791SOL    HW247433   3.776   1.405   8.464 -1.3890 -0.6933  2.9516
11792SOL     OW47434   7.896   2.310   6.388  0.5227 -0.1874  0.2888
11792SOL    HW147435   7.911   2.326   6.291  0.2083 -0.8834  0.1241
11792SOL    HW247436   7.884   2.212   6.405 -0.4575  0.0270  0.8790
11793SOL     OW47437   4.000   9.778   5.588 -0.4519  0.2881  0.3522
11793SOL    HW147438   3.966   9.736   5.672 -1.2492 -0.0977 -0.1542
11793SOL    HW247439   3.991   9.878   5.595 -1.4774  0.2034  0.3208
11794SOL     OW47440   1.722   2.340   1.236 -0.2890  0.0072  0.2747
11794SOL    HW147441   1.634   2.356   1.280 -0.1403  0.2513  0.4896
11794SOL    HW247442   1.720   2.373   1.142 -0.5846 -0.4433  0.1209
11795SOL     OW47443   2.473   8.378   6.365 -0.0772  0.1225  0.3666
11795SOL    HW147444   2.557   8.426   6.392 -0.3126  0.0696  1.2353
11795SOL    HW247445   2.459   8.387   6.267  1.2374 -0.3285  0.1180
11796SOL     OW47446   9.851   1.486   4.985  0.1963  0.4395 -0.0210
11796SOL    HW147447   9.850   1.580   5.018 -0.6301  0.1952  0.6633
11796SOL    HW247448   9.766   1.466   4.937 -0.4320 -0.5281  1.4736
11797SOL     OW47449   4.690   8.317   8.967 -0.7049  0.0471  0.1402
11797SOL    HW147450   4.609   8.272   8.928 -1.7194  0.0921  2.1363
11797SOL    HW247451   4.694   8.412   8.935  1.2589 -1.2456 -3.8130
11798SOL     OW47452   7.091   9.111   6.723 -0.2101  0.8173  0.0739
11798SOL    HW147453   7.132   9.020   6.736 -1.6231 -0.0374 -1.2490
11798SOL    HW247454   7.063   9.148   6.811  0.1019 -0.1736  0.6007
11799SOL     OW47455   1.159   7.725   4.776  0.2368  0.1630  0.4761
11799SOL    HW147456   1.255   7.696   4.770 -0.4120 -2.0585  0.4034
11799SOL    HW247457   1.120   7.730   4.684 -0.4208 -1.4231  0.6622
11800SOL     OW47458   0.037   0.688   6.574 -0.3210  0.5231  0.1639
11800SOL    HW147459   0.132   0.668   6.548 -0.6570 -0.8207 -0.0861
11800SOL    HW247460   0.010   0.777   6.537  0.9447  1.0732  0.5176
11801SOL     OW47461   2.622   9.432   5.141  0.5025  0.0682  0.4426
11801SOL    HW147462   2.593   9.423   5.045 -0.1453 -0.8218  0.7193
11801SOL    HW247463   2.605   9.347   5.189  1.2463  0.3697  1.2511
11802SOL     OW47464   7.748   4.276   2.633 -0.1071  0.3647 -0.0494
11802SOL    HW147465   7.649   4.269   2.626 -0.2200 -1.1655  2.7222
11802SOL    HW247466   7.773   4.321   2.719  1.6181  0.4397 -0.5630
11803SOL     OW47467   2.127   6.291   4.685 -0.5704 -0.9138  0.2703
11803SOL    HW147468   2.031   6.320   4.694 -0.7305 -1.0150 -0.9463
11803SOL    HW247469   2.129   6.197   4.651 -0.0328 -1.0344  0.6354
11804SOL     OW47470   2.083   6.157   8.493  0.4204 -0.2260 -0.0857
11804SOL    HW147471   2.148   6.216   8.447 -0.3516 -1.4099 -2.7569
11804SOL    HW247472   1.991   6.195   8.484  0.0647 -1.2476 -0.8831
11805SOL     OW47473   4.533   3.056   5.082  0.1756  0.6613 -0.2006
11805SOL    HW147474   4.603   3.004   5.131  0.5296  0.5151 -0.8613
11805SOL    HW247475   4.466   2.992   5.042  1.2598  0.6235 -2.0172
11806SOL     OW47476   6.403   6.122   0.628 -0.5045  0.7401 -0.1937
11806SOL    HW147477   6.409   6.027   0.659 -1.1777  0.7193 -0.1126
11806SOL    HW247478   6.481   6.174   0.664  0.1425  0.1048 -0.6620
11807SOL     OW47479   6.632   8.648   4.475  0.2589 -0.4472  0.4040
11807SOL    HW147480   6.554   8.696   4.434  2.8613  2.5199 -1.3332
11807SOL    HW247481   6.636   8.555   4.440  0.3282  0.9197 -3.4424
11808SOL     OW47482   6.484   1.251   8.854 -0.0457 -0.1543 -0.2669
11808SOL    HW147483   6.506   1.163   8.896 -2.1825 -1.5672 -2.0083
11808SOL    HW247484   6.432   1.306   8.919  1.4125 -0.0903  0.8768
11809SOL     OW47485   4.797   6.367   6.866  0.6359 -0.1596 -0.6307
11809SOL    HW147486   4.748   6.304   6.927 -2.0356 -0.1565 -2.6923
11809SOL    HW247487   4.811   6.454   6.912  0.5864 -0.8658  0.7466
11810SOL     OW47488   6.565   8.772   0.961  0.2587  0.3043 -0.0447
11810SOL    HW147489   6.561   8.678   0.993  0.2702  0.1319 -0.5559
11810SOL    HW247490   6.495   8.787   0.891  1.0703  0.3365 -0.8587
11811SOL     OW47491   8.493   9.898   4.744 -0.2828  0.5354  0.0910
11811SOL    HW147492   8.467   9.983   4.697 -2.2810 -0.0756  0.0674
11811SOL    HW247493   8.483   9.821   4.681  0.2753  0.1082  0.5208
11812SOL     OW47494   6.396   8.307   9.104 -0.1322 -0.0157  0.5512
11812SOL    HW147495   6.377   8.353   9.191 -1.4100  1.1018 -0.2973
11812SOL    HW247496   6.309   8.281   9.061  0.4808 -0.2646 -0.5440
11813SOL     OW47497   5.624   7.551   5.692 -0.2446 -0.3950  0.1161
11813SOL    HW147498   5.720   7.575   5.678 -0.1169 -0.0767  1.3963
11813SOL    HW247499   5.598   7.478   5.629  1.1894 -1.3207  0.5477
11814SOL     OW47500   5.376   9.554   6.156  0.0385  0.7257 -0.3045
11814SOL    HW147501   5.355   9.461   6.127 -1.0156  0.9056 -0.1330
11814SOL    HW247502   5.307   9.617   6.119  0.5085  1.3867 -0.0726
11815SOL     OW47503   3.742   7.502   9.112  0.0215  0.4806 -0.1736
11815SOL    HW147504   3.690   7.548   9.185  1.0305  0.6094  0.4772
11815SOL    HW247505   3.797   7.569   9.063 -1.1771  0.4993 -1.5204
11816SOL     OW47506   6.633   5.672   9.387 -0.2173  0.2599 -0.1626
11816SOL    HW147507   6.717   5.671   9.333 -0.0940  1.1756 -0.0007
11816SOL    HW247508   6.556   5.647   9.329  0.3981 -2.4366  0.1214
11817SOL     OW47509   8.073   8.386   9.770  0.2347 -0.8945 -0.0276
11817SOL    HW147510   8.060   8.468   9.714 -1.8917 -0.8899  0.4072
11817SOL    HW247511   8.169   8.361   9.771  1.0932  2.1819  0.6399
11818SOL     OW47512   5.457   3.812   9.474 -0.0008  0.2689 -0.1470
11818SOL    HW147513   5.373   3.865   9.464  0.1072  0.6691  0.9856
11818SOL    HW247514   5.487   3.814   9.569  1.5790  0.5695 -0.6278
11819SOL     OW47515   2.959   5.008   1.523 -0.2804  0.4907  0.2161
11819SOL    HW147516   3.050   4.965   1.524  0.6335  2.3910  1.5541
11819SOL    HW247517   2.966   5.097   1.479 -1.0344  1.6217  2.3783
11820SOL     OW47518   4.202   6.071   0.072  0.2138  0.2121  0.0858
11820SOL    HW147519   4.242   6.030   0.154  0.1677  0.4795  0.2443
11820SOL    HW247520   4.230   6.020  -0.009  0.3865  0.0404  0.2556
11821SOL     OW47521   4.639   8.242   8.496  0.5322  0.3124 -0.1917
11821SOL    HW147522   4.720   8.221   8.551 -0.9616 -1.4197  1.3945
11821SOL    HW247523   4.637   8.182   8.416  0.8191  0.3843 -0.2565
11822SOL     OW47524   4.327   5.063   1.013  0.3631 -0.2845  0.3457
11822SOL    HW147525   4.329   5.007   1.095  0.1159  0.1052  0.6244
11822SOL    HW247526   4.232   5.073   0.982  0.4002  0.0209  0.3281
11823SOL     OW47527   1.078   9.543   7.041  0.2186  0.3988 -0.3835
11823SOL    HW147528   1.060   9.559   7.138  0.6851 -0.9846 -0.0658
11823SOL    HW247529   0.991   9.540   6.991  0.0406  2.5674 -0.2590
11824SOL     OW47530   6.326   9.281   1.099 -0.3372  0.6101  0.5590
11824SOL    HW147531   6.333   9.274   1.199  1.5682  0.2037  0.4187
11824SOL    HW247532   6.348   9.193   1.058 -0.3215  0.9906 -0.2595
11825SOL     OW47533   6.407   8.618   8.365 -0.6317  0.2503 -0.5195
11825SOL    HW147534   6.370   8.688   8.426  0.3504  1.1018 -0.8988
11825SOL    HW247535   6.423   8.656   8.274  1.1675 -0.0823 -0.3703
11826SOL     OW47536   2.385   0.766   0.207  1.0095  0.1081  0.3535
11826SOL    HW147537   2.338   0.750   0.121 -0.0349 -0.3661  1.0027
11826SOL    HW247538   2.463   0.827   0.192 -0.2866  1.5651 -0.6009
11827SOL     OW47539   2.839   0.956   4.424 -0.0974  0.2945 -0.5283
11827SOL    HW147540   2.892   0.875   4.451  0.5002  0.9390  0.2577
11827SOL    HW247541   2.746   0.948   4.460 -0.3893 -0.5903 -1.4536
11828SOL     OW47542   1.354   0.416   0.581  0.2404 -0.3192  0.2709
11828SOL    HW147543   1.298   0.443   0.502  0.7062 -1.1483 -0.3446
11828SOL    HW247544   1.448   0.399   0.551  0.2100 -1.5266  0.8474
11829SOL     OW47545   3.271   2.345   4.281 -0.1070  0.3226 -0.9011
11829SOL    HW147546   3.252   2.443   4.281 -1.3544  0.0849 -0.6576
11829SOL    HW247547   3.275   2.312   4.186 -2.5813  0.0686 -0.9429
11830SOL     OW47548   1.047   9.097   8.290  0.2156 -0.5229 -0.2187
11830SOL    HW147549   1.140   9.102   8.327  0.6312 -1.0568 -1.1850
11830SOL    HW247550   1.007   9.189   8.288  1.1077 -0.1439 -0.7822
11831SOL     OW47551   8.394   8.097   4.877 -0.4525  0.5283  0.2879
11831SOL    HW147552   8.424   8.013   4.832  1.3512  1.4467 -0.2915
11831SOL    HW247553   8.458   8.120   4.951 -0.2218  2.0370 -0.3565
11832SOL     OW47554   1.436   5.578   3.741 -0.0887 -0.0799  0.0428
11832SOL    HW147555   1.415   5.629   3.657 -0.2270 -1.2719 -0.6598
11832SOL    HW247556   1.508   5.626   3.791  1.6530 -0.5319 -1.9325
11833SOL     OW47557   2.093   0.785   6.295 -0.0127  0.2447 -0.1374
11833SOL    HW147558   2.000   0.823   6.297 -0.0243  0.1879  0.8818
11833SOL    HW247559   2.157   0.855   6.262 -0.4070  0.3216 -0.7238
11834SOL     OW47560   6.195   5.117   8.901  0.0608  0.3792 -0.3355
11834SOL    HW147561   6.153   5.183   8.963  0.8862 -1.1928  1.9432
11834SOL    HW247562   6.287   5.148   8.877 -0.1238  0.8035 -0.5101
11835SOL     OW47563   3.963   1.554   8.157  0.6650  0.3787 -0.8632
11835SOL    HW147564   3.994   1.464   8.188  1.9598  0.4321 -1.9366
11835SOL    HW247565   4.043   1.613   8.140 -0.1721  1.7997  0.0233
11836SOL     OW47566   1.650   2.501   7.295 -0.3763  0.6913 -0.5201
11836SOL    HW147567   1.592   2.505   7.377  0.8878  0.3164  0.4085
11836SOL    HW247568   1.597   2.532   7.216 -1.3823  1.8490  0.5620
11837SOL     OW47569   2.142   1.748   7.440  0.2146  0.1692  0.1314
11837SOL    HW147570   2.170   1.843   7.423  0.6720  0.2596  1.3363
11837SOL    HW247571   2.216   1.687   7.414 -0.0809  0.1465 -0.6476
11838SOL     OW47572   2.152   3.779   8.367  0.2747  0.7458 -0.3872
11838SOL    HW147573   2.204   3.812   8.446  1.4253  0.9960 -1.2216
11838SOL    HW247574   2.192   3.818   8.283 -0.5359 -0.0088 -1.1280
11839SOL     OW47575   2.724   2.194   5.995 -0.3897  0.5938  0.2516
11839SOL    HW147576   2.675   2.121   5.948 -0.6516 -1.1995  3.1891
11839SOL    HW247577   2.821   2.172   5.999 -0.2907  0.9937  0.0969
11840SOL     OW47578   0.553   0.303   5.853  0.1256 -0.3314 -0.8251
11840SOL    HW147579   0.544   0.328   5.949  3.2413 -1.2872 -0.2086
11840SOL    HW247580   0.504   0.218   5.836  0.4876 -0.7461  0.1857
11841SOL     OW47581   1.309   3.502   9.750  0.7380  0.2930 -0.3702
11841SOL    HW147582   1.355   3.542   9.829  2.0112 -0.2549 -0.8223
11841SOL    HW247583   1.324   3.403   9.750  1.4344  0.3854 -1.7349
11842SOL     OW47584   8.314   0.516   5.055  0.4999  0.3213  0.0241
11842SOL    HW147585   8.293   0.421   5.080  0.5229  0.1828 -0.4691
11842SOL    HW247586   8.340   0.520   4.958  0.6696  0.8064  0.0874
11843SOL     OW47587   0.207   8.189   6.731  0.0376  0.2501 -0.5863
11843SOL    HW147588   0.162   8.277   6.739 -0.1447 -0.0736  2.2594
11843SOL    HW247589   0.147   8.117   6.764  1.9921 -0.3666  1.7339
11844SOL     OW47590   0.455   9.643   7.257  0.1139  0.0468  0.3669
11844SOL    HW147591   0.411   9.704   7.324  0.8342  1.8470 -0.7397
11844SOL    HW247592   0.389   9.620   7.185 -0.1926 -0.5820  0.8463
11845SOL     OW47593   5.515   6.089   6.433 -0.6131  0.0384  0.1409
11845SOL    HW147594   5.516   6.188   6.417  2.5466  0.1169  0.5029
11845SOL    HW247595   5.528   6.042   6.345 -0.9256 -0.0186  0.1257
11846SOL     OW47596   2.556   3.019   8.968 -0.3924  0.4538  0.1609
11846SOL    HW147597   2.598   3.093   8.915 -0.6207 -0.3162 -1.1184
11846SOL    HW247598   2.620   2.989   9.038  0.6246  0.3073 -0.8114
11847SOL     OW47599   6.305   0.432   6.055  0.4624 -0.0610  0.0511
11847SOL    HW147600   6.338   0.396   6.143 -0.4602 -1.3938 -0.1290
11847SOL    HW247601   6.206   0.418   6.049  1.0021 -3.2923 -2.7093
11848SOL     OW47602   2.280   8.078   6.755 -0.3212  0.4040  0.0591
11848SOL    HW147603   2.343   8.138   6.706  0.6028 -0.6244 -0.0333
11848SOL    HW247604   2.331   8.002   6.796 -1.4442 -0.2174  0.3379
11849SOL     OW47605   5.785   9.571   0.182 -0.4085 -0.3476 -0.1094
11849SOL    HW147606   5.686   9.587   0.181 -0.5590 -1.3494 -0.8709
11849SOL    HW247607   5.805   9.478   0.152  0.6588 -0.7618  1.7463
11850SOL     OW47608   5.772   2.480   8.580 -0.0848  0.2656  0.5647
11850SOL    HW147609   5.780   2.580   8.585  0.8976  0.2559 -0.6557
11850SOL    HW247610   5.841   2.444   8.517 -0.6944 -1.1514  0.6918
11851SOL     OW47611   3.792   3.977   1.498 -0.3229 -0.2017  0.3861
11851SOL    HW147612   3.783   3.879   1.514  1.8130 -0.3918  0.5581
11851SOL    HW247613   3.796   4.026   1.586  0.2075 -0.1327  0.3279
11852SOL     OW47614   4.340   1.560   5.433 -0.3080  0.6271  0.0427
11852SOL    HW147615   4.269   1.576   5.365 -0.1152 -2.2291 -0.8694
11852SOL    HW247616   4.301   1.517   5.514  0.0723  0.8134  0.3311
11853SOL     OW47617   4.637   9.785   8.166  0.0414  0.1162  0.0628
11853SOL    HW147618   4.654   9.688   8.148 -1.2493  0.0298 -0.7298
11853SOL    HW247619   4.679   9.840   8.094  2.2594  0.2668  1.4206
11854SOL     OW47620   7.291   4.565   0.617  0.1027  0.4167  0.4217
11854SOL    HW147621   7.264   4.469   0.625  0.3244  0.5059  2.5685
11854SOL    HW247622   7.221   4.615   0.568 -0.1471 -0.7893 -0.4764
11855SOL     OW47623   3.095   1.674   0.129  0.2560 -0.1299  0.0894
11855SOL    HW147624   3.016   1.652   0.187  0.0550  0.4987  0.0691
11855SOL    HW247625   3.081   1.637   0.037  1.1013 -2.1232  0.7536
11856SOL     OW47626   4.956   9.501   6.563  0.2045  0.0646 -0.4362
11856SOL    HW147627   4.907   9.586   6.544  0.4786  0.6394  1.3310
11856SOL    HW247628   5.042   9.499   6.514 -0.0907  0.5317 -0.9651
11857SOL     OW47629   3.064   4.148   6.159 -0.4243 -0.1509 -0.2429
11857SOL    HW147630   3.062   4.074   6.226 -0.7773 -0.1801 -0.2850
11857SOL    HW247631   2.972   4.183   6.146  0.0321  1.8235  1.4744
11858SOL     OW47632   4.511   5.160   6.468  0.2292 -0.0049  0.0320
11858SOL    HW147633   4.572   5.156   6.548  1.2409  2.4062 -0.5697
11858SOL    HW247634   4.431   5.215   6.490 -1.0974 -2.0013  0.3660
11859SOL     OW47635   4.288   9.686   7.061  0.2321 -0.3521  0.3183
11859SOL    HW147636   4.346   9.699   7.142  0.4005  1.2436 -0.0398
11859SOL    HW247637   4.198   9.725   7.078  0.7823  1.5229 -0.8235
11860SOL     OW47638   8.113   4.376   8.317 -0.4144 -0.1973  0.2379
11860SOL    HW147639   8.058   4.449   8.278 -1.0617  0.6427  2.6027
11860SOL    HW247640   8.053   4.302   8.349  0.0241 -0.4852  0.4099
11861SOL     OW47641   6.822   7.187   0.539 -0.3039 -0.2637  0.3477
11861SOL    HW147642   6.763   7.165   0.617  1.6235 -2.1304  1.3410
11861SOL    HW247643   6.786   7.142   0.457  0.3160 -2.3325  1.1720
11862SOL     OW47644   0.523   4.265   5.491 -0.1876 -0.4150  0.1688
11862SOL    HW147645   0.426   4.250   5.476  0.0467 -0.0477 -1.8089
11862SOL    HW247646   0.565   4.182   5.528 -1.3541 -0.3756  1.6112
11863SOL     OW47647   2.255   8.440   9.398 -0.0950 -0.2697 -0.4288
11863SOL    HW147648   2.268   8.524   9.452  0.8506 -0.0918 -0.9213
11863SOL    HW247649   2.218   8.464   9.308 -0.6140 -0.4621 -0.2661
11864SOL     OW47650   0.985   5.109   6.974 -0.1539  0.0157  0.4003
11864SOL    HW147651   1.028   5.129   6.887  1.0743 -1.2072  0.7070
11864SOL    HW247652   0.962   5.011   6.979 -0.2486  0.0751  1.4169
11865SOL     OW47653   1.022   1.418   9.253 -0.0263 -0.3643  0.0436
11865SOL    HW147654   0.996   1.504   9.209  1.6808  0.1527 -0.0069
11865SOL    HW247655   1.016   1.428   9.352 -0.4535 -0.3872  0.0171
11866SOL     OW47656   5.354   8.291   7.801 -0.1427  0.1200  0.3132
11866SOL    HW147657   5.389   8.346   7.725  2.3299 -1.1636  0.4476
11866SOL    HW247658   5.344   8.349   7.882  0.2447  0.8442 -0.1476
11867SOL     OW47659   2.780   1.866   7.825  0.0144 -0.1878  0.2665
11867SOL    HW147660   2.842   1.930   7.781  0.6471 -1.1251 -0.2223
11867SOL    HW247661   2.685   1.895   7.809  0.2934  0.6865  0.1636
11868SOL     OW47662   3.447   2.233   1.064  0.1026  0.2658 -0.3803
11868SOL    HW147663   3.530   2.285   1.084 -0.2813 -0.2625  2.7734
11868SOL    HW247664   3.433   2.164   1.135 -2.7330 -0.0324 -1.1855
11869SOL     OW47665   3.973   8.679   0.163 -0.3443 -0.4956 -0.3086
11869SOL    HW147666   3.945   8.744   0.093  0.9065 -0.9397 -1.2365
11869SOL    HW247667   4.068   8.651   0.147  0.4761  0.5602  2.4562
11870SOL     OW47668   3.307   6.623   1.735  0.3452 -0.2203 -0.4310
11870SOL    HW147669   3.282   6.650   1.828  0.1106 -2.1359  0.0803
11870SOL    HW247670   3.270   6.691   1.670  2.4117  2.3432  0.9651
11871SOL     OW47671   8.440   0.799   2.643 -0.1736  0.6656  0.4435
11871SOL    HW147672   8.401   0.888   2.665 -1.7127 -0.0881  0.8673
11871SOL    HW247673   8.373   0.745   2.592  1.1346  0.1445 -0.7459
11872SOL     OW47674   6.723   1.076   1.500  0.2347  0.2379 -0.7179
11872SOL    HW147675   6.760   1.088   1.593  3.0798 -2.0646 -1.4953
11872SOL    HW247676   6.780   1.012   1.449 -2.7548 -0.5365 -3.2704
11873SOL     OW47677   4.057   0.344   8.552 -0.2720 -0.0344 -1.2465
11873SOL    HW147678   4.041   0.320   8.456 -1.1178  0.4665 -1.2450
11873SOL    HW247679   4.039   0.442   8.565 -1.3723 -0.3403 -0.3395
11874SOL     OW47680   3.359   9.942   5.339 -0.0042  0.1293 -0.0057
11874SOL    HW147681   3.402   9.968   5.252 -2.2949 -0.1652 -1.2817
11874SOL    HW247682   3.331  10.025   5.388 -3.0410  0.2565 -1.8483
11875SOL     OW47683   1.884   4.909   1.222  0.5813 -0.3290 -0.1568
11875SOL    HW147684   1.795   4.943   1.192  1.9563  2.0706 -1.6980
11875SOL    HW247685   1.874   4.862   1.310 -2.1546  0.0010 -0.2389
11876SOL     OW47686   3.722   1.322   9.000 -0.2345 -0.2201 -0.1799
11876SOL    HW147687   3.653   1.337   9.072 -0.1547 -1.0014  0.0605
11876SOL    HW247688   3.714   1.394   8.931 -1.3399 -0.3340 -0.1818
11877SOL     OW47689   4.788   1.114   1.646 -0.4393  0.0115 -0.0398
11877SOL    HW147690   4.840   1.197   1.626  1.3331 -1.5664 -2.1724
11877SOL    HW247691   4.812   1.081   1.738 -1.7565  2.2366  1.1595
11878SOL     OW47692   0.600   9.420   4.063  0.2422  0.1609  0.2033
11878SOL    HW147693   0.628   9.378   4.149 -0.0791 -0.8876 -0.2045
11878SOL    HW247694   0.558   9.509   4.081  0.6288  0.1640  1.0855
11879SOL     OW47695   1.433   8.057   5.951 -0.6186 -0.3520  0.0657
11879SOL    HW147696   1.371   7.981   5.934 -3.9524  2.0753  0.8354
11879SOL    HW247697   1.401   8.138   5.902  1.5906  1.1713  1.0464
11880SOL     OW47698   3.662   5.819   5.792 -0.6177 -0.3779  0.1505
11880SOL    HW147699   3.707   5.761   5.859  0.8519 -1.4684 -1.7306
11880SOL    HW247700   3.640   5.765   5.710  0.1674  1.5214 -1.3645
11881SOL     OW47701   5.797   2.890   1.147 -0.2149 -0.1076  0.3312
11881SOL    HW147702   5.810   2.964   1.081  0.9619  1.5463  2.3549
11881SOL    HW247703   5.700   2.868   1.152 -0.5303  0.9387 -0.6830
11882SOL     OW47704   4.443   1.623   7.288  0.1473 -0.1853  0.2524
11882SOL    HW147705   4.344   1.611   7.288 -0.1758  2.1854  1.4306
11882SOL    HW247706   4.465   1.718   7.307  2.6882 -0.9009  1.1218
11883SOL     OW47707   3.800   6.002   6.487 -0.4903  0.3376 -0.7787
11883SOL    HW147708   3.865   6.046   6.425  0.0363  0.1377 -0.3672
11883SOL    HW247709   3.733   5.951   6.433  0.1191 -0.0501 -1.1739
11884SOL     OW47710   3.526   7.483   3.569  0.4664  0.0254  0.4843
11884SOL    HW147711   3.602   7.539   3.536  0.7679 -0.6788 -0.0083
11884SOL    HW247712   3.507   7.507   3.664  0.8147  0.7332  0.3773
11885SOL     OW47713   3.063   3.420   6.800 -0.0803  0.4199 -0.8794
11885SOL    HW147714   3.157   3.402   6.830  0.5432  3.0099 -1.1629
11885SOL    HW247715   3.060   3.425   6.701 -1.0071 -2.0268 -1.0141
11886SOL     OW47716   4.247   0.356   7.897  0.4527 -0.0378  0.3783
11886SOL    HW147717   4.332   0.377   7.847  0.4070  0.1511  0.3789
11886SOL    HW247718   4.201   0.441   7.920  0.2910 -0.1401  0.4299
11887SOL     OW47719   3.850   4.442   8.859  0.7673 -0.0130  0.2029
11887SOL    HW147720   3.832   4.346   8.879  1.8149 -0.2690 -0.0355
11887SOL    HW247721   3.940   4.451   8.816  1.3751  1.2527  1.6917
11888SOL     OW47722   3.074   9.432   1.691  0.2118  0.3264  0.2292
11888SOL    HW147723   3.125   9.369   1.750  0.0915 -0.0003 -0.0150
11888SOL    HW247724   3.139   9.490   1.641  0.3926 -0.7461 -0.8166
11889SOL     OW47725   3.261   5.886   6.748 -0.0347 -0.2026  0.2198
11889SOL    HW147726   3.273   5.887   6.649 -1.5507  0.2311  0.0328
11889SOL    HW247727   3.293   5.973   6.786 -1.1980  0.3814 -0.1149
11890SOL     OW47728   5.604   3.225   9.703 -0.1881 -0.6461 -0.1336
11890SOL    HW147729   5.567   3.276   9.625  2.7729  1.5135 -0.2134
11890SOL    HW247730   5.638   3.136   9.672  2.3353  0.7954 -1.6794
11891SOL     OW47731   1.733   7.186   0.880  0.1113 -0.0520 -0.3961
11891SOL    HW147732   1.808   7.240   0.920  0.5707 -0.7742 -0.2785
11891SOL    HW247733   1.751   7.089   0.894 -0.6540 -0.2397 -0.7264
11892SOL     OW47734   1.876   1.002   1.806 -0.4031 -0.0391 -0.3994
11892SOL    HW147735   1.809   1.001   1.732  2.0557 -0.1379 -2.6950
11892SOL    HW247736   1.934   0.921   1.800  0.9792  0.8634  0.5233
11893SOL     OW47737   8.120   8.215   3.589  0.5668  0.4312  0.1569
11893SOL    HW147738   8.189   8.202   3.660 -0.0338 -0.3448  0.5962
11893SOL    HW247739   8.139   8.154   3.512  1.2769  1.3453 -0.4001
11894SOL     OW47740   9.103   0.650   8.864  0.0796  0.0376  0.1489
11894SOL    HW147741   9.084   0.731   8.920  0.5635  1.5892 -1.8594
11894SOL    HW247742   9.040   0.577   8.889 -0.4867  1.0775  1.8879
11895SOL     OW47743   7.277   2.872   0.402  0.7487 -0.5880  0.1866
11895SOL    HW147744   7.183   2.838   0.400  0.5604 -0.0133 -1.0832
11895SOL    HW247745   7.276   2.971   0.417  1.1257 -0.5124 -0.2703
11896SOL     OW47746   8.720   8.381   6.833  0.2598 -0.7355 -0.0456
11896SOL    HW147747   8.764   8.405   6.920  2.4051 -1.4373 -0.8867
11896SOL    HW247748   8.672   8.293   6.844  1.0513 -1.1360  0.2740
11897SOL     OW47749   7.080   6.878   6.913 -0.1002  0.2139 -0.0636
11897SOL    HW147750   7.163   6.843   6.870  2.1153 -0.0595  4.1918
11897SOL    HW247751   7.013   6.804   6.920  1.5086 -1.1235  1.6140
11898SOL     OW47752   4.264   5.834   0.193  0.2303 -0.0622 -0.0510
11898SOL    HW147753   4.325   5.789   0.258  0.1623  1.5155  1.1367
11898SOL    HW247754   4.181   5.780   0.181  0.9089 -1.1197 -0.0061
11899SOL     OW47755   2.951   3.583   0.643 -0.5921  0.0029  0.3698
11899SOL    HW147756   2.976   3.557   0.736 -0.7143  2.3273  1.0870
11899SOL    HW247757   3.034   3.610   0.593 -0.5737 -0.8869 -0.0898
11900SOL     OW47758   7.080   0.997   6.251 -0.2524  0.2147  0.3876
11900SOL    HW147759   7.045   1.049   6.329 -0.6935  0.5540 -0.0295
11900SOL    HW247760   7.015   1.003   6.175  0.4568  0.4032 -0.2150
11901SOL     OW47761   2.555   8.180   9.659 -0.7485 -0.0674 -0.4614
11901SOL    HW147762   2.456   8.178   9.639 -1.4165 -2.5805  2.8217
11901SOL    HW247763   2.574   8.253   9.724 -1.2358 -2.5445  2.5390
11902SOL     OW47764   7.129   4.157   8.734  0.0564  0.2492 -0.0646
11902SOL    HW147765   7.191   4.107   8.673  0.6984 -0.7484  1.3884
11902SOL    HW247766   7.177   4.237   8.771 -0.7422  1.5812 -1.8288
11903SOL     OW47767   3.306   2.627   8.588 -0.2470  0.2932 -0.3820
11903SOL    HW147768   3.330   2.608   8.493 -0.1682  1.3475 -0.5851
11903SOL    HW247769   3.209   2.649   8.594 -0.2242  0.3537 -0.2396
11904SOL     OW47770   5.020   3.669   7.081 -0.1609 -0.1774  0.0668
11904SOL    HW147771   5.001   3.720   6.997  0.0791 -2.0393 -1.1538
11904SOL    HW247772   4.994   3.573   7.069 -0.2473 -0.4525  2.1810
11905SOL     OW47773   3.427   6.210   7.705 -0.3618 -0.1648 -0.1853
11905SOL    HW147774   3.407   6.164   7.618  0.5036  1.3456 -1.2243
11905SOL    HW247775   3.525   6.202   7.725 -0.6952 -1.1984  1.0817
11906SOL     OW47776   1.306   7.286   8.920  0.6401  0.1005 -0.3693
11906SOL    HW147777   1.338   7.319   9.009  1.1194 -1.6567  0.1324
11906SOL    HW247778   1.383   7.251   8.868 -0.1414 -2.2573  0.0090
11907SOL     OW47779   4.361   3.305   0.459 -0.3517  0.1154 -0.1454
11907SOL    HW147780   4.304   3.298   0.540  0.7017  0.6389  0.6414
11907SOL    HW247781   4.430   3.232   0.460 -1.7644 -1.2971 -1.7171
11908SOL     OW47782   7.778   0.019   5.743  0.1206 -0.8627 -0.5959
11908SOL    HW147783   7.847   0.083   5.776 -1.7019  0.1664  1.3165
11908SOL    HW247784   7.754  -0.045   5.817 -1.9608 -0.3295 -0.7859
11909SOL     OW47785   7.521   1.543   6.256 -0.5548  0.0369  0.4802
11909SOL    HW147786   7.561   1.451   6.256  0.4087  0.4460 -0.1232
11909SOL    HW247787   7.501   1.569   6.162 -0.0260  0.7843  0.5737
11910SOL     OW47788   6.701   9.470   0.856 -0.2953 -0.3149  0.4509
11910SOL    HW147789   6.720   9.382   0.812  1.2971  0.2358  0.0064
11910SOL    HW247790   6.605   9.474   0.882 -0.7206 -1.5984 -0.8568
11911SOL     OW47791   2.188   7.765   5.365 -0.2715  0.4424  0.4209
11911SOL    HW147792   2.216   7.826   5.291 -0.1441 -0.6466 -0.4487
11911SOL    HW247793   2.175   7.818   5.449 -0.4746  1.7067 -0.3880
11912SOL     OW47794   0.079   3.228   7.367  0.4685 -0.3557  0.3585
11912SOL    HW147795   0.058   3.278   7.283  0.9443 -0.2348  0.3078
11912SOL    HW247796   0.054   3.132   7.355 -1.2421  0.0241  0.7582
11913SOL     OW47797   7.367   4.447   5.228 -0.5831 -0.3066  0.6525
11913SOL    HW147798   7.370   4.383   5.151  1.6728  0.0419  0.4262
11913SOL    HW247799   7.450   4.502   5.229 -1.4360  1.0001  2.2472
11914SOL     OW47800   1.746   6.825   8.437  0.1673  0.0125  0.2173
11914SOL    HW147801   1.762   6.727   8.448  0.9603  0.2363  1.1486
11914SOL    HW247802   1.656   6.840   8.397  0.0895 -1.0980 -0.0408
11915SOL     OW47803   4.657   8.763   7.542  0.1838  0.1036  0.5007
11915SOL    HW147804   4.753   8.786   7.528 -0.1709  0.3693 -1.6121
11915SOL    HW247805   4.650   8.671   7.583  1.2639 -1.2514 -2.2455
11916SOL     OW47806   6.063   6.196   2.693  0.1206 -0.4642  0.2855
11916SOL    HW147807   6.129   6.122   2.705 -0.4958 -1.2023 -0.7971
11916SOL    HW247808   5.971   6.163   2.713 -0.4541 -0.6713 -2.4570
11917SOL     OW47809   7.750   0.047   6.136  0.0347  0.1394 -0.7164
11917SOL    HW147810   7.737   0.010   6.228 -1.8790  2.5715  0.0612
11917SOL    HW247811   7.757  -0.028   6.070  0.8107 -1.6195  1.3341
11918SOL     OW47812   2.559   1.676   8.578  0.1409 -0.1101  0.4896
11918SOL    HW147813   2.564   1.662   8.677  0.7748  1.8935  0.7718
11918SOL    HW247814   2.648   1.708   8.545 -0.2268 -0.2455 -0.6396
11919SOL     OW47815   1.343   8.172   7.461 -0.3946  0.0403 -0.1342
11919SOL    HW147816   1.296   8.083   7.457  0.0561 -0.1671 -0.9094
11919SOL    HW247817   1.439   8.158   7.484 -0.4266  0.3674  0.2027
11920SOL     OW47818   0.564   9.234   7.948  0.2236 -0.4412  0.1746
11920SOL    HW147819   0.630   9.212   8.020  0.0652 -0.8196  0.2021
11920SOL    HW247820   0.583   9.180   7.866  1.3073  1.0446 -0.5784
11921SOL     OW47821   3.706   8.849   9.845  0.5805 -0.3220  0.2987
11921SOL    HW147822   3.672   8.912   9.776  0.4207 -1.7543 -0.9501
11921SOL    HW247823   3.680   8.882   9.936 -0.4118  0.8314 -0.3917
11922SOL     OW47824   5.055   6.992   8.740 -0.1604  0.0055  0.3901
11922SOL    HW147825   5.046   7.076   8.794  0.5358 -0.2038  0.8348
11922SOL    HW247826   4.985   6.926   8.770 -1.5845  0.9086 -0.8804
11923SOL     OW47827   2.759   0.917   6.449  0.4460 -0.0185 -0.1484
11923SOL    HW147828   2.818   0.838   6.465 -1.3157 -1.5283 -0.8775
11923SOL    HW247829   2.677   0.888   6.400 -2.2359  1.4518  3.2381
11924SOL     OW47830   3.163   9.342   8.297 -0.4789 -0.3355  0.5117
11924SOL    HW147831   3.141   9.429   8.253  0.2715 -0.2848  0.2316
11924SOL    HW247832   3.101   9.327   8.374 -1.5664 -0.2394 -0.3196
11925SOL     OW47833   7.300   5.444   2.894  0.0924  0.0851 -0.2367
11925SOL    HW147834   7.266   5.507   2.964 -1.6605  1.0908 -1.9480
11925SOL    HW247835   7.387   5.477   2.858 -0.8181  1.5486 -1.1211
11926SOL     OW47836   4.804   6.222   8.219 -0.6872  0.1044  0.2338
11926SOL    HW147837   4.819   6.155   8.146 -1.4406 -2.3064  2.2125
11926SOL    HW247838   4.746   6.295   8.184 -0.1503 -0.4210 -1.8915
11927SOL     OW47839   2.055   1.706   7.746  0.5487 -0.2682 -0.1509
11927SOL    HW147840   2.034   1.780   7.809  0.9069 -0.1666 -0.1521
11927SOL    HW247841   2.124   1.736   7.680 -1.0816  0.1984 -1.6880
11928SOL     OW47842   4.412   2.485   8.402  0.3272 -0.5102  0.4668
11928SOL    HW147843   4.356   2.510   8.323  1.2741 -1.7935 -0.6390
11928SOL    HW247844   4.506   2.517   8.388  1.0427 -2.7270 -0.0004
11929SOL     OW47845   2.636   1.741   9.268 -0.1230 -0.1406 -0.0202
11929SOL    HW147846   2.557   1.745   9.329  0.9694  3.1822  1.2967
11929SOL    HW247847   2.654   1.646   9.243 -1.6738 -1.4271  3.4075
11930SOL     OW47848   5.659   5.511   6.073 -0.7153 -0.3833  0.5349
11930SOL    HW147849   5.678   5.431   6.131 -0.6101 -0.2996  0.6177
11930SOL    HW247850   5.642   5.591   6.131  0.7758  0.0140  0.4456
11931SOL     OW47851   1.760   4.342   1.679 -0.3343  0.1109 -0.3327
11931SOL    HW147852   1.735   4.253   1.641  0.8815 -0.0581 -0.7728
11931SOL    HW247853   1.707   4.414   1.634 -0.8221 -0.3349 -0.4685
11932SOL     OW47854   5.275   9.130   2.433 -0.7508  0.4287  0.4559
11932SOL    HW147855   5.368   9.116   2.469 -0.9916  0.1000  0.9582
11932SOL    HW247856   5.226   9.194   2.493 -0.5770  1.2574 -0.2736
11933SOL     OW47857   6.136   0.526   3.237 -0.7768 -0.4301  0.0415
11933SOL    HW147858   6.092   0.574   3.161 -0.2737 -0.7960 -0.4795
11933SOL    HW247859   6.206   0.585   3.277 -0.6816 -0.4431 -0.1096
11934SOL     OW47860   4.215   9.910   7.847 -0.3113 -0.1791  0.0639
11934SOL    HW147861   4.212   9.992   7.904  1.1974 -0.9625  1.3006
11934SOL    HW247862   4.236   9.830   7.904  0.9277 -1.0177 -1.5261
11935SOL     OW47863   9.198   6.198   2.010 -0.0149  0.0413  0.4399
11935SOL    HW147864   9.230   6.178   2.103  1.4218  1.2737  0.2343
11935SOL    HW247865   9.154   6.288   2.009 -1.0581 -0.4709  0.1604
11936SOL     OW47866   7.077   3.201   6.782 -1.0278 -0.2691 -0.2804
11936SOL    HW147867   7.094   3.116   6.831 -1.5100  0.5094  1.2918
11936SOL    HW247868   7.011   3.186   6.709 -2.2521 -0.9380  0.9500
11937SOL     OW47869   4.439   9.133   2.217 -0.2137 -0.2751 -0.0291
11937SOL    HW147870   4.395   9.219   2.241  0.9808  0.3185  0.0905
11937SOL    HW247871   4.372   9.070   2.179 -1.1193  0.6690 -0.0003
11938SOL     OW47872   2.812   0.705   7.958  0.0613  0.3001  0.4520
11938SOL    HW147873   2.814   0.793   7.910  0.8741  0.8893  1.5388
11938SOL    HW247874   2.865   0.712   8.042  1.5131 -1.7250 -0.2634
11939SOL     OW47875   3.492   9.487   7.613  0.6593 -0.1518 -0.3864
11939SOL    HW147876   3.406   9.443   7.639  1.2467 -1.0693  0.0349
11939SOL    HW247877   3.562   9.417   7.599  2.0827  0.7243  2.0581
11940SOL     OW47878   2.853   0.077   6.930  0.4672 -0.8542 -0.7680
11940SOL    HW147879   2.876   0.006   6.996  1.7463 -1.4974 -1.8939
11940SOL    HW247880   2.756   0.100   6.939  0.8868  0.0630  2.2862
11941SOL     OW47881   3.798   1.673   4.271 -0.4196 -0.0075 -0.6662
11941SOL    HW147882   3.825   1.674   4.367 -0.9906 -1.6326 -0.4633
11941SOL    HW247883   3.721   1.734   4.257  0.1365  0.7926 -0.2394
11942SOL     OW47884   9.728   9.586   1.485  0.1394 -0.1965  0.0834
11942SOL    HW147885   9.726   9.576   1.385 -2.3440 -1.5887  0.2329
11942SOL    HW247886   9.700   9.500   1.527  1.8370  0.1712  2.0220
11943SOL     OW47887   2.583   6.718   3.599 -0.0889 -0.2436 -0.6806
11943SOL    HW147888   2.515   6.646   3.588 -0.1084 -0.3298 -0.0270
11943SOL    HW247889   2.612   6.751   3.509 -0.3980 -0.7659 -0.9738
11944SOL     OW47890   4.622   3.021   2.735 -0.4383 -0.2647  0.5625
11944SOL    HW147891   4.682   2.946   2.764  1.6552  0.9761 -0.4201
11944SOL    HW247892   4.649   3.105   2.782  0.6729  0.9911 -2.2079
11945SOL     OW47893   6.382   1.094   6.231  0.0973 -0.6414 -0.4143
11945SOL    HW147894   6.401   1.149   6.313 -0.0615 -2.0396  0.5912
11945SOL    HW247895   6.313   1.026   6.253  1.6990 -2.5220 -1.0715
11946SOL     OW47896   6.598   8.629   6.742 -0.0375  0.2045  0.1872
11946SOL    HW147897   6.592   8.568   6.821  0.3895 -1.1321 -0.8102
11946SOL    HW247898   6.506   8.654   6.712 -0.2381 -0.9719 -0.1906
11947SOL     OW47899   4.622   8.324   7.894 -0.3323 -0.1035  0.1982
11947SOL    HW147900   4.632   8.423   7.904  0.6405 -0.2612  0.8360
11947SOL    HW247901   4.525   8.301   7.885 -0.4807  1.0176 -1.1829
11948SOL     OW47902   1.954   4.439   6.671  0.0130  0.5716 -0.6360
11948SOL    HW147903   1.857   4.462   6.671 -0.5479 -1.6841 -0.9079
11948SOL    HW247904   1.965   4.341   6.656  2.1162 -0.1062  4.3424
11949SOL     OW47905   5.404   7.607   7.373  0.0593 -0.9938 -0.5813
11949SOL    HW147906   5.413   7.510   7.396 -1.5256 -1.0801 -0.2838
11949SOL    HW247907   5.367   7.656   7.452  1.3480 -0.0479 -0.5599
11950SOL     OW47908   3.455   9.914   7.252  0.0822  0.2130  1.0241
11950SOL    HW147909   3.379   9.886   7.311 -0.0531 -0.7704  0.3813
11950SOL    HW247910   3.419   9.948   7.165  0.4907 -3.1998 -0.5256
11951SOL     OW47911   6.601   0.466   0.031  0.2578 -0.3273  0.5547
11951SOL    HW147912   6.529   0.495   0.093 -0.3219 -0.6078  0.0234
11951SOL    HW247913   6.635   0.544  -0.021  1.0189 -0.0251  1.5064
11952SOL     OW47914   3.050   0.685   8.743  0.8162  1.0480 -0.5947
11952SOL    HW147915   2.984   0.681   8.817 -0.6092  0.7691 -1.8460
11952SOL    HW247916   3.030   0.611   8.677  3.5094 -0.2282 -0.0599
11953SOL     OW47917   5.882   5.154   8.474  0.4844  0.4955  0.3082
11953SOL    HW147918   5.792   5.111   8.470  0.3464  0.7697  0.4533
11953SOL    HW247919   5.912   5.159   8.570  0.8290  0.0435  0.2284
11954SOL     OW47920   3.987   2.356   6.803  0.3329  0.3418  0.5019
11954SOL    HW147921   4.078   2.362   6.764  0.5410  0.2976  0.9768
11954SOL    HW247922   3.939   2.276   6.766  1.0769 -0.5667  1.4714
11955SOL     OW47923   6.669   7.111   0.764  0.4998 -0.3081 -0.4676
11955SOL    HW147924   6.589   7.053   0.754  0.0139  0.6969 -2.6407
11955SOL    HW247925   6.655   7.176   0.839 -0.1165 -1.0683  0.0800
11956SOL     OW47926   7.042   9.858   4.693  0.3950  0.4158 -0.3113
11956SOL    HW147927   7.141   9.853   4.682  0.7656  0.8266  2.4374
11956SOL    HW247928   7.005   9.765   4.701  0.5978  0.2813 -0.8749
11957SOL     OW47929   3.497   8.539   8.161  0.4261  0.2197  0.1287
11957SOL    HW147930   3.557   8.611   8.127  0.6979 -0.9458 -1.9409
11957SOL    HW247931   3.410   8.578   8.189  2.1016  1.9490  3.2220
11958SOL     OW47932   1.744   9.874   7.944  0.3298  0.3265  0.0086
11958SOL    HW147933   1.651   9.909   7.948  0.1962 -0.1414  1.1786
11958SOL    HW247934   1.802   9.939   7.893 -0.6986  0.4220 -1.0571
11959SOL     OW47935   8.383   9.664   4.018 -0.2682  0.2166 -0.0229
11959SOL    HW147936   8.478   9.652   4.046 -0.5428  1.3541  1.4497
11959SOL    HW247937   8.367   9.614   3.933  0.9521 -2.1541  1.1018
11960SOL     OW47938   8.299   4.180   7.022  0.2648 -0.3603  0.2622
11960SOL    HW147939   8.351   4.258   6.986  1.5564 -0.6297  1.5079
11960SOL    HW247940   8.362   4.114   7.062 -1.0940 -0.2597  2.6173
11961SOL     OW47941   4.225   0.699   6.043  0.0612  0.3571 -0.1115
11961SOL    HW147942   4.187   0.645   6.118  0.1093 -1.2336 -1.2339
11961SOL    HW247943   4.325   0.694   6.045  0.0245 -0.7226 -1.0529
11962SOL     OW47944   3.672   1.148   8.659 -0.6362 -0.6077  0.1578
11962SOL    HW147945   3.747   1.088   8.687 -2.1561 -2.6356  0.0890
11962SOL    HW247946   3.697   1.197   8.576  1.3963  0.3623  1.3172
11963SOL     OW47947   1.909   9.383   1.049  0.1293  0.6634  0.3766
11963SOL    HW147948   1.897   9.289   1.081 -1.3238  1.2674  1.6571
11963SOL    HW247949   2.001   9.415   1.073  0.3319 -0.1528  0.6819
11964SOL     OW47950   9.919   2.343   8.201 -0.2676 -0.1225  0.1748
11964SOL    HW147951   9.920   2.432   8.156 -0.6331 -0.0908  0.2287
11964SOL    HW247952   9.963   2.276   8.142  1.7535  0.4806  0.9531
11965SOL     OW47953   0.596   8.929   8.167 -0.5216 -0.0664  0.2062
11965SOL    HW147954   0.670   8.887   8.219 -1.3427  0.4159  1.8171
11965SOL    HW247955   0.547   8.994   8.225 -1.8381  0.0647 -1.0024
11966SOL     OW47956   1.006   5.966   8.272 -0.2290  0.2972 -0.1414
11966SOL    HW147957   0.909   5.960   8.294 -0.2167 -2.0542 -0.5647
11966SOL    HW247958   1.024   5.918   8.186  1.0975  1.8704 -0.7752
11967SOL     OW47959   9.873   1.302   6.466 -0.5014  0.3036  0.2913
11967SOL    HW147960   9.811   1.281   6.391  0.4557  0.2592 -0.4931
11967SOL    HW247961   9.946   1.362   6.433  0.8245 -1.0028  0.8064
11968SOL     OW47962   1.705   8.435   4.440 -0.4662 -0.0524  0.4349
11968SOL    HW147963   1.639   8.499   4.481 -0.3907 -0.6914  1.5638
11968SOL    HW247964   1.754   8.482   4.366  1.0298  1.8469  2.5820
11969SOL     OW47965   3.693   1.027   4.926 -0.1001 -0.5151  0.2552
11969SOL    HW147966   3.641   0.992   4.848  0.2687  0.0965 -0.2711
11969SOL    HW247967   3.650   0.997   5.011 -1.1747 -0.2149 -0.1744
11970SOL     OW47968   5.444   6.332   5.096  0.5190  0.0219 -0.7154
11970SOL    HW147969   5.379   6.394   5.052  0.2816  0.3766  0.1208
11970SOL    HW247970   5.532   6.337   5.049  0.9670  2.1578  0.2405
11971SOL     OW47971   2.716   8.485   6.443  0.3962  0.1362  0.0446
11971SOL    HW147972   2.815   8.471   6.436  0.3322 -0.2763 -0.0547
11971SOL    HW247973   2.695   8.582   6.428  0.7375  0.1395 -0.4568
11972SOL     OW47974   1.288   2.553   8.525 -0.3221 -0.1293 -0.2818
11972SOL    HW147975   1.325   2.546   8.432  1.5406 -1.7713  0.5516
11972SOL    HW247976   1.325   2.635   8.569 -0.7107  0.3074 -0.7523
11973SOL     OW47977   3.312   0.410   9.393  0.2094 -0.0251  0.1568
11973SOL    HW147978   3.359   0.452   9.315 -0.2991 -0.1396 -0.2179
11973SOL    HW247979   3.217   0.441   9.395 -0.7679 -2.7233 -1.3350
11974SOL     OW47980   1.820   6.267   1.024 -0.0717 -0.2159 -0.0653
11974SOL    HW147981   1.888   6.314   1.081  0.3142 -0.2061 -0.5314
11974SOL    HW247982   1.866   6.220   0.949 -0.5208 -0.7917  0.0189
11975SOL     OW47983   5.439   2.144   0.385 -0.4746  0.2712 -0.0557
11975SOL    HW147984   5.449   2.209   0.310 -0.3477  0.9905  0.5823
11975SOL    HW247985   5.354   2.092   0.373 -1.7331  2.1187  0.6256
11976SOL     OW47986   4.572   0.529   1.886  0.0153  0.0526 -0.2890
11976SOL    HW147987   4.575   0.442   1.935 -1.4884 -0.0412 -0.3377
11976SOL    HW247988   4.655   0.540   1.831  1.0382 -0.5191  1.1235
11977SOL     OW47989   0.707   1.210   7.672  0.6175 -0.7845 -0.0476
11977SOL    HW147990   0.746   1.121   7.650  0.6638 -0.8773  0.3976
11977SOL    HW247991   0.714   1.225   7.771 -2.9370 -2.0208  0.4814
11978SOL     OW47992   6.966   2.684   7.265 -0.4282  0.1222  0.2058
11978SOL    HW147993   6.986   2.768   7.214  0.4253 -0.0449  0.2670
11978SOL    HW247994   6.988   2.697   7.362 -0.7150 -0.0303  0.2932
11979SOL     OW47995   4.720   3.875   8.580 -0.1197 -0.1915  0.3828
11979SOL    HW147996   4.684   3.796   8.530 -1.0352 -1.4833  2.9992
11979SOL    HW247997   4.739   3.848   8.674 -0.3702  2.7030  1.2836
11980SOL     OW47998   8.459   0.510   5.944 -0.1018  0.2060 -0.2849
11980SOL    HW147999   8.493   0.603   5.960 -0.2403 -0.0028  1.2927
11980SOL    HW248000   8.361   0.513   5.927 -0.0882  0.3709 -0.3346
11981SOL     OW48001   2.025   4.370   4.173 -0.4119 -0.2274  0.2245
11981SOL    HW148002   1.928   4.376   4.150 -0.5914 -0.8249  0.7872
11981SOL    HW248003   2.073   4.450   4.138 -1.4633  1.0885  1.7136
11982SOL     OW48004   3.507   2.002   8.017 -0.3082  0.0420  0.5720
11982SOL    HW148005   3.456   2.022   8.101 -0.2508 -2.8212  1.3535
11982SOL    HW248006   3.454   1.937   7.962  0.1094  1.1484 -1.1556
11983SOL     OW48007   8.772   8.017   6.723  0.4483 -0.2846 -0.1202
11983SOL    HW148008   8.802   8.056   6.636 -1.7447  0.6680 -0.4698
11983SOL    HW248009   8.736   7.925   6.707  1.7750 -0.8470  0.0766
11984SOL     OW48010   2.289   5.556   9.716 -0.5009 -0.0865 -0.0092
11984SOL    HW148011   2.290   5.583   9.812 -0.3214  0.8301 -0.2632
11984SOL    HW248012   2.212   5.493   9.700 -0.7107 -0.0088  0.6661
11985SOL     OW48013   1.504   2.030   6.658  0.1806 -0.4413 -0.0908
11985SOL    HW148014   1.469   2.120   6.631  0.8283 -0.7382 -2.0559
11985SOL    HW248015   1.453   1.996   6.736 -1.7358  0.5607 -0.8709
11986SOL     OW48016   4.538   8.201   7.528 -0.2836  0.2836 -0.6159
11986SOL    HW148017   4.482   8.250   7.460 -1.1893 -0.3814 -0.3645
11986SOL    HW248018   4.571   8.115   7.487 -0.5340  0.0547 -0.3400
11987SOL     OW48019   3.401   1.807   7.823 -0.6121 -0.1541  0.1724
11987SOL    HW148020   3.355   1.834   7.739 -0.0593  0.1674 -0.0320
11987SOL    HW248021   3.465   1.733   7.804  0.2144  0.5653  0.1220
11988SOL     OW48022   4.526   4.388   5.894 -0.1042 -0.2500  0.2828
11988SOL    HW148023   4.587   4.425   5.824 -1.7255  0.7751 -0.6132
11988SOL    HW248024   4.525   4.288   5.889  0.4760 -0.2131 -0.5562
11989SOL     OW48025   2.189   2.806   4.748  0.6129 -0.1075  0.3172
11989SOL    HW148026   2.111   2.745   4.743 -0.2241  0.7471  2.1870
11989SOL    HW248027   2.205   2.849   4.659 -2.1011  0.9860  0.3254
11990SOL     OW48028   1.852   2.015   8.624 -0.6757 -0.3035 -0.0852
11990SOL    HW148029   1.886   2.105   8.597  0.1724 -0.2392  1.1281
11990SOL    HW248030   1.907   1.944   8.580 -0.5237 -0.2126 -0.0425
11991SOL     OW48031   9.479   8.415   9.899 -0.2788 -0.4955  0.0689
11991SOL    HW148032   9.460   8.504   9.858  3.8683  0.2774 -0.3808
11991SOL    HW248033   9.487   8.425   9.998  0.0112 -0.3717  0.0354
11992SOL     OW48034   8.666   0.485   5.215 -0.2846 -0.1499  0.1818
11992SOL    HW148035   8.677   0.502   5.117 -1.4621 -2.1460 -0.3294
11992SOL    HW248036   8.748   0.514   5.263  0.1864  1.1488 -1.3508
11993SOL     OW48037   4.107   3.150   9.751 -0.8830 -0.6967 -0.0713
11993SOL    HW148038   4.175   3.170   9.823 -1.3985 -0.3483  0.3234
11993SOL    HW248039   4.020   3.193   9.775 -0.2865  1.9466 -2.3229
11994SOL     OW48040   3.371   0.748   5.880 -0.0552  0.4347 -0.1225
11994SOL    HW148041   3.408   0.656   5.864  0.3391  0.8355 -1.6464
11994SOL    HW248042   3.369   0.767   5.978 -0.0450 -1.1580  0.1996
11995SOL     OW48043   3.811   1.297   3.665  0.5062 -0.1131 -0.0336
11995SOL    HW148044   3.767   1.375   3.620 -2.4909 -1.0036  1.2620
11995SOL    HW248045   3.843   1.232   3.596 -0.8461  0.2051 -0.9693
11996SOL     OW48046   8.643   9.398   5.457 -0.3642  0.1283 -0.3950
11996SOL    HW148047   8.545   9.412   5.462 -0.1320  2.2780 -1.4512
11996SOL    HW248048   8.685   9.425   5.543 -0.5053  1.0595 -0.6084
11997SOL     OW48049   3.146   1.176   2.376  0.1664 -0.5506  0.2829
11997SOL    HW148050   3.087   1.257   2.369  0.0870 -0.5907  0.4755
11997SOL    HW248051   3.232   1.193   2.327 -0.6917 -1.1207 -1.4668
11998SOL     OW48052   3.378   1.722   6.597  0.2212 -0.0607 -0.2022
11998SOL    HW148053   3.347   1.696   6.688  2.1225  1.4014  0.9182
11998SOL    HW248054   3.422   1.645   6.553  1.6380 -0.0739  1.1969
11999SOL     OW48055   2.932   7.977   9.248 -0.6190 -0.2195 -0.4135
11999SOL    HW148056   2.967   7.883   9.245  1.6874  0.5248  1.1174
11999SOL    HW248057   2.921   8.005   9.344  0.1393  1.5569 -0.8249
12000SOL     OW48058   8.644   7.780   9.412  0.2084 -0.0838 -0.0966
12000SOL    HW148059   8.549   7.808   9.426  0.8950  1.0414  2.6519
12000SOL    HW248060   8.683   7.750   9.499  3.4703  2.9389 -0.4127
12001SOL     OW48061   0.404   6.366   2.740 -0.2773 -0.2002 -0.1257
12001SOL    HW148062   0.309   6.373   2.710 -0.6919 -0.4505  1.0747
12001SOL    HW248063   0.452   6.450   2.716 -0.5252 -0.4710 -1.6329
12002SOL     OW48064   3.726   4.652   2.061 -0.1823  0.1994 -0.0259
12002SOL    HW148065   3.763   4.568   2.022 -0.1704  0.5823 -0.8311
12002SOL    HW248066   3.643   4.678   2.012 -1.2849 -0.4053  1.4776
12003SOL     OW48067   4.504   2.586   0.273 -0.0386 -0.2932 -0.2459
12003SOL    HW148068   4.412   2.587   0.312  0.7773 -2.0929  1.8661
12003SOL    HW248069   4.505   2.529   0.190 -1.6823  3.1611 -2.7615
12004SOL     OW48070   5.103   6.817   9.533 -0.2951  0.1059  0.0854
12004SOL    HW148071   5.082   6.900   9.585  1.7115  0.8632 -0.2792
12004SOL    HW248072   5.032   6.749   9.550 -0.5634  0.9280  2.5182
12005SOL     OW48073   0.931   1.238   9.610  0.8131  0.1658  0.6751
12005SOL    HW148074   1.021   1.197   9.592  0.9425 -0.2217  2.1210
12005SOL    HW248075   0.860   1.176   9.577  1.0634  0.4559 -0.4412
12006SOL     OW48076   5.012   2.711   1.971  0.3064  0.2099 -0.1008
12006SOL    HW148077   4.954   2.631   1.964  1.0070 -0.1403 -2.3656
12006SOL    HW248078   5.035   2.744   1.879  1.1592  2.1690  0.7786
12007SOL     OW48079   5.371   9.487   2.767  0.2315 -0.4566 -0.3182
12007SOL    HW148080   5.326   9.479   2.677  2.0008 -0.3832 -1.2270
12007SOL    HW248081   5.351   9.576   2.806  0.5291  0.0166 -1.2338
12008SOL     OW48082   6.373   1.073   2.677  0.0396  0.5017 -0.0502
12008SOL    HW148083   6.415   0.984   2.656 -3.8921 -1.0478 -1.8699
12008SOL    HW248084   6.396   1.138   2.605  2.0669  0.7192  0.7454
12009SOL     OW48085   8.319   9.463   5.141  0.2123 -0.0251 -0.4682
12009SOL    HW148086   8.398   9.501   5.190  1.0796 -1.0195 -1.0729
12009SOL    HW248087   8.345   9.375   5.100 -1.8099 -1.4116  1.1128
12010SOL     OW48088   3.481   1.409   5.612  0.2378  0.1251 -0.7058
12010SOL    HW148089   3.451   1.478   5.678 -0.3466 -0.1110 -0.7237
12010SOL    HW248090   3.450   1.319   5.643  1.5107 -0.2087 -0.3659
12011SOL     OW48091   7.524   8.601   1.164 -0.5103  0.0202 -0.6049
12011SOL    HW148092   7.462   8.549   1.222 -0.7226  0.3327 -0.5509
12011SOL    HW248093   7.472   8.669   1.111 -0.1289  0.8200  0.0247
12012SOL     OW48094   5.228   7.320   0.996  0.3656  0.2009 -0.2969
12012SOL    HW148095   5.243   7.392   1.064  0.9954 -1.6274  1.5685
12012SOL    HW248096   5.280   7.239   1.022  0.3837 -0.6438 -2.8403
12013SOL     OW48097   7.889   3.815   0.035 -0.0285 -0.7589 -0.1567
12013SOL    HW148098   7.915   3.912   0.038 -1.1216 -0.4386 -0.9418
12013SOL    HW248099   7.966   3.760   0.067  0.7277  0.3455 -0.0228
12014SOL     OW48100   1.230   4.948   0.748 -0.4529  0.2496  0.0779
12014SOL    HW148101   1.280   4.978   0.667  0.4178  1.7613  1.1517
12014SOL    HW248102   1.251   4.852   0.766  1.2114  0.5481 -0.1441
12015SOL     OW48103   2.083   0.249   4.997 -0.5600 -0.4526  0.4448
12015SOL    HW148104   2.121   0.216   5.083  1.3451 -1.7895 -0.8645
12015SOL    HW248105   2.028   0.177   4.955 -1.0019 -0.0110  0.2608
12016SOL     OW48106   5.654   3.643   0.250 -0.3627 -0.1783 -0.0112
12016SOL    HW148107   5.620   3.705   0.179  1.3579  1.6364  0.7226
12016SOL    HW248108   5.691   3.696   0.326 -0.2757 -2.1168  1.3265
12017SOL     OW48109   5.751   9.889   6.121  0.0714 -0.0489  0.4076
12017SOL    HW148110   5.680   9.862   6.057  0.4281 -0.2918  0.1092
12017SOL    HW248111   5.725   9.862   6.214  0.0223 -0.6095  0.2275
12018SOL     OW48112   9.252   2.332   0.870 -0.1976  0.7275 -0.8230
12018SOL    HW148113   9.177   2.266   0.862 -0.0212  0.4542 -0.2785
12018SOL    HW248114   9.247   2.377   0.960  0.0721  0.9801 -0.9313
12019SOL     OW48115   1.241   5.913   6.840  0.4722  0.0127  0.4041
12019SOL    HW148116   1.246   5.813   6.837 -1.3119 -0.0827 -0.0165
12019SOL    HW248117   1.157   5.943   6.795  1.1576  1.7271  0.2547
12020SOL     OW48118   9.131   0.784   8.190  0.2920 -0.5619 -0.1958
12020SOL    HW148119   9.224   0.762   8.162  0.4821  2.3020 -1.9519
12020SOL    HW248120   9.132   0.867   8.247 -1.2829  0.0768 -1.0730
12021SOL     OW48121   1.939   8.318   8.253 -0.0635 -0.0672 -0.5088
12021SOL    HW148122   1.879   8.276   8.321 -0.1644 -2.5322 -2.0717
12021SOL    HW248123   1.884   8.376   8.193 -0.3764  0.0959 -0.0744
12022SOL     OW48124   9.991   8.746   8.655  0.7031  0.3137 -0.5877
12022SOL    HW148125   9.922   8.751   8.583 -0.2187  1.0817  0.3326
12022SOL    HW248126   9.986   8.828   8.712  0.5048 -0.9085  1.1827
12023SOL     OW48127   4.967   2.016   8.727 -0.3201  0.3008 -0.3313
12023SOL    HW148128   4.994   1.956   8.802 -0.3416  0.8651  0.1379
12023SOL    HW248129   4.984   2.111   8.754  1.3179  0.4130 -1.7168
12024SOL     OW48130   4.471   3.003   8.378  0.4321 -0.1146 -1.1928
12024SOL    HW148131   4.549   2.969   8.430  0.8846 -0.1253 -1.8664
12024SOL    HW248132   4.389   2.952   8.402  1.2180 -2.0886 -2.6176
12025SOL     OW48133   2.164   2.070   0.480  0.0815 -0.6744 -0.4888
12025SOL    HW148134   2.204   1.993   0.431  0.4114 -1.2128  0.6072
12025SOL    HW248135   2.136   2.040   0.572 -1.1016  0.1579 -0.5709
12026SOL     OW48136   3.848   3.700   5.042 -0.0172  0.3529 -0.0883
12026SOL    HW148137   3.780   3.680   4.971  0.8932  1.5177 -1.3098
12026SOL    HW248138   3.869   3.798   5.041  0.8752  0.1796  1.0167
12027SOL     OW48139   3.792   2.893   0.682 -0.1351 -0.5827 -0.0594
12027SOL    HW148140   3.860   2.851   0.742  0.2760  1.2083  0.7431
12027SOL    HW248141   3.710   2.914   0.734 -1.4218 -2.8611 -1.0538
12028SOL     OW48142   6.654   4.554   9.910 -0.5305 -0.2526 -0.4244
12028SOL    HW148143   6.610   4.619   9.972 -0.2761 -1.3796  0.9571
12028SOL    HW248144   6.704   4.605   9.839 -0.8785  1.0460  0.2439
12029SOL     OW48145   1.082   5.838   9.002 -0.6243  0.0314  0.6956
12029SOL    HW148146   1.058   5.933   8.978  1.8760  0.7913  1.0919
12029SOL    HW248147   1.179   5.822   8.983 -0.5197 -1.8267  2.6279
12030SOL     OW48148   9.846   1.996   2.672 -0.2233 -0.0822  0.0391
12030SOL    HW148149   9.766   1.949   2.711 -0.4583  0.4844  0.2469
12030SOL    HW248150   9.877   1.946   2.591 -0.9485 -0.1631 -0.1958
12031SOL     OW48151   1.964   0.512   4.872  0.6359  0.3049 -0.1167
12031SOL    HW148152   1.973   0.475   4.780 -1.2326 -0.0769 -0.1749
12031SOL    HW248153   1.992   0.442   4.938  0.4206 -0.0033 -0.3470
12032SOL     OW48154   2.812   0.648   5.192 -0.1453 -0.1675 -0.0770
12032SOL    HW148155   2.901   0.672   5.153 -0.7341  0.0636 -1.3232
12032SOL    HW248156   2.783   0.559   5.157 -0.9823  0.3448 -0.7088
12033SOL     OW48157   1.747   8.165   1.352  0.3211  0.4249  0.3830
12033SOL    HW148158   1.714   8.135   1.441 -2.0760  1.3732 -0.1493
12033SOL    HW248159   1.742   8.264   1.345  0.8599  0.3913 -0.6543
12034SOL     OW48160   7.626   8.682   7.422 -0.2719 -0.1486 -0.1697
12034SOL    HW148161   7.650   8.612   7.489 -0.7896 -0.0890  0.0771
12034SOL    HW248162   7.534   8.717   7.441  0.1720  0.9473  0.0017
12035SOL     OW48163   5.019   8.008   5.630  0.5723 -0.1984  0.9338
12035SOL    HW148164   5.075   7.989   5.550 -1.3485 -0.4801 -0.3751
12035SOL    HW248165   4.930   8.042   5.602 -0.7002 -1.7515  2.8788
12036SOL     OW48166   6.341   0.419   9.268  0.2739 -0.2415  0.6021
12036SOL    HW148167   6.253   0.382   9.239 -0.0249 -0.0661  1.2745
12036SOL    HW248168   6.411   0.395   9.201 -0.5451  0.8625 -0.6683
12037SOL     OW48169   2.544   1.108   1.800 -0.4487  0.1341  0.3416
12037SOL    HW148170   2.552   1.146   1.708 -1.4648  0.2638  0.2977
12037SOL    HW248171   2.479   1.163   1.853  0.0681  0.0104  1.1136
12038SOL     OW48172   2.958   0.269   9.543 -0.1658  0.1698  0.2030
12038SOL    HW148173   2.991   0.363   9.556 -0.2076  0.1345  0.5726
12038SOL    HW248174   2.956   0.222   9.631 -0.7419  0.0182  0.1150
12039SOL     OW48175   4.568   5.203   9.506 -0.1576 -0.1436 -0.0943
12039SOL    HW148176   4.571   5.155   9.593 -0.8345 -0.4687 -0.2406
12039SOL    HW248177   4.645   5.266   9.499  2.7668 -3.7235 -1.3506
12040SOL     OW48178   1.456   2.187   8.647 -0.1543 -0.5200 -0.0783
12040SOL    HW148179   1.376   2.190   8.707  0.4582 -0.1739  0.7379
12040SOL    HW248180   1.495   2.095   8.649 -0.5716 -0.7066 -0.5296
12041SOL     OW48181   1.796   1.609   8.986 -0.6784  0.6148  0.0883
12041SOL    HW148182   1.802   1.661   8.901 -1.8473 -2.7897 -2.1507
12041SOL    HW248183   1.709   1.560   8.989  1.0147 -2.4178  1.4194
12042SOL     OW48184   1.300   7.083   7.836 -0.6842 -0.1085  0.3490
12042SOL    HW148185   1.331   7.045   7.923  0.6245  0.6411  0.2133
12042SOL    HW248186   1.367   7.061   7.765  0.0531  2.3670  0.2474
12043SOL     OW48187   2.361   4.195   8.443  0.5701  0.2139  0.0950
12043SOL    HW148188   2.309   4.264   8.392  0.3189  0.4991  0.7419
12043SOL    HW248189   2.440   4.165   8.388  0.6140  0.9312 -0.2280
12044SOL     OW48190   0.666   7.179   2.791 -0.0911  0.1580  0.2667
12044SOL    HW148191   0.718   7.146   2.711  0.4324  2.4412 -0.3656
12044SOL    HW248192   0.577   7.212   2.761  0.0522  0.8955  0.6565
12045SOL     OW48193   7.003   9.626   1.204 -0.0316  0.2784  0.0524
12045SOL    HW148194   6.976   9.640   1.108  0.1208 -1.9674 -0.3632
12045SOL    HW248195   7.103   9.628   1.211 -0.0347  0.2043  0.1215
12046SOL     OW48196   0.380   7.687   9.663 -0.4460 -0.2804 -0.2888
12046SOL    HW148197   0.387   7.648   9.754 -0.5177  3.3043  1.3510
12046SOL    HW248198   0.445   7.642   9.602 -0.8178 -3.1206  1.3534
12047SOL     OW48199   7.563   2.339   8.724 -0.3949  0.4361  0.2746
12047SOL    HW148200   7.480   2.288   8.745 -0.3212 -0.3586 -1.2636
12047SOL    HW248201   7.643   2.288   8.754 -0.4507  1.1868  1.7275
12048SOL     OW48202   2.225   6.293   9.739 -0.5975 -0.1203 -0.4384
12048SOL    HW148203   2.246   6.305   9.836 -2.3014 -1.5048  0.1295
12048SOL    HW248204   2.197   6.380   9.699 -0.4368  0.3393  0.4497
12049SOL     OW48205   5.288   4.091   2.050 -0.1438  0.1172  0.2118
12049SOL    HW148206   5.308   4.084   1.953  1.0169  0.9323  0.3843
12049SOL    HW248207   5.209   4.034   2.072 -0.0276 -0.5601 -1.0890
12050SOL     OW48208   2.856   7.436   2.915  0.3395 -0.2088  0.0931
12050SOL    HW148209   2.803   7.372   2.859  0.3709 -1.4719  1.4709
12050SOL    HW248210   2.807   7.523   2.921  0.1789 -0.1696 -1.6059
12051SOL     OW48211   2.421   8.355   0.239  0.3578  0.1426 -0.5776
12051SOL    HW148212   2.492   8.410   0.196  0.9582 -0.6736 -0.6442
12051SOL    HW248213   2.380   8.406   0.314  1.0512  0.6018 -0.5071
12052SOL     OW48214   3.892   6.826   3.646 -0.4526 -0.1519 -0.1917
12052SOL    HW148215   3.836   6.750   3.614  1.1869 -0.9586 -1.1964
12052SOL    HW248216   3.931   6.803   3.735 -1.5656  0.3503  0.4399
12053SOL     OW48217   2.122   6.685   7.149  0.0715  0.1943  0.5565
12053SOL    HW148218   2.205   6.739   7.161 -0.1869  0.5712  0.6646
12053SOL    HW248219   2.143   6.603   7.096  0.0389  1.5204 -1.5837
12054SOL     OW48220   4.518   4.041   6.530 -0.8035 -0.4727 -0.0485
12054SOL    HW148221   4.463   4.092   6.464  0.0218  0.9564  0.3373
12054SOL    HW248222   4.488   4.064   6.623  0.3074  0.1884  0.1595
12055SOL     OW48223   4.844   0.616   9.095 -0.1088  0.0648  0.2732
12055SOL    HW148224   4.895   0.531   9.080  0.7900  1.0219 -2.3083
12055SOL    HW248225   4.907   0.688   9.122 -0.1715  1.0611 -2.1592
12056SOL     OW48226   4.240   2.799   7.245 -0.5278  0.7317  0.2416
12056SOL    HW148227   4.233   2.788   7.344 -1.2161 -1.5875 -0.0297
12056SOL    HW248228   4.149   2.818   7.208 -0.4532  0.4940 -0.0627
12057SOL     OW48229   2.440   3.147   9.425  0.3628  0.0144  0.3196
12057SOL    HW148230   2.439   3.186   9.517 -0.7238 -0.9726  0.7381
12057SOL    HW248231   2.439   3.220   9.358 -2.7636  0.7334  1.0884
12058SOL     OW48232   3.541   6.591   3.825  0.4386 -0.0264  0.3956
12058SOL    HW148233   3.480   6.664   3.858 -0.6850 -1.2951  1.1712
12058SOL    HW248234   3.489   6.506   3.817  1.8062 -0.7969 -0.2566
12059SOL     OW48235   1.567   7.900   6.883 -0.2862 -0.4754  0.2317
12059SOL    HW148236   1.525   7.888   6.973 -1.2038 -1.4440 -0.3096
12059SOL    HW248237   1.662   7.869   6.886  0.0329  0.5927  1.1641
12060SOL     OW48238   0.825   8.909   9.192  0.6142  0.0978  0.0562
12060SOL    HW148239   0.890   8.834   9.205  0.4969  0.4083  2.6444
12060SOL    HW248240   0.760   8.884   9.120  2.7294 -0.7806 -1.5934
12061SOL     OW48241   4.757   9.126   8.205  0.0955 -0.1086 -0.1211
12061SOL    HW148242   4.848   9.146   8.168  0.6546 -0.6619  0.9385
12061SOL    HW248243   4.762   9.045   8.264 -1.0078  0.0913  0.2509
12062SOL     OW48244   1.689   9.100   0.360  0.8822  0.2355 -0.1902
12062SOL    HW148245   1.755   9.027   0.342  1.1826  0.7906 -1.4082
12062SOL    HW248246   1.684   9.161   0.280 -2.0468 -0.5131 -0.6540
12063SOL     OW48247   4.205   6.526   6.806  0.0177 -0.5165 -1.1435
12063SOL    HW148248   4.276   6.511   6.874  0.1296 -0.8230 -1.3250
12063SOL    HW248249   4.115   6.520   6.849  0.1280  1.8069 -0.5267
12064SOL     OW48250   3.235   4.138   0.026  0.4241  0.2559  0.4637
12064SOL    HW148251   3.248   4.099  -0.065  1.5430  0.2869  0.6025
12064SOL    HW248252   3.216   4.236   0.017  1.0882  0.3730  0.2852
12065SOL     OW48253   2.657   9.711   1.268  0.1807  0.0519  0.7049
12065SOL    HW148254   2.631   9.619   1.240  0.3640 -0.3887  1.9760
12065SOL    HW248255   2.753   9.727   1.245  0.0519  0.0447  0.1694
12066SOL     OW48256   6.040   2.576   9.058 -0.4550 -0.0279 -0.1050
12066SOL    HW148257   6.062   2.553   9.153 -0.2978  1.7786  0.3049
12066SOL    HW248258   6.050   2.494   9.002  2.1678 -0.5136  0.9654
12067SOL     OW48259   0.542   1.123   5.116  0.2137 -0.4030 -0.4189
12067SOL    HW148260   0.599   1.181   5.174  0.4679 -1.6868  0.6412
12067SOL    HW248261   0.491   1.058   5.173  1.8604 -2.9130 -1.7312
12068SOL     OW48262   9.751   2.452   3.267  0.3023 -0.7387 -0.0551
12068SOL    HW148263   9.851   2.440   3.272  0.7118  2.2489  0.2006
12068SOL    HW248264   9.723   2.454   3.171  0.9020  1.1081 -0.2126
12069SOL     OW48265   1.571   0.587   2.210 -0.2911  0.0635 -0.5337
12069SOL    HW148266   1.502   0.631   2.268 -0.6510 -1.8197  0.5259
12069SOL    HW248267   1.526   0.531   2.141  0.1534 -0.1242 -0.6720
12070SOL     OW48268   4.858   9.559   8.815 -0.1578 -0.0624  0.2159
12070SOL    HW148269   4.913   9.479   8.793 -0.8379  0.0297 -1.8684
12070SOL    HW248270   4.772   9.531   8.858  0.4939 -0.3179  1.3861
12071SOL     OW48271   3.872   1.339   3.385 -0.3439 -0.1246 -0.1672
12071SOL    HW148272   3.880   1.242   3.363  0.5660 -0.1769  0.3941
12071SOL    HW248273   3.963   1.377   3.404 -0.9376  0.2752  1.9905
12072SOL     OW48274   3.190   9.314   6.778  0.6700 -0.1324  0.5755
12072SOL    HW148275   3.170   9.278   6.687 -0.6408  0.1987  0.7112
12072SOL    HW248276   3.161   9.248   6.847  1.1081 -0.1287  0.7623
12073SOL     OW48277   2.614   3.589   0.089  0.2812 -0.0765  0.3960
12073SOL    HW148278   2.697   3.533   0.098  0.6238  0.7172  2.3681
12073SOL    HW248279   2.634   3.682   0.120 -0.8093  0.6530 -1.0558
12074SOL     OW48280   7.906   4.772   2.526 -0.3222  0.4985  0.2884
12074SOL    HW148281   7.880   4.858   2.571  0.0257  0.9865 -0.4288
12074SOL    HW248282   7.824   4.723   2.497 -0.5396  0.3337  1.1729
12075SOL     OW48283   4.581   1.658   9.369 -0.5812  0.5662 -0.3180
12075SOL    HW148284   4.606   1.574   9.418  1.2042  1.5235  0.4456
12075SOL    HW248285   4.540   1.634   9.281  1.4008 -1.1183 -0.8282
12076SOL     OW48286   4.131   5.368   9.840 -0.4284  0.0257 -0.2278
12076SOL    HW148287   4.067   5.431   9.798  0.5211  1.1083 -0.0690
12076SOL    HW248288   4.192   5.418   9.902 -0.3518 -1.1976  0.7208
12077SOL     OW48289   6.422   3.563   1.040  0.4271 -0.1993  0.3926
12077SOL    HW148290   6.431   3.539   1.136  1.6630 -5.2770 -0.8413
12077SOL    HW248291   6.346   3.512   1.000  0.9173  0.6322 -1.6530
12078SOL     OW48292   1.474   6.918   8.360  0.0289 -0.1169 -0.1449
12078SOL    HW148293   1.403   6.902   8.428 -0.3977 -0.4254 -0.6615
12078SOL    HW248294   1.488   7.016   8.348 -0.9177 -0.0473 -0.6800
12079SOL     OW48295   0.051   0.872   1.163  0.2513 -0.7963  0.0442
12079SOL    HW148296   0.090   0.957   1.198  3.5621 -2.1537 -0.1150
12079SOL    HW248297  -0.019   0.893   1.095 -1.1616  1.7856  2.1598
12080SOL     OW48298   6.978   7.378   7.675 -0.0350  0.0632  0.2039
12080SOL    HW148299   6.963   7.280   7.681  1.4117 -0.0934  1.5775
12080SOL    HW248300   7.070   7.400   7.708  0.7029  1.5641 -2.6918
12081SOL     OW48301   7.402   1.424   9.020  0.3397 -0.1364  0.2028
12081SOL    HW148302   7.482   1.364   9.012  0.8760  0.6053 -0.1132
12081SOL    HW248303   7.427   1.506   9.071  0.4102  1.1642 -1.8590
12082SOL     OW48304   9.589   3.848   2.190  0.4035 -0.5135 -0.2652
12082SOL    HW148305   9.506   3.902   2.206  1.0213 -0.1193  1.7789
12082SOL    HW248306   9.593   3.821   2.094 -1.7385  0.0435 -0.5418
12083SOL     OW48307   4.505   6.070   8.122 -0.2991 -0.1905 -0.4576
12083SOL    HW148308   4.448   6.135   8.173  0.5570  0.0950  0.1479
12083SOL    HW248309   4.557   6.014   8.187  0.7849  0.1681 -1.0188
12084SOL     OW48310   9.657   2.806   1.538  0.6438  0.1642 -0.2429
12084SOL    HW148311   9.624   2.838   1.449  2.6424  1.0511 -0.6826
12084SOL    HW248312   9.657   2.706   1.539  0.2409  0.1527 -1.1038
12085SOL     OW48313   6.891   4.750   3.039  0.1477  0.4590  0.4422
12085SOL    HW148314   6.867   4.747   2.943  0.0549  1.8032  0.4140
12085SOL    HW248315   6.840   4.823   3.084 -1.6120 -1.6914  2.0279
12086SOL     OW48316   5.039   1.074   2.569  0.0371  0.1330  0.0235
12086SOL    HW148317   4.941   1.053   2.567  0.1626 -0.4356 -0.4309
12086SOL    HW248318   5.077   1.062   2.477  0.7134 -0.5467  0.3803
12087SOL     OW48319   7.368   3.097   7.277 -0.7042  0.1185  0.0878
12087SOL    HW148320   7.315   3.179   7.257 -1.7559 -0.2521  1.3027
12087SOL    HW248321   7.309   3.017   7.272  0.1491 -0.4899 -0.3553
12088SOL     OW48322   5.010   3.249   0.408  0.2070 -0.8412 -0.2745
12088SOL    HW148323   4.937   3.272   0.472  1.0106 -0.9174  0.6646
12088SOL    HW248324   5.072   3.327   0.399 -0.8404 -0.1900 -2.2722
12089SOL     OW48325   7.552   3.548   0.063 -0.0306 -0.1978 -0.4090
12089SOL    HW148326   7.512   3.498  -0.014 -3.5937  0.2624  1.0649
12089SOL    HW248327   7.559   3.645   0.041  0.2687 -0.2719 -0.6474
12090SOL     OW48328   1.801   3.104   9.752  0.1794 -0.0985 -0.1600
12090SOL    HW148329   1.759   3.119   9.663  0.9086  0.6190 -0.3859
12090SOL    HW248330   1.751   3.155   9.822  2.7164  3.5842 -0.9354
12091SOL     OW48331   0.832   4.265   3.230 -0.2203 -0.1373 -0.4532
12091SOL    HW148332   0.832   4.165   3.226  0.0494 -0.1102 -1.1863
12091SOL    HW248333   0.846   4.294   3.325 -0.2738 -0.7928 -0.2386
12092SOL     OW48334   4.299   3.949   9.040 -0.0158  0.9280 -0.0829
12092SOL    HW148335   4.395   3.950   9.067  0.1229 -0.3035 -0.4794
12092SOL    HW248336   4.273   3.855   9.016 -0.7364  1.5948 -2.0238
12093SOL     OW48337   1.968   7.291   0.987 -0.2364  0.6076  0.4295
12093SOL    HW148338   1.962   7.293   1.087 -1.7596 -0.2189  0.3634
12093SOL    HW248339   2.042   7.230   0.959  1.9571  2.8689  1.0779
12094SOL     OW48340   8.717   1.770   0.396  0.0901 -0.1499  0.3207
12094SOL    HW148341   8.694   1.843   0.332 -0.5052 -1.2621 -0.7412
12094SOL    HW248342   8.658   1.777   0.476 -0.1509  0.3678  0.1034
12095SOL     OW48343   8.631   3.946   0.640  0.3002 -0.5178  0.0064
12095SOL    HW148344   8.726   3.977   0.645  0.2525 -0.2268 -0.7636
12095SOL    HW248345   8.619   3.891   0.558 -0.5386  0.6732 -0.6838
12096SOL     OW48346   1.258   1.121   1.796 -0.8465 -0.1456  0.3618
12096SOL    HW148347   1.177   1.148   1.847 -1.3047  1.1821 -1.0321
12096SOL    HW248348   1.233   1.054   1.727 -0.4484 -0.9899  1.0236
12097SOL     OW48349   6.181   3.314   8.139 -0.5107 -0.3394 -0.1262
12097SOL    HW148350   6.247   3.242   8.162 -1.1623 -0.5646  1.0846
12097SOL    HW248351   6.089   3.284   8.165 -1.0203  0.2141 -1.2576
12098SOL     OW48352   5.647   1.072   2.432 -0.4190  0.2476  0.1071
12098SOL    HW148353   5.718   1.064   2.502 -0.3662 -0.1808  0.0016
12098SOL    HW248354   5.564   1.026   2.464 -0.3905  0.0402 -0.1202
12099SOL     OW48355   4.641   4.234   0.964 -0.5516  0.3412  0.3860
12099SOL    HW148356   4.654   4.200   1.057 -0.7235  0.4958  0.4676
12099SOL    HW248357   4.730   4.241   0.918 -0.6182 -1.3036 -0.0209
12100SOL     OW48358   1.088   0.339   6.471  0.3087  0.0064 -0.1023
12100SOL    HW148359   0.999   0.351   6.427  0.2683 -3.1295 -0.9607
12100SOL    HW248360   1.075   0.305   6.564  0.5626  2.0172  0.6947
12101SOL     OW48361   7.988   3.371   8.821 -0.5755  0.1191 -0.5118
12101SOL    HW148362   7.950   3.461   8.841 -1.1426  0.3685 -2.6086
12101SOL    HW248363   7.914   3.307   8.803 -0.1518 -0.6278  0.3807
12102SOL     OW48364   0.069   0.739   2.006  0.6281 -0.1294 -0.0138
12102SOL    HW148365   0.032   0.654   1.967  1.5550 -0.5191 -0.0515
12102SOL    HW248366  -0.005   0.790   2.049 -0.2339 -0.2062 -1.3513
12103SOL     OW48367   2.024   1.486   8.313 -0.1129 -0.5362  0.4843
12103SOL    HW148368   1.991   1.509   8.404  0.1855  3.3008 -0.2867
12103SOL    HW248369   2.122   1.463   8.317  0.1886  0.8193  0.9650
12104SOL     OW48370   3.678   4.430   0.780  0.5518 -0.5676  0.5546
12104SOL    HW148371   3.677   4.373   0.862 -3.9332  1.2671  1.9491
12104SOL    HW248372   3.626   4.384   0.707  0.4336 -0.0836  0.3341
12105SOL     OW48373   6.557   2.474   7.146  0.5597  0.5617  0.1414
12105SOL    HW148374   6.638   2.420   7.170 -0.4491 -0.7716  0.5995
12105SOL    HW248375   6.489   2.468   7.219 -1.4473 -1.3353 -1.8056
12106SOL     OW48376   2.243   2.348   0.548  0.0655 -0.1130 -0.8104
12106SOL    HW148377   2.206   2.384   0.634  0.5971 -1.2066 -0.1065
12106SOL    HW248378   2.206   2.257   0.531  0.1212  0.0165 -1.6472
12107SOL     OW48379   1.187   5.108   8.967 -0.6531  0.2672  0.4010
12107SOL    HW148380   1.158   5.017   8.937  1.6616 -0.6237  0.7434
12107SOL    HW248381   1.141   5.132   9.052 -1.2802 -0.5687  0.3076
12108SOL     OW48382   3.959   2.854   8.870  0.2257  0.4316 -0.1952
12108SOL    HW148383   3.989   2.868   8.775 -1.1728  1.3627 -0.5259
12108SOL    HW248384   3.888   2.783   8.872  0.3320  0.3364  0.1636
12109SOL     OW48385   8.844   7.821   3.658  0.1387  0.0405 -0.1784
12109SOL    HW148386   8.925   7.848   3.710 -0.6486 -1.7980  2.0520
12109SOL    HW248387   8.853   7.725   3.630 -0.7842  0.1566 -0.8766
12110SOL     OW48388   3.471   2.352   8.271 -0.2718  0.4854  0.6101
12110SOL    HW148389   3.382   2.313   8.248 -1.3834  4.0746 -1.7667
12110SOL    HW248390   3.535   2.336   8.196  0.3846 -0.0838  1.2916
12111SOL     OW48391   0.579   4.281   9.310  0.0540  0.2145  0.3001
12111SOL    HW148392   0.674   4.292   9.339  0.8324 -0.5562 -1.8230
12111SOL    HW248393   0.550   4.187   9.328  0.1293  0.0893 -0.2111
12112SOL     OW48394   6.432   1.614   3.501 -0.3890  0.3789 -0.0034
12112SOL    HW148395   6.528   1.588   3.496  0.1069  2.2400 -0.6760
12112SOL    HW248396   6.424   1.702   3.549 -1.7030  0.5154 -0.4480
12113SOL     OW48397   5.011   4.934   1.050  0.6808 -0.2013  0.0346
12113SOL    HW148398   5.104   4.958   1.021 -0.5981  3.2769 -1.5078
12113SOL    HW248399   4.948   4.948   0.974 -1.4317 -0.3184  1.7244
12114SOL     OW48400   5.071   3.343   3.585  0.2301  0.0873  0.0358
12114SOL    HW148401   5.010   3.421   3.600  0.0040 -0.3380  1.4045
12114SOL    HW248402   5.041   3.266   3.642  0.5851 -0.9343 -1.1331
12115SOL     OW48403   0.503   6.754   5.853  0.2278  0.0750 -0.0360
12115SOL    HW148404   0.424   6.780   5.798  0.3381  1.9866  0.6921
12115SOL    HW248405   0.477   6.745   5.949  0.8356  0.4184  0.1637
12116SOL     OW48406   1.714   2.663   2.006 -0.2647 -0.2735  0.0346
12116SOL    HW148407   1.665   2.744   2.038 -1.2971 -1.6070  1.9223
12116SOL    HW248408   1.801   2.655   2.054 -0.3772 -0.5558  0.1886
12117SOL     OW48409   7.521   6.979   8.123  0.2536 -0.6625  0.0121
12117SOL    HW148410   7.449   6.954   8.058 -1.0502  1.0882  0.7027
12117SOL    HW248411   7.546   7.075   8.109 -1.0463  0.1607  2.9548
12118SOL     OW48412   1.198   2.282   8.539  0.3754 -0.2796  0.0964
12118SOL    HW148413   1.223   2.379   8.544 -1.4202  0.2013  0.0560
12118SOL    HW248414   1.222   2.237   8.625  1.4210  0.1437  0.0354
12119SOL     OW48415   1.203   5.246   1.116  0.2315  0.2969 -0.2516
12119SOL    HW148416   1.223   5.224   1.212  0.2071 -0.9903 -0.5326
12119SOL    HW248417   1.105   5.234   1.099  0.1466  1.0430 -0.3114
12120SOL     OW48418   3.502   0.380   5.360  0.8291 -0.5364 -0.1985
12120SOL    HW148419   3.599   0.391   5.378  0.7757 -0.8840  0.3013
12120SOL    HW248420   3.451   0.455   5.404  1.1224  1.2389 -2.8190
12121SOL     OW48421   4.106   4.712   1.597 -0.1968 -0.0514  0.4179
12121SOL    HW148422   4.151   4.697   1.509 -0.5444 -0.2453  0.2747
12121SOL    HW248423   4.176   4.720   1.669  0.1049  0.6240  0.0532
12122SOL     OW48424   1.258   9.759   6.082 -0.1933 -0.2009 -0.2655
12122SOL    HW148425   1.214   9.848   6.072  1.8316  0.8260 -0.4094
12122SOL    HW248426   1.255   9.709   5.995 -1.5653 -0.3929 -0.1127
12123SOL     OW48427   6.427   0.381   9.723  0.2358 -0.1414 -0.4266
12123SOL    HW148428   6.380   0.341   9.801 -1.4491  0.5939 -1.0476
12123SOL    HW248429   6.520   0.409   9.750  0.0189 -0.8216  1.0292
12124SOL     OW48430   0.272   2.924   7.746 -0.3526  0.1070 -0.1639
12124SOL    HW148431   0.263   2.851   7.815  0.2594 -1.5965 -1.8422
12124SOL    HW248432   0.227   3.007   7.779 -0.9008 -0.9619  1.8705
12125SOL     OW48433   3.318   4.826   1.243 -0.1477  0.0863 -0.2938
12125SOL    HW148434   3.366   4.874   1.317  0.1154  0.1946 -0.5378
12125SOL    HW248435   3.382   4.766   1.195 -0.2051  0.4087 -0.7694
12126SOL     OW48436   8.899   4.992   3.226  0.2318 -0.1863  0.2589
12126SOL    HW148437   8.939   4.945   3.305 -0.2263 -1.0863 -0.0354
12126SOL    HW248438   8.970   5.011   3.159  0.6211  0.5618  0.8750
12127SOL     OW48439   1.215   3.839   1.201 -0.1726  0.5889 -0.1614
12127SOL    HW148440   1.178   3.822   1.109 -2.4347  0.9194  0.6387
12127SOL    HW248441   1.247   3.753   1.240  1.7079  0.6034 -1.6130
12128SOL     OW48442   3.172   3.332   0.949 -0.3458  0.1358 -0.5421
12128SOL    HW148443   3.186   3.315   0.851 -0.4315 -0.2016 -0.4987
12128SOL    HW248444   3.226   3.267   1.002 -1.2427 -0.4963 -0.3761
12129SOL     OW48445   4.128   2.678   8.565 -0.7074  0.1735 -0.2397
12129SOL    HW148446   4.079   2.764   8.568 -1.6253 -0.3783  0.9576
12129SOL    HW248447   4.102   2.622   8.643  0.5085 -0.8486 -0.5476
12130SOL     OW48448   2.675   0.115   7.392 -0.1373 -0.1733  0.1230
12130SOL    HW148449   2.749   0.048   7.393 -0.4023 -0.4930 -0.8023
12130SOL    HW248450   2.637   0.121   7.300 -2.2393 -1.0829  0.8904
12131SOL     OW48451   6.154   7.369   1.857 -0.3356  0.4271 -0.4727
12131SOL    HW148452   6.233   7.421   1.826 -0.5140  0.3739 -1.0142
12131SOL    HW248453   6.154   7.279   1.814 -0.1556  0.0620  0.2809
12132SOL     OW48454   9.212   3.628   9.640 -0.7721  0.2432 -0.3317
12132SOL    HW148455   9.173   3.609   9.550 -3.5430  0.0209  0.8974
12132SOL    HW248456   9.187   3.720   9.669  1.3418  0.8707 -0.3785
12133SOL     OW48457   4.492   2.722   9.046 -0.3032 -0.2950  0.4932
12133SOL    HW148458   4.417   2.719   9.112 -1.5112 -0.8140 -0.8864
12133SOL    HW248459   4.475   2.794   8.979 -1.0939 -2.3840 -1.6022
12134SOL     OW48460   6.351   5.518   2.083  0.0552 -0.3560  0.1089
12134SOL    HW148461   6.444   5.515   2.045  0.5561  0.3219  1.2713
12134SOL    HW248462   6.334   5.435   2.136 -0.0571 -0.5518 -0.2337
12135SOL     OW48463   5.877   0.582   7.854 -0.0660 -0.1362  0.0452
12135SOL    HW148464   5.851   0.652   7.920 -0.2062 -0.5220  0.3963
12135SOL    HW248465   5.819   0.589   7.773  0.5314  0.7554 -0.3147
12136SOL     OW48466   6.835   3.101   5.866  0.1320  0.0189 -0.3703
12136SOL    HW148467   6.805   3.117   5.960 -0.1677  0.6470 -0.5693
12136SOL    HW248468   6.756   3.110   5.805 -0.6023 -4.5583 -0.2786
12137SOL     OW48469   0.054   2.248   1.568 -0.4611  0.6909  0.2649
12137SOL    HW148470   0.097   2.194   1.640 -0.5607  0.3990  0.1066
12137SOL    HW248471  -0.044   2.226   1.564 -0.2770 -0.0120 -0.6014
12138SOL     OW48472   3.991   5.109   6.435  1.2777  0.1635 -0.8367
12138SOL    HW148473   3.986   5.049   6.355  0.4769 -0.8728 -0.0282
12138SOL    HW248474   4.082   5.103   6.476  1.1408 -0.6710 -0.6441
12139SOL     OW48475   5.593   0.646   9.816  0.4429  0.0384 -0.2599
12139SOL    HW148476   5.629   0.603   9.733  0.2096 -0.2777 -0.2001
12139SOL    HW248477   5.638   0.733   9.831 -0.3511  0.6573 -1.3740
12140SOL     OW48478   6.249   2.416   8.754 -0.0394  0.2138  0.2627
12140SOL    HW148479   6.294   2.380   8.836 -0.7980  0.2177  0.6791
12140SOL    HW248480   6.156   2.443   8.776 -0.8116 -1.3485 -0.9617
12141SOL     OW48481   2.925   1.359   0.667  0.6423  0.6083  0.0992
12141SOL    HW148482   2.989   1.407   0.727  0.3976 -1.9970  2.5472
12141SOL    HW248483   2.921   1.262   0.693 -1.0739 -0.1592 -2.7961
12142SOL     OW48484   7.513   3.746   8.092 -0.2584  0.2301  0.4764
12142SOL    HW148485   7.483   3.785   8.179  0.6291  0.2332  0.7782
12142SOL    HW248486   7.587   3.801   8.054  0.6757 -0.8880  0.6658
12143SOL     OW48487   5.707   5.208   9.808  0.0350  0.3231  0.1687
12143SOL    HW148488   5.609   5.223   9.793  0.3571  1.2690 -1.0760
12143SOL    HW248489   5.722   5.178   9.902 -1.4575  0.0763  0.3450
12144SOL     OW48490   4.487   5.246   0.094 -0.2206  0.1641  0.5932
12144SOL    HW148491   4.462   5.235  -0.002 -1.3780  0.1217  0.8918
12144SOL    HW248492   4.538   5.165   0.124  2.0083  1.1147 -0.5455
12145SOL     OW48493   6.529   9.071   4.324  0.4123 -0.2653  0.1530
12145SOL    HW148494   6.576   9.140   4.270 -1.4511  0.7252 -0.2679
12145SOL    HW248495   6.472   9.116   4.394  0.5355 -1.4268  1.0286
12146SOL     OW48496   4.689   4.292   7.440  0.2827  0.4416  1.0049
12146SOL    HW148497   4.674   4.256   7.532 -0.5457 -0.2193  0.6193
12146SOL    HW248498   4.785   4.277   7.413  0.4681  0.4347  1.6651
12147SOL     OW48499   5.110   5.946   2.908  0.2448 -0.0399 -0.8859
12147SOL    HW148500   5.177   6.014   2.936  1.8255 -1.3808 -1.3474
12147SOL    HW248501   5.064   5.977   2.824  2.1104 -0.2489 -2.0245
12148SOL     OW48502   5.202   8.597   9.010  0.4442 -0.4239  0.3175
12148SOL    HW148503   5.179   8.505   9.041  0.8153 -0.5778  0.1422
12148SOL    HW248504   5.120   8.642   8.975  0.2828 -0.7333  0.2969
12149SOL     OW48505   2.540   6.346   1.136 -0.3354  0.1846 -0.3176
12149SOL    HW148506   2.622   6.399   1.115 -0.4136 -0.4004 -2.1796
12149SOL    HW248507   2.459   6.404   1.123 -0.2695  0.5783  0.9247
12150SOL     OW48508   4.522   1.211   7.229  0.1566  0.0044 -0.6695
12150SOL    HW148509   4.484   1.233   7.319  1.4491 -1.6384  0.3045
12150SOL    HW248510   4.447   1.189   7.166 -0.6951  0.1132  0.2908
12151SOL     OW48511   5.690   4.260   2.636  0.1941 -0.0436  0.1834
12151SOL    HW148512   5.778   4.308   2.633  1.0740 -1.6398 -0.6796
12151SOL    HW248513   5.697   4.176   2.582 -2.0163  0.0374 -0.2827
12152SOL     OW48514   0.324   6.690   3.527  0.1280 -0.1657  0.0385
12152SOL    HW148515   0.414   6.677   3.485  0.3271 -1.3896  0.8170
12152SOL    HW248516   0.262   6.732   3.461  0.4410 -2.0478 -1.4673
12153SOL     OW48517   2.097   3.285   6.905 -0.4025  0.2042 -0.4063
12153SOL    HW148518   2.042   3.213   6.862 -1.6725  2.6734 -3.1525
12153SOL    HW248519   2.192   3.275   6.878 -0.6018 -0.3588 -0.9151
12154SOL     OW48520   3.385   0.606   9.579 -0.0878  0.0528  0.2275
12154SOL    HW148521   3.414   0.538   9.646 -0.6047  1.0217  1.4678
12154SOL    HW248522   3.362   0.561   9.493  1.7910 -1.0799  0.3027
12155SOL     OW48523   8.283   1.568   3.637  0.0950 -0.5465 -0.0875
12155SOL    HW148524   8.229   1.486   3.618 -0.7926 -0.6718  2.7470
12155SOL    HW248525   8.273   1.633   3.562 -2.9383 -1.1188 -0.2361
12156SOL     OW48526   6.637   7.273   1.231  0.0526 -0.0392 -0.0036
12156SOL    HW148527   6.586   7.342   1.282 -0.5651  0.4707 -1.3106
12156SOL    HW248528   6.604   7.182   1.257 -1.9440  0.3052 -1.2625
12157SOL     OW48529   6.430   1.377   0.178  0.2089 -1.0584  0.2737
12157SOL    HW148530   6.332   1.365   0.192 -0.1490 -0.0089 -1.2726
12157SOL    HW248531   6.453   1.474   0.186  1.3393 -1.4292  1.8807
12158SOL     OW48532   4.170   9.962   2.665 -0.3632  0.4208  0.7825
12158SOL    HW148533   4.082   9.919   2.648 -1.9827  3.2513  1.5444
12158SOL    HW248534   4.156  10.049   2.713  2.8585  0.8980  1.0182
12159SOL     OW48535   3.334   1.069   0.252  0.4790 -0.1206 -0.0152
12159SOL    HW148536   3.349   1.161   0.290  0.9658 -0.4247  0.5294
12159SOL    HW248537   3.252   1.070   0.194  1.0834  0.9188 -0.8708
12160SOL     OW48538   7.144   3.538   0.078  0.0613 -0.2372  0.0866
12160SOL    HW148539   7.093   3.565  -0.004  0.6998 -2.4204 -1.0584
12160SOL    HW248540   7.183   3.620   0.121 -0.5508  0.9784 -1.6007
12161SOL     OW48541   4.236   9.512   7.806 -0.6117  0.2778  0.3244
12161SOL    HW148542   4.275   9.429   7.846  0.4236  0.1838 -0.8388
12161SOL    HW248543   4.216   9.578   7.879 -0.0323 -0.4059  1.1129
12162SOL     OW48544   9.565   1.988   8.062  0.0908 -1.2538 -0.1781
12162SOL    HW148545   9.562   1.975   7.963  0.6549  0.3691 -0.4347
12162SOL    HW248546   9.473   1.983   8.099 -0.3522  0.0399 -1.0669
12163SOL     OW48547   0.191   0.238   6.593  0.7509 -0.0253  0.3042
12163SOL    HW148548   0.260   0.305   6.619  1.3168 -0.6981  0.5764
12163SOL    HW248549   0.232   0.146   6.596 -0.3911 -0.5088  1.2794
12164SOL     OW48550   2.114   4.133   4.519 -0.2846  0.4299  0.0308
12164SOL    HW148551   2.155   4.045   4.494 -1.7338 -0.0020 -0.8898
12164SOL    HW248552   2.059   4.121   4.601 -1.8755  0.0781 -1.0731
12165SOL     OW48553   8.870   2.124   5.497  0.2719  0.0218 -0.1285
12165SOL    HW148554   8.917   2.188   5.435  1.5156  1.1997  1.9424
12165SOL    HW248555   8.922   2.040   5.504  0.2359 -0.0337 -0.5242
12166SOL     OW48556   3.608   7.913   6.517 -0.0044 -0.3379  0.0300
12166SOL    HW148557   3.650   7.991   6.470  0.5704 -1.8645 -2.1139
12166SOL    HW248558   3.674   7.838   6.521 -0.6305 -0.8021  1.8178
12167SOL     OW48559   9.762   8.562   8.737 -0.4280 -0.3643  0.0536
12167SOL    HW148560   9.805   8.631   8.680  0.1718 -0.4590  0.3848
12167SOL    HW248561   9.828   8.527   8.803 -0.8330 -0.9819  0.1370
12168SOL     OW48562   6.446   0.949   3.003 -0.9200  0.7520  0.4977
12168SOL    HW148563   6.367   1.005   3.028 -1.2801  0.2334  0.5297
12168SOL    HW248564   6.493   0.919   3.085 -0.9747  0.6573  0.4948
12169SOL     OW48565   2.913   6.704   2.934  0.1129  0.0629 -0.0853
12169SOL    HW148566   2.877   6.789   2.898 -1.9104 -1.3941 -1.6172
12169SOL    HW248567   2.869   6.627   2.888 -1.2173 -1.8842  4.1593
12170SOL     OW48568   5.909   4.541   7.145 -0.0622  0.1475  0.0505
12170SOL    HW148569   5.965   4.623   7.133 -0.7088  0.6946  0.7313
12170SOL    HW248570   5.873   4.512   7.057 -2.1907  2.2852  0.1902
12171SOL     OW48571   5.801   6.747   7.969  0.2979  0.1747  0.5249
12171SOL    HW148572   5.865   6.782   8.038 -0.0953  1.8615  0.0667
12171SOL    HW248573   5.735   6.818   7.946  0.5114 -0.2954 -1.6956
12172SOL     OW48574   5.456   5.703   6.150  0.1984  0.3891  0.5320
12172SOL    HW148575   5.367   5.690   6.106  0.8902 -1.6567 -0.3372
12172SOL    HW248576   5.454   5.662   6.241  0.1154  0.7253  0.6807
12173SOL     OW48577   6.684   0.950   4.622 -0.7564 -0.1851 -0.0910
12173SOL    HW148578   6.720   0.969   4.713 -1.9018 -2.7862  0.9612
12173SOL    HW248579   6.599   1.000   4.608  1.0437  2.7252 -1.0035
12174SOL     OW48580   6.208   3.763   9.877  0.0780  0.2459  0.5313
12174SOL    HW148581   6.287   3.746   9.936  0.7208  0.9625 -0.1096
12174SOL    HW248582   6.133   3.801   9.931  0.7085  1.0252  0.8649
12175SOL     OW48583   6.015   3.839   9.048 -0.2160 -0.2467 -0.1822
12175SOL    HW148584   5.931   3.803   9.006 -0.8111  1.5023 -0.5282
12175SOL    HW248585   5.993   3.884   9.134  0.5483 -0.8602  0.3375
12176SOL     OW48586   5.341   4.228   2.917 -0.5128 -0.4419  0.1932
12176SOL    HW148587   5.397   4.304   2.883 -0.9674  0.2761  1.0494
12176SOL    HW248588   5.268   4.264   2.975 -0.7210 -1.5393  0.6123
12177SOL     OW48589   3.877   0.394   9.973 -0.2601 -0.1659  0.4760
12177SOL    HW148590   3.872   0.377  10.072  1.9181 -2.3717  0.2556
12177SOL    HW248591   3.970   0.421   9.948 -1.1726  1.9253 -0.7778
12178SOL     OW48592   4.455   1.834   6.012  0.4230  0.1602  0.3668
12178SOL    HW148593   4.497   1.851   6.101  2.5250 -0.4647 -0.4624
12178SOL    HW248594   4.527   1.826   5.943 -1.0835 -1.0907 -1.0857
12179SOL     OW48595   7.392   4.167   4.201 -0.4263  0.4632 -0.0283
12179SOL    HW148596   7.332   4.090   4.178 -1.0177  0.8512  0.2207
12179SOL    HW248597   7.430   4.154   4.293  1.6964 -0.9339 -1.0418
12180SOL     OW48598   5.364   0.698   7.212  0.2183 -0.0524 -0.0201
12180SOL    HW148599   5.407   0.693   7.122 -1.3597 -0.1038 -0.8017
12180SOL    HW248600   5.268   0.669   7.205 -0.2347  0.9971  1.4583
12181SOL     OW48601   1.596   9.567   0.781  0.2269  0.1483 -0.3432
12181SOL    HW148602   1.689   9.532   0.776 -0.8430 -3.2251  1.8936
12181SOL    HW248603   1.540   9.526   0.709 -0.4024 -0.7801  0.6549
12182SOL     OW48604   6.021   0.708   3.826 -0.5152 -0.1019 -0.5438
12182SOL    HW148605   6.050   0.612   3.821 -1.0754 -0.3256  0.4704
12182SOL    HW248606   6.079   0.763   3.766 -0.0587 -1.0442 -0.9748
12183SOL     OW48607   4.921   5.223   2.464 -0.0658  0.0887  0.1229
12183SOL    HW148608   4.929   5.150   2.532 -1.4482 -0.1148  0.0787
12183SOL    HW248609   4.830   5.221   2.423 -0.0352  1.6954 -0.0512
12184SOL     OW48610   3.864   9.881   2.111  0.1463  0.1664 -0.3428
12184SOL    HW148611   3.774   9.844   2.133  0.8143 -0.4662  1.3648
12184SOL    HW248612   3.901   9.833   2.031 -2.1037  2.1909 -2.6713
12185SOL     OW48613   5.193   0.592   0.953 -0.6140 -0.0164  0.2163
12185SOL    HW148614   5.293   0.588   0.948 -0.5321  2.1115 -0.0775
12185SOL    HW248615   5.154   0.549   0.872  0.0181 -1.9048  0.8761
12186SOL     OW48616   4.690   5.258   2.108  0.2259  0.2886 -0.5582
12186SOL    HW148617   4.598   5.227   2.132  1.2678 -1.3827  1.3588
12186SOL    HW248618   4.749   5.180   2.089  1.6311  1.2868 -0.4164
12187SOL     OW48619   8.868   1.414   3.487 -0.3589  0.7002 -0.1503
12187SOL    HW148620   8.884   1.316   3.502  1.0106  0.9012 -0.2314
12187SOL    HW248621   8.773   1.436   3.507 -0.1702 -0.2627  1.8562
12188SOL     OW48622   1.543   4.292   6.781  0.3311 -0.0185 -0.0067
12188SOL    HW148623   1.573   4.386   6.798  1.2374 -0.0498 -1.3038
12188SOL    HW248624   1.464   4.293   6.720 -1.1488 -0.0138  1.8891
12189SOL     OW48625   1.688   4.362   9.377 -0.0682 -0.3017  0.2089
12189SOL    HW148626   1.596   4.389   9.402  1.2128  2.8295  1.8165
12189SOL    HW248627   1.742   4.443   9.353  2.8134 -1.8387  1.2349
12190SOL     OW48628   9.678   0.945   6.136 -0.0619  0.2068 -0.0615
12190SOL    HW148629   9.740   0.891   6.192  1.3403 -1.5176 -3.1536
12190SOL    HW248630   9.614   0.885   6.089  0.2447  1.3583 -2.0281
12191SOL     OW48631   3.218   4.634   1.686 -0.1374  0.2872 -0.2193
12191SOL    HW148632   3.209   4.579   1.769 -3.7286 -0.3721 -0.9800
12191SOL    HW248633   3.295   4.600   1.631  1.0850 -0.4486  1.9119
12192SOL     OW48634   8.848   2.242   2.994 -0.3310  0.4079  0.4859
12192SOL    HW148635   8.864   2.251   3.092 -0.3158 -1.3928  0.6736
12192SOL    HW248636   8.788   2.315   2.963 -0.0099  1.2312  1.7571
12193SOL     OW48637   0.752   3.627   4.386  0.1100 -0.5552  0.0493
12193SOL    HW148638   0.718   3.551   4.330  2.6202 -1.4036 -0.3794
12193SOL    HW248639   0.815   3.682   4.333 -0.5784  1.0054  0.8321
12194SOL     OW48640   8.103   3.789   4.438 -0.4456  0.1074 -0.3315
12194SOL    HW148641   8.025   3.739   4.401  0.8010  0.2055 -3.2330
12194SOL    HW248642   8.119   3.871   4.385  2.5411 -0.6841 -0.7809
12195SOL     OW48643   8.282   1.756   4.856  0.5784  0.2505  0.2190
12195SOL    HW148644   8.261   1.780   4.951 -2.9807 -0.1572 -0.3883
12195SOL    HW248645   8.289   1.656   4.848  1.5355  0.3170  0.1476
12196SOL     OW48646   5.708   0.026   0.928  0.1549  0.0398 -0.2401
12196SOL    HW148647   5.737   0.001   1.021 -1.1794  1.4394  0.5976
12196SOL    HW248648   5.610   0.005   0.918  0.2521  0.0875 -1.2554
12197SOL     OW48649   2.563   2.586   9.935 -0.5219  0.1438 -0.5233
12197SOL    HW148650   2.603   2.542  10.015 -2.1802 -0.6570 -0.1273
12197SOL    HW248651   2.636   2.619   9.875  0.7194 -0.5345  0.6022
12198SOL     OW48652   5.587   9.515   2.043 -0.3642 -0.0721 -0.0893
12198SOL    HW148653   5.603   9.421   2.015  0.7087  0.1143 -0.0988
12198SOL    HW248654   5.576   9.573   1.962 -0.4363 -0.0811 -0.0869
12199SOL     OW48655   1.625   5.927   1.177  0.0121 -0.1805  0.8072
12199SOL    HW148656   1.631   5.887   1.085 -0.2664  0.5088  0.4830
12199SOL    HW248657   1.705   5.985   1.193 -0.3494  0.3590  0.6766
12200SOL     OW48658   1.247   0.559   9.394 -0.2997  0.3888 -0.7072
12200SOL    HW148659   1.176   0.628   9.381 -1.4305 -0.4143  1.0988
12200SOL    HW248660   1.336   0.604   9.398 -0.7455  1.4632 -2.3048
12201SOL     OW48661   4.055   0.894   3.114 -0.0385 -0.3919 -0.5326
12201SOL    HW148662   4.131   0.841   3.075 -0.8988 -1.2593 -1.0450
12201SOL    HW248663   3.991   0.918   3.041 -1.7164 -2.1039  0.3361
12202SOL     OW48664   1.045   1.197   5.218 -0.3784 -0.7935  0.4775
12202SOL    HW148665   1.037   1.100   5.196 -0.1027 -0.6445 -0.2699
12202SOL    HW248666   1.015   1.211   5.313  0.0728 -1.6845  0.7642
12203SOL     OW48667   3.168   9.995   7.640  0.0893 -0.1401  0.4182
12203SOL    HW148668   3.172   9.949   7.552  1.1964 -1.3951  1.1076
12203SOL    HW248669   3.112   9.942   7.703 -0.0697  0.3545  0.6982
12204SOL     OW48670   5.081   0.442   7.919 -0.1329 -0.0250  0.2578
12204SOL    HW148671   5.071   0.350   7.880  0.0357 -0.2857  0.8131
12204SOL    HW248672   5.101   0.434   8.017 -0.8986  0.6258  0.4722
12205SOL     OW48673   4.229   2.231   9.694 -0.4811  0.2346  0.2248
12205SOL    HW148674   4.196   2.254   9.602  1.4792  1.9456 -0.0924
12205SOL    HW248675   4.304   2.165   9.686 -0.5329  0.1298  0.6193
12206SOL     OW48676   4.895   0.972   1.161  0.3217  0.0463 -0.2145
12206SOL    HW148677   4.897   1.055   1.216 -0.6495 -1.3791  2.0528
12206SOL    HW248678   4.805   0.929   1.168  0.1322 -0.1589 -3.0311
12207SOL     OW48679   1.507   2.163   1.026  0.2459 -0.1780  0.4470
12207SOL    HW148680   1.470   2.072   1.044  0.2065 -0.3376 -0.4120
12207SOL    HW248681   1.530   2.208   1.113  0.2077 -0.9804  0.8756
12208SOL     OW48682   8.019   3.145   0.443 -0.2822  0.0257  0.1340
12208SOL    HW148683   7.968   3.229   0.426 -0.3795 -0.2070 -0.7379
12208SOL    HW248684   7.963   3.082   0.497  0.1181  0.8614  1.5427
12209SOL     OW48685   8.558   8.178   6.856  0.8392  0.1894  0.0925
12209SOL    HW148686   8.615   8.107   6.814  0.1430 -0.5291  0.3569
12209SOL    HW248687   8.519   8.143   6.941  0.1392  0.7436  0.0046
12210SOL     OW48688   8.466   1.689   8.981  0.2126 -0.0757 -0.2536
12210SOL    HW148689   8.387   1.645   8.937 -0.3700  2.3559 -1.6825
12210SOL    HW248690   8.500   1.763   8.923 -0.1668  2.8046  3.0383
12211SOL     OW48691   6.154   2.815   7.106 -0.2027  0.0984  0.3294
12211SOL    HW148692   6.213   2.871   7.048 -0.2537 -0.9496 -0.7549
12211SOL    HW248693   6.204   2.790   7.189  0.3597  0.4697  0.1086
12212SOL     OW48694   2.867   1.178   5.609  0.4160  0.6300  0.7011
12212SOL    HW148695   2.848   1.154   5.704  0.2677 -1.2105  0.2284
12212SOL    HW248696   2.966   1.174   5.592  0.1874 -3.5619 -0.3095
12213SOL     OW48697   0.656   1.645   0.258 -0.0751 -0.5923 -0.2781
12213SOL    HW148698   0.658   1.733   0.211 -0.0971 -0.5360 -0.1712
12213SOL    HW248699   0.590   1.648   0.333  0.8412 -0.3018  0.5225
12214SOL     OW48700   3.916   4.453   3.106  0.0478 -0.4659  0.1329
12214SOL    HW148701   3.886   4.424   3.016  0.0423  0.0554 -0.0325
12214SOL    HW248702   3.885   4.387   3.175  0.7098 -1.2721 -0.3306
12215SOL     OW48703   6.603   9.350   4.720  0.4937  0.0966 -0.0461
12215SOL    HW148704   6.542   9.418   4.680  0.9043  0.4549 -0.0594
12215SOL    HW248705   6.591   9.349   4.819  0.8855  0.5673  0.0028
12216SOL     OW48706   1.478   0.734   5.671  0.3953 -0.6743 -0.0546
12216SOL    HW148707   1.566   0.685   5.674  0.0778 -1.2727 -0.2755
12216SOL    HW248708   1.417   0.688   5.606 -0.0356 -0.1850  0.0018
12217SOL     OW48709   3.717   3.581   0.843  0.0820 -0.8921 -0.8236
12217SOL    HW148710   3.724   3.669   0.798  0.2367 -1.0995 -1.2025
12217SOL    HW248711   3.795   3.524   0.820  0.9655 -0.4424  0.9348
12218SOL     OW48712   3.312   7.773   1.627  0.1639 -0.1213 -0.2825
12218SOL    HW148713   3.320   7.838   1.703 -0.8262  0.2923 -0.5245
12218SOL    HW248714   3.402   7.759   1.586  0.3827  1.1195 -0.2499
12219SOL     OW48715   2.259   1.169   0.199 -0.5873  0.5566 -0.3021
12219SOL    HW148716   2.235   1.087   0.147  1.3142 -0.4881  0.3865
12219SOL    HW248717   2.188   1.188   0.266 -0.4101 -1.3850  0.4752
12220SOL     OW48718   4.719   1.732   0.145 -0.2273 -0.2164  0.5065
12220SOL    HW148719   4.645   1.754   0.082  0.3681 -2.0279 -0.8694
12220SOL    HW248720   4.787   1.805   0.144 -0.6285  0.1541 -0.3052
12221SOL     OW48721   1.697   1.771   4.571 -0.0396  0.0223  0.3952
12221SOL    HW148722   1.787   1.726   4.576 -0.4657 -0.9345 -0.3642
12221SOL    HW248723   1.698   1.853   4.627  0.7290 -0.9926  1.9155
12222SOL     OW48724   4.821   3.239   1.467  0.0696  0.1189 -0.5464
12222SOL    HW148725   4.890   3.292   1.418  1.2146  0.8535  1.7842
12222SOL    HW248726   4.834   3.251   1.566 -1.9996 -1.5343 -0.0445
12223SOL     OW48727   5.497   1.327   1.750  0.1773 -0.2876 -0.6224
12223SOL    HW148728   5.550   1.286   1.824 -1.4455  0.8532  1.2154
12223SOL    HW248729   5.415   1.272   1.734 -0.3571  0.4304 -0.3682
12224SOL     OW48730   7.522   4.390   3.059  0.2602  0.0686  0.3176
12224SOL    HW148731   7.437   4.351   3.023 -0.0543 -0.8983  2.0819
12224SOL    HW248732   7.504   4.480   3.098  0.3939  0.6377 -0.9108
12225SOL     OW48733   6.592   0.339   4.198 -0.1871  0.1560 -0.2395
12225SOL    HW148734   6.505   0.343   4.148 -0.4717  0.8604  0.2885
12225SOL    HW248735   6.668   0.353   4.135 -0.5684  1.5210 -0.4194
12226SOL     OW48736   9.115   5.776   3.604  0.2261  0.2624 -0.7625
12226SOL    HW148737   9.130   5.677   3.603  0.5284  0.3105 -0.9749
12226SOL    HW248738   9.019   5.795   3.581 -0.4198 -0.0847  1.5527
12227SOL     OW48739   3.454   9.489   5.382 -0.4804 -0.0638  0.0598
12227SOL    HW148740   3.432   9.571   5.436  1.3603  0.0862  0.6435
12227SOL    HW248741   3.405   9.410   5.419  0.0059  0.2259  1.3526
12228SOL     OW48742   3.560   5.408   1.977 -0.0493 -0.0577 -0.4279
12228SOL    HW148743   3.472   5.368   1.950 -0.0175  0.3129 -1.0799
12228SOL    HW248744   3.545   5.480   2.045 -0.1110 -1.1492  0.7566
12229SOL     OW48745   3.748   5.443   9.994 -0.1115  0.3667  0.8538
12229SOL    HW148746   3.670   5.392   9.958 -0.3813  0.2465  1.5994
12229SOL    HW248747   3.734   5.462  10.091  1.1918 -0.4364  1.2188
12230SOL     OW48748   5.327   3.795   0.978  0.1296  0.5520 -0.8587
12230SOL    HW148749   5.369   3.774   1.066 -0.6068 -0.8379 -0.8180
12230SOL    HW248750   5.313   3.894   0.970  0.6367  0.7317  0.3820
12231SOL     OW48751   0.323   3.786   8.356 -0.3042  0.3558 -0.3494
12231SOL    HW148752   0.288   3.693   8.363  0.4491  0.1061  0.1586
12231SOL    HW248753   0.376   3.795   8.272 -2.3888  1.0162 -1.6305
12232SOL     OW48754   2.745   5.915   1.577  0.0748  0.1297  0.1686
12232SOL    HW148755   2.781   6.004   1.552 -0.6653  0.4065  0.0667
12232SOL    HW248756   2.650   5.925   1.609 -0.0662 -0.6334 -0.0015
12233SOL     OW48757   7.939   0.642   1.757  0.0268 -0.0627 -0.0608
12233SOL    HW148758   7.996   0.642   1.839 -0.8298 -1.8132  0.5689
12233SOL    HW248759   7.986   0.689   1.683  1.5155  0.0911  0.9671
12234SOL     OW48760   5.522   1.453   8.699 -0.3544 -0.0029 -0.2468
12234SOL    HW148761   5.467   1.405   8.767 -1.1996 -0.1628 -1.0241
12234SOL    HW248762   5.475   1.536   8.669  1.4170  1.7101  1.5838
12235SOL     OW48763   9.660   1.207   1.435 -0.6780  0.2290 -0.1859
12235SOL    HW148764   9.587   1.143   1.411 -0.8779  0.5214 -0.3713
12235SOL    HW248765   9.626   1.272   1.503  0.6405 -2.1160  2.7909
12236SOL     OW48766   6.689   2.261   8.783 -0.1647  0.2488 -0.1385
12236SOL    HW148767   6.628   2.340   8.793  0.4521  0.6459  0.5302
12236SOL    HW248768   6.665   2.192   8.852  0.8531  0.8763  0.8587
12237SOL     OW48769   8.560   1.897   5.865  0.4190  0.2939  0.1203
12237SOL    HW148770   8.487   1.956   5.833 -1.6794 -1.2675  1.8700
12237SOL    HW248771   8.571   1.820   5.803 -0.0257  0.0800  0.3026
12238SOL     OW48772   2.505   3.082   2.647 -0.2412 -0.5886  0.2259
12238SOL    HW148773   2.507   3.007   2.580  1.2258 -0.9793  0.6633
12238SOL    HW248774   2.583   3.071   2.710 -1.2377  0.1172  1.6099
12239SOL     OW48775   6.597   1.177   1.843 -0.1543 -0.1071 -0.0548
12239SOL    HW148776   6.503   1.160   1.814 -0.4326  0.9901  0.2013
12239SOL    HW248777   6.655   1.188   1.762 -0.8638  2.5969 -0.2398
12240SOL     OW48778   4.617   4.387   8.267  0.6401 -0.3506  0.3564
12240SOL    HW148779   4.644   4.423   8.356  0.4259  0.5035  0.0816
12240SOL    HW248780   4.618   4.461   8.200 -1.8193 -0.3937  0.2143
12241SOL     OW48781   2.987   2.954   9.619 -0.9513  0.2837  0.2786
12241SOL    HW148782   2.955   2.936   9.526  0.0679  0.7641 -0.1744
12241SOL    HW248783   2.916   3.001   9.671 -2.0177 -1.1575  0.1489
12242SOL     OW48784   6.759   1.651   8.830  0.1737  0.3458  0.8284
12242SOL    HW148785   6.857   1.638   8.848  0.1899 -0.5278  0.1782
12242SOL    HW248786   6.742   1.636   8.732 -0.6986 -0.0799  1.0433
12243SOL     OW48787   1.770   4.825   3.946  0.0774 -0.2408  0.2628
12243SOL    HW148788   1.792   4.903   3.888  1.3441 -0.0229  1.0135
12243SOL    HW248789   1.838   4.753   3.932  0.2864 -0.2614  1.3379
12244SOL     OW48790   5.041   0.547   4.188 -0.2248  0.5185 -0.1211
12244SOL    HW148791   5.067   0.478   4.255  2.7785 -0.3004 -2.0321
12244SOL    HW248792   5.013   0.630   4.235  0.4054 -0.5203  2.1461
12245SOL     OW48793   0.003   3.597   1.775  0.1113 -0.0393  0.5083
12245SOL    HW148794   0.053   3.606   1.689 -0.3840  1.9176  0.4050
12245SOL    HW248795  -0.094   3.583   1.755  0.1597 -0.7429  0.7481
12246SOL     OW48796   2.889   5.066   7.736 -0.1139  0.6880 -0.5273
12246SOL    HW148797   2.902   4.975   7.697 -0.6702  0.8754 -1.1567
12246SOL    HW248798   2.939   5.133   7.682  1.2084  0.6210  0.5841
12247SOL     OW48799   0.360   2.157   1.472  0.3244 -0.1707 -0.9288
12247SOL    HW148800   0.355   2.195   1.380  1.7194 -0.3183 -1.0768
12247SOL    HW248801   0.272   2.115   1.495 -0.4188  0.9432 -1.7136
12248SOL     OW48802   4.505   4.244   0.733  0.5835  0.4780 -0.0573
12248SOL    HW148803   4.552   4.233   0.820  0.2846 -0.9476 -0.0612
12248SOL    HW248804   4.406   4.238   0.747  0.5822 -1.5838 -0.7112
12249SOL     OW48805   4.955   7.802   9.322  0.2695 -0.0640 -0.4126
12249SOL    HW148806   5.025   7.771   9.258  1.0855  2.7985 -1.0083
12249SOL    HW248807   4.937   7.731   9.390  0.3700 -2.6574 -2.9972
12250SOL     OW48808   7.110   3.672   3.491  0.1187  0.5208  0.9337
12250SOL    HW148809   7.079   3.587   3.535 -0.0369 -1.1574 -2.2870
12250SOL    HW248810   7.034   3.711   3.438  0.8167  1.5457  0.6808
12251SOL     OW48811   6.550   7.027   1.289 -0.0044 -0.1663 -0.6250
12251SOL    HW148812   6.593   6.983   1.210 -0.9145 -2.9800  0.3903
12251SOL    HW248813   6.459   6.989   1.303 -0.8061  2.0262  0.3688
12252SOL     OW48814   6.226   3.983   2.933  0.0231 -0.1064 -0.0815
12252SOL    HW148815   6.221   4.067   2.987  1.6384  0.0606 -0.1728
12252SOL    HW248816   6.277   4.000   2.849 -2.0358 -0.4909 -1.4540
12253SOL     OW48817   8.028   2.172   1.636 -0.2263  0.0618  0.8585
12253SOL    HW148818   8.070   2.258   1.666 -0.2867 -0.7154  3.2941
12253SOL    HW248819   8.065   2.146   1.547  1.2972  1.5776  1.0227
12254SOL     OW48820   7.307   5.155   9.579 -0.0393 -0.6934 -0.3694
12254SOL    HW148821   7.283   5.097   9.501  0.1591 -3.0648  1.2746
12254SOL    HW248822   7.231   5.217   9.598 -0.3114 -0.4692 -2.0871
12255SOL     OW48823   4.135   0.504   3.006 -0.2913 -0.0409  0.2342
12255SOL    HW148824   4.142   0.438   2.930  1.8827 -0.6352  0.9164
12255SOL    HW248825   4.058   0.479   3.065 -0.5265 -0.9781 -0.4603
12256SOL     OW48826   2.979   2.806   3.209  0.0732 -0.2720 -0.1867
12256SOL    HW148827   3.027   2.767   3.288 -2.2720 -1.5092  0.6729
12256SOL    HW248828   2.971   2.905   3.220  1.1959 -0.2362  0.3321
12257SOL     OW48829   4.351   3.376   9.132  0.3653 -0.4163 -0.4078
12257SOL    HW148830   4.367   3.457   9.187  1.0528 -0.1160 -1.0385
12257SOL    HW248831   4.369   3.397   9.036  0.9809 -1.4274 -0.5228
12258SOL     OW48832   2.563   4.513   7.777  0.2843 -0.0037  0.0980
12258SOL    HW148833   2.518   4.594   7.813 -2.0106 -0.4552 -1.5957
12258SOL    HW248834   2.634   4.539   7.713 -2.1763  0.7016 -2.4338
12259SOL     OW48835   6.206   3.659   1.716 -0.4651  0.1045  0.4718
12259SOL    HW148836   6.285   3.609   1.749 -0.8088  0.6665  2.1726
12259SOL    HW248837   6.235   3.751   1.686 -0.1484 -0.4207 -0.8763
12260SOL     OW48838   4.033   0.456   2.665 -0.0172  0.2574 -0.0211
12260SOL    HW148839   4.108   0.466   2.600 -0.9242  0.1866 -1.0973
12260SOL    HW248840   3.946   0.455   2.615 -0.7405  0.4905  1.2194
12261SOL     OW48841   0.338   1.441   4.933  0.3713  0.0135  0.1249
12261SOL    HW148842   0.360   1.464   5.028 -0.3905  1.7754 -0.1027
12261SOL    HW248843   0.320   1.524   4.882 -3.9064 -1.1073 -0.4039
12262SOL     OW48844   4.576   5.040   2.972 -0.9006  0.2253  0.2439
12262SOL    HW148845   4.564   4.991   2.885  1.7550  0.3670 -0.2175
12262SOL    HW248846   4.501   5.106   2.983 -0.1165  1.7642 -3.0023
12263SOL     OW48847   3.197   0.772   3.035  0.2237 -0.0372 -0.1497
12263SOL    HW148848   3.293   0.745   3.033  0.3297  0.3457 -0.5549
12263SOL    HW248849   3.151   0.732   3.114  0.6199 -0.5545 -0.1870
12264SOL     OW48850   2.818   3.381   3.575  0.4083  0.5718  0.1552
12264SOL    HW148851   2.752   3.385   3.650  1.2321 -0.0263  0.9185
12264SOL    HW248852   2.874   3.298   3.585  0.0045  0.0764 -1.5453
12265SOL     OW48853   7.349   2.376   5.787  0.5465 -0.4116  0.3560
12265SOL    HW148854   7.426   2.313   5.775  0.7873 -0.2847  1.2495
12265SOL    HW248855   7.348   2.411   5.880 -0.6596 -0.4812  0.3778
12266SOL     OW48856   1.036   1.547   8.923  0.2131 -0.3292  0.1834
12266SOL    HW148857   0.993   1.459   8.939  1.3043 -0.5886  1.8127
12266SOL    HW248858   0.968   1.620   8.930 -0.1391 -0.8044  1.8393
12267SOL     OW48859   5.411   5.368   3.504 -0.4872  0.5176  0.8449
12267SOL    HW148860   5.395   5.399   3.598 -1.9030  1.8839  0.1646
12267SOL    HW248861   5.339   5.403   3.445 -0.2112 -1.2637 -0.5669
12268SOL     OW48862   8.738   3.473   1.226 -0.5404 -0.2913 -0.9223
12268SOL    HW148863   8.666   3.440   1.164 -0.3257 -0.2532 -1.1945
12268SOL    HW248864   8.759   3.569   1.205  0.1627 -0.5416 -1.3928
12269SOL     OW48865   3.643   3.990   7.385  0.3108  0.3674  0.5451
12269SOL    HW148866   3.569   4.033   7.436  0.0150  0.5541 -0.0331
12269SOL    HW248867   3.729   3.999   7.436  0.1470  1.1597  0.6851
12270SOL     OW48868   5.106   2.251   9.123 -0.5708 -0.0643 -0.2993
12270SOL    HW148869   5.133   2.227   9.030  0.2672 -0.4416  0.0398
12270SOL    HW248870   5.007   2.265   9.126 -0.8756 -1.9482 -0.8349
12271SOL     OW48871   8.544   0.391   3.023 -0.0590 -0.2463 -0.2071
12271SOL    HW148872   8.627   0.375   2.968 -0.2322 -0.9466 -0.2668
12271SOL    HW248873   8.550   0.481   3.065  0.1979  0.1983 -1.1652
12272SOL     OW48874   8.349   5.277   5.904 -0.2527  0.3247 -0.9108
12272SOL    HW148875   8.297   5.326   5.832  1.1499  0.0362 -2.1401
12272SOL    HW248876   8.444   5.308   5.903 -0.2395  0.4067  0.9404
12273SOL     OW48877   3.224   9.603   1.539 -0.2662  0.0088  0.1947
12273SOL    HW148878   3.321   9.624   1.546 -0.7988  2.3409  1.0231
12273SOL    HW248879   3.195   9.613   1.443  0.3949 -1.1968 -0.1427
12274SOL     OW48880   1.965   9.625   2.179  0.2066 -0.0254  0.2939
12274SOL    HW148881   1.960   9.721   2.208 -1.1187 -0.1106  0.3596
12274SOL    HW248882   2.060   9.601   2.163  0.5520  1.3286  0.2021
12275SOL     OW48883   5.739   3.719   1.569  0.0161 -0.0982 -0.0974
12275SOL    HW148884   5.789   3.676   1.645  0.1718 -1.4115 -0.9288
12275SOL    HW248885   5.694   3.648   1.515 -3.1682  1.0641  0.9031
12276SOL     OW48886   0.778   4.152   2.822  0.0467 -0.4497 -0.3317
12276SOL    HW148887   0.696   4.203   2.797  0.1736  0.5697  1.2305
12276SOL    HW248888   0.761   4.100   2.906  0.7253 -0.9113 -0.4718
12277SOL     OW48889   5.118   3.844   2.181 -0.2957 -0.7437  0.1867
12277SOL    HW148890   5.104   3.888   2.270  0.4355  2.0636 -1.0450
12277SOL    HW248891   5.036   3.794   2.155 -0.7648 -1.0019  2.1002
12278SOL     OW48892   2.794   0.370   5.145  0.0255  0.1706  0.1699
12278SOL    HW148893   2.788   0.379   5.244 -0.3742 -0.8509  0.2429
12278SOL    HW248894   2.883   0.331   5.119  0.4244  1.1398  0.0762
12279SOL     OW48895   2.832   9.893   1.860 -0.3894 -0.2210 -0.2337
12279SOL    HW148896   2.899   9.823   1.886 -0.2772  0.3250  0.9935
12279SOL    HW248897   2.742   9.867   1.895 -0.5196 -0.1995 -0.5568
12280SOL     OW48898   8.550   7.897   6.223  0.5703 -0.6619  0.1179
12280SOL    HW148899   8.638   7.907   6.176 -0.4205  0.4647 -1.5208
12280SOL    HW248900   8.486   7.849   6.164 -0.3344 -0.2638  0.7679
12281SOL     OW48901   6.851   9.396   1.270  0.2357 -0.0226 -0.0474
12281SOL    HW148902   6.752   9.389   1.257  0.4111 -2.2561 -0.5073
12281SOL    HW248903   6.881   9.488   1.246 -1.9205  1.1425  1.5319
12282SOL     OW48904   6.307   2.308   2.786 -0.4027  0.1484 -0.3391
12282SOL    HW148905   6.323   2.407   2.789  1.2112 -0.1108  0.2009
12282SOL    HW248906   6.368   2.268   2.718 -0.2440 -0.6274  0.2660
12283SOL     OW48907   7.030   5.729   0.449 -0.1286  0.3608  0.6507
12283SOL    HW148908   7.028   5.704   0.352 -0.6618 -0.5858  0.8977
12283SOL    HW248909   7.099   5.799   0.464  0.1490  0.3125 -0.3718
12284SOL     OW48910   3.273   0.234   3.900  0.5443 -0.4493  0.3529
12284SOL    HW148911   3.178   0.234   3.931 -0.0952 -1.7204 -1.5225
12284SOL    HW248912   3.303   0.328   3.884  0.0542  0.0454  2.2243
12285SOL     OW48913   1.005   9.545   1.463  0.4563  0.3386  0.2077
12285SOL    HW148914   1.098   9.574   1.485  0.4422 -0.3834  1.2415
12285SOL    HW248915   0.955   9.622   1.423  1.3378  0.8696  0.1092
12286SOL     OW48916   6.741   9.095   5.328 -0.2859 -0.1348 -0.0170
12286SOL    HW148917   6.764   9.027   5.259 -0.5208  0.2702 -0.4899
12286SOL    HW248918   6.662   9.148   5.298 -0.9826 -0.5836  0.9716
12287SOL     OW48919   6.141   3.072   3.426  0.2175  0.0602 -0.6002
12287SOL    HW148920   6.166   3.120   3.510  1.9484 -0.9985 -0.4761
12287SOL    HW248921   6.091   3.134   3.366 -0.3566  1.0627  0.8699
12288SOL     OW48922   1.734   2.961   3.627  0.3378 -0.1351  0.2504
12288SOL    HW148923   1.824   2.959   3.583 -0.9941  0.6695 -2.6113
12288SOL    HW248924   1.737   3.024   3.705  2.5539 -1.0124  0.8999
12289SOL     OW48925   4.815   5.838   6.980 -0.0296  0.4059 -0.0768
12289SOL    HW148926   4.812   5.871   6.886 -1.0080  1.8289  0.4410
12289SOL    HW248927   4.898   5.872   7.025 -0.4467  1.1816  0.1038
12290SOL     OW48928   3.912   8.820   4.177 -0.4528 -0.0528  0.4348
12290SOL    HW148929   3.946   8.825   4.083  2.2161  0.5999  1.3838
12290SOL    HW248930   3.830   8.876   4.187 -0.5154  0.1906 -1.4018
12291SOL     OW48931   6.429   8.895   4.544  0.5656  0.1125  0.0210
12291SOL    HW148932   6.431   8.894   4.444  0.1721  1.8574 -0.0183
12291SOL    HW248933   6.490   8.967   4.578  1.3922 -1.0645  1.0691
12292SOL     OW48934   5.326   0.126   0.355  0.3152 -0.1849  0.7882
12292SOL    HW148935   5.364   0.098   0.266  0.1242  0.1277  0.6072
12292SOL    HW248936   5.307   0.224   0.353 -0.8200 -0.4002  0.7633
12293SOL     OW48937   1.332   6.439   7.440 -0.0817 -0.0779  0.5334
12293SOL    HW148938   1.432   6.437   7.447  0.2642  1.1417 -2.8577
12293SOL    HW248939   1.295   6.504   7.506  1.5244  0.7500  0.6485
12294SOL     OW48940   4.529   9.257   8.272 -0.6658 -0.1495  0.4124
12294SOL    HW148941   4.611   9.204   8.247 -0.8747 -0.4042  0.2669
12294SOL    HW248942   4.544   9.300   8.361  0.5944  1.8437 -0.7232
12295SOL     OW48943   5.119   0.258   2.080  0.2725  0.0937 -0.6592
12295SOL    HW148944   5.160   0.180   2.032  1.7329 -0.2402  1.0554
12295SOL    HW248945   5.140   0.343   2.030  0.5038 -0.3947 -1.3968
12296SOL     OW48946   8.570   1.072   5.938 -0.0082 -0.3124  0.1690
12296SOL    HW148947   8.473   1.073   5.913  0.1795 -2.0364 -0.6857
12296SOL    HW248948   8.620   1.133   5.877 -0.0180 -2.1887 -1.7666
12297SOL     OW48949   8.520   4.893   1.895  0.5214 -0.0360  0.3752
12297SOL    HW148950   8.529   4.828   1.820 -0.5827  1.4727 -1.0862
12297SOL    HW248951   8.611   4.924   1.922  0.8106  1.6343 -2.3388
12298SOL     OW48952   2.057   7.245   9.176  0.3949 -0.1324 -0.7319
12298SOL    HW148953   2.059   7.167   9.239 -3.4493  0.4071  0.1460
12298SOL    HW248954   2.085   7.328   9.224  0.0869 -0.1954 -0.4388
12299SOL     OW48955   3.286   2.189   4.715 -0.1434  0.2500  0.2499
12299SOL    HW148956   3.299   2.284   4.743 -2.1379  0.1442  1.6819
12299SOL    HW248957   3.236   2.186   4.628 -0.0832  0.5195  0.2065
12300SOL     OW48958   1.896   9.450   5.644  0.0527 -0.5939 -0.3353
12300SOL    HW148959   1.990   9.483   5.636 -0.2061  0.2712  0.1470
12300SOL    HW248960   1.872   9.399   5.561  0.7840 -0.4011 -0.6709
12301SOL     OW48961   4.851   3.454   2.417 -0.4704 -0.4706  0.2967
12301SOL    HW148962   4.796   3.422   2.495  0.7246 -2.6141  0.3014
12301SOL    HW248963   4.805   3.431   2.332 -0.7073 -0.1280  0.3300
12302SOL     OW48964   5.875   3.121   1.301  0.1082  0.4063 -0.9908
12302SOL    HW148965   5.860   3.023   1.289 -2.1934  0.5680  0.4517
12302SOL    HW248966   5.849   3.169   1.217 -0.3512 -0.0583 -1.1140
12303SOL     OW48967   7.204   2.449   2.871  0.0481  0.4178 -0.2419
12303SOL    HW148968   7.251   2.472   2.786 -0.8837 -0.8933 -1.1322
12303SOL    HW248969   7.114   2.492   2.871  0.3122  0.9686  0.3858
12304SOL     OW48970   7.181   0.419   3.486  0.2420 -0.4979  0.4607
12304SOL    HW148971   7.082   0.415   3.502  0.1484 -0.1582 -0.0371
12304SOL    HW248972   7.212   0.332   3.447  0.3518 -1.0717  1.8115
12305SOL     OW48973   4.167   4.792   0.922  0.0496 -0.0717 -0.4999
12305SOL    HW148974   4.150   4.887   0.898 -0.6253 -0.1019 -0.1637
12305SOL    HW248975   4.096   4.734   0.882 -0.8693 -0.1665  1.2308
12306SOL     OW48976   5.509   1.651   3.439  0.1031  0.7309  0.1776
12306SOL    HW148977   5.437   1.613   3.380 -0.4686  0.4774  1.0225
12306SOL    HW248978   5.476   1.654   3.533  1.4379 -0.0070  0.6893
12307SOL     OW48979   9.507   8.707   9.861 -0.1881  0.0240 -0.5152
12307SOL    HW148980   9.488   8.685   9.765  0.5920  0.0792 -0.6802
12307SOL    HW248981   9.421   8.732   9.906 -0.6547 -0.6399 -1.0268
12308SOL     OW48982   2.289   2.491   8.705 -0.0384  0.2474  0.7121
12308SOL    HW148983   2.269   2.395   8.685 -0.8256  0.2857  1.3214
12308SOL    HW248984   2.204   2.543   8.712  0.4632  1.8931 -3.8731
12309SOL     OW48985   9.886   5.433   2.692 -0.1955  0.0461 -0.3392
12309SOL    HW148986   9.861   5.521   2.732  0.8971  0.1822  0.0510
12309SOL    HW248987   9.836   5.421   2.606 -1.1124  0.5921  0.0997
12310SOL     OW48988   3.569   3.775   4.559 -0.1374  0.0518  0.6515
12310SOL    HW148989   3.500   3.749   4.626 -0.4527  1.0125  0.7124
12310SOL    HW248990   3.535   3.758   4.466 -0.5898  0.8328  0.6720
12311SOL     OW48991   7.349   0.885   3.063  0.1298  0.6290  0.2181
12311SOL    HW148992   7.383   0.815   3.001 -0.9862  2.0411 -2.0476
12311SOL    HW248993   7.284   0.845   3.127 -0.4228 -0.4194 -0.9955
12312SOL     OW48994   8.994   8.732   5.642 -0.2647 -0.7458  0.7589
12312SOL    HW148995   9.071   8.778   5.686 -0.3379  0.9165 -0.7969
12312SOL    HW248996   8.916   8.794   5.638  0.4059 -0.0196 -3.5772
12313SOL     OW48997   1.433   1.063   4.506  0.0099  0.1233 -0.4029
12313SOL    HW148998   1.422   1.008   4.589  1.6149  0.1062 -0.1817
12313SOL    HW248999   1.523   1.046   4.466 -0.4552  0.7014 -1.7425
12314SOL     OW49000   6.946   3.917   7.718 -0.0175  0.2206 -0.1676
12314SOL    HW149001   6.922   3.821   7.711 -1.1440  0.5035 -0.3351
12314SOL    HW249002   6.874   3.966   7.767  0.4583  1.0027 -0.2367
12315SOL     OW49003   3.940   9.887   3.193 -0.6338  0.0191 -0.0821
12315SOL    HW149004   4.021   9.850   3.148  0.0023  1.6038 -0.2846
12315SOL    HW249005   3.942   9.987   3.188 -3.1641  0.0711 -1.0800
12316SOL     OW49006   4.303   2.948   0.498 -0.0369 -0.3170  0.0696
12316SOL    HW149007   4.386   3.004   0.489  1.6815 -2.9138 -0.6730
12316SOL    HW249008   4.232   2.986   0.438 -0.0500  2.9858  2.0272
12317SOL     OW49009   2.132   8.912   1.215  0.7645  0.0216  0.6824
12317SOL    HW149010   2.094   8.910   1.122  0.2858  0.5581  0.8662
12317SOL    HW249011   2.141   8.818   1.249 -0.3234 -0.1204  0.6051
12318SOL     OW49012   9.733   2.955   3.258  0.0607  0.4770 -0.3196
12318SOL    HW149013   9.649   2.905   3.242  0.0598  0.5623 -0.5750
12318SOL    HW249014   9.750   2.961   3.357  0.1778 -0.2169 -0.2984
12319SOL     OW49015   2.432   3.869   7.748 -0.1220  0.0003 -0.6740
12319SOL    HW149016   2.525   3.905   7.759 -0.2024 -0.0403  0.1110
12319SOL    HW249017   2.367   3.944   7.746 -0.1505 -0.0180 -0.4351
12320SOL     OW49018   5.761   7.300   5.778  0.3670  0.0832 -0.0459
12320SOL    HW149019   5.820   7.258   5.846  0.0534  0.6831  0.6069
12320SOL    HW249020   5.772   7.400   5.780  0.8046  0.0769 -1.2941
12321SOL     OW49021   3.342   8.244   0.523  0.1381 -0.2057  0.0786
12321SOL    HW149022   3.388   8.155   0.520 -0.5184 -0.5563  0.3425
12321SOL    HW249023   3.268   8.247   0.456 -0.1619 -0.0416  0.4108
12322SOL     OW49024   4.407   0.154   2.094  0.1890  0.0171 -0.0812
12322SOL    HW149025   4.468   0.229   2.070  0.6447 -0.7944 -1.5932
12322SOL    HW249026   4.321   0.164   2.044  1.2329 -1.8130 -2.4105
12323SOL     OW49027   9.445   2.947   2.188  0.1285 -0.1213  0.2859
12323SOL    HW149028   9.478   2.865   2.235 -2.1316  0.3903  2.8752
12323SOL    HW249029   9.350   2.934   2.162 -0.0245  1.4171  0.0435
12324SOL     OW49030   4.515   9.122   2.709 -0.6771 -0.5156  0.0365
12324SOL    HW149031   4.417   9.138   2.710 -0.6046 -0.0841  0.3888
12324SOL    HW249032   4.539   9.068   2.629 -1.1663 -0.3992 -0.1905
12325SOL     OW49033   3.987   2.336   6.027 -0.3102  0.2849 -0.1293
12325SOL    HW149034   3.925   2.269   6.068 -1.5782  1.5036 -0.0235
12325SOL    HW249035   4.066   2.289   5.988 -0.8503 -1.2048  0.5483
12326SOL     OW49036   0.256   0.385   5.874  0.1849 -0.1968 -0.2406
12326SOL    HW149037   0.263   0.296   5.919  1.0288  0.1484  0.3254
12326SOL    HW249038   0.318   0.450   5.918  1.1974  0.1001 -2.0221
12327SOL     OW49039   3.541   2.010   3.932  0.2305  0.0388 -0.2474
12327SOL    HW149040   3.602   1.932   3.918  0.0245 -0.0689 -0.5722
12327SOL    HW249041   3.486   2.024   3.849  1.4988  1.6257 -0.8276
12328SOL     OW49042   7.638   9.236   2.470 -0.2594  0.0383  0.1485
12328SOL    HW149043   7.709   9.183   2.423 -0.4042 -1.4955  1.6195
12328SOL    HW249044   7.637   9.329   2.433  0.8413 -0.6072 -1.6086
12329SOL     OW49045   5.442   4.460   9.398  0.0821 -0.2272 -0.3734
12329SOL    HW149046   5.384   4.432   9.474  0.8899 -2.1557 -0.4331
12329SOL    HW249047   5.454   4.560   9.399 -3.3206  0.2114 -0.4688
12330SOL     OW49048   9.132   1.834   6.085 -0.0874  0.4595  0.2959
12330SOL    HW149049   9.152   1.758   6.147 -0.8379  0.9789  1.2001
12330SOL    HW249050   9.088   1.908   6.137 -0.1832  1.1445 -0.7483
12331SOL     OW49051   5.120   4.079   0.606  0.2688  0.1736 -0.3072
12331SOL    HW149052   5.046   4.134   0.569  0.2828  0.1741 -0.3353
12331SOL    HW249053   5.105   3.983   0.583 -0.0406  0.0966  0.2093
12332SOL     OW49054   0.100   0.387   7.248 -0.2573  0.0620  0.1635
12332SOL    HW149055   0.181   0.446   7.250 -1.3521  1.5863  0.1771
12332SOL    HW249056   0.107   0.319   7.321  0.3334  1.1048  1.1068
12333SOL     OW49057   3.793   0.578   4.774 -0.4651  0.0806 -0.5562
12333SOL    HW149058   3.809   0.654   4.710  1.3034  0.2011  0.0139
12333SOL    HW249059   3.767   0.615   4.863 -1.5897 -0.0579 -0.8120
12334SOL     OW49060   4.985   0.898   6.483  0.4234  0.1195 -0.1923
12334SOL    HW149061   4.999   0.931   6.576 -2.0582 -0.5323  0.4680
12334SOL    HW249062   5.003   0.972   6.418  0.5309  1.0765  0.9166
12335SOL     OW49063   8.808   9.317   4.687  0.3851  0.7885 -0.3015
12335SOL    HW149064   8.767   9.226   4.680 -1.0091  1.4727 -1.4667
12335SOL    HW249065   8.880   9.317   4.757 -0.0981 -1.0138  0.2109
12336SOL     OW49066   3.971   5.515   8.312 -0.3124  0.3147  0.3726
12336SOL    HW149067   3.987   5.487   8.407  1.8641 -1.2013 -0.4106
12336SOL    HW249068   4.047   5.572   8.281 -0.3896 -0.2670 -0.8866
12337SOL     OW49069   9.417   1.534   1.939 -0.0314 -0.4686 -0.5507
12337SOL    HW149070   9.467   1.525   2.026 -0.5442  0.4753 -0.1491
12337SOL    HW249071   9.349   1.462   1.933 -0.3414 -0.2347  0.0739
12338SOL     OW49072   5.024   9.446   0.227  0.0581 -0.1667  0.0576
12338SOL    HW149073   5.084   9.469   0.304  0.0330 -1.1904  0.3920
12338SOL    HW249074   4.989   9.353   0.239 -0.2668 -0.1814 -0.9956
12339SOL     OW49075   0.105   0.905   2.869 -0.3856 -0.3360 -0.3179
12339SOL    HW149076   0.052   0.887   2.787 -0.3925 -0.5071 -0.2783
12339SOL    HW249077   0.159   0.988   2.858 -0.9811  0.0637 -0.1981
12340SOL     OW49078   0.893   7.341   3.125 -0.0668 -0.0920  0.1636
12340SOL    HW149079   0.975   7.318   3.177 -1.3740 -0.1634  2.2923
12340SOL    HW249080   0.918   7.386   3.040  2.1813 -0.4664  0.6066
12341SOL     OW49081   4.189   1.353   3.191 -0.3095 -0.2928 -0.2754
12341SOL    HW149082   4.120   1.296   3.235 -0.7504 -0.9674 -1.8357
12341SOL    HW249083   4.165   1.368   3.095  0.2522  1.8099 -0.1215
12342SOL     OW49084   1.725   8.300   3.427 -0.1264 -0.0980  0.0836
12342SOL    HW149085   1.639   8.351   3.425  0.8009  1.5536  1.0007
12342SOL    HW249086   1.739   8.255   3.339 -2.2469 -0.9478  0.1512
12343SOL     OW49087   7.896   1.668   6.534 -0.7811  0.0900 -0.2187
12343SOL    HW149088   7.943   1.580   6.529  0.2706  0.7199 -1.7048
12343SOL    HW249089   7.949   1.731   6.590  0.0284  0.7031 -1.6399
12344SOL     OW49090   2.948   9.565   6.680  0.0980 -0.4858  0.2246
12344SOL    HW149091   2.891   9.527   6.754  1.2434 -0.5504  1.0897
12344SOL    HW249092   2.929   9.516   6.595 -1.3390 -0.3153  0.4410
12345SOL     OW49093   6.191   0.480   2.774  0.2412 -0.4700  0.4733
12345SOL    HW149094   6.093   0.499   2.780  0.0172 -1.6999  0.8959
12345SOL    HW249095   6.242   0.566   2.778 -0.6975  0.0237  2.8155
12346SOL     OW49096   5.971   3.880   1.511  0.1889  0.1610  0.2665
12346SOL    HW149097   5.920   3.794   1.518  2.1786 -0.9939  1.1537
12346SOL    HW249098   6.068   3.860   1.500  0.8455  2.3062  1.7457
12347SOL     OW49099   7.487   8.006   1.358 -0.1711 -0.4978  0.7294
12347SOL    HW149100   7.410   8.061   1.392 -0.1750 -0.7738  1.1694
12347SOL    HW249101   7.454   7.941   1.291 -0.5295 -1.4296  1.7876
12348SOL     OW49102   5.149   0.781   8.205  0.3424  0.3014  0.8855
12348SOL    HW149103   5.086   0.838   8.258  1.3431  1.6836  0.6032
12348SOL    HW249104   5.166   0.824   8.116  2.8723  0.7489  1.5470
12349SOL     OW49105   6.015   6.073   4.068  0.3500  0.2180  0.1430
12349SOL    HW149106   6.108   6.090   4.035  1.0240 -1.2112  1.2573
12349SOL    HW249107   5.951   6.076   3.991  1.4925 -0.1180 -0.8316
12350SOL     OW49108   4.173   9.779   1.489 -0.5250 -0.0152 -0.2159
12350SOL    HW149109   4.231   9.745   1.563 -0.6862 -0.4220 -0.2750
12350SOL    HW249110   4.185   9.878   1.481 -0.3152 -0.0033  0.1860
12351SOL     OW49111   7.148   1.296   0.854 -0.3652 -0.3276  0.5631
12351SOL    HW149112   7.072   1.238   0.883 -0.0045 -0.6999  0.7920
12351SOL    HW249113   7.185   1.261   0.768 -0.2714 -0.3250  0.6020
12352SOL     OW49114   3.896   5.925   1.934  0.1864  0.3344 -0.1125
12352SOL    HW149115   3.891   6.014   1.889  2.1669 -0.5873 -2.2706
12352SOL    HW249116   3.841   5.859   1.883 -1.1661  0.2496  1.4049
12353SOL     OW49117   7.622   0.361   1.028 -0.4508 -0.5002 -0.4071
12353SOL    HW149118   7.675   0.432   1.075 -2.4067 -0.5438  2.0241
12353SOL    HW249119   7.528   0.394   1.015 -1.1538 -2.2977  0.0072
12354SOL     OW49120   1.650   5.924   8.693  0.2023 -0.0634 -0.0301
12354SOL    HW149121   1.731   5.936   8.635  0.8418 -1.9379  0.4701
12354SOL    HW249122   1.569   5.947   8.640  0.9104  0.0356 -1.0997
12355SOL     OW49123   9.193   4.474   1.433  0.2724 -0.1716  0.3122
12355SOL    HW149124   9.251   4.555   1.439  0.3642 -0.2924  1.0283
12355SOL    HW249125   9.248   4.392   1.446 -0.1396 -0.2637  1.4766
12356SOL     OW49126   7.959   1.670   1.498  0.3037 -0.0547  0.2263
12356SOL    HW149127   7.989   1.578   1.523 -1.0574 -0.6641 -0.3508
12356SOL    HW249128   8.000   1.696   1.410  0.3488 -0.2807  0.1808
12357SOL     OW49129   5.853   8.067   0.026  0.5396  0.0923  0.5121
12357SOL    HW149130   5.874   8.134   0.097  1.5205 -0.4112  0.7204
12357SOL    HW249131   5.795   8.108  -0.043 -2.2075  0.0063  2.6846
12358SOL     OW49132   4.994   4.547   3.196 -0.2350  0.0563  0.5018
12358SOL    HW149133   4.915   4.518   3.143 -0.5350 -0.0250  0.9860
12358SOL    HW249134   5.039   4.624   3.150  0.6146 -1.2198 -0.8357
12359SOL     OW49135   4.124   7.246   8.677  0.5893  0.4454 -0.0270
12359SOL    HW149136   4.025   7.246   8.689  0.3908  2.5799 -1.3140
12359SOL    HW249137   4.168   7.259   8.766 -0.1818 -2.3544  0.8125
12360SOL     OW49138   4.456   6.892   4.709  0.6875 -0.0165 -0.1263
12360SOL    HW149139   4.370   6.846   4.690  0.9205 -0.3624 -0.3617
12360SOL    HW249140   4.521   6.826   4.747  1.5140 -0.2481 -1.8760
12361SOL     OW49141   0.262   1.710   3.195  0.0972 -0.1149 -0.0071
12361SOL    HW149142   0.231   1.615   3.185  0.7527 -0.1284 -2.0314
12361SOL    HW249143   0.195   1.772   3.156  0.1550  0.2042  0.3917
12362SOL     OW49144   2.673   0.125   0.372  0.2877  0.3000 -0.1479
12362SOL    HW149145   2.772   0.126   0.359  0.5629  1.5260  1.8037
12362SOL    HW249146   2.648   0.045   0.427  0.0672 -0.5836 -1.5314
12363SOL     OW49147   5.129   2.541   2.288  1.0364  0.1277  0.7823
12363SOL    HW149148   5.091   2.490   2.211 -1.6197  0.6763  1.6866
12363SOL    HW249149   5.158   2.632   2.256 -1.3705  0.8947  0.6578
12364SOL     OW49150   5.863   0.507   6.826  0.0360 -0.2045 -0.0007
12364SOL    HW149151   5.901   0.594   6.857 -1.8589  0.3875  0.7510
12364SOL    HW249152   5.834   0.453   6.905 -0.3139 -0.7969 -0.5324
12365SOL     OW49153   6.463   4.729   0.685  0.7808 -0.2646 -0.0998
12365SOL    HW149154   6.559   4.703   0.687  0.8787  0.1635  1.0453
12365SOL    HW249155   6.447   4.805   0.748 -0.7259 -1.7959  1.4023
12366SOL     OW49156   7.571   3.963   4.389  0.9622  0.0864 -0.7121
12366SOL    HW149157   7.543   3.869   4.409  2.3976 -0.3467 -0.6602
12366SOL    HW249158   7.612   3.967   4.297 -0.5219  0.9728 -1.3515
12367SOL     OW49159   5.564   2.452   0.162 -0.0532  0.2059  0.8252
12367SOL    HW149160   5.573   2.515   0.085 -2.7907 -0.1051  0.2102
12367SOL    HW249161   5.625   2.373   0.148  2.9471  2.3307  1.3150
12368SOL     OW49162   2.877   2.784   8.962  0.6978 -0.6942  0.2748
12368SOL    HW149163   2.826   2.750   9.041  1.8231 -2.3359  0.2995
12368SOL    HW249164   2.814   2.805   8.887 -0.4166  1.2031  1.7006
12369SOL     OW49165   6.283   4.938   3.577 -0.1037 -0.3825 -0.3025
12369SOL    HW149166   6.337   4.919   3.495 -1.0724 -1.1505 -0.7848
12369SOL    HW249167   6.188   4.955   3.550 -0.1068  0.9632  0.5280
12370SOL     OW49168   6.117   8.880   8.885 -0.2710 -0.6298  0.2225
12370SOL    HW149169   6.098   8.875   8.787  0.1544  0.1802  0.0960
12370SOL    HW249170   6.216   8.879   8.900 -0.2814  1.2017  0.5205
12371SOL     OW49171   2.263   5.176   1.429  0.3342 -0.1226  0.4597
12371SOL    HW149172   2.213   5.102   1.476  1.5887 -0.3044  1.5316
12371SOL    HW249173   2.338   5.207   1.487  1.3410  0.3021 -1.0470
12372SOL     OW49174   4.301   1.249   2.341  0.2039 -0.1115  0.4696
12372SOL    HW149175   4.218   1.294   2.308 -0.4439  0.1550  2.4015
12372SOL    HW249176   4.312   1.161   2.295 -0.1886  0.6211 -1.0720
12373SOL     OW49177   2.901   0.936   5.851  0.0334 -0.4516 -0.7159
12373SOL    HW149178   2.986   0.889   5.874 -0.9062 -0.7066  2.3715
12373SOL    HW249179   2.849   0.882   5.785  0.6872 -1.9461 -0.0108
12374SOL     OW49180   9.599   2.974   4.626  0.0825  0.0453  0.2862
12374SOL    HW149181   9.540   2.900   4.595  1.8159 -1.4446  0.5161
12374SOL    HW249182   9.566   3.061   4.588 -1.5398 -0.9175 -0.5426
12375SOL     OW49183   1.688   2.411   6.128  0.1446 -0.1543 -0.1618
12375SOL    HW149184   1.768   2.353   6.113 -1.3310 -2.3921  0.4158
12375SOL    HW249185   1.675   2.426   6.226  1.6178  2.7966 -0.3614
12376SOL     OW49186   7.781   1.261   3.823  0.0671 -0.4276 -0.4673
12376SOL    HW149187   7.750   1.200   3.897  0.9643  0.9991  1.1295
12376SOL    HW249188   7.741   1.352   3.836  3.2093  0.8904  0.4761
12377SOL     OW49189   6.740   0.782   6.031  0.1878  0.3181 -0.1231
12377SOL    HW149190   6.693   0.728   6.101  3.1415 -1.4197  0.5905
12377SOL    HW249191   6.759   0.724   5.952 -0.3809  1.4830 -1.1347
12378SOL     OW49192   7.009   0.939   4.275 -0.1861 -0.2318 -0.4452
12378SOL    HW149193   7.043   0.988   4.195  0.5800 -1.0072 -0.6008
12378SOL    HW249194   7.023   0.841   4.262 -0.6140 -0.4002  0.3774
12379SOL     OW49195   3.172   3.568   5.031  0.1347  0.6114 -0.2503
12379SOL    HW149196   3.152   3.515   5.114  1.1814  1.6180  0.6616
12379SOL    HW249197   3.266   3.552   5.003  0.2185  1.3601 -0.4200
12380SOL     OW49198   9.607   1.936   7.798 -0.7049 -0.6161  0.3621
12380SOL    HW149199   9.700   1.940   7.762 -0.5755  0.5094  0.7941
12380SOL    HW249200   9.546   1.897   7.729  0.2114 -2.0706  0.3558
12381SOL     OW49201   5.949   2.565   2.370  0.5542 -0.5443 -0.5124
12381SOL    HW149202   5.996   2.594   2.453 -0.2146 -0.6994 -0.0101
12381SOL    HW249203   6.013   2.561   2.294  1.1547  0.1140 -0.0389
12382SOL     OW49204   6.739   6.858   2.343 -0.2563  0.2562  0.0453
12382SOL    HW149205   6.783   6.771   2.366 -0.4574  0.1323 -0.0407
12382SOL    HW249206   6.682   6.887   2.420  0.4105  0.6928  0.3761
12383SOL     OW49207   7.838   2.947   2.088  0.2369  0.2809 -0.3026
12383SOL    HW149208   7.753   2.894   2.093 -0.1057  0.9235  0.8628
12383SOL    HW249209   7.816   3.043   2.075  0.8278  0.3009 -1.1664
12384SOL     OW49210   4.859   0.555   5.736 -0.2398 -0.7963 -0.7800
12384SOL    HW149211   4.761   0.540   5.723 -0.1088 -2.0372 -0.3780
12384SOL    HW249212   4.906   0.546   5.648 -0.6115  0.8825 -1.1659
12385SOL     OW49213   5.205   3.510   1.601 -0.0629 -0.3565 -0.0797
12385SOL    HW149214   5.201   3.520   1.502 -0.5288 -0.4668 -0.0705
12385SOL    HW249215   5.217   3.414   1.625  0.2490 -0.3068 -0.0340
12386SOL     OW49216   3.527   0.440   6.587  0.2398 -0.6333  0.0630
12386SOL    HW149217   3.470   0.509   6.544  0.2731 -1.0401 -0.6503
12386SOL    HW249218   3.562   0.474   6.674 -0.1199  0.0644 -0.0673
12387SOL     OW49219   9.613   2.225   2.180 -0.4569 -0.3967 -0.2955
12387SOL    HW149220   9.638   2.320   2.161 -1.3409  0.2286  1.4651
12387SOL    HW249221   9.515   2.221   2.204 -0.1573 -1.5609  0.7919
12388SOL     OW49222   3.646   0.232   1.416 -0.4757 -0.6512 -0.2137
12388SOL    HW149223   3.617   0.161   1.480 -0.7330 -0.1673  0.2186
12388SOL    HW249224   3.680   0.311   1.468 -2.2521  0.4164 -0.6442
12389SOL     OW49225   1.137   4.381   6.447 -0.3955 -0.2509 -0.7595
12389SOL    HW149226   1.068   4.309   6.437  1.0923 -1.5551 -1.8934
12389SOL    HW249227   1.184   4.369   6.534 -0.1871 -0.6265 -0.9217
12390SOL     OW49228   3.650   3.918   5.241 -0.0684 -0.3283 -0.2891
12390SOL    HW149229   3.618   3.823   5.249  0.5183 -0.5122 -0.0835
12390SOL    HW249230   3.740   3.918   5.197 -0.9954  0.2793 -2.2612
12391SOL     OW49231   2.031   3.570   8.508 -0.4988  0.0558 -0.4601
12391SOL    HW149232   2.087   3.640   8.465  0.2652 -0.7765 -0.8361
12391SOL    HW249233   1.964   3.613   8.568 -0.4582  1.1359 -1.1799
12392SOL     OW49234   1.832   0.316   7.538 -0.1703 -0.2811  0.3644
12392SOL    HW149235   1.795   0.229   7.504  1.2344 -0.9339  0.4713
12392SOL    HW249236   1.777   0.392   7.502 -1.3299 -1.2048  0.1665
12393SOL     OW49237   1.899   9.380   2.017  0.4131  0.1167 -0.1116
12393SOL    HW149238   1.883   9.433   1.933 -0.6647 -0.4688 -0.2833
12393SOL    HW249239   1.879   9.438   2.096 -1.8467 -0.3250 -0.3119
12394SOL     OW49240   8.457   6.566   5.013 -0.0625  0.1215 -0.0615
12394SOL    HW149241   8.429   6.662   5.017 -0.2365  0.1528 -1.6774
12394SOL    HW249242   8.552   6.561   4.983  0.3713 -0.1574  1.3617
12395SOL     OW49243   4.594   0.834   5.702  0.3261  0.2604  0.7150
12395SOL    HW149244   4.593   0.892   5.621  0.7569 -0.3169  0.2912
12395SOL    HW249245   4.505   0.789   5.713  0.3860  0.0552  0.3554
12396SOL     OW49246   1.209   4.886   4.717  0.0092 -0.3628  0.0580
12396SOL    HW149247   1.287   4.829   4.693 -1.0557 -1.3223 -1.1808
12396SOL    HW249248   1.180   4.939   4.637  0.0707  0.8372  0.8060
12397SOL     OW49249   6.705   9.661   4.794  0.2428  0.1667 -0.0534
12397SOL    HW149250   6.782   9.630   4.740  0.3939 -0.6900  0.6393
12397SOL    HW249251   6.733   9.670   4.890 -1.0081 -2.0749  0.5616
12398SOL     OW49252   1.848   2.878   2.358  0.0919 -0.7737 -0.3970
12398SOL    HW149253   1.772   2.939   2.377  0.5525 -0.5294  0.6823
12398SOL    HW249254   1.819   2.807   2.293 -1.1421 -0.8955  0.2862
12399SOL     OW49255   6.072   1.989   9.522  0.1808  0.0184 -0.3251
12399SOL    HW149256   6.094   2.035   9.436  1.4055  1.0918  0.5566
12399SOL    HW249257   6.132   1.910   9.534  0.7365  0.4944  0.0519
12400SOL     OW49258   4.693   2.416   1.753  0.0225  0.3011 -0.0350
12400SOL    HW149259   4.727   2.510   1.747  1.9102 -0.2609  1.3992
12400SOL    HW249260   4.653   2.402   1.844  0.1650 -0.4106 -0.0827
12401SOL     OW49261   1.386   2.114   5.963  0.3948 -0.2436 -0.2458
12401SOL    HW149262   1.286   2.117   5.974  0.3162 -2.0826 -0.2025
12401SOL    HW249263   1.426   2.059   6.036  1.4509  0.4681 -0.2777
12402SOL     OW49264   2.601   9.630   9.218  0.2459  0.5664  0.5436
12402SOL    HW149265   2.567   9.542   9.185 -0.0816  1.0329 -0.3636
12402SOL    HW249266   2.594   9.698   9.146  0.6269  1.3118  1.1997
12403SOL     OW49267   2.478   1.414   1.285  0.1838  0.0909 -0.1146
12403SOL    HW149268   2.447   1.469   1.362 -0.8343  0.5331 -0.8355
12403SOL    HW249269   2.416   1.425   1.208  1.2531 -0.2498 -1.0516
12404SOL     OW49270   5.395   4.262   4.472 -0.3053 -0.1633 -0.1911
12404SOL    HW149271   5.447   4.222   4.397 -0.9169 -0.6846 -0.3319
12404SOL    HW249272   5.364   4.190   4.534  0.0807  0.2497  0.4945
12405SOL     OW49273   5.432   9.807   0.338  0.1687 -0.1087  0.2092
12405SOL    HW149274   5.357   9.873   0.341  1.1899  1.0955 -0.2216
12405SOL    HW249275   5.517   9.853   0.365  1.2434 -0.7540 -1.9577
12406SOL     OW49276   7.032   2.243   8.997 -0.0210  0.1695  0.1033
12406SOL    HW149277   7.106   2.197   9.047  0.4720  0.0895 -0.6839
12406SOL    HW249278   7.072   2.314   8.938 -0.6433  0.6059  0.2081
12407SOL     OW49279   5.801   0.067   0.148 -0.4744 -0.1026 -0.4622
12407SOL    HW149280   5.784   0.084   0.051 -0.3778  0.9225 -0.2989
12407SOL    HW249281   5.787   0.151   0.201  0.5015 -0.3916  0.2781
12408SOL     OW49282   4.359   3.059   8.957 -0.2080 -0.0794  0.1322
12408SOL    HW149283   4.293   3.106   8.898 -0.9958 -1.3601 -0.0226
12408SOL    HW249284   4.406   2.988   8.905 -0.0071 -0.3837  0.7238
12409SOL     OW49285   5.274   2.749   1.081 -0.1212 -1.1689  0.8042
12409SOL    HW149286   5.372   2.744   1.067 -0.0227  0.9081  0.7326
12409SOL    HW249287   5.227   2.708   1.003  0.6303  0.5922 -0.5858
12410SOL     OW49288   8.748   2.103   6.150 -0.2449  0.0659 -0.0576
12410SOL    HW149289   8.652   2.123   6.127  0.1355  2.6876  0.4968
12410SOL    HW249290   8.808   2.144   6.082  0.5923  1.1586  1.3080
12411SOL     OW49291   3.327   2.909   8.591 -0.5655 -0.4962 -0.1303
12411SOL    HW149292   3.245   2.955   8.624 -0.0813  0.8682 -0.7792
12411SOL    HW249293   3.309   2.811   8.580 -1.1257 -0.7570  2.8351
12412SOL     OW49294   9.412   3.740   3.214  0.0797 -0.1006 -0.0796
12412SOL    HW149295   9.346   3.719   3.142 -0.1597  1.8574 -0.4654
12412SOL    HW249296   9.495   3.684   3.202 -0.8641 -1.4278 -0.5101
12413SOL     OW49297   5.367   3.934   1.425  0.3438 -0.0782 -0.0023
12413SOL    HW149298   5.447   3.950   1.483 -1.8304  2.5839  2.3945
12413SOL    HW249299   5.296   3.888   1.478 -1.2407  1.2685 -0.9151
12414SOL     OW49300   3.598   1.196   6.078  0.1987  0.1778  0.3722
12414SOL    HW149301   3.676   1.135   6.082 -0.0785 -0.1422  0.8681
12414SOL    HW249302   3.519   1.154   6.123 -0.0784  0.7675  0.4493
12415SOL     OW49303   3.604   9.299   3.448 -0.2185  0.0831  0.3384
12415SOL    HW149304   3.533   9.268   3.512 -0.2379  1.5512  1.0298
12415SOL    HW249305   3.659   9.371   3.490 -0.1287  0.9631 -1.2408
12416SOL     OW49306   2.965   9.632   3.436 -0.3010 -0.3479  0.1642
12416SOL    HW149307   3.009   9.608   3.522  1.4001 -0.0298 -0.6023
12416SOL    HW249308   2.889   9.695   3.454  0.0545 -0.2750  1.4231
12417SOL     OW49309   3.883   9.283   1.782 -0.7649  0.1116  0.2469
12417SOL    HW149310   3.830   9.250   1.704  0.3414  0.7570 -0.7815
12417SOL    HW249311   3.820   9.322   1.850 -1.9146 -2.3499  0.6447
12418SOL     OW49312   5.168   3.635   9.574  0.1450  0.1966  0.0259
12418SOL    HW149313   5.194   3.558   9.517  1.5101 -0.5132  1.5619
12418SOL    HW249314   5.229   3.640   9.654 -0.9421  1.8848  0.7871
12419SOL     OW49315   3.122   1.293   5.018  0.1324 -0.3587  0.5155
12419SOL    HW149316   3.149   1.385   4.990 -0.7547 -0.0147  0.7772
12419SOL    HW249317   3.056   1.256   4.953  0.0781 -0.5895  0.7033
12420SOL     OW49318   9.251   5.474   3.631  0.4405  0.0365 -0.0902
12420SOL    HW149319   9.254   5.399   3.697  0.4437 -0.5486 -0.7547
12420SOL    HW249320   9.186   5.452   3.558  1.4619  0.0780 -1.0196
12421SOL     OW49321   6.664   7.691   3.479 -0.0926 -0.5122  1.0316
12421SOL    HW149322   6.580   7.648   3.445 -0.6847  0.2750  1.5048
12421SOL    HW249323   6.641   7.774   3.529  1.0499  0.2824  0.2362
12422SOL     OW49324   0.558   3.353   2.609 -0.2700 -0.3736  0.0852
12422SOL    HW149325   0.550   3.444   2.569  0.7318 -0.6951 -0.8829
12422SOL    HW249326   0.638   3.307   2.570 -2.3328 -2.7274 -1.5323
12423SOL     OW49327   6.507   4.839   2.867  0.5424  0.2129 -0.1861
12423SOL    HW149328   6.504   4.926   2.917  0.9416  0.5813 -0.7964
12423SOL    HW249329   6.559   4.851   2.782  0.0155 -0.4511 -0.6073
12424SOL     OW49330   9.089   4.179   6.259 -0.1936  0.0992  0.4442
12424SOL    HW149331   9.109   4.277   6.268  0.7582 -0.2996  2.7842
12424SOL    HW249332   9.167   4.126   6.290  0.0989 -1.4444 -2.7300
12425SOL     OW49333   4.094   6.326   6.076  0.5226 -0.4031  0.0556
12425SOL    HW149334   4.057   6.233   6.080  1.3508 -0.7490 -0.3029
12425SOL    HW249335   4.019   6.390   6.058  0.3604 -1.3136 -2.7803
12426SOL     OW49336   3.112   2.172   7.982 -0.1589 -0.3810 -0.1342
12426SOL    HW149337   3.078   2.213   7.898  2.3083  0.6419 -0.7013
12426SOL    HW249338   3.040   2.119   8.026 -1.9417  0.4052 -2.0468
12427SOL     OW49339   5.820   5.338   0.786  0.1415 -0.2438 -0.1747
12427SOL    HW149340   5.911   5.349   0.827  0.8747 -1.4964 -1.4253
12427SOL    HW249341   5.778   5.428   0.773  1.4458  0.3857 -0.1485
12428SOL     OW49342   6.320   3.024   3.201  0.3345 -0.5548 -0.0530
12428SOL    HW149343   6.251   3.027   3.273  0.0303 -1.2604 -0.3077
12428SOL    HW249344   6.351   2.929   3.188 -0.0813 -0.5311 -1.2842
12429SOL     OW49345   9.561   4.085   6.644  0.1552 -0.4601 -0.2182
12429SOL    HW149346   9.489   4.129   6.591  0.9214 -0.0113 -0.9042
12429SOL    HW249347   9.523   4.048   6.729 -0.8922 -0.3240 -0.6294
12430SOL     OW49348   3.306   4.788   2.448  0.2631  0.4402  0.6031
12430SOL    HW149349   3.381   4.723   2.436 -1.1806 -1.2528  0.5306
12430SOL    HW249350   3.251   4.762   2.528 -0.2959  1.6066  0.6153
12431SOL     OW49351   4.739   1.918   6.835 -0.3043 -0.1062  0.2851
12431SOL    HW149352   4.801   1.888   6.763 -0.1321  0.9161 -0.0123
12431SOL    HW249353   4.654   1.952   6.795 -0.7397 -0.7662  0.6446
12432SOL     OW49354   9.479   2.360   2.446  0.3596  0.0418 -0.6416
12432SOL    HW149355   9.427   2.411   2.515  1.0220  1.9703 -1.5571
12432SOL    HW249356   9.422   2.347   2.365 -0.6878 -2.8833  0.4981
12433SOL     OW49357   9.042   0.437   5.241 -0.9362 -0.0189  0.1646
12433SOL    HW149358   9.058   0.459   5.145  0.1865 -3.3675 -0.4898
12433SOL    HW249359   9.113   0.375   5.274 -1.5397  0.7342  3.0582
12434SOL     OW49360   5.144   3.588   5.389  0.0340  0.5659 -0.0383
12434SOL    HW149361   5.162   3.609   5.293 -1.0681  2.5716  0.1536
12434SOL    HW249362   5.045   3.582   5.403  0.1822  0.6599  1.0474
12435SOL     OW49363   1.209   7.927   3.867 -0.3471  0.1644  0.0335
12435SOL    HW149364   1.299   7.970   3.861 -0.8090  1.0309 -0.5832
12435SOL    HW249365   1.138   7.994   3.848 -1.2421 -0.0215  2.4520
12436SOL     OW49366   1.118   1.285   1.414  0.5224 -0.1220 -0.0096
12436SOL    HW149367   1.163   1.368   1.381  0.1396  1.1969  2.6868
12436SOL    HW249368   1.020   1.301   1.423  0.3395 -1.1014 -0.1548
12437SOL     OW49369   6.979   3.766   2.606 -0.3486  0.1070 -0.0815
12437SOL    HW149370   6.948   3.841   2.547 -2.1434 -0.8760 -0.4277
12437SOL    HW249371   6.979   3.797   2.701 -1.6312  0.3962 -0.1617
12438SOL     OW49372   7.560   2.993   3.034 -0.3004  0.3251  0.4002
12438SOL    HW149373   7.536   3.061   3.103  1.3121  2.1769 -0.8117
12438SOL    HW249374   7.494   2.998   2.959  1.9109  3.2714 -1.4735
12439SOL     OW49375   7.235   7.569   2.842  0.2863  0.0799 -0.4264
12439SOL    HW149376   7.233   7.604   2.936 -0.0842  0.6825 -0.6576
12439SOL    HW249377   7.256   7.471   2.843  0.3744  0.1065  0.2792
12440SOL     OW49378   3.417   9.744   2.518  0.4725 -0.8871 -0.7355
12440SOL    HW149379   3.504   9.724   2.563 -0.2675  0.0377  1.1724
12440SOL    HW249380   3.344   9.744   2.586 -0.6277  0.9420 -1.8856
12441SOL     OW49381   7.342   1.335   4.619 -0.3180  0.0083 -0.2173
12441SOL    HW149382   7.302   1.258   4.570  1.8841  0.4051 -2.7635
12441SOL    HW249383   7.290   1.418   4.599  0.7509  0.2213 -2.1653
12442SOL     OW49384   4.404   4.883   5.353  0.1136 -0.1829 -0.5725
12442SOL    HW149385   4.360   4.968   5.324  0.5054  0.8023  1.5987
12442SOL    HW249386   4.503   4.897   5.358  0.1767 -0.7435 -0.1774
12443SOL     OW49387   2.678   2.271   6.468 -0.1925 -0.2470  0.9157
12443SOL    HW149388   2.580   2.272   6.484 -0.3449  0.0069 -0.0356
12443SOL    HW249389   2.701   2.200   6.401  0.1671  0.3158  0.4398
12444SOL     OW49390   3.194   3.962   5.217 -0.1909 -0.1901  0.3237
12444SOL    HW149391   3.265   3.938   5.283 -1.8393  0.5706  2.4398
12444SOL    HW249392   3.121   3.894   5.221 -1.1246  0.8137  0.5697
12445SOL     OW49393   8.110   2.672   4.343  0.5382 -0.5018  0.0372
12445SOL    HW149394   8.077   2.629   4.260 -1.2346  1.0202 -0.0831
12445SOL    HW249395   8.032   2.698   4.400  1.6863 -0.3512  1.5690
12446SOL     OW49396   8.191   2.171   3.375  0.2139 -0.0942 -0.2771
12446SOL    HW149397   8.098   2.158   3.342 -0.4267  0.5121  1.2191
12446SOL    HW249398   8.218   2.093   3.431  0.6675 -0.3330 -0.8196
12447SOL     OW49399   7.860   0.049   4.928 -0.4621  0.1391  0.1900
12447SOL    HW149400   7.955   0.022   4.913 -0.2224  0.9082  0.3133
12447SOL    HW249401   7.801  -0.031   4.918  0.2430 -0.4407  0.6134
12448SOL     OW49402   6.292   1.988   2.022 -0.3016  0.3886 -0.8979
12448SOL    HW149403   6.194   1.993   2.037 -0.1913  1.5730 -0.5142
12448SOL    HW249404   6.315   2.038   1.938  0.0855  0.9253 -0.4720
12449SOL     OW49405   4.731   1.765   8.003  0.1768  0.2073  0.1297
12449SOL    HW149406   4.789   1.822   7.945 -3.5065  1.6421 -2.3254
12449SOL    HW249407   4.711   1.813   8.088  0.0454  1.0212 -0.3569
12450SOL     OW49408   4.791   7.671   3.010  0.3201  0.2792  0.5886
12450SOL    HW149409   4.817   7.768   3.003 -2.3276  0.9481 -0.8588
12450SOL    HW249410   4.711   7.662   3.070 -0.3087 -0.8280 -0.3951
12451SOL     OW49411   1.499   3.319   4.483 -0.2574  0.1120 -0.1368
12451SOL    HW149412   1.567   3.253   4.514  0.2964  0.1619 -1.2124
12451SOL    HW249413   1.418   3.271   4.450  0.6529 -0.1041 -2.1204
12452SOL     OW49414   2.445   8.230   2.822  0.1093 -0.3108 -0.5891
12452SOL    HW149415   2.395   8.255   2.740  0.6918 -0.8160 -1.1004
12452SOL    HW249416   2.540   8.210   2.798 -0.0505 -1.8092  0.0084
12453SOL     OW49417   7.071   2.843   3.550  0.3349  0.8734 -0.6080
12453SOL    HW149418   6.993   2.781   3.546  0.1605  1.0651 -0.1857
12453SOL    HW249419   7.055   2.913   3.619  0.2824  1.7304 -1.4749
12454SOL     OW49420   6.598   2.644   3.003 -0.3743 -0.0525  0.4750
12454SOL    HW149421   6.601   2.740   2.975  0.7593  0.2299  1.5130
12454SOL    HW249422   6.618   2.637   3.101  0.1980 -1.3922  0.2755
12455SOL     OW49423   4.857   0.056   8.804 -0.9748  0.1320  0.7687
12455SOL    HW149424   4.920   0.085   8.733  0.0546  2.2055  2.4689
12455SOL    HW249425   4.893  -0.027   8.848  0.4181  1.0996  1.4888
12456SOL     OW49426   3.849   7.415   0.998 -0.5573  0.5048 -0.1509
12456SOL    HW149427   3.888   7.330   1.034  0.8292  0.2497 -2.1613
12456SOL    HW249428   3.910   7.491   1.020 -1.0147  0.7517  0.2808
12457SOL     OW49429   2.233   4.003   3.618 -0.1406 -0.3627  0.1745
12457SOL    HW149430   2.272   4.073   3.678  2.1848 -0.8417 -0.7436
12457SOL    HW249431   2.285   3.919   3.627 -0.6626 -0.8780 -1.4482
12458SOL     OW49432   7.425   9.086   2.551  0.1125  0.4676 -0.0242
12458SOL    HW149433   7.343   9.142   2.565  0.4033  0.8707  0.0746
12458SOL    HW249434   7.500   9.144   2.521  0.5297  0.1885  0.4816
12459SOL     OW49435   8.856   1.810   4.183 -0.1758  0.3422 -0.5482
12459SOL    HW149436   8.861   1.780   4.278  0.5782 -2.1518 -1.3280
12459SOL    HW249437   8.760   1.829   4.159 -0.9560 -3.0841 -0.4315
12460SOL     OW49438   4.029   1.135   8.217 -0.5659 -0.4986 -0.9494
12460SOL    HW149439   4.125   1.158   8.203  0.4381 -2.4716  2.1482
12460SOL    HW249440   4.000   1.068   8.147  0.4282 -0.2668 -1.5932
12461SOL     OW49441   9.115   1.634   6.272  0.4819 -0.1846  0.2174
12461SOL    HW149442   9.132   1.691   6.352  2.4394 -1.7860  0.9848
12461SOL    HW249443   9.017   1.618   6.262  0.1922  0.4057  2.0260
12462SOL     OW49444   5.397   3.000   2.706 -0.1899 -0.0383  0.3448
12462SOL    HW149445   5.364   3.050   2.786 -0.0480  0.5906  0.0034
12462SOL    HW249446   5.367   3.045   2.623  0.4640 -0.1703  0.0330
12463SOL     OW49447   4.649   2.480   4.134  0.0287 -0.7080  0.6299
12463SOL    HW149448   4.730   2.433   4.100  0.4567  0.4973 -0.0285
12463SOL    HW249449   4.580   2.412   4.159 -0.6440 -1.7012 -3.4359
12464SOL     OW49450   8.912   2.794   1.777 -0.1702 -0.3187  0.0055
12464SOL    HW149451   8.933   2.697   1.773 -1.5269 -0.6412  0.4620
12464SOL    HW249452   8.884   2.819   1.870 -1.2830  0.1741 -0.4395
12465SOL     OW49453   7.475   3.873   6.904  0.2983  0.2458 -0.6567
12465SOL    HW149454   7.545   3.926   6.857  1.5839 -0.6804  0.1640
12465SOL    HW249455   7.519   3.803   6.961 -1.2680  0.0993  0.4130
12466SOL     OW49456   3.732   1.286   1.721  0.3242  0.1743 -0.2554
12466SOL    HW149457   3.711   1.365   1.779  0.2565 -0.2057  0.2397
12466SOL    HW249458   3.648   1.250   1.682  0.3550  0.3474 -0.4799
12467SOL     OW49459   7.449   9.126   8.904  0.2725 -0.2161 -0.2650
12467SOL    HW149460   7.536   9.109   8.857  0.2326  2.7477 -1.4760
12467SOL    HW249461   7.443   9.222   8.930 -1.3364 -1.0193  2.6027
12468SOL     OW49462   2.249   3.115   6.358  0.0876  1.0031 -0.0198
12468SOL    HW149463   2.216   3.055   6.431 -0.8313  0.9357 -0.4833
12468SOL    HW249464   2.328   3.073   6.314  1.0962  1.3856  1.4087
12469SOL     OW49465   6.526   7.877   0.412  0.4091 -0.3370 -0.4467
12469SOL    HW149466   6.449   7.888   0.350 -1.1000  0.1272  1.4389
12469SOL    HW249467   6.513   7.793   0.465  1.4650 -0.5234 -0.4795
12470SOL     OW49468   0.671   1.978   5.871 -0.3419 -0.4261 -0.2466
12470SOL    HW149469   0.719   1.891   5.858  0.3994 -0.1538  0.6057
12470SOL    HW249470   0.594   1.984   5.808  1.6261 -0.2121 -2.6974
12471SOL     OW49471   3.141   1.134   7.860 -0.3356 -0.3789 -0.2831
12471SOL    HW149472   3.204   1.074   7.811 -0.5425 -1.0859  0.2931
12471SOL    HW249473   3.142   1.225   7.820  1.2169 -0.3266 -0.1439
12472SOL     OW49474   1.841   1.673   5.145 -0.2956  0.5054  0.6783
12472SOL    HW149475   1.838   1.733   5.064  0.1851  0.8671  0.9290
12472SOL    HW249476   1.930   1.681   5.189 -0.4208  0.0056  1.0209
12473SOL     OW49477   7.917   1.994   5.833 -0.3942 -0.4289 -0.1007
12473SOL    HW149478   7.931   2.051   5.752 -0.6626  1.2317  0.9860
12473SOL    HW249479   7.823   2.003   5.864  0.0402 -0.0511  1.1293
12474SOL     OW49480   7.551   6.908   5.442  0.0677  0.3049  0.0193
12474SOL    HW149481   7.626   6.959   5.399 -0.7055  0.4276 -1.2101
12474SOL    HW249482   7.525   6.954   5.527  1.1241  0.4786  0.2638
12475SOL     OW49483   3.560   4.411   6.839 -0.2545 -0.4072  0.1946
12475SOL    HW149484   3.658   4.413   6.818 -0.2983 -0.2131  0.0075
12475SOL    HW249485   3.509   4.380   6.758 -0.7439  3.7042 -1.1866
12476SOL     OW49486   4.242   1.688   9.672  0.3598  0.6376 -0.4930
12476SOL    HW149487   4.145   1.667   9.663  0.4888  0.6330 -2.0571
12476SOL    HW249488   4.293   1.604   9.693  0.1208  0.5165 -0.3946
12477SOL     OW49489   3.665   2.589   6.591 -0.3604 -0.1621 -0.6194
12477SOL    HW149490   3.747   2.541   6.562  0.2233  0.3314  0.1937
12477SOL    HW249491   3.595   2.523   6.616 -0.5774 -0.5953 -2.2685
12478SOL     OW49492   5.589   9.723   1.837  0.3244 -0.0773  0.2321
12478SOL    HW149493   5.577   9.819   1.812  1.9103  0.2580  0.7174
12478SOL    HW249494   5.537   9.665   1.774 -0.7869  1.0931  0.0456
12479SOL     OW49495   4.916   1.096   7.165 -0.2545  0.1765 -0.4123
12479SOL    HW149496   4.919   1.177   7.224 -0.8438  0.4100 -0.7011
12479SOL    HW249497   5.005   1.084   7.120 -0.6723  1.6293 -1.6663
12480SOL     OW49498   7.781   1.148   2.968  0.3602 -0.0163  0.4479
12480SOL    HW149499   7.810   1.104   3.054 -0.6684  0.8692  1.2585
12480SOL    HW249500   7.779   1.079   2.896  0.3037 -0.9881  1.3484
12481SOL     OW49501   5.828   7.858   7.913 -0.3231 -0.0861 -0.4147
12481SOL    HW149502   5.911   7.830   7.961 -0.2263 -2.2122 -1.7299
12481SOL    HW249503   5.849   7.936   7.853  0.6934 -0.4923 -0.6069
12482SOL     OW49504   7.832   2.569   8.359 -0.2555  0.3012  0.1635
12482SOL    HW149505   7.891   2.594   8.283  0.5678  0.3675  0.8266
12482SOL    HW249506   7.842   2.635   8.434  1.0389 -1.2965  1.4361
12483SOL     OW49507   4.675   1.116   6.816  0.1624  0.3601 -0.1507
12483SOL    HW149508   4.754   1.164   6.852 -0.2838  1.7098 -0.9475
12483SOL    HW249509   4.700   1.068   6.732  0.4937 -0.4626  0.4064
12484SOL     OW49510   7.638   0.239   6.610  0.0087  0.3459 -0.5134
12484SOL    HW149511   7.597   0.234   6.519 -1.2085  1.3926 -0.0460
12484SOL    HW249512   7.624   0.153   6.659  1.5569 -0.5924 -1.6586
12485SOL     OW49513   8.233   0.486   5.795 -0.3061  0.0401 -0.4357
12485SOL    HW149514   8.242   0.572   5.744 -0.6823  0.4745  0.2125
12485SOL    HW249515   8.197   0.415   5.734 -0.7711  0.5548 -0.7746
12486SOL     OW49516   8.186   4.471   1.976  0.0344  0.4081 -0.0215
12486SOL    HW149517   8.262   4.422   1.936  0.2630  0.2392  0.6085
12486SOL    HW249518   8.188   4.460   2.076  0.6937  2.5262  0.2359
12487SOL     OW49519   7.850   9.111   6.920  0.4620 -0.0408 -0.3718
12487SOL    HW149520   7.815   9.205   6.916 -0.1410 -0.2916 -1.0351
12487SOL    HW249521   7.938   9.110   6.968 -0.0378  0.7159  0.5879
12488SOL     OW49522   4.590   1.760   7.027 -0.2977  0.4950 -0.6710
12488SOL    HW149523   4.664   1.796   6.971  1.5668 -2.0436  0.0747
12488SOL    HW249524   4.626   1.693   7.091 -2.7999  1.3734  1.7775
12489SOL     OW49525   6.022   4.169   2.332  0.0628 -0.0728  0.0013
12489SOL    HW149526   6.082   4.242   2.364  1.1935 -1.3025  0.7166
12489SOL    HW249527   5.978   4.125   2.410 -0.9417  0.1123 -0.4509
12490SOL     OW49528   3.354   1.706   3.878  0.1240 -0.4186 -0.0085
12490SOL    HW149529   3.313   1.719   3.787 -0.6798 -3.4671 -0.1385
12490SOL    HW249530   3.315   1.625   3.920  2.6551 -0.7014  1.8616
12491SOL     OW49531   6.265   4.086   0.720  0.2491  0.6899 -0.3907
12491SOL    HW149532   6.282   4.000   0.671  1.7844  0.9140 -0.2652
12491SOL    HW249533   6.187   4.133   0.678  0.7100  0.2471 -1.7904
12492SOL     OW49534   2.557   7.932   2.280 -0.3463  0.2176 -0.5467
12492SOL    HW149535   2.547   7.962   2.185 -1.0045 -1.7691 -1.1283
12492SOL    HW249536   2.599   7.842   2.282  0.6116  0.6755  1.1219
12493SOL     OW49537   1.282   0.486   4.996  0.0068 -0.4800 -0.3813
12493SOL    HW149538   1.252   0.458   5.087 -1.3811  0.5685 -0.4938
12493SOL    HW249539   1.275   0.586   4.988  0.1824 -0.5564 -1.6168
12494SOL     OW49540   3.846   2.053   6.978  0.0874 -0.0748  0.2078
12494SOL    HW149541   3.924   1.993   6.991 -0.0686 -0.4726 -0.6426
12494SOL    HW249542   3.861   2.139   7.027  0.3350 -0.7786  1.3900
12495SOL     OW49543   6.415   8.027   0.817 -0.3120 -0.4785  0.3572
12495SOL    HW149544   6.478   7.954   0.846  1.0685 -0.0614 -1.5074
12495SOL    HW249545   6.429   8.107   0.876 -0.3084 -0.9707  1.0386
12496SOL     OW49546   2.502   2.769   7.614 -0.0345 -0.5910 -0.2207
12496SOL    HW149547   2.551   2.762   7.527  0.9908  0.5618  0.2620
12496SOL    HW249548   2.431   2.839   7.607  0.3646 -0.1588  0.0119
12497SOL     OW49549   4.535   3.630   5.879 -0.0956 -0.0169  0.6483
12497SOL    HW149550   4.520   3.710   5.937 -1.5732 -1.8031  2.8236
12497SOL    HW249551   4.570   3.555   5.934  0.2932 -1.1892 -1.1670
12498SOL     OW49552   3.602   9.749   2.200 -0.1384 -0.4802 -0.1795
12498SOL    HW149553   3.507   9.742   2.169 -0.2794 -1.2245  0.4084
12498SOL    HW249554   3.612   9.699   2.286  1.4609 -2.9411 -1.7431
12499SOL     OW49555   2.542   2.325   8.192 -0.1000  0.1016  0.2748
12499SOL    HW149556   2.633   2.317   8.153  0.1569 -0.2158  0.9237
12499SOL    HW249557   2.475   2.288   8.128  0.2104  0.4766 -0.2659
12500SOL     OW49558   7.171   3.001   9.681  0.0847  0.3482 -0.0190
12500SOL    HW149559   7.223   2.919   9.657  1.9129  1.1802  0.9786
12500SOL    HW249560   7.091   2.976   9.735  1.3723 -0.6806  1.4339
12501SOL     OW49561   6.058   7.476   4.447 -0.3956  0.0825 -0.4241
12501SOL    HW149562   6.022   7.529   4.523  1.9246  0.6538  0.3296
12501SOL    HW249563   6.018   7.385   4.448 -1.2003  0.4337  0.8248
12502SOL     OW49564   1.942   0.914   6.640 -0.3145 -0.0071  0.5731
12502SOL    HW149565   1.974   0.824   6.610 -0.7367 -0.4297  1.3643
12502SOL    HW249566   2.015   0.962   6.687 -0.2216 -0.1245  0.5485
12503SOL     OW49567   6.231   2.887   6.634  0.2301 -0.4225  0.5078
12503SOL    HW149568   6.245   2.939   6.719  1.1552  0.1389  0.0257
12503SOL    HW249569   6.133   2.874   6.619 -0.0020  0.6928  0.9482
12504SOL     OW49570   5.180   9.178   6.253 -0.1955 -0.4010  0.0761
12504SOL    HW149571   5.247   9.220   6.192 -0.3519 -0.5467 -0.2001
12504SOL    HW249572   5.107   9.244   6.271 -0.0674 -0.3022  0.2337
12505SOL     OW49573   2.864   9.870   6.207  0.1619 -0.8493 -0.1714
12505SOL    HW149574   2.836   9.836   6.296 -0.0223  0.5495  0.3188
12505SOL    HW249575   2.880   9.969   6.212 -3.0783 -0.1178 -2.4426
12506SOL     OW49576   7.675   2.617   5.563 -0.4587 -0.5078  0.0115
12506SOL    HW149577   7.753   2.599   5.504  0.1874  0.0233  0.6961
12506SOL    HW249578   7.690   2.703   5.612 -1.4342 -0.4476  0.2076
12507SOL     OW49579   4.372   3.908   8.628 -0.1994 -0.1379  0.1554
12507SOL    HW149580   4.302   3.916   8.557 -0.0305  1.3819  0.1393
12507SOL    HW249581   4.420   3.996   8.638  1.0929 -0.8960  0.7934
12508SOL     OW49582   0.976   1.941   3.481  0.2398  0.2174  0.5048
12508SOL    HW149583   1.015   2.030   3.504  1.4194  0.0866 -0.9368
12508SOL    HW249584   0.983   1.925   3.382 -0.3716 -1.2859  0.6784
12509SOL     OW49585   8.314   3.778   6.915  1.4359 -0.3260 -0.2648
12509SOL    HW149586   8.379   3.848   6.887  0.0125  0.7577 -0.9011
12509SOL    HW249587   8.245   3.818   6.976 -0.4498 -0.7226 -2.0745
12510SOL     OW49588   0.648   1.240   4.665 -0.5662 -0.1332  0.4428
12510SOL    HW149589   0.597   1.232   4.751 -0.1350  0.3761  0.7442
12510SOL    HW249590   0.746   1.228   4.683 -0.4430  0.3133  0.0759
12511SOL     OW49591   1.902   0.351   5.434 -0.3172  0.4291  0.2672
12511SOL    HW149592   1.981   0.351   5.373  1.1499  1.0011  2.0896
12511SOL    HW249593   1.934   0.362   5.529 -2.4472 -1.3252  1.2217
12512SOL     OW49594   5.757   8.535   9.811 -0.5186  0.5800  0.3897
12512SOL    HW149595   5.809   8.620   9.811 -0.9422  0.8528 -0.3286
12512SOL    HW249596   5.752   8.498   9.903 -0.0266  1.1518  0.6475
12513SOL     OW49597   0.931   5.731   1.367  0.2823  0.2755  0.6622
12513SOL    HW149598   0.864   5.784   1.420  0.4379  1.9499 -0.7708
12513SOL    HW249599   0.889   5.646   1.336 -0.6729  0.5691  1.1203
12514SOL     OW49600   4.058   4.532   6.762 -0.3480  0.0030  0.5885
12514SOL    HW149601   4.074   4.539   6.860 -1.0233 -1.0340  0.7826
12514SOL    HW249602   3.970   4.487   6.745  1.1145 -2.5942 -0.4825
12515SOL     OW49603   8.362   6.394   7.391  0.1269 -0.3039 -0.3633
12515SOL    HW149604   8.455   6.406   7.426  0.8537 -2.3850 -1.5192
12515SOL    HW249605   8.306   6.349   7.461  0.3932 -0.4382 -0.2364
12516SOL     OW49606   6.084   9.122   0.962 -0.2465  0.4930  0.0697
12516SOL    HW149607   6.006   9.059   0.960 -0.3091  0.5341  0.9895
12516SOL    HW249608   6.059   9.204   1.014  0.7570  0.0405  1.2858
12517SOL     OW49609   1.585   3.537   7.780  0.4501  0.2683  0.0419
12517SOL    HW149610   1.548   3.552   7.688 -1.0557  1.6498  0.8457
12517SOL    HW249611   1.680   3.567   7.783  0.5850  0.0022 -1.1148
12518SOL     OW49612   0.258   0.788   4.966  0.2790  0.7695 -0.1090
12518SOL    HW149613   0.254   0.861   4.897 -1.4810 -2.1226 -3.2520
12518SOL    HW249614   0.344   0.738   4.957 -0.5810 -0.5463 -1.3084
12519SOL     OW49615   3.716   8.805   9.418  0.3171  0.0245 -0.2434
12519SOL    HW149616   3.682   8.789   9.511  0.0241  0.3786 -0.2886
12519SOL    HW249617   3.700   8.724   9.363 -0.9326  0.3785 -0.4033
12520SOL     OW49618   4.209   5.547   4.566  0.2911  0.5112  0.0437
12520SOL    HW149619   4.256   5.630   4.597  1.9943 -0.1849 -0.6435
12520SOL    HW249620   4.247   5.467   4.612  0.2744 -0.1358 -1.0511
12521SOL     OW49621   2.795   1.441   5.902 -0.3801  0.2630 -0.4191
12521SOL    HW149622   2.734   1.458   5.979 -1.8832  0.5828 -1.6393
12521SOL    HW249623   2.788   1.345   5.874  2.2602 -0.5585  1.5656
12522SOL     OW49624   3.062   3.822   4.510 -0.4316 -0.1261  0.4760
12522SOL    HW149625   3.066   3.763   4.430  2.2924 -0.9520  1.1641
12522SOL    HW249626   3.030   3.770   4.589 -2.7361  0.5878  0.0417
12523SOL     OW49627   6.563   1.050   3.470  0.6710 -0.3252  0.2696
12523SOL    HW149628   6.532   1.110   3.396  0.7114 -1.1413 -0.4099
12523SOL    HW249629   6.656   1.020   3.453  0.5015 -0.9277  0.3949
12524SOL     OW49630   4.190   4.846   2.952 -0.0886  0.6953 -0.0165
12524SOL    HW149631   4.178   4.885   3.043  1.0182  1.5394 -0.2253
12524SOL    HW249632   4.163   4.749   2.953 -0.6705  0.8647  1.0469
12525SOL     OW49633   2.587   4.888   1.272  0.0896  0.3363  0.0526
12525SOL    HW149634   2.563   4.804   1.223 -1.7270  0.9248 -0.1109
12525SOL    HW249635   2.670   4.873   1.326  0.0671 -1.3953 -0.3666
12526SOL     OW49636   1.670   0.944   4.771 -0.1385  0.0183  0.1178
12526SOL    HW149637   1.702   0.962   4.864 -0.1731 -2.0743  0.5409
12526SOL    HW249638   1.574   0.971   4.763 -0.4238 -0.7379  0.9749
12527SOL     OW49639   7.285   4.912   5.841 -0.3507 -0.2314  0.1202
12527SOL    HW149640   7.315   4.823   5.875 -0.2045 -0.3104 -0.2147
12527SOL    HW249641   7.320   4.985   5.900  1.6338 -0.2274 -1.0262
12528SOL     OW49642   6.605   3.111   5.702  0.4946 -0.2235  0.2658
12528SOL    HW149643   6.641   3.018   5.687 -1.0985 -0.5829 -1.4995
12528SOL    HW249644   6.546   3.112   5.782 -1.3612 -1.3011 -1.0540
12529SOL     OW49645   2.593   5.079   7.239  0.1791 -0.0057  0.6200
12529SOL    HW149646   2.547   5.163   7.210  2.5376  1.1523  0.0781
12529SOL    HW249647   2.589   5.011   7.166  1.4454  0.9727 -0.3719
12530SOL     OW49648   1.258   4.469   5.460 -0.1257 -0.0524 -1.0257
12530SOL    HW149649   1.182   4.438   5.403 -1.5515  0.9169  0.3069
12530SOL    HW249650   1.306   4.544   5.414 -0.1015 -0.5371 -1.7869
12531SOL     OW49651   6.162   7.842   5.919  0.0302  0.4671  0.2998
12531SOL    HW149652   6.171   7.746   5.891 -2.2772  0.0344  0.9605
12531SOL    HW249653   6.098   7.888   5.858 -0.9232  0.8780  1.5813
12532SOL     OW49654   7.814   3.377   2.904  0.0520  0.5050 -0.5935
12532SOL    HW149655   7.765   3.451   2.858  0.6343  2.4467  1.8277
12532SOL    HW249656   7.909   3.402   2.917  0.4880 -1.0885 -0.6097
12533SOL     OW49657   4.827   3.713   2.141 -0.3398 -0.5372 -0.2354
12533SOL    HW149658   4.864   3.755   2.057 -0.3365  0.5530  0.3009
12533SOL    HW249659   4.825   3.614   2.130  1.5191 -0.5371 -0.7810
12534SOL     OW49660   0.785   4.117   7.319  0.4289  0.7142 -0.4015
12534SOL    HW149661   0.842   4.176   7.376  0.5973  0.1529  0.0123
12534SOL    HW249662   0.812   4.022   7.332 -0.6168  0.4449 -0.1833
12535SOL     OW49663   6.823   2.177   4.280  0.5448 -0.1764  0.4994
12535SOL    HW149664   6.730   2.211   4.265  0.1119 -1.8702 -0.8302
12535SOL    HW249665   6.854   2.203   4.372 -0.6832  1.6262  0.4347
12536SOL     OW49666   9.324   6.983   7.144  0.1233  0.0698 -0.2294
12536SOL    HW149667   9.354   7.038   7.067 -1.0570 -1.0028 -1.4795
12536SOL    HW249668   9.224   6.980   7.146  0.1352  0.2549  1.4678
12537SOL     OW49669   9.539   9.835   6.503 -0.6364 -0.2808  0.0647
12537SOL    HW149670   9.457   9.820   6.557 -0.9435 -0.3913 -0.4329
12537SOL    HW249671   9.520   9.899   6.429 -1.0776 -2.6049 -1.8796
12538SOL     OW49672   5.686   5.185   2.243  0.0618 -0.5410 -0.0350
12538SOL    HW149673   5.685   5.280   2.276  0.3649 -0.6437  0.2782
12538SOL    HW249674   5.730   5.181   2.153 -0.9071 -0.2354 -0.5232
12539SOL     OW49675   6.139   3.362   1.823  0.0119  0.1317  0.4313
12539SOL    HW149676   6.078   3.293   1.784 -1.5030  2.2940 -1.1356
12539SOL    HW249677   6.129   3.363   1.922 -1.0913 -0.8382  0.3399
12540SOL     OW49678   8.298   3.171   3.966 -0.7960 -0.2074  0.2355
12540SOL    HW149679   8.384   3.192   3.919 -0.8731  1.8848  0.9521
12540SOL    HW249680   8.222   3.207   3.912 -1.2293 -1.9498 -0.3362
12541SOL     OW49681   3.550   5.203   3.300 -0.0310 -0.1959  0.0116
12541SOL    HW149682   3.550   5.303   3.301 -0.1389 -0.1852  2.1438
12541SOL    HW249683   3.469   5.170   3.253 -0.4669  0.7297  0.1026
12542SOL     OW49684   6.386   4.779   3.351  0.2356  0.0543 -0.3199
12542SOL    HW149685   6.323   4.845   3.310 -0.4473  0.1887  0.9388
12542SOL    HW249686   6.438   4.734   3.278 -1.1773  0.0780 -1.3732
12543SOL     OW49687   3.654   1.159   4.494  0.0378  0.0538  0.1460
12543SOL    HW149688   3.558   1.156   4.468  0.2867  0.8212 -0.8777
12543SOL    HW249689   3.685   1.254   4.497  0.8608 -0.2116  0.1235
12544SOL     OW49690   2.289   5.597   4.995  0.2462 -0.4285  0.0976
12544SOL    HW149691   2.337   5.517   4.959  0.7316 -0.8445  1.6480
12544SOL    HW249692   2.320   5.679   4.946 -0.7026 -1.2346 -1.9259
12545SOL     OW49693   4.865   1.631   3.191  0.0088 -0.0243  0.3930
12545SOL    HW149694   4.876   1.731   3.197 -1.7237  0.2072  0.0410
12545SOL    HW249695   4.811   1.600   3.269 -1.3736 -0.3668 -0.6779
12546SOL     OW49696   4.988   4.843   5.649  0.0892 -0.8047 -0.0770
12546SOL    HW149697   5.087   4.842   5.663  0.2171 -1.2685 -0.9804
12546SOL    HW249698   4.943   4.870   5.734  1.0618  0.9294 -0.0903
12547SOL     OW49699   6.452   4.403   9.641 -0.4824 -0.6270  0.0189
12547SOL    HW149700   6.543   4.390   9.678  0.9909  1.7898 -2.5459
12547SOL    HW249701   6.404   4.315   9.638  2.3308 -2.2017 -0.0023
12548SOL     OW49702   7.091   9.434   1.803  0.4672  0.5274  0.3809
12548SOL    HW149703   7.169   9.372   1.810  1.6479  2.1229  1.6780
12548SOL    HW249704   7.103   9.495   1.724 -0.4276 -0.4935 -0.5663
12549SOL     OW49705   6.571   2.571   6.493  0.6414 -0.9742  0.3401
12549SOL    HW149706   6.507   2.603   6.563  1.3192  0.9104  0.1489
12549SOL    HW249707   6.566   2.633   6.414  1.6055 -1.6911 -0.2937
12550SOL     OW49708   5.599   3.164   1.116 -0.2194  0.5293  0.5374
12550SOL    HW149709   5.578   3.131   1.208 -0.6189  1.8467  0.9256
12550SOL    HW249710   5.514   3.185   1.068 -0.1585 -2.6304 -1.0967
12551SOL     OW49711   8.355   6.915   8.171  0.4751 -0.4828  0.0592
12551SOL    HW149712   8.412   6.960   8.102 -1.6365  0.0745 -1.3788
12551SOL    HW249713   8.393   6.932   8.262  1.0174  2.3332 -0.6289
12552SOL     OW49714   2.864   2.613   5.219 -0.4606 -0.0846 -0.5511
12552SOL    HW149715   2.794   2.599   5.148  0.0495  0.8592 -1.2504
12552SOL    HW249716   2.832   2.574   5.305 -3.3026  3.2086  0.0035
12553SOL     OW49717   3.428   0.901   3.582 -0.2012  0.1447  0.0624
12553SOL    HW149718   3.430   1.000   3.596 -0.1477  0.3537 -1.3639
12553SOL    HW249719   3.350   0.862   3.631 -0.9502  1.0655 -0.3867
12554SOL     OW49720   1.172   9.161   0.176 -0.5191 -0.2385  0.1341
12554SOL    HW149721   1.203   9.246   0.218 -0.9225  0.6333 -1.2729
12554SOL    HW249722   1.223   9.145   0.091  0.9812 -2.4771  1.4124
12555SOL     OW49723   4.695   7.140   4.758  0.7363  0.6761  0.2457
12555SOL    HW149724   4.722   7.090   4.840  1.3399  2.6330  1.2658
12555SOL    HW249725   4.596   7.131   4.745  1.2315 -3.7339 -1.6355
12556SOL     OW49726   2.024   9.952   3.465  0.6348 -0.1824 -0.8033
12556SOL    HW149727   1.996  10.029   3.408 -0.1809 -0.6531 -1.0425
12556SOL    HW249728   2.052   9.876   3.407 -1.4296 -1.1184 -0.5967
12557SOL     OW49729   9.333   1.494   6.142 -0.3873 -0.5940  0.3840
12557SOL    HW149730   9.359   1.529   6.052  0.3101 -1.9882  0.0226
12557SOL    HW249731   9.273   1.560   6.187 -1.5211 -0.2878 -1.4870
12558SOL     OW49732   5.478   4.218   5.216  0.4420 -0.1373  0.1525
12558SOL    HW149733   5.414   4.234   5.141  3.0555 -0.7525 -2.2669
12558SOL    HW249734   5.565   4.262   5.196  1.6149 -1.4388  2.2020
12559SOL     OW49735   7.863   1.731   5.410  0.0212 -0.0206  0.2055
12559SOL    HW149736   7.848   1.670   5.487 -0.4334  0.5979  0.6065
12559SOL    HW249737   7.776   1.763   5.374  0.1673 -1.3264 -1.4067
12560SOL     OW49738   2.919   0.650   4.084  0.5151 -0.1913  0.0482
12560SOL    HW149739   2.854   0.726   4.094  1.8460  1.1315 -1.0168
12560SOL    HW249740   2.896   0.577   4.148 -0.5927  1.2730  1.3531
12561SOL     OW49741   5.331   3.789   3.107  0.3058 -0.1298 -0.2862
12561SOL    HW149742   5.274   3.715   3.141 -2.5589  1.6507 -1.0033
12561SOL    HW249743   5.335   3.862   3.175  0.3546  0.4626 -0.9204
12562SOL     OW49744   8.059   7.413   6.658 -0.1672 -0.4442 -0.1760
12562SOL    HW149745   7.998   7.343   6.620 -0.8564 -0.1777  0.4222
12562SOL    HW249746   8.009   7.499   6.667  0.2655 -0.2508  0.4257
12563SOL     OW49747   7.067   9.062   1.657  0.0254  0.2680 -0.8864
12563SOL    HW149748   7.028   8.971   1.665 -0.4760  0.5774  0.4138
12563SOL    HW249749   6.998   9.125   1.621 -0.2570  0.5295  0.0886
12564SOL     OW49750   2.665   2.992   5.206  0.3182 -0.7446 -0.1921
12564SOL    HW149751   2.596   2.921   5.221  1.7715 -2.3734 -1.0058
12564SOL    HW249752   2.664   3.020   5.110  0.8887 -0.8896 -0.2428
12565SOL     OW49753   8.072   4.132   5.308 -0.0612  0.1270 -0.0510
12565SOL    HW149754   8.093   4.217   5.358  1.1171 -0.3118  0.1963
12565SOL    HW249755   8.032   4.155   5.220 -0.6067  0.9309  0.3942
12566SOL     OW49756   8.716   8.989   3.863 -0.4309 -0.2166  0.5112
12566SOL    HW149757   8.785   8.917   3.858  0.5339  0.6104  1.4906
12566SOL    HW249758   8.750   9.064   3.921 -1.4190  1.0207 -0.4788
12567SOL     OW49759   3.495   2.363   4.976  0.0713 -0.2745  0.3055
12567SOL    HW149760   3.411   2.391   4.930 -0.0260 -0.7812  0.1707
12567SOL    HW249761   3.532   2.440   5.028 -1.2339 -0.4614  1.5074
12568SOL     OW49762   7.198   0.998   1.058 -0.6867  0.3796 -0.0140
12568SOL    HW149763   7.119   1.038   1.013 -0.8971  1.7162  1.4908
12568SOL    HW249764   7.274   0.990   0.994 -1.2558  1.4108 -0.8105
12569SOL     OW49765   2.896   7.517   7.963 -0.2244 -0.1427  0.3968
12569SOL    HW149766   2.984   7.554   7.934  0.6481 -1.7743  0.9233
12569SOL    HW249767   2.838   7.592   7.995  1.3823  0.8368  1.1045
12570SOL     OW49768   3.891   6.374   7.282  0.2363 -0.1524 -0.2419
12570SOL    HW149769   3.964   6.334   7.336  1.6979  2.0160 -0.5400
12570SOL    HW249770   3.849   6.450   7.333  0.2548  0.5802 -1.2972
12571SOL     OW49771   4.124   7.212   5.333  0.2282 -0.2496 -0.8945
12571SOL    HW149772   4.114   7.250   5.241 -0.0902 -3.5256 -2.2716
12571SOL    HW249773   4.034   7.186   5.368  0.2675  1.6159  0.6643
12572SOL     OW49774   7.297   5.414   6.843  0.3261 -0.6545  0.1010
12572SOL    HW149775   7.375   5.467   6.809 -0.1692  0.7243  1.0759
12572SOL    HW249776   7.280   5.337   6.782  0.9743  0.3760 -1.4058
12573SOL     OW49777   2.723   0.752   5.423  0.4131  0.6146 -0.1062
12573SOL    HW149778   2.626   0.762   5.405 -0.2000 -0.2573  2.5331
12573SOL    HW249779   2.767   0.706   5.345 -1.8331 -1.6780 -0.0872
12574SOL     OW49780   8.778   1.488   4.209 -0.5576 -0.4949  0.1053
12574SOL    HW149781   8.868   1.500   4.167 -0.9793  0.9616 -0.4048
12574SOL    HW249782   8.710   1.472   4.138 -0.9980  0.2509  0.3529
12575SOL     OW49783   3.575   2.495   9.886 -0.0170 -0.0926  0.4390
12575SOL    HW149784   3.564   2.457   9.978  0.6877 -0.1064  0.5156
12575SOL    HW249785   3.588   2.420   9.821  2.7497  0.0486  0.7762
12576SOL     OW49786   2.170   9.636   3.081 -0.3770 -0.1601 -0.1357
12576SOL    HW149787   2.107   9.649   3.159  0.2516  1.8711  0.0644
12576SOL    HW249788   2.255   9.684   3.099 -0.3474  0.6262 -2.2416
12577SOL     OW49789   1.668   0.229   7.171  0.0803  0.1407  0.1192
12577SOL    HW149790   1.709   0.160   7.231  1.2540 -0.6433 -1.5579
12577SOL    HW249791   1.683   0.320   7.210 -0.7080 -0.4612  1.8990
12578SOL     OW49792   6.403   0.154   8.096  0.2678  0.2959  0.3379
12578SOL    HW149793   6.410   0.126   8.192 -1.2560 -2.9507 -0.4032
12578SOL    HW249794   6.323   0.213   8.084  0.4761  0.7334  1.0739
12579SOL     OW49795   4.997   0.898   3.333  0.0535  0.2591 -0.4605
12579SOL    HW149796   4.995   0.809   3.288  1.8562  0.7812 -1.6300
12579SOL    HW249797   4.904   0.925   3.357 -0.7190 -1.0047 -1.9368
12580SOL     OW49798   1.926   3.112   6.814  0.3667 -0.5201  0.4505
12580SOL    HW149799   1.929   3.022   6.857  1.0110 -1.7088 -1.9436
12580SOL    HW249800   1.912   3.100   6.715  0.4230  2.0137  0.1122
12581SOL     OW49801   7.662   5.453   6.054 -0.3110  0.4943 -0.2318
12581SOL    HW149802   7.578   5.402   6.072 -0.4668  1.0583  0.6389
12581SOL    HW249803   7.680   5.515   6.130  1.3277 -0.2127 -0.0277
12582SOL     OW49804   2.592   3.185   0.205  0.1890 -0.2259  0.1341
12582SOL    HW149805   2.613   3.107   0.264 -1.2261  0.3242  1.3879
12582SOL    HW249806   2.538   3.154   0.126  0.0255 -0.5851  0.3866
12583SOL     OW49807   4.319   4.127   7.798  0.2339 -0.5292 -0.7998
12583SOL    HW149808   4.250   4.147   7.729 -1.2587 -1.0644  0.5256
12583SOL    HW249809   4.310   4.032   7.828  1.8467 -0.7428 -0.9407
12584SOL     OW49810   1.967   2.809   7.392  0.1907 -0.1630 -0.0843
12584SOL    HW149811   2.028   2.878   7.352 -0.1544  1.1096  1.5056
12584SOL    HW249812   2.021   2.731   7.422  0.4944 -0.9768 -2.6389
12585SOL     OW49813   3.448   3.893   6.934 -0.1541  0.2463  0.3374
12585SOL    HW149814   3.485   3.938   7.015  0.4674  0.8526 -0.2691
12585SOL    HW249815   3.436   3.795   6.952  0.6089  0.2575  0.9498
12586SOL     OW49816   6.086   0.102   2.902  0.3445 -0.1239  0.1963
12586SOL    HW149817   6.035   0.183   2.872 -0.3749 -0.0482  1.5851
12586SOL    HW249818   6.173   0.130   2.941  0.9997 -0.1769 -1.2041
12587SOL     OW49819   1.524   0.340   4.997  0.5757 -0.1014 -0.4080
12587SOL    HW149820   1.572   0.379   5.075  0.6342  0.3952 -0.6936
12587SOL    HW249821   1.431   0.378   4.992 -0.1292 -1.6132  0.5850
12588SOL     OW49822   1.264   1.712   3.840  0.0973 -0.8846 -0.1765
12588SOL    HW149823   1.332   1.783   3.858 -2.4782  1.3320  1.1828
12588SOL    HW249824   1.215   1.734   3.756  1.0900 -2.5360 -1.2127
12589SOL     OW49825   4.801   5.680   6.277 -0.2439  0.2412  0.5706
12589SOL    HW149826   4.832   5.585   6.272 -0.4753  0.1570  0.7433
12589SOL    HW249827   4.739   5.699   6.201 -2.0982 -0.4396  1.8567
12590SOL     OW49828   1.256   6.051   9.401  0.0478 -0.2968  0.2743
12590SOL    HW149829   1.182   6.007   9.350  0.5505 -0.5654 -0.2317
12590SOL    HW249830   1.278   5.996   9.482  1.0755 -1.3108 -0.6697
12591SOL     OW49831   7.475   2.670   1.996 -0.1073 -0.2489  0.6007
12591SOL    HW149832   7.467   2.599   2.066  1.0434 -0.7074  0.2811
12591SOL    HW249833   7.534   2.743   2.028 -0.8289  0.2956  0.7045
12592SOL     OW49834   1.725   8.907   5.049 -0.4601 -0.0455  0.5487
12592SOL    HW149835   1.728   8.808   5.038  1.2929  0.0595 -0.0710
12592SOL    HW249836   1.807   8.938   5.099 -0.3151  1.2224 -0.4336
12593SOL     OW49837   3.032   1.461   8.415 -0.1925 -0.4378  0.7981
12593SOL    HW149838   3.083   1.437   8.333 -0.3325  0.1446  0.5421
12593SOL    HW249839   3.012   1.559   8.415 -2.6067 -0.8890  0.1352
12594SOL     OW49840   4.330   2.903   4.999  0.5045  0.1158 -0.1397
12594SOL    HW149841   4.273   2.821   5.004 -0.8193  0.9717 -0.7723
12594SOL    HW249842   4.274   2.981   4.970  1.7229  1.2693  0.5352
12595SOL     OW49843   6.826   3.197   4.184  0.2488  0.4631  0.4023
12595SOL    HW149844   6.891   3.209   4.109 -0.4213  1.7003  0.0044
12595SOL    HW249845   6.805   3.100   4.195 -1.0950  0.4207 -2.2409
12596SOL     OW49846   8.208   4.467   5.702  0.1678  0.3580 -0.7774
12596SOL    HW149847   8.121   4.430   5.736  0.8230  0.0235  0.5542
12596SOL    HW249848   8.203   4.566   5.698  0.9066  0.6172  2.7460
12597SOL     OW49849   4.691   6.466   3.977 -0.7045  0.1098 -0.0729
12597SOL    HW149850   4.593   6.475   3.963 -0.6352  1.0878  0.0023
12597SOL    HW249851   4.737   6.548   3.942  0.2963 -1.2902 -2.1482
12598SOL     OW49852   0.446   3.066   5.459  0.6904  0.1067 -0.2038
12598SOL    HW149853   0.354   3.029   5.473  0.5461  0.8690  0.9001
12598SOL    HW249854   0.468   3.062   5.362 -0.3108 -0.5488 -0.4207
12599SOL     OW49855   5.847   7.824   7.086  0.0469  0.7492 -0.5562
12599SOL    HW149856   5.923   7.808   7.149 -0.5824  0.0416  0.0312
12599SOL    HW249857   5.767   7.856   7.137 -0.3597  0.5095 -1.0312
12600SOL     OW49858   0.798   3.433   3.430  0.9485 -0.7884  0.4710
12600SOL    HW149859   0.700   3.453   3.425  0.8467 -1.2031  0.8182
12600SOL    HW249860   0.812   3.338   3.458  1.4505 -0.7530  0.3502
12601SOL     OW49861   6.714   0.703   0.274 -0.1017  0.2502 -0.8931
12601SOL    HW149862   6.722   0.688   0.176 -0.2771  1.3285 -1.0877
12601SOL    HW249863   6.623   0.740   0.295  0.3807  1.2654 -0.5080
12602SOL     OW49864   8.607   6.188   5.032 -0.9650 -0.3475  0.2227
12602SOL    HW149865   8.647   6.170   4.942 -0.4643 -1.8476  0.7222
12602SOL    HW249866   8.658   6.137   5.101 -2.2855 -0.3973  1.1651
12603SOL     OW49867   2.032   1.761   2.282 -0.4594 -0.0624 -0.2024
12603SOL    HW149868   2.090   1.759   2.363 -2.1258  1.5254  1.0981
12603SOL    HW249869   2.072   1.705   2.210  0.9905 -1.6174  1.7714
12604SOL     OW49870   6.030   4.946   3.575  0.1111 -0.1297  0.6147
12604SOL    HW149871   5.957   4.935   3.508  0.6166 -0.8978  0.1832
12604SOL    HW249872   6.008   4.895   3.658  1.8906 -3.5474 -0.9281
12605SOL     OW49873   3.921   3.228   1.724  0.0392  0.3114 -0.0924
12605SOL    HW149874   3.971   3.169   1.660  0.3087  0.8863 -0.4163
12605SOL    HW249875   3.828   3.241   1.691 -0.1168 -0.1910  0.1458
12606SOL     OW49876   9.706   4.812   7.688 -0.6852 -0.7814  0.1906
12606SOL    HW149877   9.700   4.718   7.721  0.0520 -0.5113  1.0974
12606SOL    HW249878   9.774   4.863   7.741 -0.6759  0.1147 -0.6526
12607SOL     OW49879   2.381   4.909   6.412 -0.2067  0.3640 -0.1164
12607SOL    HW149880   2.376   4.908   6.312  0.4525 -1.1586 -0.1498
12607SOL    HW249881   2.476   4.923   6.440 -0.4651  1.3375  0.3193
12608SOL     OW49882   3.877   0.935   5.727 -0.3314  0.1351  0.0051
12608SOL    HW149883   3.931   0.882   5.792  0.8162 -1.0863 -1.8798
12608SOL    HW249884   3.780   0.912   5.738  0.0284 -1.4074  0.0719
12609SOL     OW49885   2.606   4.755   9.053  0.1421 -0.1690  0.4527
12609SOL    HW149886   2.550   4.823   9.103  0.4550 -0.9003  1.8367
12609SOL    HW249887   2.636   4.794   8.966 -2.3078  0.3421 -0.2084
12610SOL     OW49888   0.718   2.501   1.992 -0.0015 -0.5897  0.3040
12610SOL    HW149889   0.690   2.462   1.904  0.3765  1.2110 -0.6336
12610SOL    HW249890   0.789   2.444   2.033 -0.1230 -1.3950 -0.5949
12611SOL     OW49891   5.240   8.996   0.114 -0.2252  0.1604  0.2589
12611SOL    HW149892   5.231   9.061   0.039 -0.5038 -0.5932 -0.3698
12611SOL    HW249893   5.312   9.027   0.177 -0.7637  1.3698  0.2872
12612SOL     OW49894   1.321   2.393   6.376 -0.6086  0.1086 -0.1266
12612SOL    HW149895   1.316   2.490   6.401 -0.7432 -0.1662  0.9362
12612SOL    HW249896   1.323   2.384   6.276 -0.8087  1.1911 -0.2308
12613SOL     OW49897   5.713   7.519   5.963 -0.2168  0.0844 -0.6618
12613SOL    HW149898   5.694   7.554   5.871 -0.3491 -0.0036 -0.6675
12613SOL    HW249899   5.795   7.564   5.999  0.1921 -0.3331 -1.0662
12614SOL     OW49900   5.321   0.324   6.971  0.3196 -0.1113  0.2898
12614SOL    HW149901   5.317   0.325   6.871  1.8441 -0.1238  0.2123
12614SOL    HW249902   5.238   0.366   7.008 -1.9402 -3.3224 -0.9180
12615SOL     OW49903   3.709   3.955   5.505 -0.0186 -0.2879 -0.1252
12615SOL    HW149904   3.689   3.957   5.407 -0.2585 -0.9891 -0.0935
12615SOL    HW249905   3.710   4.048   5.541 -1.8110 -0.1337 -0.4229
12616SOL     OW49906   3.297   1.199   5.490  0.0196  0.7184 -0.0623
12616SOL    HW149907   3.384   1.154   5.473  0.5925  1.3478  1.1378
12616SOL    HW249908   3.239   1.192   5.409  0.9634 -0.2066 -0.6592
12617SOL     OW49909   6.600   4.118   8.401 -0.1558 -0.5447 -0.2311
12617SOL    HW149910   6.578   4.173   8.482  1.7007 -1.1175  0.7028
12617SOL    HW249911   6.667   4.167   8.345 -0.7806 -0.5348 -0.9767
12618SOL     OW49912   1.059   1.062   6.551  0.1580 -0.0568 -0.2366
12618SOL    HW149913   1.090   0.967   6.554  2.4993  0.6531 -0.9320
12618SOL    HW249914   1.011   1.084   6.635  3.2213 -0.6672  1.7412
12619SOL     OW49915   5.338   0.253   9.923  0.1801  0.3182 -0.2890
12619SOL    HW149916   5.242   0.278   9.923  0.0404 -0.1955 -1.7373
12619SOL    HW249917   5.390   0.318   9.978 -0.9279  0.8361  0.1394
12620SOL     OW49918   2.579   1.606   8.841  0.3897 -0.3566 -0.1553
12620SOL    HW149919   2.526   1.526   8.815 -1.0123  0.4430  0.1836
12620SOL    HW249920   2.532   1.654   8.915  1.8704  0.0638  0.5165
12621SOL     OW49921   4.099   5.871   3.011  0.0304  0.2740  0.0166
12621SOL    HW149922   4.107   5.949   2.949 -0.3241  0.9530  0.8097
12621SOL    HW249923   4.059   5.793   2.962  2.1176 -0.0080 -1.2727
12622SOL     OW49924   8.983   7.063   8.333 -0.1133 -0.2283 -0.2750
12622SOL    HW149925   9.041   7.022   8.263 -0.0438 -1.0292  0.2446
12622SOL    HW249926   8.955   7.155   8.304  1.9561  0.4419 -0.2456
12623SOL     OW49927   7.559   6.529   6.596 -0.0125  0.3951  0.4175
12623SOL    HW149928   7.598   6.451   6.547 -0.7297  1.2452 -1.5687
12623SOL    HW249929   7.469   6.505   6.631  0.0797  0.1137  0.4620
12624SOL     OW49930   8.613   7.225   5.595  0.3369  0.1181 -0.3327
12624SOL    HW149931   8.516   7.231   5.572  0.0608 -0.6423  0.5934
12624SOL    HW249932   8.649   7.316   5.615  0.2715  0.6441 -2.4482
12625SOL     OW49933   9.023   5.370   6.185 -0.0769  0.2052  0.5294
12625SOL    HW149934   9.041   5.272   6.188  0.8963  0.4076  1.9140
12625SOL    HW249935   9.072   5.415   6.260  0.4222  1.8876 -0.7697
12626SOL     OW49936   7.839   3.469   3.985 -0.4013 -0.0304 -0.0327
12626SOL    HW149937   7.862   3.565   4.003 -0.7444 -0.3066  2.0530
12626SOL    HW249938   7.854   3.415   4.068 -1.0961 -1.6241 -0.9160
12627SOL     OW49939   9.826   1.759   7.576  0.1658 -0.1283  0.1645
12627SOL    HW149940   9.741   1.748   7.629 -1.4370  0.2658 -2.2321
12627SOL    HW249941   9.855   1.670   7.541 -0.3247 -0.0116 -0.5629
12628SOL     OW49942   5.451   3.347   9.976  0.1262 -0.5787 -0.1945
12628SOL    HW149943   5.540   3.353   9.931 -0.7215  1.6549 -1.6453
12628SOL    HW249944   5.465   3.334  10.075  2.0426 -0.7681 -0.4668
12629SOL     OW49945   0.472   0.627   4.906  0.1644  0.1761 -0.1420
12629SOL    HW149946   0.484   0.581   4.818  1.1045  0.1356 -0.0002
12629SOL    HW249947   0.551   0.608   4.965  0.0042  0.9926  0.3498
12630SOL     OW49948   9.669   2.592   5.507 -0.0091  0.9202  1.0313
12630SOL    HW149949   9.589   2.533   5.513 -0.7731  1.9618  1.2698
12630SOL    HW249950   9.686   2.635   5.596  0.6917  0.8511  0.9302
12631SOL     OW49951   2.987   3.354   5.869  0.2493 -0.5485 -0.2005
12631SOL    HW149952   3.062   3.288   5.869  1.2230  0.4786  1.9164
12631SOL    HW249953   2.910   3.318   5.922  0.4623 -0.3385  0.2566
12632SOL     OW49954   4.232   9.627   7.548  0.8372  1.0084  0.0240
12632SOL    HW149955   4.212   9.575   7.630 -1.1278 -0.8086 -1.5608
12632SOL    HW249956   4.158   9.693   7.531 -0.8352 -1.4027 -2.4296
12633SOL     OW49957   9.930   2.689   3.528 -0.1587 -0.5942 -0.2768
12633SOL    HW149958   9.984   2.609   3.555 -0.5279 -0.7252  0.0811
12633SOL    HW249959   9.948   2.710   3.432  0.0284 -1.0386 -0.3421
12634SOL     OW49960   4.536   9.589   2.562 -0.0879 -0.1514  0.0380
12634SOL    HW149961   4.598   9.529   2.614 -0.0032  0.4861  0.6779
12634SOL    HW249962   4.455   9.608   2.616  0.3549  1.1522  0.2551
12635SOL     OW49963   3.398   1.710   7.083 -0.4501 -0.0373 -1.0496
12635SOL    HW149964   3.395   1.624   7.135 -2.9482  0.2461 -0.6623
12635SOL    HW249965   3.459   1.774   7.129  1.8041 -1.7082 -1.5786
12636SOL     OW49966   9.730   1.186   8.629  0.0383 -0.0240  0.4829
12636SOL    HW149967   9.658   1.153   8.689 -1.2843  1.2198 -0.3764
12636SOL    HW249968   9.740   1.124   8.551  0.1593 -0.3965  0.7944
12637SOL     OW49969   3.560   8.167   4.564 -0.4063 -0.1277 -0.5233
12637SOL    HW149970   3.529   8.248   4.514 -2.4670 -0.5256  0.0293
12637SOL    HW249971   3.629   8.118   4.511 -0.1326  1.2552 -1.4603
12638SOL     OW49972   3.428   0.029   4.572  0.6002 -0.7628  0.9347
12638SOL    HW149973   3.375   0.107   4.606 -0.8209 -2.1875  2.1100
12638SOL    HW249974   3.372  -0.022   4.506  2.3069  0.3897 -1.4698
12639SOL     OW49975   2.798   2.444   5.433  0.0602  0.0421  0.0592
12639SOL    HW149976   2.730   2.501   5.478 -0.5303  0.1486 -0.9464
12639SOL    HW249977   2.777   2.348   5.448 -1.4601  0.0316 -1.8546
12640SOL     OW49978   4.225   3.635   6.876  0.3199 -0.6003  0.4388
12640SOL    HW149979   4.128   3.658   6.880  0.3148 -0.6279  0.4712
12640SOL    HW249980   4.242   3.573   6.799  0.3715 -0.2897  0.1978
12641SOL     OW49981   4.036   3.901   6.545 -0.2672 -0.5099 -0.0773
12641SOL    HW149982   4.096   3.887   6.466  0.0622 -0.1056  0.0980
12641SOL    HW249983   3.941   3.885   6.518 -0.0833 -1.1723 -0.3513
12642SOL     OW49984   2.302   3.780   1.913  0.1950  0.1133  0.6433
12642SOL    HW149985   2.368   3.855   1.919  0.7647 -0.5057  2.3312
12642SOL    HW249986   2.246   3.791   1.830  1.2133  1.6150  0.1417
12643SOL     OW49987   5.231   5.223   7.649 -0.0261 -0.3566  0.1702
12643SOL    HW149988   5.135   5.197   7.655  0.4088 -2.1196 -0.2920
12643SOL    HW249989   5.289   5.147   7.678  1.2262  0.9998  1.3386
12644SOL     OW49990   8.652   2.698   1.004 -0.4652  0.0542 -0.2764
12644SOL    HW149991   8.713   2.677   1.080 -1.1964  0.5962  0.4670
12644SOL    HW249992   8.559   2.671   1.027 -0.6408 -0.0398 -1.0925
12645SOL     OW49993   2.735   6.341   7.858  0.6634  0.2910 -0.1765
12645SOL    HW149994   2.687   6.428   7.842 -0.1833  0.2169  1.8721
12645SOL    HW249995   2.807   6.355   7.926 -0.2303 -0.8364  1.0271
12646SOL     OW49996   5.348   0.914   7.480 -0.5953  0.0747 -0.5081
12646SOL    HW149997   5.275   0.923   7.549 -3.4599  1.2109 -3.5464
12646SOL    HW249998   5.388   0.823   7.486 -1.7361 -0.3242  1.7397
12647SOL     OW49999   0.149   0.195   7.465 -0.0014  0.5592  0.4263
12647SOL    HW150000   0.245   0.175   7.446  0.1153  0.7923  0.7705
12647SOL    HW250001   0.099   0.109   7.476  0.8025  0.4141  3.4324
12648SOL     OW50002   1.591   8.378   4.028 -0.3498 -0.3114  0.1861
12648SOL    HW150003   1.510   8.321   4.046 -1.0740 -0.1618 -2.3656
12648SOL    HW250004   1.571   8.473   4.055 -0.1916 -0.7054  1.7128
12649SOL     OW50005   0.622   9.760   5.902 -0.9349  0.1901 -0.3452
12649SOL    HW150006   0.679   9.769   5.820  0.3067 -0.6300  0.4276
12649SOL    HW250007   0.610   9.850   5.944  1.1702  0.1332  0.4168
12650SOL     OW50008   3.936   1.055   3.373  0.0385  0.1054 -0.0722
12650SOL    HW150009   4.009   1.051   3.441 -0.2843  0.2237  0.2902
12650SOL    HW250010   3.973   1.040   3.282  0.3162 -1.1604  0.2425
12651SOL     OW50011   3.820   6.081   7.237  0.5909 -0.2454 -0.1219
12651SOL    HW150012   3.828   6.042   7.145 -0.0006  0.6986 -0.5877
12651SOL    HW250013   3.835   6.180   7.233 -1.0292  0.0427  0.5415
12652SOL     OW50014   5.619   0.593   6.752 -0.2988 -0.1952 -0.5760
12652SOL    HW150015   5.709   0.571   6.791  1.3303  0.3052 -3.8722
12652SOL    HW250016   5.577   0.510   6.715  0.0448  0.0214 -1.4645
12653SOL     OW50017   7.834   1.938   4.266  0.4971 -0.2154 -0.2372
12653SOL    HW150018   7.856   2.017   4.208  1.0937  1.0288  1.6465
12653SOL    HW250019   7.739   1.944   4.296  0.5666 -0.1777 -0.0258
12654SOL     OW50020   9.801   1.147   3.805  0.4367  0.0243  1.2420
12654SOL    HW150021   9.866   1.084   3.763 -0.1354 -0.5376  1.1957
12654SOL    HW250022   9.764   1.209   3.736 -0.8173 -1.1704  0.8308
12655SOL     OW50023   1.810   9.723   5.497 -0.1854  0.1300 -0.0324
12655SOL    HW150024   1.746   9.690   5.567 -0.1934  0.2462  0.0151
12655SOL    HW250025   1.899   9.742   5.539 -0.4064  0.9271  0.0950
12656SOL     OW50026   0.414   1.194   5.804 -0.2967  0.1768 -0.4108
12656SOL    HW150027   0.501   1.243   5.810  0.2057 -0.6786 -0.4653
12656SOL    HW250028   0.354   1.239   5.738  0.2976  0.5044 -0.7283
12657SOL     OW50029   2.942   6.831   1.644  0.1183 -0.0945 -0.1067
12657SOL    HW150030   3.025   6.826   1.588  0.1630 -0.2043 -0.0306
12657SOL    HW250031   2.966   6.856   1.738  0.0175  0.3424 -0.1963
12658SOL     OW50032   1.845   4.458   8.847 -0.0679  0.4511  0.2913
12658SOL    HW150033   1.904   4.499   8.917 -0.1307  2.0125 -0.5447
12658SOL    HW250034   1.756   4.437   8.886  0.3077  0.1580  0.9965
12659SOL     OW50035   3.145   7.408   0.406  0.1979  0.0886  0.1717
12659SOL    HW150036   3.198   7.449   0.480  1.7317 -0.4837 -0.5778
12659SOL    HW250037   3.129   7.477   0.334  0.6819  0.0294  0.0060
12660SOL     OW50038   7.801   6.216   8.752 -0.9747  0.1616  0.4551
12660SOL    HW150039   7.898   6.223   8.731 -1.1286 -2.6232 -1.6001
12660SOL    HW250040   7.787   6.154   8.829 -1.0129  2.4941  2.3661
12661SOL     OW50041   6.116   1.030   6.314 -0.1764  0.4820 -0.0489
12661SOL    HW150042   6.057   1.070   6.244 -1.1858 -0.8191  0.0366
12661SOL    HW250043   6.118   0.931   6.303  2.8764  0.5737 -0.7066
12662SOL     OW50044   3.427   9.309   8.735  0.2395  0.0281 -0.0075
12662SOL    HW150045   3.447   9.316   8.833  1.3663 -1.5157 -0.1045
12662SOL    HW250046   3.508   9.335   8.683 -0.6528  1.7745 -0.5752
12663SOL     OW50047   3.246   2.621   6.712  0.2704  0.7116  0.3666
12663SOL    HW150048   3.214   2.570   6.632  0.0124  2.2867 -0.5399
12663SOL    HW250049   3.191   2.703   6.724  0.6557  0.7713  1.8551
12664SOL     OW50050   9.326   7.900   0.019 -0.2233  0.3485  0.3619
12664SOL    HW150051   9.367   7.824  -0.032  0.5917 -1.8441  4.1633
12664SOL    HW250052   9.358   7.986  -0.021  2.3348 -1.2756 -1.3070
12665SOL     OW50053   5.951   2.452   2.693 -0.1319  0.4483 -0.1036
12665SOL    HW150054   5.857   2.487   2.694 -0.3694 -0.1541 -0.9769
12665SOL    HW250055   6.006   2.508   2.631 -0.5152 -0.7099 -1.5172
12666SOL     OW50056   2.887   8.522   8.407 -0.1506 -0.0114 -0.8092
12666SOL    HW150057   2.881   8.508   8.506  1.8701 -1.2072 -0.8342
12666SOL    HW250058   2.846   8.610   8.383  0.0804  0.6553  1.1964
12667SOL     OW50059   6.410   6.059   2.451 -0.0108  0.6191  0.5793
12667SOL    HW150060   6.381   6.013   2.535  0.0784  0.1132  0.3304
12667SOL    HW250061   6.341   6.126   2.425 -0.6382 -0.1055  0.3645
12668SOL     OW50062   6.659   6.581   5.581 -0.3151 -0.3332 -0.0201
12668SOL    HW150063   6.737   6.609   5.638  0.0187 -0.7815 -0.2574
12668SOL    HW250064   6.574   6.600   5.631 -0.0265 -0.6808  0.6102
12669SOL     OW50065   2.791   1.338   8.629 -0.1072  0.2595 -0.1863
12669SOL    HW150066   2.800   1.383   8.540  2.8190  0.6800  0.2793
12669SOL    HW250067   2.830   1.396   8.700 -1.5386 -0.5119  1.2491
12670SOL     OW50068   3.862   2.663   9.212 -0.7995 -0.0971  0.8641
12670SOL    HW150069   3.858   2.575   9.259 -1.7695 -0.3513  0.3130
12670SOL    HW250070   3.907   2.652   9.124 -1.5256 -0.1779  0.4999
12671SOL     OW50071   9.363   3.484   9.820 -0.3754  0.4799  1.0846
12671SOL    HW150072   9.303   3.471   9.898 -1.3192  0.9247  0.4433
12671SOL    HW250073   9.312   3.527   9.745  0.0688 -1.4991 -0.3842
12672SOL     OW50074   3.729   4.973   9.137 -0.0445 -0.7264 -0.4959
12672SOL    HW150075   3.650   5.032   9.119  0.3665  0.2006  0.7013
12672SOL    HW250076   3.742   4.964   9.235  0.2514 -2.3682 -0.6764
12673SOL     OW50077   9.832   0.275   6.167 -0.0822 -0.1771  0.1983
12673SOL    HW150078   9.878   0.362   6.185  0.4122 -0.3408 -0.2799
12673SOL    HW250079   9.840   0.253   6.070  0.3594 -1.0940  0.4458
12674SOL     OW50080   7.355   4.327   9.879  0.6658 -0.3558  0.2212
12674SOL    HW150081   7.267   4.281   9.888  0.5769 -0.1209  0.5563
12674SOL    HW250082   7.417   4.293   9.950  0.5687  0.1163  0.5288
12675SOL     OW50083   6.824   4.505   3.598  0.6938 -0.1730  0.2884
12675SOL    HW150084   6.909   4.460   3.570  1.1006  0.2070  0.8911
12675SOL    HW250085   6.826   4.601   3.569 -0.6686 -0.8052 -2.0225
12676SOL     OW50086   2.996   0.260   4.475 -0.4805 -0.6480 -0.1035
12676SOL    HW150087   2.938   0.183   4.503 -0.7559 -0.8505 -1.2216
12676SOL    HW250088   3.036   0.242   4.386 -1.1731  0.8401 -0.7376
12677SOL     OW50089   9.463   5.158   4.324 -0.2151  0.3701  0.7233
12677SOL    HW150090   9.530   5.206   4.381 -0.9131  1.9336  0.2455
12677SOL    HW250091   9.415   5.091   4.381  0.7953  0.1826  1.3891
12678SOL     OW50092   0.829   2.452   5.026  0.3111 -0.8089 -0.1770
12678SOL    HW150093   0.823   2.459   4.927 -0.5009 -0.6484 -0.1171
12678SOL    HW250094   0.899   2.515   5.060 -1.5709  1.4119 -0.3502
12679SOL     OW50095   4.674   6.861   3.775  0.2411  0.3345  0.1489
12679SOL    HW150096   4.607   6.896   3.840 -0.1458  0.2392 -0.2004
12679SOL    HW250097   4.713   6.938   3.724 -0.3255  0.2919 -0.3456
12680SOL     OW50098   7.522   1.041   6.249 -0.3993  0.1164 -0.0982
12680SOL    HW150099   7.436   1.023   6.296 -0.1202 -1.0115  0.0112
12680SOL    HW250100   7.584   0.963   6.263 -0.1894 -0.1030 -2.0357
12681SOL     OW50101   2.582   0.784   3.756  0.1618 -0.3803 -0.4814
12681SOL    HW150102   2.663   0.823   3.800 -0.3377 -1.2146  1.2468
12681SOL    HW250103   2.500   0.832   3.788 -0.2310 -1.1464 -0.3253
12682SOL     OW50104   9.832   9.941   7.419  0.1850 -0.3213  0.3185
12682SOL    HW150105   9.928   9.916   7.424  0.7216  1.6709  0.7296
12682SOL    HW250106   9.823  10.040   7.433 -1.6285  0.0256 -2.8102
12683SOL     OW50107   5.084   7.035   4.645  0.1323 -0.1193  0.0156
12683SOL    HW150108   5.178   7.003   4.635  0.6494  1.4755 -0.4436
12683SOL    HW250109   5.033   6.972   4.704  1.3494 -1.2530 -0.1291
12684SOL     OW50110   7.917   2.553   4.991 -0.2642 -0.2026  0.4185
12684SOL    HW150111   7.927   2.459   4.959 -0.2050 -0.4039  1.0270
12684SOL    HW250112   7.841   2.597   4.944  0.1827 -0.3195 -0.4177
12685SOL     OW50113   7.216   6.302   8.933  0.3776  0.2950 -0.0522
12685SOL    HW150114   7.181   6.363   8.862 -0.8176 -0.1097  0.1804
12685SOL    HW250115   7.298   6.256   8.899 -0.0170  0.3152 -1.0672
12686SOL     OW50116   7.026   9.543   7.645  0.2422 -0.2187 -0.5854
12686SOL    HW150117   7.039   9.562   7.742 -0.1336  0.1090 -0.5974
12686SOL    HW250118   7.115   9.542   7.600  0.5263 -1.7463 -0.0026
12687SOL     OW50119   5.670   6.331   4.924  0.2889  0.1410 -0.4321
12687SOL    HW150120   5.746   6.373   4.973  0.0369  0.9080 -0.6898
12687SOL    HW250121   5.705   6.259   4.863  0.7037 -0.1310  0.1258
12688SOL     OW50122   2.387   5.561   0.352  0.4837 -0.3396 -0.2519
12688SOL    HW150123   2.448   5.553   0.273 -0.7679  0.5781 -1.3350
12688SOL    HW250124   2.292   5.567   0.321 -0.1579 -1.5346  1.4041
12689SOL     OW50125   7.716   3.717   5.514  0.0605 -0.0464 -0.2185
12689SOL    HW150126   7.750   3.636   5.562 -1.1538 -0.6811 -0.4160
12689SOL    HW250127   7.647   3.690   5.447 -0.4979  1.1698 -0.1503
12690SOL     OW50128   3.003   2.054   0.015  0.5036  0.1126 -1.0205
12690SOL    HW150129   2.971   2.127   0.075  2.2134  0.2596 -0.2699
12690SOL    HW250130   2.934   1.982   0.011  1.6800 -1.4108  3.6884
12691SOL     OW50131   2.515   8.068   2.000  0.1947 -0.2597 -0.6395
12691SOL    HW150132   2.451   8.092   1.927 -2.7630  1.7824  2.4323
12691SOL    HW250133   2.598   8.122   1.992 -0.3659  0.3832 -2.1480
12692SOL     OW50134   1.130   2.901   4.293  0.1500  0.1312 -0.3631
12692SOL    HW150135   1.142   2.802   4.302  0.9732  0.1319 -1.3900
12692SOL    HW250136   1.202   2.938   4.234 -0.5506  1.2422 -0.5336
12693SOL     OW50137   1.037   2.716   8.630  0.3270 -0.2189  0.6366
12693SOL    HW150138   1.113   2.687   8.571  0.3482  0.8471  0.1182
12693SOL    HW250139   0.995   2.798   8.591 -0.3998 -0.1774  1.5033
12694SOL     OW50140   8.748   6.445   8.343  0.1469 -0.2189  0.3426
12694SOL    HW150141   8.662   6.494   8.356 -0.7929 -1.7646  0.1434
12694SOL    HW250142   8.780   6.458   8.249 -0.1609 -0.0731  0.2581
12695SOL     OW50143   7.567   2.570   3.807 -0.4332 -0.1571  0.3130
12695SOL    HW150144   7.537   2.662   3.779  1.4994  0.3044 -0.3154
12695SOL    HW250145   7.663   2.557   3.782 -0.7447 -2.4457  0.2072
12696SOL     OW50146   7.446   3.492   8.906 -0.6608 -0.0041  0.2515
12696SOL    HW150147   7.435   3.563   8.976 -0.3898  1.1642 -0.8813
12696SOL    HW250148   7.490   3.412   8.947 -1.4359  0.2695  1.6638
12697SOL     OW50149   0.889   1.177   4.811 -0.3375  0.0548 -0.0343
12697SOL    HW150150   0.983   1.210   4.825 -0.2141 -0.2672 -0.1015
12697SOL    HW250151   0.876   1.152   4.715 -0.4670  0.0194 -0.0076
12698SOL     OW50152   7.201   3.787   6.788  0.4349 -0.2260 -0.0677
12698SOL    HW150153   7.168   3.694   6.806  3.0278 -1.3928 -0.9837
12698SOL    HW250154   7.249   3.821   6.869 -0.2716  0.2207  0.1676
12699SOL     OW50155   2.523   0.662   2.589 -0.0711  0.7482  0.3517
12699SOL    HW150156   2.620   0.670   2.566  0.4984 -1.5245  1.8239
12699SOL    HW250157   2.483   0.584   2.540 -0.8163  0.8235  0.8270
12700SOL     OW50158   8.749   1.951   3.702  0.7107  0.3115 -0.1246
12700SOL    HW150159   8.716   1.878   3.763  1.7741 -0.6689 -0.7002
12700SOL    HW250160   8.703   2.037   3.725  0.7427 -0.1481  1.7439
12701SOL     OW50161   6.657   3.126   3.432 -0.4618  0.3450  0.2722
12701SOL    HW150162   6.591   3.183   3.383 -0.9297 -2.0120 -1.9697
12701SOL    HW250163   6.725   3.091   3.367  0.2068 -1.0923  1.7154
12702SOL     OW50164   9.365   2.597   0.240  0.1238 -0.3196  0.0663
12702SOL    HW150165   9.304   2.573   0.164  0.0891  0.0088 -0.0106
12702SOL    HW250166   9.313   2.602   0.325 -0.2222  1.3974 -0.2440
12703SOL     OW50167   0.314   0.200   1.273  0.0965  0.0433 -0.0128
12703SOL    HW150168   0.324   0.150   1.187 -0.4338  1.3821 -0.8737
12703SOL    HW250169   0.402   0.204   1.320  1.1731  2.0975 -2.0886
12704SOL     OW50170   4.587   3.305   5.834 -0.2708 -0.0518 -0.4030
12704SOL    HW150171   4.526   3.297   5.756  0.7049  0.9230 -1.2849
12704SOL    HW250172   4.629   3.216   5.853 -1.4509 -0.5688 -0.2058
12705SOL     OW50173   0.412   0.797   9.367 -0.1515 -0.3188 -0.4000
12705SOL    HW150174   0.477   0.724   9.344  0.0264  0.3378 -2.0798
12705SOL    HW250175   0.319   0.766   9.349 -0.0928 -0.2287 -0.8717
12706SOL     OW50176   3.324   2.619   7.194  0.0520 -0.1368 -0.2177
12706SOL    HW150177   3.419   2.590   7.205 -0.0777 -0.3482  0.3730
12706SOL    HW250178   3.272   2.593   7.275 -0.4802  0.1037 -0.4809
12707SOL     OW50179   3.550   8.776   3.395 -0.0494 -0.7944 -0.1768
12707SOL    HW150180   3.500   8.824   3.323 -0.0581 -2.5051 -1.3491
12707SOL    HW250181   3.575   8.841   3.467 -3.3643  0.2425  0.1397
12708SOL     OW50182   8.621   2.769   2.460  0.1805 -0.5831  0.4122
12708SOL    HW150183   8.662   2.701   2.521  1.4582 -0.8499 -0.7322
12708SOL    HW250184   8.546   2.726   2.408  1.1798 -1.2234 -0.5303
12709SOL     OW50185   1.652   0.957   9.496 -0.0297  0.0834  0.2941
12709SOL    HW150186   1.632   0.978   9.592 -0.6276 -2.9480  0.8723
12709SOL    HW250187   1.750   0.966   9.480 -0.0068  1.2180  1.0195
12710SOL     OW50188   4.967   4.084   6.006 -0.6277 -0.0475  0.1502
12710SOL    HW150189   4.871   4.110   6.017 -0.5417  0.3955 -0.1485
12710SOL    HW250190   5.025   4.159   6.036 -0.3763 -0.0701 -0.2836
12711SOL     OW50191   2.026   2.604   8.728  0.0546  0.6695  0.0937
12711SOL    HW150192   2.039   2.701   8.706 -2.6470  1.1372  0.4318
12711SOL    HW250193   1.940   2.572   8.689  0.8754 -1.5899  0.0667
12712SOL     OW50194   5.815   4.017   5.121  0.5822  0.3901 -0.4321
12712SOL    HW150195   5.840   4.013   5.025  0.7859 -0.2012 -0.3579
12712SOL    HW250196   5.875   3.956   5.174 -1.4534 -1.6071 -0.3481
12713SOL     OW50197   2.920   3.385   6.207  0.2559 -0.8177  0.0382
12713SOL    HW150198   3.012   3.385   6.169  0.5314  1.5108  0.6217
12713SOL    HW250199   2.854   3.359   6.136  1.0548  0.6155 -1.2586
12714SOL     OW50200   6.884   0.218   5.045 -0.1477 -0.7174 -0.0651
12714SOL    HW150201   6.926   0.286   5.105 -1.5541 -0.7552  1.0175
12714SOL    HW250202   6.954   0.164   5.000  0.9635  0.5590  0.1183
12715SOL     OW50203   2.509   1.689   2.898 -0.1123  0.3658  0.5285
12715SOL    HW150204   2.433   1.634   2.933  0.7284  0.1806  2.1265
12715SOL    HW250205   2.485   1.786   2.905 -0.6707  0.2789 -0.1103
12716SOL     OW50206   4.456   7.888   5.219 -0.4035 -0.1745 -0.0344
12716SOL    HW150207   4.373   7.848   5.256 -1.4550  0.6971 -1.3954
12716SOL    HW250208   4.446   7.901   5.120  1.8631 -1.3020 -0.4465
12717SOL     OW50209   6.310   7.981   4.664 -0.4247  0.3863 -0.3530
12717SOL    HW150210   6.310   7.967   4.763 -0.2471  2.4608 -0.0306
12717SOL    HW250211   6.225   8.025   4.636 -0.4913 -0.2198 -1.1292
12718SOL     OW50212   5.225   0.372   6.714 -0.2271  0.2973  0.5817
12718SOL    HW150213   5.131   0.338   6.714  0.4259 -1.5850  0.3580
12718SOL    HW250214   5.250   0.402   6.622  0.7604 -3.2766 -0.4033
12719SOL     OW50215   0.872   2.346   8.872 -0.4303 -0.0557  0.1165
12719SOL    HW150216   0.774   2.358   8.889 -0.5378  0.8887 -1.1063
12719SOL    HW250217   0.893   2.249   8.863 -1.4384 -0.2012 -0.6863
12720SOL     OW50218   8.935   3.199   8.288 -0.0566  0.2742 -0.1079
12720SOL    HW150219   8.885   3.128   8.239  1.1203 -1.2609  0.8476
12720SOL    HW250220   8.875   3.241   8.356 -1.9371  2.9741 -3.3007
12721SOL     OW50221   4.494   8.824   0.189 -0.2367  0.5022  0.5769
12721SOL    HW150222   4.557   8.766   0.240 -0.5991 -0.5488 -0.1578
12721SOL    HW250223   4.407   8.831   0.238 -0.9135 -1.2630 -0.3033
12722SOL     OW50224   1.836   0.448   4.343 -0.9097 -0.4644  0.0607
12722SOL    HW150225   1.779   0.408   4.414  0.0209  2.0564  2.3325
12722SOL    HW250226   1.816   0.546   4.336  3.5632  0.6438  1.4458
12723SOL     OW50227   9.865   3.794   4.963  0.1440  0.0854 -0.0154
12723SOL    HW150228   9.824   3.870   5.014  1.4704 -0.7008  2.3238
12723SOL    HW250229   9.923   3.740   5.025  1.5290 -1.1352 -2.3043
12724SOL     OW50230   4.992   0.688   8.805  0.3174 -0.2316 -0.5048
12724SOL    HW150231   5.038   0.697   8.893  0.7464  2.7521 -0.9633
12724SOL    HW250232   4.901   0.649   8.819  1.1794 -1.7677  0.9718
12725SOL     OW50233   7.161   4.546   6.087  0.1040  0.1026 -0.0801
12725SOL    HW150234   7.231   4.569   6.155 -0.4687  0.9597  0.2227
12725SOL    HW250235   7.198   4.478   6.024  0.1944 -1.7706  1.9034
12726SOL     OW50236   0.786   1.796   4.836 -0.3759  0.4817 -0.1050
12726SOL    HW150237   0.880   1.793   4.869  0.2715  1.0138 -1.8493
12726SOL    HW250238   0.747   1.704   4.838 -0.0622  0.3659  1.2616
12727SOL     OW50239   3.480   0.296   5.095 -0.1673 -0.5113 -0.2689
12727SOL    HW150240   3.481   0.328   5.190 -0.6298 -2.8390  0.5494
12727SOL    HW250241   3.568   0.317   5.052 -0.2817  1.3913  0.3529
12728SOL     OW50242   6.241   8.000   6.847 -0.9532 -0.4687 -0.6875
12728SOL    HW150243   6.255   7.957   6.758 -0.3491  0.6033 -1.1277
12728SOL    HW250244   6.306   7.963   6.913  1.5043  1.7587 -1.7710
12729SOL     OW50245   1.201   9.376   5.639 -0.4292 -0.2633 -0.4471
12729SOL    HW150246   1.106   9.396   5.664 -0.1857 -0.6375  0.8150
12729SOL    HW250247   1.202   9.314   5.561 -1.2665 -1.7652  0.7024
12730SOL     OW50248   9.100   1.093   7.619 -0.7531  0.5147  0.7904
12730SOL    HW150249   9.114   1.148   7.702  0.4105  1.6536 -0.1536
12730SOL    HW250250   9.028   1.026   7.636 -2.2858  2.3953  1.9369
12731SOL     OW50251   2.431   3.018   5.921 -0.4021  0.3505 -0.2629
12731SOL    HW150252   2.440   3.106   5.873  0.5182  0.1066 -0.5596
12731SOL    HW250253   2.343   3.014   5.967 -1.0013  0.9016 -1.3272
12732SOL     OW50254   0.979   1.356   6.099  0.3579  0.4984  0.3220
12732SOL    HW150255   0.879   1.360   6.102  0.2202 -1.5223 -1.2635
12732SOL    HW250256   1.011   1.279   6.154  1.0749  1.2614  0.9920
12733SOL     OW50257   0.656   5.174   2.949 -0.0752  0.2741 -0.0224
12733SOL    HW150258   0.657   5.177   2.849  1.6838  0.0552 -0.0238
12733SOL    HW250259   0.668   5.080   2.980 -0.2929  0.3843  0.4116
12734SOL     OW50260   6.864   5.499   7.824 -0.4894  0.3689  0.1983
12734SOL    HW150261   6.907   5.574   7.873  1.3074 -0.9694  0.7108
12734SOL    HW250262   6.851   5.524   7.728  0.5456  1.1406  0.2528
12735SOL     OW50263   0.105   4.607   8.818  0.3661 -0.5759 -0.0166
12735SOL    HW150264   0.041   4.541   8.858 -0.0658 -0.4843 -0.5463
12735SOL    HW250265   0.065   4.698   8.822  0.2000 -0.6079 -0.9080
12736SOL     OW50266   4.398   1.737   7.601  0.0567  0.8152 -0.2118
12736SOL    HW150267   4.415   1.783   7.688 -0.4095 -0.6492  0.6774
12736SOL    HW250268   4.410   1.802   7.526 -1.5134  2.6362  1.0522
12737SOL     OW50269   5.471   5.628   7.733  0.5660  0.7826  0.0104
12737SOL    HW150270   5.426   5.708   7.772 -1.7988  0.9222 -2.8399
12737SOL    HW250271   5.527   5.656   7.655 -0.5654 -0.3552 -1.2386
12738SOL     OW50272   4.864   1.287   5.976  0.3528  0.3474  0.1009
12738SOL    HW150273   4.798   1.262   6.046 -0.8238  1.1609 -0.6940
12738SOL    HW250274   4.908   1.373   6.000  0.4375  0.2830  0.1755
12739SOL     OW50275   9.735   1.514   7.363 -0.0757  0.3844 -0.0709
12739SOL    HW150276   9.683   1.587   7.317  0.3877 -0.3013 -1.7016
12739SOL    HW250277   9.717   1.427   7.318 -0.4767 -0.5011  1.7647
12740SOL     OW50278   3.366   2.025   8.252  0.0691 -0.4299 -0.0762
12740SOL    HW150279   3.361   2.071   8.341 -1.0392 -1.3279  0.3369
12740SOL    HW250280   3.283   1.972   8.237  0.8512 -1.4212 -1.0319
12741SOL     OW50281   4.295   6.301   2.703  0.4620 -0.1265  0.5786
12741SOL    HW150282   4.379   6.354   2.689  0.2313  0.3362  0.9552
12741SOL    HW250283   4.224   6.360   2.738 -0.3515 -0.2792 -0.7725
12742SOL     OW50284   3.204   2.620   6.248  0.0809 -0.2364 -0.2288
12742SOL    HW150285   3.196   2.556   6.324  2.5981  0.0908  0.3797
12742SOL    HW250286   3.144   2.699   6.264  0.7557 -0.0639  1.5538
12743SOL     OW50287   3.139   0.488   7.033  0.0675  0.2689  1.3086
12743SOL    HW150288   3.064   0.460   6.972 -0.5385  3.4996  0.4780
12743SOL    HW250289   3.225   0.488   6.983 -0.0600  0.6978  1.0924
12744SOL     OW50290   0.209   2.532   5.574 -0.2177 -0.8661 -0.2821
12744SOL    HW150291   0.301   2.570   5.579 -1.1176  1.4842 -0.9012
12744SOL    HW250292   0.193   2.471   5.652  0.8553  0.9512  1.3915
12745SOL     OW50293   9.810   1.720   5.092  0.1004 -0.7658  0.3308
12745SOL    HW150294   9.848   1.808   5.062 -0.1375 -1.0488 -0.8356
12745SOL    HW250295   9.710   1.723   5.089  0.0792 -0.8116  1.0559
12746SOL     OW50296   3.709   3.216   5.259 -0.2260 -0.4964 -0.2596
12746SOL    HW150297   3.615   3.232   5.287 -0.2212  1.5467 -1.2843
12746SOL    HW250298   3.735   3.121   5.279 -2.3630 -0.9693  0.3625
12747SOL     OW50299   6.095   4.460   2.427 -0.3044 -0.1115 -0.3108
12747SOL    HW150300   5.999   4.485   2.418 -0.1500  0.5260 -0.2233
12747SOL    HW250301   6.152   4.529   2.381  0.1735  0.1855  0.7090
12748SOL     OW50302   1.867   3.190   6.418  0.4473  0.1395 -0.1288
12748SOL    HW150303   1.902   3.122   6.482  2.1865  0.6973 -0.4516
12748SOL    HW250304   1.782   3.230   6.454  1.1779  0.1367  1.6257
12749SOL     OW50305   6.980   3.110   5.396  0.0957  0.1821  0.3480
12749SOL    HW150306   6.968   3.094   5.494  0.9366  0.7164  0.5367
12749SOL    HW250307   7.031   3.195   5.382  0.8761 -0.4314 -0.5363
12750SOL     OW50308   3.544   5.562   5.622  0.2500  0.0097 -0.2438
12750SOL    HW150309   3.591   5.481   5.659 -0.9963 -0.1980  0.8920
12750SOL    HW250310   3.608   5.613   5.564  0.7603 -2.3743 -1.8824
12751SOL     OW50311   5.078   8.970   9.771  0.0553  0.7712  0.7041
12751SOL    HW150312   5.155   9.022   9.735 -0.3264 -0.6662 -2.3058
12751SOL    HW250313   5.087   8.874   9.744 -2.6462  0.5349  0.4986
12752SOL     OW50314   4.769   5.963   6.744  0.1322  0.7331 -0.4798
12752SOL    HW150315   4.673   5.986   6.758  0.0248  0.9911 -1.6148
12752SOL    HW250316   4.780   5.914   6.658  0.8171 -0.5963  0.3465
12753SOL     OW50317   0.170   5.819   1.840  0.1372  0.2456 -0.2246
12753SOL    HW150318   0.112   5.884   1.889 -0.1673  0.3237 -0.6819
12753SOL    HW250319   0.134   5.806   1.747 -0.1627 -1.0190  0.0467
12754SOL     OW50320   3.383   3.590   9.114 -0.2421  0.0987 -0.6190
12754SOL    HW150321   3.337   3.501   9.109  0.1294 -0.2323  1.3940
12754SOL    HW250322   3.481   3.577   9.100 -0.2477  0.2527 -0.8000
12755SOL     OW50323   5.948   8.178   7.672  0.4234 -0.4425  0.4278
12755SOL    HW150324   5.897   8.124   7.604  0.5383  0.5271 -0.4557
12755SOL    HW250325   5.883   8.221   7.735  0.0851  0.9377 -0.8040
12756SOL     OW50326   2.510   9.109   3.741  0.0103 -0.1809  0.5396
12756SOL    HW150327   2.442   9.151   3.681  0.7170  0.5449  0.2388
12756SOL    HW250328   2.563   9.042   3.689  0.9001  0.7491  0.2474
12757SOL     OW50329   5.450   4.318   2.566 -0.1714  0.0817  0.0530
12757SOL    HW150330   5.452   4.322   2.466  0.0655 -2.2702 -0.0604
12757SOL    HW250331   5.533   4.275   2.599 -0.9191 -0.5203  1.1782
12758SOL     OW50332   6.683   7.286   7.771 -0.0676 -0.4519  0.3854
12758SOL    HW150333   6.600   7.339   7.759  0.3807 -0.3803 -2.5362
12758SOL    HW250334   6.757   7.324   7.716  2.0410 -0.3617  3.1088
12759SOL     OW50335   1.494   0.250   6.949 -0.0601  0.6271  0.1823
12759SOL    HW150336   1.454   0.310   7.018 -0.1382  2.0769 -1.1027
12759SOL    HW250337   1.564   0.192   6.991 -0.2785  1.3184  1.5158
12760SOL     OW50338   8.657   3.987   3.680  0.4416 -0.0480  0.8797
12760SOL    HW150339   8.727   3.993   3.751  1.7167 -0.8686 -0.2784
12760SOL    HW250340   8.651   3.893   3.646 -0.1488  0.3301 -0.0883
12761SOL     OW50341   2.556   0.622   6.671  0.1010  0.0223 -0.5041
12761SOL    HW150342   2.633   0.666   6.716 -0.7093  0.4137  0.5310
12761SOL    HW250343   2.476   0.626   6.731 -0.7842 -0.1720 -1.6520
12762SOL     OW50344   9.367   2.655   0.847 -0.0503 -0.1069  0.0314
12762SOL    HW150345   9.271   2.641   0.872 -0.1333 -0.0282 -0.2557
12762SOL    HW250346   9.377   2.647   0.748  0.3005 -0.4778  0.0967
12763SOL     OW50347   4.923   6.461   0.437 -0.3419  0.5180  0.3914
12763SOL    HW150348   4.945   6.551   0.474  2.9250 -0.3330  0.6365
12763SOL    HW250349   4.957   6.390   0.499 -1.2815 -0.9083 -0.6866
12764SOL     OW50350   4.062   8.503   9.567 -0.3471 -0.0264 -0.1005
12764SOL    HW150351   4.032   8.588   9.610 -0.7185  1.0356 -2.4020
12764SOL    HW250352   4.104   8.443   9.636  0.4340  2.2458  1.4286
12765SOL     OW50353   4.224   0.136   6.218  0.0594  0.0301  0.4583
12765SOL    HW150354   4.218   0.079   6.136 -0.2436  0.1177  0.4182
12765SOL    HW250355   4.144   0.120   6.276 -0.1153  0.5488  0.3621
12766SOL     OW50356   8.777   5.549   7.995  0.0018  0.0958  0.3906
12766SOL    HW150357   8.863   5.572   8.040  0.4072 -2.2722  0.8808
12766SOL    HW250358   8.744   5.461   8.028 -1.6652  0.1065 -1.1455
12767SOL     OW50359   5.498   6.313   5.393  0.1201 -0.3520 -0.6620
12767SOL    HW150360   5.411   6.312   5.444 -0.2193  1.6060 -1.1543
12767SOL    HW250361   5.479   6.317   5.295  0.7686 -0.2193 -0.7812
12768SOL     OW50362   5.191   4.710   2.549  0.4580 -0.6902  0.3740
12768SOL    HW150363   5.101   4.732   2.588  0.4757 -0.0140  0.0344
12768SOL    HW250364   5.236   4.643   2.608 -0.3585 -1.2006  0.4322
12769SOL     OW50365   9.522   4.489   5.077 -0.6125  0.1333  0.6252
12769SOL    HW150366   9.471   4.480   5.163  2.4386 -3.3755  2.1832
12769SOL    HW250367   9.488   4.422   5.011  1.0370 -1.2654  1.1875
12770SOL     OW50368   2.054   5.850   5.694 -0.5598 -0.3647  0.1194
12770SOL    HW150369   2.075   5.878   5.600 -0.3809  0.6092  0.4396
12770SOL    HW250370   1.960   5.876   5.716 -0.7723 -1.0620  0.0361
12771SOL     OW50371   1.954   1.721   9.190  0.8051  0.0791  0.1465
12771SOL    HW150372   1.911   1.665   9.119  0.0506  1.5287 -0.5742
12771SOL    HW250373   2.027   1.776   9.150  3.1028 -2.0757  1.2977
12772SOL     OW50374   4.201   5.883   8.063 -0.2709 -0.2679 -0.3227
12772SOL    HW150375   4.286   5.866   8.013 -0.5751  1.6432 -1.5582
12772SOL    HW250376   4.222   5.899   8.159  0.6647 -0.7864 -0.4333
12773SOL     OW50377   6.007   7.369   1.024  0.1828 -0.8872 -0.2349
12773SOL    HW150378   5.944   7.322   1.085 -0.8670  1.4548  0.5433
12773SOL    HW250379   6.074   7.421   1.078 -0.4416  0.7949 -1.0211
12774SOL     OW50380   0.674   4.307   5.279  0.0584  0.3044  0.1131
12774SOL    HW150381   0.603   4.289   5.347 -1.0694  1.6821 -0.6623
12774SOL    HW250382   0.700   4.222   5.234 -1.5395 -0.1539  0.0136
12775SOL     OW50383   5.608   1.078   7.509 -0.3188  0.1264 -0.0150
12775SOL    HW150384   5.665   1.073   7.427 -0.0929  0.2285  0.1333
12775SOL    HW250385   5.512   1.089   7.483 -0.0554  2.1410 -0.2605
12776SOL     OW50386   6.310   1.843   3.892  0.0810 -0.4477  0.2985
12776SOL    HW150387   6.363   1.889   3.964  1.5718 -0.3699 -0.8230
12776SOL    HW250388   6.252   1.910   3.846  1.7917  0.2135 -0.9243
12777SOL     OW50389   2.196   2.150   5.715 -0.4836  0.8825  0.1699
12777SOL    HW150390   2.154   2.182   5.630  0.7244  1.1204 -0.3460
12777SOL    HW250391   2.239   2.227   5.761 -0.7055  0.6570  0.7509
12778SOL     OW50392   3.633   8.265   8.744 -0.2346  0.1265 -0.1965
12778SOL    HW150393   3.591   8.279   8.654 -2.6530  1.6660  1.1159
12778SOL    HW250394   3.700   8.337   8.761 -0.4744  0.3921 -0.3750
12779SOL     OW50395   6.244   7.721   7.087  0.3826 -0.9166 -0.5514
12779SOL    HW150396   6.306   7.799   7.088  1.3973 -1.7107  0.3920
12779SOL    HW250397   6.289   7.642   7.129 -1.2217 -1.5481  0.0427
12780SOL     OW50398   9.883   3.065   2.182 -0.1281 -0.4383  0.1261
12780SOL    HW150399   9.900   3.013   2.266 -2.5321  1.9664  2.2276
12780SOL    HW250400   9.933   3.151   2.186 -2.0499  0.7138  0.2174
12781SOL     OW50401   8.064   0.526   9.915  0.3877 -0.1561 -0.0112
12781SOL    HW150402   7.981   0.572   9.885 -1.7863 -2.2486  2.5659
12781SOL    HW250403   8.069   0.436   9.871 -0.8460 -1.6740  2.8353
12782SOL     OW50404   2.702   4.805   8.784  0.0106  0.1201 -0.3212
12782SOL    HW150405   2.676   4.788   8.689 -0.4277 -1.1369  0.0211
12782SOL    HW250406   2.771   4.877   8.786 -1.6119  1.7697 -1.4192
12783SOL     OW50407   6.262   5.350   8.038  0.3570  0.0768  0.4881
12783SOL    HW150408   6.279   5.449   8.039  0.8424 -0.0052  1.2804
12783SOL    HW250409   6.220   5.323   8.125  0.4116 -0.4397  0.3543
12784SOL     OW50410   0.119   3.940   9.940 -0.2831 -0.4073  0.1762
12784SOL    HW150411   0.194   3.890   9.899  0.6873  0.7540  0.5066
12784SOL    HW250412   0.073   3.882  10.007  0.0525 -1.2632 -0.3263
12785SOL     OW50413   3.467   9.432   0.258 -0.4409  0.6877  0.3070
12785SOL    HW150414   3.422   9.509   0.213 -0.8440  0.6104  0.5793
12785SOL    HW250415   3.406   9.393   0.327 -0.5295 -0.3451 -0.3500
12786SOL     OW50416   1.608   5.262   9.786 -0.1689  0.1925 -0.0781
12786SOL    HW150417   1.559   5.319   9.852 -1.1300  0.4852 -1.0361
12786SOL    HW250418   1.703   5.252   9.815 -0.0513  2.0818  0.2288
12787SOL     OW50419   7.059   6.865   4.028 -0.1852 -0.2088 -0.5472
12787SOL    HW150420   6.986   6.827   4.085 -0.6613  1.6925  0.1836
12787SOL    HW250421   7.099   6.793   3.972  0.4200 -2.2116  2.3293
12788SOL     OW50422   1.334   3.009   0.076  0.4658  0.3135 -0.0641
12788SOL    HW150423   1.292   2.923   0.103 -0.9332  1.2146  0.7417
12788SOL    HW250424   1.418   3.023   0.129  0.2238 -0.1450  0.4478
12789SOL     OW50425   4.882   1.209   8.684 -0.0286  0.0945 -0.6286
12789SOL    HW150426   4.880   1.125   8.737  0.4695  1.7070  2.0076
12789SOL    HW250427   4.843   1.191   8.593 -1.0022 -2.6773  0.2716
12790SOL     OW50428   5.144   9.277   7.812  0.1385 -0.1282  0.5876
12790SOL    HW150429   5.221   9.311   7.759 -0.3637  1.2550  0.7273
12790SOL    HW250430   5.159   9.180   7.835  0.9509 -0.3850 -0.9577
12791SOL     OW50431   5.031   4.814   1.301 -0.2176  0.2882 -0.5655
12791SOL    HW150432   5.081   4.727   1.293 -0.1327  0.2482  0.3577
12791SOL    HW250433   5.019   4.854   1.210 -0.6205 -0.8964 -1.0378
12792SOL     OW50434   4.080   9.096   0.260  0.0242 -0.4608  0.0102
12792SOL    HW150435   4.070   9.154   0.341 -0.4346 -1.7448  0.8891
12792SOL    HW250436   4.001   9.110   0.199  0.6575  0.9370 -0.5091
12793SOL     OW50437   7.096   9.839   0.161  0.3535 -0.1475  0.2718
12793SOL    HW150438   7.138   9.919   0.204 -0.3666 -1.4435  3.4446
12793SOL    HW250439   7.006   9.864   0.125 -0.3985  0.1528  2.3518
12794SOL     OW50440   3.448   5.419   7.987 -0.2932 -0.0995  0.5901
12794SOL    HW150441   3.535   5.370   7.999  0.5827  1.6381  1.6010
12794SOL    HW250442   3.442   5.453   7.894 -0.3959 -1.1729  0.2000
12795SOL     OW50443   3.368   3.250   8.253  0.1560 -0.1501 -0.1546
12795SOL    HW150444   3.417   3.233   8.338  0.7383  1.7185 -0.0799
12795SOL    HW250445   3.270   3.251   8.270  0.2885  0.6642  0.6083
12796SOL     OW50446   3.493   0.169   6.711  0.4667  0.2354 -0.6585
12796SOL    HW150447   3.488   0.245   6.646  1.4490  0.2526 -0.7149
12796SOL    HW250448   3.589   0.145   6.728  0.2259  0.3282  0.8899
12797SOL     OW50449   3.075   8.342   5.136 -0.4865  0.3695 -0.1157
12797SOL    HW150450   3.043   8.411   5.072 -2.3337 -0.7357 -0.3970
12797SOL    HW250451   3.108   8.262   5.086  1.0387  0.7581  0.2314
12798SOL     OW50452   1.930   9.480   2.427  0.0946 -0.8374  0.1518
12798SOL    HW150453   1.856   9.531   2.385  1.2705 -0.0117 -0.9673
12798SOL    HW250454   1.996   9.453   2.357  1.1841 -0.9635  1.2014
12799SOL     OW50455   9.377   7.707   8.473  0.1862 -0.3409  0.0826
12799SOL    HW150456   9.379   7.718   8.374  3.0791  2.1417  0.3462
12799SOL    HW250457   9.320   7.780   8.513 -1.2680 -1.5492  0.2658
12800SOL     OW50458   1.836   3.640   6.512  0.2270  0.1022  0.4781
12800SOL    HW150459   1.858   3.588   6.594 -1.2531  2.3826  2.3916
12800SOL    HW250460   1.918   3.685   6.478  0.8765 -0.9650  0.6177
12801SOL     OW50461   9.367   6.775   9.643 -0.0176 -0.7245 -0.7749
12801SOL    HW150462   9.336   6.778   9.548  1.1849 -1.9690 -1.2180
12801SOL    HW250463   9.353   6.684   9.681 -0.6328 -0.1982  0.3090
12802SOL     OW50464   2.903   4.298   8.073 -0.0076 -0.3547 -0.1723
12802SOL    HW150465   2.845   4.241   8.016  0.6141  0.0109 -1.1896
12802SOL    HW250466   2.949   4.367   8.016  0.0187  0.5172  0.8816
12803SOL     OW50467   6.970   6.951   5.955 -0.1399  0.1082  0.1383
12803SOL    HW150468   6.993   6.921   5.863 -2.5278 -0.7583 -0.2272
12803SOL    HW250469   7.004   6.885   6.022  2.2730  1.1277 -0.0206
12804SOL     OW50470   1.396   0.826   8.302 -0.0238  0.2379  0.3539
12804SOL    HW150471   1.407   0.924   8.291  2.0759  0.0809  0.7083
12804SOL    HW250472   1.335   0.807   8.379 -0.5869  1.2500  0.1622
12805SOL     OW50473   2.685   1.259   7.168  0.6605  0.1408 -0.4328
12805SOL    HW150474   2.625   1.247   7.089 -0.9027  2.6766  0.3001
12805SOL    HW250475   2.733   1.346   7.160  2.2393 -0.6431  0.3231
12806SOL     OW50476   1.064   2.318   2.213 -0.4740 -0.2922 -0.4566
12806SOL    HW150477   1.084   2.228   2.251  0.2283  0.4105  0.8707
12806SOL    HW250478   1.022   2.308   2.123  0.9989 -1.9215 -0.9891
12807SOL     OW50479   7.163   4.164   0.334  0.8356  0.7309  0.9010
12807SOL    HW150480   7.088   4.201   0.279  2.3434  0.5743 -1.3501
12807SOL    HW250481   7.140   4.071   0.364 -0.5847  1.3386  1.7254
12808SOL     OW50482   2.580   1.066   7.554 -0.3055 -0.3642  0.2221
12808SOL    HW150483   2.561   0.974   7.590  0.7168  0.1810  2.1854
12808SOL    HW250484   2.520   1.132   7.598 -0.2832  0.0750 -0.3952
12809SOL     OW50485   7.052   6.468   6.839 -0.2855  0.0833  0.3067
12809SOL    HW150486   7.030   6.443   6.744 -1.3691  1.7024  0.1200
12809SOL    HW250487   7.151   6.461   6.852 -0.1107 -0.0778 -0.9593
12810SOL     OW50488   0.522   3.850   3.206 -1.1244 -0.5983  0.3752
12810SOL    HW150489   0.515   3.815   3.299 -0.5954 -1.1998  0.1885
12810SOL    HW250490   0.430   3.862   3.168 -1.3582  0.1914  1.1719
12811SOL     OW50491   4.655   6.596   8.892 -0.1018  0.1000  0.3152
12811SOL    HW150492   4.600   6.576   8.973  0.8791 -0.9887  0.7267
12811SOL    HW250493   4.599   6.584   8.810 -0.4795 -0.9691  0.7292
12812SOL     OW50494   2.964   8.874   3.155 -0.1522  0.9965 -0.8071
12812SOL    HW150495   2.905   8.863   3.075 -1.7066  2.2160  0.1380
12812SOL    HW250496   2.923   8.941   3.217  1.5175  0.7778  0.5575
12813SOL     OW50497   2.961   1.546   9.496  0.0782 -0.4831 -0.0676
12813SOL    HW150498   2.966   1.592   9.407 -1.5678  0.1287  0.1264
12813SOL    HW250499   2.910   1.460   9.486 -0.5269 -0.1798  0.3631
12814SOL     OW50500   4.991   4.537   9.416  0.3312  0.2760 -0.7699
12814SOL    HW150501   5.043   4.452   9.428  1.3183  1.1625  1.3211
12814SOL    HW250502   4.954   4.540   9.323  1.1844 -1.9438 -1.2070
12815SOL     OW50503   3.662   4.030   6.432 -0.3730 -0.4463 -0.3570
12815SOL    HW150504   3.711   3.966   6.374  0.7211 -0.6226  0.7474
12815SOL    HW250505   3.579   3.987   6.467  1.1387 -1.8636  1.6413
12816SOL     OW50506   6.173   4.409   7.726  0.8095 -0.0463  0.2473
12816SOL    HW150507   6.249   4.352   7.694  1.5714  1.0516  0.0462
12816SOL    HW250508   6.087   4.364   7.705  1.4089 -1.6967  1.2167
12817SOL     OW50509   4.065   5.652   8.887  0.0731  0.0464  0.4159
12817SOL    HW150510   4.132   5.612   8.824 -0.3904  0.0667 -0.0885
12817SOL    HW250511   4.107   5.663   8.977  0.6594 -0.2160  0.1779
12818SOL     OW50512   4.091   2.535   8.790  0.1227 -0.0003  0.1667
12818SOL    HW150513   4.187   2.530   8.817  0.4119  0.1182 -0.8164
12818SOL    HW250514   4.051   2.444   8.792  0.4746 -0.1646 -0.1793
12819SOL     OW50515   6.136   2.363   0.261  0.0322 -0.3558  0.4769
12819SOL    HW150516   6.128   2.430   0.335  0.4087 -0.1583  0.3398
12819SOL    HW250517   6.227   2.368   0.221 -0.4569  0.1724 -0.6090
12820SOL     OW50518   0.010   0.238   5.487 -0.0251  0.6739  0.3490
12820SOL    HW150519   0.064   0.270   5.409 -0.3574  0.9512  0.2354
12820SOL    HW250520   0.053   0.156   5.525  0.3472  0.7558  0.1109
12821SOL     OW50521   1.626   7.261   6.859  0.3027 -0.0601 -0.6378
12821SOL    HW150522   1.659   7.326   6.790 -0.3272  0.5349 -0.3831
12821SOL    HW250523   1.527   7.274   6.872  0.4169 -0.1885  0.3573
12822SOL     OW50524   4.339   5.138   3.008  0.1759 -0.3131 -0.0354
12822SOL    HW150525   4.280   5.065   3.042 -0.3959  0.7083  1.1866
12822SOL    HW250526   4.283   5.215   2.976  0.7849 -0.1553 -0.7352
12823SOL     OW50527   8.628   2.811   7.868 -0.1895  0.1677  0.1953
12823SOL    HW150528   8.645   2.905   7.897 -0.5647  0.2598  0.1142
12823SOL    HW250529   8.543   2.807   7.815 -1.1403 -0.5088  1.7322
12824SOL     OW50530   5.027   0.205   7.792 -0.4133  0.6169  0.2134
12824SOL    HW150531   4.933   0.230   7.771  0.5069  4.5982  0.4940
12824SOL    HW250532   5.032   0.168   7.885 -1.8261 -0.5716 -0.1663
12825SOL     OW50533   5.808   0.417   7.087 -0.2277 -0.0358 -0.3325
12825SOL    HW150534   5.710   0.427   7.107 -0.2757  1.2543 -1.1743
12825SOL    HW250535   5.861   0.464   7.158 -0.2957  1.3348 -1.1730
12826SOL     OW50536   2.699   7.396   9.011  0.2839  0.2750  0.0159
12826SOL    HW150537   2.619   7.337   9.002 -0.0846  1.0712 -2.2821
12826SOL    HW250538   2.767   7.352   9.070 -0.1765 -2.2186 -1.2536
12827SOL     OW50539   9.472   3.939   7.199  0.3882  0.4710 -0.5236
12827SOL    HW150540   9.566   3.953   7.231 -0.0339  0.5525  0.7183
12827SOL    HW250541   9.412   4.005   7.244 -0.3828 -0.1020 -0.7140
12828SOL     OW50542   2.997   9.983   0.700  0.1482 -0.0095  0.4233
12828SOL    HW150543   2.909  10.021   0.729  1.0862  1.1648  1.8602
12828SOL    HW250544   3.050  10.054   0.654  1.1175 -0.1278  1.3268
12829SOL     OW50545   7.113   6.113   9.129  0.2436 -0.5950  0.9317
12829SOL    HW150546   7.158   6.169   9.060 -0.2851 -0.6030  0.5795
12829SOL    HW250547   7.182   6.063   9.181  0.6494 -0.4996  0.4906
12830SOL     OW50548   0.034   3.324   1.409 -0.3788 -0.1047  0.0358
12830SOL    HW150549   0.028   3.254   1.479 -0.2957 -1.3703 -1.1943
12830SOL    HW250550  -0.055   3.335   1.365  0.2181 -1.3900 -1.5860
12831SOL     OW50551   4.292   2.767   0.075 -0.4772 -0.6745  0.0245
12831SOL    HW150552   4.204   2.724   0.093  0.2849 -2.0327  0.6206
12831SOL    HW250553   4.352   2.702   0.028  0.4429 -0.0044  0.2500
12832SOL     OW50554   5.265   5.448   9.684 -0.3421 -0.2637 -0.3082
12832SOL    HW150555   5.203   5.490   9.751  0.7532  0.9207 -0.0148
12832SOL    HW250556   5.317   5.376   9.729 -0.8855 -0.6851 -0.3446
12833SOL     OW50557   1.328   0.961   6.130  0.6251 -0.1912 -0.3074
12833SOL    HW150558   1.341   1.024   6.054  0.3909  0.3760  0.1203
12833SOL    HW250559   1.401   0.972   6.197  0.1423  0.2085  0.1644
12834SOL     OW50560   2.066   1.244   3.832 -0.1958 -0.5113  0.6655
12834SOL    HW150561   2.039   1.152   3.803 -3.2095  1.2058 -2.4019
12834SOL    HW250562   2.122   1.286   3.761 -2.0924  1.3924  0.2477
12835SOL     OW50563   3.330   3.366   9.731 -0.8046 -0.1175 -0.4850
12835SOL    HW150564   3.395   3.365   9.655  1.1358  2.5038  1.0606
12835SOL    HW250565   3.246   3.319   9.703  0.6643 -1.1022 -3.4824
12836SOL     OW50566   5.708   3.381   2.955  0.1307  0.5102 -0.5855
12836SOL    HW150567   5.679   3.473   2.983  2.4201  1.4844 -1.3330
12836SOL    HW250568   5.747   3.333   3.033  0.1101  0.6506 -0.4885
12837SOL     OW50569   1.630   2.490   2.387  0.0984 -0.2910  0.1805
12837SOL    HW150570   1.722   2.495   2.347  0.9307 -0.6334  1.9829
12837SOL    HW250571   1.638   2.491   2.487 -1.8423 -0.7924  0.3485
12838SOL     OW50572   6.985   0.137   1.519  0.1720  0.4523  0.1546
12838SOL    HW150573   6.899   0.141   1.468  0.0348  0.2023  0.3626
12838SOL    HW250574   6.985   0.057   1.578  0.7036  0.2509 -0.1127
12839SOL     OW50575   7.974   4.841   4.824 -0.1269  0.1780  0.3215
12839SOL    HW150576   7.903   4.884   4.767  1.2141  0.7876 -0.9117
12839SOL    HW250577   7.971   4.742   4.811  1.1241  0.4071 -1.9860
12840SOL     OW50578   4.753   3.523   9.859 -0.1658  0.2192 -0.6246
12840SOL    HW150579   4.665   3.557   9.826 -1.1053 -2.3863 -0.9226
12840SOL    HW250580   4.786   3.582   9.933 -3.8093 -0.6472  1.8114
12841SOL     OW50581   6.013   2.788   6.883 -0.0385 -0.3726 -0.3128
12841SOL    HW150582   5.932   2.735   6.907  1.1232 -2.1261 -0.1551
12841SOL    HW250583   6.068   2.803   6.965  0.2587  0.0135 -0.5833
12842SOL     OW50584   4.151   8.164   2.817  0.0241  0.6463  0.1249
12842SOL    HW150585   4.189   8.156   2.909  0.1254  1.8715  0.1996
12842SOL    HW250586   4.151   8.075   2.773 -0.6723 -0.0937  1.5682
12843SOL     OW50587   6.363   2.656   0.497  0.4079  0.2583 -0.1733
12843SOL    HW150588   6.333   2.625   0.587  1.1147  3.9095  1.3999
12843SOL    HW250589   6.433   2.594   0.462  0.0395 -1.2803  1.7282
12844SOL     OW50590   9.712   3.106   9.387 -0.4201 -0.0497  0.2058
12844SOL    HW150591   9.810   3.094   9.400 -0.0118  0.1986 -2.4613
12844SOL    HW250592   9.672   3.022   9.351 -0.7917  0.5629 -0.8413
12845SOL     OW50593   6.840   3.158   0.184 -0.2115  0.8176 -0.1331
12845SOL    HW150594   6.785   3.180   0.264  0.2381 -0.3870  0.5224
12845SOL    HW250595   6.934   3.139   0.211  0.8037  3.8331 -1.3632
12846SOL     OW50596   5.170   4.265   1.397 -1.0051 -0.1182 -0.6503
12846SOL    HW150597   5.258   4.224   1.420 -1.4477 -0.1457  1.0980
12846SOL    HW250598   5.100   4.194   1.392 -1.6974  0.3077  2.0066
12847SOL     OW50599   2.643   1.448   5.317 -0.1719 -0.0089 -0.1094
12847SOL    HW150600   2.709   1.433   5.243  1.7546  0.1867  1.5287
12847SOL    HW250601   2.603   1.540   5.307 -0.6774 -0.3541 -1.4544
12848SOL     OW50602   0.408   4.626   9.950  0.4807  0.5977  0.0203
12848SOL    HW150603   0.436   4.645  10.044  3.5885  0.3621 -0.8026
12848SOL    HW250604   0.468   4.674   9.887 -0.4405 -0.6799 -1.8838
12849SOL     OW50605   6.464   6.879   9.241 -0.3239 -0.3032  0.2482
12849SOL    HW150606   6.446   6.943   9.166 -3.0246 -0.1669  0.9565
12849SOL    HW250607   6.428   6.789   9.217 -2.5621  0.0965  1.9536
12850SOL     OW50608   5.495   8.223   9.505 -0.0640  0.5518  0.6327
12850SOL    HW150609   5.493   8.294   9.575  0.6879  0.1398  1.0773
12850SOL    HW250610   5.590   8.200   9.483 -0.2945 -1.4889  1.6935
12851SOL     OW50611   3.585   6.170   1.816 -0.0692 -0.1557 -0.1937
12851SOL    HW150612   3.488   6.193   1.802 -0.1104 -0.9895 -1.3378
12851SOL    HW250613   3.615   6.108   1.745  1.7592  1.3394 -0.7751
12852SOL     OW50614   2.099   5.644   6.017  0.1789  0.5823  0.0273
12852SOL    HW150615   2.053   5.588   5.949  2.1471 -1.5803  0.4063
12852SOL    HW250616   2.166   5.704   5.971  1.6301 -0.9990  0.0262
12853SOL     OW50617   6.668   0.464   6.747  0.3379  0.6207  0.2057
12853SOL    HW150618   6.682   0.420   6.835  1.1605  0.6747  0.1105
12853SOL    HW250619   6.702   0.405   6.674 -1.1552  0.1883 -0.1558
12854SOL     OW50620   6.969   5.265   8.064  0.0941 -0.7150 -0.8243
12854SOL    HW150621   6.964   5.188   8.000 -3.3503 -1.2700  0.0256
12854SOL    HW250622   6.918   5.243   8.147  1.7983  1.2526  0.8145
12855SOL     OW50623   0.806   2.433   8.387  0.3901 -1.0455  0.0884
12855SOL    HW150624   0.808   2.471   8.480  0.0233 -0.8778  0.0267
12855SOL    HW250625   0.858   2.347   8.386  0.9856 -0.6966  0.2913
12856SOL     OW50626   3.929   1.058   8.685 -0.1409 -0.0282  0.1554
12856SOL    HW150627   3.970   1.147   8.708 -1.0432  0.3579  0.3337
12856SOL    HW250628   3.955   1.032   8.593  1.5853 -0.4371  0.7512
12857SOL     OW50629   4.022   5.650   8.019 -0.1295 -0.5326 -0.5680
12857SOL    HW150630   3.922   5.641   8.014 -0.0631 -1.5787 -0.1015
12857SOL    HW250631   4.048   5.743   7.992 -1.4535  0.6484  1.9837
12858SOL     OW50632   4.818   3.150   6.874  0.1977 -0.2141  0.0246
12858SOL    HW150633   4.892   3.084   6.867 -0.5803 -0.8788 -2.8162
12858SOL    HW250634   4.732   3.102   6.895  0.0071  0.1280  0.0279
12859SOL     OW50635   6.370   0.899   8.348  0.1455  0.1785  0.0718
12859SOL    HW150636   6.451   0.849   8.380 -0.0350  0.0176  0.2729
12859SOL    HW250637   6.343   0.966   8.416 -0.9745 -0.9963  0.8085
12860SOL     OW50638   5.952   0.577   7.255 -0.3064  0.1513 -0.0351
12860SOL    HW150639   6.023   0.647   7.249  0.0058 -0.1648 -0.0989
12860SOL    HW250640   5.971   0.518   7.334 -0.7668  0.3546  0.2281
12861SOL     OW50641   1.170   3.182   6.838 -0.0678 -0.3582 -0.4830
12861SOL    HW150642   1.151   3.137   6.751  0.5917 -0.4928 -0.5622
12861SOL    HW250643   1.218   3.268   6.821  0.1167 -0.4150 -0.2485
12862SOL     OW50644   4.950   4.360   6.318 -0.0705 -0.1939 -0.2112
12862SOL    HW150645   4.995   4.283   6.363 -0.3636  0.6144  1.4954
12862SOL    HW250646   4.854   4.339   6.303  0.3885 -1.1299 -2.0430
12863SOL     OW50647   7.625   8.658   5.763 -0.5028 -0.4545  0.0330
12863SOL    HW150648   7.540   8.661   5.711 -2.1181  0.2967  2.6143
12863SOL    HW250649   7.652   8.563   5.778 -2.2286 -0.7671  1.2867
12864SOL     OW50650   9.767   9.344   9.157 -0.0812  0.3302 -0.9092
12864SOL    HW150651   9.784   9.338   9.255 -0.5227 -0.9683 -0.8913
12864SOL    HW250652   9.799   9.431   9.122  1.0469  0.3675  0.2046
12865SOL     OW50653   2.228   8.278   6.323 -0.1580  0.3105 -0.6286
12865SOL    HW150654   2.307   8.292   6.382 -0.1263  0.0988 -0.6216
12865SOL    HW250655   2.196   8.184   6.331 -0.5326  0.4468 -0.4793
12866SOL     OW50656   3.192   3.379   3.603 -0.0328  0.1347 -0.9182
12866SOL    HW150657   3.270   3.423   3.647 -1.0210  0.4901  0.5094
12866SOL    HW250658   3.151   3.441   3.537  1.3294 -0.3203 -2.2069
12867SOL     OW50659   2.956   4.428   1.764  0.1496 -0.2760 -0.2232
12867SOL    HW150660   2.943   4.505   1.700 -0.3113 -0.4594 -0.3548
12867SOL    HW250661   3.024   4.366   1.726  0.8960  0.3189  0.1196
12868SOL     OW50662   0.056   7.504   5.625 -0.4114  0.2026 -0.6115
12868SOL    HW150663   0.144   7.487   5.581  0.2510 -2.3627  1.6239
12868SOL    HW250664   0.070   7.539   5.717 -1.7528  0.4461 -0.4873
12869SOL     OW50665   0.496   8.791   9.920  0.5853  0.0790 -0.2100
12869SOL    HW150666   0.561   8.828   9.853  0.5986 -1.3254 -0.9961
12869SOL    HW250667   0.543   8.779  10.008  1.0326  0.3053 -0.4132
12870SOL     OW50668   5.414   2.759   1.602 -0.5091  0.4015  0.8027
12870SOL    HW150669   5.345   2.764   1.675 -0.5419  1.2077  0.7259
12870SOL    HW250670   5.374   2.794   1.517  0.8228  3.4714  1.3861
12871SOL     OW50671   7.267   5.191   9.099 -0.0226  0.5643 -0.1645
12871SOL    HW150672   7.272   5.268   9.163 -1.4976  0.5262  0.0114
12871SOL    HW250673   7.281   5.224   9.006 -1.9209  1.2506 -0.2189
12872SOL     OW50674   2.059   1.875   4.361  0.3478 -0.6955  0.4729
12872SOL    HW150675   2.147   1.886   4.316  1.0435 -1.1040  1.7059
12872SOL    HW250676   2.006   1.803   4.314 -0.4253  1.3301 -1.8641
12873SOL     OW50677   2.439   4.270   9.268 -0.0148 -0.1965  0.1037
12873SOL    HW150678   2.516   4.330   9.248  1.3996 -1.9451  0.1801
12873SOL    HW250679   2.473   4.178   9.291 -2.1347 -1.1482 -0.4439
12874SOL     OW50680   2.465   4.237   8.091 -0.2666 -0.4112  0.2067
12874SOL    HW150681   2.509   4.304   8.150  0.0623 -0.5044  0.0655
12874SOL    HW250682   2.480   4.145   8.127 -0.4930 -0.4297  0.2538
12875SOL     OW50683   9.772   5.033   4.115  0.3420  0.6826  0.1457
12875SOL    HW150684   9.736   4.990   4.198  0.5511 -1.1040 -0.6739
12875SOL    HW250685   9.865   5.001   4.098  0.9310  2.3342  0.1225
12876SOL     OW50686   2.884   4.856   7.578 -0.5007 -0.2101  0.6209
12876SOL    HW150687   2.798   4.900   7.552 -0.7349 -0.4998  0.9075
12876SOL    HW250688   2.865   4.767   7.619 -0.1810  0.5698  2.5080
12877SOL     OW50689   5.251   5.048   1.077  0.2206  0.6780 -0.4620
12877SOL    HW150690   5.197   5.126   1.110 -1.3730  0.1222 -1.6661
12877SOL    HW250691   5.329   5.033   1.138 -1.5339  0.8905  1.8917
12878SOL     OW50692   6.595   0.286   7.964 -0.1184 -0.5863 -0.3566
12878SOL    HW150693   6.564   0.302   7.871  1.5416 -2.7496 -1.3386
12878SOL    HW250694   6.531   0.226   8.011  0.1537 -1.2492 -0.8288
12879SOL     OW50695   2.712   6.637   7.340  0.3547  0.0127 -0.2029
12879SOL    HW150696   2.742   6.732   7.338  1.1364 -0.2531 -1.4734
12879SOL    HW250697   2.680   6.614   7.432  1.2553  1.1711  0.4092
12880SOL     OW50698   3.852   8.121   8.052  0.0233  0.5630  0.8820
12880SOL    HW150699   3.825   8.214   8.079  1.5031  1.3345 -0.1741
12880SOL    HW250700   3.905   8.079   8.125  2.0003  1.7489  0.1756
12881SOL     OW50701   6.269   4.357   9.111  0.1601 -0.0063 -0.3631
12881SOL    HW150702   6.265   4.349   9.211 -0.2031  2.0516 -0.1740
12881SOL    HW250703   6.343   4.300   9.076  1.1891  0.2908  1.2300
12882SOL     OW50704   3.399   3.068   8.053 -0.1456 -0.3120  1.0896
12882SOL    HW150705   3.334   3.092   7.981  0.5876  0.3379  0.6313
12882SOL    HW250706   3.399   3.138   8.124  2.5241  1.5497 -0.6067
12883SOL     OW50707   6.905   2.722   7.700 -0.5133 -0.2152 -0.2686
12883SOL    HW150708   6.947   2.812   7.705 -2.9845  0.9661  0.0868
12883SOL    HW250709   6.819   2.729   7.649 -1.2805 -2.1571  0.7231
12884SOL     OW50710   6.964   8.729   0.310  0.0473  0.1431 -0.6683
12884SOL    HW150711   7.059   8.755   0.290  0.4470 -0.7878 -0.0558
12884SOL    HW250712   6.944   8.746   0.407 -0.4195  0.3733 -0.8064
12885SOL     OW50713   6.015   6.623   9.074  0.2219  0.0583  0.4164
12885SOL    HW150714   6.004   6.544   9.133 -1.4005  0.7186  1.0243
12885SOL    HW250715   5.985   6.600   8.981  1.1460 -0.4668  0.2446
12886SOL     OW50716   4.155   4.356   5.601 -0.0889  0.0849  0.0151
12886SOL    HW150717   4.098   4.429   5.563 -0.8210 -0.0294  0.8811
12886SOL    HW250718   4.194   4.386   5.688 -0.9867 -0.8088  0.7408
12887SOL     OW50719   6.832   7.283   6.315  0.0726  0.4233 -0.6432
12887SOL    HW150720   6.745   7.258   6.357 -0.4651  1.8751 -0.8479
12887SOL    HW250721   6.906   7.274   6.381 -0.3050 -0.3454 -0.3234
12888SOL     OW50722   2.766   0.204   8.918 -0.8032 -0.1787 -0.0793
12888SOL    HW150723   2.803   0.115   8.947  0.3114  0.3177  0.0475
12888SOL    HW250724   2.830   0.247   8.854 -0.3514  1.4299  1.4068
12889SOL     OW50725   3.701   5.721   1.142 -0.0159  0.0956  0.3928
12889SOL    HW150726   3.789   5.770   1.132  1.0640 -1.9226 -0.2062
12889SOL    HW250727   3.678   5.677   1.056 -1.4828  0.3395  0.6508
12890SOL     OW50728   1.706   2.130   2.958 -0.2692  0.4183 -0.0207
12890SOL    HW150729   1.640   2.174   3.018  1.2829  2.5691  0.1706
12890SOL    HW250730   1.796   2.129   3.002  0.4655  0.2431 -1.4984
12891SOL     OW50731   8.735   4.235   6.111  0.3330 -0.4744  0.1475
12891SOL    HW150732   8.723   4.200   6.018 -0.5319 -0.1660  0.1395
12891SOL    HW250733   8.811   4.299   6.112 -0.3064  0.3105 -0.5686
12892SOL     OW50734   2.855   1.583   8.765 -0.3536  0.4824 -0.4285
12892SOL    HW150735   2.909   1.665   8.748  1.4177 -0.7152 -0.7244
12892SOL    HW250736   2.763   1.609   8.795  0.2310  2.5518 -0.3644
12893SOL     OW50737   6.342   3.923   6.752 -0.6419  0.0869 -0.0044
12893SOL    HW150738   6.438   3.930   6.726 -0.4333  0.6158  0.8809
12893SOL    HW250739   6.294   4.007   6.728 -0.9120 -0.2098 -0.5258
12894SOL     OW50740   5.428   9.385   7.224 -0.0264 -0.7172 -0.2962
12894SOL    HW150741   5.375   9.442   7.287  1.1984 -0.5034  0.5827
12894SOL    HW250742   5.491   9.443   7.172 -1.6497 -0.7763 -2.4005
12895SOL     OW50743   4.374   9.741   8.231  0.1995 -0.1285 -0.3606
12895SOL    HW150744   4.469   9.771   8.225  0.4534 -0.8409  0.1558
12895SOL    HW250745   4.333   9.775   8.315  0.5394 -1.3665  0.3140
12896SOL     OW50746   3.567   7.839   8.295  0.0066 -0.0299  0.2269
12896SOL    HW150747   3.491   7.792   8.339 -0.0957  0.6268  0.7447
12896SOL    HW250748   3.556   7.834   8.195  0.2749 -1.5662  0.2605
12897SOL     OW50749   9.298   7.445   8.876 -0.1336 -0.3942 -0.1616
12897SOL    HW150750   9.368   7.375   8.868  0.0924  0.0062 -1.8713
12897SOL    HW250751   9.337   7.535   8.857 -1.1377 -0.1939 -1.3838
12898SOL     OW50752   6.535   0.585   8.159  0.4620 -0.0423  0.6047
12898SOL    HW150753   6.489   0.673   8.146 -1.3893 -1.0345  0.3223
12898SOL    HW250754   6.548   0.540   8.071  2.7761  0.6095  0.5909
12899SOL     OW50755   1.319   9.091   8.425  0.3286  0.0364  0.5171
12899SOL    HW150756   1.312   9.071   8.522 -0.1916 -1.4487  0.1842
12899SOL    HW250757   1.411   9.071   8.393  0.0726 -0.9669  0.3871
12900SOL     OW50758   1.569   5.023   8.579  0.4581  0.5694  0.0158
12900SOL    HW150759   1.567   5.117   8.613  1.8848  0.7360 -0.3495
12900SOL    HW250760   1.572   4.959   8.656 -3.0560  0.7070  0.3479
12901SOL     OW50761   0.018   5.657   7.028  0.1552 -0.2598  0.2971
12901SOL    HW150762  -0.027   5.633   6.942  0.5889  0.4192 -0.1236
12901SOL    HW250763  -0.008   5.749   7.055  0.8935 -0.0454  0.3054
12902SOL     OW50764   9.110   4.556   5.113 -0.2949  0.6019 -0.0538
12902SOL    HW150765   9.179   4.542   5.184 -1.1634  2.3797  1.1785
12902SOL    HW250766   9.152   4.546   5.023  1.4484  1.1014  0.6840
12903SOL     OW50767   3.306   3.944   0.936  0.8772  0.8288 -0.3452
12903SOL    HW150768   3.314   4.039   0.964  1.6390  0.4097  0.9188
12903SOL    HW250769   3.239   3.897   0.994 -0.6607  0.9628 -1.9762
12904SOL     OW50770   4.786   5.094   6.257 -0.0780  0.2978  0.0775
12904SOL    HW150771   4.819   5.141   6.175 -0.7616  0.9331  0.1573
12904SOL    HW250772   4.841   5.121   6.336  0.2504  0.0867 -0.0801
12905SOL     OW50773   0.749   1.642   7.725  0.2310 -0.4533  0.5944
12905SOL    HW150774   0.787   1.732   7.744  0.5033 -0.4880  0.2281
12905SOL    HW250775   0.787   1.607   7.639 -2.7630  0.7218 -1.2691
12906SOL     OW50776   6.926   2.193   9.605  0.1139  0.5177  0.2894
12906SOL    HW150777   6.919   2.212   9.507  1.8802 -2.2712 -0.4294
12906SOL    HW250778   7.020   2.172   9.628 -0.3592  0.7926  2.5471
12907SOL     OW50779   3.140   7.276   3.411  0.4861  0.4737  0.0897
12907SOL    HW150780   3.109   7.264   3.505  0.8984  2.0680  0.4554
12907SOL    HW250781   3.131   7.190   3.361 -2.7899  0.4022  0.6823
12908SOL     OW50782   9.331   1.560   3.662  0.1898 -0.1825 -0.2913
12908SOL    HW150783   9.237   1.527   3.661  0.8663 -2.2256 -0.2592
12908SOL    HW250784   9.362   1.575   3.568  0.2293 -0.7598 -0.3758
12909SOL     OW50785   2.555   4.510   8.975  0.4530 -0.0757 -0.3668
12909SOL    HW150786   2.548   4.604   9.009  1.1529  0.3089 -1.2739
12909SOL    HW250787   2.622   4.460   9.028 -1.3907 -0.6831  1.4678
12910SOL     OW50788   9.324   6.302   0.897 -0.4856  0.0990  0.1977
12910SOL    HW150789   9.237   6.335   0.860  0.2239 -0.3605 -1.9711
12910SOL    HW250790   9.398   6.364   0.871 -0.3248  1.2537  3.2333
12911SOL     OW50791   9.984   5.951   9.166  0.0611 -0.0547 -0.6195
12911SOL    HW150792  10.041   5.913   9.239  0.5244 -0.3353 -1.1301
12911SOL    HW250793   9.950   5.878   9.108 -0.1696  0.1860 -0.7881
12912SOL     OW50794   0.670   9.462   6.007 -0.1308  0.0899  0.7046
12912SOL    HW150795   0.614   9.519   5.948  1.0667  1.6807  1.0710
12912SOL    HW250796   0.695   9.378   5.958  0.1316  0.9994 -0.7606
12913SOL     OW50797   1.104   3.429   5.475  0.1538 -0.5609 -0.0509
12913SOL    HW150798   1.096   3.481   5.560 -0.5825 -0.5032 -0.1540
12913SOL    HW250799   1.075   3.335   5.491  0.3343 -0.6350 -0.1599
12914SOL     OW50800   1.603   8.028   7.565  0.0515 -0.2372  0.0350
12914SOL    HW150801   1.628   7.942   7.521  0.7719 -0.8763  1.6373
12914SOL    HW250802   1.624   8.022   7.663 -1.3461  1.2001  0.4344
12915SOL     OW50803   8.191   1.123   6.636  0.0384  0.5820 -0.0245
12915SOL    HW150804   8.167   1.046   6.695  1.0243 -0.2570 -0.6896
12915SOL    HW250805   8.109   1.157   6.591 -0.1028 -1.6084 -1.5306
12916SOL     OW50806   4.977   0.175   7.129  0.1544  0.7598 -0.1892
12916SOL    HW150807   5.026   0.103   7.080  1.1831  0.4460  1.2902
12916SOL    HW250808   4.894   0.137   7.170  1.2123  0.1475  1.4497
12917SOL     OW50809   5.273   6.883   7.481  0.2466 -0.1318  0.0597
12917SOL    HW150810   5.280   6.800   7.425 -0.0826 -0.2424  0.1817
12917SOL    HW250811   5.364   6.911   7.511  0.2722 -0.9466  0.7549
12918SOL     OW50812   2.270   7.490   8.242 -0.4804  0.5970  0.0515
12918SOL    HW150813   2.276   7.509   8.144 -2.2067  0.9177  0.0037
12918SOL    HW250814   2.287   7.393   8.258  0.9452  0.7434 -0.4319
12919SOL     OW50815   1.885   2.892   5.816 -0.5058 -0.5068 -0.0116
12919SOL    HW150816   1.928   2.970   5.862 -0.6971 -0.6529  0.4121
12919SOL    HW250817   1.942   2.865   5.737 -1.7669  1.7255 -1.7593
12920SOL     OW50818   2.799   8.982   2.828 -0.2712 -0.0187  0.1640
12920SOL    HW150819   2.892   8.957   2.854 -0.0789  0.3055 -0.2109
12920SOL    HW250820   2.747   8.899   2.805  0.6957 -0.0141 -2.1674
12921SOL     OW50821   4.735   0.706   7.158 -0.4084 -0.1538 -0.0208
12921SOL    HW150822   4.711   0.706   7.255 -0.0126  0.5150  0.0821
12921SOL    HW250823   4.660   0.666   7.105 -1.3090  0.9150  0.4089
12922SOL     OW50824   5.312   7.457   1.516  0.1075 -0.2089  0.0684
12922SOL    HW150825   5.296   7.493   1.424  1.5639 -0.7854 -0.4332
12922SOL    HW250826   5.409   7.468   1.539 -0.4442  0.7886  1.9146
12923SOL     OW50827   0.493   7.231   8.602 -1.1292 -0.3198 -0.3054
12923SOL    HW150828   0.516   7.269   8.691 -0.9066 -0.4524 -0.3069
12923SOL    HW250829   0.566   7.253   8.537 -0.1535 -2.2635  0.1109
12924SOL     OW50830   0.533   4.308   9.678  0.1131  0.0794 -0.2457
12924SOL    HW150831   0.487   4.382   9.628 -1.5812 -1.5767 -1.2158
12924SOL    HW250832   0.519   4.321   9.776 -0.2129  1.0349 -0.4154
12925SOL     OW50833   3.950   3.366   0.693 -0.4930  0.0211  0.4031
12925SOL    HW150834   3.980   3.429   0.763  0.4293  2.4580 -2.1022
12925SOL    HW250835   4.023   3.300   0.673  0.7500  1.7552 -0.9547
12926SOL     OW50836   3.803   6.903   5.110  0.0260  0.5168 -0.2333
12926SOL    HW150837   3.890   6.923   5.067  0.5366  2.1448  1.5196
12926SOL    HW250838   3.762   6.987   5.144 -1.4285 -0.4532  0.4718
12927SOL     OW50839   4.437   8.211   9.216 -0.1333  0.3927 -0.2414
12927SOL    HW150840   4.475   8.153   9.144 -2.2840 -1.3103 -0.0495
12927SOL    HW250841   4.369   8.160   9.268 -0.8510  2.5732  1.0354
12928SOL     OW50842   3.635   2.253   8.055  0.3930 -0.5034 -0.1177
12928SOL    HW150843   3.564   2.308   8.010 -0.5318 -1.9334 -0.4124
12928SOL    HW250844   3.663   2.179   7.995  0.0302 -1.7071  1.1867
12929SOL     OW50845   6.800   4.490   0.135 -0.3088 -0.4055 -0.5460
12929SOL    HW150846   6.736   4.493   0.058 -1.5575 -1.1328  0.4437
12929SOL    HW250847   6.751   4.506   0.220  1.3784  2.4348 -0.0326
12930SOL     OW50848   5.398   6.240   8.923  0.2161  0.4592  0.4796
12930SOL    HW150849   5.298   6.246   8.927  0.1761 -0.8074  1.5203
12930SOL    HW250850   5.436   6.333   8.926 -0.9407  1.0168 -1.0278
12931SOL     OW50851   3.096   2.009   5.231 -0.5820  0.3604  0.2062
12931SOL    HW150852   3.150   1.930   5.202  0.2185  0.8305  0.3948
12931SOL    HW250853   3.150   2.093   5.218 -1.9735  1.0252 -1.4196
12932SOL     OW50854   8.487   9.574   4.547  0.1048  0.3794 -0.4118
12932SOL    HW150855   8.444   9.496   4.501 -0.0136 -0.0404  0.4044
12932SOL    HW250856   8.475   9.656   4.491  0.5536 -0.2587 -1.4537
12933SOL     OW50857   1.878   9.050   0.680  0.2031  0.1055  0.4566
12933SOL    HW150858   1.874   8.953   0.707 -0.7104  0.1243  0.4139
12933SOL    HW250859   1.791   9.093   0.701 -0.1078  0.4198 -1.4258
12934SOL     OW50860   3.809   0.139   1.941 -0.0165 -0.2230 -0.6077
12934SOL    HW150861   3.719   0.094   1.943 -0.9072  1.5217 -0.6077
12934SOL    HW250862   3.835   0.164   2.035 -0.4808  1.1027 -0.8243
12935SOL     OW50863   2.688   1.958   6.475 -0.2274  0.3791  0.2808
12935SOL    HW150864   2.708   2.015   6.396  1.9033  0.2217  0.6911
12935SOL    HW250865   2.712   2.006   6.559  0.9539 -0.8267  0.6578
12936SOL     OW50866   1.970   2.442   0.017 -0.4784 -0.2222 -0.7890
12936SOL    HW150867   1.922   2.374  -0.039 -1.3909 -0.0400 -0.2423
12936SOL    HW250868   1.936   2.438   0.111  1.4750 -0.9338 -0.0967
12937SOL     OW50869   9.428   8.063   5.052 -0.3931 -0.1090 -0.0024
12937SOL    HW150870   9.507   8.050   5.111  0.1199 -0.9278 -0.8524
12937SOL    HW250871   9.350   8.011   5.088 -0.4570  0.4576  0.6714
12938SOL     OW50872   7.611   9.313   6.048 -0.1148 -0.0629 -0.0307
12938SOL    HW150873   7.670   9.235   6.025  0.3747  0.4195 -0.3951
12938SOL    HW250874   7.515   9.283   6.046  0.0637 -0.6324 -0.2664
12939SOL     OW50875   0.874   6.211   9.597 -0.2349 -0.5229  0.3067
12939SOL    HW150876   0.819   6.133   9.566 -0.3600 -1.3404  2.4866
12939SOL    HW250877   0.962   6.178   9.632  0.0848  0.3946  0.3869
12940SOL     OW50878   4.203   5.032   0.596 -0.3459  0.3058  0.1875
12940SOL    HW150879   4.124   5.031   0.657  0.0042 -0.7050  0.6188
12940SOL    HW250880   4.195   4.959   0.529  1.2312 -1.1548  1.5299
12941SOL     OW50881   4.500   8.027   4.025 -0.2138 -0.1518 -0.5723
12941SOL    HW150882   4.556   8.110   4.024 -1.0419  0.4632  1.1939
12941SOL    HW250883   4.455   8.015   3.937  0.7362  0.7037 -1.1793
12942SOL     OW50884   2.939   6.809   1.130 -0.4892  0.4432  0.9430
12942SOL    HW150885   2.942   6.725   1.183  2.0236 -0.5216 -0.6331
12942SOL    HW250886   2.919   6.886   1.190  0.6736 -0.8284  2.9972
12943SOL     OW50887   6.405   7.990   1.739 -0.0189  0.4248  0.1126
12943SOL    HW150888   6.475   7.960   1.803 -2.3062 -2.5426  1.3485
12943SOL    HW250889   6.365   8.076   1.770 -0.5080 -0.5541  2.2320
12944SOL     OW50890   4.164   1.530   7.263  0.2801  0.2912  0.2000
12944SOL    HW150891   4.178   1.491   7.172  1.1328  1.6511 -0.2704
12944SOL    HW250892   4.116   1.464   7.320  2.1888 -1.6614 -0.3857
12945SOL     OW50893   2.595   0.296   8.073  0.0473  0.1262  0.3588
12945SOL    HW150894   2.540   0.332   8.149  0.0400 -2.0596  1.4405
12945SOL    HW250895   2.558   0.208   8.044 -0.5630  1.4214 -2.9260
12946SOL     OW50896   6.743   3.637   7.503 -0.1807 -0.1523  0.0597
12946SOL    HW150897   6.789   3.715   7.461  2.2389 -2.4722 -1.7564
12946SOL    HW250898   6.762   3.635   7.601  1.8924  0.0886 -0.3283
12947SOL     OW50899   6.574   3.355   6.458 -0.6908  0.1840 -0.2128
12947SOL    HW150900   6.529   3.269   6.482 -1.3820  1.0784  1.8691
12947SOL    HW250901   6.534   3.430   6.512  1.6272  1.3981 -0.0955
12948SOL     OW50902   5.828   0.155   6.048  0.1053 -0.3566 -0.5170
12948SOL    HW150903   5.797   0.061   6.062 -0.9974  0.1267  0.4089
12948SOL    HW250904   5.882   0.161   5.964 -0.2182 -1.7219 -0.8252
12949SOL     OW50905   2.115   4.604   8.102 -0.0019  0.3110  0.0263
12949SOL    HW150906   2.024   4.639   8.121  0.1184  1.3732 -1.3107
12949SOL    HW250907   2.175   4.621   8.181 -0.2274  2.1221 -0.1846
12950SOL     OW50908   3.602   4.423   1.604 -0.4612 -0.0394  0.1420
12950SOL    HW150909   3.570   4.394   1.695  1.3299 -1.8772  0.2212
12950SOL    HW250910   3.595   4.347   1.540  1.6098  0.1835 -0.3823
12951SOL     OW50911   2.941   3.162   5.522 -0.1709 -0.2306 -0.2013
12951SOL    HW150912   3.025   3.183   5.573 -0.8274 -2.0408  1.7057
12951SOL    HW250913   2.872   3.231   5.543  0.4033  0.5201 -0.7382
12952SOL     OW50914   5.549   6.507   8.888  0.3252  0.2790 -0.1483
12952SOL    HW150915   5.567   6.515   8.790 -2.0154  0.3536 -0.6119
12952SOL    HW250916   5.507   6.591   8.921  0.9052  0.1662  0.8799
12953SOL     OW50917   6.524   5.915   8.338  0.1269 -0.0709  0.8589
12953SOL    HW150918   6.448   5.977   8.359  0.6111  0.8212  0.0381
12953SOL    HW250919   6.511   5.875   8.247  2.1824  2.5278 -0.6541
12954SOL     OW50920   5.355   0.054   6.967  0.8211 -0.6109  0.6280
12954SOL    HW150921   5.349   0.152   6.989 -0.2878 -1.2070  3.2113
12954SOL    HW250922   5.404   0.042   6.881  1.5273  2.1812  0.5910
12955SOL     OW50923   6.479   1.201   9.738  0.2854  0.6698  0.1949
12955SOL    HW150924   6.415   1.177   9.664 -0.7955  0.3734  1.2163
12955SOL    HW250925   6.447   1.160   9.824  1.8044  0.6105  0.7312
12956SOL     OW50926   7.708   3.612   8.283 -0.3332  0.4747  0.2983
12956SOL    HW150927   7.700   3.512   8.273 -2.0401  0.5003  1.3524
12956SOL    HW250928   7.634   3.656   8.233  0.6827  1.2480 -0.5392
12957SOL     OW50929   3.048   6.444   9.490 -0.0545 -0.4302  0.1096
12957SOL    HW150930   3.079   6.414   9.580 -0.8994 -0.2297  0.4738
12957SOL    HW250931   3.100   6.396   9.419  0.2736 -0.9531  0.7007
12958SOL     OW50932   1.155   3.345   7.661 -0.7113 -0.0626 -0.3600
12958SOL    HW150933   1.234   3.354   7.722 -0.2049  0.3350 -1.0762
12958SOL    HW250934   1.095   3.273   7.696 -0.0389 -0.3617  0.1956
12959SOL     OW50935   4.495   4.662   3.300 -0.3147 -0.5818 -0.5564
12959SOL    HW150936   4.551   4.646   3.381  0.9658  0.7539 -1.1338
12959SOL    HW250937   4.438   4.743   3.315 -0.2421 -0.4670 -0.9051
12960SOL     OW50938   0.823   0.264   9.596 -0.1353  0.1794 -0.1894
12960SOL    HW150939   0.740   0.228   9.553 -0.1244 -0.5182  0.3597
12960SOL    HW250940   0.854   0.200   9.666  2.8579 -1.2815 -2.7621
12961SOL     OW50941   1.780   8.623   6.358  0.2327 -0.5543 -0.2257
12961SOL    HW150942   1.775   8.597   6.455  1.2597 -0.0242 -0.0275
12961SOL    HW250943   1.772   8.541   6.301 -0.9852 -0.8049  0.2855
12962SOL     OW50944   5.284   6.008   1.569 -0.1884  0.0147  0.2604
12962SOL    HW150945   5.351   5.941   1.600  0.9680 -0.1817 -2.5168
12962SOL    HW250946   5.331   6.093   1.543 -1.2442  0.6137  0.2811
12963SOL     OW50947   2.498   9.135   3.157  0.2857  0.6209 -0.7994
12963SOL    HW150948   2.410   9.182   3.158  0.3743  0.7814  0.2320
12963SOL    HW250949   2.491   9.050   3.208  0.8623  0.8960 -0.2475
12964SOL     OW50950   2.446   6.139   9.430  0.5440 -0.0140 -0.1578
12964SOL    HW150951   2.471   6.043   9.413 -0.0150  0.2037 -2.3354
12964SOL    HW250952   2.426   6.184   9.343 -2.9929  1.0639  1.1425
12965SOL     OW50953   3.694   6.687   5.630 -0.4242  0.3605 -0.0367
12965SOL    HW150954   3.692   6.749   5.708 -1.7963  1.6868 -1.1126
12965SOL    HW250955   3.621   6.711   5.566 -0.9348 -2.3056 -0.5156
12966SOL     OW50956   7.625   4.417   8.703 -0.1268  0.0212  0.0365
12966SOL    HW150957   7.675   4.400   8.617  1.6226  0.8674  0.8629
12966SOL    HW250958   7.623   4.333   8.757  1.0288  0.1487  0.3001
12967SOL     OW50959   3.705   8.623   0.622 -1.2961 -0.1598 -0.7417
12967SOL    HW150960   3.669   8.539   0.664 -0.7417  0.0823  0.2208
12967SOL    HW250961   3.679   8.625   0.525 -2.9328 -0.5239 -0.3267
12968SOL     OW50962   3.294   0.721   8.920 -0.3239  0.5220  0.5075
12968SOL    HW150963   3.357   0.701   8.845 -0.0690 -1.3612  1.1940
12968SOL    HW250964   3.200   0.707   8.889 -0.2049 -0.5285  0.6182
12969SOL     OW50965   1.337   3.011   1.424 -0.2066 -0.1931  0.1228
12969SOL    HW150966   1.437   3.012   1.431 -0.0546 -3.4331 -0.9147
12969SOL    HW250967   1.301   2.931   1.472 -2.2474  0.4059 -0.3750
12970SOL     OW50968   8.400   6.273   7.916  0.8238 -0.2179 -0.2953
12970SOL    HW150969   8.481   6.307   7.868  0.6288 -1.2752 -1.3873
12970SOL    HW250970   8.427   6.204   7.982  0.8466 -0.3627 -0.4559
12971SOL     OW50971   5.026   9.647   2.726  0.1203 -0.4032  0.1674
12971SOL    HW150972   4.957   9.586   2.688 -0.7766 -0.5267  1.9594
12971SOL    HW250973   5.001   9.674   2.818  2.8619 -1.0843  1.1706
12972SOL     OW50974   4.850   9.957   6.340 -0.3642 -0.8130  0.3629
12972SOL    HW150975   4.921   9.920   6.279  0.2239 -1.3815  1.3845
12972SOL    HW250976   4.877  10.047   6.372 -1.8653  0.6282 -2.2428
12973SOL     OW50977   4.820   8.554   9.719  0.4011 -0.2962 -0.1773
12973SOL    HW150978   4.803   8.537   9.622  0.6475  2.3299 -0.7010
12973SOL    HW250979   4.919   8.563   9.734  0.3435 -0.4160  0.2895
12974SOL     OW50980   0.691   0.930   2.286  0.6641  0.3437 -0.0214
12974SOL    HW150981   0.650   1.006   2.336  0.3307  0.2586 -0.1648
12974SOL    HW250982   0.704   0.956   2.191 -0.3610 -0.1173 -0.2967
12975SOL     OW50983   2.953   8.491   9.572 -0.3725 -0.0841  0.2941
12975SOL    HW150984   2.932   8.588   9.590  1.4845  0.0322  1.9897
12975SOL    HW250985   3.019   8.485   9.497 -0.2024 -0.0169  0.4380
12976SOL     OW50986   4.350   1.853   1.194  0.1019  0.0221  0.4819
12976SOL    HW150987   4.315   1.828   1.285 -0.8181  0.3096  0.2153
12976SOL    HW250988   4.273   1.859   1.130  0.7064  0.1910 -0.2292
12977SOL     OW50989   6.240   3.843   1.493  0.0115  0.3982  0.2228
12977SOL    HW150990   6.204   3.793   1.414 -1.4439  1.0209  0.4750
12977SOL    HW250991   6.247   3.940   1.471  0.0321  0.5088  0.7021
12978SOL     OW50992   1.674   6.414   0.039 -0.0953  0.4963 -0.1984
12978SOL    HW150993   1.740   6.348   0.077  0.9498  2.2116  1.0485
12978SOL    HW250994   1.583   6.395   0.077  0.8113  1.8077  2.8293
12979SOL     OW50995   5.255   6.138   9.590 -0.4330  0.0103  0.7440
12979SOL    HW150996   5.314   6.070   9.547 -0.4752 -1.6504  3.1629
12979SOL    HW250997   5.164   6.099   9.604 -0.9744  1.1882  0.5599
12980SOL     OW50998   2.884   4.568   6.308  0.1228  0.0597  0.6466
12980SOL    HW150999   2.832   4.641   6.264 -0.6766 -0.7513  0.2122
12980SOL    HW251000   2.937   4.605   6.384  0.1789  1.1817  0.0673
12981SOL     OW51001   3.814   8.088   4.766 -0.8479  0.1904 -0.0593
12981SOL    HW151002   3.754   8.033   4.707 -1.5814  1.6211 -0.6539
12981SOL    HW251003   3.903   8.042   4.774 -1.4751 -1.1265 -0.4813
12982SOL     OW51004   3.220   0.411   7.273 -0.2416  0.0355 -0.1117
12982SOL    HW151005   3.168   0.333   7.308  1.7187 -1.9447 -1.4787
12982SOL    HW251006   3.188   0.434   7.182 -0.4343  0.4859  0.0672
12983SOL     OW51007   1.033   3.198   9.233 -0.1748  0.4913  0.0068
12983SOL    HW151008   1.097   3.160   9.300  1.3840  0.8064 -1.2770
12983SOL    HW251009   0.992   3.124   9.180 -0.7996  0.2944  0.7607
12984SOL     OW51010   7.290   0.943   6.028  0.0143  0.0151 -0.5429
12984SOL    HW151011   7.376   0.993   6.028  0.8157 -1.3296 -0.6176
12984SOL    HW251012   7.265   0.919   6.122 -0.0773  0.0719 -0.5531
12985SOL     OW51013   6.142   6.834   1.728  0.2576  0.0435  0.4597
12985SOL    HW151014   6.237   6.849   1.702  0.0203 -0.1569 -0.5418
12985SOL    HW251015   6.129   6.738   1.754  0.4596  0.2080  1.1820
12986SOL     OW51016   8.802   2.490   9.553 -0.3127 -0.0518 -0.1366
12986SOL    HW151017   8.880   2.441   9.590  0.3286  0.7671 -0.3956
12986SOL    HW251018   8.717   2.442   9.579  0.2250 -0.5410  0.7402
12987SOL     OW51019   9.340   2.059   4.028 -0.0326  0.0060  0.4781
12987SOL    HW151020   9.330   1.986   3.960 -0.6718 -0.9805  1.6035
12987SOL    HW251021   9.292   2.141   3.997 -1.4590 -0.8624  0.3251
12988SOL     OW51022   2.483   3.876   6.860 -0.8298  0.7112  0.1226
12988SOL    HW151023   2.480   3.970   6.894 -1.4274  0.9739 -0.6515
12988SOL    HW251024   2.489   3.877   6.760 -1.7587 -0.0772  0.0551
12989SOL     OW51025   0.183   8.871   9.280  0.1121 -0.0115  0.2815
12989SOL    HW151026   0.096   8.825   9.296  0.7666 -1.5295 -0.4010
12989SOL    HW251027   0.249   8.841   9.349  0.4812  0.0412 -0.0472
12990SOL     OW51028   3.775   0.823   8.795  0.0756  0.2588  0.3709
12990SOL    HW151029   3.824   0.909   8.789  0.3587  0.0167 -1.0704
12990SOL    HW251030   3.693   0.835   8.851  0.4851  1.2772  0.7617
12991SOL     OW51031   1.483   9.293   7.210 -0.0087  0.7470 -0.2221
12991SOL    HW151032   1.435   9.205   7.210  0.8315  0.2831 -0.4549
12991SOL    HW251033   1.434   9.357   7.152  0.9228 -0.4415 -2.3814
12992SOL     OW51034   2.503   9.166   9.382 -0.0278 -0.1742  0.0547
12992SOL    HW151035   2.455   9.086   9.418  0.1696 -0.1372  0.3998
12992SOL    HW251036   2.472   9.183   9.288  0.0904 -0.7899 -0.1034
12993SOL     OW51037   4.767   0.760   9.813 -0.1254 -0.5741 -0.4656
12993SOL    HW151038   4.691   0.802   9.863  0.1294 -0.1204 -0.4580
12993SOL    HW251039   4.822   0.831   9.769  0.4445 -0.8832 -0.2595
12994SOL     OW51040   6.961   6.612   0.161  0.5478 -0.0488 -0.1177
12994SOL    HW151041   7.054   6.624   0.127  1.0713 -1.9765  0.6268
12994SOL    HW251042   6.918   6.702   0.170  1.6069  0.7533 -2.4368
12995SOL     OW51043   3.074   9.126   7.181  0.1899  0.2591  0.3162
12995SOL    HW151044   3.078   9.038   7.135  0.4311  1.0127 -1.1374
12995SOL    HW251045   3.035   9.195   7.120  0.9981  1.3964  1.0425
12996SOL     OW51046   7.471   3.192   9.819  0.0929 -0.1818  0.4197
12996SOL    HW151047   7.569   3.172   9.813  0.5138  0.7212  3.4250
12996SOL    HW251048   7.457   3.290   9.831 -1.1181 -0.4354  1.2286
12997SOL     OW51049   2.311   1.396   1.577  0.3440  0.1768 -0.2444
12997SOL    HW151050   2.275   1.380   1.485  0.2644  1.9528 -0.5523
12997SOL    HW251051   2.240   1.377   1.644  0.4973 -1.4303 -0.5299
12998SOL     OW51052   7.018   0.831   6.970 -0.3925 -0.7159 -0.3583
12998SOL    HW151053   7.074   0.749   6.980 -1.3402 -1.2024  1.2666
12998SOL    HW251054   6.964   0.844   7.053 -1.1049  0.9230 -1.0566
12999SOL     OW51055   3.068   0.733   5.848 -0.5636 -0.6675  0.0024
12999SOL    HW151056   3.168   0.724   5.844 -0.3742 -0.5253  3.1126
12999SOL    HW251057   3.026   0.646   5.825  0.2752 -0.6826 -1.5064
13000SOL     OW51058   5.390   2.251   6.655 -0.1810  0.7414  0.0092
13000SOL    HW151059   5.394   2.152   6.672  2.0512  0.1804 -3.4485
13000SOL    HW251060   5.432   2.300   6.732  1.5995 -1.1689  0.2774
13001SOL     OW51061   8.997   5.152   3.631  0.1199  0.3283  0.2512
13001SOL    HW151062   8.992   5.089   3.708  0.8477 -0.4943 -0.3666
13001SOL    HW251063   8.922   5.218   3.637  0.3601  0.4844  1.8434
13002SOL     OW51064   4.339   3.506   0.815 -0.6106 -0.2393  0.5059
13002SOL    HW151065   4.293   3.421   0.789 -0.0959 -0.5566  0.6171
13002SOL    HW251066   4.369   3.501   0.910  0.4096 -0.3881  0.1907
13003SOL     OW51067   4.149   6.587   0.536 -0.4690  0.2322 -0.4228
13003SOL    HW151068   4.207   6.509   0.512 -1.3420 -0.6209  0.1774
13003SOL    HW251069   4.203   6.654   0.587  0.2376 -0.0777 -0.7515
13004SOL     OW51070   2.249   5.920   4.423 -0.3319  0.7370  0.2992
13004SOL    HW151071   2.162   5.890   4.462 -0.0027 -1.1607 -0.3796
13004SOL    HW251072   2.320   5.917   4.493 -0.2098 -0.5470  0.1355
13005SOL     OW51073   6.669   7.939   8.982 -0.2180 -0.3568  0.4019
13005SOL    HW151074   6.670   8.023   9.035  0.3297  0.1290 -0.3707
13005SOL    HW251075   6.714   7.866   9.034 -0.5153 -0.1265  0.9828
13006SOL     OW51076   2.378   4.329   6.902 -0.4426 -0.3676 -0.0042
13006SOL    HW151077   2.455   4.266   6.904  0.2765  0.5052 -0.1226
13006SOL    HW251078   2.406   4.418   6.938 -1.3853 -0.0417 -0.0602
13007SOL     OW51079   3.849   2.012   8.732  0.4744 -0.2672  0.0346
13007SOL    HW151080   3.925   2.007   8.797  0.1871  0.1183  0.3988
13007SOL    HW251081   3.886   2.019   8.639  0.9038 -3.1021 -0.0560
13008SOL     OW51082   9.016   3.315   5.875 -0.5109 -0.1774  0.0073
13008SOL    HW151083   8.934   3.366   5.848 -0.4159 -0.9797 -1.8420
13008SOL    HW251084   8.988   3.231   5.923 -0.6553  1.8866  3.7108
13009SOL     OW51085   6.360   8.005   5.941  0.0909 -0.2650 -0.0333
13009SOL    HW151086   6.401   8.004   5.849  0.6719 -1.2734  0.2276
13009SOL    HW251087   6.283   7.941   5.943 -1.1596  1.2273 -0.3680
13010SOL     OW51088   7.024   3.490   7.548 -0.0756 -0.0801 -0.3393
13010SOL    HW151089   6.949   3.514   7.486 -0.7590  0.0163  0.5142
13010SOL    HW251090   7.007   3.531   7.638 -0.2008 -2.0050  0.5380
13011SOL     OW51091   1.400   4.974   3.545 -0.4285  0.1035  0.2645
13011SOL    HW151092   1.342   4.943   3.470 -0.0853  0.2440 -0.0599
13011SOL    HW251093   1.345   4.985   3.627 -0.9573  0.7267 -0.1735
13012SOL     OW51094   4.417   1.471   1.574  0.2348  0.3555  0.1959
13012SOL    HW151095   4.405   1.524   1.657 -1.2055  1.3905 -0.6499
13012SOL    HW251096   4.339   1.485   1.513 -0.0086 -2.4391 -0.2168
13013SOL     OW51097   7.821   4.609   3.421 -0.2287  0.4762  0.0005
13013SOL    HW151098   7.762   4.532   3.446 -0.0204  0.7496  1.3572
13013SOL    HW251099   7.827   4.615   3.322 -1.0256 -0.6694 -0.1275
13014SOL     OW51100   4.435   0.747   1.733  0.5674  0.4631  0.3895
13014SOL    HW151101   4.414   0.700   1.819  0.1563 -1.6068 -0.8103
13014SOL    HW251102   4.426   0.846   1.746 -0.5339  0.1229  2.4478
13015SOL     OW51103   5.869   1.888   8.014 -0.1118  0.2530  0.0707
13015SOL    HW151104   5.898   1.792   8.009  0.9102  0.5528  0.1629
13015SOL    HW251105   5.840   1.909   8.107  0.7292  0.3250  0.3265
13016SOL     OW51106   3.690   6.824   4.318  0.6242 -0.1188 -0.8548
13016SOL    HW151107   3.697   6.832   4.219 -0.0156  0.7991 -0.8306
13016SOL    HW251108   3.762   6.879   4.361  0.7501 -0.3199 -0.8087
13017SOL     OW51109   6.297   7.274   2.296 -0.0674 -0.1422  0.5089
13017SOL    HW151110   6.227   7.255   2.365 -0.7914  0.2589 -0.1058
13017SOL    HW251111   6.334   7.188   2.261 -2.7675 -0.4929 -1.6991
13018SOL     OW51112   9.400   4.129   0.900  0.4752  0.2955  0.1294
13018SOL    HW151113   9.300   4.132   0.902  0.4914  1.4306 -0.2819
13018SOL    HW251114   9.432   4.040   0.933 -0.6957 -0.5090 -0.8769
13019SOL     OW51115   7.447   4.859   2.667  0.2720 -0.5907  0.1403
13019SOL    HW151116   7.430   4.781   2.728 -0.2759  0.2801  1.1354
13019SOL    HW251117   7.537   4.897   2.685 -0.3291  0.3589  1.2173
13020SOL     OW51118   8.212   2.166   2.158  0.2915 -0.2833 -0.1303
13020SOL    HW151119   8.205   2.103   2.235 -0.6422 -0.8982 -0.7184
13020SOL    HW251120   8.288   2.230   2.174  0.6372 -0.9474  0.8965
13021SOL     OW51121   7.374   6.637   8.259  0.0544  0.0999  0.1141
13021SOL    HW151122   7.417   6.726   8.248  0.8829 -0.6322 -3.2831
13021SOL    HW251123   7.445   6.566   8.258 -0.8197 -0.7900 -0.6380
13022SOL     OW51124   7.133   4.696   9.501 -0.0952  0.3401  0.1077
13022SOL    HW151125   7.086   4.772   9.545  0.0030 -0.2666  1.3000
13022SOL    HW251126   7.193   4.652   9.568  2.0066  0.9722 -1.3214
13023SOL     OW51127   6.250   1.099   2.040  1.0593 -0.1613 -0.5630
13023SOL    HW151128   6.311   1.047   2.100 -0.9836 -1.5432  0.3749
13023SOL    HW251129   6.224   1.185   2.084  1.9693  0.2360 -0.7883
13024SOL     OW51130   1.639   3.209   5.546 -0.4991  0.0764 -0.4239
13024SOL    HW151131   1.644   3.293   5.492 -0.2364  1.0586  1.1029
13024SOL    HW251132   1.726   3.195   5.594 -1.0942 -0.2093  0.5925
13025SOL     OW51133   7.699   7.208   2.790  0.8570 -0.1427  0.1155
13025SOL    HW151134   7.679   7.123   2.741  2.9934  0.0125 -1.0832
13025SOL    HW251135   7.716   7.281   2.723 -0.3297  1.0808  1.1339
13026SOL     OW51136   6.145   0.005   0.634  0.1067 -0.7311  0.1038
13026SOL    HW151137   6.136   0.077   0.566  0.5544 -0.7517  0.0243
13026SOL    HW251138   6.195   0.040   0.713 -1.2968 -0.3978  0.8674
13027SOL     OW51139   3.125   6.111   3.912 -0.2251  0.2639  0.3715
13027SOL    HW151140   3.109   6.188   3.851  0.3034 -0.4148 -0.6478
13027SOL    HW251141   3.124   6.026   3.859  0.1463 -0.3472  1.3221
13028SOL     OW51142   9.935   4.383   0.565 -0.3320 -0.1458  0.5721
13028SOL    HW151143   9.981   4.317   0.505 -1.0238  0.0155 -0.1486
13028SOL    HW251144   9.905   4.337   0.648 -1.1515 -0.8461 -0.0976
13029SOL     OW51145   4.324   4.318   8.190 -0.3619  0.2745  0.3408
13029SOL    HW151146   4.310   4.321   8.289  0.6597  0.3694  0.4968
13029SOL    HW251147   4.313   4.410   8.153  0.5709  0.4831  0.5680
13030SOL     OW51148   3.513   6.641   8.704 -0.0090  0.2608 -0.2595
13030SOL    HW151149   3.454   6.718   8.681 -0.7987 -0.3534 -0.3035
13030SOL    HW251150   3.493   6.564   8.643 -0.1056 -0.3967  0.5946
13031SOL     OW51151   3.438   9.008   5.267 -0.7770 -0.0715  0.5595
13031SOL    HW151152   3.381   8.988   5.188  1.9448  1.0984 -1.8167
13031SOL    HW251153   3.484   8.925   5.298 -1.5561 -0.4569  0.6889
13032SOL     OW51154   6.345   5.834   0.183 -0.3694 -0.5582 -0.3175
13032SOL    HW151155   6.419   5.771   0.206 -0.8209 -1.3813 -1.0823
13032SOL    HW251156   6.362   5.873   0.093  0.1050  0.7146  0.3201
13033SOL     OW51157   6.211   0.865   2.283 -0.4848 -0.3043  0.8522
13033SOL    HW151158   6.300   0.846   2.243 -0.2668 -0.1287  1.2540
13033SOL    HW251159   6.187   0.961   2.266 -0.4444 -0.2611  1.0370
13034SOL     OW51160   7.594   3.081   1.893  0.4533 -0.3706  0.1363
13034SOL    HW151161   7.553   3.017   1.828 -0.5997  0.9189 -0.5166
13034SOL    HW251162   7.524   3.113   1.957  0.5485  1.3690 -0.5866
13035SOL     OW51163   4.695   2.249   7.639 -0.4754 -0.1432  0.2349
13035SOL    HW151164   4.618   2.288   7.689  0.1480  0.9215  0.3920
13035SOL    HW251165   4.764   2.218   7.704 -0.4360 -0.3816  0.0782
13036SOL     OW51166   6.149   3.526   9.711  0.6579 -0.0884 -0.0416
13036SOL    HW151167   6.231   3.583   9.715  1.0276 -0.6003 -0.2826
13036SOL    HW251168   6.154   3.466   9.631 -0.4984  0.7171 -0.7277
13037SOL     OW51169   3.694   2.987   4.501  0.4377 -0.3686  0.1938
13037SOL    HW151170   3.744   2.977   4.587 -2.2528  0.8511  1.9671
13037SOL    HW251171   3.744   3.050   4.441  0.4722  1.7797  2.4081
13038SOL     OW51172   5.926   9.167   6.569 -0.3515  0.4530  0.6115
13038SOL    HW151173   5.866   9.148   6.491 -0.2927  1.9077  0.2070
13038SOL    HW251174   5.882   9.136   6.653 -1.5382  1.2471  0.2873
13039SOL     OW51175   5.538   2.673   1.014 -0.5369  0.5249 -0.3948
13039SOL    HW151176   5.542   2.592   0.956 -0.2140  0.5168 -0.3607
13039SOL    HW251177   5.581   2.750   0.967  0.7171  0.2461  0.2775
13040SOL     OW51178   9.841   9.632   9.098  0.6209 -0.1534  0.6406
13040SOL    HW151179   9.851   9.731   9.110 -0.5222 -0.2354  2.5356
13040SOL    HW251180   9.887   9.603   9.014  0.6293  2.0441 -0.1350
13041SOL     OW51181   6.346   0.635   4.617  0.2143 -0.4114  0.2239
13041SOL    HW151182   6.430   0.611   4.666  1.3657 -0.0527 -1.5423
13041SOL    HW251183   6.328   0.733   4.628  1.0204 -0.1293 -0.8585
13042SOL     OW51184   3.357   7.893   3.590  0.6353  0.3280  0.6389
13042SOL    HW151185   3.359   7.819   3.522 -0.8232  0.8949 -0.0218
13042SOL    HW251186   3.340   7.854   3.680  0.0277 -0.1638  0.3150
13043SOL     OW51187   8.239   8.603   7.076  0.1040  0.2495 -0.9537
13043SOL    HW151188   8.313   8.536   7.086  0.6972  0.8136 -1.5087
13043SOL    HW251189   8.185   8.581   6.995  0.0125  0.1810 -0.8766
13044SOL     OW51190   1.649   4.062   0.230 -0.2455  0.2937 -0.5508
13044SOL    HW151191   1.671   4.113   0.146 -0.6240  1.9348  0.3256
13044SOL    HW251192   1.550   4.052   0.238 -0.2911  1.3977  0.4127
13045SOL     OW51193   8.347   1.944   6.336 -0.6095  0.5192 -0.3121
13045SOL    HW151194   8.363   1.846   6.340 -1.5467  0.3598 -0.2928
13045SOL    HW251195   8.380   1.986   6.421 -0.6816  0.1427 -0.0935
13046SOL     OW51196   5.011   6.017   9.615 -0.3869 -0.0838  0.3515
13046SOL    HW151197   4.976   5.961   9.540  0.3103 -0.2534  0.1496
13046SOL    HW251198   5.013   5.963   9.699 -0.3836 -0.1394  0.3152
13047SOL     OW51199   6.185   4.685   2.279 -0.4274 -0.5610  0.1132
13047SOL    HW151200   6.283   4.680   2.259  0.0443 -2.9399  2.7616
13047SOL    HW251201   6.155   4.781   2.276  1.9071  0.1583 -0.9888
13048SOL     OW51202   2.758   2.763   5.777  0.6027 -0.0594 -0.0104
13048SOL    HW151203   2.811   2.698   5.831  2.6506  2.9614  1.7587
13048SOL    HW251204   2.662   2.761   5.806  0.9529 -1.1802  1.0851
13049SOL     OW51205   9.072   3.865   9.709  0.1150  0.7481  0.4167
13049SOL    HW151206   9.046   3.953   9.750  0.8770  0.0689  2.3700
13049SOL    HW251207   9.004   3.796   9.731 -0.1535  0.6731 -0.5961
13050SOL     OW51208   8.192   8.870   3.827 -0.3831  0.3138  0.2767
13050SOL    HW151209   8.165   8.938   3.896 -1.4820  2.2906 -2.0379
13050SOL    HW251210   8.110   8.832   3.784  0.3378  1.1302 -1.8492
13051SOL     OW51211   5.999   2.958   2.316  0.5249 -0.4234 -0.1841
13051SOL    HW151212   5.986   2.989   2.410  0.2918 -0.8882 -0.0616
13051SOL    HW251213   6.061   2.880   2.314  0.6888 -0.2898 -0.4377
13052SOL     OW51214   2.107   8.381   1.703 -0.0564  0.6398 -0.5446
13052SOL    HW151215   2.205   8.400   1.698 -0.3703  1.9047 -2.1750
13052SOL    HW251216   2.073   8.401   1.795  1.1723  0.3393 -0.0197
13053SOL     OW51217   8.488   7.497   5.198 -0.6783  0.2770 -0.5177
13053SOL    HW151218   8.494   7.574   5.134 -0.3836  0.8209  0.1565
13053SOL    HW251219   8.580   7.466   5.222 -0.7981 -1.0172 -1.6352
13054SOL     OW51220   1.502   8.409   9.962  0.3458  0.2947  0.4278
13054SOL    HW151221   1.407   8.386   9.985  0.1447  2.0439  1.4384
13054SOL    HW251222   1.556   8.325   9.955 -0.7908 -0.5956  2.0275
13055SOL     OW51223   8.752   4.529   9.912  0.2180 -0.2777  1.0596
13055SOL    HW151224   8.824   4.466   9.885 -0.4106 -0.1181 -1.0555
13055SOL    HW251225   8.683   4.480   9.966  0.9053 -0.8671  1.4039
13056SOL     OW51226   7.521   8.991   5.682  0.2698  0.0361  0.7364
13056SOL    HW151227   7.591   8.956   5.745  1.1241  0.0703 -0.1818
13056SOL    HW251228   7.532   9.089   5.672  1.8606 -0.3361 -1.5356
13057SOL     OW51229   8.320   8.614   4.903  0.7163  0.7946  0.0195
13057SOL    HW151230   8.280   8.662   4.826  0.3280 -0.6618 -0.6990
13057SOL    HW251231   8.398   8.666   4.938  0.2181  2.0017 -0.6427
13058SOL     OW51232   6.827   7.158   7.190  0.5433 -0.5552  0.2029
13058SOL    HW151233   6.734   7.121   7.197  0.2287  0.3870  1.2891
13058SOL    HW251234   6.869   7.128   7.105 -0.4991 -1.5843  0.0382
13059SOL     OW51235   7.387   5.608   8.878  0.5302 -0.1969 -0.5780
13059SOL    HW151236   7.426   5.550   8.807  0.9221 -2.0473  1.0952
13059SOL    HW251237   7.305   5.653   8.843  1.9981  0.7216 -2.8953
13060SOL     OW51238   6.611   7.846   5.487  0.0077  0.1619 -0.1047
13060SOL    HW151239   6.628   7.830   5.584  2.1013  1.1752 -0.2874
13060SOL    HW251240   6.520   7.885   5.476  0.4107  1.6420  1.6158
13061SOL     OW51241   2.195   1.077   3.581 -0.2663  0.0328  0.0292
13061SOL    HW151242   2.250   1.066   3.499 -0.4192 -2.3929  0.2156
13061SOL    HW251243   2.112   1.128   3.559 -1.0351 -1.8923 -1.6827
13062SOL     OW51244   6.111   4.044   4.224 -0.3514 -0.0973  0.1830
13062SOL    HW151245   6.105   4.047   4.125  0.6051  2.6637  0.1581
13062SOL    HW251246   6.205   4.066   4.253 -0.9846  0.7210  1.7125
13063SOL     OW51247   5.732   5.213   1.070  0.4226 -0.0457 -0.3100
13063SOL    HW151248   5.663   5.147   1.101  0.6435  0.0480  0.4006
13063SOL    HW251249   5.704   5.305   1.098  0.0070  0.1990 -1.4872
13064SOL     OW51250   3.751   5.175   8.756  0.2073 -0.5771 -0.2140
13064SOL    HW151251   3.771   5.219   8.668  3.3358 -1.1650  0.1427
13064SOL    HW251252   3.792   5.228   8.830 -1.7082 -0.5366  0.8528
13065SOL     OW51253   4.729   5.466   1.360 -0.7583  0.0491  0.0494
13065SOL    HW151254   4.680   5.395   1.310  0.1357 -0.6892  0.2022
13065SOL    HW251255   4.721   5.553   1.311  0.4410 -0.7464 -1.6012
13066SOL     OW51256   1.418   3.764   1.405 -0.2284  0.2647  0.2656
13066SOL    HW151257   1.461   3.821   1.476 -1.8486  1.3937  0.3753
13066SOL    HW251258   1.385   3.679   1.446  1.3524 -0.3461  0.2957
13067SOL     OW51259   2.277   3.409   7.539 -0.0690  0.2261  0.4386
13067SOL    HW151260   2.305   3.504   7.525  1.6265 -0.0795  1.6084
13067SOL    HW251261   2.249   3.396   7.635  2.2182 -1.0508  0.9623
13068SOL     OW51262   6.173   8.949   4.690  0.2236  0.5105  0.3225
13068SOL    HW151263   6.256   8.899   4.662  0.3071  1.8862 -2.0041
13068SOL    HW251264   6.194   9.007   4.768  1.2542  0.2569  0.2463
13069SOL     OW51265   4.048   6.897   8.606  0.3926 -0.2389  0.0800
13069SOL    HW151266   4.032   6.799   8.602 -0.0422 -0.2084  0.8568
13069SOL    HW251267   4.146   6.915   8.611  0.4598 -0.6580  0.2981
13070SOL     OW51268   5.837   4.681   1.306  1.2129  0.0910 -0.1811
13070SOL    HW151269   5.803   4.681   1.212 -0.2237  1.7157  0.3117
13070SOL    HW251270   5.926   4.727   1.309  0.3546  1.8272 -0.4643
13071SOL     OW51271   6.418   4.400   3.247  0.2650 -0.1122 -0.2535
13071SOL    HW151272   6.328   4.405   3.204  0.1921 -2.0739 -0.4064
13071SOL    HW251273   6.486   4.445   3.190 -0.7676  2.2541  0.3419
13072SOL     OW51274   2.693   5.615   8.110  0.1621 -0.1235 -0.2809
13072SOL    HW151275   2.776   5.562   8.092 -0.7366 -2.0364  1.1219
13072SOL    HW251276   2.641   5.625   8.025  0.2898 -1.5613 -0.5359
13073SOL     OW51277   5.205   1.522   0.338 -0.1812  0.2990  0.8292
13073SOL    HW151278   5.143   1.588   0.296 -0.6211 -0.0864  0.8747
13073SOL    HW251279   5.214   1.542   0.435  0.2965  0.7692  0.6886
13074SOL     OW51280   4.026   3.095   1.948 -0.0401 -0.2542 -0.1661
13074SOL    HW151281   3.946   3.078   2.006  0.7796  0.0896  1.0851
13074SOL    HW251282   3.997   3.144   1.865 -0.9338  1.1280  0.9328
13075SOL     OW51283   0.880   6.412   6.260  0.0688 -0.4287 -0.4902
13075SOL    HW151284   0.867   6.410   6.161  1.9595 -1.5673 -0.7381
13075SOL    HW251285   0.874   6.319   6.297 -0.9714  0.0263  0.5130
13076SOL     OW51286   2.990   3.546   0.913  0.3333  0.0247  0.2786
13076SOL    HW151287   3.049   3.469   0.938  0.1552 -0.2359 -0.1120
13076SOL    HW251288   2.912   3.550   0.976  0.1287 -0.3561  0.0501
13077SOL     OW51289   6.423   8.941   8.978  0.4208 -0.6683  0.1281
13077SOL    HW151290   6.446   8.883   9.056  0.2584 -3.9551 -2.1869
13077SOL    HW251291   6.505   8.956   8.922  0.5511  1.7138  0.8801
13078SOL     OW51292   1.257   4.508   2.372  0.5131 -0.1928 -0.6576
13078SOL    HW151293   1.258   4.508   2.472 -0.4278  2.2817 -0.6227
13078SOL    HW251294   1.162   4.513   2.340  0.9012  0.7767 -1.6675
13079SOL     OW51295   8.300   3.757   9.706  0.4522 -0.5319  0.4730
13079SOL    HW151296   8.371   3.809   9.751 -0.1244  0.6908 -0.0110
13079SOL    HW251297   8.212   3.773   9.751 -0.3682  1.7158 -1.8219
13080SOL     OW51298   8.187   4.094   6.296  0.2534 -0.1712 -0.5784
13080SOL    HW151299   8.284   4.077   6.276  0.5383  0.6992  0.0795
13080SOL    HW251300   8.177   4.179   6.346 -0.6204 -1.5452  1.6477
13081SOL     OW51301   4.921   1.586   9.554 -0.4941 -0.7673  0.5126
13081SOL    HW151302   4.924   1.492   9.521 -1.0968 -0.2008 -1.1999
13081SOL    HW251303   5.014   1.619   9.568 -0.2142 -0.9256 -0.9157
13082SOL     OW51304   4.894   5.612   7.132  0.1610  0.1380 -0.1500
13082SOL    HW151305   4.976   5.642   7.179 -0.4489  0.4244  0.7335
13082SOL    HW251306   4.854   5.689   7.081  0.6143 -0.0811 -0.8403
13083SOL     OW51307   8.947   6.671   4.591 -0.1700  0.2686  0.6587
13083SOL    HW151308   8.871   6.610   4.568  0.3903 -0.3839  0.5084
13083SOL    HW251309   9.025   6.616   4.623  0.5119  0.8607  0.0309
13084SOL     OW51310   2.326   1.231   5.854 -0.6268  0.1701 -0.2437
13084SOL    HW151311   2.408   1.284   5.832 -0.8749  0.1755 -1.1938
13084SOL    HW251312   2.337   1.137   5.822 -1.0531  0.2142 -0.5341
13085SOL     OW51313   4.494   4.942   1.195 -0.0949 -0.6652 -0.4585
13085SOL    HW151314   4.517   4.944   1.292 -1.9963 -0.3713 -0.0026
13085SOL    HW251315   4.576   4.917   1.142  1.6795  1.8283  0.9737
13086SOL     OW51316   2.366   6.366   7.211 -0.0830  0.6890  0.3066
13086SOL    HW151317   2.353   6.404   7.303  2.7275  3.3665 -0.3319
13086SOL    HW251318   2.424   6.285   7.216 -1.0423  0.0341  1.0097
13087SOL     OW51319   4.162   0.110   6.895  1.1621 -0.4012 -0.0546
13087SOL    HW151320   4.159   0.014   6.866 -2.4145 -0.6910  0.9599
13087SOL    HW251321   4.141   0.169   6.817  0.6634 -0.6374 -0.1048
13088SOL     OW51322   6.881   2.641   4.402  0.2185  0.2550 -0.3186
13088SOL    HW151323   6.949   2.600   4.341 -0.6754  0.6780 -1.6256
13088SOL    HW251324   6.857   2.576   4.474 -0.8313 -1.3864 -2.0915
13089SOL     OW51325   1.715   8.218   0.456 -0.2790  0.0718  0.3193
13089SOL    HW151326   1.717   8.119   0.441  0.1907  0.0685  0.3870
13089SOL    HW251327   1.640   8.258   0.403  1.3021  0.0387 -2.0444
13090SOL     OW51328   7.421   4.993   0.429  0.1787  0.3764  0.0778
13090SOL    HW151329   7.419   4.920   0.360  0.8813  2.3710 -2.1325
13090SOL    HW251330   7.397   4.955   0.519  2.5169 -2.9889 -0.6202
13091SOL     OW51331   4.862   5.443   0.202 -0.1188  0.0866 -0.1324
13091SOL    HW151332   4.824   5.402   0.285  0.6249  0.3458  0.3326
13091SOL    HW251333   4.794   5.435   0.128 -0.0424 -1.8508 -0.0261
13092SOL     OW51334   7.442   8.139   0.179 -0.0986 -0.3114  0.0644
13092SOL    HW151335   7.383   8.074   0.228 -0.9284 -0.0372 -0.5782
13092SOL    HW251336   7.438   8.121   0.081  0.8909 -0.2892  0.0132
13093SOL     OW51337   4.150   5.748   2.276 -0.3339  0.1118 -0.6706
13093SOL    HW151338   4.229   5.781   2.327 -2.2170  1.4642  1.4786
13093SOL    HW251339   4.135   5.651   2.296  0.3982  0.0152 -0.5934
13094SOL     OW51340   4.136   8.260   0.266 -0.9231 -0.0764 -0.2542
13094SOL    HW151341   4.038   8.243   0.272 -0.8236 -0.7442 -0.4129
13094SOL    HW251342   4.155   8.357   0.282 -1.4951 -0.1511  0.8702
13095SOL     OW51343   5.852   2.877   9.655  0.0306 -0.0805  0.1733
13095SOL    HW151344   5.794   2.823   9.716  0.2512 -1.5314 -0.8875
13095SOL    HW251345   5.944   2.885   9.695  0.1840 -1.0562  0.0308
13096SOL     OW51346   8.463   3.413   3.481 -0.0886  0.4113  0.1880
13096SOL    HW151347   8.386   3.477   3.488 -1.4701 -1.3151  1.0892
13096SOL    HW251348   8.484   3.396   3.385 -3.1403 -1.7765 -0.1569
13097SOL     OW51349   8.256   4.738   0.594 -0.1607  0.1218  0.4721
13097SOL    HW151350   8.254   4.836   0.611  0.1667  0.0820  0.7728
13097SOL    HW251351   8.336   4.715   0.538 -0.4814  0.0840  0.0372
13098SOL     OW51352   4.683   2.922   0.994 -0.1376 -0.1485  0.3611
13098SOL    HW151353   4.631   2.883   1.070  0.0876 -1.2072 -0.0230
13098SOL    HW251354   4.662   2.872   0.910 -0.5938  1.1846 -0.3328
13099SOL     OW51355   6.765   5.915   9.782 -0.8223 -0.6484  0.8050
13099SOL    HW151356   6.770   5.849   9.857  1.3311  0.0129  1.2594
13099SOL    HW251357   6.852   5.964   9.774 -1.6185  0.5222 -1.0049
13100SOL     OW51358   0.961   5.416   0.318  0.0991 -0.1197 -0.4054
13100SOL    HW151359   0.989   5.432   0.413 -2.3867 -1.7295  0.6296
13100SOL    HW251360   0.862   5.414   0.312  0.2264 -1.8512 -2.7447
13101SOL     OW51361   6.140   2.003   3.708  0.0836  0.1410  0.2224
13101SOL    HW151362   6.124   1.924   3.649  1.3291 -0.8579  1.2091
13101SOL    HW251363   6.184   2.075   3.655  0.2290 -0.3491 -0.3283
13102SOL     OW51364   3.364   5.699   7.360  0.2470  0.4113 -0.0398
13102SOL    HW151365   3.350   5.779   7.302 -1.1343 -1.3441 -2.2042
13102SOL    HW251366   3.440   5.644   7.323  0.9339  0.4992  1.2040
13103SOL     OW51367   4.333   7.661   4.964  0.0133  0.4382  0.2538
13103SOL    HW151368   4.296   7.650   5.056  0.0232  1.5007  0.3989
13103SOL    HW251369   4.414   7.720   4.968 -0.9189  1.7941 -0.6347
13104SOL     OW51370   0.848   2.377   0.326  0.0810 -0.5119 -0.2501
13104SOL    HW151371   0.814   2.332   0.243 -0.0386 -1.1271  0.1251
13104SOL    HW251372   0.943   2.404   0.313 -0.0130 -0.3823 -0.6790
13105SOL     OW51373   6.009   2.784   3.127 -0.0088 -0.5721  0.3998
13105SOL    HW151374   5.913   2.809   3.111  0.3215  1.5852  1.4770
13105SOL    HW251375   6.028   2.786   3.225  1.8497  2.0535  0.0561
13106SOL     OW51376   8.089   2.739   5.379  0.8110 -0.5939  0.2301
13106SOL    HW151377   8.034   2.808   5.424  0.7842 -0.2479 -0.3297
13106SOL    HW251378   8.116   2.771   5.288 -1.6976 -2.4985 -1.2493
13107SOL     OW51379   3.929   9.217   7.680 -0.3095  0.3478 -0.2589
13107SOL    HW151380   3.927   9.259   7.771 -0.2891  0.6775 -0.4130
13107SOL    HW251381   4.005   9.254   7.627  0.3106 -0.6087 -0.0448
13108SOL     OW51382   4.279   6.217   8.251  0.1300  0.2673 -0.2556
13108SOL    HW151383   4.195   6.227   8.305  1.2441  1.0245  1.3912
13108SOL    HW251384   4.278   6.282   8.175 -1.0873 -0.2111 -0.6541
13109SOL     OW51385   2.015   4.948   4.264  0.1529  0.1166  0.0329
13109SOL    HW151386   2.018   5.046   4.285  0.6352  0.1476 -0.1711
13109SOL    HW251387   2.079   4.899   4.324  2.1226  0.2973 -1.8356
13110SOL     OW51388   0.133   2.951   1.463 -0.5364 -0.0845  0.8452
13110SOL    HW151389   0.040   2.955   1.499 -0.8937 -0.4293 -0.0225
13110SOL    HW251390   0.131   2.920   1.368  0.4392  0.2289  0.7130
13111SOL     OW51391   3.238   0.492   3.846 -0.3184  0.2261  0.3116
13111SOL    HW151392   3.222   0.500   3.945 -0.4372  0.8006  0.2494
13111SOL    HW251393   3.151   0.486   3.798 -0.2625  0.0311  0.2337
13112SOL     OW51394   8.448   9.006   4.888 -0.6266 -0.1139 -0.4577
13112SOL    HW151395   8.530   8.952   4.872 -1.6970 -1.5462 -1.2136
13112SOL    HW251396   8.448   9.040   4.982  1.1116  0.3980 -0.6387
13113SOL     OW51397   7.265   3.500   9.467  0.5042 -0.0840 -0.2218
13113SOL    HW151398   7.218   3.500   9.378  1.1306  0.2341 -0.5608
13113SOL    HW251399   7.204   3.536   9.537  0.5365  1.1650 -0.8185
13114SOL     OW51400   3.960   4.504   5.476  0.5399  0.1142 -0.0514
13114SOL    HW151401   4.011   4.590   5.475 -1.5231  1.3721 -0.2070
13114SOL    HW251402   3.885   4.509   5.410 -0.4938 -1.2558  0.9967
13115SOL     OW51403   4.679   3.332   2.593 -0.1529  0.0682  0.0681
13115SOL    HW151404   4.725   3.312   2.679 -0.7140  0.4436  0.4649
13115SOL    HW251405   4.645   3.427   2.595  0.2161  0.2219 -0.7393
13116SOL     OW51406   4.990   9.150   8.066 -0.0826 -0.1927  0.1341
13116SOL    HW151407   5.047   9.069   8.077  0.5451 -0.1293 -2.2582
13116SOL    HW251408   5.029   9.208   7.994 -1.1169  1.7004  1.0824
13117SOL     OW51409   6.918   4.546   9.377 -0.3603  0.0607 -0.1671
13117SOL    HW151410   6.828   4.580   9.349 -0.6642  0.0378  0.7685
13117SOL    HW251411   6.969   4.620   9.422  0.2853  0.2110 -1.1058
13118SOL     OW51412   4.356   3.237   9.891 -0.6328  0.5827  0.3226
13118SOL    HW151413   4.322   3.326   9.918 -0.2032  1.2306 -1.2285
13118SOL    HW251414   4.426   3.248   9.820 -0.9371 -1.0032 -0.2417
13119SOL     OW51415   4.838   4.700   5.448  0.5148 -0.3535  0.3146
13119SOL    HW151416   4.870   4.614   5.409  1.3718  0.0958  0.0035
13119SOL    HW251417   4.913   4.744   5.499  0.1237  0.2554  0.3758
13120SOL     OW51418   6.784   1.264   9.165  0.1632  0.1037 -0.4423
13120SOL    HW151419   6.745   1.308   9.085  0.2879  0.4264 -0.3251
13120SOL    HW251420   6.782   1.164   9.152 -2.3715  0.0169  0.3442
13121SOL     OW51421   9.687   5.507   1.219 -0.5778  0.5514 -0.4001
13121SOL    HW151422   9.724   5.527   1.128  0.9209  0.4234  0.1522
13121SOL    HW251423   9.751   5.541   1.289 -2.2418  1.6408  0.6223
13122SOL     OW51424   2.398   7.128   4.207  0.9437 -0.4431 -0.0996
13122SOL    HW151425   2.491   7.127   4.243  1.9574  0.3818 -2.6007
13122SOL    HW251426   2.400   7.140   4.108 -1.8688  1.6760  0.0240
13123SOL     OW51427   3.987   5.531   2.357  0.1147  0.3814  0.2141
13123SOL    HW151428   3.947   5.440   2.361  0.9288 -0.0936 -1.9633
13123SOL    HW251429   4.025   5.555   2.446  1.0376 -1.9247  0.4521
13124SOL     OW51430   3.348   8.114   1.398  0.1003  0.5167  0.4792
13124SOL    HW151431   3.416   8.124   1.470  0.4914 -0.1899  0.2129
13124SOL    HW251432   3.374   8.039   1.337 -0.6721  0.5469  0.0997
13125SOL     OW51433   7.917   5.013   4.423 -0.4538 -0.0178 -0.0738
13125SOL    HW151434   7.857   4.987   4.346 -0.2859  0.9608 -0.5418
13125SOL    HW251435   7.862   5.017   4.507 -0.1620 -3.6246  0.3954
13126SOL     OW51436   7.201   1.992   8.120  0.5330 -0.0406 -0.0667
13126SOL    HW151437   7.200   2.080   8.168  2.3398  0.2500 -0.5271
13126SOL    HW251438   7.123   1.937   8.150  0.0254  1.2648  1.0699
13127SOL     OW51439   6.022   0.697   6.936 -0.1017  0.4751  0.1285
13127SOL    HW151440   6.051   0.769   6.871 -1.7633  2.4828  1.5637
13127SOL    HW251441   6.052   0.722   7.028  0.3261 -1.2959  0.4880
13128SOL     OW51442   6.785   2.277   7.160 -0.2595 -0.2998 -0.1768
13128SOL    HW151443   6.745   2.203   7.214 -0.0241 -0.3544 -0.0769
13128SOL    HW251444   6.884   2.279   7.175 -0.0238 -1.0582 -1.4974
13129SOL     OW51445   2.706   8.229   4.387  0.5906 -0.9283  0.1021
13129SOL    HW151446   2.798   8.190   4.387  0.8055 -0.4481 -0.9468
13129SOL    HW251447   2.695   8.289   4.308 -0.4027 -0.4386  0.5976
13130SOL     OW51448   7.562   5.693   6.934 -0.2161 -0.0286  0.4695
13130SOL    HW151449   7.487   5.750   6.969 -1.0381 -0.7063 -0.1445
13130SOL    HW251450   7.533   5.649   6.849  1.6266  1.2909 -0.8617
13131SOL     OW51451   4.727   2.896   0.108  0.0026  0.4653 -0.1763
13131SOL    HW151452   4.694   2.908   0.014  1.8556 -1.6732 -1.1522
13131SOL    HW251453   4.777   2.978   0.137  0.7812  0.5311 -1.6569
13132SOL     OW51454   0.648   5.237   0.012 -0.2445 -0.6198  0.3725
13132SOL    HW151455   0.743   5.228   0.041  0.2422  1.4224 -0.5091
13132SOL    HW251456   0.613   5.148  -0.018  0.8103 -1.7439  2.3902
13133SOL     OW51457   6.089   6.551   9.423  0.7537 -0.2414 -0.4105
13133SOL    HW151458   6.148   6.627   9.448  1.3807 -1.5213  2.1457
13133SOL    HW251459   6.140   6.466   9.426 -0.3423 -0.9742 -1.6688
13134SOL     OW51460   2.853   6.293   7.544 -0.3133 -0.1545 -0.1449
13134SOL    HW151461   2.936   6.259   7.588 -0.8731  0.3638  1.3302
13134SOL    HW251462   2.844   6.391   7.561  0.5472  0.5388 -3.1936
13135SOL     OW51463   1.709   8.092   1.636  0.2489 -0.7487  0.0701
13135SOL    HW151464   1.642   8.031   1.678 -1.2627  0.4822 -0.5124
13135SOL    HW251465   1.672   8.185   1.633  1.3777 -0.3408 -1.6270
13136SOL     OW51466   3.143   7.815   1.366  0.0451  0.4430 -0.2011
13136SOL    HW151467   3.119   7.844   1.459  0.3553  1.6774 -0.4977
13136SOL    HW251468   3.240   7.831   1.350  0.5013 -1.9339  0.0318
13137SOL     OW51469   5.380   5.246   2.375 -0.1992 -0.0948  0.3634
13137SOL    HW151470   5.301   5.188   2.358 -0.9806  1.2687 -0.7798
13137SOL    HW251471   5.463   5.191   2.370 -1.0025 -1.3433  0.5684
13138SOL     OW51472   6.187   3.378   4.691  0.6443 -0.1828 -0.3977
13138SOL    HW151473   6.286   3.382   4.676  0.4781  0.1921 -1.4651
13138SOL    HW251474   6.163   3.435   4.770  1.0434  1.5140 -1.4661
13139SOL     OW51475   3.504   7.536   8.461  0.3084 -0.6545  0.5412
13139SOL    HW151476   3.438   7.563   8.392 -1.0925  1.9185  2.7986
13139SOL    HW251477   3.573   7.476   8.420 -0.9201  0.1618 -2.8441
13140SOL     OW51478   4.095   7.298   2.587 -0.0897 -0.3799 -0.0562
13140SOL    HW151479   4.024   7.366   2.607 -1.1538 -1.2846 -0.7219
13140SOL    HW251480   4.053   7.215   2.551  1.3494 -0.7631 -0.8999
13141SOL     OW51481   1.714   4.176   2.832  0.3821  0.4271  0.1725
13141SOL    HW151482   1.774   4.247   2.795  0.1187  0.4579 -0.2035
13141SOL    HW251483   1.619   4.208   2.830  0.3256  0.2848  0.5343
13142SOL     OW51484   1.698   2.212   2.703 -0.3766 -1.1037 -0.2932
13142SOL    HW151485   1.601   2.201   2.682 -0.6617  1.2823 -0.3070
13142SOL    HW251486   1.713   2.193   2.800 -1.3864  1.3995  0.3879
13143SOL     OW51487   3.336   4.965   5.806  0.3998  0.1168 -0.2198
13143SOL    HW151488   3.430   4.968   5.771 -0.0084  0.1211 -1.3492
13143SOL    HW251489   3.318   4.876   5.847  0.7338 -0.0625 -0.4626
13144SOL     OW51490   1.701   1.811   9.240  0.4739 -0.4890  0.0128
13144SOL    HW151491   1.721   1.808   9.338  1.5953 -1.0375 -0.2235
13144SOL    HW251492   1.781   1.781   9.189 -0.1859 -0.4304 -1.0705
13145SOL     OW51493   4.159   5.068   2.714  0.1970 -0.0945 -0.0679
13145SOL    HW151494   4.060   5.068   2.699  0.4444 -2.3054 -2.0285
13145SOL    HW251495   4.183   4.999   2.782  0.1226  2.8900  3.1706
13146SOL     OW51496   4.886   2.736   1.287  0.2927  0.3407  0.0674
13146SOL    HW151497   4.793   2.706   1.266  0.9134 -1.1782 -0.5733
13146SOL    HW251498   4.922   2.789   1.210 -0.1434  1.1727  0.4351
13147SOL     OW51499   6.216   7.199   5.424 -0.1457 -0.4248 -0.1237
13147SOL    HW151500   6.300   7.175   5.472 -0.3550 -0.7140  0.0954
13147SOL    HW251501   6.145   7.221   5.490  0.2431  1.5159 -0.3243
13148SOL     OW51502   9.095   3.093   2.358 -0.2344 -0.2747 -0.1806
13148SOL    HW151503   9.151   3.141   2.425  1.5257 -2.8995  0.2610
13148SOL    HW251504   9.016   3.051   2.404 -0.1907 -0.2694 -0.0997
13149SOL     OW51505   4.131   4.773   5.578 -0.1465  0.3164 -0.0712
13149SOL    HW151506   4.069   4.849   5.559 -1.0940 -0.0381  1.5736
13149SOL    HW251507   4.226   4.804   5.568 -0.5614  1.1610 -1.4425
13150SOL     OW51508   2.788   7.466   1.598  0.1476 -0.1323  0.0937
13150SOL    HW151509   2.770   7.440   1.503  1.7616  0.0372 -0.2780
13150SOL    HW251510   2.729   7.414   1.659 -0.0679 -1.1199 -0.9405
13151SOL     OW51511   7.619   4.439   1.310 -0.1340  0.3987  0.4522
13151SOL    HW151512   7.583   4.346   1.312  0.0227  0.2751 -1.5912
13151SOL    HW251513   7.635   4.471   1.404  0.5018 -1.8743  1.1366
13152SOL     OW51514   1.608   1.010   0.435  0.0401  1.2501 -0.1208
13152SOL    HW151515   1.525   1.015   0.491  0.2814 -1.6499  0.5672
13152SOL    HW251516   1.590   0.958   0.352  0.9568  1.3795 -0.4084
13153SOL     OW51517   7.716   3.648   2.346  0.4779  0.2139  0.0641
13153SOL    HW151518   7.781   3.649   2.421  0.9754 -0.3076 -0.3505
13153SOL    HW251519   7.765   3.662   2.260 -0.3775  3.2301  0.0385
13154SOL     OW51520   4.423   8.716   5.854 -0.5890 -0.1743 -0.2987
13154SOL    HW151521   4.471   8.675   5.932  0.5674  1.0914 -0.3282
13154SOL    HW251522   4.438   8.659   5.773  0.2449 -0.2052 -0.1318
13155SOL     OW51523   6.328   5.965   8.530  0.2920  0.1398  0.1577
13155SOL    HW151524   6.316   5.964   8.629 -0.7808 -0.0115  0.0272
13155SOL    HW251525   6.250   5.921   8.486  0.0418  1.5185 -0.8148
13156SOL     OW51526   4.531   4.833   8.269  0.0023  0.4912 -0.0249
13156SOL    HW151527   4.435   4.816   8.296  0.2001 -0.3511  0.1813
13156SOL    HW251528   4.552   4.930   8.280 -1.2573  0.9384 -1.4730
13157SOL     OW51529   2.502   1.230   6.337  0.1558  0.3729  1.0565
13157SOL    HW151530   2.509   1.232   6.437 -3.2148  1.1989  1.3544
13157SOL    HW251531   2.440   1.302   6.307  0.4755 -0.4041 -1.5842
13158SOL     OW51532   4.403   6.297   9.426 -0.4864 -0.0832  0.5065
13158SOL    HW151533   4.375   6.243   9.347 -1.2416  0.0280  0.6962
13158SOL    HW251534   4.397   6.241   9.509  0.4102 -0.2348  0.4720
13159SOL     OW51535   4.421   6.344   0.084  0.1049  0.0399  0.5037
13159SOL    HW151536   4.466   6.334   0.172 -1.2865 -2.5474  0.9523
13159SOL    HW251537   4.322   6.340   0.096 -0.1270  0.6278 -1.0715
13160SOL     OW51538   7.664   2.937   2.779 -0.2858 -0.8643 -0.5594
13160SOL    HW151539   7.638   2.939   2.876  0.8634  0.8795 -0.2555
13160SOL    HW251540   7.588   2.900   2.725 -1.0190 -1.6560  0.9813
13161SOL     OW51541   4.504   2.860   8.812  0.0052 -0.6139  0.0831
13161SOL    HW151542   4.497   2.806   8.727 -1.5407  1.5509 -1.2108
13161SOL    HW251543   4.587   2.915   8.809 -0.8700  0.7012 -0.8190
13162SOL     OW51544   2.799   5.664   9.003  0.0511 -0.4166  0.3206
13162SOL    HW151545   2.843   5.619   8.925  0.2578 -1.0314  0.7842
13162SOL    HW251546   2.849   5.748   9.025 -0.8550  0.5181 -1.0973
13163SOL     OW51547   8.095   5.715   3.162 -0.3254  0.3135 -0.6729
13163SOL    HW151548   8.186   5.675   3.153 -1.0491 -1.5200 -0.1354
13163SOL    HW251549   8.036   5.679   3.090 -1.2476 -0.3117  0.3828
13164SOL     OW51550   4.165   3.688   5.847  0.0168  0.5346  0.8123
13164SOL    HW151551   4.199   3.594   5.845 -1.1676  0.1029  0.2294
13164SOL    HW251552   4.153   3.717   5.942 -2.3293 -0.9327  1.0156
13165SOL     OW51553   5.976   2.580   0.741 -0.0341 -0.4420 -0.0701
13165SOL    HW151554   5.931   2.514   0.681 -0.5920 -1.7195  1.7338
13165SOL    HW251555   5.962   2.554   0.836  1.5759  1.0913  0.6089
13166SOL     OW51556   4.088   2.500   7.285  0.3112  0.0957 -0.4924
13166SOL    HW151557   4.149   2.577   7.305  0.2716 -0.3955  1.5997
13166SOL    HW251558   4.120   2.453   7.203  1.1472  1.4963 -0.9911
13167SOL     OW51559   8.134   1.710   0.329  0.0101 -0.0988 -0.0966
13167SOL    HW151560   8.161   1.618   0.302 -2.8355 -1.1699  0.5212
13167SOL    HW251561   8.055   1.705   0.390  0.7486  2.6997  1.1703
13168SOL     OW51562   5.196   5.302   6.380 -0.1079 -0.1585  0.1372
13168SOL    HW151563   5.126   5.334   6.443 -1.2017 -2.0114 -0.0932
13168SOL    HW251564   5.227   5.378   6.323 -2.0668  0.6526  0.1215
13169SOL     OW51565   1.263   7.470   8.054  0.2836 -0.2005 -0.3368
13169SOL    HW151566   1.211   7.416   7.988  1.5089 -0.2244 -1.3191
13169SOL    HW251567   1.359   7.442   8.051  0.2674 -0.5030  1.7993
13170SOL     OW51568   5.926   9.843   4.943  0.2659 -0.3836 -0.5092
13170SOL    HW151569   5.874   9.758   4.951 -0.4922  0.2530  1.4752
13170SOL    HW251570   6.022   9.822   4.924  0.3722 -1.7257  1.4189
13171SOL     OW51571   3.279   5.468   9.820  0.2582  0.0676  0.9084
13171SOL    HW151572   3.240   5.548   9.774  1.3950  1.5325  2.4367
13171SOL    HW251573   3.378   5.470   9.814  0.3776 -0.2957  2.4802
13172SOL     OW51574   3.904   3.466   0.329 -0.1979  0.7638 -0.1034
13172SOL    HW151575   3.982   3.522   0.358  0.2913 -0.5273  1.1422
13172SOL    HW251576   3.822   3.496   0.376  0.4503 -0.8334  2.1032
13173SOL     OW51577   2.199   2.625   5.969 -0.2441 -0.3833 -0.4918
13173SOL    HW151578   2.163   2.656   5.881  0.4291 -1.5995 -1.2100
13173SOL    HW251579   2.177   2.692   6.040 -1.4872  0.2123 -1.4349
13174SOL     OW51580   8.141   4.264   8.070 -0.7868  0.1602  0.6780
13174SOL    HW151581   8.176   4.298   8.157 -0.1561 -0.7502  0.7952
13174SOL    HW251582   8.215   4.219   8.020 -1.7399 -1.6710  0.8665
13175SOL     OW51583   2.686   2.830   8.787  0.0466  0.4648 -0.4365
13175SOL    HW151584   2.588   2.851   8.786 -0.0356  0.1277  0.3538
13175SOL    HW251585   2.700   2.741   8.744 -0.0191  0.4004 -0.3257
13176SOL     OW51586   9.509   2.649   8.569 -0.0856 -0.3776  0.4286
13176SOL    HW151587   9.459   2.711   8.631 -0.7803  0.4030 -0.8971
13176SOL    HW251588   9.458   2.564   8.559 -1.1517  0.3864 -0.8604
13177SOL     OW51589   4.947   6.341   2.464  0.5528 -0.6716 -0.1020
13177SOL    HW151590   4.966   6.255   2.417  0.8688 -0.8748  0.3860
13177SOL    HW251591   5.013   6.411   2.436  1.2982 -1.0422  0.6971
13178SOL     OW51592   0.961   6.583   3.831  0.3107  0.5060  0.2243
13178SOL    HW151593   0.911   6.561   3.915  0.8067 -1.2741  0.0805
13178SOL    HW251594   0.995   6.677   3.836  0.1956  0.4817  1.9371
13179SOL     OW51595   9.053   1.467   1.897  0.1441 -0.2000 -0.2902
13179SOL    HW151596   9.094   1.461   1.988  0.7635  3.5225 -0.2502
13179SOL    HW251597   8.954   1.455   1.904  0.2618 -0.5889  0.7860
13180SOL     OW51598   0.684   2.706   8.310 -0.1283 -0.1923  0.0412
13180SOL    HW151599   0.758   2.639   8.314  1.0312  0.9432 -1.9749
13180SOL    HW251600   0.718   2.792   8.274 -3.0613 -0.5460 -3.9002
13181SOL     OW51601   7.007   0.010   3.841  0.1821  0.0042  0.9539
13181SOL    HW151602   6.927   0.023   3.783  0.2420 -2.3981  0.3151
13181SOL    HW251603   7.032   0.098   3.883 -2.8682  0.7424  1.3141
13182SOL     OW51604   3.949   6.303   2.087  0.3651  0.2993 -0.0094
13182SOL    HW151605   3.900   6.253   2.158  0.3540  1.1380  0.5823
13182SOL    HW251606   4.034   6.257   2.065 -0.0968 -0.4925 -0.1500
13183SOL     OW51607   3.386   3.133   1.097  0.2524 -0.2582  0.6600
13183SOL    HW151608   3.453   3.127   1.171  2.4330 -1.0519 -1.3196
13183SOL    HW251609   3.432   3.117   1.009 -2.3701  0.1492 -0.8290
13184SOL     OW51610   1.043   0.850   4.513 -0.0029 -0.1697  0.0389
13184SOL    HW151611   1.109   0.910   4.470 -0.0146  0.5390  0.9880
13184SOL    HW251612   0.956   0.854   4.465  0.3354 -0.3037 -0.5810
13185SOL     OW51613   6.819   2.605   1.534 -0.1491 -0.4410 -0.4868
13185SOL    HW151614   6.903   2.651   1.507 -0.2253  0.6757  1.1362
13185SOL    HW251615   6.740   2.652   1.493 -0.1346  0.0147  0.0047
13186SOL     OW51616   0.622   8.351   1.408 -0.0726 -0.3685 -0.3872
13186SOL    HW151617   0.621   8.449   1.384 -1.4089 -0.2857 -0.0095
13186SOL    HW251618   0.717   8.319   1.410  0.5105  1.3225  1.0897
13187SOL     OW51619   4.879   0.322   8.188 -0.1656  0.4212  0.2769
13187SOL    HW151620   4.795   0.267   8.190 -0.9939  1.6735  1.1676
13187SOL    HW251621   4.943   0.287   8.256 -0.2416 -0.1073  0.0818
13188SOL     OW51622   2.646   2.231   1.605  0.2010  0.3767 -0.4530
13188SOL    HW151623   2.705   2.292   1.658 -0.3810  1.1604 -0.6909
13188SOL    HW251624   2.700   2.157   1.566  1.1556  1.4757 -1.2500
13189SOL     OW51625   5.100   2.974   1.416  0.0470 -0.2566  0.0325
13189SOL    HW151626   5.067   2.976   1.322  0.8195  1.8365 -0.2171
13189SOL    HW251627   5.171   2.904   1.425  0.3124 -0.1383 -1.0576
13190SOL     OW51628   1.190   9.826   4.353  0.1503 -0.4618  0.5171
13190SOL    HW151629   1.258   9.782   4.294 -1.8788 -2.2946 -0.5665
13190SOL    HW251630   1.145   9.900   4.303  1.6478  1.0661  1.3962
13191SOL     OW51631   1.079   6.388   4.095 -0.3850 -0.0215  0.0572
13191SOL    HW151632   0.990   6.357   4.130 -0.1342  1.1280  1.7579
13191SOL    HW251633   1.082   6.488   4.096  1.5256 -0.0680  1.5426
13192SOL     OW51634   9.344   5.729   2.975  0.7194 -0.8291 -0.6971
13192SOL    HW151635   9.327   5.784   2.893 -2.8296 -2.3097 -1.0751
13192SOL    HW251636   9.358   5.789   3.054  0.1755  0.6105 -1.6861
13193SOL     OW51637   3.087   2.881   3.549 -0.0553  0.2116  0.5867
13193SOL    HW151638   3.123   2.816   3.482  0.8517  0.4176  0.8685
13193SOL    HW251639   3.114   2.974   3.523 -2.2734  0.6231 -0.4248
13194SOL     OW51640   4.948   1.643   3.513  0.3559  0.5990  0.4181
13194SOL    HW151641   5.002   1.565   3.480  0.3763 -0.2170  2.3267
13194SOL    HW251642   4.851   1.626   3.495  0.1725 -0.7813  2.5879
13195SOL     OW51643   1.688   1.040   1.193  0.0397  0.3399 -0.3665
13195SOL    HW151644   1.604   1.035   1.247 -0.4653  1.2755 -1.0524
13195SOL    HW251645   1.748   0.964   1.217 -0.3057  0.5766  1.3139
13196SOL     OW51646   7.338   3.009   4.212 -0.6331 -0.0725 -0.0294
13196SOL    HW151647   7.309   3.091   4.162  0.4802 -1.1415 -2.5345
13196SOL    HW251648   7.407   3.033   4.280 -1.8930  1.3620  0.7690
13197SOL     OW51649   7.664   4.851   4.844  0.1220 -0.0991 -0.3003
13197SOL    HW151650   7.673   4.949   4.824 -0.0973  0.0907  0.5182
13197SOL    HW251651   7.586   4.837   4.905  0.8705 -0.6493  0.5352
13198SOL     OW51652   9.035   2.728   4.998  0.4157 -0.0524  0.3845
13198SOL    HW151653   9.026   2.712   4.900  0.6577  0.2656  0.3082
13198SOL    HW251654   8.945   2.736   5.040  0.3138 -0.0353  0.1593
13199SOL     OW51655   7.785   0.789   5.981  0.3063  0.2431  0.1715
13199SOL    HW151656   7.741   0.730   6.049  1.0452 -1.1069 -0.4908
13199SOL    HW251657   7.776   0.747   5.891  0.6558  1.2678 -0.3378
13200SOL     OW51658   9.547   1.965   0.276  0.0700  0.5675  0.5477
13200SOL    HW151659   9.522   1.871   0.254 -0.5788  1.1225 -1.2318
13200SOL    HW251660   9.593   1.968   0.364  0.0994 -1.4130  0.6209
13201SOL     OW51661   2.701   0.650   2.984  0.0830 -0.9224 -0.2924
13201SOL    HW151662   2.765   0.586   3.028 -1.0428 -1.8791  0.0082
13201SOL    HW251663   2.647   0.600   2.916  0.7035  0.2096 -1.6233
13202SOL     OW51664   6.977   9.588   4.701  0.1890  0.1735  0.6027
13202SOL    HW151665   6.996   9.545   4.613 -2.3655  1.6443 -0.7150
13202SOL    HW251666   6.946   9.518   4.766 -0.5603 -0.5220 -0.4797
13203SOL     OW51667   7.982   8.563   2.431 -0.2494 -0.3646 -0.1481
13203SOL    HW151668   7.890   8.544   2.396  0.0044 -0.5435 -0.7323
13203SOL    HW251669   8.049   8.510   2.379 -0.0197 -2.1885  1.9314
13204SOL     OW51670   3.595   6.814   4.565 -0.0364  0.2535  0.0368
13204SOL    HW151671   3.651   6.887   4.605  1.4443 -0.9207  0.1578
13204SOL    HW251672   3.623   6.800   4.470  1.2706 -1.6916  0.6835
13205SOL     OW51673   2.864   3.866   4.117 -0.4510  0.3833  0.4278
13205SOL    HW151674   2.952   3.865   4.165 -0.9486  0.1821  1.3486
13205SOL    HW251675   2.857   3.949   4.062  0.6064  0.0633 -0.1937
13206SOL     OW51676   0.787   0.555   2.121  0.2792  0.0695 -0.2717
13206SOL    HW151677   0.798   0.459   2.147  0.0550  0.0554 -0.2304
13206SOL    HW251678   0.754   0.608   2.199 -1.5776 -0.2034 -0.8501
13207SOL     OW51679   2.497   2.826   8.075 -0.0876  0.4221  0.3612
13207SOL    HW151680   2.507   2.755   8.005  0.6234  1.0664 -0.2045
13207SOL    HW251681   2.433   2.795   8.145 -1.1468 -0.0621 -0.8026
13208SOL     OW51682   5.856   5.055   0.639 -0.2983  0.3420 -0.3829
13208SOL    HW151683   5.840   5.150   0.665 -2.7407  0.2078 -1.2134
13208SOL    HW251684   5.817   4.994   0.709 -1.1199 -0.0273 -1.1534
13209SOL     OW51685   6.838   0.674   9.058 -0.2235 -0.7522 -0.6379
13209SOL    HW151686   6.830   0.594   8.997  0.8502 -0.9355 -0.5616
13209SOL    HW251687   6.933   0.682   9.088 -0.7041 -0.5173  0.8309
13210SOL     OW51688   7.124   4.815   1.750 -0.3726  0.1796  0.5630
13210SOL    HW151689   7.146   4.720   1.728 -1.6661  0.1407 -0.6563
13210SOL    HW251690   7.098   4.822   1.847 -0.0534 -0.6663  0.7121
13211SOL     OW51691   0.715   8.260   2.516  0.3852 -0.2352 -0.3628
13211SOL    HW151692   0.812   8.282   2.527  0.3686  0.4054 -1.4545
13211SOL    HW251693   0.667   8.278   2.602  1.0953  0.1699 -0.0428
13212SOL     OW51694   8.828   8.133   4.284 -0.2118  0.0770  0.4775
13212SOL    HW151695   8.781   8.212   4.323  1.3352  2.1183 -1.6617
13212SOL    HW251696   8.926   8.142   4.297  0.0226 -1.2916 -0.1951
13213SOL     OW51697   6.105   4.128   1.135  0.3249  0.0777  0.4984
13213SOL    HW151698   6.174   4.082   1.079 -0.0420  0.7380 -0.5162
13213SOL    HW251699   6.033   4.063   1.161  0.5207 -0.2392  0.2482
13214SOL     OW51700   7.411   1.962   0.326 -0.3934  0.0640 -0.2266
13214SOL    HW151701   7.455   2.015   0.253 -1.9364  1.9646  0.1877
13214SOL    HW251702   7.377   2.024   0.396 -1.2047 -1.5864  0.8677
13215SOL     OW51703   7.024   2.321   7.257  0.2337  0.1866  0.4294
13215SOL    HW151704   7.068   2.398   7.302  2.2086 -0.0578 -1.0331
13215SOL    HW251705   7.071   2.300   7.171 -2.5442 -0.2628 -1.0690
13216SOL     OW51706   5.158   9.000   1.102 -0.0332 -0.2841  0.2491
13216SOL    HW151707   5.205   8.992   1.190 -1.4787 -0.1331  1.0468
13216SOL    HW251708   5.141   9.097   1.082 -0.0267 -0.3369 -0.0160
13217SOL     OW51709   3.479   9.665   3.612  0.5095  0.3463  0.2323
13217SOL    HW151710   3.483   9.764   3.598  1.5924  0.2297 -0.3821
13217SOL    HW251711   3.571   9.628   3.611 -0.0223 -1.0053 -2.1353
13218SOL     OW51712   7.462   0.838   1.701  0.0300 -0.0879 -0.0644
13218SOL    HW151713   7.524   0.895   1.648  0.5663 -0.7289 -0.1337
13218SOL    HW251714   7.368   0.852   1.670  0.3550 -0.5448 -1.2547
13219SOL     OW51715   3.081   7.378   5.538  0.3254  0.4368  0.2804
13219SOL    HW151716   3.007   7.401   5.601  2.4322  3.8333  1.6733
13219SOL    HW251717   3.148   7.321   5.584 -0.3653 -0.8830 -0.3287
13220SOL     OW51718   7.161   2.584   4.743 -0.8153 -0.2627 -0.2069
13220SOL    HW151719   7.131   2.496   4.780  0.2596 -0.3316  0.5356
13220SOL    HW251720   7.081   2.642   4.725 -1.3958 -0.4793  1.6023
13221SOL     OW51721   9.941   4.506   6.251 -0.5682  0.5467  0.1134
13221SOL    HW151722   9.874   4.547   6.189 -1.0996  1.8044  1.4652
13221SOL    HW251723   9.902   4.501   6.343  0.8312  0.3695  0.7115
13222SOL     OW51724   5.206   5.187   1.879  0.2414 -0.0212  0.2284
13222SOL    HW151725   5.261   5.251   1.825 -0.4671  0.0333 -0.4296
13222SOL    HW251726   5.266   5.140   1.944  0.6704  1.7406  1.1489
13223SOL     OW51727   1.466   9.779   0.404  0.0472 -0.0684 -0.5044
13223SOL    HW151728   1.546   9.719   0.392 -0.6407 -1.0274 -0.3432
13223SOL    HW251729   1.477   9.860   0.347  0.4267 -0.9214 -1.6805
13224SOL     OW51730   2.654   7.597   5.532 -0.5037 -0.3678  0.2158
13224SOL    HW151731   2.582   7.658   5.497  0.9316  0.5673 -1.1920
13224SOL    HW251732   2.709   7.564   5.455  1.5245  0.1575  1.4103
13225SOL     OW51733   0.974   3.669   1.472  0.3916  0.7423  0.2609
13225SOL    HW151734   0.891   3.691   1.421 -0.1774  0.3441  1.0029
13225SOL    HW251735   0.992   3.742   1.538 -0.0841  0.2343  0.9703
13226SOL     OW51736   4.290   1.758   2.110  0.0875 -0.3772 -0.6903
13226SOL    HW151737   4.362   1.689   2.104 -0.8915 -1.5378  0.6794
13226SOL    HW251738   4.296   1.805   2.198  0.6251  1.1563 -1.5381
13227SOL     OW51739   2.327   7.342   4.388 -0.1664  0.2649  0.0070
13227SOL    HW151740   2.320   7.262   4.327 -1.8505  0.1587  0.2978
13227SOL    HW251741   2.307   7.425   4.335 -2.3803  0.1066  0.5179
13228SOL     OW51742   5.211   3.059   0.337  1.2476 -0.4566 -0.0472
13228SOL    HW151743   5.135   2.994   0.345  3.1140 -2.7885 -0.8719
13228SOL    HW251744   5.191   3.140   0.393 -1.1521 -1.6638  0.9254
13229SOL     OW51745   4.207   6.802   7.944 -0.4267  0.3067 -0.6140
13229SOL    HW151746   4.212   6.768   8.038  0.6126 -0.8550 -1.0833
13229SOL    HW251747   4.126   6.763   7.899  0.3816 -1.0515 -0.9351
13230SOL     OW51748   3.963   3.969   9.671  0.7261  0.3419 -0.0962
13230SOL    HW151749   3.899   4.008   9.738  0.8500  0.0391  0.2027
13230SOL    HW251750   3.988   3.877   9.699  1.4239  0.5175 -0.1264
13231SOL     OW51751   3.311   6.445   8.849  0.8003 -0.0914 -0.2324
13231SOL    HW151752   3.369   6.523   8.825  1.6373 -0.4895  0.4594
13231SOL    HW251753   3.218   6.476   8.867  1.3069  0.8457  0.7663
13232SOL     OW51754   4.434   7.164   4.971  0.2925 -0.1661 -0.5045
13232SOL    HW151755   4.361   7.096   4.967 -0.4744  0.6358 -0.1989
13232SOL    HW251756   4.433   7.218   4.887  1.3454 -0.9795 -1.0513
13233SOL     OW51757   5.338   4.484   6.813  0.0234  0.1341  0.2562
13233SOL    HW151758   5.432   4.516   6.807 -0.4606  1.4708 -0.3246
13233SOL    HW251759   5.308   4.488   6.909  0.2053  0.7195  0.2892
13234SOL     OW51760   2.583   4.457   1.637  0.0446 -0.1385 -0.2154
13234SOL    HW151761   2.591   4.361   1.663 -1.9405 -0.5018 -0.8901
13234SOL    HW251762   2.663   4.507   1.671  1.3199 -2.0931 -0.2401
13235SOL     OW51763   3.470   3.886   0.494  0.2053  0.2112 -0.3222
13235SOL    HW151764   3.564   3.900   0.462 -0.2235  0.8642 -1.3509
13235SOL    HW251765   3.470   3.867   0.592  1.4127  0.1379 -0.3290
13236SOL     OW51766   5.469   5.719   3.691  0.1390  0.2205 -0.3783
13236SOL    HW151767   5.478   5.779   3.612  1.2969  1.0837  0.4060
13236SOL    HW251768   5.557   5.678   3.713 -0.4395 -1.0130 -0.3012
13237SOL     OW51769   4.976   2.940   2.794  0.1975  0.1762  0.5140
13237SOL    HW151770   4.979   2.919   2.696  0.0927  2.2715  0.0377
13237SOL    HW251771   4.883   2.967   2.819 -0.1029 -1.6814  1.5056
13238SOL     OW51772   5.348   1.330   0.208  0.3103 -0.4335  0.1102
13238SOL    HW151773   5.306   1.400   0.265 -1.1092 -0.9207 -0.3334
13238SOL    HW251774   5.403   1.269   0.265 -0.6728 -0.6036  0.8904
13239SOL     OW51775   5.769   1.109   9.927 -0.6801 -0.0226 -0.6186
13239SOL    HW151776   5.721   1.122  10.014 -0.7607 -1.2740 -0.4738
13239SOL    HW251777   5.851   1.166   9.926 -0.0305 -0.9174  0.7722
13240SOL     OW51778   2.691   6.894   0.983  0.1185  0.0196  0.1867
13240SOL    HW151779   2.635   6.911   1.064  1.0952 -2.6777  1.4845
13240SOL    HW251780   2.788   6.891   1.009  0.2850 -3.4249 -0.5366
13241SOL     OW51781   0.511   8.044   2.527 -0.1402  0.1169  0.5000
13241SOL    HW151782   0.589   8.096   2.560  0.0328 -0.7211  1.4339
13241SOL    HW251783   0.535   7.996   2.443  0.2402  0.1313  0.6020
13242SOL     OW51784   4.123   9.320   5.737 -0.5704  0.4702 -0.5066
13242SOL    HW151785   4.079   9.388   5.677 -0.3975  0.2690 -0.8613
13242SOL    HW251786   4.062   9.242   5.750  0.9889 -1.3925 -3.7719
13243SOL     OW51787   1.268   2.475   4.236 -0.2048  0.1117 -0.0466
13243SOL    HW151788   1.314   2.533   4.303  1.0525 -1.2615  0.3078
13243SOL    HW251789   1.174   2.459   4.265  0.0332  0.3512  0.8679
13244SOL     OW51790   3.446   4.186   5.581 -0.4927 -0.1478 -0.0040
13244SOL    HW151791   3.389   4.182   5.499  1.3199  0.5732 -1.3459
13244SOL    HW251792   3.504   4.268   5.577  1.4112 -1.4188  0.7928
13245SOL     OW51793   4.731   1.685   1.359 -0.0445  0.3386  0.0355
13245SOL    HW151794   4.698   1.632   1.437 -1.3669 -0.3830 -0.9862
13245SOL    HW251795   4.706   1.638   1.274  4.0003 -0.4622 -0.8226
13246SOL     OW51796   4.123   2.303   4.936  0.0505  0.6794 -0.1441
13246SOL    HW151797   4.210   2.271   4.972  0.1292 -0.6204 -1.4623
13246SOL    HW251798   4.110   2.270   4.843 -2.7896 -0.8947  0.7331
13247SOL     OW51799   5.075   3.132   2.436 -0.1432  0.0835 -0.0763
13247SOL    HW151800   5.024   3.209   2.396  1.7020  2.2101  1.5717
13247SOL    HW251801   5.172   3.156   2.442  0.6958 -2.9456 -0.8416
13248SOL     OW51802   6.977   4.279   0.161  0.5019 -0.3763 -0.1103
13248SOL    HW151803   6.921   4.361   0.154 -0.6935 -1.0268  1.4911
13248SOL    HW251804   6.919   4.201   0.185  1.7641 -1.5070 -0.6343
13249SOL     OW51805   3.532   8.683   4.209  0.3717  0.5063  0.1443
13249SOL    HW151806   3.586   8.603   4.234  0.6263  1.0650  1.4253
13249SOL    HW251807   3.455   8.655   4.151  1.2047 -0.4768 -0.4970
13250SOL     OW51808   1.495   1.070   2.083  0.2909 -0.3041  0.5804
13250SOL    HW151809   1.540   0.984   2.060  0.6743 -0.4629  1.9192
13250SOL    HW251810   1.424   1.089   2.015  0.9698 -1.0894 -0.3699
13251SOL     OW51811   8.831   2.507   0.878  0.3033 -0.0784  0.5319
13251SOL    HW151812   8.765   2.572   0.916 -1.2451 -1.3998  0.1682
13251SOL    HW251813   8.869   2.452   0.953  0.2366  0.0196  0.6386
13252SOL     OW51814   6.984   6.470   3.252 -0.1562 -0.5340 -0.4453
13252SOL    HW151815   6.892   6.503   3.232  0.3323  0.5615 -0.9004
13252SOL    HW251816   7.050   6.515   3.191  0.8416 -0.3397  0.7614
13253SOL     OW51817   0.575   0.136   2.953 -0.3199  0.5212 -0.1104
13253SOL    HW151818   0.542   0.229   2.939 -1.3212  0.1190 -0.4427
13253SOL    HW251819   0.666   0.127   2.912 -1.1579  0.7402 -2.0931
13254SOL     OW51820   4.672   1.613   7.714  0.3214  0.0958 -1.1367
13254SOL    HW151821   4.593   1.611   7.653 -2.3750 -2.8251  2.2701
13254SOL    HW251822   4.674   1.699   7.764 -1.9240 -0.6145  0.2213
13255SOL     OW51823   6.500   1.600   2.195 -0.2663 -0.4010  0.6791
13255SOL    HW151824   6.597   1.598   2.219 -0.6640 -0.9687  2.3720
13255SOL    HW251825   6.463   1.691   2.215 -0.0722 -0.1659 -0.0255
13256SOL     OW51826   4.766   9.087   5.046  0.0224  1.0617 -0.7572
13256SOL    HW151827   4.696   9.054   4.983  1.5886 -0.5801 -1.6828
13256SOL    HW251828   4.729   9.091   5.139 -1.1026 -0.4261 -1.1248
13257SOL     OW51829   6.672   4.506   0.409 -0.4360 -0.2608  0.7156
13257SOL    HW151830   6.664   4.413   0.444  0.3257 -1.4907 -2.1616
13257SOL    HW251831   6.581   4.542   0.389 -0.6091 -1.5681 -0.9666
13258SOL     OW51832   5.949   4.709   6.514 -0.3864 -1.3549 -0.6863
13258SOL    HW151833   5.867   4.745   6.469 -0.2474 -0.7698 -0.4749
13258SOL    HW251834   5.959   4.752   6.604  0.6670 -0.7186 -1.0991
13259SOL     OW51835   7.180   7.424   3.138 -0.7405 -0.3131 -0.3242
13259SOL    HW151836   7.279   7.414   3.143 -0.7588  0.7058  2.5998
13259SOL    HW251837   7.139   7.336   3.118  0.8218 -0.3950 -3.6212
13260SOL     OW51838   9.050   1.785   4.482 -0.1827 -0.1431  0.4760
13260SOL    HW151839   8.968   1.727   4.484 -1.4823  1.4988 -2.4299
13260SOL    HW251840   9.115   1.749   4.416  1.0730 -0.8956  2.0851
13261SOL     OW51841   0.178   8.176   5.545 -0.3460  0.2455  0.3520
13261SOL    HW151842   0.163   8.258   5.489 -0.7624 -0.1980 -0.1978
13261SOL    HW251843   0.090   8.131   5.561 -0.0861 -0.2307  0.4388
13262SOL     OW51844   7.865   4.923   3.002 -0.2719 -0.0943  0.4668
13262SOL    HW151845   7.772   4.958   2.994 -0.7570 -1.1617  1.2986
13262SOL    HW251846   7.930   4.999   3.008 -1.2988  0.6495  2.2206
13263SOL     OW51847   4.739   3.415   2.181  0.3210  0.3027  0.5305
13263SOL    HW151848   4.673   3.340   2.175  2.0920 -1.4320  1.8327
13263SOL    HW251849   4.800   3.411   2.101 -0.3458  1.1215 -0.0240
13264SOL     OW51850   3.390   5.849   0.287 -0.5202  0.0402 -0.3690
13264SOL    HW151851   3.329   5.916   0.244  0.0443 -0.2033 -1.5690
13264SOL    HW251852   3.347   5.759   0.287 -1.5302  0.4929  1.7836
13265SOL     OW51853   5.139   4.059   4.630  0.6388  0.2702 -0.8940
13265SOL    HW151854   5.154   4.156   4.649  4.4233 -0.4972  0.4667
13265SOL    HW251855   5.068   4.024   4.691  0.4591  1.7861 -0.2035
13266SOL     OW51856   9.894   1.387   2.088  0.0973  0.5063  0.1136
13266SOL    HW151857   9.896   1.450   2.165  2.6952  0.2812  0.2490
13266SOL    HW251858   9.915   1.437   2.004  0.2829  0.1617 -0.0443
13267SOL     OW51859   5.339   7.783   7.163  0.0046 -0.0300 -0.1316
13267SOL    HW151860   5.418   7.835   7.128 -0.3554 -0.1043 -1.0637
13267SOL    HW251861   5.368   7.729   7.242  0.3959  1.5636  0.8514
13268SOL     OW51862   2.070   8.411   5.237  0.5163 -0.1033  0.0966
13268SOL    HW151863   2.036   8.401   5.331 -1.2375 -0.3331 -0.5362
13268SOL    HW251864   2.024   8.488   5.193 -3.1684 -3.5328 -2.4526
13269SOL     OW51865   7.297   2.297   2.443 -0.3187 -0.3876 -0.5312
13269SOL    HW151866   7.306   2.247   2.529  0.7498 -0.9259 -0.9489
13269SOL    HW251867   7.354   2.254   2.373 -0.9177  0.2481 -1.4228
13270SOL     OW51868   2.830   4.166   1.569 -0.0280 -0.0392 -0.1112
13270SOL    HW151869   2.919   4.191   1.609  0.0584 -0.1399 -0.2395
13270SOL    HW251870   2.812   4.225   1.490 -0.4324  0.5049  0.3807
13271SOL     OW51871   6.011   3.763   3.282 -0.0120  0.8393 -0.0224
13271SOL    HW151872   5.995   3.668   3.253  0.4879  0.6455  0.3162
13271SOL    HW251873   5.952   3.824   3.230 -0.3975  0.3334 -0.1887
13272SOL     OW51874   6.843   7.012   3.157  1.0376 -0.0010  0.7869
13272SOL    HW151875   6.934   7.051   3.143  0.4116  1.3887  0.4611
13272SOL    HW251876   6.826   6.998   3.254  1.5399 -0.0952  0.8581
13273SOL     OW51877   6.214   7.208   3.515 -0.2954  0.2567  0.7938
13273SOL    HW151878   6.154   7.128   3.516  0.6007 -0.4719 -1.2716
13273SOL    HW251879   6.307   7.180   3.491  0.3508  1.7060  1.5622
13274SOL     OW51880   2.681   3.255   1.632  0.1196  0.4454 -0.0670
13274SOL    HW151881   2.741   3.270   1.553 -0.0859 -0.2956 -0.3745
13274SOL    HW251882   2.596   3.213   1.601 -0.5187  1.4021  0.3880
13275SOL     OW51883   0.950   5.028   6.374 -0.2101  0.2848  0.3149
13275SOL    HW151884   0.878   4.969   6.409 -0.2098  1.7561  2.9902
13275SOL    HW251885   0.965   5.010   6.277 -1.5939 -2.6253  0.5896
13276SOL     OW51886   7.198   3.758   4.328  0.3518  0.8804 -0.2959
13276SOL    HW151887   7.174   3.707   4.410  2.6180 -2.1161 -1.4165
13276SOL    HW251888   7.290   3.795   4.337  1.6389 -1.6278 -2.3998
13277SOL     OW51889   4.599   3.199   2.352 -0.9268  0.5536 -0.1394
13277SOL    HW151890   4.522   3.139   2.371  1.0351 -1.9456  0.2422
13277SOL    HW251891   4.632   3.239   2.438  1.1215 -2.1700  0.4365
13278SOL     OW51892   8.669   0.937   3.662 -0.1293 -0.2070  0.3485
13278SOL    HW151893   8.700   0.905   3.751 -0.6371 -1.5917  0.0350
13278SOL    HW251894   8.736   1.002   3.625  0.1334  0.2880  1.6784
13279SOL     OW51895   4.874   3.767   9.994 -0.3738  0.0487 -0.2138
13279SOL    HW151896   4.919   3.800   9.910 -2.0433  0.2002 -1.0729
13279SOL    HW251897   4.939   3.771  10.070  1.2354 -0.2756 -1.5254
13280SOL     OW51898   4.970   3.864   0.354 -1.0078 -0.2196 -0.2171
13280SOL    HW151899   4.996   3.940   0.296  1.4862 -0.6857  0.2605
13280SOL    HW251900   4.985   3.778   0.306  1.8169 -0.6418  1.3468
13281SOL     OW51901   1.598   0.261   9.658 -0.1261 -0.2213 -0.0507
13281SOL    HW151902   1.639   0.303   9.577 -0.4852 -1.2383 -0.7540
13281SOL    HW251903   1.636   0.170   9.672 -0.2719 -0.1620  0.7655
13282SOL     OW51904   8.805   2.946   0.918 -0.3253 -0.0123  0.4619
13282SOL    HW151905   8.736   2.885   0.959 -1.2013 -0.2238 -1.2957
13282SOL    HW251906   8.770   3.040   0.918 -0.7021 -0.1436 -0.5766
13283SOL     OW51907   5.199   4.492   7.442  0.8443  0.0790  0.1304
13283SOL    HW151908   5.100   4.505   7.430  0.6564  0.6220  2.1533
13283SOL    HW251909   5.215   4.409   7.495  1.4915 -0.1642 -0.4438
13284SOL     OW51910   4.141   6.432   4.236 -0.5521  0.3945 -0.0821
13284SOL    HW151911   4.071   6.486   4.282 -1.7457 -0.9160 -0.3208
13284SOL    HW251912   4.123   6.432   4.137  0.9047  1.6318 -0.3671
13285SOL     OW51913   5.660   1.105   4.491  0.8828  0.2315 -1.1162
13285SOL    HW151914   5.677   1.011   4.522  0.3927  1.1582  2.1563
13285SOL    HW251915   5.746   1.155   4.487  0.8300  0.4388  0.0167
13286SOL     OW51916   1.333   5.727   3.080 -0.2261  0.1080  0.5067
13286SOL    HW151917   1.369   5.645   3.123 -3.8361 -0.1299  3.3965
13286SOL    HW251918   1.307   5.793   3.151 -0.4760  2.4066 -1.6259
13287SOL     OW51919   0.230   3.226   7.577  0.9168  0.4241  0.1337
13287SOL    HW151920   0.161   3.255   7.511  1.2402  1.8453  0.3982
13287SOL    HW251921   0.309   3.190   7.530  1.9012  3.0955 -0.3721
13288SOL     OW51922   5.668   4.913   2.314 -0.4098  0.5317 -0.4944
13288SOL    HW151923   5.727   4.889   2.236  1.7280  0.7665  1.0144
13288SOL    HW251924   5.632   5.006   2.301 -0.6697  0.2871 -1.5556
13289SOL     OW51925   4.147   4.132   7.551 -0.0551  0.1054  0.1839
13289SOL    HW151926   4.231   4.144   7.498 -1.7568  0.6338 -2.5166
13289SOL    HW251927   4.115   4.038   7.540 -0.3574  0.1910  0.3505
13290SOL     OW51928   1.892   7.188   2.261 -0.4385 -0.0661  0.0946
13290SOL    HW151929   1.888   7.166   2.359 -1.1126  1.1522  0.3494
13290SOL    HW251930   1.800   7.196   2.224 -0.2203  1.3787 -0.1914
13291SOL     OW51931   1.740   5.369   6.618 -0.2169  0.3212  0.0652
13291SOL    HW151932   1.751   5.291   6.679 -0.6130  0.9439  0.9441
13291SOL    HW251933   1.691   5.341   6.536  1.4608 -0.8132 -0.5748
13292SOL     OW51934   0.045   5.935   0.362 -0.1011 -0.3837  0.3180
13292SOL    HW151935   0.072   5.902   0.453  0.8518 -2.7461 -0.7979
13292SOL    HW251936   0.000   5.862   0.312 -1.1485  1.0870 -0.9381
13293SOL     OW51937   3.935   8.672   7.374  0.2207 -1.0417  0.0485
13293SOL    HW151938   3.979   8.709   7.455 -0.7595 -1.3598  0.7364
13293SOL    HW251939   3.994   8.602   7.333  1.4599  0.2929 -0.4816
13294SOL     OW51940   2.089   3.209   5.784  0.1634 -0.0763  0.2959
13294SOL    HW151941   2.114   3.261   5.865 -0.5708 -1.9002  1.7312
13294SOL    HW251942   2.134   3.248   5.703  1.0154  1.6596  1.5991
13295SOL     OW51943   5.804   3.322   4.170 -0.0586  0.2327  0.0777
13295SOL    HW151944   5.891   3.284   4.201  1.2206  0.4376 -3.0466
13295SOL    HW251945   5.750   3.250   4.127 -0.7385  0.4576  0.5489
13296SOL     OW51946   3.468   6.819   4.059 -0.1995 -0.0434 -0.0238
13296SOL    HW151947   3.471   6.731   4.106 -0.8412 -0.4304 -0.6926
13296SOL    HW251948   3.392   6.820   3.994 -0.0816  0.9358 -0.1643
13297SOL     OW51949   5.898   3.590   4.296 -0.1284  0.3908 -0.7076
13297SOL    HW151950   5.952   3.562   4.375 -2.1844  0.4513  0.7783
13297SOL    HW251951   5.861   3.510   4.249 -1.9024  0.4131  0.5895
13298SOL     OW51952   5.982   1.535   9.806 -0.0328  0.5298 -0.1084
13298SOL    HW151953   5.981   1.629   9.839 -0.4565  0.7414 -0.7304
13298SOL    HW251954   6.077   1.505   9.795  0.1011  1.0238 -0.3161
13299SOL     OW51955   1.365   4.687   9.762  0.8708 -0.4057  0.3410
13299SOL    HW151956   1.429   4.679   9.686 -0.8776  1.3501 -1.3848
13299SOL    HW251957   1.271   4.676   9.727 -0.1121  2.8289  1.8256
13300SOL     OW51958   3.649   6.920   3.050 -0.3494  0.5077  0.3024
13300SOL    HW151959   3.727   6.861   3.026 -1.5935 -1.4365  0.9049
13300SOL    HW251960   3.639   6.922   3.150 -1.5906  0.0394  0.1902
13301SOL     OW51961   1.240   0.696   4.192 -0.2840 -0.2631  0.2158
13301SOL    HW151962   1.297   0.635   4.138 -1.0847 -1.0394  0.2396
13301SOL    HW251963   1.243   0.669   4.288 -0.5807 -0.2211  0.2380
13302SOL     OW51964   6.622   6.923   2.806  0.3399 -0.2281  0.0961
13302SOL    HW151965   6.600   7.015   2.837  0.6478 -0.0964 -0.0778
13302SOL    HW251966   6.722   6.913   2.799  0.3469 -0.8535  0.9804
13303SOL     OW51967   7.983   9.439   3.125 -0.7514  0.0584 -0.2362
13303SOL    HW151968   8.067   9.401   3.085 -0.1561  0.3840  0.6900
13303SOL    HW251969   7.918   9.365   3.142  0.6432 -0.6920  2.1557
13304SOL     OW51970   1.809   3.182   4.906  0.6660  0.2825  0.1682
13304SOL    HW151971   1.714   3.210   4.899  1.1073  1.5603 -0.9878
13304SOL    HW251972   1.839   3.188   5.001 -0.3356  0.1189  0.4901
13305SOL     OW51973   0.486   9.724   2.078 -0.2081  0.0619 -0.0992
13305SOL    HW151974   0.511   9.663   2.154  0.0545 -0.6997 -0.7913
13305SOL    HW251975   0.568   9.765   2.040 -0.1617 -0.9633 -1.1361
13306SOL     OW51976   4.419   2.971   4.517  0.1827  0.5394  0.0954
13306SOL    HW151977   4.426   2.947   4.420  2.1517  1.9029 -0.1301
13306SOL    HW251978   4.492   2.926   4.569 -0.1376  0.7631  0.7479
13307SOL     OW51979   5.236   4.433   1.729 -0.4224 -0.1254  0.5182
13307SOL    HW151980   5.318   4.386   1.696 -0.7747 -0.8935  0.7302
13307SOL    HW251981   5.215   4.510   1.669 -0.5196 -0.9417 -0.5073
13308SOL     OW51982   2.642   3.440   1.855  0.5757 -0.6242 -0.8288
13308SOL    HW151983   2.543   3.446   1.872  1.0013  0.2392  1.5073
13308SOL    HW251984   2.659   3.371   1.786 -1.5650 -1.8439 -0.1964
13309SOL     OW51985   4.521   4.250   3.089 -0.2242  0.1007  0.3089
13309SOL    HW151986   4.596   4.235   3.152  0.2080 -0.9164 -0.4507
13309SOL    HW251987   4.554   4.246   2.995 -1.1973 -0.2315 -0.0315
13310SOL     OW51988   7.275   7.100   7.303  0.2872  0.7513 -0.4002
13310SOL    HW151989   7.295   7.022   7.244  0.5668  0.6150 -0.1209
13310SOL    HW251990   7.183   7.090   7.342  0.4722  0.3716 -0.0578
13311SOL     OW51991   1.837   9.143   1.798  0.2589  0.3383  0.1728
13311SOL    HW151992   1.786   9.226   1.777 -1.2343 -0.3781  0.8534
13311SOL    HW251993   1.914   9.165   1.857 -0.3938  1.1834  0.7205
13312SOL     OW51994   5.746   2.851   3.084  0.0473  0.4175 -0.0355
13312SOL    HW151995   5.704   2.760   3.082 -1.4971  1.0946  0.9125
13312SOL    HW251996   5.750   2.887   2.991  0.7279 -0.6302 -0.4288
13313SOL     OW51997   3.221   7.859   4.095  0.4247 -0.2472  0.0657
13313SOL    HW151998   3.293   7.841   4.161 -1.1287 -1.6663  1.4320
13313SOL    HW251999   3.170   7.774   4.078 -0.2099  0.4695 -1.7387
13314SOL     OW52000   6.127   7.637   5.196  0.3092  0.7458  0.1358
13314SOL    HW152001   6.076   7.609   5.114  1.0541  1.7736 -0.6889
13314SOL    HW252002   6.198   7.569   5.216 -0.8285 -0.2600  0.7970
13315SOL     OW52003   4.001   0.836   5.280 -0.4236 -0.0576  0.4292
13315SOL    HW152004   3.944   0.901   5.229 -1.0174 -0.2602  0.8209
13315SOL    HW252005   4.010   0.752   5.227 -1.0911 -0.2913  0.6780
13316SOL     OW52006   1.818   0.452   3.795 -0.3558 -0.5247  0.0158
13316SOL    HW152007   1.759   0.398   3.735  0.4287 -0.9210 -0.4099
13316SOL    HW252008   1.888   0.392   3.835  1.5174  0.4568 -1.7164
13317SOL     OW52009   3.953   3.218   8.214 -0.0328  0.4769 -0.4485
13317SOL    HW152010   3.893   3.281   8.164 -0.5057  0.7164  0.4050
13317SOL    HW252011   4.027   3.188   8.155 -0.7227  0.5703 -1.3689
13318SOL     OW52012   3.015   6.798   8.368  0.6058  0.0843  0.1635
13318SOL    HW152013   3.040   6.861   8.294 -0.4613 -0.4880 -0.7035
13318SOL    HW252014   2.915   6.787   8.370  0.9244 -3.8938 -1.6606
13319SOL     OW52015   4.689   7.628   3.812 -0.0014 -0.3976  0.0992
13319SOL    HW152016   4.648   7.548   3.768 -1.5072  1.0313 -1.2006
13319SOL    HW252017   4.640   7.710   3.783  0.7261  0.8887  2.3536
13320SOL     OW52018   8.379   1.800   2.156 -0.2319 -0.5638 -0.2906
13320SOL    HW152019   8.289   1.838   2.134 -0.3276 -0.5205  0.1777
13320SOL    HW252020   8.450   1.852   2.109 -0.3156  0.5876  0.8568
13321SOL     OW52021   3.825   3.092   0.976  0.4171 -0.1913 -0.1486
13321SOL    HW152022   3.760   3.136   0.913 -0.3564  2.4619  2.3928
13321SOL    HW252023   3.795   2.998   0.994 -2.1243  0.6309  0.1135
13322SOL     OW52024   5.140   4.342   2.485  0.5327 -0.3329 -0.0569
13322SOL    HW152025   5.167   4.434   2.516 -0.7938  0.8968 -2.3922
13322SOL    HW252026   5.218   4.280   2.492  2.2729  1.6702 -1.1121
13323SOL     OW52027   1.366   7.178   3.322  0.3440  0.4676  0.5648
13323SOL    HW152028   1.435   7.210   3.388 -0.5318  3.4383  0.0924
13323SOL    HW252029   1.396   7.200   3.229 -0.1401 -0.4520  0.1782
13324SOL     OW52030   1.783   9.199   4.974 -0.2047 -0.5212  0.4674
13324SOL    HW152031   1.714   9.228   5.041  0.1055 -0.9656  0.9802
13324SOL    HW252032   1.760   9.108   4.941 -0.4948 -0.1996 -0.2184
13325SOL     OW52033   7.542   0.285   3.297  0.1544  0.6425  0.1950
13325SOL    HW152034   7.505   0.250   3.211 -0.2667 -0.4371  0.8164
13325SOL    HW252035   7.528   0.384   3.301  0.0364  0.6734 -0.9102
13326SOL     OW52036   0.468   6.152   2.914 -0.0633  0.0549  0.5398
13326SOL    HW152037   0.451   6.209   2.834  1.3396  0.0992  0.2738
13326SOL    HW252038   0.499   6.209   2.990 -2.5639  0.1870  1.5110
13327SOL     OW52039   5.054   1.797   9.785 -0.0306 -0.5679 -0.2122
13327SOL    HW152040   5.044   1.716   9.844 -0.0699 -0.1354  0.3774
13327SOL    HW252041   5.101   1.771   9.701 -0.4509 -1.3045 -0.2282
13328SOL     OW52042   7.163   3.791   8.388 -0.2524 -0.2397 -0.4733
13328SOL    HW152043   7.165   3.750   8.297  0.2724 -0.3194 -0.4300
13328SOL    HW252044   7.134   3.723   8.455  2.8917 -1.2690 -0.0560
13329SOL     OW52045   5.005   4.142   2.129 -0.5061 -0.1198  0.1705
13329SOL    HW152046   4.988   4.240   2.140 -2.5920 -0.5437  0.9698
13329SOL    HW252047   5.042   4.105   2.214  0.5651  0.0166 -0.2283
13330SOL     OW52048   8.106   1.946   9.273  0.6602  0.2453 -0.0159
13330SOL    HW152049   8.205   1.958   9.265  0.6896  0.2208  0.2740
13330SOL    HW252050   8.077   1.974   9.365  0.2941  0.9076 -0.3324
13331SOL     OW52051   1.720   7.770   2.887 -0.1489 -0.0614  0.3990
13331SOL    HW152052   1.705   7.796   2.982 -0.7954 -1.0751  0.5843
13331SOL    HW252053   1.806   7.719   2.881  1.0121  1.8869  0.0691
13332SOL     OW52054   3.569   7.422   9.868  0.1272  0.2937 -0.1639
13332SOL    HW152055   3.628   7.468   9.801  0.4485  0.0162 -0.0753
13332SOL    HW252056   3.594   7.452   9.960 -0.4988  0.8834 -0.1821
13333SOL     OW52057   6.344   8.585   6.705  0.4521  0.7291 -0.4027
13333SOL    HW152058   6.371   8.490   6.691  2.5118  1.2697 -0.2803
13333SOL    HW252059   6.255   8.588   6.751  0.9526 -1.1483  0.7399
13334SOL     OW52060   2.629   6.750   5.271 -0.0726  0.6891 -0.1227
13334SOL    HW152061   2.559   6.819   5.290  0.5919  1.2400  0.3572
13334SOL    HW252062   2.586   6.669   5.230 -0.7891  1.5803 -1.1688
13335SOL     OW52063   8.996   6.686   6.082 -0.2629 -0.1411  0.1771
13335SOL    HW152064   9.020   6.611   6.021 -1.6784 -1.2200  0.9092
13335SOL    HW252065   8.934   6.749   6.035  0.8863  0.5500 -0.4212
13336SOL     OW52066   3.569   4.820   1.650  0.2296  0.0395 -0.3545
13336SOL    HW152067   3.651   4.775   1.615  0.8106  1.0701 -0.3205
13336SOL    HW252068   3.563   4.805   1.749  1.3040  1.4003 -0.0672
13337SOL     OW52069   6.731   7.823   4.889  0.4067  0.1199 -0.1634
13337SOL    HW152070   6.664   7.829   4.963 -1.2477  1.7603 -1.7379
13337SOL    HW252071   6.711   7.743   4.833 -1.2673  1.4460 -1.5360
13338SOL     OW52072   2.719   2.189   3.950 -0.3136 -0.0965 -0.5305
13338SOL    HW152073   2.758   2.097   3.944  0.4245  0.2647 -1.4083
13338SOL    HW252074   2.772   2.244   4.014  0.4299  0.2987 -1.4818
13339SOL     OW52075   6.637   2.220   0.661 -0.2573 -0.1513  0.0900
13339SOL    HW152076   6.675   2.159   0.731 -0.2577 -2.1611 -1.6300
13339SOL    HW252077   6.669   2.191   0.571 -2.8103  0.4480 -1.0390
13340SOL     OW52078   3.434   6.139   4.232  0.7367  0.0764 -0.3510
13340SOL    HW152079   3.493   6.059   4.239  0.0714 -0.3255  0.8320
13340SOL    HW252080   3.453   6.201   4.308 -1.5478 -0.8940  1.0921
13341SOL     OW52081   0.680   9.079   2.964 -0.3855  0.2220  0.0136
13341SOL    HW152082   0.707   9.175   2.961 -1.3918  0.5374  0.8395
13341SOL    HW252083   0.709   9.034   2.880  0.3075  1.1907 -0.2734
13342SOL     OW52084   3.587   4.063   3.297  0.2332 -0.5734  0.3048
13342SOL    HW152085   3.591   3.986   3.361  0.2162 -0.7110  0.1408
13342SOL    HW252086   3.492   4.088   3.280  0.2195 -0.8391 -0.0264
13343SOL     OW52087   3.180   4.148   8.033  0.0973  0.1177 -0.1535
13343SOL    HW152088   3.104   4.213   8.035 -0.0924 -0.0397 -1.5456
13343SOL    HW252089   3.254   4.183   8.090  0.9135  2.7794 -2.6910
13344SOL     OW52090   0.224   2.129   4.250  0.2997 -0.4055  0.4577
13344SOL    HW152091   0.194   2.203   4.310  0.5169  1.0589 -1.2072
13344SOL    HW252092   0.144   2.079   4.217 -0.1453  1.4580 -1.3831
13345SOL     OW52093   3.275   0.131   2.988 -0.3036  0.7583  0.2541
13345SOL    HW152094   3.196   0.107   3.044 -0.2895  2.1471  0.8963
13345SOL    HW252095   3.351   0.069   3.009 -1.0281 -0.1989  0.0738
13346SOL     OW52096   7.903   2.727   4.565 -0.9623 -0.2931 -0.4121
13346SOL    HW152097   7.813   2.684   4.572 -1.3825  0.6198 -0.1559
13346SOL    HW252098   7.892   2.825   4.553  0.0049  0.3527  3.4387
13347SOL     OW52099   2.878   1.234   3.865 -0.4664 -0.0471 -0.4366
13347SOL    HW152100   2.902   1.304   3.932  0.3679  0.1607 -0.9365
13347SOL    HW252101   2.787   1.198   3.884 -1.4229  2.0496 -0.8803
13348SOL     OW52102   9.347   8.974   5.071 -0.3299  0.5721 -0.6667
13348SOL    HW152103   9.333   8.918   5.153  0.0941 -2.2488 -2.4511
13348SOL    HW252104   9.397   8.921   5.003  0.5110  3.3401 -2.2716
13349SOL     OW52105   9.762   4.687   5.700 -1.1740 -0.0211 -0.3768
13349SOL    HW152106   9.803   4.766   5.746 -2.7489  0.1596  0.7768
13349SOL    HW252107   9.675   4.664   5.744 -0.3615 -2.9099 -0.1823
13350SOL     OW52108   5.101   3.336   4.034  0.3981  0.2307 -0.5565
13350SOL    HW152109   5.015   3.341   3.983 -0.1002  1.0431  0.3459
13350SOL    HW252110   5.130   3.240   4.042 -0.7325 -0.0939 -0.3383
13351SOL     OW52111   3.176   5.380   7.890  0.0273 -0.1351  0.2899
13351SOL    HW152112   3.167   5.472   7.928  0.8998 -0.0318  0.2616
13351SOL    HW252113   3.265   5.342   7.915  0.3851 -0.2836 -1.1731
13352SOL     OW52114   2.901   6.180   0.256  0.3408 -0.1680  0.4248
13352SOL    HW152115   2.885   6.188   0.354  1.6728  0.7733  0.5747
13352SOL    HW252116   2.928   6.268   0.219  1.7635 -0.9449 -0.4308
13353SOL     OW52117   5.933   5.525   9.025  0.5874 -0.3486  0.4093
13353SOL    HW152118   5.876   5.548   9.104 -1.1199 -0.0547 -0.8746
13353SOL    HW252119   5.964   5.609   8.980  0.3955 -0.5097 -0.0316
13354SOL     OW52120   4.569   7.477   5.816 -0.1313 -0.0653 -0.3521
13354SOL    HW152121   4.653   7.429   5.843 -0.2702 -0.5853 -0.8119
13354SOL    HW252122   4.567   7.486   5.716 -0.6542 -0.1157 -0.3486
13355SOL     OW52123   2.935   1.590   5.198  0.4830  0.3219 -0.0665
13355SOL    HW152124   2.887   1.636   5.273  0.9219  0.0777  0.3691
13355SOL    HW252125   2.877   1.517   5.161  0.3383  0.3234  0.1547
13356SOL     OW52126   1.414   6.998   8.056 -0.1316 -0.0235  0.4501
13356SOL    HW152127   1.353   7.059   8.107  0.7477  2.4229 -1.2957
13356SOL    HW252128   1.500   6.988   8.105 -0.4274 -0.1350  0.9395
13357SOL     OW52129   1.635   1.679   9.527 -0.0231  0.5807  0.3737
13357SOL    HW152130   1.542   1.682   9.493 -0.2411 -1.4115  0.7223
13357SOL    HW252131   1.662   1.584   9.543  1.7110  1.1857  1.2309
13358SOL     OW52132   7.870   5.397   5.882 -0.2779  0.6344  0.2250
13358SOL    HW152133   7.789   5.395   5.940 -0.7467  0.5588 -0.4263
13358SOL    HW252134   7.926   5.477   5.904 -0.6218  0.7852  0.5426
13359SOL     OW52135   6.913   1.828   2.570 -0.2227 -0.4763 -0.5967
13359SOL    HW152136   6.907   1.829   2.670  1.3893 -0.1059 -0.4831
13359SOL    HW252137   6.827   1.795   2.532 -1.8744  2.0696  0.8163
13360SOL     OW52138   5.898   2.405   3.971  0.1518  0.5669 -0.4231
13360SOL    HW152139   5.981   2.358   3.999 -0.1236 -1.4913 -2.9015
13360SOL    HW252140   5.922   2.485   3.916  0.5333 -1.1874 -2.9031
13361SOL     OW52141   9.284   0.830   4.566  0.4945  0.6786  0.3731
13361SOL    HW152142   9.339   0.862   4.643  0.7624 -0.6003  0.7279
13361SOL    HW252143   9.338   0.766   4.511 -0.5799 -0.5053  0.6665
13362SOL     OW52144   9.805   6.944   3.020 -0.3882  0.2016 -0.0316
13362SOL    HW152145   9.892   6.992   3.005 -1.4978  2.0145 -0.7423
13362SOL    HW252146   9.813   6.887   3.102  1.4652  0.3672 -0.0642
13363SOL     OW52147   6.244   4.891   0.234 -0.6917 -0.3795 -0.0530
13363SOL    HW152148   6.296   4.948   0.170 -0.1028 -2.7134 -1.7410
13363SOL    HW252149   6.293   4.884   0.321  1.3733 -1.7172 -1.2765
13364SOL     OW52150   6.666   7.493   0.728  0.0992 -0.4213 -0.1355
13364SOL    HW152151   6.615   7.408   0.718  0.3005 -0.5858  0.2182
13364SOL    HW252152   6.667   7.520   0.825  0.2252 -0.1353 -0.2149
13365SOL     OW52153   3.539   9.229   1.925  0.0366  0.4893  0.2199
13365SOL    HW152154   3.612   9.286   1.963  0.8734  0.2880 -1.0491
13365SOL    HW252155   3.505   9.167   1.996  1.4752  0.2137  0.6872
13366SOL     OW52156   7.791   8.934   7.456 -0.1037  0.2501 -0.6337
13366SOL    HW152157   7.699   8.963   7.481  0.0994  0.1512  0.2464
13366SOL    HW252158   7.786   8.859   7.391 -0.6702 -1.1990  1.0527
13367SOL     OW52159   1.049   1.355   4.241  0.2086  0.3565 -0.2449
13367SOL    HW152160   1.147   1.360   4.222  0.4485 -1.1952  0.4815
13367SOL    HW252161   1.007   1.286   4.182  0.0236 -0.7740  1.1812
13368SOL     OW52162   1.133   2.450   9.219  0.2985 -0.5107  0.0017
13368SOL    HW152163   1.173   2.466   9.129  0.7080 -0.7371  0.1433
13368SOL    HW252164   1.033   2.450   9.212  0.3302 -0.4713 -0.4396
13369SOL     OW52165   7.153   2.455   3.248  0.1904 -0.0570  0.3458
13369SOL    HW152166   7.231   2.393   3.248 -0.9095 -1.4946  1.2031
13369SOL    HW252167   7.124   2.472   3.342  1.3180  2.9023  0.2143
13370SOL     OW52168   5.761   6.521   1.965  0.1635 -0.0778  0.1730
13370SOL    HW152169   5.715   6.601   2.003 -0.8304 -1.7719  2.7283
13370SOL    HW252170   5.692   6.459   1.927  0.8729  0.0022 -1.2717
13371SOL     OW52171   9.134   7.079   2.714  0.8616 -0.4973 -0.0559
13371SOL    HW152172   9.119   6.982   2.728 -0.3351 -0.0890  1.6441
13371SOL    HW252173   9.231   7.097   2.700  1.5513 -1.4966  3.2172
13372SOL     OW52174   2.511   3.589   8.591 -0.0128 -0.5547 -0.0057
13372SOL    HW152175   2.421   3.545   8.597  0.3112 -1.2396 -0.1882
13372SOL    HW252176   2.583   3.521   8.604  0.4598  0.4947  3.3154
13373SOL     OW52177   7.137   0.716   9.448  0.2364 -0.4602 -0.6211
13373SOL    HW152178   7.187   0.775   9.384 -3.7387  3.2641 -0.4802
13373SOL    HW252179   7.045   0.699   9.412 -0.1484 -3.0007  1.4713
13374SOL     OW52180   5.518   4.487   3.297  0.4319  0.5349  0.2437
13374SOL    HW152181   5.465   4.413   3.339 -0.6138  0.8092 -0.5776
13374SOL    HW252182   5.605   4.497   3.345  0.8456 -1.6428 -0.0070
13375SOL     OW52183   8.563   0.078   7.923  0.3461  0.1164 -0.1609
13375SOL    HW152184   8.646   0.053   7.872 -0.2594  2.0492 -2.1324
13375SOL    HW252185   8.483   0.072   7.863 -0.7994 -0.5797  1.4094
13376SOL     OW52186   8.878   2.528   5.538 -0.0298 -0.0599 -0.0474
13376SOL    HW152187   8.941   2.482   5.475 -0.8387 -0.1111 -0.8276
13376SOL    HW252188   8.899   2.501   5.632  1.5943  0.5003 -0.2322
13377SOL     OW52189   2.098   2.645   6.448  0.3823  0.3100  0.1984
13377SOL    HW152190   2.096   2.643   6.548  0.2292 -2.6335  0.1874
13377SOL    HW252191   2.005   2.638   6.413  0.5618 -0.2403 -0.1597
13378SOL     OW52192   3.405   8.391   3.619 -0.0553  0.4383 -0.1577
13378SOL    HW152193   3.474   8.424   3.555  0.2584  0.3607  0.1413
13378SOL    HW252194   3.361   8.310   3.582 -0.5209  0.9272 -0.6964
13379SOL     OW52195   5.356   5.513   8.552 -0.0760 -0.3225 -0.7349
13379SOL    HW152196   5.310   5.572   8.486  0.2208 -1.4597 -1.9775
13379SOL    HW252197   5.300   5.504   8.634 -0.7723  0.5562 -1.1112
13380SOL     OW52198   3.522   2.927   4.945  0.0577 -0.1355 -0.5886
13380SOL    HW152199   3.563   2.927   5.036  0.5424  1.8138 -0.7827
13380SOL    HW252200   3.554   2.847   4.894  2.2712  0.4100 -0.1175
13381SOL     OW52201   8.086   2.503   4.559  0.4855  0.1055 -0.1181
13381SOL    HW152202   8.136   2.535   4.478  0.8848  1.8183  0.7978
13381SOL    HW252203   8.009   2.563   4.576 -0.0249 -0.6805  0.3596
13382SOL     OW52204   4.457   2.241   7.779 -0.4147 -0.5256 -0.3796
13382SOL    HW152205   4.423   2.329   7.813  1.3034  0.7638 -1.8922
13382SOL    HW252206   4.411   2.219   7.693  2.8049  1.5180 -2.7491
13383SOL     OW52207   2.422   9.575   3.778 -0.2996 -0.0832 -0.2336
13383SOL    HW152208   2.367   9.556   3.860 -2.3402 -2.9416 -2.1868
13383SOL    HW252209   2.516   9.546   3.794 -0.4648  0.2061  1.3998
13384SOL     OW52210   2.439   7.131   3.911  0.3081 -0.0718  0.0857
13384SOL    HW152211   2.448   7.086   3.823 -0.2580 -1.7963  0.8807
13384SOL    HW252212   2.519   7.188   3.929  0.9400 -0.6134 -1.0275
13385SOL     OW52213   4.827   3.063   1.785 -0.2558  0.3361  0.1190
13385SOL    HW152214   4.751   3.040   1.846 -0.0281 -1.6817 -0.3206
13385SOL    HW252215   4.823   3.005   1.703  1.4542  0.5663 -0.1491
13386SOL     OW52216   2.833   9.637   2.023  0.1776  0.2672 -0.5579
13386SOL    HW152217   2.767   9.567   1.996  0.4343 -0.4118  0.5502
13386SOL    HW252218   2.856   9.626   2.119  1.8464  0.5469 -0.9113
13387SOL     OW52219   4.371   6.772   2.644  0.1221  0.0185  0.4829
13387SOL    HW152220   4.380   6.739   2.738  2.2669  0.4871  0.4672
13387SOL    HW252221   4.461   6.778   2.602 -0.9125 -1.3581 -2.0356
13388SOL     OW52222   8.784   4.660   4.067 -0.3923 -0.3133 -0.1098
13388SOL    HW152223   8.810   4.688   3.975 -0.2803 -1.0948 -0.3159
13388SOL    HW252224   8.773   4.741   4.125  1.1187  0.0962 -0.3838
13389SOL     OW52225   1.314   2.543   5.186 -0.5706 -0.3152 -0.2378
13389SOL    HW152226   1.259   2.522   5.267 -0.3752  0.6480  0.1474
13389SOL    HW252227   1.327   2.459   5.132 -0.5299 -1.0057  0.8236
13390SOL     OW52228   5.406   7.575   5.358 -0.0390  0.0275 -0.5350
13390SOL    HW152229   5.481   7.534   5.409 -0.8259 -1.4724 -0.5513
13390SOL    HW252230   5.328   7.512   5.356  0.2377 -0.3235 -4.2749
13391SOL     OW52231   6.875   6.345   5.956  0.0821 -0.5193  0.2729
13391SOL    HW152232   6.805   6.315   6.021  1.1647 -0.7491  1.3382
13391SOL    HW252233   6.861   6.297   5.869 -1.1462 -0.4873  0.4403
13392SOL     OW52234   8.004   1.852   3.482 -0.0623  0.0964 -0.4294
13392SOL    HW152235   8.097   1.847   3.445 -1.2852 -2.4682 -3.4525
13392SOL    HW252236   7.982   1.767   3.529 -1.4532 -0.0536 -1.3094
13393SOL     OW52237   4.548   4.884   7.994 -0.0206  0.4100  0.3362
13393SOL    HW152238   4.534   4.883   8.093 -1.3388  1.1024  0.1613
13393SOL    HW252239   4.526   4.974   7.957  0.7924  0.2578 -0.5427
13394SOL     OW52240   4.098   2.237   5.754  0.0208  0.1880  0.2684
13394SOL    HW152241   4.083   2.239   5.655 -1.2285  2.3318  0.4707
13394SOL    HW252242   4.186   2.280   5.776 -0.1947  0.6915  0.1579
13395SOL     OW52243   7.009   3.305   3.736 -0.7559 -0.0904 -0.1534
13395SOL    HW152244   6.915   3.305   3.701 -1.4508  3.7227  1.4808
13395SOL    HW252245   7.072   3.335   3.665 -1.1578  0.1605 -0.4016
13396SOL     OW52246   4.688   4.829   7.744  0.4047 -0.0824 -0.4228
13396SOL    HW152247   4.656   4.819   7.838  1.3826  0.5422 -0.0086
13396SOL    HW252248   4.673   4.744   7.694  0.0725 -0.4890  0.3593
13397SOL     OW52249   7.069   5.319   7.792  0.0750  0.1754  0.9747
13397SOL    HW152250   6.996   5.378   7.825 -1.8651 -1.6307 -0.0159
13397SOL    HW252251   7.059   5.302   7.694  0.7366 -1.5848  1.1827
13398SOL     OW52252   5.855   8.962   5.362 -0.0322 -0.4089 -0.5427
13398SOL    HW152253   5.842   9.061   5.366  0.3910 -0.4171  1.4197
13398SOL    HW252254   5.862   8.933   5.266  2.1721  1.7601 -1.0893
13399SOL     OW52255   7.635   6.991   3.095 -0.0107 -0.6905  0.2795
13399SOL    HW152256   7.734   6.996   3.083 -0.0397 -1.1476 -0.1792
13399SOL    HW252257   7.612   6.921   3.162 -0.0375 -0.7519  0.2059
13400SOL     OW52258   2.394   4.871   8.255 -0.3368  0.2514 -0.0073
13400SOL    HW152259   2.459   4.810   8.210  0.2886  1.6905 -1.0939
13400SOL    HW252260   2.433   4.906   8.340 -0.4451 -0.3573  0.2940
13401SOL     OW52261   4.326   3.865   2.698 -0.0475 -0.0286 -0.1762
13401SOL    HW152262   4.378   3.845   2.615 -0.1351 -0.2783 -0.1713
13401SOL    HW252263   4.247   3.921   2.674  0.4963  0.7669 -0.1104
13402SOL     OW52264   0.882   1.094   3.357  0.1672  0.3761 -0.1815
13402SOL    HW152265   0.844   1.176   3.399  1.6003  0.8648  0.1890
13402SOL    HW252266   0.964   1.118   3.306  0.8150 -0.8823  0.2481
13403SOL     OW52267   6.541   6.735   3.571  0.3145 -0.3397  0.2886
13403SOL    HW152268   6.501   6.720   3.481  0.1320 -0.3369  0.3695
13403SOL    HW252269   6.640   6.749   3.562  0.4502 -1.3487  0.1986
13404SOL     OW52270   4.186   6.160   1.772 -0.1537 -0.4930  0.1966
13404SOL    HW152271   4.238   6.093   1.825  1.7279  2.9506  2.9424
13404SOL    HW252272   4.250   6.219   1.722 -1.5877  1.0818  0.1847
13405SOL     OW52273   3.145   5.440   1.455  0.9108 -0.1167 -0.4365
13405SOL    HW152274   3.157   5.461   1.358  2.0360 -1.9577 -0.7167
13405SOL    HW252275   3.230   5.402   1.491 -0.1286 -1.3491  0.7542
13406SOL     OW52276   7.137   4.782   2.012  0.1678 -0.0303  0.2416
13406SOL    HW152277   7.079   4.720   2.066  0.1788 -1.5613 -1.4421
13406SOL    HW252278   7.228   4.743   2.003  0.1345  0.1335 -0.9625
13407SOL     OW52279   3.447   3.282   5.510 -0.0349  0.5673  0.0546
13407SOL    HW152280   3.414   3.241   5.594  2.7961 -1.2345  0.3258
13407SOL    HW252281   3.541   3.313   5.521  0.8143 -0.7926 -2.7815
13408SOL     OW52282   7.039   9.973   4.956 -0.4939 -0.6967  0.8099
13408SOL    HW152283   6.983   9.928   5.026 -2.2780 -1.0420 -0.7969
13408SOL    HW252284   7.030   9.923   4.870 -0.4808  1.3053 -0.3665
13409SOL     OW52285   3.869   4.722   2.967  0.1776  0.0678  0.1252
13409SOL    HW152286   3.862   4.645   3.031 -2.4822 -0.1593 -0.3986
13409SOL    HW252287   3.854   4.807   3.016  0.4756  0.0716  0.2139
13410SOL     OW52288   8.386   8.743   8.518  0.1768  0.2667  0.1654
13410SOL    HW152289   8.291   8.772   8.514  0.3196  0.7344  0.1007
13410SOL    HW252290   8.424   8.740   8.425 -0.3528 -1.8881 -0.0133
13411SOL     OW52291   3.566   5.882   3.417  0.3838  0.0671  0.8289
13411SOL    HW152292   3.625   5.962   3.424  0.3452  0.1153  0.5968
13411SOL    HW252293   3.585   5.834   3.332  0.1020  0.0700  0.7645
13412SOL     OW52294   6.943   5.436   1.541 -0.0363  0.2925 -0.2959
13412SOL    HW152295   6.986   5.362   1.593 -0.0049 -0.0278 -0.7724
13412SOL    HW252296   6.886   5.397   1.469 -0.0229  0.7327 -0.5447
13413SOL     OW52297   4.729   6.248   6.115 -0.3942 -0.1086 -0.6664
13413SOL    HW152298   4.781   6.253   6.200 -0.1038  0.0391 -0.8513
13413SOL    HW252299   4.741   6.332   6.063 -1.4760  0.2592 -0.3334
13414SOL     OW52300   8.568   1.326   4.637 -0.9236 -0.3062 -0.0103
13414SOL    HW152301   8.649   1.360   4.686 -0.2321 -0.3536 -1.0956
13414SOL    HW252302   8.528   1.250   4.688  0.2286 -0.8505  0.1109
13415SOL     OW52303   7.587   9.849   4.266  0.2556  0.0005 -0.4009
13415SOL    HW152304   7.613   9.941   4.296  0.8171 -0.3530  0.2073
13415SOL    HW252305   7.574   9.790   4.346 -2.8186  0.2596 -0.6597
13416SOL     OW52306   4.840   1.562   2.020  0.4252 -0.3346 -0.7053
13416SOL    HW152307   4.940   1.558   2.027  0.3844 -0.3501 -0.1615
13416SOL    HW252308   4.803   1.470   2.024  0.1805 -0.1446  2.0620
13417SOL     OW52309   3.091   4.515   7.666 -0.3847 -0.0219 -0.5080
13417SOL    HW152310   3.140   4.440   7.621 -1.3217 -0.2335 -1.2029
13417SOL    HW252311   3.085   4.593   7.603 -1.4296 -0.2009 -0.6240
13418SOL     OW52312   6.692   3.172   6.685  0.5109  0.5682  0.2258
13418SOL    HW152313   6.781   3.141   6.653  0.3170 -0.6304  0.8398
13418SOL    HW252314   6.621   3.138   6.622  0.4225  0.9279  0.1311
13419SOL     OW52315   5.855   9.460   2.057  0.0614  0.0795 -0.5142
13419SOL    HW152316   5.879   9.469   1.960  1.8089 -2.5290 -0.3908
13419SOL    HW252317   5.757   9.474   2.068 -0.2424 -0.0184 -2.7370
13420SOL     OW52318   0.951   3.655   7.412 -0.1818 -0.1420 -0.4573
13420SOL    HW152319   0.877   3.599   7.376  1.4105 -2.2092 -0.6115
13420SOL    HW252320   0.957   3.643   7.511 -1.2345  1.5019 -0.1743
13421SOL     OW52321   8.820   0.992   3.260 -0.1389 -0.3876 -0.7446
13421SOL    HW152322   8.814   0.995   3.360 -1.0095 -0.1281 -0.8007
13421SOL    HW252323   8.805   0.899   3.229  0.1199 -0.4668 -0.6337
13422SOL     OW52324   7.343   4.124   2.042 -0.1458 -0.1221 -0.0102
13422SOL    HW152325   7.275   4.051   2.052 -0.9704  0.7037  0.4431
13422SOL    HW252326   7.423   4.103   2.099 -0.1742 -0.8985 -0.2421
13423SOL     OW52327   0.755   3.196   7.080  0.3402  0.3925 -0.3760
13423SOL    HW152328   0.662   3.182   7.047 -0.1245 -1.4508  1.6147
13423SOL    HW252329   0.764   3.289   7.116 -0.2470  1.1058 -2.0332
13424SOL     OW52330   3.189   5.455   7.010  0.2666  0.5278  0.1482
13424SOL    HW152331   3.285   5.425   7.013  0.5727  1.5490  0.5315
13424SOL    HW252332   3.184   5.549   6.979 -0.8234 -0.3794 -2.5857
13425SOL     OW52333   0.018   9.087   5.835  0.7671  0.1543  0.1702
13425SOL    HW152334   0.060   9.152   5.771  0.3165 -0.2420 -0.5341
13425SOL    HW252335  -0.064   9.127   5.875 -0.6351 -0.6813 -1.7511
13426SOL     OW52336   1.333   7.594   3.099 -0.1372 -0.5298 -0.4063
13426SOL    HW152337   1.341   7.694   3.106 -2.8223 -0.1877 -1.4622
13426SOL    HW252338   1.342   7.567   3.004  0.0433 -1.2642 -0.1834
13427SOL     OW52339   8.025   6.859   3.058  0.0099 -0.4532  0.3665
13427SOL    HW152340   8.071   6.774   3.082  0.3533 -0.5637 -0.6477
13427SOL    HW252341   8.033   6.874   2.959 -0.9856  0.2051  0.3834
13428SOL     OW52342   3.902   1.814   9.424  0.3845  0.0124  0.3927
13428SOL    HW152343   3.922   1.719   9.403  0.2746  0.2731 -0.8941
13428SOL    HW252344   3.987   1.867   9.421  0.5756 -0.1757  1.8929
13429SOL     OW52345   9.414   6.710   7.010  0.3198  0.1976  0.5477
13429SOL    HW152346   9.443   6.670   6.923  0.1846  0.3753  0.4213
13429SOL    HW252347   9.492   6.754   7.055  0.2828  0.5306  0.2852
13430SOL     OW52348   1.730   0.635   7.761 -0.2495  0.3191  0.2127
13430SOL    HW152349   1.824   0.640   7.796 -0.0149  0.1437 -0.3703
13430SOL    HW252350   1.691   0.546   7.785 -0.4273  0.5660  0.8450
13431SOL     OW52351   8.968   3.962   8.899 -0.3009 -0.3913 -0.1608
13431SOL    HW152352   9.012   4.022   8.966 -1.2067  0.6745 -0.4925
13431SOL    HW252353   9.032   3.891   8.870  0.5114 -0.0971  0.8870
13432SOL     OW52354   0.206   3.721   2.889  0.0180 -0.4418  0.2954
13432SOL    HW152355   0.288   3.676   2.925  0.5827  0.7932  0.5795
13432SOL    HW252356   0.164   3.663   2.820  1.4323 -0.8524 -0.2405
13433SOL     OW52357   3.208   0.841   0.339 -0.5304 -0.1640 -0.4485
13433SOL    HW152358   3.268   0.916   0.308 -0.5571  0.2325  0.4577
13433SOL    HW252359   3.259   0.756   0.339  0.0467  0.1811  0.3615
13434SOL     OW52360   4.290   5.950   8.348 -0.4497  0.5988  0.3249
13434SOL    HW152361   4.283   6.043   8.312  0.2356  0.4217 -0.2771
13434SOL    HW252362   4.362   5.946   8.418 -0.0291  0.3734 -0.1223
13435SOL     OW52363   3.643   1.329   4.923  0.0270  0.2385  0.4246
13435SOL    HW152364   3.715   1.260   4.918  0.0254  0.2043  0.9056
13435SOL    HW252365   3.558   1.292   4.885  0.1006  0.0722  0.4225
13436SOL     OW52366   8.398   2.219   3.709 -0.0006 -0.5887  0.2726
13436SOL    HW152367   8.431   2.248   3.620 -0.1166 -1.2382  0.0179
13436SOL    HW252368   8.471   2.229   3.777  0.2231 -0.5207  0.0224
13437SOL     OW52369   8.564   4.570   2.644 -0.2334  0.0053  0.1238
13437SOL    HW152370   8.509   4.627   2.706 -1.0518 -1.3973  0.7168
13437SOL    HW252371   8.605   4.495   2.696  3.0843  1.5552 -0.1031
13438SOL     OW52372   7.084   1.862   0.793 -0.1032  0.0389  0.1577
13438SOL    HW152373   7.029   1.826   0.717 -0.0952  0.2349  0.0601
13438SOL    HW252374   7.042   1.834   0.880 -0.5884  0.5377  0.0873
13439SOL     OW52375   0.062   2.362   1.902  0.1417  0.6384 -0.1750
13439SOL    HW152376  -0.029   2.382   1.864  0.9207  0.7344 -2.0556
13439SOL    HW252377   0.118   2.317   1.832  1.4632  0.3502  1.0531
13440SOL     OW52378   7.813   5.702   6.109 -0.5672  0.4256  0.1144
13440SOL    HW152379   7.817   5.697   6.009 -2.2634 -3.1085  0.1492
13440SOL    HW252380   7.895   5.659   6.147 -1.1081 -0.4978  0.2458
13441SOL     OW52381   2.416   6.191   8.550  0.3301 -0.1764 -0.0317
13441SOL    HW152382   2.367   6.111   8.514  1.7191 -0.6768 -0.8427
13441SOL    HW252383   2.350   6.252   8.594 -0.9524 -1.0932 -0.6122
13442SOL     OW52384   6.071   7.016   5.786  0.0756 -0.0105  0.4523
13442SOL    HW152385   6.029   6.993   5.874  0.7820  0.4747  0.9182
13442SOL    HW252386   6.132   6.941   5.758 -0.2056 -0.1974  0.3430
13443SOL     OW52387   6.894   9.974   6.123  0.5861  0.0445 -0.5075
13443SOL    HW152388   6.798   9.958   6.099  0.3368 -0.3857  0.7089
13443SOL    HW252389   6.929  10.051   6.071 -0.4641  0.2909 -0.8657
13444SOL     OW52390   4.402   8.351   0.519  0.0283  0.0559 -0.0105
13444SOL    HW152391   4.409   8.274   0.456  2.1762  0.5049 -0.3862
13444SOL    HW252392   4.368   8.432   0.470  1.6508  0.3932 -0.6123
13445SOL     OW52393   4.080   3.851   8.092  0.2611  0.3414  0.0342
13445SOL    HW152394   4.050   3.943   8.118  2.2609  0.5838  1.5529
13445SOL    HW252395   4.162   3.827   8.143 -1.3882 -3.1366  1.1766
13446SOL     OW52396   2.921   3.198   1.810  0.0349 -0.0535  0.2772
13446SOL    HW152397   2.897   3.156   1.898 -0.3309 -0.8236 -0.1865
13446SOL    HW252398   2.839   3.211   1.755  0.2978  0.1557 -0.0718
13447SOL     OW52399   6.938   2.801   4.637  0.0920  0.2690  0.2049
13447SOL    HW152400   6.844   2.795   4.671 -0.1231  2.6481  0.1274
13447SOL    HW252401   6.941   2.771   4.542 -0.6818  0.5947  0.0748
13448SOL     OW52402   1.707   4.093   4.293 -0.3377 -0.1084  0.1245
13448SOL    HW152403   1.720   4.004   4.251 -0.6140 -0.3181  0.4785
13448SOL    HW252404   1.639   4.145   4.241 -0.1762 -0.1024 -0.0820
13449SOL     OW52405   8.918   7.698   2.118 -0.0098 -0.0040  0.0390
13449SOL    HW152406   8.934   7.768   2.188 -0.1429  0.7598 -0.6956
13449SOL    HW252407   8.971   7.718   2.036 -0.9969 -0.0774 -0.6357
13450SOL     OW52408   6.673   2.736   5.884 -0.2292 -0.0742 -0.0090
13450SOL    HW152409   6.603   2.708   5.950 -0.0857 -0.4892 -0.0320
13450SOL    HW252410   6.742   2.664   5.876 -1.5260 -1.0645 -2.4385
13451SOL     OW52411   0.052   2.492   6.003  0.0626  0.3138 -0.1086
13451SOL    HW152412   0.115   2.530   6.069  0.3482 -0.9218  0.3488
13451SOL    HW252413   0.102   2.435   5.938  0.0795  3.0427 -2.6015
13452SOL     OW52414   3.804   8.844   6.295 -0.2617  0.3799  0.0441
13452SOL    HW152415   3.737   8.814   6.226 -0.5923  0.5236  0.3008
13452SOL    HW252416   3.881   8.781   6.296 -0.6314 -0.0725  0.1001
13453SOL     OW52417   7.723   3.561   2.746  0.2468 -0.0025 -0.1777
13453SOL    HW152418   7.731   3.642   2.804  0.3141 -1.0356  1.2961
13453SOL    HW252419   7.627   3.543   2.727  0.2052  0.1641 -0.1278
13454SOL     OW52420   4.785   3.499   6.364 -0.1982 -0.0779  0.0861
13454SOL    HW152421   4.855   3.570   6.359 -0.8268  0.4949 -0.7185
13454SOL    HW252422   4.732   3.510   6.448 -0.2534  0.3570 -0.0062
13455SOL     OW52423   8.363   0.830   3.996 -0.1749  0.2850 -0.2901
13455SOL    HW152424   8.433   0.772   3.955 -1.6214 -2.1486  0.5177
13455SOL    HW252425   8.384   0.846   4.092 -0.9456 -0.9185  0.1031
13456SOL     OW52426   9.096   4.762   4.852  0.6853 -0.4175 -0.2916
13456SOL    HW152427   9.129   4.668   4.865  1.8832 -0.0031 -0.3299
13456SOL    HW252428   9.026   4.782   4.920  1.6214 -0.7748  0.7812
13457SOL     OW52429   5.303   6.316   3.775  0.2548  0.0353 -0.3353
13457SOL    HW152430   5.246   6.379   3.828  1.0147 -0.3257  0.9325
13457SOL    HW252431   5.311   6.229   3.823  0.3564 -0.5655 -1.4066
13458SOL     OW52432   6.654   3.177   2.979  0.2826  0.3147  0.4098
13458SOL    HW152433   6.655   3.238   3.058 -1.3431  0.8879  0.0043
13458SOL    HW252434   6.651   3.231   2.895  1.0122 -0.3069 -0.0240
13459SOL     OW52435   3.508   4.751   6.169 -0.0698 -0.4869 -0.7723
13459SOL    HW152436   3.583   4.694   6.135  0.0326 -0.6818 -0.2106
13459SOL    HW252437   3.448   4.776   6.092  0.9893  0.3077 -1.3477
13460SOL     OW52438   6.608   4.203   3.335 -0.2488  0.2602 -0.2142
13460SOL    HW152439   6.554   4.120   3.343 -1.5203  1.1267  0.4339
13460SOL    HW252440   6.547   4.282   3.330  0.9666  1.2759  0.7438
13461SOL     OW52441   3.865   7.075   3.526  0.1738 -0.1751 -0.1561
13461SOL    HW152442   3.876   6.988   3.574 -0.4828 -0.0464  0.2322
13461SOL    HW252443   3.899   7.149   3.584 -0.2328 -0.0624 -0.0627
13462SOL     OW52444   5.465   4.590   5.368  0.4795 -0.0151  0.7363
13462SOL    HW152445   5.471   4.655   5.293  3.3902 -0.8690  0.1647
13462SOL    HW252446   5.374   4.548   5.370 -0.9089  2.8989  0.1786
13463SOL     OW52447   6.055   8.514   6.789 -0.1052  0.1963  0.8099
13463SOL    HW152448   6.035   8.596   6.843  0.1102  0.2263  0.8430
13463SOL    HW252449   6.021   8.527   6.695  1.2792  0.9225  0.3976
13464SOL     OW52450   2.646   3.876   7.212  0.2211  0.3123 -0.0498
13464SOL    HW152451   2.729   3.883   7.266  0.0435 -1.2806  0.4741
13464SOL    HW252452   2.578   3.821   7.262 -1.5813  2.5814  0.0616
13465SOL     OW52453   5.145   7.598   4.907  0.0957  0.1673  0.2088
13465SOL    HW152454   5.233   7.557   4.885  0.5925  0.5624  1.4247
13465SOL    HW252455   5.152   7.650   4.992 -0.1839  3.7689 -1.8537
13466SOL     OW52456   6.654   8.401   4.352 -0.2723  0.0177 -0.0474
13466SOL    HW152457   6.714   8.389   4.273 -1.4241  3.3663 -1.5300
13466SOL    HW252458   6.588   8.325   4.356  0.0345 -0.3822 -2.1080
13467SOL     OW52459   8.217   1.546   5.620 -0.2682  0.0121 -0.3269
13467SOL    HW152460   8.130   1.497   5.610  0.4852 -1.2964 -0.6000
13467SOL    HW252461   8.226   1.578   5.715 -0.7598 -0.4070 -0.1322
13468SOL     OW52462   4.180   6.837   3.822  0.1128  0.1989  0.3418
13468SOL    HW152463   4.137   6.750   3.799  0.4466  0.1772 -0.2151
13468SOL    HW252464   4.269   6.820   3.866  1.1978  0.2554 -1.7533
13469SOL     OW52465   5.958   1.541   4.935  0.0349 -0.7553  0.0908
13469SOL    HW152466   5.914   1.630   4.942 -0.7526 -1.0662 -0.8866
13469SOL    HW252467   6.056   1.551   4.951  0.0116  0.3431 -0.4578
13470SOL     OW52468   2.435   8.271   4.754  0.2018  0.4053 -0.0677
13470SOL    HW152469   2.509   8.293   4.690 -0.2104 -0.3448 -0.8217
13470SOL    HW252470   2.474   8.247   4.843  0.9931 -1.6614 -0.9303
13471SOL     OW52471   7.149   6.481   5.103 -0.0297  0.2040  0.0131
13471SOL    HW152472   7.083   6.415   5.069  0.1046  0.5139 -0.8576
13471SOL    HW252473   7.158   6.471   5.202 -1.0510 -0.1267  0.0774
13472SOL     OW52474   2.139   2.099   3.786  0.1537  0.3543  0.1109
13472SOL    HW152475   2.108   2.013   3.745 -1.3006  0.3686  1.1442
13472SOL    HW252476   2.144   2.089   3.885 -0.5810  1.6137  0.2936
13473SOL     OW52477   5.685   4.895   4.877  0.4036 -0.6587 -0.0067
13473SOL    HW152478   5.594   4.932   4.894  0.2008 -1.2688  0.2404
13473SOL    HW252479   5.678   4.808   4.828  0.8775 -0.4116 -0.5272
13474SOL     OW52480   3.013   4.129   4.487 -0.0537 -0.5282 -0.2645
13474SOL    HW152481   2.972   4.039   4.504  0.6240 -0.5778  1.1138
13474SOL    HW252482   3.027   4.176   4.574 -0.1779  0.8172 -0.9693
13475SOL     OW52483   1.361   2.838   2.463 -0.3208  0.4264  0.0902
13475SOL    HW152484   1.353   2.906   2.390  1.5844 -0.3744 -0.8983
13475SOL    HW252485   1.358   2.746   2.424 -1.5873 -0.0486  1.2825
13476SOL     OW52486   3.802   3.114   2.105 -0.0014  0.0166 -0.1300
13476SOL    HW152487   3.795   3.158   2.195  0.2900  1.5321 -0.8262
13476SOL    HW252488   3.711   3.097   2.069 -0.1294  0.4883 -0.0419
13477SOL     OW52489   2.475   2.950   3.143 -0.3906 -0.0380 -0.0378
13477SOL    HW152490   2.441   2.965   3.235 -1.6676 -1.6464 -0.2367
13477SOL    HW252491   2.526   2.864   3.140 -0.2467  0.0712 -0.8047
13478SOL     OW52492   4.303   4.418   2.426 -0.0558 -0.1781 -0.0586
13478SOL    HW152493   4.267   4.425   2.519  0.7439 -0.4681  0.2750
13478SOL    HW252494   4.401   4.437   2.427 -0.0122 -0.3474 -0.8217
13479SOL     OW52495   4.331   1.342   9.253  0.0629 -0.2805  0.2772
13479SOL    HW152496   4.326   1.321   9.155 -0.6314 -0.9408  0.4481
13479SOL    HW252497   4.344   1.440   9.265  0.0081 -0.1769 -0.4777
13480SOL     OW52498   5.876   5.754   6.409 -0.5275  0.1070  0.1558
13480SOL    HW152499   5.875   5.765   6.509  0.2182  0.7424  0.1027
13480SOL    HW252500   5.823   5.674   6.384  0.4892 -0.9063  1.1758
13481SOL     OW52501   6.615   9.973   0.897 -0.5130 -0.0104 -0.1101
13481SOL    HW152502   6.623   9.936   0.804 -1.3559 -3.2315  1.0444
13481SOL    HW252503   6.701  10.018   0.922  0.5463 -1.1774 -1.5876
13482SOL     OW52504   7.191   4.556   1.665  0.6181  0.1382  0.2934
13482SOL    HW152505   7.283   4.530   1.693  1.0366  0.6487 -0.5475
13482SOL    HW252506   7.175   4.525   1.571  0.4221  1.1851 -0.0318
13483SOL     OW52507   1.197   5.733   5.418 -0.2272  0.2709 -0.1087
13483SOL    HW152508   1.214   5.680   5.502  0.7104  1.2681  0.3472
13483SOL    HW252509   1.239   5.686   5.340  0.4913  0.2720  0.2718
13484SOL     OW52510   2.803   4.681   0.995  0.1834  0.0677 -0.0045
13484SOL    HW152511   2.713   4.680   1.039  0.7610  1.3151  1.2479
13484SOL    HW252512   2.835   4.775   0.989  1.7549 -0.4420  0.2762
13485SOL     OW52513   7.015   3.314   4.028  0.8864  0.7511  0.3950
13485SOL    HW152514   7.046   3.393   4.081  1.4749  0.1592  0.9421
13485SOL    HW252515   7.007   3.340   3.932 -2.2254  2.4173  1.0496
13486SOL     OW52516   6.775   7.798   7.447  0.2077  0.0197  0.1494
13486SOL    HW152517   6.837   7.812   7.524  2.3125  0.9989 -1.6692
13486SOL    HW252518   6.767   7.700   7.428  1.3271 -0.1137  0.3067
13487SOL     OW52519   5.525   5.521   8.167  0.0275  0.0598 -0.4455
13487SOL    HW152520   5.475   5.605   8.189  0.9037  0.2705  0.7768
13487SOL    HW252521   5.601   5.542   8.106  0.5176  0.2291  0.2199
13488SOL     OW52522   2.516   5.594   4.663 -0.1009  0.2247  0.6088
13488SOL    HW152523   2.500   5.692   4.661 -0.1097  0.2175  0.1050
13488SOL    HW252524   2.594   5.572   4.605 -0.6839 -0.1651 -0.0506
13489SOL     OW52525   0.947   8.521   2.248 -0.5307  0.3301 -0.4197
13489SOL    HW152526   0.867   8.574   2.278  0.5930  0.6783  2.1185
13489SOL    HW252527   0.938   8.427   2.280 -0.4895  0.0680 -1.1824
13490SOL     OW52528   3.535   5.369   5.966  0.3036  0.3219 -0.5837
13490SOL    HW152529   3.575   5.390   6.055  0.5104  0.5831 -0.7387
13490SOL    HW252530   3.476   5.444   5.938  1.3907  0.8954 -1.3404
13491SOL     OW52531   4.159   3.850   0.641  0.0026  0.2575 -0.2210
13491SOL    HW152532   4.075   3.904   0.657  1.1606  1.7380  1.0625
13491SOL    HW252533   4.235   3.912   0.622  1.1403 -1.0003  0.1808
13492SOL     OW52534   3.963   7.604   9.515 -0.1466 -0.0067 -0.0411
13492SOL    HW152535   3.994   7.638   9.427  1.2495  0.3204  0.5644
13492SOL    HW252536   4.042   7.576   9.570 -0.9406  0.6754  1.4683
13493SOL     OW52537   1.548   6.551   4.977  0.2081 -0.0521  0.3772
13493SOL    HW152538   1.589   6.477   4.924  0.6124  0.4150  0.0384
13493SOL    HW252539   1.619   6.610   5.013 -0.1632  0.8204 -0.2957
13494SOL     OW52540   1.608   5.581   4.211 -0.4056  0.3862 -0.3862
13494SOL    HW152541   1.569   5.631   4.134 -0.0060 -0.0391 -0.8640
13494SOL    HW252542   1.555   5.497   4.226  0.8098 -0.5800 -1.5298
13495SOL     OW52543   6.391   4.507   6.580 -0.0960  0.0436  0.0382
13495SOL    HW152544   6.454   4.499   6.503  0.0302 -1.9774  0.3302
13495SOL    HW252545   6.362   4.602   6.589  2.9663  1.0491 -0.0442
13496SOL     OW52546   8.601   6.713   3.195  0.2753 -0.0372  0.5349
13496SOL    HW152547   8.503   6.695   3.201  0.4783 -0.7140  2.0355
13496SOL    HW252548   8.622   6.803   3.233  0.3222 -0.1902  0.8730
13497SOL     OW52549   0.978   3.846   8.687  0.3211 -0.0936 -0.1340
13497SOL    HW152550   1.044   3.778   8.654  0.3042  0.2172 -0.8220
13497SOL    HW252551   1.000   3.871   8.782  0.9138 -0.3356 -0.2050
13498SOL     OW52552   0.348   3.716   6.037  0.6449 -0.1881 -0.2189
13498SOL    HW152553   0.312   3.750   5.951  0.4571 -2.8450 -1.2259
13498SOL    HW252554   0.292   3.641   6.070  1.8906 -0.5397  1.1781
13499SOL     OW52555   2.050   7.302   2.572 -0.2662  0.1365 -0.3464
13499SOL    HW152556   2.015   7.209   2.586 -2.9280  1.0581 -0.4283
13499SOL    HW252557   2.101   7.307   2.487 -1.2987 -0.9528 -1.0454
13500SOL     OW52558   5.821   7.564   0.373  0.7387  0.0915  0.5950
13500SOL    HW152559   5.867   7.634   0.319  1.0086 -0.0723  0.6136
13500SOL    HW252560   5.733   7.541   0.331  0.1021  1.3087  1.2385
13501SOL     OW52561   6.426   8.376   5.534 -0.0088 -0.4694  0.0721
13501SOL    HW152562   6.376   8.444   5.587 -1.1975 -1.4850  0.2723
13501SOL    HW252563   6.387   8.371   5.442  0.4449 -0.4801 -0.1214
13502SOL     OW52564   4.644   0.839   1.241 -0.2549 -0.0131 -0.0536
13502SOL    HW152565   4.638   0.885   1.329  0.9166 -0.5242  0.3084
13502SOL    HW252566   4.574   0.875   1.179 -1.0333  0.3935  1.0543
13503SOL     OW52567   2.311   8.418   3.848  0.2721  0.2719 -0.2141
13503SOL    HW152568   2.266   8.331   3.866 -0.5676  0.5599 -0.8775
13503SOL    HW252569   2.299   8.479   3.927  0.6691 -0.1354  0.1579
13504SOL     OW52570   3.447   3.202   7.615  0.1082  0.6243 -0.5292
13504SOL    HW152571   3.362   3.226   7.569 -0.3130 -0.3723 -0.2882
13504SOL    HW252572   3.524   3.215   7.553 -0.4526 -0.6948 -1.5035
13505SOL     OW52573   2.505   1.268   2.539  0.3217 -0.2923 -0.6138
13505SOL    HW152574   2.509   1.194   2.471  0.8541 -1.0923  0.2755
13505SOL    HW252575   2.582   1.260   2.602 -0.0982  0.5069  0.0133
13506SOL     OW52576   5.377   5.579   6.601  0.0773  0.7138  0.0825
13506SOL    HW152577   5.420   5.665   6.627  0.6570 -0.1051  1.9265
13506SOL    HW252578   5.335   5.537   6.682 -0.3041 -0.6710 -0.8165
13507SOL     OW52579   0.199   4.183   7.011 -0.2609 -0.1404  0.2910
13507SOL    HW152580   0.126   4.232   6.963 -0.1112  0.8499  1.0834
13507SOL    HW252581   0.287   4.225   6.990 -0.2077  0.3891  1.5438
13508SOL     OW52582   2.499   6.468   5.452 -0.6612  0.6660  0.2190
13508SOL    HW152583   2.479   6.507   5.362 -1.6237  0.3141  0.2734
13508SOL    HW252584   2.417   6.475   5.510 -1.1167 -2.1246 -0.0341
13509SOL     OW52585   6.397   6.672   2.167  1.1358 -0.0308 -0.0500
13509SOL    HW152586   6.479   6.687   2.111  0.8891 -0.5986 -0.5669
13509SOL    HW252587   6.315   6.687   2.111  0.8868 -0.4915  0.1929
13510SOL     OW52588   6.439   1.587   9.561 -0.4117  0.6533 -0.0525
13510SOL    HW152589   6.491   1.588   9.476  1.1526 -3.8917  0.7266
13510SOL    HW252590   6.468   1.664   9.618  0.7365  1.9527 -2.3046
13511SOL     OW52591   7.782   8.279   7.761  0.6455  0.2612  0.3657
13511SOL    HW152592   7.836   8.222   7.700  1.9004  0.3606  1.3519
13511SOL    HW252593   7.713   8.329   7.709 -0.6028 -2.3002 -0.4751
13512SOL     OW52594   2.211   8.241   4.554  0.6543 -0.0563  0.5358
13512SOL    HW152595   2.292   8.265   4.606  0.7308  0.7483  0.0598
13512SOL    HW252596   2.161   8.324   4.530 -0.2388 -0.5340  0.7152
13513SOL     OW52597   9.033   4.793   2.346 -0.1395 -0.2141  0.3685
13513SOL    HW152598   9.010   4.881   2.304 -1.2354  0.4551  2.2701
13513SOL    HW252599   8.959   4.766   2.408  2.0687 -0.4061  3.0018
13514SOL     OW52600   9.274   5.755   4.036 -0.2919  0.2820  0.2817
13514SOL    HW152601   9.322   5.707   3.964 -2.1197 -0.8540 -0.2212
13514SOL    HW252602   9.278   5.854   4.020  1.8062  0.1992  0.2576
13515SOL     OW52603   7.684   0.546   6.468  0.0573 -0.1834  0.2179
13515SOL    HW152604   7.741   0.575   6.546  1.5281  1.2122 -1.3403
13515SOL    HW252605   7.722   0.463   6.428  1.2942  0.9948 -1.0970
13516SOL     OW52606   4.860   2.176   0.013  0.0695 -0.2871 -0.0829
13516SOL    HW152607   4.801   2.229  -0.048 -0.2862  0.4679  0.9004
13516SOL    HW252608   4.956   2.197  -0.007 -0.0089 -0.9323 -1.1649
13517SOL     OW52609   3.052   3.400   5.224 -0.4719  0.9985 -0.5171
13517SOL    HW152610   3.110   3.398   5.306 -0.3638 -0.0937 -0.6160
13517SOL    HW252611   2.959   3.376   5.248  0.0756 -1.8678 -1.1135
13518SOL     OW52612   3.398   5.827   1.137 -0.4140  0.7139 -0.2652
13518SOL    HW152613   3.478   5.777   1.104 -0.1740  1.8055 -1.3655
13518SOL    HW252614   3.388   5.812   1.235  1.3281  0.8200 -0.0563
13519SOL     OW52615   0.215   6.075   7.958 -0.0215  0.4220 -0.0927
13519SOL    HW152616   0.185   5.983   7.981  0.8649  0.5061  1.5141
13519SOL    HW252617   0.176   6.103   7.870 -1.2249 -1.0283 -0.0273
13520SOL     OW52618   6.890   7.190   6.022  0.3994  0.2022  0.1981
13520SOL    HW152619   6.864   7.189   6.118 -2.1215  0.1919 -0.4292
13520SOL    HW252620   6.922   7.099   5.995  1.9288  0.4275  1.2171
13521SOL     OW52621   6.955   3.554   6.033 -0.0839 -0.8461  0.1107
13521SOL    HW152622   6.911   3.612   6.101 -0.5949 -0.5085 -0.4999
13521SOL    HW252623   6.988   3.610   5.958  1.7077 -1.0608  0.7233
13522SOL     OW52624   4.838   6.273   2.799 -0.1432 -0.5229  0.5365
13522SOL    HW152625   4.803   6.366   2.816 -0.2374 -0.4964  0.2103
13522SOL    HW252626   4.761   6.210   2.794 -0.2432 -0.2986 -1.2439
13523SOL     OW52627   4.233   8.589   6.391  0.2390 -0.4815  0.5489
13523SOL    HW152628   4.188   8.525   6.453  0.2236 -1.0713 -0.0632
13523SOL    HW252629   4.176   8.671   6.380 -0.9928 -1.4933 -0.7199
13524SOL     OW52630   0.026   0.546   9.169 -0.0588 -0.4313  0.1461
13524SOL    HW152631   0.035   0.578   9.075 -0.5969 -0.7074 -0.0013
13524SOL    HW252632  -0.018   0.456   9.170  0.4523 -0.6855  0.6284
13525SOL     OW52633   1.762   4.088   5.346  0.4580 -0.1514  0.4774
13525SOL    HW152634   1.843   4.140   5.372  0.0452 -0.2562  1.9794
13525SOL    HW252635   1.783   4.031   5.266  1.6893  0.2433  0.5206
13526SOL     OW52636   3.942   2.565   5.634 -0.1571 -0.5342 -0.5185
13526SOL    HW152637   3.938   2.656   5.592  1.1013 -0.0569  0.3487
13526SOL    HW252638   3.883   2.563   5.715  0.9205 -0.0247  0.2930
13527SOL     OW52639   9.622   9.098   2.997  0.0147 -0.0803  0.0134
13527SOL    HW152640   9.651   9.184   2.956 -0.3910  0.3398  0.6047
13527SOL    HW252641   9.522   9.099   3.010 -0.0414 -0.8002 -0.3638
13528SOL     OW52642   7.672   5.080   6.546  0.2718  0.5718  0.2803
13528SOL    HW152643   7.714   4.991   6.531  0.1717  0.5137  0.3376
13528SOL    HW252644   7.657   5.093   6.644  2.7141  1.7770  0.5109
13529SOL     OW52645   6.468   0.443   5.277 -0.1136  0.1986 -0.4251
13529SOL    HW152646   6.461   0.381   5.355 -0.0676  0.8974  0.1357
13529SOL    HW252647   6.563   0.444   5.243 -0.2140 -0.3893 -0.7284
13530SOL     OW52648   4.346   6.766   9.584  0.1016  0.0521  0.0921
13530SOL    HW152649   4.358   6.840   9.649 -0.1510  1.2623 -1.2268
13530SOL    HW252650   4.334   6.680   9.633  0.3275  0.8896  1.6257
13531SOL     OW52651   2.083   6.611   9.154 -0.4685 -0.5497 -0.3320
13531SOL    HW152652   2.005   6.659   9.114  0.3516  0.8689 -0.2713
13531SOL    HW252653   2.120   6.546   9.088 -0.4191  0.2678 -1.1076
13532SOL     OW52654   3.071   5.086   6.750  0.2261 -0.4861 -0.2541
13532SOL    HW152655   3.022   5.157   6.700  0.4053  0.6677  1.1808
13532SOL    HW252656   3.024   4.998   6.738 -1.5032  0.3697  0.1228
13533SOL     OW52657   1.155   4.390   7.338 -0.1200  0.1724  0.0902
13533SOL    HW152658   1.131   4.466   7.278  1.6237  1.4381  0.9324
13533SOL    HW252659   1.238   4.346   7.305  0.4861  0.4697  1.2106
13534SOL     OW52660   2.715   4.645   7.181 -0.1711 -0.3587  0.0498
13534SOL    HW152661   2.643   4.622   7.246 -1.0496  1.4030 -0.2692
13534SOL    HW252662   2.792   4.686   7.229  0.5938 -2.1220  0.3733
13535SOL     OW52663   8.485   2.228   4.493 -0.3403 -0.4895 -0.2909
13535SOL    HW152664   8.534   2.140   4.492  0.0520 -0.3500  2.4445
13535SOL    HW252665   8.389   2.213   4.467 -0.2131 -1.6818 -0.1106
13536SOL     OW52666   2.779   3.637   1.082  0.3800  0.4290  0.2264
13536SOL    HW152667   2.727   3.566   1.033  2.9261 -0.7899 -0.7843
13536SOL    HW252668   2.745   3.727   1.055  0.1110 -0.2892 -1.9577
13537SOL     OW52669   8.032   5.529   6.490 -0.3587 -0.1466 -0.4938
13537SOL    HW152670   8.024   5.461   6.417 -0.1312 -0.7370  0.0223
13537SOL    HW252671   8.033   5.621   6.451  0.2912 -0.4816 -1.2757
13538SOL     OW52672   6.826   4.889   1.997  0.1086 -0.2867  0.0724
13538SOL    HW152673   6.905   4.834   2.024 -0.6596 -0.2978  2.4850
13538SOL    HW252674   6.843   4.985   2.022 -1.0061 -0.4456  1.4785
13539SOL     OW52675   3.922   5.377   5.078  0.8049  0.4076  0.0660
13539SOL    HW152676   3.956   5.409   4.990  2.1074  2.4533  1.2414
13539SOL    HW252677   3.969   5.292   5.103  1.7278  0.7542 -0.4472
13540SOL     OW52678   8.066   4.626   3.161  0.0242  0.1929 -0.4177
13540SOL    HW152679   7.975   4.664   3.147  0.1386  1.1560  1.3382
13540SOL    HW252680   8.112   4.674   3.236  1.4641 -1.1682 -0.3875
13541SOL     OW52681   6.039   6.445   0.362 -0.2537  0.1648  0.7490
13541SOL    HW152682   6.060   6.423   0.267  1.3817  0.7664  0.9450
13541SOL    HW252683   6.062   6.368   0.421  0.4586  0.4533  0.8526
13542SOL     OW52684   3.757   6.079   2.540  0.2413 -0.5095 -0.0842
13542SOL    HW152685   3.780   6.011   2.610  2.2214  0.8536  0.6261
13542SOL    HW252686   3.661   6.105   2.548  1.1069  1.7693  4.0651
13543SOL     OW52687   6.698   4.321   8.232  0.2354 -0.1566  0.0440
13543SOL    HW152688   6.744   4.334   8.144 -0.6128 -0.3718 -0.4276
13543SOL    HW252689   6.642   4.402   8.252 -2.7789 -1.7834 -1.5388
13544SOL     OW52690   8.159   7.289   8.557  0.3823 -0.5613  0.1288
13544SOL    HW152691   8.229   7.315   8.622 -1.3537 -0.1069  1.8607
13544SOL    HW252692   8.072   7.333   8.581 -0.0461  0.5004 -3.1298
13545SOL     OW52693   3.801   1.881   6.224  0.3374 -0.1729  0.0383
13545SOL    HW152694   3.885   1.830   6.243  0.3822  0.1553  0.7611
13545SOL    HW252695   3.724   1.817   6.222  0.3764 -0.2712  1.0470
13546SOL     OW52696   2.919   6.339   2.223 -0.6649  0.3341  0.0814
13546SOL    HW152697   2.879   6.275   2.289  0.2821  1.8078  2.1519
13546SOL    HW252698   2.992   6.391   2.268 -1.5969  3.0628 -1.4709
13547SOL     OW52699   2.984   1.540   7.707  0.1129 -0.0672  0.3520
13547SOL    HW152700   2.905   1.514   7.651  1.3394 -0.1392 -1.3796
13547SOL    HW252701   2.952   1.575   7.795 -1.8849  0.8307 -0.6936
13548SOL     OW52702   5.289   4.054   9.571  0.4374  0.3997 -0.1563
13548SOL    HW152703   5.331   4.140   9.544  0.3995  0.4481 -0.0605
13548SOL    HW252704   5.192   4.069   9.593  0.1712  0.1502 -1.1277
13549SOL     OW52705   7.684   5.831   5.515  0.0385 -0.1100 -0.2551
13549SOL    HW152706   7.744   5.852   5.438 -0.0472 -1.4346 -0.6981
13549SOL    HW252707   7.613   5.900   5.521  0.5717  0.4966 -0.8227
13550SOL     OW52708   3.910   3.032   5.819  0.5336 -0.3402  0.4705
13550SOL    HW152709   4.003   2.999   5.811 -0.1102 -2.0575 -0.0990
13550SOL    HW252710   3.866   2.992   5.899  1.0799  2.5082  2.2916
13551SOL     OW52711   6.888   9.896   5.199 -0.0926 -0.2201  0.6183
13551SOL    HW152712   6.935   9.817   5.240 -2.1255 -1.1625  1.1799
13551SOL    HW252713   6.789   9.883   5.204 -0.4469  1.8306 -0.3788
13552SOL     OW52714   3.633   7.057   7.612 -0.0246 -0.0679 -0.5032
13552SOL    HW152715   3.601   7.150   7.601  0.9368  0.2151 -0.9693
13552SOL    HW252716   3.724   7.058   7.653 -0.2594 -0.8230  0.0481
13553SOL     OW52717   0.862   1.776   5.874  0.1993 -0.4063  0.3036
13553SOL    HW152718   0.902   1.751   5.962  0.6042  0.0995  0.2629
13553SOL    HW252719   0.905   1.723   5.801  0.9242  0.2687  0.2387
13554SOL     OW52720   2.473   4.059   5.883  0.4126 -0.4052  0.2818
13554SOL    HW152721   2.527   4.127   5.832  2.1141 -0.6977  1.6721
13554SOL    HW252722   2.428   4.104   5.960 -1.6844 -0.0854 -1.0928
13555SOL     OW52723   2.516   2.404   5.688  0.3440  0.3312 -0.2969
13555SOL    HW152724   2.615   2.418   5.684  0.1953  1.0739 -2.2843
13555SOL    HW252725   2.490   2.336   5.620 -0.6319  0.9837 -0.5918
13556SOL     OW52726   3.406   7.830   8.899 -0.2472  0.2776  0.8741
13556SOL    HW152727   3.379   7.748   8.949  1.9285 -0.3951  1.0137
13556SOL    HW252728   3.440   7.899   8.964 -2.0133  1.2924  0.7550
13557SOL     OW52729   4.008   2.972   6.586  0.3131 -0.2154 -0.0512
13557SOL    HW152730   3.960   3.036   6.525  1.4343 -0.5585 -1.3134
13557SOL    HW252731   4.069   3.024   6.646 -0.3595  0.0682  0.4086
13558SOL     OW52732   3.506   6.135   3.964  0.3084 -0.1250  0.3573
13558SOL    HW152733   3.600   6.164   3.947 -0.7523  2.8739 -0.7076
13558SOL    HW252734   3.492   6.124   4.062  1.3292  1.0607  0.6538
13559SOL     OW52735   4.508   7.525   4.063 -0.2035  0.2430 -0.2526
13559SOL    HW152736   4.459   7.605   4.096  1.7153  1.0644  0.7042
13559SOL    HW252737   4.592   7.553   4.017 -1.6670 -1.0311 -3.8502
13560SOL     OW52738   3.837   5.324   8.958 -0.4477  0.1451 -0.1597
13560SOL    HW152739   3.905   5.251   8.947 -0.9002 -0.1807 -0.8512
13560SOL    HW252740   3.860   5.379   9.038 -0.0507 -0.7060  0.3246
13561SOL     OW52741   4.659   5.294   8.418 -0.3411 -0.8883 -0.3184
13561SOL    HW152742   4.712   5.320   8.499  0.0939  2.7793 -1.6858
13561SOL    HW252743   4.562   5.307   8.437 -0.2110  0.3994 -0.5272
13562SOL     OW52744   1.048   7.298   4.235  0.4226  0.6017 -0.7152
13562SOL    HW152745   0.988   7.304   4.315 -0.1028  0.3857 -1.0858
13562SOL    HW252746   1.104   7.381   4.228  0.6766  0.4949  0.0342
13563SOL     OW52747   3.423   3.932   6.585 -0.0762 -0.1958  0.3459
13563SOL    HW152748   3.339   3.958   6.633  0.5091  1.0187  0.7507
13563SOL    HW252749   3.461   3.849   6.626 -1.4028 -1.1122 -0.2480
13564SOL     OW52750   6.898   3.450   0.193 -0.3375 -0.0972  0.4956
13564SOL    HW152751   6.972   3.483   0.134 -1.0825 -1.3707 -1.1838
13564SOL    HW252752   6.887   3.352   0.181 -2.2476  0.0608  0.8093
13565SOL     OW52753   5.983   5.979   1.340 -0.3862  0.3379  0.1901
13565SOL    HW152754   5.988   5.977   1.240  0.7514  0.6295  0.2363
13565SOL    HW252755   6.075   5.986   1.378 -0.8158  0.2513  1.2623
13566SOL     OW52756   6.221   4.442   8.399  0.5267 -0.2926  0.8833
13566SOL    HW152757   6.306   4.490   8.379  0.2162  0.1100  0.5135
13566SOL    HW252758   6.234   4.343   8.387  0.2558 -0.0603 -1.7587
13567SOL     OW52759   2.896   4.701   0.056  0.1519 -0.0320 -0.6780
13567SOL    HW152760   2.825   4.700  -0.015 -0.1149 -0.7023 -0.4031
13567SOL    HW252761   2.935   4.793   0.063 -1.5742  0.6501  0.0595
13568SOL     OW52762   6.394   6.794   8.078  0.2456 -0.3727 -1.2120
13568SOL    HW152763   6.403   6.835   7.988  0.0182 -0.5227 -1.3059
13568SOL    HW252764   6.455   6.840   8.143 -0.8368  0.8854 -1.0510
13569SOL     OW52765   8.559   4.106   8.944 -0.5346  0.5469 -0.0508
13569SOL    HW152766   8.473   4.056   8.936  0.7760 -2.0517  1.3746
13569SOL    HW252767   8.619   4.084   8.867 -0.1160  0.2628  0.3539
13570SOL     OW52768   0.539   3.852   4.245 -0.3516 -0.5265  0.0742
13570SOL    HW152769   0.619   3.875   4.190  0.0647 -1.7181  0.1794
13570SOL    HW252770   0.555   3.880   4.340  0.0996 -1.1430  0.1782
13571SOL     OW52771   5.967   8.350   8.672  0.4537  0.5471 -0.8813
13571SOL    HW152772   6.007   8.439   8.696 -1.8455  1.3862 -0.0130
13571SOL    HW252773   5.945   8.300   8.756  1.1727 -0.5827 -1.3625
13572SOL     OW52774   6.127   4.426   4.383  0.6696  0.2506 -0.1801
13572SOL    HW152775   6.155   4.356   4.450  1.1830 -1.2379 -1.9001
13572SOL    HW252776   6.063   4.385   4.318  0.2962  1.6465 -0.7037
13573SOL     OW52777   1.986   0.426   4.620  0.5617  0.6253  0.0518
13573SOL    HW152778   2.007   0.502   4.558 -1.9903  2.8033  1.7668
13573SOL    HW252779   1.899   0.384   4.592  0.9095 -0.3182  0.3804
13574SOL     OW52780   3.067   9.939   5.276  0.2834  0.3480  0.1395
13574SOL    HW152781   3.153   9.893   5.256 -0.2503 -0.7285  0.2622
13574SOL    HW252782   2.992   9.893   5.227  0.0812  2.7398 -1.9125
13575SOL     OW52783   2.022   5.169   7.399  0.2680  0.6152 -0.1068
13575SOL    HW152784   2.003   5.193   7.303 -1.5457  1.4329  0.4312
13575SOL    HW252785   2.120   5.174   7.416  0.6274  0.3318 -1.9591
13576SOL     OW52786   4.293   3.168   6.415  0.1575  0.6611 -0.2203
13576SOL    HW152787   4.381   3.214   6.403  0.6076  0.0914  0.8325
13576SOL    HW252788   4.298   3.074   6.381 -0.1633  0.7433 -0.5057
13577SOL     OW52789   3.214   5.970   0.706  0.3880 -0.0329 -0.1804
13577SOL    HW152790   3.219   5.926   0.795  1.0423  0.0808 -0.1593
13577SOL    HW252791   3.304   6.007   0.681 -0.0449  0.9070 -0.3928
13578SOL     OW52792   0.781   1.345   7.449 -0.6688 -0.8631  0.2243
13578SOL    HW152793   0.779   1.273   7.519 -0.4519 -0.9144  0.1786
13578SOL    HW252794   0.696   1.342   7.396 -1.0089 -0.5660  0.7409
13579SOL     OW52795   3.292   4.585   3.648  0.0577  0.2695  0.2694
13579SOL    HW152796   3.353   4.552   3.720 -0.1752 -2.7749 -0.8446
13579SOL    HW252797   3.197   4.566   3.673 -0.0573 -0.2790 -0.5693
13580SOL     OW52798   5.207   4.956   5.074  0.2789  0.3574 -0.0171
13580SOL    HW152799   5.161   5.044   5.068 -0.5419 -0.0782 -0.2102
13580SOL    HW252800   5.182   4.911   5.160 -0.9010 -0.5671 -0.8377
13581SOL     OW52801   6.348   4.335   7.257  0.7496  0.1509 -0.3298
13581SOL    HW152802   6.380   4.269   7.325  1.3412  1.8385  1.0396
13581SOL    HW252803   6.350   4.292   7.166  0.8602 -1.8011  0.5662
13582SOL     OW52804   2.502   2.114   5.153 -0.1859  0.1736 -0.5176
13582SOL    HW152805   2.593   2.121   5.114  0.0483  0.0171 -0.0047
13582SOL    HW252806   2.454   2.202   5.143  0.5274  0.6868  0.4457
13583SOL     OW52807   2.631   8.210   1.003 -0.1386  0.2499  0.1754
13583SOL    HW152808   2.540   8.191   1.041 -0.6636  1.7586 -0.3122
13583SOL    HW252809   2.661   8.131   0.950 -1.7045  0.1943 -0.6749
13584SOL     OW52810   7.390   6.658   5.673 -0.0393  0.3477 -0.4085
13584SOL    HW152811   7.365   6.635   5.579 -1.0580 -0.8204  0.1351
13584SOL    HW252812   7.455   6.734   5.672  0.6415 -0.2244 -2.0919
13585SOL     OW52813   2.346   4.726   8.815 -0.9944  0.3146 -0.4136
13585SOL    HW152814   2.433   4.746   8.861 -1.3875 -0.0282  0.4809
13585SOL    HW252815   2.293   4.662   8.870 -2.3088  1.3991 -0.3989
13586SOL     OW52816   3.769   3.935   8.393 -0.1416 -0.3635  0.3807
13586SOL    HW152817   3.701   3.968   8.458  1.4764  2.0481  0.8959
13586SOL    HW252818   3.826   3.865   8.438  0.6944  0.9838  1.4688
13587SOL     OW52819   7.237   4.535   7.483  0.3663  0.7171  0.1827
13587SOL    HW152820   7.144   4.526   7.450  0.5753 -1.5379  0.1058
13587SOL    HW252821   7.285   4.606   7.430 -0.0617 -1.0218 -2.6627
13588SOL     OW52822   0.851   6.024   3.742 -0.5012 -0.0174  0.4958
13588SOL    HW152823   0.918   6.078   3.793  0.9674 -0.3195 -1.0637
13588SOL    HW252824   0.894   5.986   3.660 -1.4767 -3.5106  1.5055
13589SOL     OW52825   7.202   0.253   2.603 -0.0087 -0.2458 -0.0708
13589SOL    HW152826   7.228   0.341   2.563 -0.5696  0.9097  2.0294
13589SOL    HW252827   7.201   0.183   2.532  1.2224  1.2795 -1.6226
13590SOL     OW52828   2.451   3.953   5.623 -0.3292 -0.0585  0.1035
13590SOL    HW152829   2.454   3.964   5.723  1.1616 -0.0924  0.0880
13590SOL    HW252830   2.454   3.856   5.599 -1.0311 -0.0639  0.0265
13591SOL     OW52831   9.326   5.400   7.963 -0.1531  0.1774  0.0502
13591SOL    HW152832   9.376   5.375   8.046 -0.6443 -0.3722  0.1895
13591SOL    HW252833   9.290   5.492   7.972  1.0360  0.6758 -0.1502
13592SOL     OW52834   2.456   3.976   5.162  0.0746 -0.3533  0.1516
13592SOL    HW152835   2.379   3.957   5.222 -1.1142 -0.2552 -1.3314
13592SOL    HW252836   2.441   3.933   5.073  2.0911 -0.9972  0.0847
13593SOL     OW52837   1.457   9.402   9.493 -0.1560 -0.2632  0.2637
13593SOL    HW152838   1.489   9.318   9.449 -0.6619 -0.2822 -0.0696
13593SOL    HW252839   1.357   9.398   9.504 -0.1255  0.0860  0.6876
13594SOL     OW52840   6.878   0.882   7.368 -0.5890 -0.2857  0.3501
13594SOL    HW152841   6.888   0.853   7.272  1.0413 -1.6527  0.8934
13594SOL    HW252842   6.867   0.801   7.426 -2.6281  0.5861  1.2283
13595SOL     OW52843   6.524   0.894   5.384  0.0497  0.2126  0.3976
13595SOL    HW152844   6.445   0.835   5.369 -0.4243  1.3047 -1.4655
13595SOL    HW252845   6.533   0.913   5.482  0.5834 -3.4240  1.1256
13596SOL     OW52846   3.461   6.029   9.509  1.0870  0.0313 -0.0731
13596SOL    HW152847   3.520   5.948   9.506  0.5460 -0.4215  1.0739
13596SOL    HW252848   3.510   6.107   9.471  3.7846  0.4851  4.0793
13597SOL     OW52849   6.346   4.826   7.499 -0.0193  0.0218  0.4123
13597SOL    HW152850   6.305   4.738   7.525 -0.8370  0.4583  0.6402
13597SOL    HW252851   6.275   4.897   7.500  0.2404  0.3411 -1.6067
13598SOL     OW52852   2.826   1.858   0.078  0.2345 -0.0262  0.5226
13598SOL    HW152853   2.849   1.861   0.175  4.7510 -0.4515 -0.4282
13598SOL    HW252854   2.824   1.763   0.047 -0.4207  0.1406  0.0416
13599SOL     OW52855   5.350   7.663   3.533 -0.2975 -0.2371 -0.4302
13599SOL    HW152856   5.450   7.669   3.536 -0.2389 -0.1058 -2.2659
13599SOL    HW252857   5.313   7.674   3.625  1.2976  1.5357  0.0309
13600SOL     OW52858   7.248   7.254   7.031 -0.4593  0.3326  0.3214
13600SOL    HW152859   7.302   7.212   6.957  0.4101 -0.3400  1.3270
13600SOL    HW252860   7.262   7.202   7.115 -1.7935  0.8434  0.8594
13601SOL     OW52861   7.128   6.788   5.250 -0.0124 -0.1236  0.2231
13601SOL    HW152862   7.087   6.876   5.227  0.3457  0.3220  1.2301
13601SOL    HW252863   7.228   6.797   5.251  0.0133 -0.3847  0.8813
13602SOL     OW52864   2.720   4.540   5.039 -0.4503 -0.2636  0.3601
13602SOL    HW152865   2.748   4.552   4.944 -0.1953  0.0297  0.4725
13602SOL    HW252866   2.651   4.468   5.044 -0.3552 -0.3844 -0.0285
13603SOL     OW52867   7.493   2.257   5.350 -0.0646  0.0772  0.0668
13603SOL    HW152868   7.438   2.338   5.369  2.5078  1.2052  3.2057
13603SOL    HW252869   7.546   2.271   5.266 -1.7854  0.4072 -0.9935
13604SOL     OW52870   0.630   3.908   7.791  0.6617 -0.8447  0.0366
13604SOL    HW152871   0.628   3.988   7.730 -1.1286 -1.6897 -1.0458
13604SOL    HW252872   0.640   3.825   7.736 -2.3646 -1.7339  0.7326
13605SOL     OW52873   3.084   0.816   1.814  0.0907 -0.3324  0.0363
13605SOL    HW152874   3.150   0.748   1.847  0.1854 -0.0036  0.5289
13605SOL    HW252875   2.992   0.790   1.845  0.0614 -0.4796 -0.1661
13606SOL     OW52876   5.061   5.820   2.135  0.0122 -0.2730  0.1553
13606SOL    HW152877   5.014   5.904   2.108  0.8427 -0.3681 -1.6149
13606SOL    HW252878   5.143   5.843   2.187 -1.0654 -0.0677  1.7964
13607SOL     OW52879   1.849   4.645   4.613 -0.2387  0.8172 -0.4244
13607SOL    HW152880   1.853   4.628   4.515  0.2023  0.1150 -0.2963
13607SOL    HW252881   1.894   4.732   4.634  2.9104 -0.7070 -0.4801
13608SOL     OW52882   3.713   3.377   6.022  0.0474 -0.0155  0.2730
13608SOL    HW152883   3.711   3.459   5.963  1.4323 -0.4208 -0.3750
13608SOL    HW252884   3.620   3.343   6.035 -0.5220  1.5193  0.3410
13609SOL     OW52885   4.254   5.898   1.166 -0.3543 -0.0929  0.4714
13609SOL    HW152886   4.260   5.946   1.079  2.2628 -1.1388  0.0356
13609SOL    HW252887   4.248   5.965   1.240 -0.4958  0.8237 -0.3642
13610SOL     OW52888   3.584   8.058   0.908  0.0082  0.2915  0.1482
13610SOL    HW152889   3.665   8.020   0.952  1.2209  1.4640 -0.9993
13610SOL    HW252890   3.532   8.111   0.974  0.9856  0.7532  0.5594
13611SOL     OW52891   7.189   6.497   9.550 -0.2226  0.7756  0.0044
13611SOL    HW152892   7.257   6.456   9.490  0.0901  0.0412  0.8514
13611SOL    HW252893   7.101   6.501   9.503 -0.4282 -1.5422  0.1403
13612SOL     OW52894   8.115   9.467   7.056 -0.1705 -0.1095  0.0227
13612SOL    HW152895   8.147   9.544   7.001 -1.4513 -0.2170 -0.9042
13612SOL    HW252896   8.029   9.493   7.102  1.1973  0.2046  2.4917
13613SOL     OW52897   8.816   6.829   9.300  0.1060  0.1266  0.0551
13613SOL    HW152898   8.778   6.910   9.346 -1.4292  0.3253 -1.4955
13613SOL    HW252899   8.903   6.853   9.257  0.0680  0.7381  0.3191
13614SOL     OW52900   0.420   9.101   7.149 -0.2775 -0.3562 -0.4214
13614SOL    HW152901   0.442   9.139   7.239 -0.0272 -0.9361 -0.2396
13614SOL    HW252902   0.324   9.120   7.128 -0.6066 -1.0529  0.3877
13615SOL     OW52903   3.064   8.878   2.743 -0.1057 -0.6254  0.1093
13615SOL    HW152904   3.013   8.808   2.692  1.5182 -1.3360 -0.5639
13615SOL    HW252905   3.094   8.949   2.680 -0.5539 -0.0301  0.5634
13616SOL     OW52906   4.528   4.683   0.787  0.2951  0.5007 -0.0065
13616SOL    HW152907   4.625   4.695   0.810 -0.0863  2.4162  0.6818
13616SOL    HW252908   4.481   4.771   0.794 -1.5301 -0.4380 -0.2212
13617SOL     OW52909   0.611   2.155   7.358 -0.2025  0.1230 -0.2703
13617SOL    HW152910   0.534   2.211   7.389  1.2265  3.3670 -2.3741
13617SOL    HW252911   0.596   2.125   7.264  1.2837  1.2253 -0.8852
13618SOL     OW52912   7.523   8.651   0.817 -0.2897 -0.4462  0.1592
13618SOL    HW152913   7.595   8.644   0.886 -0.5344 -1.5068  0.3232
13618SOL    HW252914   7.449   8.710   0.851  0.0994 -0.0627  0.3421
13619SOL     OW52915   3.222   6.944   0.807 -0.1859 -0.1812  0.9787
13619SOL    HW152916   3.213   6.913   0.902 -0.5579  0.9552  1.3256
13619SOL    HW252917   3.162   6.890   0.748 -0.7188 -0.2120  1.5472
13620SOL     OW52918   0.411   5.324   1.247 -0.6368  0.0526  0.0783
13620SOL    HW152919   0.314   5.309   1.269 -0.4638  1.0178  1.6139
13620SOL    HW252920   0.453   5.238   1.219 -1.5132 -0.7227  1.1067
13621SOL     OW52921   4.011   5.264   6.100  0.3418 -0.5663  0.0874
13621SOL    HW152922   4.095   5.315   6.080  0.2563 -0.7743 -0.8190
13621SOL    HW252923   3.940   5.327   6.131  0.9999 -0.4591  1.4183
13622SOL     OW52924   0.476   2.611   5.613  0.7039  0.7660 -0.0096
13622SOL    HW152925   0.494   2.708   5.628 -1.6921  1.2577 -0.0168
13622SOL    HW252926   0.545   2.572   5.552  2.8914  1.9458  1.6607
13623SOL     OW52927   2.545   6.803   4.561  0.2443  0.1269 -0.1374
13623SOL    HW152928   2.550   6.745   4.479  0.0796  0.7195 -0.5690
13623SOL    HW252929   2.507   6.750   4.637 -0.0595 -0.2860 -0.5727
13624SOL     OW52930   5.840   4.314   6.220 -0.1789  0.0896  0.2707
13624SOL    HW152931   5.867   4.401   6.260  0.3893  0.5253 -1.0036
13624SOL    HW252932   5.909   4.245   6.239 -0.6602 -0.1053  1.3336
13625SOL     OW52933   5.122   1.490   6.815 -0.2577 -0.2490  0.2995
13625SOL    HW152934   5.049   1.506   6.881  0.2239 -0.0088  0.7859
13625SOL    HW252935   5.174   1.409   6.842 -1.2064 -1.2389 -0.8222
13626SOL     OW52936   4.030   1.811   7.013  0.3987  0.4139  0.2801
13626SOL    HW152937   4.004   1.782   6.921  1.5415 -0.0174  0.0904
13626SOL    HW252938   4.126   1.790   7.029  0.9583  3.0335  0.5608
13627SOL     OW52939   3.238   8.098   3.948 -0.0630  0.5173  0.4254
13627SOL    HW152940   3.337   8.111   3.939  0.1665 -1.8004 -0.6997
13627SOL    HW252941   3.219   8.004   3.977 -2.0005  0.5451 -0.6893
13628SOL     OW52942   4.417   3.482   1.092 -0.2506  0.1906  0.0427
13628SOL    HW152943   4.452   3.390   1.111 -0.3470  0.7747  3.3893
13628SOL    HW252944   4.486   3.549   1.120 -1.2485  1.2005  0.0739
13629SOL     OW52945   1.722   2.337   9.730  0.4197 -0.0349 -0.2025
13629SOL    HW152946   1.813   2.297   9.738 -0.5340 -2.0442  1.0559
13629SOL    HW252947   1.654   2.265   9.735 -1.2005  1.1955 -3.3014
13630SOL     OW52948   2.689   2.741   0.696 -0.0817  0.0571  0.1985
13630SOL    HW152949   2.758   2.814   0.699 -0.0702  0.0293  0.7422
13630SOL    HW252950   2.648   2.731   0.787 -0.5058 -0.2129 -0.0217
13631SOL     OW52951   8.723   4.042   6.566 -0.1996 -0.5120 -0.3169
13631SOL    HW152952   8.738   4.095   6.650  2.1521 -1.0455 -0.3748
13631SOL    HW252953   8.758   4.093   6.488 -2.2322 -0.0955 -0.9810
13632SOL     OW52954   5.784   4.392   7.886  0.9444  0.3500  0.6523
13632SOL    HW152955   5.810   4.338   7.806 -1.0818  2.7872 -1.7654
13632SOL    HW252956   5.865   4.437   7.923  1.9089 -0.7962 -0.0342
13633SOL     OW52957   7.266   0.017   9.219  0.5622 -0.0451 -0.2154
13633SOL    HW152958   7.350   0.056   9.256  0.5564  0.6975 -0.9584
13633SOL    HW252959   7.228  -0.049   9.283  1.7164 -0.3825  0.1135
13634SOL     OW52960   4.650   5.299   3.945 -0.2133 -0.5582  0.2765
13634SOL    HW152961   4.679   5.345   3.861  1.7637 -0.1806  1.1304
13634SOL    HW252962   4.562   5.336   3.975 -0.1274  0.4801 -0.7279
13635SOL     OW52963   6.033   2.144   8.564  0.0502 -0.3306  0.0280
13635SOL    HW152964   6.050   2.047   8.548 -1.5112 -0.9143  1.7523
13635SOL    HW252965   6.079   2.172   8.649  1.1634  0.6541 -0.8802
13636SOL     OW52966   1.317   2.375   3.280  0.1654 -0.7953  0.5812
13636SOL    HW152967   1.244   2.436   3.250  2.6198  1.7872 -0.3344
13636SOL    HW252968   1.340   2.394   3.375  0.9019 -0.3368  0.3101
13637SOL     OW52969   2.442   0.853   7.639  0.9628 -0.5638  0.0121
13637SOL    HW152970   2.395   0.862   7.726  0.2611  3.3561 -0.6608
13637SOL    HW252971   2.379   0.818   7.570  0.2864  0.3313  0.1643
13638SOL     OW52972   9.332   0.261   2.863  0.2354 -0.1631 -0.0053
13638SOL    HW152973   9.357   0.298   2.774 -1.9130 -1.5348 -1.2448
13638SOL    HW252974   9.297   0.334   2.921 -0.2722  0.4103 -1.0233
13639SOL     OW52975   7.836   4.569   7.075  0.1645  0.2189 -0.4445
13639SOL    HW152976   7.851   4.563   7.174 -2.5734  2.5907  0.1654
13639SOL    HW252977   7.750   4.523   7.052  0.2680  0.5918 -1.5836
13640SOL     OW52978   9.572   6.018   1.556  0.0906 -0.2215  0.6744
13640SOL    HW152979   9.504   6.081   1.517  0.7935  0.6749  0.8863
13640SOL    HW252980   9.562   6.016   1.655 -0.0015 -0.5276  0.6579
13641SOL     OW52981   9.529   8.186   5.588 -0.2951  0.1812  0.0530
13641SOL    HW152982   9.602   8.247   5.557 -0.0391  1.0023  2.1581
13641SOL    HW252983   9.441   8.234   5.583 -0.5541 -0.4249 -1.4170
13642SOL     OW52984   6.398   3.984   7.430 -0.3423 -0.3555 -0.2382
13642SOL    HW152985   6.396   3.985   7.330 -0.0441  0.7772 -0.2433
13642SOL    HW252986   6.487   3.951   7.462  0.7083  2.1710 -0.3894
13643SOL     OW52987   3.806   2.565   5.873  0.4094 -0.7627 -0.7235
13643SOL    HW152988   3.722   2.615   5.894  0.5430 -0.9679  0.3317
13643SOL    HW252989   3.788   2.467   5.873  0.8566 -0.8615  0.5629
13644SOL     OW52990   4.852   6.492   4.956 -0.0637  0.2519 -0.3571
13644SOL    HW152991   4.899   6.410   4.921 -0.3696 -0.0216 -0.1313
13644SOL    HW252992   4.764   6.465   4.996 -1.2888  0.9925 -2.4713
13645SOL     OW52993   9.657   7.801   5.489 -0.0242 -0.2772 -0.1303
13645SOL    HW152994   9.702   7.728   5.541 -0.1952 -1.1039 -1.1103
13645SOL    HW252995   9.558   7.798   5.507  0.0924  0.4023  0.6511
13646SOL     OW52996   8.968   2.211   4.743 -0.5721 -0.6211 -0.0933
13646SOL    HW152997   8.954   2.233   4.840 -0.2760 -2.5075  0.4032
13646SOL    HW252998   9.059   2.172   4.731 -0.3435  0.2389 -1.2708
13647SOL     OW52999   6.511   1.475   4.656 -0.1855 -0.3021  0.3086
13647SOL    HW153000   6.423   1.429   4.667  0.6920 -2.4087 -1.0197
13647SOL    HW253001   6.572   1.447   4.730  0.1852 -0.9404 -0.2240
13648SOL     OW53002   1.803   5.023   5.689  0.1523 -0.4084  0.2183
13648SOL    HW153003   1.747   5.058   5.765 -1.3233  0.0516 -1.0665
13648SOL    HW253004   1.874   4.963   5.726 -0.0189  0.4590  2.0502
13649SOL     OW53005   5.483   4.632   5.986 -0.6448 -0.0219 -0.3467
13649SOL    HW153006   5.396   4.655   5.943  0.0218  0.2436 -1.5674
13649SOL    HW253007   5.537   4.576   5.924  0.3411  0.3946  0.1293
13650SOL     OW53008   5.485   4.076   5.699  0.3977  0.2880  0.2936
13650SOL    HW153009   5.499   4.136   5.620  0.5159  0.3154  0.3352
13650SOL    HW253010   5.403   4.103   5.748  1.0911  1.1481  0.9904
13651SOL     OW53011   5.831   8.011   9.658 -0.2281 -0.3663  0.1303
13651SOL    HW153012   5.779   8.067   9.723  2.4952  0.2594  1.8291
13651SOL    HW253013   5.846   7.921   9.698  1.4779  0.0268  0.3968
13652SOL     OW53014   0.212   4.161   6.709  0.2859 -0.7241  0.4219
13652SOL    HW153015   0.161   4.076   6.710  0.6000 -0.9190  0.0358
13652SOL    HW253016   0.310   4.141   6.714  0.3474 -0.3716  0.7005
13653SOL     OW53017   4.368   9.031   5.203 -0.5739 -0.0843 -0.5914
13653SOL    HW153018   4.313   9.094   5.258  1.0546 -0.2519  1.2829
13653SOL    HW253019   4.465   9.049   5.218 -0.0825 -2.1183 -1.1149
13654SOL     OW53020   7.271   7.642   5.706 -0.2114 -0.1225 -0.1555
13654SOL    HW153021   7.210   7.620   5.782 -1.0271  0.5863 -0.5950
13654SOL    HW253022   7.356   7.591   5.715 -0.3778 -0.1833  1.1352
13655SOL     OW53023   0.445   7.975   5.589 -0.2399 -0.1438  0.3655
13655SOL    HW153024   0.498   8.012   5.664 -1.5144 -1.4145  1.9280
13655SOL    HW253025   0.416   8.049   5.528  0.4636  0.9373  1.3457
13656SOL     OW53026   7.187   8.998   1.961  0.3706  0.1639  0.9856
13656SOL    HW153027   7.233   8.962   2.043 -1.7378  0.9693  2.5806
13656SOL    HW253028   7.098   9.034   1.987 -0.5598 -0.0375 -1.7937
13657SOL     OW53029   3.642   7.608   3.065 -0.3569  0.1898 -0.4140
13657SOL    HW153030   3.681   7.534   3.010 -0.1884  0.9990 -1.4039
13657SOL    HW253031   3.639   7.692   3.010 -0.6934  0.8777  0.6441
13658SOL     OW53032   2.872   0.992   4.148 -0.2799  0.8695  0.2884
13658SOL    HW153033   2.895   1.083   4.114  0.6181  0.1255 -1.1297
13658SOL    HW253034   2.889   0.988   4.246  1.2357  1.7344  0.0666
13659SOL     OW53035   5.558   1.731   9.740  0.3709  0.2562  0.3898
13659SOL    HW153036   5.641   1.772   9.703  1.9187 -1.5073  1.8522
13659SOL    HW253037   5.580   1.644   9.784 -1.6626  1.4680  4.0193
13660SOL     OW53038   4.182   7.639   3.633 -0.1941  0.0610 -0.2038
13660SOL    HW153039   4.231   7.603   3.713 -0.5976  1.6737  0.7747
13660SOL    HW253040   4.108   7.576   3.610  0.4427 -0.8483  0.1610
13661SOL     OW53041   6.807   2.754   8.357 -0.2781  0.0057 -0.0961
13661SOL    HW153042   6.792   2.793   8.447 -0.4067 -0.2815  0.0086
13661SOL    HW253043   6.748   2.799   8.290  1.1843  1.5455 -0.3982
13662SOL     OW53044   1.154   1.115   8.222  0.0996 -0.5148 -0.7463
13662SOL    HW153045   1.069   1.163   8.247 -0.4211 -0.7871 -1.9826
13662SOL    HW253046   1.169   1.122   8.124 -0.3881 -3.5300 -1.0587
13663SOL     OW53047   8.298   6.094   6.818 -0.3787  0.3745  0.1789
13663SOL    HW153048   8.347   6.089   6.731 -1.3249 -0.1940 -0.3415
13663SOL    HW253049   8.332   6.024   6.880  0.0107  0.5079  0.1176
13664SOL     OW53050   3.632   7.323   7.550 -0.2641 -0.3047  0.4240
13664SOL    HW153051   3.611   7.417   7.573  0.8409 -0.4462  2.1093
13664SOL    HW253052   3.639   7.313   7.450 -4.1228  0.5501 -0.0292
13665SOL     OW53053   7.804   2.247   2.200 -0.2327 -0.1224 -0.1406
13665SOL    HW153054   7.809   2.165   2.142 -0.8687 -0.2605  0.0026
13665SOL    HW253055   7.819   2.220   2.295 -0.0641 -0.0137 -0.1355
13666SOL     OW53056   3.432   5.073   7.575 -0.1435 -0.8678 -0.2767
13666SOL    HW153057   3.381   5.016   7.639  0.1792 -0.3165  0.4855
13666SOL    HW253058   3.375   5.151   7.547  0.0895 -0.5267  0.1821
13667SOL     OW53059   8.945   0.771   4.627  0.4089  0.6188 -0.0690
13667SOL    HW153060   8.942   0.862   4.667  0.9113  0.6135 -0.0219
13667SOL    HW253061   8.896   0.771   4.539  0.2088  0.8758  0.0420
13668SOL     OW53062   2.552   4.183   5.320 -0.2262  0.6009  0.1377
13668SOL    HW153063   2.510   4.111   5.264 -1.4090  1.9507 -0.7473
13668SOL    HW253064   2.635   4.148   5.363 -0.6761 -1.2289 -0.4491
13669SOL     OW53065   3.118   8.321   9.972 -0.0119  0.3997 -0.1548
13669SOL    HW153066   3.122   8.418   9.997  1.0052  0.0018  1.3101
13669SOL    HW253067   3.038   8.279  10.015 -0.4285  0.5635 -0.7549
13670SOL     OW53068   7.369   5.649   5.615  0.3762  0.3921 -0.2953
13670SOL    HW153069   7.290   5.668   5.673 -1.7114 -2.6706 -1.9448
13670SOL    HW253070   7.447   5.621   5.671 -0.4187  1.2419  1.2382
13671SOL     OW53071   5.382   8.967   8.690 -0.5554  0.0488  0.1466
13671SOL    HW153072   5.446   8.942   8.762 -0.3658  1.5366  0.5017
13671SOL    HW253073   5.288   8.956   8.723 -0.4831  3.0339  1.4696
13672SOL     OW53074   6.812   3.973   1.691  1.3032  0.3430  0.2849
13672SOL    HW153075   6.829   3.911   1.768  0.2686 -1.1328 -0.6438
13672SOL    HW253076   6.814   3.921   1.605 -4.9991  0.4016 -0.1623
13673SOL     OW53077   4.724   4.587   9.470  0.4945  0.7079  0.2352
13673SOL    HW153078   4.685   4.557   9.557  0.5632 -2.6831 -0.8190
13673SOL    HW253079   4.824   4.584   9.476  0.4964  0.0639 -0.0761
13674SOL     OW53080   5.716   6.477   7.850  0.2225  0.6512  0.0528
13674SOL    HW153081   5.721   6.577   7.861 -0.1663  0.5967  0.7364
13674SOL    HW253082   5.624   6.453   7.818  0.0105  0.4255  0.8306
13675SOL     OW53083   7.286   4.933   8.654  0.8923  0.0410 -0.2477
13675SOL    HW153084   7.312   4.913   8.559 -1.1400  1.5294 -1.1509
13675SOL    HW253085   7.226   4.861   8.687  0.4969  0.2251 -0.5607
13676SOL     OW53086   4.128   8.307   7.459 -0.9342  0.7322  0.2920
13676SOL    HW153087   4.101   8.233   7.396  0.0630 -0.0944  0.8280
13676SOL    HW253088   4.063   8.310   7.535 -1.1941  0.6491  0.0772
13677SOL     OW53089   3.143   7.133   9.091  0.1897 -0.6047 -0.6576
13677SOL    HW153090   3.053   7.089   9.089 -0.1791  0.1771 -1.7682
13677SOL    HW253091   3.132   7.232   9.103  0.8777 -0.4588 -1.1733
13678SOL     OW53092   1.510   5.809   4.403 -0.2364 -0.0864  0.0026
13678SOL    HW153093   1.476   5.830   4.312 -1.1396 -0.1171  0.3341
13678SOL    HW253094   1.461   5.730   4.440  2.4115 -2.1847 -0.8131
13679SOL     OW53095   5.886   8.671   8.726  0.0044 -0.2156 -0.1139
13679SOL    HW153096   5.832   8.587   8.732  0.1785 -0.5954 -2.9959
13679SOL    HW253097   5.972   8.652   8.679  0.2948  1.4391 -0.2906
13680SOL     OW53098   5.782   6.357   6.448 -0.8624  0.4385 -0.5022
13680SOL    HW153099   5.752   6.362   6.353 -3.1195 -0.3313  0.1402
13680SOL    HW253100   5.760   6.266   6.485  0.7820  0.4365  0.5001
13681SOL     OW53101   7.227   6.150   4.993 -0.1735  0.1740  0.0591
13681SOL    HW153102   7.297   6.079   4.993  0.7350  1.0528 -1.4948
13681SOL    HW253103   7.156   6.128   4.926 -0.8508 -0.1663  0.8670
13682SOL     OW53104   2.204   5.719   6.954 -0.8668 -0.5265  0.4196
13682SOL    HW153105   2.218   5.814   6.925 -2.6952 -0.6372 -0.9084
13682SOL    HW253106   2.202   5.715   7.054  0.3582  0.6499  0.5139
13683SOL     OW53107   3.192   5.440   1.176  0.2964 -0.0525 -0.0788
13683SOL    HW153108   3.140   5.467   1.094  0.0431  0.6753  0.3130
13683SOL    HW253109   3.286   5.419   1.150  0.0346 -0.5194 -0.6666
13684SOL     OW53110   9.997   3.708   0.062 -0.8663  0.2587 -0.0208
13684SOL    HW153111  10.019   3.612   0.075 -0.3410  0.2867 -0.6846
13684SOL    HW253112   9.899   3.719   0.049 -1.1467  0.0002  1.7907
13685SOL     OW53113   0.312   5.610   4.248 -0.2003 -0.0558  0.3694
13685SOL    HW153114   0.357   5.599   4.159 -0.9218  2.1691 -0.3066
13685SOL    HW253115   0.338   5.535   4.308  1.3538 -0.8711 -1.2783
13686SOL     OW53116   7.211   1.976   8.894 -0.0727 -0.4471 -0.1436
13686SOL    HW153117   7.246   1.885   8.912 -1.5783 -1.2270 -1.0618
13686SOL    HW253118   7.115   1.970   8.867  0.1451  1.2928 -1.4092
13687SOL     OW53119   5.869   8.002   0.669 -0.0198  0.2500 -0.1063
13687SOL    HW153120   5.894   7.966   0.579  0.4870 -0.8179  0.4507
13687SOL    HW253121   5.771   8.021   0.672  0.1125  1.0938 -1.1598
13688SOL     OW53122   7.400   5.839   7.083 -0.2238  0.2915  0.3844
13688SOL    HW153123   7.403   5.860   7.180 -0.9212 -1.8572  0.9118
13688SOL    HW253124   7.305   5.832   7.053 -0.0448 -1.5304  0.1546
13689SOL     OW53125   6.605   1.022   8.936 -0.3970 -0.9463 -0.1551
13689SOL    HW153126   6.643   1.028   9.029 -1.2783  1.0824  0.1012
13689SOL    HW253127   6.613   0.928   8.903  0.9770 -1.4504  1.5307
13690SOL     OW53128   2.841   0.919   6.120 -0.7516 -0.1656 -0.1637
13690SOL    HW153129   2.800   1.003   6.155 -1.2530 -0.7296  0.6053
13690SOL    HW253130   2.852   0.927   6.021  1.8082  1.9148  0.2424
13691SOL     OW53131   2.936   5.287   8.436 -0.0624 -0.1798  0.1499
13691SOL    HW153132   2.960   5.291   8.339 -0.2921  0.4353  0.1146
13691SOL    HW253133   3.019   5.277   8.490 -0.0684 -2.3861 -0.1986
13692SOL     OW53134   1.716   4.829   1.707 -0.7208  0.9151  0.8839
13692SOL    HW153135   1.654   4.846   1.784 -2.2125  2.5014 -0.6018
13692SOL    HW253136   1.711   4.906   1.643  0.7214 -0.2211 -0.6480
13693SOL     OW53137   4.886   7.245   9.239  0.4434  0.1068 -0.0163
13693SOL    HW153138   4.907   7.158   9.285  0.0940  0.0919  0.1202
13693SOL    HW253139   4.853   7.227   9.147 -2.2080 -0.0750  0.9127
13694SOL     OW53140   1.818   2.836   8.498  0.0339 -0.1194 -0.2278
13694SOL    HW153141   1.874   2.864   8.576  0.7214 -0.8297 -0.4612
13694SOL    HW253142   1.870   2.773   8.440 -0.9254 -0.6307 -0.5523
13695SOL     OW53143   3.663   3.446   4.736  0.1540 -0.1592  0.0740
13695SOL    HW153144   3.678   3.447   4.637  0.4357 -0.9005  0.1056
13695SOL    HW253145   3.691   3.358   4.773 -1.3846 -0.4435  0.5930
13696SOL     OW53146   7.203   0.949   1.333  0.7205 -0.6432 -0.3851
13696SOL    HW153147   7.218   0.852   1.352  0.3052 -0.4444  1.0325
13696SOL    HW253148   7.194   0.963   1.234  2.1735 -1.8373 -0.7048
13697SOL     OW53149   1.282   6.756   7.972 -0.2640  0.2709 -0.2657
13697SOL    HW153150   1.370   6.778   8.013  0.3050  2.2024 -2.4318
13697SOL    HW253151   1.212   6.820   8.005 -0.2773  0.4293 -0.5979
13698SOL     OW53152   9.950   7.204   3.431 -0.0633 -0.2542  0.4625
13698SOL    HW153153  10.009   7.155   3.367 -1.0613 -0.6700 -0.1450
13698SOL    HW253154  10.007   7.252   3.498  0.9539 -1.1884  0.2880
13699SOL     OW53155   7.628   4.492   1.585 -0.6878  0.2171  0.3453
13699SOL    HW153156   7.574   4.557   1.638  0.2404 -0.3047  1.9727
13699SOL    HW253157   7.712   4.470   1.634  1.4852  1.6976 -2.5361
13700SOL     OW53158   3.358   3.415   7.277  0.0633  0.4328 -0.1936
13700SOL    HW153159   3.323   3.505   7.253 -1.1838 -0.2732 -1.0776
13700SOL    HW253160   3.326   3.391   7.369 -0.5603  0.4097 -0.4134
13701SOL     OW53161   2.861   4.755   1.770  0.1502  0.0653 -0.3974
13701SOL    HW153162   2.938   4.818   1.771 -1.1966  1.7625 -1.3718
13701SOL    HW253163   2.853   4.713   1.680  0.0359 -0.2606 -0.2390
13702SOL     OW53164   7.065   8.177   1.226 -0.5385  0.6707 -0.4266
13702SOL    HW153165   7.015   8.092   1.244  0.9085 -0.0909  0.0371
13702SOL    HW253166   7.030   8.249   1.286 -0.6598 -0.0112  0.3310
13703SOL     OW53167   2.728   3.454   6.678  0.9473  0.1033 -0.3480
13703SOL    HW153168   2.778   3.488   6.599 -0.7015  0.1310 -1.4053
13703SOL    HW253169   2.718   3.527   6.746  1.3006  0.4287 -0.6454
13704SOL     OW53170   4.709   0.626   1.041 -0.2737 -0.2944  0.0510
13704SOL    HW153171   4.653   0.684   1.101  0.0187 -1.7267  1.7469
13704SOL    HW253172   4.802   0.664   1.037 -0.5867  0.4321 -0.3968
13705SOL     OW53173   7.501   9.274   3.832  0.3611  0.4258 -0.1235
13705SOL    HW153174   7.442   9.348   3.798 -0.9808 -0.6464 -0.1553
13705SOL    HW253175   7.588   9.276   3.784 -0.2830  0.9712 -1.2823
13706SOL     OW53176   4.419   3.580   8.336 -0.5227  0.2206 -0.4103
13706SOL    HW153177   4.474   3.498   8.323 -1.2580 -0.1351 -1.3906
13706SOL    HW253178   4.418   3.605   8.432 -0.0110 -0.7203 -0.1545
13707SOL     OW53179   4.597   0.529   6.663  0.1016 -0.5015 -0.3094
13707SOL    HW153180   4.567   0.622   6.684  0.6390  0.0644 -1.9651
13707SOL    HW253181   4.697   0.526   6.661  0.0953 -1.2225  0.1414
13708SOL     OW53182   4.900   4.787   8.648  0.3233  0.1504  0.3028
13708SOL    HW153183   4.995   4.812   8.630  0.2228 -0.3553 -1.0350
13708SOL    HW253184   4.867   4.727   8.574 -1.2225  0.8418  0.4102
13709SOL     OW53185   1.035   7.615   5.597  0.0678  0.0170 -0.5993
13709SOL    HW153186   1.010   7.712   5.590 -0.6068 -0.2210 -1.5852
13709SOL    HW253187   1.086   7.588   5.515  0.2291 -0.4745 -0.3384
13710SOL     OW53188   1.479   3.612   0.932  0.0245 -0.2874  0.2169
13710SOL    HW153189   1.502   3.657   1.018 -1.4858 -1.3121  1.1888
13710SOL    HW253190   1.493   3.675   0.856  1.2904  0.6598  1.2173
13711SOL     OW53191   8.506   9.768   8.765 -0.4534  0.3682  0.5214
13711SOL    HW153192   8.513   9.844   8.700 -0.3173 -1.3373 -1.5184
13711SOL    HW253193   8.412   9.760   8.797 -0.9312  0.1325 -0.8751
13712SOL     OW53194   6.284   8.265   2.372  0.7470 -0.0968  0.7651
13712SOL    HW153195   6.292   8.292   2.276 -1.0304 -0.4884  0.5018
13712SOL    HW253196   6.349   8.318   2.427  1.1481  0.7558 -0.5209
13713SOL     OW53197   6.829   7.300   3.506  0.1335  0.3099  0.2423
13713SOL    HW153198   6.853   7.219   3.452  0.6170 -0.6401  1.8750
13713SOL    HW253199   6.809   7.274   3.600 -0.7798  1.9574  0.5336
13714SOL     OW53200   5.680   9.526   7.355 -0.0929 -0.2078  0.3749
13714SOL    HW153201   5.683   9.441   7.302 -0.3416 -0.6137  1.0109
13714SOL    HW253202   5.739   9.517   7.435  0.8988  0.6839 -0.2397
13715SOL     OW53203   5.706   4.519   2.390 -0.2087 -0.2756  0.1060
13715SOL    HW153204   5.755   4.506   2.476 -0.3045  0.6487  0.3002
13715SOL    HW253205   5.618   4.563   2.407 -1.5646 -2.7513 -0.1283
13716SOL     OW53206   3.352   6.318   8.147  0.2218 -0.2874  0.0737
13716SOL    HW153207   3.259   6.297   8.178 -1.0682  0.0341 -3.3696
13716SOL    HW253208   3.369   6.416   8.158 -0.3536 -0.1133 -0.5366
13717SOL     OW53209   7.056   2.863   3.958 -0.1355 -0.3931  0.3660
13717SOL    HW153210   7.054   2.882   4.056 -1.7683  2.8638 -0.2459
13717SOL    HW253211   6.967   2.826   3.931 -0.3405  0.5255 -0.2150
13718SOL     OW53212   3.191   6.183   4.181  0.2098 -0.0380  0.4328
13718SOL    HW153213   3.285   6.155   4.203 -0.7204 -2.6967  1.1244
13718SOL    HW253214   3.164   6.143   4.094 -2.0193 -3.5796  2.6239
13719SOL     OW53215   5.878   5.319   6.995 -0.0828  0.4604  0.3952
13719SOL    HW153216   5.876   5.320   7.095 -1.0325  0.7648  0.3854
13719SOL    HW253217   5.784   5.312   6.960  0.0766  2.4124 -0.4838
13720SOL     OW53218   5.263   9.222   9.645 -0.5603 -0.2859  0.1576
13720SOL    HW153219   5.270   9.175   9.557 -0.7483  0.5989 -0.3467
13720SOL    HW253220   5.224   9.313   9.630  0.9391  0.5004  0.9365
13721SOL     OW53221   3.839   0.883   9.874 -0.3054 -0.2710 -0.3016
13721SOL    HW153222   3.751   0.914   9.837 -0.3130 -0.7483 -0.7080
13721SOL    HW253223   3.830   0.788   9.903 -0.6562  0.5073  2.1960
13722SOL     OW53224   4.486   5.487   7.990 -0.3327  1.4124 -0.1660
13722SOL    HW153225   4.525   5.554   8.053  0.1538  0.1089  0.9381
13722SOL    HW253226   4.481   5.527   7.898  2.5927  2.0149 -0.1155
13723SOL     OW53227   1.610   3.405   9.854 -0.2158  0.1890 -0.5535
13723SOL    HW153228   1.517   3.367   9.849 -0.4709  0.8795 -1.3298
13723SOL    HW253229   1.645   3.397   9.947 -2.2041  2.5512  0.4668
13724SOL     OW53230   1.195   3.668   9.285 -0.1461 -0.6553  0.0479
13724SOL    HW153231   1.208   3.611   9.204 -0.8259  0.9663 -1.2448
13724SOL    HW253232   1.097   3.683   9.300  0.0247  0.1196  0.3940
13725SOL     OW53233   0.918   7.035   6.896 -0.1790  0.3292 -0.2510
13725SOL    HW153234   0.827   6.999   6.918  1.3633 -2.5787  1.6848
13725SOL    HW253235   0.947   7.097   6.968 -0.4518  0.9700 -0.6854
13726SOL     OW53236   4.726   5.470   2.366 -0.2320  0.3544  0.0262
13726SOL    HW153237   4.820   5.490   2.393  0.4915 -0.6931 -1.6009
13726SOL    HW253238   4.717   5.480   2.267 -1.1013 -2.3287 -0.2030
13727SOL     OW53239   7.123   9.209   5.785  0.2117  0.2702  0.2560
13727SOL    HW153240   7.134   9.114   5.815 -0.7314 -0.2744 -1.1083
13727SOL    HW253241   7.169   9.222   5.698 -1.6941  0.4364 -0.7523
13728SOL     OW53242   1.663   9.837   6.257 -0.5292 -0.1933 -0.5275
13728SOL    HW153243   1.679   9.743   6.288 -2.6109 -0.5682 -0.4564
13728SOL    HW253244   1.599   9.836   6.180 -1.5891  1.2440  0.3109
13729SOL     OW53245   8.377   9.813   5.511 -0.5737 -0.3260 -0.4470
13729SOL    HW153246   8.419   9.722   5.503  0.1538  0.0381 -0.8165
13729SOL    HW253247   8.420   9.875   5.446 -0.2861  0.5734  0.5802
13730SOL     OW53248   8.007   9.214   8.527 -0.0596 -0.0710 -0.3627
13730SOL    HW153249   7.944   9.224   8.450  0.3100 -0.6958 -0.7546
13730SOL    HW253250   8.010   9.299   8.579 -1.5485 -0.1604 -0.0913
13731SOL     OW53251   4.852   7.623   9.956  0.4539  0.6564  0.2799
13731SOL    HW153252   4.942   7.653   9.988  0.1604  1.0141  0.7710
13731SOL    HW253253   4.840   7.650   9.860  1.5938 -0.9716 -0.3648
13732SOL     OW53254   1.814   3.067   8.338 -0.3406 -0.2149 -0.2446
13732SOL    HW153255   1.843   2.997   8.404  1.5071 -1.1808 -2.0199
13732SOL    HW253256   1.859   3.153   8.359 -2.7458  0.5485  2.0485
13733SOL     OW53257   5.120   7.934   8.301  0.3251 -0.4030  0.5617
13733SOL    HW153258   5.202   7.881   8.322  0.9544  0.5964  0.6971
13733SOL    HW253259   5.139   7.996   8.224 -0.5618 -0.7660  0.0449
13734SOL     OW53260   5.369   4.139   6.172 -0.0594 -0.0618 -0.4780
13734SOL    HW153261   5.468   4.143   6.161 -0.0946 -0.3889 -0.9220
13734SOL    HW253262   5.337   4.045   6.161 -0.3132 -0.1092  0.5972
13735SOL     OW53263   4.939   4.418   7.861 -0.1554  0.4832 -0.3645
13735SOL    HW153264   4.934   4.326   7.824  1.7598 -0.9241  2.6131
13735SOL    HW253265   5.017   4.466   7.821  0.1859 -0.0120 -0.3005
13736SOL     OW53266   0.164   6.841   7.383  0.2020  0.0849 -0.4716
13736SOL    HW153267   0.156   6.791   7.469  3.5264  0.2859  0.0146
13736SOL    HW253268   0.157   6.939   7.402 -0.6731  0.0623 -0.6631
13737SOL     OW53269   7.785   5.345   4.671  0.2658  0.4658 -0.4553
13737SOL    HW153270   7.771   5.332   4.573  1.1926 -0.9036 -0.4207
13737SOL    HW253271   7.868   5.398   4.686  0.2782  0.4321 -0.4022
13738SOL     OW53272   6.995   4.417   3.024  0.0793  0.6343  0.1942
13738SOL    HW153273   6.967   4.483   3.094 -1.2395  1.4260 -1.0650
13738SOL    HW253274   6.951   4.329   3.043 -2.2918  1.5151 -1.0249
13739SOL     OW53275   3.321   6.235   9.098 -0.3900 -0.7125 -0.2211
13739SOL    HW153276   3.399   6.173   9.095 -0.0408 -0.2816 -0.0176
13739SOL    HW253277   3.320   6.292   9.016  0.3755  0.3366  0.4940
13740SOL     OW53278   1.334   5.132   5.683  1.2142 -0.1489  0.3766
13740SOL    HW153279   1.385   5.046   5.677 -0.1114 -0.9633  0.5987
13740SOL    HW253280   1.246   5.122   5.636 -0.3999 -0.0161  3.2301
13741SOL     OW53281   7.135   8.307   5.160  0.6619  0.8798  0.6279
13741SOL    HW153282   7.170   8.214   5.158 -0.4760  0.4421 -3.2299
13741SOL    HW253283   7.048   8.309   5.210  0.3756 -0.2690  0.1859
13742SOL     OW53284   4.721   6.477   1.280  0.4610 -0.2300  0.4817
13742SOL    HW153285   4.817   6.504   1.289 -0.5276  3.1143  1.6401
13742SOL    HW253286   4.692   6.490   1.185  0.9784 -0.6789  0.2581
13743SOL     OW53287   3.660   2.393   4.552  0.2655  0.1511 -0.1644
13743SOL    HW153288   3.670   2.370   4.649  1.3393  0.6244 -0.1485
13743SOL    HW253289   3.685   2.314   4.496  3.1052  0.9192 -0.0970
13744SOL     OW53290   2.032   6.759   7.373  0.5706  0.2769 -0.1590
13744SOL    HW153291   2.113   6.770   7.430  0.5642 -1.7603  0.2914
13744SOL    HW253292   2.059   6.723   7.284  0.2442  0.1849 -0.2210
13745SOL     OW53293   0.924   3.515   2.451 -0.0417 -0.0082 -0.2307
13745SOL    HW153294   0.912   3.560   2.363  0.1869 -0.2416 -0.3817
13745SOL    HW253295   1.019   3.482   2.460 -0.2271 -0.5347 -0.1608
13746SOL     OW53296   9.253   2.788   3.639 -0.2691 -0.4031  0.8869
13746SOL    HW153297   9.249   2.886   3.622  0.9029 -0.3770  0.6709
13746SOL    HW253298   9.207   2.766   3.725  0.4094  0.4785  1.4793
13747SOL     OW53299   2.299   4.594   8.597  0.4168 -0.2113 -0.1368
13747SOL    HW153300   2.207   4.556   8.602  1.2899 -2.2651  0.8821
13747SOL    HW253301   2.319   4.646   8.680 -0.4152  1.6951 -1.0992
13748SOL     OW53302   7.880   2.713   8.862  0.0101  0.3035 -0.3324
13748SOL    HW153303   7.906   2.618   8.845 -3.3384 -0.8357  0.6637
13748SOL    HW253304   7.893   2.767   8.779  2.6080 -0.8004 -0.7134
13749SOL     OW53305   7.108   1.282   0.072 -0.4184  0.2711 -0.3556
13749SOL    HW153306   7.156   1.361   0.110  0.7459 -0.8626  0.5633
13749SOL    HW253307   7.143   1.263  -0.020  0.1998  0.0606 -0.0810
13750SOL     OW53308   7.546   2.834   0.903 -0.0113 -0.0400  0.3155
13750SOL    HW153309   7.453   2.811   0.929 -0.1681 -1.7895 -1.6445
13750SOL    HW253310   7.544   2.907   0.834  0.1040  0.2940  0.6625
13751SOL     OW53311   2.828   4.122   3.515 -0.2019 -0.3055 -0.1455
13751SOL    HW153312   2.883   4.042   3.491 -0.9706 -0.9685  0.2731
13751SOL    HW253313   2.809   4.120   3.613 -0.4096  0.2762 -0.1740
13752SOL     OW53314   1.710   7.245   9.027 -0.2965 -0.3656 -0.5537
13752SOL    HW153315   1.753   7.207   8.945 -3.3950 -2.1139 -1.4457
13752SOL    HW253316   1.730   7.187   9.106  0.9658  0.1840 -0.4568
13753SOL     OW53317   5.251   3.566   7.960  0.2043  0.3338 -0.1959
13753SOL    HW153318   5.313   3.536   8.033 -0.0220  0.9283  0.2403
13753SOL    HW253319   5.297   3.636   7.904 -0.1625  0.9598  0.2825
13754SOL     OW53320   6.967   6.478   2.870  0.6493  0.4769  0.9895
13754SOL    HW153321   6.980   6.537   2.950 -1.0007 -1.8307  3.0435
13754SOL    HW253322   6.964   6.383   2.899 -0.4286 -0.3934 -1.7806
13755SOL     OW53323   3.552   4.547   0.303 -0.0261  0.5992 -0.3595
13755SOL    HW153324   3.622   4.524   0.371 -1.6716 -1.6797  0.6643
13755SOL    HW253325   3.500   4.464   0.281 -1.0537  1.8276 -2.6386
13756SOL     OW53326   4.132   5.751   8.421  0.0912 -0.0564 -0.4574
13756SOL    HW153327   4.044   5.787   8.451  0.5094  0.7598 -0.1708
13756SOL    HW253328   4.193   5.827   8.398  1.0404 -0.5734  0.2751
13757SOL     OW53329   7.629   9.778   3.256  0.1635 -0.3719  0.2414
13757SOL    HW153330   7.596   9.817   3.342  0.1118 -0.6586  0.3509
13757SOL    HW253331   7.688   9.700   3.275 -0.5843 -1.0060 -0.0013
13758SOL     OW53332   7.295   4.021   8.557  0.1107 -0.7318 -1.1671
13758SOL    HW153333   7.262   3.932   8.526  0.7720 -1.6220  0.5960
13758SOL    HW253334   7.395   4.021   8.560  0.1147  0.0269 -0.9960
13759SOL     OW53335   5.742   4.537   3.435 -0.3026 -0.2962 -0.1962
13759SOL    HW153336   5.825   4.494   3.398 -0.2086 -0.3828  0.1183
13759SOL    HW253337   5.759   4.567   3.528 -0.8571 -0.9813  0.1285
13760SOL     OW53338   1.294   8.958   6.631  0.0065 -0.5580 -0.4394
13760SOL    HW153339   1.254   9.017   6.561 -0.0445 -0.8999 -0.6990
13760SOL    HW253340   1.393   8.959   6.623  0.0235 -0.1623 -0.1658
13761SOL     OW53341   6.356   8.028   2.497 -0.0164  0.1152  0.0708
13761SOL    HW153342   6.274   8.007   2.551 -0.7190 -0.8523 -1.3588
13761SOL    HW253343   6.340   8.109   2.441  0.9118  1.4666  1.6814
13762SOL     OW53344   8.865   4.405   4.159  0.4884  0.4686 -0.7390
13762SOL    HW153345   8.779   4.354   4.166  0.8243  0.1098  0.9866
13762SOL    HW253346   8.846   4.500   4.137 -0.3075  0.2099 -1.1859
13763SOL     OW53347   4.927   6.015   2.428 -0.2781 -0.5388 -0.4741
13763SOL    HW153348   4.962   6.034   2.336  2.1132 -1.2152  0.2695
13763SOL    HW253349   4.916   5.916   2.439 -1.2379 -0.4152 -0.2444
13764SOL     OW53350   5.955   5.754   7.573  0.0214 -0.0933 -0.0643
13764SOL    HW153351   6.035   5.753   7.633 -0.5788  1.0484  0.7747
13764SOL    HW253352   5.984   5.765   7.478  0.8464  0.8087  0.2845
13765SOL     OW53353   5.392   6.713   8.425  0.3923 -0.1468 -0.6449
13765SOL    HW153354   5.366   6.806   8.450 -0.5236  0.0725 -2.3416
13765SOL    HW253355   5.316   6.651   8.444 -0.0749 -0.0776 -2.2553
13766SOL     OW53356   0.041   6.624   4.160  0.7307 -0.2739 -0.3929
13766SOL    HW153357   0.118   6.600   4.102  1.2967  0.6176 -0.0284
13766SOL    HW253358   0.047   6.575   4.247 -0.2715 -1.8281 -1.1839
13767SOL     OW53359   2.939   5.487   0.370 -0.1205  0.3169 -0.0686
13767SOL    HW153360   2.950   5.542   0.287  1.1340 -1.0969 -0.8730
13767SOL    HW253361   3.026   5.484   0.419  0.1982 -1.9907 -0.7179
13768SOL     OW53362   5.149   5.733   9.485  0.5667  0.6084 -0.3104
13768SOL    HW153363   5.243   5.741   9.453  1.4766 -0.4279  2.0265
13768SOL    HW253364   5.146   5.741   9.585 -1.5005 -1.9174 -0.1086
13769SOL     OW53365   6.502   6.350   0.880  0.0811 -0.0498  0.1618
13769SOL    HW153366   6.435   6.419   0.855  2.9779  2.5697 -0.7187
13769SOL    HW253367   6.565   6.387   0.948  1.7954 -1.7641 -0.4252
13770SOL     OW53368   0.069   1.381   2.638  0.2578 -0.6710 -0.2775
13770SOL    HW153369   0.026   1.325   2.709 -1.2337 -1.3731 -1.7212
13770SOL    HW253370   0.039   1.476   2.647 -1.4792 -1.1278 -1.1779
13771SOL     OW53371   2.019   1.974   7.822 -0.1515 -0.0627 -0.7324
13771SOL    HW153372   1.944   2.019   7.773 -1.0774  1.7093  2.2286
13771SOL    HW253373   1.993   1.958   7.917  1.9148 -2.7465 -0.5386
13772SOL     OW53374   4.361   5.655   7.752  0.1110 -0.1125  0.1144
13772SOL    HW153375   4.402   5.725   7.810  0.5818  0.2111 -0.6012
13772SOL    HW253376   4.387   5.671   7.657 -3.3443  1.3950 -0.6861
13773SOL     OW53377   2.399   3.362   6.192  0.2971  0.2874  0.4978
13773SOL    HW153378   2.407   3.267   6.221 -0.2142 -0.0888 -0.5821
13773SOL    HW253379   2.390   3.421   6.273 -0.8389 -0.7142  1.1073
13774SOL     OW53380   4.729   0.212   7.525 -0.0148 -0.1610  0.0070
13774SOL    HW153381   4.774   0.159   7.453  0.1041 -0.0824  0.0233
13774SOL    HW253382   4.657   0.157   7.567 -0.9564  0.2354 -1.0431
13775SOL     OW53383   2.343   8.049   8.526 -0.2537  0.4731 -0.1035
13775SOL    HW153384   2.332   8.099   8.612 -1.4298 -0.0195  0.0426
13775SOL    HW253385   2.440   8.045   8.502  0.4777 -2.1520  2.8913
13776SOL     OW53386   7.204   3.941   9.583 -0.3232  0.1031  0.0700
13776SOL    HW153387   7.174   3.914   9.491  0.6853 -0.4840 -0.0950
13776SOL    HW253388   7.257   4.026   9.576  2.7237 -1.7589 -0.3702
13777SOL     OW53389   3.462   7.766   7.479 -0.2901  0.2459  0.1563
13777SOL    HW153390   3.447   7.722   7.391 -1.2422 -1.0388  0.9525
13777SOL    HW253391   3.451   7.865   7.468  0.1564  0.1544 -1.2770
13778SOL     OW53392   5.812   4.255   8.469  0.8619 -0.5064  0.1871
13778SOL    HW153393   5.851   4.314   8.398 -0.1664  0.3446  0.3124
13778SOL    HW253394   5.723   4.292   8.497  0.6160 -1.6358  0.8988
13779SOL     OW53395   5.743   4.102   9.144 -0.1921 -0.5316 -0.1407
13779SOL    HW153396   5.719   4.189   9.189 -1.3145 -0.2016 -1.3660
13779SOL    HW253397   5.807   4.120   9.070 -0.6799 -0.7121 -0.6042
13780SOL     OW53398   6.422   5.221   6.747  0.0209 -0.1667  0.3011
13780SOL    HW153399   6.476   5.154   6.695 -1.8306 -0.3906 -1.3920
13780SOL    HW253400   6.445   5.313   6.715  1.7064 -0.0334  1.8152
13781SOL     OW53401   6.801   6.840   6.724 -0.3277 -0.7086  0.1141
13781SOL    HW153402   6.707   6.871   6.734  0.3793  1.3092  0.8738
13781SOL    HW253403   6.827   6.784   6.802 -0.8330 -1.1019 -0.0002
13782SOL     OW53404   9.403   1.886   5.926  0.1025  0.0944 -0.4946
13782SOL    HW153405   9.317   1.857   5.968  1.0134  1.9856  2.9359
13782SOL    HW253406   9.389   1.975   5.881  0.1611  0.2098 -0.2854
13783SOL     OW53407   3.386   2.675   5.154 -0.1230  0.3842 -0.4712
13783SOL    HW153408   3.329   2.694   5.074  1.7443  0.9768 -1.6983
13783SOL    HW253409   3.330   2.633   5.226 -2.4452  2.4513 -1.0017
13784SOL     OW53410   5.778   1.766   3.551  0.1316  0.0598  0.3806
13784SOL    HW153411   5.699   1.707   3.541  0.4094 -0.4878  1.3663
13784SOL    HW253412   5.748   1.860   3.568 -0.3059  0.1535 -0.9170
13785SOL     OW53413   5.683   6.823   7.640  0.0267  0.0492 -0.0575
13785SOL    HW153414   5.772   6.862   7.616  0.3858 -0.1166  0.9415
13785SOL    HW253415   5.658   6.752   7.575  1.2800 -0.8520  0.4361
13786SOL     OW53416   3.958   3.859   8.769 -0.8063 -0.5131  0.5026
13786SOL    HW153417   3.999   3.768   8.760 -0.0561 -0.0690 -0.6690
13786SOL    HW253418   3.859   3.851   8.772 -0.8473 -1.1973 -1.9107
13787SOL     OW53419   1.159   7.882   0.306 -0.6194 -0.3180  0.0833
13787SOL    HW153420   1.237   7.862   0.366  0.7795  1.6734 -1.0464
13787SOL    HW253421   1.126   7.797   0.265  1.9464 -0.9759 -0.6459
13788SOL     OW53422   4.786   4.433   3.385 -0.6216  0.0057  0.5361
13788SOL    HW153423   4.780   4.368   3.310  1.8235 -0.2726  0.5400
13788SOL    HW253424   4.859   4.499   3.366 -0.9072  0.7743  2.0333
13789SOL     OW53425   1.870   6.239   3.672 -0.0479  0.1235  0.1728
13789SOL    HW153426   1.773   6.227   3.651 -0.2750 -0.1396  1.3103
13789SOL    HW253427   1.881   6.254   3.771  1.1745 -1.1037  0.2358
13790SOL     OW53428   7.904   7.001   7.306  0.3455  0.3269  0.5267
13790SOL    HW153429   7.804   6.994   7.306  0.4672 -3.2514 -1.9871
13790SOL    HW253430   7.938   6.982   7.214  3.3706  1.5633  1.3386
13791SOL     OW53431   9.186   0.545   7.831 -0.4689 -0.0478  1.1484
13791SOL    HW153432   9.207   0.630   7.783  0.0894 -0.5309  0.5322
13791SOL    HW253433   9.261   0.480   7.819 -1.3914 -1.0338  0.6670
13792SOL     OW53434   6.769   2.649   6.671  0.4548  0.9272 -0.5630
13792SOL    HW153435   6.711   2.696   6.738  0.0804 -1.1902  0.6305
13792SOL    HW253436   6.713   2.585   6.618  1.5188 -0.4783 -0.0150
13793SOL     OW53437   4.562   5.647   4.367 -0.2491 -0.6574 -0.9055
13793SOL    HW153438   4.532   5.728   4.315  0.4857 -0.2945 -0.7781
13793SOL    HW253439   4.501   5.571   4.348  0.3264 -0.6897 -2.7442
13794SOL     OW53440   7.206   3.005   2.622 -0.7436 -0.0265  0.5332
13794SOL    HW153441   7.223   3.037   2.529 -0.8552  0.1998  0.5910
13794SOL    HW253442   7.109   3.018   2.644 -0.6448  0.2344  0.8044
13795SOL     OW53443   3.580   5.532   0.951  0.0702  0.5837 -0.9494
13795SOL    HW153444   3.638   5.487   0.884  2.5320  0.7537  0.9774
13795SOL    HW253445   3.525   5.463   0.999 -0.4716  0.2924 -1.9744
13796SOL     OW53446   5.531   6.056   5.440 -0.2978  0.2555 -0.2337
13796SOL    HW153447   5.549   6.154   5.448 -1.5488  0.4262  0.6124
13796SOL    HW253448   5.467   6.040   5.365 -0.0634  0.0872 -0.3962
13797SOL     OW53449   1.488   7.957   1.740 -0.0972  0.0579  0.0220
13797SOL    HW153450   1.438   7.916   1.663  0.0463  1.9936 -1.1387
13797SOL    HW253451   1.464   7.908   1.824 -1.2301 -1.2973 -1.0412
13798SOL     OW53452   4.022   7.678   9.239 -0.1074  0.0551 -0.6890
13798SOL    HW153453   4.045   7.772   9.261 -1.4692  0.2298  0.0472
13798SOL    HW253454   3.989   7.673   9.145 -0.0816  0.3152 -0.7116
13799SOL     OW53455   3.874   1.613   8.538  0.3506 -0.6154 -0.2092
13799SOL    HW153456   3.966   1.588   8.508  0.0781 -0.6083 -1.0647
13799SOL    HW253457   3.863   1.712   8.532 -0.4287 -0.7921 -2.2367
13800SOL     OW53458   3.312   4.755   6.387  0.0681 -0.2835  0.0623
13800SOL    HW153459   3.231   4.698   6.400 -1.5795  1.9091 -0.2568
13800SOL    HW253460   3.353   4.735   6.298 -1.8672  0.6359 -1.0835
13801SOL     OW53461   7.596   5.064   5.929 -0.3559 -0.1939 -0.1819
13801SOL    HW153462   7.523   5.126   5.900  0.4799  1.4144  1.0954
13801SOL    HW253463   7.677   5.079   5.872 -0.0076  0.2075  0.4160
13802SOL     OW53464   3.172   1.433   9.053 -0.4904 -0.6774  0.0786
13802SOL    HW153465   3.269   1.424   9.075 -0.5555 -1.1483  0.1773
13802SOL    HW253466   3.117   1.418   9.136 -0.6370 -0.0378  0.1050
13803SOL     OW53467   4.093   3.283   5.526 -0.2530  0.5005 -0.7303
13803SOL    HW153468   3.998   3.253   5.531 -0.3652  1.0233  0.5442
13803SOL    HW253469   4.139   3.239   5.448 -1.4627  0.0605 -1.1980
13804SOL     OW53470   7.367   2.979   4.595  0.4808 -0.0670  0.5457
13804SOL    HW153471   7.404   3.028   4.516 -1.5889 -1.5584 -1.4350
13804SOL    HW253472   7.359   2.881   4.573  0.5385 -0.6344  2.8735
13805SOL     OW53473   2.411   7.398   7.741  0.2306  0.0074  0.3049
13805SOL    HW153474   2.408   7.430   7.835 -3.4879  1.5115 -0.2639
13805SOL    HW253475   2.431   7.475   7.680 -0.3470 -0.3628 -0.3641
13806SOL     OW53476   5.100   4.927   6.569  0.1909  0.0257  0.4853
13806SOL    HW153477   5.109   4.901   6.472 -0.1896  1.8014 -0.0431
13806SOL    HW253478   5.180   4.895   6.619  0.3029 -1.0873 -0.3782
13807SOL     OW53479   2.671   6.771   7.011 -0.3350 -0.7117  0.2960
13807SOL    HW153480   2.610   6.764   7.089 -1.3662 -0.5795 -0.4800
13807SOL    HW253481   2.660   6.691   6.952  0.4249 -0.8063  0.2754
13808SOL     OW53482   4.005   1.011   1.962  0.5227 -0.7349  0.3348
13808SOL    HW153483   4.010   1.023   1.863 -0.4211 -0.0778  0.3556
13808SOL    HW253484   3.982   0.916   1.984 -2.4256 -0.1988 -0.2012
13809SOL     OW53485   2.732   4.630   7.570 -0.0240  0.2955 -0.0085
13809SOL    HW153486   2.649   4.656   7.521 -0.7368  0.0488  1.0585
13809SOL    HW253487   2.769   4.546   7.530 -0.2509  0.4340 -0.5182
13810SOL     OW53488   1.583   1.183   9.336  0.1866 -0.4167 -0.4541
13810SOL    HW153489   1.629   1.104   9.378 -0.0169 -0.1680  0.2416
13810SOL    HW253490   1.505   1.210   9.393  0.7991  0.8640 -0.2070
13811SOL     OW53491   6.777   2.925   0.051  0.1816  0.0751  0.3362
13811SOL    HW153492   6.723   2.855   0.098 -2.5751  1.7525 -0.2244
13811SOL    HW253493   6.804   2.995   0.117 -1.1614  0.9138  0.0112
13812SOL     OW53494   5.139   5.597   0.527  0.1488 -0.0830  0.2392
13812SOL    HW153495   5.217   5.627   0.474 -0.5453  1.8997  0.2901
13812SOL    HW253496   5.065   5.664   0.519 -1.9231 -2.3970 -0.6125
13813SOL     OW53497   4.624   8.114   8.213 -0.3476 -0.0787  0.1875
13813SOL    HW153498   4.703   8.065   8.173 -1.1668 -1.2293 -0.0518
13813SOL    HW253499   4.603   8.194   8.156 -0.4375 -0.7516 -0.7412
13814SOL     OW53500   8.111   2.706   7.128  0.3732 -0.2709 -0.6430
13814SOL    HW153501   8.097   2.804   7.118 -2.1040 -0.5567 -0.3194
13814SOL    HW253502   8.085   2.659   7.044  0.9223 -0.7185 -0.5709
13815SOL     OW53503   3.449   4.268   0.329 -0.4983  0.0179  0.7573
13815SOL    HW153504   3.406   4.192   0.278 -0.6099  1.2653 -1.0600
13815SOL    HW253505   3.378   4.333   0.356 -0.1113  0.6767  0.1994
13816SOL     OW53506   0.769   3.138   4.788  0.0470 -0.0654 -0.2925
13816SOL    HW153507   0.763   3.209   4.718 -0.0041  0.4262  0.2054
13816SOL    HW253508   0.862   3.133   4.823  0.0963 -0.3818 -0.4676
13817SOL     OW53509   3.474   3.299   0.240  1.0095  0.0841  0.0566
13817SOL    HW153510   3.420   3.270   0.161 -0.7071 -0.5422  1.3954
13817SOL    HW253511   3.519   3.219   0.281  0.7177  0.1627  0.5425
13818SOL     OW53512   7.035   3.018   3.732  0.5046 -0.5542  0.0277
13818SOL    HW153513   7.042   3.118   3.733  1.7705 -0.6222  1.4974
13818SOL    HW253514   7.036   2.985   3.827 -1.5804 -1.8679 -0.3828
13819SOL     OW53515   4.755   2.966   5.517 -0.2216 -0.1912 -0.2077
13819SOL    HW153516   4.721   2.916   5.437 -2.1523  1.0596 -0.2047
13819SOL    HW253517   4.799   3.050   5.487 -2.1594  0.9606  0.0697
13820SOL     OW53518   3.441   6.126   3.103 -0.3345  0.3952  0.2798
13820SOL    HW153519   3.383   6.090   3.176 -0.5662  1.4417  0.6276
13820SOL    HW253520   3.384   6.166   3.031 -0.1251 -1.2108 -0.7906
13821SOL     OW53521   3.316   5.481   3.338 -0.1972  0.4250 -0.3748
13821SOL    HW153522   3.292   5.566   3.386 -0.5761  0.6291 -0.9199
13821SOL    HW253523   3.405   5.491   3.295  0.5496 -0.0747  1.0351
13822SOL     OW53524   5.322   0.760   0.696  0.6443 -0.4010 -0.1723
13822SOL    HW153525   5.261   0.740   0.619 -0.1944 -0.8217  0.5981
13822SOL    HW253526   5.275   0.817   0.763  1.6784  0.7353 -0.3990
13823SOL     OW53527   6.832   4.899   5.868 -0.4697  0.5675  0.6476
13823SOL    HW153528   6.896   4.965   5.827 -0.8913 -0.6757 -2.1119
13823SOL    HW253529   6.878   4.850   5.942  2.0700 -0.7972 -1.7447
13824SOL     OW53530   8.618   4.421   0.701  0.3980 -0.7243 -0.2266
13824SOL    HW153531   8.697   4.416   0.762  0.2646  0.4285  0.0629
13824SOL    HW253532   8.570   4.508   0.715 -1.3440 -1.7097  0.1174
13825SOL     OW53533   5.501   3.747   9.048 -0.1093 -0.2043 -0.3631
13825SOL    HW153534   5.411   3.721   9.083  0.6122 -2.2714  0.0259
13825SOL    HW253535   5.555   3.788   9.121 -0.9958  1.7395 -0.7888
13826SOL     OW53536   2.875   9.487   6.420 -0.2322  0.1348 -0.1883
13826SOL    HW153537   2.812   9.556   6.385 -0.4992  0.1491  0.3189
13826SOL    HW253538   2.937   9.458   6.347 -1.0987 -0.1972 -0.7941
13827SOL     OW53539   2.815   6.292   0.492  0.0152  0.0520 -0.1459
13827SOL    HW153540   2.874   6.371   0.508  0.1919  0.1248 -1.1307
13827SOL    HW253541   2.796   6.246   0.579  2.5982 -0.7335  0.0319
13828SOL     OW53542   8.183   6.317   6.743  0.0612  0.4433  0.0364
13828SOL    HW153543   8.197   6.314   6.644  0.3905  0.2715  0.0863
13828SOL    HW253544   8.216   6.232   6.784 -2.2038 -0.4622  0.0382
13829SOL     OW53545   8.018   5.495   4.792  0.3804  1.0350  0.0182
13829SOL    HW153546   7.997   5.423   4.858 -0.1797 -0.4280 -1.7345
13829SOL    HW253547   8.117   5.511   4.790  0.4172  0.9661  1.0573
13830SOL     OW53548   8.011   3.203   3.360 -0.1828 -0.8037 -0.0420
13830SOL    HW153549   8.019   3.286   3.306 -1.5376 -0.9890 -0.5649
13830SOL    HW253550   7.946   3.141   3.316 -3.1143 -0.0044  2.8995
13831SOL     OW53551   3.332   0.728   6.172 -1.3563  0.2505  0.0203
13831SOL    HW153552   3.235   0.720   6.149 -1.4573 -0.3097  0.6108
13831SOL    HW253553   3.357   0.654   6.234 -0.5825  0.4791 -0.0149
13832SOL     OW53554   4.662   6.226   5.501  0.4020  0.0690 -0.3507
13832SOL    HW153555   4.698   6.147   5.551  0.7977  0.5919  0.1823
13832SOL    HW253556   4.722   6.246   5.424 -0.6634 -1.2691 -1.5544
13833SOL     OW53557   1.484   7.324   6.432 -0.1921  0.8315 -0.1054
13833SOL    HW153558   1.578   7.319   6.466 -0.5501  1.9139  1.0957
13833SOL    HW253559   1.484   7.362   6.340  0.8615 -2.8289 -1.7491
13834SOL     OW53560   6.067   2.886   9.143  0.4394 -0.2483 -0.2195
13834SOL    HW153561   5.986   2.869   9.200 -1.0252  1.7179 -1.6754
13834SOL    HW253562   6.076   2.984   9.126  2.0456 -0.6377 -1.6914
13835SOL     OW53563   0.961   2.527   5.962 -0.3294 -0.3851  0.5333
13835SOL    HW153564   0.897   2.464   5.918  1.0186 -2.0710  0.9574
13835SOL    HW253565   1.018   2.478   6.026  1.5494  1.0568  0.0108
13836SOL     OW53566   6.461   3.611   8.561 -0.4744  0.0532  0.0699
13836SOL    HW153567   6.367   3.619   8.594 -1.0715  0.5270 -1.6617
13836SOL    HW253568   6.483   3.515   8.546 -1.1712  0.0229 -0.8163
13837SOL     OW53569   7.631   5.659   9.310  0.5831  0.1566  0.0614
13837SOL    HW153570   7.600   5.579   9.362 -1.6946  1.1055  0.1890
13837SOL    HW253571   7.730   5.654   9.298  0.6754 -1.8710  1.4554
13838SOL     OW53572   3.450   6.097   0.630  0.5128 -0.1723 -0.0960
13838SOL    HW153573   3.442   6.190   0.594 -2.5218 -0.6381 -0.7740
13838SOL    HW253574   3.511   6.044   0.572 -0.5386  0.4293 -1.7741
13839SOL     OW53575   3.199   6.273   1.531  0.1379 -0.1833 -0.4358
13839SOL    HW153576   3.159   6.332   1.601  0.4747  0.2175 -0.5815
13839SOL    HW253577   3.134   6.261   1.456 -0.3556 -0.8856  0.0951
13840SOL     OW53578   1.938   6.368   4.405 -0.0432 -0.5081 -0.0264
13840SOL    HW153579   1.991   6.285   4.389 -0.9431 -0.9531 -0.7578
13840SOL    HW253580   1.957   6.403   4.497  2.2746 -0.0879 -0.6378
13841SOL     OW53581   4.260   4.735   8.386 -0.0253  0.1343 -0.1157
13841SOL    HW153582   4.321   4.764   8.459 -1.6347  2.5874  0.3471
13841SOL    HW253583   4.175   4.699   8.425 -0.9990  1.7037 -0.7271
13842SOL     OW53584   4.388   4.160   1.209 -0.3276  0.2332 -0.8714
13842SOL    HW153585   4.303   4.113   1.186 -0.0094 -0.3156 -0.9539
13842SOL    HW253586   4.399   4.240   1.150 -1.0474  0.6134 -0.4955
13843SOL     OW53587   5.959   9.857   0.757 -0.2505  0.5721 -0.4915
13843SOL    HW153588   5.882   9.824   0.704  0.0114 -0.8722  0.0247
13843SOL    HW253589   6.028   9.896   0.695  0.1970 -1.3848 -1.2399
13844SOL     OW53590   7.694   9.010   1.883  0.4635  0.8162  0.4195
13844SOL    HW153591   7.676   9.048   1.793 -1.2442  0.5952  0.6442
13844SOL    HW253592   7.624   8.942   1.905  1.2401  0.3899  1.6446
13845SOL     OW53593   4.479   3.934   7.301 -0.3616 -0.3361 -0.5555
13845SOL    HW153594   4.427   3.852   7.276 -1.9017  0.2594  0.6440
13845SOL    HW253595   4.573   3.924   7.269 -0.4471 -2.7138 -0.1953
13846SOL     OW53596   4.090   5.297   0.469 -0.0803 -0.4722 -0.1727
13846SOL    HW153597   4.098   5.205   0.429  0.2416 -0.2288 -0.6782
13846SOL    HW253598   4.097   5.365   0.396  0.7676 -0.0053  0.3391
13847SOL     OW53599   1.612   1.115   5.149  0.3877  0.2361  0.5822
13847SOL    HW153600   1.600   1.206   5.109 -0.0282 -0.4835 -0.9593
13847SOL    HW253601   1.690   1.070   5.105  0.8797  0.0041  1.6633
13848SOL     OW53602   3.118   2.496   9.762  0.1726  0.0852 -0.4085
13848SOL    HW153603   3.045   2.432   9.784 -0.3554  0.2251 -1.6976
13848SOL    HW253604   3.185   2.451   9.703  0.1294  0.5266 -0.7993
13849SOL     OW53605   6.684   3.281   9.957  0.1418 -0.0407 -0.5541
13849SOL    HW153606   6.623   3.358   9.978  1.9505  1.4779 -0.7603
13849SOL    HW253607   6.700   3.228  10.040  0.7395  1.1718  0.1173
13850SOL     OW53608   9.304   4.710   7.606  0.4736 -0.0338 -0.2147
13850SOL    HW153609   9.359   4.793   7.610  0.0340  0.2617 -0.2584
13850SOL    HW253610   9.329   4.649   7.681  0.0631  0.5967  0.4346
13851SOL     OW53611   0.182   8.641   0.082  0.0883 -0.0553 -0.5245
13851SOL    HW153612   0.116   8.589   0.028 -0.4437 -1.7149  1.6399
13851SOL    HW253613   0.273   8.603   0.070  0.1611  0.3268 -1.1721
13852SOL     OW53614   2.019   1.011   0.274 -0.4736 -0.7525 -0.3181
13852SOL    HW153615   2.079   0.943   0.315 -0.4940 -0.4047  0.2877
13852SOL    HW253616   2.014   1.092   0.332  1.2714  0.6795 -2.0857
13853SOL     OW53617   5.240   7.262   8.642 -0.2066 -0.5537  0.4505
13853SOL    HW153618   5.256   7.355   8.609 -0.7376  0.3467  2.6200
13853SOL    HW253619   5.315   7.203   8.613  2.1070  1.4042  2.2126
13854SOL     OW53620   2.249   4.237   1.788  0.0299 -0.5974 -0.8701
13854SOL    HW153621   2.150   4.238   1.804 -0.0178 -2.5190 -0.8576
13854SOL    HW253622   2.273   4.307   1.722 -1.2592  0.2867 -0.4245
13855SOL     OW53623   1.898   5.578   6.554  0.4953  0.3466  0.2163
13855SOL    HW153624   1.868   5.487   6.582  0.8598  0.2184  0.1910
13855SOL    HW253625   1.939   5.624   6.633  0.5822  0.3778  0.1521
13856SOL     OW53626   9.474   4.529   0.765 -0.3714  0.0922  1.0029
13856SOL    HW153627   9.516   4.494   0.849  0.1245 -2.8038 -0.3804
13856SOL    HW253628   9.528   4.498   0.686 -2.0586  0.9323 -0.5062
13857SOL     OW53629   7.888   3.548   9.731  0.1945  0.5743 -0.0545
13857SOL    HW153630   7.793   3.540   9.701 -0.0304  1.2680  0.4742
13857SOL    HW253631   7.909   3.643   9.754  1.0781  0.4626 -0.3592
13858SOL     OW53632   5.572   6.369   6.838  0.1157 -0.0257 -0.1011
13858SOL    HW153633   5.534   6.295   6.894 -1.9730  1.1844  0.1351
13858SOL    HW253634   5.573   6.453   6.892  0.2332  0.6470 -1.1460
13859SOL     OW53635   7.237   5.052   1.834 -0.1013 -0.7257  0.5085
13859SOL    HW153636   7.329   5.039   1.870  0.2804 -1.2636 -0.6275
13859SOL    HW253637   7.198   4.963   1.809 -1.0808 -0.5364  1.3526
13860SOL     OW53638   0.915   1.108   6.772  0.6214 -0.1181  0.4629
13860SOL    HW153639   0.924   1.067   6.863  0.5985 -1.9263 -0.3222
13860SOL    HW253640   0.818   1.107   6.745  0.8991 -1.8065 -0.5517
13861SOL     OW53641   9.845   1.221   3.379  0.0697  0.1801 -0.0848
13861SOL    HW153642   9.890   1.281   3.445 -0.7550 -0.2231  0.8460
13861SOL    HW253643   9.882   1.129   3.385 -1.0453 -0.2091  0.8510
13862SOL     OW53644   5.018   6.196   8.592 -0.0736  0.4138  0.2526
13862SOL    HW153645   5.052   6.103   8.601  0.4411  0.6166  0.3912
13862SOL    HW253646   5.019   6.224   8.496  1.4636  0.9207  0.4158
13863SOL     OW53647   0.710   2.985   0.599  0.3837 -0.3571  0.8799
13863SOL    HW153648   0.630   2.937   0.634  0.9105 -1.1808  0.9569
13863SOL    HW253649   0.680   3.055   0.533 -0.3735 -0.8728  0.6666
13864SOL     OW53650   2.578   0.688   4.738 -0.1850  0.1317  0.2702
13864SOL    HW153651   2.578   0.788   4.733  0.2656  0.1360  0.3762
13864SOL    HW253652   2.537   0.651   4.655  0.8863  0.3720 -0.3756
13865SOL     OW53653   3.534   8.881   6.957  0.1409 -0.1118 -1.0340
13865SOL    HW153654   3.606   8.918   7.015 -0.2490  1.1176 -1.3108
13865SOL    HW253655   3.569   8.870   6.863 -0.1804  0.9950 -1.2893
13866SOL     OW53656   5.986   5.381   6.766  0.3381 -0.1111  0.1003
13866SOL    HW153657   5.938   5.385   6.854  0.0791  2.3318 -0.1140
13866SOL    HW253658   5.922   5.350   6.695 -1.0211  3.1549 -0.1886
13867SOL     OW53659   3.188   6.784   7.720  0.1629 -0.5939  0.2642
13867SOL    HW153660   3.148   6.722   7.653  0.2445 -0.4599  0.0922
13867SOL    HW253661   3.284   6.802   7.696  0.6999 -1.8826  1.3409
13868SOL     OW53662   6.001   7.515   1.604 -0.6596 -0.1837 -0.2263
13868SOL    HW153663   5.957   7.485   1.688 -0.7837 -1.3870 -0.7155
13868SOL    HW253664   6.037   7.436   1.554  0.6928  0.6352 -0.5977
13869SOL     OW53665   4.872   2.471   2.015 -0.2738 -0.1273  0.6684
13869SOL    HW153666   4.815   2.446   2.093  3.2438 -0.3687  3.2918
13869SOL    HW253667   4.885   2.391   1.956 -0.9169 -0.6221  1.1906
13870SOL     OW53668   8.252   2.920   2.372  0.2150 -0.2231 -0.6850
13870SOL    HW153669   8.290   2.949   2.285  1.9043  0.8915  0.3994
13870SOL    HW253670   8.154   2.901   2.361  0.3986 -0.0250 -2.7873
13871SOL     OW53671   3.168   6.740   1.514  0.1429 -0.2067 -0.8946
13871SOL    HW153672   3.115   6.691   1.445 -0.8671  1.1990 -1.1431
13871SOL    HW253673   3.242   6.790   1.470 -0.6564  0.8949 -1.0051
13872SOL     OW53674   1.698   9.473   9.607  0.5424 -0.2450 -0.1090
13872SOL    HW153675   1.732   9.449   9.698  0.5150 -0.4006 -0.1386
13872SOL    HW253676   1.607   9.435   9.595  0.4348  0.0097 -0.1009
13873SOL     OW53677   3.353   7.385   1.691 -0.3094 -0.2959  0.4144
13873SOL    HW153678   3.330   7.358   1.784 -1.7367 -1.3910 -0.2231
13873SOL    HW253679   3.279   7.440   1.652  0.3755  0.3483  0.0100
13874SOL     OW53680   5.045   7.291   3.559  0.4096 -0.4482  0.2863
13874SOL    HW153681   5.023   7.352   3.636  0.6636  0.8872 -0.6918
13874SOL    HW253682   4.996   7.320   3.478  1.1135 -1.1067 -0.3871
13875SOL     OW53683   6.484   2.554   8.527  0.3638  0.5709  0.2646
13875SOL    HW153684   6.456   2.623   8.461 -1.0475  0.9617  1.2544
13875SOL    HW253685   6.452   2.464   8.497 -0.0759  0.7157  0.3004
13876SOL     OW53686   4.463   8.724   1.969 -0.2291 -0.0262  0.1648
13876SOL    HW153687   4.556   8.736   2.004 -0.2497 -0.8169  0.5010
13876SOL    HW253688   4.422   8.642   2.010 -0.2231 -1.0279 -1.7499
13877SOL     OW53689   4.144   9.250   6.688  0.1773  0.1275  0.4012
13877SOL    HW153690   4.163   9.348   6.691  0.6516  0.0438  0.2335
13877SOL    HW253691   4.085   9.225   6.764 -2.6241  1.1113 -1.3739
13878SOL     OW53692   3.911   2.033   0.115  0.0643  0.2716 -0.1049
13878SOL    HW153693   3.941   2.075   0.200  0.8449  1.6567 -1.0436
13878SOL    HW253694   3.944   1.938   0.111 -0.2101  0.1099  1.2313
13879SOL     OW53695   3.089   6.988   8.188  0.5737  0.1268  0.3637
13879SOL    HW153696   3.142   6.966   8.106 -0.9890  0.4562 -0.7576
13879SOL    HW253697   3.136   7.061   8.239  0.8588  0.9073 -0.9779
13880SOL     OW53698   2.235   1.757   0.838 -0.2764 -0.2392  0.1080
13880SOL    HW153699   2.189   1.680   0.881  1.8231 -1.6877 -0.1221
13880SOL    HW253700   2.288   1.724   0.759  0.9518  1.3616  0.2282
13881SOL     OW53701   1.241   5.913   3.257 -0.3021 -0.0137  0.3072
13881SOL    HW153702   1.196   5.854   3.324 -0.3628  0.3308  0.5708
13881SOL    HW253703   1.282   5.991   3.304  0.8901 -0.5163  0.1222
13882SOL     OW53704   3.638   3.775   9.411  0.2403  0.3130 -0.4153
13882SOL    HW153705   3.553   3.787   9.358  0.0763 -1.4173 -0.5776
13882SOL    HW253706   3.616   3.738   9.501  0.8146 -0.0287 -0.4130
13883SOL     OW53707   3.279   2.457   6.462 -0.6067  0.2676 -0.4201
13883SOL    HW153708   3.260   2.364   6.432  0.2716  0.0025 -0.1413
13883SOL    HW253709   3.365   2.460   6.513  0.7638  1.6996 -2.7506
13884SOL     OW53710   7.839   2.491   9.203 -0.5977  0.2981 -0.1252
13884SOL    HW153711   7.756   2.476   9.150 -0.2434 -0.3993 -0.4865
13884SOL    HW253712   7.821   2.559   9.274 -1.6509 -0.3033  0.2005
13885SOL     OW53713   2.019   5.549   8.229 -0.0211  0.4583  0.4519
13885SOL    HW153714   1.987   5.456   8.246  0.2714  0.6768  2.2308
13885SOL    HW253715   1.985   5.580   8.140 -2.2344 -0.4128  0.9659
13886SOL     OW53716   4.162   9.156   3.020 -0.1754 -0.1920 -0.0453
13886SOL    HW153717   4.142   9.250   3.048 -0.6931 -0.1577 -0.5203
13886SOL    HW253718   4.172   9.152   2.921 -0.9773 -0.7858 -0.1057
13887SOL     OW53719   8.753   7.799   5.261  0.1679  0.3381 -0.4198
13887SOL    HW153720   8.693   7.719   5.260 -1.5630  1.6152 -0.3515
13887SOL    HW253721   8.699   7.882   5.248  1.9004  1.5463 -0.1262
13888SOL     OW53722   3.840   3.959   9.401 -0.6863 -0.0631  0.3562
13888SOL    HW153723   3.901   3.961   9.480 -0.7626 -0.6866  0.4337
13888SOL    HW253724   3.786   3.875   9.403 -0.1284 -0.4637 -0.7785
13889SOL     OW53725   3.947   5.362   7.300  0.1820 -0.4799 -0.5534
13889SOL    HW153726   3.848   5.362   7.313 -0.0605  0.0490 -2.2576
13889SOL    HW253727   3.969   5.396   7.208  2.0117  0.7224  0.2851
13890SOL     OW53728   3.062   9.186   0.303  0.0078 -0.0014  0.3071
13890SOL    HW153729   2.967   9.189   0.335 -0.7208  0.3068 -1.8201
13890SOL    HW253730   3.083   9.271   0.255  1.4734  0.0576  1.0436
13891SOL     OW53731   4.809   4.123   2.486 -0.0158 -0.1413 -0.0307
13891SOL    HW153732   4.796   4.062   2.408  1.5289  0.5547 -0.8561
13891SOL    HW253733   4.836   4.214   2.453  0.7631  0.1272  1.3086
13892SOL     OW53734   9.489   6.322   0.268 -0.4560 -0.4893 -0.5301
13892SOL    HW153735   9.439   6.271   0.338 -0.3430 -0.2358 -0.2656
13892SOL    HW253736   9.545   6.258   0.215 -0.3950 -0.6570 -0.2674
13893SOL     OW53737   0.868   7.402   4.450  0.4712 -0.1064  0.1367
13893SOL    HW153738   0.784   7.347   4.439  0.0481  0.7285 -0.9427
13893SOL    HW253739   0.918   7.370   4.530 -1.1968 -0.2062  1.1720
13894SOL     OW53740   5.622   6.861   5.210 -0.5884 -0.3324 -0.4960
13894SOL    HW153741   5.591   6.813   5.293  1.0682 -0.1688  0.2170
13894SOL    HW253742   5.653   6.793   5.143 -1.2426 -0.4191 -0.7223
13895SOL     OW53743   9.896   4.474   2.659  0.5404  0.6179 -0.5197
13895SOL    HW153744   9.880   4.454   2.756 -1.5604 -1.2116 -1.2242
13895SOL    HW253745   9.985   4.437   2.632  0.4425 -0.2627  0.3265
13896SOL     OW53746   7.083   7.516   3.763  0.3905 -0.6202 -0.0182
13896SOL    HW153747   7.125   7.457   3.694 -2.0783 -2.3078 -0.1326
13896SOL    HW253748   6.999   7.556   3.726 -0.0882 -0.2345  1.4471
13897SOL     OW53749   9.544   4.396   8.681 -0.2144  0.1232  0.0676
13897SOL    HW153750   9.464   4.368   8.628  0.8549 -0.3828 -1.3230
13897SOL    HW253751   9.515   4.453   8.758 -1.9377 -0.3996 -0.1693
13898SOL     OW53752   6.505   6.859   4.970  0.1459  0.4127  0.4134
13898SOL    HW153753   6.485   6.840   5.066  3.0889 -1.9680  0.6168
13898SOL    HW253754   6.469   6.786   4.913 -0.5869  1.2560 -0.2269
13899SOL     OW53755   2.209   6.100   0.395 -0.1113 -0.3273  0.5953
13899SOL    HW153756   2.297   6.074   0.357 -1.1164 -0.9211 -1.3633
13899SOL    HW253757   2.212   6.091   0.495  1.7519 -1.1807  0.4771
13900SOL     OW53758   7.005   7.873   5.398 -0.2233  0.1146  0.1003
13900SOL    HW153759   7.041   7.808   5.330 -1.4424 -1.0295  0.5321
13900SOL    HW253760   6.929   7.924   5.359  0.0182  0.4997  0.1296
13901SOL     OW53761   6.150   3.878   3.881  0.0578 -0.0214 -0.2595
13901SOL    HW153762   6.153   3.798   3.821  0.3595  0.6065 -1.0908
13901SOL    HW253763   6.078   3.940   3.849  0.1110  0.2379  0.1252
13902SOL     OW53764   2.191   8.652   7.928 -0.4463  0.2616 -0.1938
13902SOL    HW153765   2.256   8.630   7.856  0.2373  0.8611  0.2375
13902SOL    HW253766   2.206   8.593   8.007 -1.2292 -0.4293 -0.5534
13903SOL     OW53767   6.856   0.257   0.630 -0.2628 -0.4075 -0.0623
13903SOL    HW153768   6.794   0.303   0.567  2.0933  1.7904 -0.8689
13903SOL    HW253769   6.865   0.311   0.714 -1.1776 -1.8608  0.9805
13904SOL     OW53770   8.192   3.108   4.505  0.0478 -0.1452  0.0280
13904SOL    HW153771   8.168   3.066   4.417  1.9400  0.3616 -0.7546
13904SOL    HW253772   8.203   3.207   4.493 -1.0992  0.1340  1.1550
13905SOL     OW53773   3.981   6.875   9.723  0.7294  0.1788 -0.1791
13905SOL    HW153774   4.018   6.918   9.640 -0.6294  0.1885 -0.7890
13905SOL    HW253775   3.995   6.776   9.719 -1.2239 -0.0527 -1.3979
13906SOL     OW53776   1.253   2.655   9.335 -0.4862  0.5915 -0.2045
13906SOL    HW153777   1.193   2.732   9.354  0.4171  0.6773  2.6443
13906SOL    HW253778   1.206   2.588   9.277 -1.7344  2.6481 -1.6017
13907SOL     OW53779   2.449   2.767   1.337  0.0351 -0.2123  0.5467
13907SOL    HW153780   2.475   2.861   1.361  1.1131 -0.2534 -0.4051
13907SOL    HW253781   2.498   2.739   1.255 -0.3382 -1.5925  0.7817
13908SOL     OW53782   8.073   2.088   8.741  0.1983  0.0875  0.5102
13908SOL    HW153783   8.056   2.170   8.797  0.4933 -1.3630  2.7729
13908SOL    HW253784   8.171   2.080   8.724  0.0791  0.6962 -0.5159
13909SOL     OW53785   7.114   7.743   5.176  0.4653 -0.0455  0.2475
13909SOL    HW153786   7.151   7.739   5.083 -0.3806 -0.3023 -0.0807
13909SOL    HW253787   7.079   7.654   5.202 -0.4561  0.3399  0.3361
13910SOL     OW53788   4.662   5.854   3.391 -0.3370  0.4036 -0.3773
13910SOL    HW153789   4.613   5.829   3.307  1.1674  0.6019 -1.3147
13910SOL    HW253790   4.759   5.836   3.380  0.0458  1.6088  0.8892
13911SOL     OW53791   9.669   4.771   1.325  0.2002 -0.8719 -0.2008
13911SOL    HW153792   9.753   4.716   1.322  0.4660 -0.4246 -1.4800
13911SOL    HW253793   9.601   4.730   1.264 -0.3506 -0.9752  0.4842
13912SOL     OW53794   9.579   4.186   0.624  0.6153  0.5113 -0.3506
13912SOL    HW153795   9.624   4.272   0.599 -0.0662  0.9477 -0.0951
13912SOL    HW253796   9.535   4.196   0.713  1.4318 -0.4442  0.1745
13913SOL     OW53797   3.765   5.026   7.762  0.2965 -0.2647  0.2249
13913SOL    HW153798   3.714   4.997   7.680  0.6368  0.2549 -0.1772
13913SOL    HW253799   3.777   4.948   7.823  1.0553 -0.9335 -0.7640
13914SOL     OW53800   1.006   4.942   5.148  0.5218 -0.6124 -0.3038
13914SOL    HW153801   1.060   4.967   5.229 -1.5617 -0.5270  1.1127
13914SOL    HW253802   0.919   4.901   5.177 -1.9135  2.7512 -2.3771
13915SOL     OW53803   9.605   3.462   9.154 -0.4345 -0.0568 -0.0092
13915SOL    HW153804   9.635   3.474   9.059 -0.3958  1.1774  0.1550
13915SOL    HW253805   9.662   3.518   9.214 -1.9020  0.9161  0.4972
13916SOL     OW53806   4.288   7.271   0.011 -0.2116  0.3406  0.3444
13916SOL    HW153807   4.376   7.318   0.024  0.3293 -0.5466  0.0056
13916SOL    HW253808   4.251   7.295  -0.079  0.9415 -1.2206 -0.5932
13917SOL     OW53809   4.433   3.193   1.183  0.7109  0.3692  0.3844
13917SOL    HW153810   4.477   3.106   1.161  0.9779  0.5699  0.1260
13917SOL    HW253811   4.473   3.230   1.268 -0.3422 -0.4194  1.2425
13918SOL     OW53812   4.641   6.813   0.590  0.1274  0.3345  0.2854
13918SOL    HW153813   4.707   6.814   0.515  1.3608  0.0816  1.3676
13918SOL    HW253814   4.549   6.807   0.552  0.6436  1.6688 -1.2736
13919SOL     OW53815   6.171   5.686   1.556  0.0167  0.2093  0.0599
13919SOL    HW153816   6.155   5.781   1.530 -0.6332  0.1191  0.1074
13919SOL    HW253817   6.124   5.625   1.491  1.3493 -0.1131 -0.6199
13920SOL     OW53818   8.711   4.901   4.193  0.5027  0.5648 -0.2494
13920SOL    HW153819   8.640   4.866   4.255  1.2586  1.9845  1.4704
13920SOL    HW253820   8.694   4.998   4.175  1.7452  0.7869 -0.2273
13921SOL     OW53821   3.260   0.386   2.897 -0.1576  0.2241 -0.4020
13921SOL    HW153822   3.308   0.432   2.972 -0.2826  0.4931 -0.4857
13921SOL    HW253823   3.245   0.290   2.920  0.3608  0.1552 -0.3433
13922SOL     OW53824   5.298   0.575   9.432  0.5912 -0.1650 -0.3478
13922SOL    HW153825   5.309   0.486   9.388 -0.1840 -0.4960  0.1106
13922SOL    HW253826   5.341   0.572   9.523  2.0447  0.4641 -0.9936
13923SOL     OW53827   0.773   6.143   8.214  0.2926  0.2000 -0.1340
13923SOL    HW153828   0.715   6.223   8.205 -2.1414 -1.8298 -3.7274
13923SOL    HW253829   0.832   6.135   8.134 -0.4794 -2.3487 -0.4832
13924SOL     OW53830   6.270   0.130   1.265  0.6100  0.0182  0.3311
13924SOL    HW153831   6.293   0.199   1.334  2.2538 -0.0950 -0.0888
13924SOL    HW253832   6.337   0.134   1.191 -0.5489 -0.5640 -0.7587
13925SOL     OW53833   6.235   6.316   9.166  0.3122 -0.3495 -0.1658
13925SOL    HW153834   6.221   6.306   9.265  0.1731  2.1360  0.0876
13925SOL    HW253835   6.333   6.321   9.147  0.2804  1.1585  0.0595
13926SOL     OW53836   5.178   5.173   7.955 -0.0795 -0.0419  0.3171
13926SOL    HW153837   5.082   5.188   7.977  0.0525 -0.1979  1.0270
13926SOL    HW253838   5.188   5.088   7.903 -0.2559 -0.3892  0.8411
13927SOL     OW53839   6.712   9.175   3.071  0.2402  0.1752  0.1368
13927SOL    HW153840   6.767   9.255   3.095  3.2126 -1.5335 -0.7716
13927SOL    HW253841   6.663   9.143   3.152 -0.2123  2.2826  0.7443
13928SOL     OW53842   7.581   1.715   2.640  0.7451  0.0341  0.1864
13928SOL    HW153843   7.534   1.693   2.726  1.5905 -0.2340  0.5799
13928SOL    HW253844   7.514   1.750   2.575 -0.0693 -0.6573  0.6324
13929SOL     OW53845   6.665   6.347   7.865  0.1539 -0.4386 -0.3937
13929SOL    HW153846   6.574   6.378   7.895 -0.6908 -1.1210 -2.2321
13929SOL    HW253847   6.669   6.247   7.869  0.4738 -0.4627 -1.2949
13930SOL     OW53848   5.385   3.587   9.741  0.2210 -0.6081  0.0410
13930SOL    HW153849   5.445   3.537   9.804 -1.0373 -1.9128  0.2151
13930SOL    HW253850   5.419   3.575   9.648  2.1028  1.3498  0.4435
13931SOL     OW53851   1.993   3.312   1.414 -0.0713  0.3863  0.2565
13931SOL    HW153852   2.064   3.380   1.392 -0.0106  0.4277  0.5807
13931SOL    HW253853   1.909   3.360   1.439 -0.5502  0.3325 -1.2326
13932SOL     OW53854   2.615   6.776   2.528 -0.3654 -0.4304 -0.7483
13932SOL    HW153855   2.602   6.858   2.585 -2.3839 -1.2123 -0.0501
13932SOL    HW253856   2.709   6.775   2.494  1.2250 -0.4096  3.3327
13933SOL     OW53857   0.262   5.754   0.980 -0.6528 -0.3945  0.6813
13933SOL    HW153858   0.333   5.726   1.046 -1.4210  1.2088  2.2260
13933SOL    HW253859   0.262   5.690   0.903  2.4336 -0.4828  0.6689
13934SOL     OW53860   9.437   6.667   7.883  0.0644  0.6513  0.3159
13934SOL    HW153861   9.506   6.624   7.941  1.2753  0.8355 -0.9570
13934SOL    HW253862   9.349   6.667   7.930  1.0332  0.8420  2.1709
13935SOL     OW53863   4.544   8.042   0.618  0.0907 -0.1405  0.0703
13935SOL    HW153864   4.607   8.120   0.616  0.8548 -0.7043  1.5869
13935SOL    HW253865   4.582   7.968   0.562  0.4586 -0.2394  0.4470
13936SOL     OW53866   4.847   4.111   3.508  0.3162 -0.1133 -0.0840
13936SOL    HW153867   4.790   4.153   3.578 -1.1037 -0.1498 -1.1958
13936SOL    HW253868   4.934   4.160   3.503  0.1864  0.2840  1.2519
13937SOL     OW53869   3.734   5.250   9.292  0.5768  0.4054  0.1524
13937SOL    HW153870   3.814   5.223   9.238 -0.0954 -3.0478  0.7443
13937SOL    HW253871   3.651   5.231   9.241  0.0443  0.8938  0.8212
13938SOL     OW53872   5.035   1.068   0.026 -0.0906 -0.6641 -0.1719
13938SOL    HW153873   5.130   1.068  -0.003  0.3687  1.0219  1.2296
13938SOL    HW253874   5.002   0.974   0.033  2.3579 -1.4163  2.1048
13939SOL     OW53875   1.577   2.746   1.301  0.3797 -0.2410  0.1824
13939SOL    HW153876   1.575   2.807   1.381  0.8883 -0.0093  0.0218
13939SOL    HW253877   1.556   2.653   1.329 -3.4422  0.4732 -0.0060
13940SOL     OW53878   6.392   5.120   8.107  0.1817  0.1102  0.2025
13940SOL    HW153879   6.351   5.049   8.050 -1.8505  2.0995 -0.9135
13940SOL    HW253880   6.388   5.208   8.058  1.2566  1.2731  2.1472
13941SOL     OW53881   5.715   2.620   1.490 -0.2336 -0.7938  0.2348
13941SOL    HW153882   5.780   2.675   1.542  2.1716 -2.4401 -0.9385
13941SOL    HW253883   5.643   2.588   1.551 -0.2322  1.4408  1.4665
13942SOL     OW53884   2.862   0.100   6.404 -0.0084 -0.1196 -0.3878
13942SOL    HW153885   2.868   0.091   6.504  0.5950  1.7299 -0.2380
13942SOL    HW253886   2.949   0.135   6.369  0.0064 -1.3948 -1.6508
13943SOL     OW53887   1.625   1.292   3.683 -0.1407  0.2623  0.0667
13943SOL    HW153888   1.675   1.213   3.648 -0.2955  0.9337 -1.6943
13943SOL    HW253889   1.581   1.341   3.607 -0.5347  1.7067  1.1955
13944SOL     OW53890   2.584   0.632   1.763  0.6053  0.1148 -0.0787
13944SOL    HW153891   2.590   0.537   1.731  1.1203 -0.0308  0.4445
13944SOL    HW253892   2.502   0.644   1.818  0.4801  0.0017 -0.2407
13945SOL     OW53893   7.421   3.854   8.345 -0.8429 -0.5290  0.0460
13945SOL    HW153894   7.458   3.921   8.410 -2.6096 -0.3719  0.9272
13945SOL    HW253895   7.324   3.839   8.364 -1.2385 -0.9941 -2.1368
13946SOL     OW53896   6.856   5.184   9.203 -0.0131 -0.5761 -0.4429
13946SOL    HW153897   6.856   5.104   9.144 -0.9336 -0.3170 -0.8038
13946SOL    HW253898   6.765   5.197   9.243  0.2563  0.0053  0.0025
13947SOL     OW53899   9.412   1.670   2.460  0.0317 -0.1335  0.8092
13947SOL    HW153900   9.312   1.671   2.468  0.0819 -0.6544  1.5500
13947SOL    HW253901   9.440   1.726   2.383 -0.7662  1.0954  1.3960
13948SOL     OW53902   7.283   0.363   0.451  0.5725 -0.7365  0.9019
13948SOL    HW153903   7.355   0.323   0.394 -0.8894 -1.0335 -0.7392
13948SOL    HW253904   7.319   0.446   0.495  1.3892  0.1119 -1.2804
13949SOL     OW53905   8.980   7.269   6.204 -0.0241  0.3235  0.2692
13949SOL    HW153906   9.012   7.175   6.218 -0.6661 -0.1777 -1.3814
13949SOL    HW253907   9.055   7.324   6.166  0.4551  0.5736  1.5730
13950SOL     OW53908   9.085   6.118   1.145 -0.3687 -0.4494  0.3697
13950SOL    HW153909   9.115   6.207   1.179  0.4785 -2.0948  4.2087
13950SOL    HW253910   8.993   6.098   1.179  0.3286 -1.9670  1.4378
13951SOL     OW53911   3.214   3.481   4.382  0.2522  0.1201  0.6754
13951SOL    HW153912   3.192   3.467   4.478 -0.1724  0.6648  0.6592
13951SOL    HW253913   3.313   3.474   4.369  0.1749 -1.5115  0.8834
13952SOL     OW53914   4.626   5.832   2.314  0.5059 -0.3339 -0.0027
13952SOL    HW153915   4.545   5.821   2.372  0.4623  1.7460  0.3503
13952SOL    HW253916   4.704   5.788   2.359  0.2391  0.3292  1.1332
13953SOL     OW53917   6.074   9.169   1.982 -0.6510 -0.4016 -0.5256
13953SOL    HW153918   6.093   9.221   2.065  1.4003  0.1507 -1.3090
13953SOL    HW253919   6.131   9.087   1.980 -0.8415 -0.5223 -1.2880
13954SOL     OW53920   9.784   5.928   9.976  0.0649 -0.0507  0.1811
13954SOL    HW153921   9.875   5.949  10.013  0.6855  1.5990 -2.1454
13954SOL    HW253922   9.786   5.839   9.930  0.9742  0.6840 -1.2485
13955SOL     OW53923   2.855   4.271   5.847 -0.1227 -0.7054  0.0429
13955SOL    HW153924   2.954   4.285   5.849  0.6496 -5.2304  1.4779
13955SOL    HW253925   2.824   4.240   5.938 -3.1329  2.0269  0.0305
13956SOL     OW53926   3.245   8.148   3.520 -0.0876 -0.1554  0.4221
13956SOL    HW153927   3.290   8.059   3.516  1.3123  0.4731  1.8548
13956SOL    HW253928   3.169   8.144   3.584 -0.4398 -0.4877 -0.0102
13957SOL     OW53929   1.086   3.099   6.581 -0.1734 -0.1302 -0.4974
13957SOL    HW153930   1.081   2.999   6.576  1.6362 -0.2259 -0.8070
13957SOL    HW253931   1.126   3.134   6.496  0.4041  0.7468  0.1338
13958SOL     OW53932   8.222   4.446   2.278  0.2718 -0.5144 -0.1028
13958SOL    HW153933   8.268   4.358   2.266 -0.7372 -1.3069  1.6113
13958SOL    HW253934   8.204   4.461   2.375 -0.9902  0.8532 -0.5307
13959SOL     OW53935   7.534   0.252   5.066 -0.3854  0.2939 -0.1545
13959SOL    HW153936   7.577   0.328   5.114 -0.3380  0.3908 -0.3508
13959SOL    HW253937   7.539   0.267   4.967 -3.3074  1.6451 -0.1370
13960SOL     OW53938   2.778   7.975   8.549  0.0844  0.5371  0.0469
13960SOL    HW153939   2.773   7.906   8.622  0.7892 -0.8315 -1.1749
13960SOL    HW253940   2.840   8.049   8.577  2.6761 -1.4301 -0.3266
13961SOL     OW53941   2.530   3.177   2.004  0.0436 -0.0374  0.5820
13961SOL    HW153942   2.489   3.133   1.924  0.4384 -1.2234  1.0232
13961SOL    HW253943   2.629   3.161   2.004  0.0705  0.1099  1.2043
13962SOL     OW53944   7.467   0.076   8.303 -0.4006 -0.0606 -0.4418
13962SOL    HW153945   7.499   0.119   8.218 -2.4300  0.0905 -1.1404
13962SOL    HW253946   7.412   0.141   8.354  0.6858 -0.2093  0.9469
13963SOL     OW53947   1.596   2.385   1.918 -0.3028  0.6715  0.1133
13963SOL    HW153948   1.639   2.465   1.959 -0.2219  1.0391 -0.6871
13963SOL    HW253949   1.638   2.302   1.956 -0.7587  0.9871  1.3455
13964SOL     OW53950   2.986   6.027   7.227 -0.0884  0.1610 -0.2147
13964SOL    HW153951   3.063   6.087   7.249 -0.9006  0.9689  0.5382
13964SOL    HW253952   2.983   6.011   7.129  0.5210  0.8515 -0.3553
13965SOL     OW53953   2.622   7.122   2.858 -0.1376  0.2791  0.7966
13965SOL    HW153954   2.673   7.180   2.795  0.8550 -1.3016  0.1175
13965SOL    HW253955   2.674   7.111   2.942  0.3516 -0.8473  0.3407
13966SOL     OW53956   7.769   7.400   5.648  0.5978 -0.4076  0.6389
13966SOL    HW153957   7.797   7.408   5.552 -1.4440 -1.4807 -0.0633
13966SOL    HW253958   7.847   7.421   5.707  2.4133 -1.7025 -1.2519
13967SOL     OW53959   6.337   3.878   0.243  0.5011  0.4280 -0.1149
13967SOL    HW153960   6.376   3.923   0.323 -0.0104  1.9891 -0.7233
13967SOL    HW253961   6.250   3.835   0.267  1.8803 -1.8841  0.9175
13968SOL     OW53962   9.369   2.048   9.360 -0.0182 -0.1725  0.2094
13968SOL    HW153963   9.274   2.071   9.339 -0.4656 -0.5799  1.6961
13968SOL    HW253964   9.395   1.964   9.312 -0.8950 -0.8905  0.9776
13969SOL     OW53965   4.658   7.268   3.383  0.4602  0.4050  0.2637
13969SOL    HW153966   4.720   7.279   3.305 -0.7566 -0.6799 -0.8794
13969SOL    HW253967   4.581   7.210   3.357  0.2816 -0.3955  2.4195
13970SOL     OW53968   6.009   3.615   2.360  0.1600 -0.2303  0.4531
13970SOL    HW153969   6.069   3.537   2.345  2.0175  1.2429 -0.0685
13970SOL    HW253970   6.010   3.640   2.457  1.4278  0.5482  0.2639
13971SOL     OW53971   4.397   7.709   2.360 -0.6247  0.2497 -0.5757
13971SOL    HW153972   4.365   7.616   2.375  1.0593  0.1480  3.0994
13971SOL    HW253973   4.493   7.708   2.335 -0.4064  1.0167  0.1962
13972SOL     OW53974   5.354   0.120   8.053 -0.2798 -0.0381 -0.0206
13972SOL    HW153975   5.357   0.023   8.028 -1.7468 -0.3722  1.0543
13972SOL    HW253976   5.414   0.172   7.992 -1.0349 -1.3504 -1.9286
13973SOL     OW53977   4.486   5.930   7.423  0.1618 -0.0562 -0.4520
13973SOL    HW153978   4.563   5.989   7.399 -0.0353  0.4928  0.2648
13973SOL    HW253979   4.418   5.933   7.350 -1.1670  2.8558  0.8465
13974SOL     OW53980   1.422   2.574   5.561 -0.2139  0.3199  0.3248
13974SOL    HW153981   1.342   2.562   5.620  0.2452  0.1222  0.9071
13974SOL    HW253982   1.501   2.528   5.602  0.5165  1.6367  0.4015
13975SOL     OW53983   8.438   0.799   2.932  0.6593 -0.0798  0.1366
13975SOL    HW153984   8.469   0.769   2.841  0.2453 -0.7068  0.1955
13975SOL    HW253985   8.486   0.882   2.958  0.1228  0.6169 -1.0602
13976SOL     OW53986   9.862   0.903   8.661  0.0125  0.3681  0.1604
13976SOL    HW153987   9.827   0.936   8.573 -1.1571  0.5356  0.6851
13976SOL    HW253988   9.829   0.962   8.735  0.0908 -0.4160  0.8269
13977SOL     OW53989   1.912   8.955   8.453  0.1408  0.1932  0.1434
13977SOL    HW153990   1.881   9.025   8.390 -0.7756  0.0386  0.4152
13977SOL    HW253991   1.970   8.889   8.405  0.2852  0.6495 -0.3044
13978SOL     OW53992   4.077   5.609   6.211  0.4834  0.1219  0.3897
13978SOL    HW153993   4.154   5.616   6.274  0.1078  1.5071  0.7098
13978SOL    HW253994   3.991   5.612   6.263  0.2030 -0.4229 -0.0435
13979SOL     OW53995   2.572   5.532   0.139 -0.6783  0.0355 -0.0338
13979SOL    HW153996   2.640   5.605   0.149  0.1235 -0.7768  0.5186
13979SOL    HW253997   2.587   5.485   0.052 -1.3984  0.7353 -0.5369
13980SOL     OW53998   4.346   5.234   1.250  0.2714 -0.2152  0.0793
13980SOL    HW153999   4.384   5.156   1.201 -0.0747 -0.6846  0.5467
13980SOL    HW254000   4.297   5.201   1.331  0.5245  0.5202  0.5345
13981SOL     OW54001   4.456   5.354   6.707 -0.4324 -0.1031 -0.0673
13981SOL    HW154002   4.480   5.388   6.798  1.2663 -0.6880 -0.2674
13981SOL    HW254003   4.539   5.349   6.650 -0.9768 -2.4595 -0.7298
13982SOL     OW54004   4.241   6.735   1.772 -0.4741  0.1729  0.5406
13982SOL    HW154005   4.191   6.732   1.858 -0.8830 -0.2159  0.2920
13982SOL    HW254006   4.209   6.662   1.712 -1.6678  1.7156 -0.7482
13983SOL     OW54007   3.719   3.405   0.068 -0.5573  0.5534 -0.1003
13983SOL    HW154008   3.638   3.376   0.118 -0.2317 -1.2478 -0.5848
13983SOL    HW254009   3.787   3.440   0.133 -0.8622 -0.0152  0.5404
13984SOL     OW54010   6.749   6.533   8.916 -0.1669  0.4631 -0.2934
13984SOL    HW154011   6.767   6.602   8.846 -0.2242  0.5919 -0.1806
13984SOL    HW254012   6.763   6.441   8.877  0.1244  0.5444 -0.3830
13985SOL     OW54013   7.422   6.312   8.622  0.5428  0.0228  0.4938
13985SOL    HW154014   7.517   6.345   8.621  1.4325 -2.4832 -0.2634
13985SOL    HW254015   7.406   6.260   8.706  0.0947 -0.2690  0.2302
13986SOL     OW54016   1.549   7.289   0.395 -0.6515 -0.0275 -0.1823
13986SOL    HW154017   1.597   7.375   0.411  0.8115 -0.2874 -2.8438
13986SOL    HW254018   1.574   7.223   0.466 -0.7549  1.3178  1.1221
13987SOL     OW54019   6.790   9.301   2.258 -0.6872  0.3487 -0.1644
13987SOL    HW154020   6.836   9.325   2.172 -1.8622 -1.2511 -1.2772
13987SOL    HW254021   6.838   9.224   2.301 -2.3514 -1.4727 -1.4424
13988SOL     OW54022   6.756   7.805   6.650 -0.1293  0.4455 -0.0439
13988SOL    HW154023   6.766   7.904   6.635 -1.0929  0.5955  0.2476
13988SOL    HW254024   6.842   7.768   6.683 -0.3879  1.5939  2.0117
13989SOL     OW54025   4.501   6.115   9.219  0.0395 -0.2139 -0.3458
13989SOL    HW154026   4.513   6.039   9.155 -1.3256 -0.5633 -0.1948
13989SOL    HW254027   4.580   6.118   9.281  1.4720  0.2601 -2.1530
13990SOL     OW54028   8.601   0.974   0.255  0.1781  0.0329  0.1489
13990SOL    HW154029   8.609   1.027   0.171 -0.3435 -0.3105 -0.1201
13990SOL    HW254030   8.649   1.021   0.329  0.2396  0.5709 -0.2300
13991SOL     OW54031   1.497   4.250   1.003  0.0655 -0.2996 -0.7145
13991SOL    HW154032   1.501   4.292   0.913  1.2444 -0.1338 -0.5857
13991SOL    HW254033   1.494   4.150   0.993  1.1983 -0.3141 -0.9054
13992SOL     OW54034   7.349   4.912   4.654  0.2095 -0.5019 -0.7745
13992SOL    HW154035   7.408   4.969   4.711  0.6698 -0.2300 -1.5177
13992SOL    HW254036   7.340   4.822   4.696  0.2265 -0.1830 -0.0709
13993SOL     OW54037   5.094   5.308   9.489 -0.2667  0.0844 -0.1627
13993SOL    HW154038   5.123   5.380   9.552 -2.1621 -0.3260  1.1937
13993SOL    HW254039   5.163   5.236   9.486 -0.3255 -0.0801  1.7551
13994SOL     OW54040   6.982   1.104   0.928 -0.2885  0.1920  0.0993
13994SOL    HW154041   6.939   1.106   1.018 -0.5136  0.4770 -0.0102
13994SOL    HW254042   6.912   1.120   0.858 -0.1373 -0.1660 -0.1309
13995SOL     OW54043   4.187   3.486   5.228 -0.2883  0.3320  0.7581
13995SOL    HW154044   4.270   3.542   5.233  1.4849 -2.2650  1.4650
13995SOL    HW254045   4.209   3.392   5.253 -3.6960 -0.1991  2.0595
13996SOL     OW54046   8.590   7.838   4.259 -0.1269 -0.4132  0.4132
13996SOL    HW154047   8.599   7.928   4.217  1.1508 -0.5227  0.4428
13996SOL    HW254048   8.543   7.777   4.197 -3.2152  0.9153  1.3347
13997SOL     OW54049   3.115   4.792   1.465  0.0377  0.2506  0.2456
13997SOL    HW154050   3.151   4.743   1.544 -1.3290  0.6704  1.1517
13997SOL    HW254051   3.179   4.784   1.389  1.1647 -0.5330  1.2518
13998SOL     OW54052   6.136   3.503   4.159 -0.2466 -0.5467  0.0748
13998SOL    HW154053   6.123   3.415   4.204  0.0315 -0.5462  0.1571
13998SOL    HW254054   6.062   3.565   4.187  1.0607  0.0962  2.1623
13999SOL     OW54055   4.780   1.027   2.549 -0.3099 -0.4610  0.1375
13999SOL    HW154056   4.696   1.036   2.497 -1.3126 -0.3662  1.7288
13999SOL    HW254057   4.773   1.080   2.633  2.0295  0.9887 -0.5323
14000SOL     OW54058   3.797   4.667   3.333  0.4531  0.1120 -0.1461
14000SOL    HW154059   3.880   4.619   3.359 -0.1864  0.0591  1.9119
14000SOL    HW254060   3.738   4.606   3.279  1.2381 -0.2042 -0.6504
14001SOL     OW54061   2.390   2.214   2.435  0.2736 -0.5609  0.2697
14001SOL    HW154062   2.488   2.207   2.453  0.6072 -0.2100 -1.3423
14001SOL    HW254063   2.365   2.309   2.415 -0.4379 -0.6078  0.8973
14002SOL     OW54064   3.343   8.155   7.738 -0.0191  0.5658  0.5033
14002SOL    HW154065   3.286   8.079   7.771 -1.5760  1.0199 -1.1085
14002SOL    HW254066   3.424   8.118   7.693  1.1583 -0.0838  3.0334
14003SOL     OW54067   2.022   5.215   6.703  0.3491 -0.3498  0.5269
14003SOL    HW154068   2.028   5.236   6.605  1.1332 -0.4387  0.5457
14003SOL    HW254069   1.943   5.156   6.720 -0.8602  1.1526  0.2275
14004SOL     OW54070   5.779   6.328   8.870 -0.4725 -0.3706  0.0622
14004SOL    HW154071   5.701   6.380   8.905 -0.7662 -1.1803  0.6309
14004SOL    HW254072   5.815   6.269   8.943  0.1992 -0.5531 -0.4144
14005SOL     OW54073   9.594   8.251   3.277 -0.1133  0.0029  0.6763
14005SOL    HW154074   9.612   8.179   3.343  0.8291 -0.0276  0.3907
14005SOL    HW254075   9.594   8.213   3.185  0.7160  0.4127  0.4970
14006SOL     OW54076   5.436   5.777   3.361 -0.4098  0.2002  0.3257
14006SOL    HW154077   5.392   5.834   3.292 -0.4503  2.3154  2.0801
14006SOL    HW254078   5.495   5.833   3.419 -0.6669 -1.4776  2.2636
14007SOL     OW54079   5.601   2.974   1.657 -0.1340  0.2914  0.4814
14007SOL    HW154080   5.645   2.941   1.741  0.3892 -1.0014 -0.2920
14007SOL    HW254081   5.520   2.919   1.638 -0.5315  0.9027  0.4006
14008SOL     OW54082   4.507   7.915   1.382  0.1641 -0.4773 -0.3155
14008SOL    HW154083   4.563   7.909   1.465  0.5576 -2.7457 -0.7255
14008SOL    HW254084   4.441   7.990   1.392  1.2866  0.3210  1.3758
14009SOL     OW54085   4.488   3.136   7.514 -0.4101 -0.1463 -0.0318
14009SOL    HW154086   4.550   3.209   7.545  1.7041 -0.6760 -2.7767
14009SOL    HW254087   4.537   3.048   7.516 -1.5688 -0.8180 -0.8054
14010SOL     OW54088   6.129   4.517   3.144  0.3833 -0.2332  0.4549
14010SOL    HW154089   6.034   4.499   3.120  0.5206  1.4190 -1.4711
14010SOL    HW254090   6.136   4.536   3.242 -1.1555 -1.0120  0.7276
14011SOL     OW54091   2.273   9.625   9.350 -0.2988 -0.4847 -0.2745
14011SOL    HW154092   2.245   9.581   9.435  1.5447 -0.6027  0.2873
14011SOL    HW254093   2.321   9.558   9.293  1.1293  0.3705 -0.0996
14012SOL     OW54094   9.540   9.421   3.986 -0.5462  0.2476  0.3654
14012SOL    HW154095   9.448   9.409   4.023 -0.5030  1.1807  0.7705
14012SOL    HW254096   9.536   9.413   3.886 -0.8226 -1.1968  0.4722
14013SOL     OW54097   6.602   2.715   2.404 -0.5106  0.0402 -0.4827
14013SOL    HW154098   6.585   2.637   2.464 -0.2141  1.9942  2.2160
14013SOL    HW254099   6.666   2.688   2.332  0.2134 -1.9908  0.8680
14014SOL     OW54100   7.142   9.077   3.314  0.2887  0.0442  0.1275
14014SOL    HW154101   7.055   9.032   3.293  0.9355 -1.1996  0.0948
14014SOL    HW254102   7.146   9.165   3.267 -1.9123  1.1411  1.9064
14015SOL     OW54103   0.357   5.800   4.797  0.3092 -0.6166 -0.0655
14015SOL    HW154104   0.323   5.769   4.886 -0.7253  1.0063  0.1315
14015SOL    HW254105   0.435   5.862   4.811 -0.1056 -0.0504 -0.2784
14016SOL     OW54106   2.106   9.117   9.834  0.2895 -0.3076 -0.2440
14016SOL    HW154107   2.069   9.135   9.925 -0.8027 -0.4541 -0.6483
14016SOL    HW254108   2.155   9.198   9.802 -3.3944  1.5609 -1.4757
14017SOL     OW54109   3.579   3.942   1.281 -0.2393  0.0318 -0.2101
14017SOL    HW154110   3.589   4.042   1.283 -0.2921  0.0475 -0.6251
14017SOL    HW254111   3.669   3.899   1.278 -0.1601  0.0150  1.6708
14018SOL     OW54112   9.333   5.297   1.550  0.2769 -0.4669  0.3183
14018SOL    HW154113   9.253   5.277   1.493  0.3242 -1.4989  0.6014
14018SOL    HW254114   9.305   5.347   1.631  0.1683  0.7459 -0.4578
14019SOL     OW54115   5.648   6.063   1.809  0.1100  0.1116  0.0569
14019SOL    HW154116   5.722   5.999   1.787  0.3829 -0.3447  2.1976
14019SOL    HW254117   5.561   6.025   1.777  0.2087 -1.5834  1.6948
14020SOL     OW54118   5.236   5.270   4.511 -0.7257 -0.3102 -0.3572
14020SOL    HW154119   5.216   5.345   4.574 -2.3934 -1.1034  0.1146
14020SOL    HW254120   5.150   5.231   4.478  0.0955 -2.2937 -0.2390
14021SOL     OW54121   7.749   2.327   0.492  0.3877  0.4995 -0.6234
14021SOL    HW154122   7.848   2.321   0.501  0.1651 -1.8371  0.7421
14021SOL    HW254123   7.715   2.405   0.545  1.3353  0.3645  0.1832
14022SOL     OW54124   5.615   5.449   4.715  0.5515  0.5720 -0.0548
14022SOL    HW154125   5.584   5.543   4.701 -0.0197  0.5097  0.7448
14022SOL    HW254126   5.683   5.447   4.789  1.2902  0.4907 -0.7310
14023SOL     OW54127   5.595   6.009   9.631 -0.1403  0.4148 -0.1091
14023SOL    HW154128   5.639   5.935   9.682  0.0906  1.6951  1.6275
14023SOL    HW254129   5.524   5.971   9.572 -0.6374 -1.1218  1.4088
14024SOL     OW54130   1.344   0.139   4.022 -0.4918  0.3721  0.8988
14024SOL    HW154131   1.348   0.043   3.993 -0.6628  0.9263 -1.0339
14024SOL    HW254132   1.432   0.183   4.003 -0.3269  0.5384  2.0282
14025SOL     OW54133   2.317   8.963   3.376  0.1750 -0.1037  0.4696
14025SOL    HW154134   2.301   9.026   3.451 -1.5066 -0.5394  0.5006
14025SOL    HW254135   2.249   8.978   3.304  1.2385 -0.2623 -0.5831
14026SOL     OW54136   2.183   6.380   1.525  0.2383  0.0225  0.4391
14026SOL    HW154137   2.273   6.376   1.481 -0.0985  1.3342 -0.4156
14026SOL    HW254138   2.168   6.298   1.579  2.5695  0.4709  1.8070
14027SOL     OW54139   2.836   6.061   7.836 -0.5161  0.1970  0.2841
14027SOL    HW154140   2.788   6.149   7.832 -0.9467 -0.1012 -1.7369
14027SOL    HW254141   2.931   6.076   7.861 -0.7879  1.1516  0.7654
14028SOL     OW54142   2.064   7.099   2.071  0.1078 -0.0254  0.0612
14028SOL    HW154143   2.142   7.058   2.118  1.4629 -0.6362 -2.6429
14028SOL    HW254144   1.996   7.128   2.139  1.3120 -2.2416  2.3045
14029SOL     OW54145   4.237   3.168   5.244 -0.2709 -0.3469 -0.5297
14029SOL    HW154146   4.208   3.090   5.188  0.7690 -0.0640 -1.4862
14029SOL    HW254147   4.331   3.193   5.219 -0.1103  0.3321  0.7504
14030SOL     OW54148   6.458   1.655   1.388 -0.7246 -0.7581  0.2962
14030SOL    HW154149   6.401   1.586   1.431 -0.6689 -0.4878  0.8016
14030SOL    HW254150   6.475   1.630   1.292  0.0060 -1.8747  0.7103
14031SOL     OW54151   5.932   8.492   6.538  0.4975  0.4422  0.8451
14031SOL    HW154152   5.859   8.429   6.510  0.2030  0.5217  1.4176
14031SOL    HW254153   5.939   8.566   6.471  1.5184 -0.7303 -0.3461
14032SOL     OW54154   5.673   7.346   0.940  0.1686  0.2610  0.1567
14032SOL    HW154155   5.579   7.382   0.934  0.1244  0.0999 -0.1075
14032SOL    HW254156   5.702   7.315   0.850  1.5427  2.9723 -0.3714
14033SOL     OW54157   0.312   0.635   1.480 -0.1959  0.2775  0.5548
14033SOL    HW154158   0.267   0.709   1.528 -0.8975  0.8898 -1.0104
14033SOL    HW254159   0.309   0.552   1.536 -1.2415  0.8962  1.4334
14034SOL     OW54160   0.460   8.810   2.486 -0.1851  0.1343  0.1564
14034SOL    HW154161   0.477   8.897   2.439  2.7606  0.3307  1.4571
14034SOL    HW254162   0.482   8.820   2.583 -1.0967 -1.7211  0.5711
14035SOL     OW54163   6.641   4.140   2.637  0.3740 -0.1440  0.1019
14035SOL    HW154164   6.573   4.072   2.610 -2.5239  1.3434  3.3036
14035SOL    HW254165   6.713   4.095   2.690  2.1372 -1.7675 -3.5014
14036SOL     OW54166   2.405   3.178   5.373  0.0578  0.0180  0.4902
14036SOL    HW154167   2.472   3.123   5.422 -1.3611 -0.9349  1.4029
14036SOL    HW254168   2.329   3.201   5.435 -0.7298  0.6014 -0.6735
14037SOL     OW54169   0.718   0.662   1.410  0.2831 -0.2533  0.3436
14037SOL    HW154170   0.809   0.672   1.369 -0.0498 -0.7283 -0.5252
14037SOL    HW254171   0.725   0.674   1.509  1.1007  0.8977  0.1555
14038SOL     OW54172   5.020   5.262   2.103 -0.2001 -0.5790  0.0649
14038SOL    HW154173   5.001   5.360   2.111  3.1048  0.1115  0.3814
14038SOL    HW254174   5.081   5.247   2.025 -1.3208 -2.5116 -0.4562
14039SOL     OW54175   5.882   1.351   4.400 -0.2072  0.6809 -0.1290
14039SOL    HW154176   5.899   1.405   4.483  0.5769  1.3600 -0.7246
14039SOL    HW254177   5.878   1.411   4.321  1.5813 -0.1998 -0.9183
14040SOL     OW54178   8.479   5.498   4.169 -0.1599  0.0165  0.6133
14040SOL    HW154179   8.454   5.414   4.218  0.0173 -0.1022  0.5016
14040SOL    HW254180   8.544   5.475   4.096 -0.6065  0.1540  0.1731
14041SOL     OW54181   5.262   7.422   3.374 -0.1363 -0.0117 -0.6533
14041SOL    HW154182   5.255   7.434   3.473 -1.7494 -0.1050 -0.7507
14041SOL    HW254183   5.294   7.507   3.332  0.5898  0.0142 -0.0573
14042SOL     OW54184   8.193   6.531   8.465  0.2773 -0.3234  0.0589
14042SOL    HW154185   8.225   6.436   8.465 -1.0259 -0.7734 -0.5976
14042SOL    HW254186   8.176   6.560   8.371 -2.5083 -0.5436  0.4657
14043SOL     OW54187   6.032   6.698   8.565 -0.7364  0.4884  0.0611
14043SOL    HW154188   6.050   6.660   8.656 -0.6012  1.7767  0.5876
14043SOL    HW254189   5.966   6.772   8.572  0.3454  1.5416 -0.6886
14044SOL     OW54190   0.684   9.903   2.369 -0.3470  0.0636 -0.0478
14044SOL    HW154191   0.683  10.002   2.381  1.4630 -0.0919  1.7674
14044SOL    HW254192   0.752   9.878   2.299  1.8945 -0.0705  2.0969
14045SOL     OW54193   9.607   4.687   4.890  0.2680 -0.1608  0.1062
14045SOL    HW154194   9.590   4.616   4.959  0.2801 -1.1688 -0.9119
14045SOL    HW254195   9.535   4.756   4.895  1.2504  0.7659  2.3448
14046SOL     OW54196   1.470   7.285   9.872  0.3537 -0.0104  0.2760
14046SOL    HW154197   1.465   7.207   9.810  5.2914 -1.1014  1.0216
14046SOL    HW254198   1.472   7.252   9.967  1.3933  1.0734  0.6429
14047SOL     OW54199   4.270   9.753   9.720 -0.3552 -0.1292 -0.5466
14047SOL    HW154200   4.255   9.679   9.654 -3.6909 -0.2981  0.3159
14047SOL    HW254201   4.245   9.722   9.812  1.9941  0.8586  0.4685
14048SOL     OW54202   4.304   7.597   0.004  0.0369 -0.4934 -0.0429
14048SOL    HW154203   4.360   7.552   0.074 -0.8105 -0.0400  0.9376
14048SOL    HW254204   4.301   7.695   0.022 -2.5427 -0.7287  0.9864
14049SOL     OW54205   6.738   6.560   3.239  0.2984  0.5019  0.6149
14049SOL    HW154206   6.693   6.512   3.315 -2.6868  1.3829 -0.5387
14049SOL    HW254207   6.697   6.650   3.228  0.3382  0.1810 -2.3812
14050SOL     OW54208   3.077   3.572   8.258 -0.0342 -0.0492  0.4288
14050SOL    HW154209   3.063   3.479   8.224 -1.6274  0.1402  0.4983
14050SOL    HW254210   3.088   3.634   8.180  1.7638 -0.3991  0.4030
14051SOL     OW54211   4.546   7.761   7.352  0.5633  0.5823 -0.0475
14051SOL    HW154212   4.641   7.731   7.356  0.7711  1.2095 -0.3344
14051SOL    HW254213   4.538   7.853   7.389  0.2231  0.9022 -0.9054
14052SOL     OW54214   3.250   8.304   8.427  0.1247  0.2474 -0.0503
14052SOL    HW154215   3.211   8.396   8.435 -2.7960 -1.0700  2.0798
14052SOL    HW254216   3.188   8.246   8.374  1.9084 -0.5192 -1.3239
14053SOL     OW54217   4.313   1.190   5.581 -0.0052  0.7977 -0.2395
14053SOL    HW154218   4.301   1.204   5.680 -3.7654 -1.0450 -0.3359
14053SOL    HW254219   4.348   1.098   5.565  0.0175  0.8753 -0.6251
14054SOL     OW54220   4.727   4.600   0.529 -0.2378  0.1055 -0.0433
14054SOL    HW154221   4.722   4.634   0.622 -0.8354  0.7171 -0.2948
14054SOL    HW254222   4.822   4.585   0.503 -0.0915 -0.3652  0.7669
14055SOL     OW54223   6.077   4.152   9.508 -0.0842  0.0727  0.0269
14055SOL    HW154224   6.111   4.205   9.429 -1.0840 -2.1506 -1.9441
14055SOL    HW254225   5.985   4.182   9.531  0.1619  0.6375  0.3053
14056SOL     OW54226   3.464   7.574   3.870 -0.1128 -0.2971  0.1507
14056SOL    HW154227   3.553   7.619   3.877 -0.7824  0.8019  1.8251
14056SOL    HW254228   3.393   7.643   3.861 -1.0086 -1.0878  1.0828
14057SOL     OW54229   4.167   6.287   3.691 -0.8576 -0.0511  0.4449
14057SOL    HW154230   4.138   6.229   3.615 -0.7560 -0.1877  0.5103
14057SOL    HW254231   4.258   6.325   3.672 -0.1151 -1.4130  1.2330
14058SOL     OW54232   4.493   4.116   6.818  0.3970  0.4878  0.0326
14058SOL    HW154233   4.476   4.028   6.863  1.7220  0.1581 -0.0898
14058SOL    HW254234   4.434   4.186   6.859 -0.8449 -0.5058 -0.0469
14059SOL     OW54235   7.513   4.797   3.331 -0.4911 -0.4205 -0.3313
14059SOL    HW154236   7.537   4.854   3.409  0.1035  0.8902 -1.4491
14059SOL    HW254237   7.455   4.721   3.361  1.0020 -0.8158  1.6165
14060SOL     OW54238   5.098   4.783   9.511 -0.1580  0.1447 -0.7711
14060SOL    HW154239   5.196   4.790   9.528 -0.1031 -0.4106 -0.8231
14060SOL    HW254240   5.080   4.706   9.449 -0.7903 -1.1110  0.9124
14061SOL     OW54241   3.042   6.599   0.928  0.1585 -0.0927 -0.1754
14061SOL    HW154242   3.057   6.676   0.866  0.9702 -0.8062 -0.8639
14061SOL    HW254243   3.113   6.531   0.915  2.2091  1.1494  3.7343
14062SOL     OW54244   5.002   5.083   7.041 -0.7334  0.2316 -0.3880
14062SOL    HW154245   4.964   5.099   7.132 -1.0891 -0.3926 -0.4237
14062SOL    HW254246   4.937   5.115   6.972 -1.2574 -0.9335 -0.4515
14063SOL     OW54247   8.652   8.002   3.096 -0.0315 -0.4594  0.4901
14063SOL    HW154248   8.619   7.940   3.025 -1.3376  1.3461 -0.5245
14063SOL    HW254249   8.750   8.016   3.086  0.0705 -1.4994  0.0523
14064SOL     OW54250   3.505   1.494   4.536  0.0452  0.0031  0.2558
14064SOL    HW154251   3.496   1.594   4.542 -0.0091  0.0605 -0.7028
14064SOL    HW254252   3.601   1.469   4.547  0.1259  0.1944 -0.0225
14065SOL     OW54253   3.358   6.654   4.646 -0.4056  0.0912 -0.0758
14065SOL    HW154254   3.421   6.688   4.577  0.0919  0.0167  0.3436
14065SOL    HW254255   3.327   6.562   4.621  1.1928 -0.6903  0.7166
14066SOL     OW54256   6.094   8.669   1.414  0.4280  0.3166 -0.2164
14066SOL    HW154257   6.064   8.727   1.491 -2.5010 -0.8799 -0.3813
14066SOL    HW254258   6.127   8.582   1.450  0.2704  0.2507 -0.2276
14067SOL     OW54259   8.480   4.314   1.996  0.2603 -0.0789  0.4193
14067SOL    HW154260   8.489   4.296   2.094 -0.1676 -1.4963  0.2218
14067SOL    HW254261   8.483   4.227   1.946 -2.2439  0.3486 -0.6054
14068SOL     OW54262   8.255   4.884   0.231 -0.3539  0.9474 -0.4689
14068SOL    HW154263   8.203   4.943   0.292  0.4739  2.3208 -1.0732
14068SOL    HW254264   8.218   4.791   0.235 -0.3864  1.0374  2.0112
14069SOL     OW54265   1.408   7.282   4.283 -0.1694 -0.3778  0.6954
14069SOL    HW154266   1.503   7.271   4.312 -0.1065 -0.5897  0.4215
14069SOL    HW254267   1.378   7.375   4.302  1.0402  0.6000 -1.8975
14070SOL     OW54268   6.973   4.524   8.872 -0.0029  0.0924  0.1949
14070SOL    HW154269   6.880   4.548   8.843  0.0084  0.9150  0.8056
14070SOL    HW254270   6.969   4.446   8.934 -0.1197 -1.0136 -1.1819
14071SOL     OW54271   2.942   7.889   0.104  0.2353  0.0852  0.3750
14071SOL    HW154272   2.949   7.831   0.186  1.4712  0.9665  0.9146
14071SOL    HW254273   2.923   7.983   0.132 -0.9515  0.0964 -0.4498
14072SOL     OW54274   3.711   9.681   9.739 -0.4735  0.2056  0.5440
14072SOL    HW154275   3.712   9.772   9.782  1.3138  0.4674 -0.0316
14072SOL    HW254276   3.780   9.623   9.783 -0.5383 -0.3882 -0.1444
14073SOL     OW54277   5.821   8.859   5.119 -0.1383  0.0693  0.4547
14073SOL    HW154278   5.775   8.783   5.165  2.1597 -1.6331  0.0448
14073SOL    HW254279   5.797   8.859   5.022  1.1851 -1.2304  0.1057
14074SOL     OW54280   7.147   3.921   0.476  0.6433  0.3366  0.0614
14074SOL    HW154281   7.081   3.864   0.426  1.5878  0.5934 -1.4894
14074SOL    HW254282   7.185   3.869   0.552  1.2886 -1.0155 -1.1756
14075SOL     OW54283   0.704   9.815   0.449 -0.1905  0.4468  0.2827
14075SOL    HW154284   0.707   9.783   0.544 -1.2352 -0.1294  0.1328
14075SOL    HW254285   0.780   9.878   0.433 -0.7260  1.5356  1.8510
14076SOL     OW54286   4.669   7.665   9.231 -0.5825 -0.1150 -0.6438
14076SOL    HW154287   4.665   7.574   9.273 -1.0490 -0.5345 -1.5712
14076SOL    HW254288   4.705   7.731   9.297  0.0772 -1.0358 -0.0737
14077SOL     OW54289   4.675   5.059   0.577 -0.1172 -0.4001  0.2323
14077SOL    HW154290   4.675   4.967   0.536  0.1299 -0.4370  0.3145
14077SOL    HW254291   4.582   5.081   0.608 -0.2314 -0.5146 -0.0247
14078SOL     OW54292   6.698   2.727   4.759  0.0357  0.0604  0.1388
14078SOL    HW154293   6.693   2.811   4.813 -2.2360  0.0587 -0.0029
14078SOL    HW254294   6.623   2.725   4.694  1.2525 -1.1558 -1.2612
14079SOL     OW54295   1.806   7.354   3.447 -0.0981  0.1296 -0.5826
14079SOL    HW154296   1.848   7.409   3.519  0.5177  0.0280 -0.8639
14079SOL    HW254297   1.814   7.402   3.360  0.7377 -0.5594 -0.8869
14080SOL     OW54298   5.796   3.743   8.914  0.1416 -0.0803  0.8988
14080SOL    HW154299   5.805   3.656   8.866 -1.0409 -0.0995  0.6996
14080SOL    HW254300   5.701   3.771   8.914  0.6544  1.7238  0.0926
14081SOL     OW54301   4.271   6.289   4.431 -0.0545 -0.3476 -0.0465
14081SOL    HW154302   4.238   6.309   4.523 -0.8138  0.4822 -0.4913
14081SOL    HW254303   4.227   6.350   4.366  0.0492 -1.3184 -1.0391
14082SOL     OW54304   9.007   6.691   9.616  0.1857  0.4814 -0.1303
14082SOL    HW154305   8.936   6.665   9.551  0.2580  0.7712 -0.3272
14082SOL    HW254306   9.090   6.717   9.566  0.4732  0.0181  0.0990
14083SOL     OW54307   3.572   2.907   0.860  0.0026  0.1202  1.2541
14083SOL    HW154308   3.531   2.890   0.950 -1.7428 -0.4497  0.3661
14083SOL    HW254309   3.506   2.885   0.788  1.6143 -0.0744 -0.2002
14084SOL     OW54310   7.627   4.038   7.558  0.0097  0.1159  0.2857
14084SOL    HW154311   7.717   4.002   7.533 -0.7034 -1.7611  0.3684
14084SOL    HW254312   7.628   4.066   7.655  0.2138 -0.8267  0.5583
14085SOL     OW54313   7.755   6.136   9.323  0.0487  0.6801 -0.1899
14085SOL    HW154314   7.761   6.038   9.303  0.9119  0.5007  0.9204
14085SOL    HW254315   7.824   6.185   9.270  0.8572  0.4579  0.6303
14086SOL     OW54316   3.986   8.875   1.356  0.2735 -0.1787  0.2353
14086SOL    HW154317   3.941   8.844   1.439 -0.6148 -1.1975 -0.6164
14086SOL    HW254318   4.013   8.971   1.366  0.0386 -0.2574  1.6283
14087SOL     OW54319   6.487   6.544   2.401 -0.0158 -0.4302  0.0358
14087SOL    HW154320   6.449   6.598   2.326  1.3137  3.2556  1.8633
14087SOL    HW254321   6.414   6.517   2.464 -0.5781  0.2189 -0.3386
14088SOL     OW54322   3.468   8.961   2.919 -0.1661 -0.7635  0.0031
14088SOL    HW154323   3.368   8.969   2.918 -0.1878 -1.0721 -1.2037
14088SOL    HW254324   3.493   8.864   2.917  0.1562 -0.8322  3.6445
14089SOL     OW54325   1.206   9.724   8.764  0.1464 -0.8372  0.2732
14089SOL    HW154326   1.244   9.813   8.741  0.2770 -1.0675 -0.4171
14089SOL    HW254327   1.212   9.710   8.862 -1.8480  0.8221  0.6654
14090SOL     OW54328   7.503   9.098   2.888 -0.2188  0.0193 -0.1026
14090SOL    HW154329   7.541   9.186   2.861  1.9123 -0.6305  0.7102
14090SOL    HW254330   7.437   9.068   2.819 -1.9544  2.8352  0.2490
14091SOL     OW54331   3.977   9.997   7.650 -0.0844  0.3268 -0.2690
14091SOL    HW154332   3.910   9.999   7.724  0.3187  2.5400  0.0990
14091SOL    HW254333   4.057   9.944   7.679 -1.1372 -1.2791 -0.2469
14092SOL     OW54334   4.612   1.735   1.831  0.4859  0.3839  0.2970
14092SOL    HW154335   4.615   1.835   1.828  1.3313  0.3372 -0.6116
14092SOL    HW254336   4.693   1.697   1.786 -0.0258 -0.7195  0.2773
14093SOL     OW54337   1.052   6.263   2.400 -0.5624 -0.7061 -0.2094
14093SOL    HW154338   1.093   6.235   2.314 -0.5199 -1.8696  0.1777
14093SOL    HW254339   0.969   6.210   2.417 -2.4611  1.8123 -1.1263
14094SOL     OW54340   1.292   9.453   3.566  0.5780  0.4304 -0.3569
14094SOL    HW154341   1.300   9.466   3.467  0.4771 -0.2505 -0.4602
14094SOL    HW254342   1.284   9.542   3.611  1.4491  0.7820 -0.8853
14095SOL     OW54343   2.346   6.797   7.392 -0.1624 -0.1457  0.4898
14095SOL    HW154344   2.435   6.830   7.423  0.1020 -1.9226  1.6809
14095SOL    HW254345   2.308   6.734   7.460 -1.2863 -1.1872 -1.0678
14096SOL     OW54346   0.317   0.070   4.184  0.3666  0.1477  0.7769
14096SOL    HW154347   0.282   0.045   4.093  0.1904  0.4907  0.7456
14096SOL    HW254348   0.383   0.145   4.174 -2.6768  3.0074  1.2646
14097SOL     OW54349   7.562   1.048   3.173 -0.1274  0.1527 -0.8222
14097SOL    HW154350   7.647   1.026   3.125  0.0724  0.3669 -0.5649
14097SOL    HW254351   7.492   0.981   3.148 -0.3427  0.9084 -2.2767
14098SOL     OW54352   5.049   8.507   7.923  0.0351  0.3886 -0.4101
14098SOL    HW154353   4.999   8.433   7.967  0.4021 -0.2618 -1.0932
14098SOL    HW254354   5.147   8.485   7.921  0.4467  1.8495  1.3403
14099SOL     OW54355   2.545   7.399   9.326  0.1189 -0.0041  0.0779
14099SOL    HW154356   2.641   7.407   9.300  1.0565 -0.8560  3.1012
14099SOL    HW254357   2.514   7.306   9.310  0.8877 -0.7077  2.4561
14100SOL     OW54358   7.923   4.470   2.247  0.0193  0.3367  0.1837
14100SOL    HW154359   8.014   4.510   2.239 -0.5812  1.4036 -1.5069
14100SOL    HW254360   7.873   4.481   2.161 -0.7718 -2.6062  0.1981
14101SOL     OW54361   7.489   4.078   8.988  0.8923 -0.0511  0.1493
14101SOL    HW154362   7.489   4.173   9.017  0.6039 -0.0827  0.2566
14101SOL    HW254363   7.563   4.029   9.034 -0.9735 -0.6305  2.6012
14102SOL     OW54364   2.028   3.261   4.750 -0.1684 -0.5788  0.7976
14102SOL    HW154365   1.938   3.243   4.791 -0.3487 -2.6681 -0.4483
14102SOL    HW254366   2.017   3.278   4.652  0.6147  1.1423  0.9913
14103SOL     OW54367   5.272   2.438   0.142  0.0093 -0.1987  0.2490
14103SOL    HW154368   5.214   2.518   0.152 -0.0727 -0.0701 -1.1916
14103SOL    HW254369   5.368   2.464   0.151 -0.0429 -0.0292  0.3150
14104SOL     OW54370   5.685   4.102   1.273 -0.3273  0.1689 -0.3174
14104SOL    HW154371   5.717   4.172   1.210 -0.3728  0.2200 -0.2826
14104SOL    HW254372   5.753   4.089   1.345 -0.9696  1.1817  0.4747
14105SOL     OW54373   5.597   9.413   2.375 -0.4983  0.4502  0.2611
14105SOL    HW154374   5.625   9.443   2.284  0.1146  0.3026  0.4034
14105SOL    HW254375   5.608   9.488   2.440  1.2185 -0.1265  0.6563
14106SOL     OW54376   5.340   6.545   9.586  0.1444 -0.5819  0.2184
14106SOL    HW154377   5.394   6.494   9.519 -0.5741 -0.9978 -0.0460
14106SOL    HW254378   5.340   6.496   9.673 -0.2056 -0.8317  0.0799
14107SOL     OW54379   2.973   5.263   6.285  0.7272 -0.7749 -0.0517
14107SOL    HW154380   2.918   5.200   6.230  1.7781  0.4607 -2.6408
14107SOL    HW254381   3.058   5.285   6.235 -0.4946  4.1882 -0.2358
14108SOL     OW54382   2.064   9.877   5.079  0.3768 -0.0703  0.7703
14108SOL    HW154383   2.004   9.870   5.000  0.8164  0.7261  0.3539
14108SOL    HW254384   2.154   9.910   5.049  1.3616 -2.2401  1.2246
14109SOL     OW54385   4.533   4.394   6.998 -0.1643  0.0767  0.2505
14109SOL    HW154386   4.614   4.336   7.005  1.2904  1.9194 -0.7005
14109SOL    HW254387   4.453   4.338   6.976  0.9713 -1.6959  0.5564
14110SOL     OW54388   6.850   3.541   2.610 -0.1903  0.1800  0.3307
14110SOL    HW154389   6.864   3.494   2.523 -2.7248 -0.2550  0.1421
14110SOL    HW254390   6.898   3.629   2.608 -0.7006  0.4225 -1.7020
14111SOL     OW54391   5.173   6.731   2.246  0.0419  0.3006 -0.6494
14111SOL    HW154392   5.118   6.777   2.316  0.5120  0.1304 -0.1625
14111SOL    HW254393   5.173   6.786   2.162  0.3372  1.0371 -0.1767
14112SOL     OW54394   2.140   5.608   5.545 -0.0760 -0.1440 -0.0421
14112SOL    HW154395   2.093   5.674   5.603 -0.7946 -1.5994  1.0719
14112SOL    HW254396   2.238   5.626   5.545 -0.1665  0.3523  1.0012
14113SOL     OW54397   1.286   1.240   0.698 -0.9044 -0.4667 -0.1066
14113SOL    HW154398   1.343   1.171   0.653 -1.0755 -1.5478  1.2829
14113SOL    HW254399   1.325   1.331   0.685 -0.1526 -0.9410 -1.1582
14114SOL     OW54400   4.918   1.900   3.168 -0.0399 -0.2688 -0.2547
14114SOL    HW154401   5.017   1.896   3.176  0.5450 -1.8473 -5.8653
14114SOL    HW254402   4.893   1.969   3.100 -2.6124 -1.6154 -0.7287
14115SOL     OW54403   4.177   0.269   1.958  0.4560  0.2018 -0.0981
14115SOL    HW154404   4.166   0.171   1.939 -0.9386  0.5019 -0.9531
14115SOL    HW254405   4.176   0.319   1.871  3.5146  0.7761  0.1680
14116SOL     OW54406   0.629   3.444   4.195  0.5349 -0.3885 -0.2697
14116SOL    HW154407   0.626   3.491   4.107  0.7794 -0.2722 -0.2166
14116SOL    HW254408   0.561   3.370   4.196 -0.0637  0.1539 -0.2478
14117SOL     OW54409   1.811   3.170   4.282  0.1500 -0.1597  0.0537
14117SOL    HW154410   1.795   3.079   4.244 -0.4866  0.1100 -0.3319
14117SOL    HW254411   1.837   3.232   4.208 -1.0927  0.3692  0.0564
14118SOL     OW54412   4.692   3.160   0.649  0.1107 -0.1254  0.5459
14118SOL    HW154413   4.762   3.231   0.646 -0.5769  0.5114 -1.9146
14118SOL    HW254414   4.633   3.173   0.729  0.2545  1.8098  0.3546
14119SOL     OW54415   1.339   5.474   9.654  0.1714 -0.3821  0.3189
14119SOL    HW154416   1.414   5.440   9.597 -1.3991  0.3947 -2.2774
14119SOL    HW254417   1.273   5.400   9.670  0.1369 -0.3435  0.3562
14120SOL     OW54418   2.793   8.301   6.226 -0.0867  0.3102  0.6553
14120SOL    HW154419   2.699   8.289   6.259 -0.5905  2.1082 -0.0342
14120SOL    HW254420   2.829   8.388   6.261  0.9645  0.1076  0.0908
14121SOL     OW54421   1.038   6.842   8.052 -0.4534 -0.1855  0.0398
14121SOL    HW154422   1.057   6.856   8.149 -0.6570  0.3190  0.0079
14121SOL    HW254423   0.941   6.819   8.041 -0.4514 -0.1484 -0.0514
14122SOL     OW54424   4.558   1.028   5.480 -0.0091 -0.2092 -0.4896
14122SOL    HW154425   4.521   1.050   5.390 -3.1922 -0.6479  0.6445
14122SOL    HW254426   4.576   1.113   5.530  1.4699  0.0263 -1.3895
14123SOL     OW54427   7.278   2.732   3.432 -0.4309  0.4976 -0.0202
14123SOL    HW154428   7.205   2.762   3.493  1.5188  1.1382  2.0951
14123SOL    HW254429   7.359   2.789   3.446  0.8204 -0.8545 -1.5302
14124SOL     OW54430   6.792   0.900   9.620 -0.2732 -0.7483 -0.8057
14124SOL    HW154431   6.760   0.897   9.526  1.9089  0.9603 -1.6451
14124SOL    HW254432   6.892   0.895   9.621 -0.3811 -3.4746  1.5826
14125SOL     OW54433   4.524   4.389   0.515 -0.2254  0.0278  0.4934
14125SOL    HW154434   4.575   4.473   0.531 -0.6148  0.3306  0.1562
14125SOL    HW254435   4.543   4.324   0.588  0.9540 -0.0140  0.1631
14126SOL     OW54436   6.449   6.052   4.829  0.2530  0.1614 -1.0049
14126SOL    HW154437   6.366   6.087   4.786  0.3652  1.2573 -0.3278
14126SOL    HW254438   6.522   6.048   4.761 -0.2574 -0.5325 -1.5312
14127SOL     OW54439   2.605   2.451   3.597  0.0501 -0.1223  0.6538
14127SOL    HW154440   2.545   2.504   3.657 -0.0356  0.4070  0.1043
14127SOL    HW254441   2.668   2.512   3.549 -0.5803 -0.4207 -0.5903
14128SOL     OW54442   4.353   4.219   1.486  0.3674 -0.3145  0.1879
14128SOL    HW154443   4.357   4.196   1.389  0.2075  1.1986 -0.1944
14128SOL    HW254444   4.275   4.174   1.528  0.4146 -0.9409 -0.4004
14129SOL     OW54445   5.058   7.696   4.677  0.3424  0.1773  0.5954
14129SOL    HW154446   4.962   7.695   4.648 -0.0354 -1.1937  1.8278
14129SOL    HW254447   5.069   7.638   4.757  2.9614 -2.9394 -1.8848
14130SOL     OW54448   2.459   6.352   0.175  0.4041  0.0181 -0.2371
14130SOL    HW154449   2.538   6.312   0.129  0.7403  1.3731 -0.8803
14130SOL    HW254450   2.474   6.353   0.274  1.0288 -0.0982 -0.3316
14131SOL     OW54451   6.982   5.171   2.944  0.5529  0.3306 -0.3722
14131SOL    HW154452   6.989   5.260   2.899  2.6121 -0.2421 -1.2526
14131SOL    HW254453   7.050   5.164   3.017 -0.9577  0.2256  1.0611
14132SOL     OW54454   0.582   6.143   5.411  0.2283 -0.1979 -0.3116
14132SOL    HW154455   0.647   6.079   5.452  0.8495  0.7026  0.1426
14132SOL    HW254456   0.608   6.162   5.317  0.2991 -0.2744 -0.3074
14133SOL     OW54457   4.104   7.480   4.074  0.1555  0.2572 -0.0112
14133SOL    HW154458   4.190   7.505   4.030  0.9843 -1.4371  0.5624
14133SOL    HW254459   4.119   7.473   4.173 -1.1704  2.0110  0.3203
14134SOL     OW54460   4.882   9.109   9.653 -0.3633  0.2406  1.0234
14134SOL    HW154461   4.911   9.204   9.667 -1.8875  0.5539  2.2610
14134SOL    HW254462   4.948   9.047   9.695  0.2123  0.7817  0.9264
14135SOL     OW54463   4.219   2.225   0.820  0.0474  0.5253  0.3357
14135SOL    HW154464   4.148   2.288   0.788  1.3374  1.7708 -0.1551
14135SOL    HW254465   4.196   2.132   0.793 -0.3142  1.1885 -1.7584
14136SOL     OW54466   3.758   4.981   8.077  0.3639  0.7089  0.6262
14136SOL    HW154467   3.827   4.910   8.062 -0.7524 -0.6257  1.6622
14136SOL    HW254468   3.782   5.033   8.159 -0.0735 -0.0511  1.2480
14137SOL     OW54469   3.871   8.122   3.310  0.1768 -0.1443 -0.0358
14137SOL    HW154470   3.913   8.155   3.394 -0.7022 -0.0531  0.3758
14137SOL    HW254471   3.772   8.111   3.324  0.3204 -2.0888 -0.4268
14138SOL     OW54472   2.624   6.180   8.149 -0.4803 -0.3673 -0.4720
14138SOL    HW154473   2.622   6.279   8.163 -1.0712 -0.4244 -0.1057
14138SOL    HW254474   2.571   6.157   8.068  1.1478 -0.2285 -1.5905
14139SOL     OW54475   2.129   5.082   5.709  0.2217 -0.2681 -0.0842
14139SOL    HW154476   2.229   5.088   5.718  0.2617 -1.1187  0.0894
14139SOL    HW254477   2.099   4.991   5.737 -0.5909 -0.0655 -0.2939
14140SOL     OW54478   1.660   6.477   8.383  0.0200  0.0513 -0.1106
14140SOL    HW154479   1.580   6.424   8.352  0.1738  0.1423 -0.6615
14140SOL    HW254480   1.639   6.520   8.471  0.2473 -1.7605  0.8566
14141SOL     OW54481   4.680   5.419   3.718  0.4066  0.0017  0.5326
14141SOL    HW154482   4.680   5.519   3.717  0.0615  0.0402  2.5353
14141SOL    HW254483   4.601   5.385   3.666 -0.2691  0.7844  1.0498
14142SOL     OW54484   2.959   8.052   4.454 -0.3317 -0.1228 -0.0005
14142SOL    HW154485   2.980   8.070   4.358  0.3937  0.4825  0.2689
14142SOL    HW254486   2.934   7.955   4.465 -1.2084 -0.0143 -0.9286
14143SOL     OW54487   1.698   5.894   4.565  0.5031  0.6006 -0.3333
14143SOL    HW154488   1.711   5.814   4.622 -0.7707  1.0497  0.6004
14143SOL    HW254489   1.632   5.873   4.493  0.4599  0.6992 -0.3221
14144SOL     OW54490   6.592   8.532   1.824 -0.1302  0.1071 -0.2514
14144SOL    HW154491   6.613   8.507   1.729 -0.0427  0.8189 -0.4266
14144SOL    HW254492   6.628   8.624   1.842  0.8561 -0.4853  0.8179
14145SOL     OW54493   2.218   6.621   2.606 -0.0736 -0.1461 -0.3807
14145SOL    HW154494   2.235   6.522   2.610  1.9135  0.1666 -0.3152
14145SOL    HW254495   2.229   6.660   2.697 -3.1000 -0.1762  0.0307
14146SOL     OW54496   1.716   2.683   3.122 -0.6179 -0.3593  0.1060
14146SOL    HW154497   1.715   2.585   3.103  0.2088 -0.1599 -1.0295
14146SOL    HW254498   1.623   2.713   3.142 -0.9296 -1.3177  0.1441
14147SOL     OW54499   6.225   1.938   3.035 -0.2855  0.2996  0.4888
14147SOL    HW154500   6.251   1.863   3.096 -0.0741  1.2633  1.6067
14147SOL    HW254501   6.128   1.933   3.016 -0.2241 -0.4161  0.3444
14148SOL     OW54502   2.817   7.243   3.436 -0.2958 -0.4381  0.2875
14148SOL    HW154503   2.798   7.248   3.338  0.4714  0.8768  0.1953
14148SOL    HW254504   2.866   7.158   3.457  0.4503 -0.2362 -0.6235
14149SOL     OW54505   6.928   2.092   1.342  0.1669  0.5419  0.0932
14149SOL    HW154506   6.841   2.059   1.380  0.5337 -0.3717  0.1650
14149SOL    HW254507   6.910   2.156   1.267 -0.5651  0.3549  0.1056
14150SOL     OW54508   6.459   9.084   6.079  0.1904 -0.8433  0.0598
14150SOL    HW154509   6.361   9.096   6.093  0.2369 -1.3648  0.8952
14150SOL    HW254510   6.485   9.122   5.990 -1.0480 -2.1165 -0.8891
14151SOL     OW54511   4.886   7.434   4.242 -0.0871 -0.6549 -0.9002
14151SOL    HW154512   4.838   7.347   4.246  1.3786 -1.5159 -1.6472
14151SOL    HW254513   4.837   7.496   4.181 -1.5669 -0.6546  0.2457
14152SOL     OW54514   5.561   6.577   8.610 -0.4975  0.3831 -0.0181
14152SOL    HW154515   5.498   6.638   8.563 -1.2028  0.8928  1.5654
14152SOL    HW254516   5.537   6.482   8.589  0.9087  0.6078 -2.8807
14153SOL     OW54517   8.225   2.663   0.701  0.0773 -0.3912  0.1389
14153SOL    HW154518   8.177   2.598   0.760  0.6390 -1.0137 -0.0767
14153SOL    HW254519   8.162   2.733   0.669 -0.4814 -0.6916  0.5774
14154SOL     OW54520   4.035   6.053   6.003 -0.0934 -0.0611 -0.3670
14154SOL    HW154521   4.086   5.967   5.999  1.9628  1.1430 -0.9669
14154SOL    HW254522   3.937   6.034   6.001  0.3330 -2.3495 -1.0790
14155SOL     OW54523   0.102   9.123   9.175  0.1536  0.4855  0.5499
14155SOL    HW154524   0.005   9.119   9.150 -0.3649  1.7658  2.2686
14155SOL    HW254525   0.127   9.039   9.223 -0.8763  1.3482  2.6716
14156SOL     OW54526   4.572   3.624   1.253  0.8774 -0.2643 -0.0649
14156SOL    HW154527   4.669   3.640   1.236  0.9156  1.8346  1.9507
14156SOL    HW254528   4.557   3.606   1.350 -1.0951  2.7295  0.2706
14157SOL     OW54529   7.291   2.144   3.695 -0.2062  0.3230  0.4288
14157SOL    HW154530   7.355   2.221   3.691 -0.0711  0.1520 -1.0217
14157SOL    HW254531   7.342   2.059   3.708 -0.2567  0.3619  0.8584
14158SOL     OW54532   2.094   5.880   4.652 -0.3111  0.1752  0.1292
14158SOL    HW154533   2.028   5.955   4.648 -1.3036 -0.7441 -1.2072
14158SOL    HW254534   2.057   5.807   4.709 -0.4519 -0.3223 -0.5865
14159SOL     OW54535   6.334   5.875   9.923 -0.2327  0.3156 -0.6229
14159SOL    HW154536   6.341   5.775   9.926  1.4909  0.4506  0.8657
14159SOL    HW254537   6.394   5.910   9.851 -0.2747  0.3330 -0.6494
14160SOL     OW54538   5.109   0.011   1.988  0.2482  0.0239  0.2779
14160SOL    HW154539   5.099   0.037   1.892 -0.7335 -3.5861 -0.6719
14160SOL    HW254540   5.019  -0.003   2.029  0.7120 -1.6781  0.7529
14161SOL     OW54541   5.717   4.157   0.704  0.0077  0.0976  0.4059
14161SOL    HW154542   5.727   4.064   0.739  1.1851  0.8413  2.1278
14161SOL    HW254543   5.634   4.198   0.741  0.6917  0.5109  1.5126
14162SOL     OW54544   6.331   9.157   3.543  0.6034 -0.0787 -0.5893
14162SOL    HW154545   6.304   9.250   3.517  1.7947  0.6462  0.6554
14162SOL    HW254546   6.257   9.093   3.522 -1.6618  1.6674  1.7052
14163SOL     OW54547   2.033   4.452   4.593 -0.5075 -0.5669  0.6388
14163SOL    HW154548   1.966   4.518   4.625 -0.3696 -0.1089 -0.0127
14163SOL    HW254549   2.005   4.418   4.503  0.6081  0.3088 -0.0422
14164SOL     OW54550   3.847   4.184   7.040 -0.0759 -0.5307 -0.4347
14164SOL    HW154551   3.873   4.180   6.944 -0.2756  1.6478 -0.6069
14164SOL    HW254552   3.926   4.213   7.095 -0.2410 -0.7517 -0.0816
14165SOL     OW54553   4.770   7.319   5.182  0.1969  0.5355 -0.1722
14165SOL    HW154554   4.803   7.316   5.088 -0.1654  0.3622 -0.2981
14165SOL    HW254555   4.839   7.281   5.243 -0.1659 -0.7893 -0.5512
14166SOL     OW54556   0.324   8.242   6.456  0.1367  0.0258  0.2421
14166SOL    HW154557   0.246   8.265   6.397  1.2474  0.7117 -0.9808
14166SOL    HW254558   0.292   8.186   6.533 -1.3744 -0.7544 -0.9193
14167SOL     OW54559   6.484   6.598   0.487  0.3323 -0.0720  0.0367
14167SOL    HW154560   6.455   6.629   0.396  0.0797  2.2775  0.8759
14167SOL    HW254561   6.413   6.540   0.526 -0.1609  0.0075 -0.7184
14168SOL     OW54562   2.662   9.880   5.379 -0.3470  0.2767 -0.1035
14168SOL    HW154563   2.583   9.924   5.423 -0.8736 -1.0353  0.2771
14168SOL    HW254564   2.637   9.789   5.347  0.9890 -0.1189 -0.0766
14169SOL     OW54565   8.973   5.870   2.416 -0.2558  0.3340 -0.1756
14169SOL    HW154566   9.008   5.816   2.339  2.3804 -0.9592  1.8621
14169SOL    HW254567   8.972   5.814   2.499 -0.5204  2.4772  1.3137
14170SOL     OW54568   5.110   7.892   3.884 -0.7920 -0.4207 -0.0852
14170SOL    HW154569   5.102   7.889   3.984 -1.4176 -0.4088 -0.1334
14170SOL    HW254570   5.035   7.946   3.846  0.5712  1.2421 -0.4362
14171SOL     OW54571   3.399   4.232   6.665 -0.3505 -0.2392 -0.0049
14171SOL    HW154572   3.361   4.144   6.693 -0.3366 -0.2393  0.0137
14171SOL    HW254573   3.438   4.223   6.573 -0.3286 -0.2586  0.0061
14172SOL     OW54574   7.037   5.158   2.101 -0.1076 -0.0397  0.1886
14172SOL    HW154575   7.096   5.222   2.053  0.9919  0.5295  2.2306
14172SOL    HW254576   7.093   5.095   2.155 -1.2967 -0.6438  0.7475
14173SOL     OW54577   0.069   6.365   4.577 -0.2675 -0.4872 -0.6165
14173SOL    HW154578   0.017   6.304   4.637 -0.0913 -0.0626 -0.0400
14173SOL    HW254579   0.167   6.350   4.591 -0.1436  2.2567  1.9479
14174SOL     OW54580   3.736   4.957   0.415  0.3088 -0.1474 -0.0501
14174SOL    HW154581   3.657   4.908   0.378 -1.1649  1.2004  1.2179
14174SOL    HW254582   3.758   5.035   0.357 -1.4078  1.4083  1.2995
14175SOL     OW54583   5.919   5.607   0.480 -0.2304 -0.3211 -0.3694
14175SOL    HW154584   5.994   5.668   0.453 -0.1032 -0.6844 -0.8466
14175SOL    HW254585   5.939   5.514   0.450 -1.0512 -0.3492 -0.8488
14176SOL     OW54586   3.939   7.372   2.948 -0.0918 -0.2848  0.1747
14176SOL    HW154587   3.863   7.406   2.893  0.4896 -1.0199 -1.1329
14176SOL    HW254588   3.952   7.274   2.929  0.2618 -0.4961  1.4702
14177SOL     OW54589   1.011   0.544   1.949 -0.1416  0.1398  0.6044
14177SOL    HW154590   0.927   0.570   1.997  0.5528  0.4449  1.6748
14177SOL    HW254591   1.089   0.584   1.996  0.6080 -0.1725 -0.3716
14178SOL     OW54592   5.744   6.755   1.748  0.2285  0.0935  0.1713
14178SOL    HW154593   5.797   6.790   1.671 -0.8299  1.4807  0.0543
14178SOL    HW254594   5.781   6.793   1.833 -0.1298  0.4725  0.1537
14179SOL     OW54595   9.831   7.986   2.843  0.1740  0.1436 -0.5521
14179SOL    HW154596   9.884   8.032   2.771 -1.0960  1.6033 -0.5679
14179SOL    HW254597   9.751   7.942   2.802 -0.2391  0.4880 -0.1112
14180SOL     OW54598   0.257   6.728   4.451  0.2482  0.1125  0.3129
14180SOL    HW154599   0.260   6.797   4.379 -0.9130  1.4181  1.4852
14180SOL    HW254600   0.177   6.669   4.438  0.9383 -0.6943 -0.3743
14181SOL     OW54601   5.791   3.524   2.246  0.9933  0.2585 -0.1511
14181SOL    HW154602   5.819   3.509   2.151  0.2285 -0.8938 -0.2095
14181SOL    HW254603   5.867   3.564   2.297  2.3402 -1.6591 -0.6041
14182SOL     OW54604   9.946   7.342   4.071  0.4773  0.4050  0.1024
14182SOL    HW154605   9.941   7.415   4.140  1.2283 -0.1196  0.7181
14182SOL    HW254606   9.863   7.286   4.076  0.7657  0.0525  0.9299
14183SOL     OW54607   3.023   9.922   3.534  0.3015  0.0045 -0.2544
14183SOL    HW154608   3.047   9.970   3.619 -0.3617  0.6873 -0.4473
14183SOL    HW254609   3.106   9.885   3.492  0.5103 -1.2912  1.2572
14184SOL     OW54610   3.415   0.659   1.303 -0.5948  0.2987  0.0538
14184SOL    HW154611   3.413   0.636   1.401  2.0102  1.5753  0.4553
14184SOL    HW254612   3.468   0.590   1.254 -0.0495  0.8270 -0.1013
14185SOL     OW54613   0.126   4.556   4.882 -0.2950 -0.4054  0.2323
14185SOL    HW154614   0.203   4.563   4.946  0.4503  0.6474 -0.7643
14185SOL    HW254615   0.054   4.620   4.910 -1.2800 -2.1569  1.7845
14186SOL     OW54616   5.780   4.910   8.879  0.0075 -0.1354 -0.5371
14186SOL    HW154617   5.804   4.878   8.788  0.6609  0.3545 -0.5423
14186SOL    HW254618   5.863   4.943   8.926 -0.4118  0.1414  0.0173
14187SOL     OW54619   4.767   4.375   1.805 -0.1043 -0.1601 -0.0253
14187SOL    HW154620   4.764   4.417   1.896  0.2140 -0.4498  0.1219
14187SOL    HW254621   4.707   4.294   1.805  0.6293 -0.7100  0.2123
14188SOL     OW54622   0.928   9.921   1.137  0.4458 -0.2867 -0.1991
14188SOL    HW154623   0.869   9.962   1.068  0.7590  1.3531  0.4891
14188SOL    HW254624   0.987   9.853   1.094 -0.6609 -0.6314 -1.2127
14189SOL     OW54625   4.905   5.277   8.078  0.3517  0.0468 -0.3824
14189SOL    HW154626   4.932   5.342   8.150  0.0656 -1.5979  1.2448
14189SOL    HW254627   4.806   5.265   8.080  0.3669 -0.1584 -0.9175
14190SOL     OW54628   2.569   8.861   3.264  0.8763 -0.4274  0.1304
14190SOL    HW154629   2.487   8.874   3.320  0.1142  0.3421 -1.1323
14190SOL    HW254630   2.576   8.766   3.236 -0.0530 -0.3362 -0.4355
14191SOL     OW54631   8.885   2.252   4.497  0.6153 -0.2800  0.7021
14191SOL    HW154632   8.833   2.334   4.474  0.9784  0.1656  1.4319
14191SOL    HW254633   8.900   2.248   4.596  2.1161 -0.2968  0.4949
14192SOL     OW54634   6.318   7.792   1.533  0.5916  0.4119  0.5761
14192SOL    HW154635   6.219   7.801   1.538  0.3144 -2.2640  0.5225
14192SOL    HW254636   6.360   7.851   1.601 -1.0056  1.8165  0.3831
14193SOL     OW54637   3.823   9.523   1.637  0.2340 -0.5105  0.1158
14193SOL    HW154638   3.850   9.437   1.681 -0.4294 -0.2541  1.0536
14193SOL    HW254639   3.743   9.506   1.579  0.1404 -0.5448  0.2530
14194SOL     OW54640   6.879   7.599   3.045  0.3799  0.1239 -0.0479
14194SOL    HW154641   6.936   7.584   2.964  0.9423 -0.1978  0.3983
14194SOL    HW254642   6.937   7.598   3.127 -0.4629 -1.6610  0.5468
14195SOL     OW54643   7.703   1.616   3.452  0.0786 -0.8699  0.2751
14195SOL    HW154644   7.644   1.642   3.529 -0.1677 -1.1138  0.1737
14195SOL    HW254645   7.796   1.602   3.485 -0.1216 -1.4334  0.6206
14196SOL     OW54646   3.666   3.705   4.834  0.4177  0.2608 -0.2585
14196SOL    HW154647   3.575   3.727   4.799 -0.0106 -0.1036  0.6037
14196SOL    HW254648   3.693   3.614   4.803  0.1177  0.0146  0.1907
14197SOL     OW54649   1.816   8.188   8.444  0.4703  0.1645  0.2585
14197SOL    HW154650   1.764   8.164   8.362  3.0149  0.6533 -1.5586
14197SOL    HW254651   1.852   8.104   8.486 -1.1776 -0.1186  1.1274
14198SOL     OW54652   9.538   1.008   3.977 -0.2252  0.1430  0.0109
14198SOL    HW154653   9.456   1.060   4.003 -0.1791  0.7175 -0.9752
14198SOL    HW254654   9.613   1.032   4.038 -1.0126 -1.0056  1.4531
14199SOL     OW54655   1.578   2.904   1.532  0.1728 -0.5142 -0.6311
14199SOL    HW154656   1.678   2.912   1.533  0.1283  0.0381  0.1452
14199SOL    HW254657   1.549   2.851   1.612 -0.1280 -1.0214 -1.0790
14200SOL     OW54658   6.190   3.766   9.309  0.0529  0.2637  0.3590
14200SOL    HW154659   6.187   3.817   9.223 -1.2331 -0.5650 -0.0964
14200SOL    HW254660   6.131   3.810   9.376  1.2546  1.0583  0.9246
14201SOL     OW54661   2.314   8.187   3.557 -0.1008  0.5211  0.0543
14201SOL    HW154662   2.288   8.147   3.645  1.2250  1.2953  0.8131
14201SOL    HW254663   2.232   8.209   3.505 -0.8883 -1.6553  0.3028
14202SOL     OW54664   5.941   5.636   2.409  0.0835  0.0409  0.4861
14202SOL    HW154665   5.914   5.704   2.477  0.8707  0.4331  0.4099
14202SOL    HW254666   6.013   5.577   2.446  1.8956  1.4802 -0.6487
14203SOL     OW54667   4.979   7.248   1.048  0.1068 -0.3415 -0.1359
14203SOL    HW154668   4.908   7.319   1.053 -0.0203 -0.5095  0.4481
14203SOL    HW254669   5.065   7.290   1.021 -0.2529 -0.1628 -1.0166
14204SOL     OW54670   8.556   3.475   2.344  0.0004  0.1930  0.3952
14204SOL    HW154671   8.502   3.533   2.406 -2.2231  0.8123 -2.0015
14204SOL    HW254672   8.598   3.533   2.273 -1.3172 -0.9600 -1.3683
14205SOL     OW54673   1.192   8.944   0.321 -0.2385  0.2062  0.1566
14205SOL    HW154674   1.170   9.028   0.272 -2.1751  0.3648  1.2159
14205SOL    HW254675   1.289   8.942   0.343 -0.3046  2.5182  0.7521
14206SOL     OW54676   4.891   3.095   0.222 -0.5480  0.1728 -0.2904
14206SOL    HW154677   4.856   3.173   0.169  0.4746  0.4570 -0.5669
14206SOL    HW254678   4.948   3.130   0.297 -1.6556 -0.2452  0.7387
14207SOL     OW54679   3.884   9.385   6.469 -0.1640  0.7048  0.3769
14207SOL    HW154680   3.909   9.356   6.377  1.0176 -3.7957  1.9720
14207SOL    HW254681   3.936   9.467   6.493  2.1649 -0.1046 -1.6916
14208SOL     OW54682   3.497   4.332   1.860  0.4510  0.9092  0.3287
14208SOL    HW154683   3.558   4.330   1.939 -0.2704  1.8443  0.9259
14208SOL    HW254684   3.417   4.275   1.878 -0.4338  2.2946  0.8958
14209SOL     OW54685   4.654   2.613   8.430  0.0194  0.1216  0.0777
14209SOL    HW154686   4.694   2.594   8.341  0.7057 -0.0525  0.4177
14209SOL    HW254687   4.690   2.548   8.497 -0.2010  0.4906  0.5558
14210SOL     OW54688   6.089   9.232   2.600 -0.2204 -0.4863  0.0446
14210SOL    HW154689   6.062   9.277   2.685  0.5890  1.5527 -0.7510
14210SOL    HW254690   6.011   9.228   2.538  0.0342  1.1276 -0.4161
14211SOL     OW54691   0.868   5.465   4.286 -0.5873 -0.1227 -0.2095
14211SOL    HW154692   0.808   5.477   4.365 -1.3750  0.5140 -0.8868
14211SOL    HW254693   0.863   5.547   4.229  1.2781  0.1128 -0.0491
14212SOL     OW54694   0.513   8.128   9.421 -0.2185  0.0926  0.4486
14212SOL    HW154695   0.425   8.096   9.456 -0.2240  2.1387  2.4806
14212SOL    HW254696   0.584   8.114   9.491  0.8663 -0.5159 -0.7430
14213SOL     OW54697   9.941   9.973   3.909 -0.3136  0.4862 -0.4702
14213SOL    HW154698   9.883  10.050   3.884 -0.9991  0.3725  0.7692
14213SOL    HW254699   9.918   9.894   3.851 -1.9826  0.1860  0.5795
14214SOL     OW54700   5.743   9.082   5.829  0.2637  0.3814 -0.0450
14214SOL    HW154701   5.697   9.167   5.803  1.4239  0.7089 -1.0987
14214SOL    HW254702   5.770   9.087   5.925  0.0054  1.0610 -0.0049
14215SOL     OW54703   7.178   2.583   3.962  0.0110 -0.8811 -0.0091
14215SOL    HW154704   7.278   2.581   3.963  0.0201 -1.9607 -1.3301
14215SOL    HW254705   7.147   2.677   3.948  0.8650 -0.6870 -0.6753
14216SOL     OW54706   3.998   1.169   3.831 -0.3038  0.1971  0.5647
14216SOL    HW154707   3.950   1.232   3.771 -0.3649 -0.0692  0.3306
14216SOL    HW254708   3.934   1.103   3.869  0.1166 -1.2396 -1.1086
14217SOL     OW54709   2.065   6.351   2.383 -0.7185  0.3437 -0.5593
14217SOL    HW154710   2.139   6.347   2.451  0.6699 -3.5533 -2.1609
14217SOL    HW254711   2.098   6.397   2.300 -0.7773  0.4626 -0.5176
14218SOL     OW54712   2.929   3.457   4.004 -0.6752 -0.2927 -0.2635
14218SOL    HW154713   2.925   3.520   4.082 -0.3976  0.0927 -0.5629
14218SOL    HW254714   3.008   3.397   4.013  0.3024  0.8496 -1.0866
14219SOL     OW54715   9.812   5.624   2.886 -0.4047  0.1133  0.0598
14219SOL    HW154716   9.775   5.679   2.961 -2.6230 -0.8169 -0.3079
14219SOL    HW254717   9.840   5.534   2.922  0.2040  0.3109  0.0830
14220SOL     OW54718   4.943   9.556   3.054 -0.0419  0.2951 -0.0173
14220SOL    HW154719   5.001   9.630   3.089 -0.6793  1.5523 -1.5148
14220SOL    HW254720   4.997   9.495   2.997 -0.1049  1.4214 -1.3440
14221SOL     OW54721   3.501   4.167   5.877 -0.3240  0.2020 -0.5438
14221SOL    HW154722   3.416   4.136   5.921  0.5599  0.5076  1.4271
14221SOL    HW254723   3.479   4.211   5.790 -2.0511 -1.1006 -0.7929
14222SOL     OW54724   6.818   7.632   4.092  0.4045 -0.2009  0.7078
14222SOL    HW154725   6.762   7.685   4.155 -1.1389 -1.3148  0.3137
14222SOL    HW254726   6.896   7.592   4.141 -0.5898 -0.7769  1.8493
14223SOL     OW54727   3.977   4.268   8.324  0.6343  0.5223  0.1105
14223SOL    HW154728   4.005   4.230   8.412  1.4332  2.8121  0.8829
14223SOL    HW254729   4.025   4.221   8.250  2.7904  1.0504  1.1408
14224SOL     OW54730   0.254   0.322   9.365 -0.6348 -0.3752  0.2423
14224SOL    HW154731   0.326   0.284   9.424  2.0715  1.2111 -1.9172
14224SOL    HW254732   0.199   0.386   9.418 -0.5524 -1.7173  1.9851
14225SOL     OW54733   2.275   6.752   2.839  0.2583 -0.4405  0.2983
14225SOL    HW154734   2.220   6.699   2.903  0.8425  0.9303  1.9827
14225SOL    HW254735   2.227   6.838   2.818  0.4395 -0.5235 -0.4612
14226SOL     OW54736   9.933   8.731   9.763 -0.0578 -0.0431 -0.1045
14226SOL    HW154737   9.985   8.805   9.721 -0.2919 -0.7418 -1.6414
14226SOL    HW254738   9.974   8.643   9.739 -0.3948 -0.4765  0.8609
14227SOL     OW54739   7.156   8.055   5.898 -0.0017  0.0032 -0.3479
14227SOL    HW154740   7.131   8.149   5.924 -2.6038  0.0100 -2.6139
14227SOL    HW254741   7.174   8.052   5.800  2.2719 -1.4727  0.0803
14228SOL     OW54742   4.445   8.659   7.373  0.4612  0.1049  0.3529
14228SOL    HW154743   4.415   8.738   7.319  0.1245  0.8851  1.6487
14228SOL    HW254744   4.510   8.690   7.443 -1.0937 -0.4304  2.0871
14229SOL     OW54745   6.168   8.594   3.607  0.5831 -0.1974 -0.1080
14229SOL    HW154746   6.242   8.648   3.569  1.5392 -1.6859 -0.4142
14229SOL    HW254747   6.141   8.523   3.541 -0.9725  0.1868  0.0803
14230SOL     OW54748   0.378   2.318   3.660  0.6508  0.3962  0.1566
14230SOL    HW154749   0.396   2.230   3.704  0.3074  0.3292  0.1659
14230SOL    HW254750   0.302   2.363   3.708 -0.1066  0.0691 -0.7277
14231SOL     OW54751   8.811   0.197   8.888 -0.0950 -0.1277 -0.2429
14231SOL    HW154752   8.886   0.132   8.901 -1.3588 -1.8350 -1.2134
14231SOL    HW254753   8.733   0.168   8.943 -0.6758  0.5664 -0.7000
14232SOL     OW54754   3.961   7.304   1.815 -0.1193 -0.1850 -0.0440
14232SOL    HW154755   4.034   7.327   1.752  2.1465  0.6708  2.7836
14232SOL    HW254756   3.971   7.209   1.845 -1.2061 -0.5992 -0.9477
14233SOL     OW54757   0.538   9.854   5.061  0.1031 -0.2371 -0.1763
14233SOL    HW154758   0.484   9.772   5.041  0.0220 -0.7755  2.1596
14233SOL    HW254759   0.479   9.934   5.057  0.3061 -0.1872 -3.0939
14234SOL     OW54760   7.787   8.510   6.950 -0.1596  0.1886  0.4034
14234SOL    HW154761   7.689   8.502   6.934 -0.0285  2.9755 -2.1447
14234SOL    HW254762   7.804   8.590   7.008  0.4913 -1.5106  2.6136
14235SOL     OW54763   1.024   3.286   2.769  0.3765 -0.4962 -0.8068
14235SOL    HW154764   1.117   3.320   2.782 -0.2576  0.7933  0.5314
14235SOL    HW254765   1.027   3.196   2.726  2.3145 -1.2789  0.8985
14236SOL     OW54766   6.063   5.991   3.112 -0.5050  0.3968  0.6444
14236SOL    HW154767   6.078   5.907   3.060 -1.8462 -0.0425  0.9549
14236SOL    HW254768   6.146   6.047   3.108 -1.2374  1.3226 -3.6770
14237SOL     OW54769   5.168   6.673   6.718  0.3886 -0.3547 -0.0394
14237SOL    HW154770   5.253   6.685   6.770 -0.3672 -1.3555  1.4641
14237SOL    HW254771   5.094   6.721   6.764  0.4577  2.0049 -2.3045
14238SOL     OW54772   7.220   6.107   6.791  0.2164 -0.3150 -0.0841
14238SOL    HW154773   7.184   6.143   6.877  1.0307 -1.9545  0.9743
14238SOL    HW254774   7.147   6.102   6.723 -0.0524  2.7149 -0.1088
14239SOL     OW54775   3.500   7.604   6.657 -0.3404  0.2125 -0.5947
14239SOL    HW154776   3.458   7.631   6.571 -2.7449 -0.6947  0.2594
14239SOL    HW254777   3.440   7.632   6.733  1.6565  0.8553  0.7859
14240SOL     OW54778   3.815   4.782   5.352 -0.2272 -0.0169  0.8774
14240SOL    HW154779   3.799   4.792   5.450  1.3902 -2.0601  1.3827
14240SOL    HW254780   3.738   4.732   5.311 -0.6735  0.4092  1.1975
14241SOL     OW54781   6.569   0.002   5.552  0.2814 -0.1269  0.2440
14241SOL    HW154782   6.622   0.031   5.472 -2.5563  1.5914 -1.1038
14241SOL    HW254783   6.546  -0.094   5.544  0.3037 -0.0458 -0.8471
14242SOL     OW54784   4.897   9.800   8.973 -0.3350  0.3323 -0.2953
14242SOL    HW154785   4.911   9.744   9.054 -0.7450 -0.2065 -0.5947
14242SOL    HW254786   4.919   9.747   8.891 -1.2004  0.4512 -0.6057
14243SOL     OW54787   6.962   6.341   6.436 -0.2153 -0.2133 -0.1940
14243SOL    HW154788   6.876   6.376   6.472 -0.3013 -0.1433 -0.4735
14243SOL    HW254789   7.017   6.417   6.401 -0.3730 -0.3484 -0.7387
14244SOL     OW54790   5.586   0.718   9.362  0.4256  0.0288 -0.1576
14244SOL    HW154791   5.499   0.712   9.312  0.2725 -1.0388  0.2108
14244SOL    HW254792   5.571   0.766   9.449  0.3479  0.4368 -0.3940
14245SOL     OW54793   5.852   7.603   6.704  0.0553 -0.1775  0.5863
14245SOL    HW154794   5.886   7.514   6.735  1.1770  0.8083  2.2779
14245SOL    HW254795   5.885   7.621   6.612  0.0376 -1.3960  0.3335
14246SOL     OW54796   9.263   6.338   3.687 -0.4951 -0.1859  0.1713
14246SOL    HW154797   9.267   6.435   3.661  0.3790 -0.3203 -0.2032
14246SOL    HW254798   9.352   6.295   3.671 -0.6387 -0.8595  1.1145
14247SOL     OW54799   5.314   1.850   9.422  0.8463  0.1042  0.4446
14247SOL    HW154800   5.270   1.887   9.340  2.3835  0.4963 -0.2119
14247SOL    HW254801   5.341   1.925   9.482  2.0261 -0.0572  0.1186
14248SOL     OW54802   3.139   5.498   7.288 -0.1174 -0.4425 -0.5267
14248SOL    HW154803   3.124   5.592   7.255  2.8933  0.4334  0.4375
14248SOL    HW254804   3.139   5.435   7.211 -2.6901  0.2529 -1.1368
14249SOL     OW54805   6.701   8.506   5.216 -0.4938 -0.4147  0.2039
14249SOL    HW154806   6.644   8.500   5.298 -1.1816  0.1350 -0.2325
14249SOL    HW254807   6.725   8.602   5.200  1.3247 -0.7260  0.9071
14250SOL     OW54808   6.494   9.734   5.503  0.4459  0.1358  0.0964
14250SOL    HW154809   6.466   9.646   5.465 -0.1512  0.0082  0.8249
14250SOL    HW254810   6.586   9.726   5.542  0.1495 -0.3158  0.6942
14251SOL     OW54811   9.860   7.631   7.363 -0.2724  0.0196  0.4537
14251SOL    HW154812   9.910   7.599   7.282 -0.6978 -0.3805  0.3503
14251SOL    HW254813   9.832   7.552   7.418 -0.9298  0.2423  0.4311
14252SOL     OW54814   9.170   2.448   4.931  0.1443 -0.1522 -0.4776
14252SOL    HW154815   9.134   2.367   4.977 -0.8541  0.1702 -0.6624
14252SOL    HW254816   9.115   2.528   4.958  1.5115  0.5813  0.2217
14253SOL     OW54817   5.220   1.268   6.942 -0.3651  0.2201 -0.2748
14253SOL    HW154818   5.208   1.309   7.032 -0.1682  0.8962 -0.5524
14253SOL    HW254819   5.184   1.175   6.943  0.1168  0.0371  0.6444
14254SOL     OW54820   2.200   1.075   6.265  0.1733 -0.1082 -0.2147
14254SOL    HW154821   2.201   1.162   6.216  0.6710  0.0388  0.0521
14254SOL    HW254822   2.293   1.049   6.289  0.3713 -2.2522 -2.9977
14255SOL     OW54823   3.993   5.547   5.852  0.5336 -0.4556  0.6493
14255SOL    HW154824   4.056   5.514   5.923 -0.2589 -0.5341  1.3201
14255SOL    HW254825   3.955   5.469   5.803  1.9961 -0.3667 -0.6834
14256SOL     OW54826   6.220   6.551   4.775  0.1478 -0.4456 -0.4107
14256SOL    HW154827   6.281   6.474   4.792 -0.3549 -0.3505  1.9188
14256SOL    HW254828   6.127   6.517   4.759  0.0071 -0.3335  0.1855
14257SOL     OW54829   9.055   2.663   2.741 -0.1552 -0.7646 -0.2997
14257SOL    HW154830   9.026   2.621   2.826 -0.8497  0.3418  0.0284
14257SOL    HW254831   9.137   2.718   2.757  0.2446 -1.2870 -0.5415
14258SOL     OW54832   9.317   7.933   5.792 -0.2609 -0.0214 -0.4435
14258SOL    HW154833   9.416   7.944   5.805 -0.5787  0.1608  1.9316
14258SOL    HW254834   9.278   8.017   5.755  0.5295 -0.2897 -1.9689
14259SOL     OW54835   1.688   7.461   6.658  0.0493  0.3725 -0.1140
14259SOL    HW154836   1.668   7.553   6.625 -0.4574  0.6791  0.9873
14259SOL    HW254837   1.758   7.419   6.601  0.0153  1.2992 -0.8544
14260SOL     OW54838   8.864   6.528   8.083  0.0097  0.1407 -0.0780
14260SOL    HW154839   8.892   6.529   7.987 -0.2515 -0.0979 -0.1589
14260SOL    HW254840   8.852   6.621   8.116  1.2682  0.2574  0.0670
14261SOL     OW54841   7.828   0.789   5.439 -0.4947  0.1221  0.2870
14261SOL    HW154842   7.791   0.856   5.503  0.9830  1.3017 -0.0830
14261SOL    HW254843   7.783   0.800   5.350 -0.3024  0.5637  0.2456
14262SOL     OW54844   2.461   6.963   3.365  0.2345  0.4105  0.0444
14262SOL    HW154845   2.404   6.884   3.344  2.3389 -0.7269 -1.5219
14262SOL    HW254846   2.450   7.033   3.294 -0.5261  0.9188  0.6604
14263SOL     OW54847   3.602   8.133   2.453 -0.1860  0.4664 -0.6226
14263SOL    HW154848   3.574   8.225   2.482 -0.1974  0.3392 -0.2292
14263SOL    HW254849   3.700   8.134   2.432 -0.0629  0.4401 -0.0780
14264SOL     OW54850   2.737   6.555   4.097  0.3979 -0.2395  0.3612
14264SOL    HW154851   2.717   6.506   4.012 -0.1091 -1.7299  1.3114
14264SOL    HW254852   2.752   6.652   4.077  0.7221 -0.6433 -1.4767
14265SOL     OW54853   6.310   6.893   1.003 -0.1151  0.0062 -0.1882
14265SOL    HW154854   6.231   6.909   0.944 -0.2768  0.6937  0.2046
14265SOL    HW254855   6.308   6.957   1.080  0.0296 -0.9673  0.6387
14266SOL     OW54856   2.889   0.607   2.081 -0.4561 -0.0257  0.2059
14266SOL    HW154857   2.959   0.601   2.153 -1.7407  2.9291  1.8172
14266SOL    HW254858   2.815   0.543   2.102  0.1047 -0.6089  0.4366
14267SOL     OW54859   5.424   7.323   7.092 -0.0580 -0.6599  0.4768
14267SOL    HW154860   5.357   7.384   7.133 -0.1178 -1.0121  0.9109
14267SOL    HW254861   5.456   7.361   7.006  1.8166  1.2439  1.9769
14268SOL     OW54862   6.246   4.650   4.984 -0.3889 -0.0963 -0.9870
14268SOL    HW154863   6.155   4.669   4.945  0.6806  1.6161 -2.7454
14268SOL    HW254864   6.264   4.551   4.979 -3.1548 -0.8300  1.7333
14269SOL     OW54865   5.761   5.281   4.476  0.3529  0.7328 -0.2747
14269SOL    HW154866   5.702   5.257   4.398 -0.3813  0.7680  0.2709
14269SOL    HW254867   5.707   5.327   4.546  1.4134  2.4739 -0.5754
14270SOL     OW54868   1.353   7.243   6.872  0.2051 -0.3183 -0.0487
14270SOL    HW154869   1.322   7.256   6.778  1.6116 -1.4545 -0.6836
14270SOL    HW254870   1.277   7.262   6.935 -0.6742  0.6766 -1.3919
14271SOL     OW54871   5.660   2.047   0.531 -0.4603  0.6391 -0.1019
14271SOL    HW154872   5.595   2.086   0.466 -0.5579 -0.9911 -1.0090
14271SOL    HW254873   5.610   2.009   0.609 -0.4382  1.3571  0.2634
14272SOL     OW54874   0.933   0.604   4.067 -0.2891 -0.2833 -0.7181
14272SOL    HW154875   1.010   0.667   4.061  0.4848 -1.0572  0.8213
14272SOL    HW254876   0.889   0.614   4.155  0.2687 -2.3659 -0.1711
14273SOL     OW54877   5.297   4.826   5.690 -0.4034  0.1143  0.1669
14273SOL    HW154878   5.394   4.802   5.693 -0.6089 -0.6162  1.3804
14273SOL    HW254879   5.255   4.807   5.779 -1.6740  0.3505 -0.3670
14274SOL     OW54880   6.374   3.564   3.021  0.3521 -0.2063  0.0828
14274SOL    HW154881   6.295   3.610   2.981  0.9648  1.0212  0.2420
14274SOL    HW254882   6.367   3.565   3.120 -1.4052 -3.6772  0.0708
14275SOL     OW54883   5.537   9.678   0.619  0.2875 -0.5442  0.3171
14275SOL    HW154884   5.538   9.675   0.719 -0.3680 -1.7636  0.2909
14275SOL    HW254885   5.455   9.725   0.587  0.6148  0.0586  0.3487
14276SOL     OW54886   2.531   1.239   6.646 -0.2320 -0.0622  0.7286
14276SOL    HW154887   2.566   1.186   6.723 -0.3689 -0.2533  0.6591
14276SOL    HW254888   2.485   1.321   6.680 -0.0444 -0.0010  0.8372
14277SOL     OW54889   7.174   5.702   5.783  0.1283  0.4841 -0.0888
14277SOL    HW154890   7.191   5.731   5.877  0.0923 -1.2311  0.4605
14277SOL    HW254891   7.105   5.630   5.782  1.3470 -0.7063 -1.2625
14278SOL     OW54892   8.815   6.835   4.774  0.6320 -0.1145  0.2221
14278SOL    HW154893   8.753   6.894   4.723  1.5418  0.2901 -0.4329
14278SOL    HW254894   8.868   6.780   4.710 -0.2118 -1.6607  0.8216
14279SOL     OW54895   7.104   0.651   9.142 -0.4153 -0.7577 -0.7363
14279SOL    HW154896   7.167   0.577   9.120 -0.7602 -1.5527  0.9068
14279SOL    HW254897   7.156   0.731   9.171 -0.1464 -1.4148  0.6294
14280SOL     OW54898   3.462   1.022   4.167 -0.0027 -0.2087  0.1366
14280SOL    HW154899   3.387   0.974   4.120  0.5379 -0.4719 -0.4664
14280SOL    HW254900   3.494   1.098   4.110  0.8596 -0.7156 -0.0597
14281SOL     OW54901   3.922   7.910   0.816  0.3037  0.1620  0.3428
14281SOL    HW154902   3.909   7.930   0.719  1.7625  1.6088  0.4282
14281SOL    HW254903   3.886   7.819   0.836  0.4171 -0.3485 -1.6436
14282SOL     OW54904   9.449   5.772   5.872 -0.5368 -0.0742  0.3570
14282SOL    HW154905   9.527   5.717   5.842 -0.7413 -1.2424  1.9405
14282SOL    HW254906   9.464   5.868   5.847  1.2402 -0.3478  0.3572
14283SOL     OW54907   4.262   8.452   5.377  0.3376 -0.1462  0.1720
14283SOL    HW154908   4.263   8.528   5.312  0.1770 -0.1355  0.1822
14283SOL    HW254909   4.168   8.421   5.390  0.5615 -1.3310 -0.9861
14284SOL     OW54910   8.097   1.821   6.696 -0.4120 -0.0394  0.1778
14284SOL    HW154911   8.180   1.765   6.689  0.5189  1.3930 -0.7047
14284SOL    HW254912   8.080   1.845   6.791  0.0371 -0.5885  0.3942
14285SOL     OW54913   6.418   5.507   6.660  0.0920  0.0546  0.3581
14285SOL    HW154914   6.333   5.551   6.632  0.4405  0.3723 -0.1981
14285SOL    HW254915   6.462   5.465   6.581 -1.1987 -2.9672  1.1766
14286SOL     OW54916   0.389   6.664   2.713 -0.2196 -0.0526 -0.2969
14286SOL    HW154917   0.308   6.654   2.771  0.0144  0.9127  0.2022
14286SOL    HW254918   0.420   6.759   2.715  0.9164 -0.4106 -0.5048
14287SOL     OW54919   2.225   6.396   3.367  0.1059 -0.0960 -0.0869
14287SOL    HW154920   2.216   6.306   3.325 -1.5959  0.5405 -1.1628
14287SOL    HW254921   2.178   6.395   3.455 -1.5918  0.2556 -0.9655
14288SOL     OW54922   1.824   5.809   3.402 -0.3215 -0.3397 -0.1140
14288SOL    HW154923   1.877   5.890   3.425 -1.4266  0.5872 -0.7963
14288SOL    HW254924   1.886   5.736   3.373  0.8979 -0.6104  2.9361
14289SOL     OW54925   6.602   7.517   7.028  0.0307 -0.5062  0.1015
14289SOL    HW154926   6.515   7.500   7.074  0.2881 -1.7542  0.1733
14289SOL    HW254927   6.614   7.450   6.955  0.9602 -0.3906  0.1449
14290SOL     OW54928   7.198   8.114   2.702  0.0070  0.2177  0.2225
14290SOL    HW154929   7.200   8.182   2.776 -0.5343 -0.6739  1.0731
14290SOL    HW254930   7.245   8.031   2.732  0.2948  0.0677 -0.6545
14291SOL     OW54931   0.609   3.414   0.681 -0.2348 -0.3483 -0.1651
14291SOL    HW154932   0.576   3.504   0.654 -1.0706 -0.9162 -1.0914
14291SOL    HW254933   0.692   3.424   0.736  0.7931  0.9229 -1.8870
14292SOL     OW54934   7.769   5.834   6.628  0.1902 -0.0182  0.0909
14292SOL    HW154935   7.783   5.809   6.724 -0.4341  1.4163  0.5745
14292SOL    HW254936   7.787   5.755   6.570  2.0436 -0.4883  1.2728
14293SOL     OW54937   3.555   4.705   6.635 -0.2418  0.3235  0.0781
14293SOL    HW154938   3.466   4.749   6.650  0.1762  1.0162  0.6004
14293SOL    HW254939   3.575   4.644   6.711 -1.5940 -2.1197 -1.4841
14294SOL     OW54940   6.624   4.278   7.677  0.8224  0.5156  0.2255
14294SOL    HW154941   6.666   4.319   7.596 -1.4170  1.4775 -0.4823
14294SOL    HW254942   6.596   4.351   7.740  1.0468 -0.1585  1.1133
14295SOL     OW54943   9.505   8.810   4.248 -0.1964  0.2628  0.4624
14295SOL    HW154944   9.522   8.844   4.340  0.1498 -0.8120  0.7972
14295SOL    HW254945   9.572   8.850   4.185  1.4938 -1.3362  1.1986
14296SOL     OW54946   4.732   0.923   9.360 -0.1090  0.1800  0.0671
14296SOL    HW154947   4.710   0.935   9.457  1.8224 -0.8862  0.6691
14296SOL    HW254948   4.669   0.976   9.305 -0.4343  1.8438  1.9780
14297SOL     OW54949   9.547   7.158   7.041 -0.3690  0.3798 -0.0964
14297SOL    HW154950   9.567   7.227   7.109 -0.5012  1.8632 -1.5350
14297SOL    HW254951   9.480   7.193   6.975 -0.6620 -1.2045 -0.6761
14298SOL     OW54952   6.258   9.695   1.735  0.3269 -0.2764  0.1646
14298SOL    HW154953   6.326   9.747   1.683  1.6223 -1.7203  0.3896
14298SOL    HW254954   6.301   9.654   1.816 -0.4274 -2.4563 -0.4918
14299SOL     OW54955   0.583   2.740   5.219 -0.3892 -0.4326  0.2232
14299SOL    HW154956   0.553   2.645   5.210  0.7796 -0.8870  0.9881
14299SOL    HW254957   0.511   2.793   5.264 -0.5627 -1.2343  0.9061
14300SOL     OW54958   2.571   2.910   9.401 -0.4091 -0.1539  0.5863
14300SOL    HW154959   2.510   2.856   9.342  0.5552 -0.4153 -0.1828
14300SOL    HW254960   2.538   3.005   9.404 -2.8239 -0.9871  2.9270
14301SOL     OW54961   7.482   7.927   5.091 -0.4454  0.4251 -0.0752
14301SOL    HW154962   7.417   7.960   5.023 -0.1305  2.6706  0.6823
14301SOL    HW254963   7.451   7.951   5.183  0.7960  0.3945  0.3691
14302SOL     OW54964   4.665   4.232   6.309 -0.3431 -0.3785  0.5550
14302SOL    HW154965   4.677   4.150   6.365 -1.6025 -0.8766  0.1241
14302SOL    HW254966   4.587   4.284   6.343 -0.9523 -0.5447 -0.5444
14303SOL     OW54967   8.105   6.089   4.187  0.4863 -0.3098  0.1130
14303SOL    HW154968   8.156   6.007   4.165 -1.0429 -0.9984 -0.9947
14303SOL    HW254969   8.054   6.119   4.106  0.5118  1.3393  0.6903
14304SOL     OW54970   7.236   8.043   7.021 -0.0191 -0.0939 -0.1691
14304SOL    HW154971   7.253   7.945   7.009 -0.2043 -0.4609  2.2794
14304SOL    HW254972   7.175   8.057   7.100  1.5455  2.0957  0.7050
14305SOL     OW54973   4.885   6.658   7.574  0.1915 -0.1254  0.4214
14305SOL    HW154974   4.925   6.744   7.606 -1.1609 -0.0339  1.8833
14305SOL    HW254975   4.885   6.657   7.474  1.7987  0.8233  0.3991
14306SOL     OW54976   6.532   0.440   3.575 -0.5700  0.1919  0.0958
14306SOL    HW154977   6.448   0.476   3.616 -0.6864  1.1573 -0.9724
14306SOL    HW254978   6.514   0.411   3.481 -0.1345 -1.3515  0.4701
14307SOL     OW54979   6.653   0.785   3.775  0.4606 -0.3154  0.3646
14307SOL    HW154980   6.642   0.741   3.864  1.8398 -0.6739  0.3738
14307SOL    HW254981   6.740   0.756   3.734  0.3562  0.6998 -0.6022
14308SOL     OW54982   1.110   4.788   6.523  0.3846  0.4992 -0.0645
14308SOL    HW154983   1.063   4.842   6.593  0.2730  0.4725 -0.1209
14308SOL    HW254984   1.062   4.702   6.509  0.2611  0.6168 -0.3618
14309SOL     OW54985   6.755   3.683   1.599  0.0818 -0.8513 -0.1682
14309SOL    HW154986   6.659   3.708   1.590  0.2541  0.1484  0.6379
14309SOL    HW254987   6.763   3.584   1.610 -0.8207 -0.9871 -0.6639
14310SOL     OW54988   4.910   2.521   9.156 -0.3479  0.0673  0.3668
14310SOL    HW154989   4.867   2.444   9.203  1.4390 -0.9319  0.4019
14310SOL    HW254990   5.002   2.536   9.193 -0.2945  1.5801 -0.3363
14311SOL     OW54991   6.736   9.567   6.233  0.0824 -0.1846 -0.3572
14311SOL    HW154992   6.763   9.519   6.150  0.6349  0.4953 -0.5750
14311SOL    HW254993   6.779   9.524   6.312 -0.8040 -1.1163 -0.3663
14312SOL     OW54994   5.992   3.734   4.736  0.3690  0.1307  0.1994
14312SOL    HW154995   5.971   3.790   4.655  0.3909 -1.5355 -0.9692
14312SOL    HW254996   5.907   3.715   4.786  0.1041 -0.4072 -0.4552
14313SOL     OW54997   5.314   4.898   7.564  0.2131  0.7398 -0.5494
14313SOL    HW154998   5.259   4.928   7.641 -0.1063  0.9115 -0.8400
14313SOL    HW254999   5.351   4.807   7.582 -1.4296 -0.0385 -0.9778
14314SOL     OW55000   4.037   6.098   7.976  0.4005 -0.6402  0.5148
14314SOL    HW155001   4.094   6.029   8.020 -0.7610 -1.2872  1.0404
14314SOL    HW255002   3.948   6.058   7.953 -0.0010  0.4620  0.0925
14315SOL     OW55003   5.190   4.822   4.831  1.2357  0.5533 -0.1657
14315SOL    HW155004   5.182   4.910   4.785  0.6946  0.7695  0.3360
14315SOL    HW255005   5.165   4.832   4.927 -0.2770 -0.4546 -0.4416
14316SOL     OW55006   0.721   0.847   9.327 -0.2654  0.4794  0.3350
14316SOL    HW155007   0.687   0.754   9.317 -0.2733  0.3683  1.2977
14316SOL    HW255008   0.645   0.906   9.356 -0.7701  1.2243 -2.3465
14317SOL     OW55009   5.428   6.963   3.792 -0.6023  0.3259  0.0486
14317SOL    HW155010   5.361   6.995   3.859 -0.3431  0.9193  0.0379
14317SOL    HW255011   5.520   6.981   3.827 -0.4637  0.6849 -0.4843
14318SOL     OW55012   6.304   3.445   3.255  0.1376 -0.4246  0.0437
14318SOL    HW155013   6.253   3.459   3.340  0.0402  2.6178 -0.4655
14318SOL    HW255014   6.239   3.436   3.179  0.2967  0.0391 -0.1447
14319SOL     OW55015   9.358   7.014   5.577 -0.3207  0.6642 -0.5072
14319SOL    HW155016   9.375   7.113   5.579  1.5642  0.3873 -1.6899
14319SOL    HW255017   9.362   6.982   5.482  0.2692 -0.7519 -0.0061
14320SOL     OW55018   2.280   8.875   2.249  0.2267  0.4617 -0.6618
14320SOL    HW155019   2.193   8.905   2.209 -0.2562 -0.4929 -0.3315
14320SOL    HW255020   2.334   8.827   2.180  0.6864  1.4180 -0.9851
14321SOL     OW55021   4.517   2.583   6.378 -0.8162 -0.1478  0.0234
14321SOL    HW155022   4.600   2.587   6.322 -1.5835 -0.5591 -1.1625
14321SOL    HW255023   4.470   2.671   6.374 -0.2856  0.1824  0.9426
14322SOL     OW55024   5.453   9.688   7.335 -0.3025  0.1590 -0.3845
14322SOL    HW155025   5.524   9.618   7.341 -0.0311  0.4218 -0.5264
14322SOL    HW255026   5.485   9.772   7.378 -0.8420  0.0265  0.2815
14323SOL     OW55027   9.109   6.869   4.480 -0.3195 -0.0710  0.3567
14323SOL    HW155028   9.065   6.958   4.468 -0.2154 -0.3369 -2.2127
14323SOL    HW255029   9.041   6.802   4.509 -1.7136 -0.4899 -3.6483
14324SOL     OW55030   7.064   6.113   4.753 -0.2335 -0.0841  0.1346
14324SOL    HW155031   6.993   6.050   4.722 -0.3593 -0.1122  0.4740
14324SOL    HW255032   7.137   6.117   4.685  0.1383 -1.1749  0.4495
14325SOL     OW55033   5.552   8.154   3.482 -0.3730  0.2069 -0.3263
14325SOL    HW155034   5.457   8.136   3.459 -0.0063 -2.6896  0.1736
14325SOL    HW255035   5.600   8.191   3.403 -1.7210  0.8795 -0.8263
14326SOL     OW55036   3.189   3.376   6.164 -0.3713  0.5463  0.2839
14326SOL    HW155037   3.199   3.280   6.191 -2.7082  0.6331  1.5915
14326SOL    HW255038   3.215   3.435   6.241 -0.5383  0.9390  0.0394
14327SOL     OW55039   4.082   2.731   5.019  0.2397 -0.5772 -0.0163
14327SOL    HW155040   4.006   2.729   4.953  1.0461 -1.2924 -0.9434
14327SOL    HW255041   4.102   2.638   5.048  0.1276 -0.2951  0.9875
14328SOL     OW55042   6.289   5.708   3.207 -0.1649 -0.2219 -0.4848
14328SOL    HW155043   6.271   5.763   3.288 -0.8097  1.8296 -1.9959
14328SOL    HW255044   6.363   5.749   3.153  1.4128 -2.4715 -0.1233
14329SOL     OW55045   0.874   8.519   4.074  0.2375  0.1540  0.3141
14329SOL    HW155046   0.794   8.571   4.045 -0.3394 -0.5691  0.5901
14329SOL    HW255047   0.939   8.512   3.998  0.3517  1.3260  0.2979
14330SOL     OW55048   6.745   8.190   5.086 -0.0269 -0.0279  0.1839
14330SOL    HW155049   6.809   8.134   5.034  0.7242  0.3050  0.7514
14330SOL    HW255050   6.669   8.217   5.027  1.3651  1.2431 -1.0400
14331SOL     OW55051   5.678   5.710   7.529 -0.2326 -0.5060 -0.1172
14331SOL    HW155052   5.650   5.631   7.474 -1.3145 -0.6430  0.6033
14331SOL    HW255053   5.772   5.697   7.561  0.4490 -0.3678 -2.0103
14332SOL     OW55054   7.271   5.493   8.499  0.2425 -0.3062 -0.2256
14332SOL    HW155055   7.316   5.476   8.412  0.7482  2.1759 -0.4973
14332SOL    HW255056   7.172   5.485   8.488  0.2344  1.1117 -1.3303
14333SOL     OW55057   4.417   2.746   6.102  0.6642  0.5373 -0.0822
14333SOL    HW155058   4.374   2.656   6.102  1.9382 -0.0898 -0.0237
14333SOL    HW255059   4.516   2.735   6.089  0.8709  1.9042  0.2901
14334SOL     OW55060   9.876   4.731   2.850  0.4441 -0.2298  0.4992
14334SOL    HW155061   9.791   4.678   2.853  1.0417 -1.1977  0.7514
14334SOL    HW255062   9.879   4.784   2.766 -1.5351  1.7416  1.6283
14335SOL     OW55063   3.241   5.834   7.555 -0.6823  0.3139  0.3950
14335SOL    HW155064   3.290   5.786   7.482 -1.5034  1.1081 -0.6841
14335SOL    HW255065   3.145   5.808   7.553 -0.9997  1.5109  0.2275
14336SOL     OW55066   3.634   6.584   8.955 -0.3397  0.0084  0.3088
14336SOL    HW155067   3.628   6.488   8.927  1.8254  0.3074 -1.3092
14336SOL    HW255068   3.569   6.638   8.902 -0.3499 -0.3126 -0.0067
14337SOL     OW55069   5.633   5.098   6.412 -0.4569 -0.4578  0.0044
14337SOL    HW155070   5.664   5.003   6.411  0.6131 -0.1124 -0.4079
14337SOL    HW255071   5.536   5.101   6.435 -0.7119 -1.7096 -0.8496
14338SOL     OW55072   5.583   4.029   2.489 -0.7492  0.5704 -0.2990
14338SOL    HW155073   5.562   4.067   2.399 -0.6377 -0.8886 -0.9584
14338SOL    HW255074   5.643   3.949   2.479  1.0194  1.6608  1.2232
14339SOL     OW55075   3.235   5.311   0.518  0.3250 -0.7032 -0.2619
14339SOL    HW155076   3.308   5.334   0.454 -0.7449  1.1837 -0.8651
14339SOL    HW255077   3.219   5.388   0.580 -0.6468 -1.3732  0.3431
14340SOL     OW55078   5.046   8.114   3.645  0.0510  0.4138  0.4137
14340SOL    HW155079   5.094   8.165   3.574  3.4799 -3.0342  0.1098
14340SOL    HW255080   5.000   8.036   3.604 -1.6682  0.8689  1.4265
14341SOL     OW55081   3.410   0.931   6.619 -0.2566 -0.3512 -0.1826
14341SOL    HW155082   3.486   0.970   6.671 -1.1124  1.1324 -0.0115
14341SOL    HW255083   3.375   1.000   6.555 -0.4043 -1.5600 -1.4255
14342SOL     OW55084   6.638   7.340   1.920 -0.0553 -0.0137  0.4643
14342SOL    HW155085   6.540   7.357   1.935 -0.2976 -0.1399 -0.9256
14342SOL    HW255086   6.671   7.274   1.988 -0.5926  1.1200  1.8606
14343SOL     OW55087   2.724   2.860   7.751 -0.6707 -0.2203  0.3434
14343SOL    HW155088   2.651   2.811   7.704 -0.3949 -0.4718  0.1739
14343SOL    HW255089   2.795   2.796   7.780  0.3511  0.2148 -1.0908
14344SOL     OW55090   7.387   9.955   6.717 -0.0984 -0.4223  0.3127
14344SOL    HW155091   7.351   9.865   6.742  2.0269 -0.6437  2.7678
14344SOL    HW255092   7.481   9.964   6.751  0.1722  2.2624 -0.9973
14345SOL     OW55093   7.970   8.330   5.866 -0.4011 -0.1007 -0.3725
14345SOL    HW155094   8.002   8.406   5.809  2.9164 -1.8364 -0.9136
14345SOL    HW255095   7.978   8.244   5.816 -1.9423 -1.1217  1.0600
14346SOL     OW55096   4.152   5.544   5.383 -0.1975 -0.1858 -0.5326
14346SOL    HW155097   4.193   5.583   5.300 -1.8384  0.2253 -1.1555
14346SOL    HW255098   4.055   5.527   5.368 -0.2626 -1.2136  0.9269
14347SOL     OW55099   5.169   8.631   5.390  0.1277  0.2625 -0.3774
14347SOL    HW155100   5.071   8.623   5.369 -0.0153  0.4108  0.2238
14347SOL    HW255101   5.222   8.585   5.319 -0.4815 -2.0719  0.6518
14348SOL     OW55102   5.509   5.855   6.589  0.6739 -0.5809  0.3608
14348SOL    HW155103   5.507   5.945   6.545 -0.0467 -1.3174 -1.1676
14348SOL    HW255104   5.575   5.856   6.664 -1.4487  2.0614  2.2770
14349SOL     OW55105   7.806   6.554   4.406 -0.5821 -0.4898 -0.0562
14349SOL    HW155106   7.732   6.512   4.458 -0.0256 -1.8081 -0.2824
14349SOL    HW255107   7.831   6.493   4.330 -0.2503  0.6164 -0.8444
14350SOL     OW55108   5.126   6.702   7.864 -0.3353  0.1307 -0.2204
14350SOL    HW155109   5.182   6.627   7.829  0.6035 -0.4380  2.3928
14350SOL    HW255110   5.032   6.671   7.874 -0.7663  0.4997 -2.7685
14351SOL     OW55111   5.878   9.317   1.139 -0.5696 -0.2580 -0.3095
14351SOL    HW155112   5.818   9.294   1.063 -0.2471  0.1836 -0.7006
14351SOL    HW255113   5.963   9.356   1.104 -1.2661  1.9470  0.3364
14352SOL     OW55114   7.350   6.225   9.404  0.1930  0.0588  0.2855
14352SOL    HW155115   7.385   6.296   9.343  0.2213 -1.2509 -1.2563
14352SOL    HW255116   7.381   6.136   9.371 -1.7581 -0.8533  0.8856
14353SOL     OW55117   5.487   4.825   5.205  0.4692 -0.1473 -0.1980
14353SOL    HW155118   5.488   4.923   5.221  2.1048 -0.0689 -0.6945
14353SOL    HW255119   5.437   4.805   5.120  1.1599  0.3560 -0.7225
14354SOL     OW55120   0.322   6.660   4.085 -0.4156 -0.1058 -0.2482
14354SOL    HW155121   0.398   6.713   4.124 -1.4160  0.6729  0.6914
14354SOL    HW255122   0.296   6.700   3.997 -2.0701  1.8721  1.0910
14355SOL     OW55123   6.483   6.706   7.724 -0.5127 -0.0451  0.0949
14355SOL    HW155124   6.478   6.768   7.802 -1.5071  1.2418 -0.9709
14355SOL    HW255125   6.427   6.742   7.649  1.1173 -0.8199 -1.5183
14356SOL     OW55126   1.618   6.962   9.635  0.1332 -0.1414 -0.1501
14356SOL    HW155127   1.616   6.863   9.623  2.4029 -0.2744  0.3037
14356SOL    HW255128   1.556   6.988   9.709  0.1456 -1.3269  0.2871
14357SOL     OW55129   6.360   0.727   2.835  0.0538  0.3349  0.8867
14357SOL    HW155130   6.338   0.807   2.891 -1.1382 -0.4575  1.5691
14357SOL    HW255131   6.406   0.756   2.751 -2.3501  1.9270  0.0836
14358SOL     OW55132   5.215   8.072   5.844  0.3838 -0.0993 -0.3096
14358SOL    HW155133   5.171   8.162   5.842  0.6423  0.0754  1.3221
14358SOL    HW255134   5.154   8.004   5.804  0.1862  0.8047 -1.5511
14359SOL     OW55135   3.721   3.469   3.370  0.5222  0.2733  0.0816
14359SOL    HW155136   3.739   3.544   3.307 -0.8043 -0.7134 -1.4822
14359SOL    HW255137   3.794   3.401   3.362  0.0208 -0.1579 -0.8572
14360SOL     OW55138   0.711   5.249   6.190  0.1011  0.8473 -0.2377
14360SOL    HW155139   0.719   5.342   6.226  0.8448  0.0360  1.7886
14360SOL    HW255140   0.658   5.193   6.254 -0.6446 -0.0436 -1.6076
14361SOL     OW55141   8.666   7.303   6.778  0.1632 -0.0488 -0.5439
14361SOL    HW155142   8.725   7.364   6.831 -0.4309  0.4351 -0.4362
14361SOL    HW255143   8.612   7.357   6.714  0.1808 -0.5408 -0.9782
14362SOL     OW55144   4.986   0.390   3.808  0.0058  0.2202  0.4898
14362SOL    HW155145   5.061   0.456   3.798  0.3500 -0.3237 -0.6883
14362SOL    HW255146   5.022   0.297   3.805 -0.6438 -0.0408  0.5533
14363SOL     OW55147   6.711   5.673   6.019  0.4978 -0.1894  0.4729
14363SOL    HW155148   6.659   5.641   5.941 -0.5838 -0.2055  1.1910
14363SOL    HW255149   6.765   5.754   5.993  1.0666 -0.9041 -0.5882
14364SOL     OW55150   9.602   5.838   3.750 -0.5491  0.9650 -0.3396
14364SOL    HW155151   9.700   5.823   3.763 -0.7769 -0.5644 -0.1831
14364SOL    HW255152   9.567   5.897   3.822  0.7392  3.7272 -1.8955
14365SOL     OW55153   1.827   5.379   9.596 -0.7404 -0.6457  0.2769
14365SOL    HW155154   1.768   5.423   9.529 -1.5603 -0.0693  1.3596
14365SOL    HW255155   1.775   5.358   9.679  1.0901  2.1656  2.2427
14366SOL     OW55156   6.058   4.931   8.369 -0.5119  0.4710 -0.8942
14366SOL    HW155157   6.145   4.948   8.416 -0.2538  0.1040 -1.2367
14366SOL    HW255158   5.991   5.000   8.397  0.1251  1.2434 -1.2390
14367SOL     OW55159   6.461   5.230   1.215 -0.1307  0.2826 -0.0296
14367SOL    HW155160   6.443   5.304   1.150  2.8652  1.3186  0.2645
14367SOL    HW255161   6.447   5.264   1.308  0.6118  0.3091  0.0763
14368SOL     OW55162   8.360   1.864   1.484 -0.0043 -0.4470 -0.3220
14368SOL    HW155163   8.345   1.822   1.574 -1.5164  0.5687 -0.0824
14368SOL    HW255164   8.366   1.793   1.414 -0.3399 -1.1665  0.3714
14369SOL     OW55165   0.323   7.225   5.671 -0.6859 -0.8710 -0.7722
14369SOL    HW155166   0.343   7.295   5.740 -2.9212  1.5292 -2.4256
14369SOL    HW255167   0.398   7.221   5.605 -1.2709  1.2761 -1.6330
14370SOL     OW55168   5.598   7.497   1.168 -0.2639  0.4936  0.3383
14370SOL    HW155169   5.662   7.527   1.238 -0.3780 -2.2508  1.7053
14370SOL    HW255170   5.622   7.404   1.138 -0.0683  1.6598 -3.4527
14371SOL     OW55171   1.446   0.404   3.055 -0.2555 -0.4832 -0.3268
14371SOL    HW155172   1.450   0.503   3.048  0.2205 -0.5085 -0.4057
14371SOL    HW255173   1.360   0.371   3.016  0.2218 -0.2250 -1.6406
14372SOL     OW55174   9.955   8.835   2.677 -0.4552  0.3242  0.5687
14372SOL    HW155175   9.905   8.919   2.699  1.1088  1.5447 -0.4216
14372SOL    HW255176   9.890   8.761   2.660 -1.9268  1.9172 -0.8934
14373SOL     OW55177   2.240   6.359   2.836  0.0701  0.4429  0.2777
14373SOL    HW155178   2.219   6.282   2.896 -2.0291  0.8949  0.1566
14373SOL    HW255179   2.185   6.438   2.862  0.8517  1.3405 -0.7626
14374SOL     OW55180   5.845   8.158   4.662 -0.1445 -0.0339  1.0728
14374SOL    HW155181   5.836   8.124   4.569  0.0026 -0.2134  1.1229
14374SOL    HW255182   5.755   8.174   4.701 -0.2430 -1.4810  1.4545
14375SOL     OW55183   3.686   3.190   8.827 -0.0402  0.3763 -0.0031
14375SOL    HW155184   3.686   3.151   8.920 -3.2020  0.2406  0.0037
14375SOL    HW255185   3.645   3.124   8.764  0.1335  1.3139 -1.1037
14376SOL     OW55186   0.715   8.692   1.079  0.6307 -0.3121 -0.1503
14376SOL    HW155187   0.700   8.624   1.006 -0.3103  0.5434 -0.7657
14376SOL    HW255188   0.633   8.699   1.135  1.3978 -1.0528  1.0857
14377SOL     OW55189   3.437   7.487   5.364 -0.6847 -0.0701 -0.1485
14377SOL    HW155190   3.489   7.420   5.312  1.1640  1.8766 -0.8911
14377SOL    HW255191   3.345   7.452   5.382  0.1091 -2.5969 -0.8587
14378SOL     OW55192   4.881   3.149   4.287 -0.1367  0.2216 -0.2978
14378SOL    HW155193   4.932   3.207   4.351  2.1481 -0.8117 -1.1205
14378SOL    HW255194   4.791   3.189   4.270  1.0922  3.1709 -0.2871
14379SOL     OW55195   0.456   0.843   4.449 -0.2308 -0.2977  0.2875
14379SOL    HW155196   0.509   0.893   4.517 -0.1160 -0.5712  0.3978
14379SOL    HW255197   0.358   0.863   4.461 -0.2277 -0.5239  0.6759
14380SOL     OW55198   0.015   5.383   6.278 -0.4837 -0.1440 -0.2552
14380SOL    HW155199  -0.074   5.349   6.247 -0.4329 -0.0755 -0.4759
14380SOL    HW255200   0.081   5.378   6.202 -0.0351 -1.1588  0.1839
14381SOL     OW55201   1.149   7.514   1.019  0.2296  0.6431  0.1649
14381SOL    HW155202   1.097   7.431   1.000 -0.6100  1.1636  0.1802
14381SOL    HW255203   1.215   7.529   0.945  0.6143 -0.2133  0.3281
14382SOL     OW55204   3.307   5.242   1.916 -0.4056  0.0871  0.1338
14382SOL    HW155205   3.259   5.224   1.830  0.7525 -0.6417 -0.3810
14382SOL    HW255206   3.278   5.175   1.985 -0.5620  0.0070 -0.0097
14383SOL     OW55207   3.635   2.815   6.265 -0.2126 -0.1391 -0.2893
14383SOL    HW155208   3.679   2.808   6.355 -1.0673  0.1553  0.1553
14383SOL    HW255209   3.560   2.749   6.259 -1.0047  0.7587 -0.2955
14384SOL     OW55210   6.795   5.444   2.663  0.3240  0.1825  0.4344
14384SOL    HW155211   6.705   5.401   2.671  0.1168  1.0523  3.0038
14384SOL    HW255212   6.848   5.397   2.592 -2.1906 -0.2294 -1.2274
14385SOL     OW55213   0.900   2.612   5.301  0.0159 -0.3429 -0.1742
14385SOL    HW155214   0.968   2.623   5.228 -1.5588  1.2009 -1.4454
14385SOL    HW255215   0.824   2.676   5.286 -1.8523 -2.2063  1.0618
14386SOL     OW55216   9.327   6.624   3.705 -0.2609 -0.0979  0.0908
14386SOL    HW155217   9.280   6.706   3.673 -0.2485 -0.1477 -0.0543
14386SOL    HW255218   9.423   6.627   3.676 -0.0526  0.2285  0.7839
14387SOL     OW55219   5.530   6.832   0.978 -0.4762  0.3718  0.0809
14387SOL    HW155220   5.573   6.913   1.018 -0.5296 -0.3381  1.5849
14387SOL    HW255221   5.592   6.754   0.987 -0.9200 -0.0245 -0.2905
14388SOL     OW55222   8.470   4.410   5.809  0.1008  0.1678  0.0591
14388SOL    HW155223   8.378   4.402   5.770 -0.8082  0.0213  2.1461
14388SOL    HW255224   8.505   4.502   5.795 -0.7001  0.4613 -0.0284
14389SOL     OW55225   3.909   7.674   4.614 -0.4420 -0.3317 -0.1455
14389SOL    HW155226   3.919   7.763   4.569  0.6562  1.0137  2.5983
14389SOL    HW255227   3.820   7.670   4.659 -0.3068 -0.4458  0.1094
14390SOL     OW55228   2.434   9.524   5.748  0.3137  0.3278  0.2048
14390SOL    HW155229   2.442   9.425   5.735  1.3215  0.4891 -0.4583
14390SOL    HW255230   2.478   9.571   5.672  0.7269  1.2873  1.0248
14391SOL     OW55231   6.378   5.709   2.481 -0.0104  0.5840  0.0471
14391SOL    HW155232   6.367   5.712   2.581 -0.4843 -0.5318  0.0379
14391SOL    HW255233   6.414   5.619   2.454 -1.8985  0.1105 -0.9645
14392SOL     OW55234   5.976   4.363   3.733  0.3018 -0.0220 -0.5398
14392SOL    HW155235   6.044   4.354   3.806 -1.8837 -1.4226  1.3975
14392SOL    HW255236   5.931   4.451   3.741  0.6758  0.1906 -0.7517
14393SOL     OW55237   5.293   4.031   5.074  0.5889 -0.2229 -0.1519
14393SOL    HW155238   5.315   4.020   5.170  1.1110 -0.3519 -0.2873
14393SOL    HW255239   5.273   3.941   5.033  0.6928 -0.2047 -0.2432
14394SOL     OW55240   5.544   4.830   7.419 -0.5557  0.5125 -0.0456
14394SOL    HW155241   5.454   4.786   7.415 -0.5321  0.4157  0.5031
14394SOL    HW255242   5.613   4.769   7.380 -0.3992 -0.2516  1.4316
14395SOL     OW55243   2.708   4.322   7.163 -0.1726  0.2674 -0.0302
14395SOL    HW155244   2.757   4.384   7.102 -4.0191  1.4716 -2.0078
14395SOL    HW255245   2.731   4.344   7.258  1.1992  2.3944 -0.8240
14396SOL     OW55246   8.871   5.092   3.857 -0.5139 -0.2697  0.6006
14396SOL    HW155247   8.824   5.177   3.836  2.0009  0.6303 -1.6399
14396SOL    HW255248   8.816   5.015   3.825 -1.3500  0.6469 -0.2060
14397SOL     OW55249   7.715   6.632   7.043 -0.0006  0.0366 -0.2696
14397SOL    HW155250   7.793   6.603   6.987  0.0345 -0.7452  0.1703
14397SOL    HW255251   7.673   6.551   7.085  0.4970  0.6793  1.5118
14398SOL     OW55252   3.913   8.637   5.241 -0.1219 -0.0785 -0.5171
14398SOL    HW155253   3.917   8.727   5.196 -2.5091 -0.0128 -0.6546
14398SOL    HW255254   3.866   8.572   5.181  0.5965 -1.1418  0.0546
14399SOL     OW55255   1.914   5.750   9.867 -0.1769  0.4900  0.3164
14399SOL    HW155256   1.938   5.787   9.777  1.7483  0.6753  0.8807
14399SOL    HW255257   1.954   5.808   9.938 -0.1989 -0.6665  1.2796
14400SOL     OW55258   6.371   5.808   4.938 -0.4561  0.5972 -0.2658
14400SOL    HW155259   6.379   5.734   4.871 -2.1138  0.8821 -0.8033
14400SOL    HW255260   6.390   5.896   4.893  0.3416  0.6232  0.1024
14401SOL     OW55261   4.659   5.524   3.185 -0.2654  0.9439 -0.6635
14401SOL    HW155262   4.584   5.527   3.251 -0.8840 -0.3829 -1.2896
14401SOL    HW255263   4.716   5.444   3.204  1.2927  2.1920  0.1086
14402SOL     OW55264   6.277   7.695   3.901  0.0636  0.2283  0.2066
14402SOL    HW155265   6.302   7.632   3.975  0.7395  0.0788 -0.1483
14402SOL    HW255266   6.359   7.718   3.848 -0.3956  0.4588 -0.4003
14403SOL     OW55267   8.879   4.601   8.186 -0.4247 -0.1064  0.3640
14403SOL    HW155268   8.894   4.666   8.261  1.1218 -0.9344  0.7996
14403SOL    HW255269   8.806   4.635   8.127 -0.3603  1.5012  1.1668
14404SOL     OW55270   7.421   4.980   4.391  0.6170  0.5048  0.2023
14404SOL    HW155271   7.353   4.955   4.460  1.4994  1.9555  1.6396
14404SOL    HW255272   7.451   5.074   4.406  1.6715  0.4651 -1.4757
14405SOL     OW55273   2.992   7.408   3.820  0.4057 -0.1559 -0.0583
14405SOL    HW155274   2.933   7.488   3.807 -0.8506 -0.5245  2.9491
14405SOL    HW255275   3.077   7.436   3.863  0.0856 -0.3700  0.7285
14406SOL     OW55276   1.333   6.572   8.978 -0.3596 -0.5229 -0.6450
14406SOL    HW155277   1.404   6.521   8.929 -0.4158  0.9133 -2.2683
14406SOL    HW255278   1.272   6.507   9.023 -0.5438 -1.9294 -2.8052
14407SOL     OW55279   3.219   7.544   4.569  0.3724  0.6263 -0.0886
14407SOL    HW155280   3.173   7.600   4.500 -0.4426  0.4582  0.3088
14407SOL    HW255281   3.163   7.540   4.651 -1.7060 -4.2798 -1.5627
14408SOL     OW55282   8.766   5.488   8.311 -0.0704  0.0163  0.6407
14408SOL    HW155283   8.863   5.475   8.328  0.2695  1.0297 -0.5650
14408SOL    HW255284   8.731   5.412   8.256  0.5587  0.8726 -0.9661
14409SOL     OW55285   5.599   2.261   3.454  0.0778  0.3267  0.2194
14409SOL    HW155286   5.581   2.337   3.391  0.0318 -0.2220 -0.4353
14409SOL    HW255287   5.698   2.253   3.468  0.3969 -1.9171 -2.7823
14410SOL     OW55288   4.269   4.792   7.667  0.3601  0.2449  0.1767
14410SOL    HW155289   4.353   4.828   7.627  0.2578  0.1273 -0.1387
14410SOL    HW255290   4.231   4.721   7.608  0.2474  0.0254  0.5137
14411SOL     OW55291   3.124   1.793   4.647 -0.2550  0.1267 -0.6444
14411SOL    HW155292   3.037   1.743   4.644 -0.1152 -0.1371 -0.3747
14411SOL    HW255293   3.114   1.873   4.706  0.3975 -1.3069  1.4725
14412SOL     OW55294   8.366   9.103   4.657 -0.1318  0.2071  0.1148
14412SOL    HW155295   8.308   9.182   4.675 -0.7990 -0.3750  0.5403
14412SOL    HW255296   8.383   9.054   4.742 -1.2086 -1.1232 -0.4136
14413SOL     OW55297   1.105   3.031   5.048 -0.0705  0.2722 -0.0020
14413SOL    HW155298   1.073   3.114   5.093 -1.2634  0.3922 -1.0292
14413SOL    HW255299   1.160   2.977   5.112 -1.7277  0.4271  1.5857
14414SOL     OW55300   8.079   6.155   5.525  0.1145  0.0745  0.5625
14414SOL    HW155301   8.073   6.222   5.451 -1.0477  0.1583  0.7203
14414SOL    HW255302   7.987   6.132   5.557  0.5586 -0.7153  1.3055
14415SOL     OW55303   6.999   7.563   0.054  0.2926 -0.0424 -1.0567
14415SOL    HW155304   7.005   7.637  -0.014  1.8090  0.5220 -0.3309
14415SOL    HW255305   7.090   7.546   0.093 -0.4710 -0.7261  0.4545
14416SOL     OW55306   9.028   7.727   8.343  0.0260  0.0405 -0.2994
14416SOL    HW155307   8.968   7.687   8.273  2.1629 -2.0552 -1.0287
14416SOL    HW255308   9.106   7.771   8.298 -0.9446  2.8179  0.6273
14417SOL     OW55309   9.526   2.194   0.077 -0.5594 -0.9764 -0.3534
14417SOL    HW155310   9.590   2.236   0.140 -1.2704  0.8699 -0.8331
14417SOL    HW255311   9.504   2.101   0.108 -0.6020 -0.2362  1.9022
14418SOL     OW55312   6.189   4.027   4.950 -0.0642  0.1109 -1.0383
14418SOL    HW155313   6.233   3.950   4.995 -1.4056 -0.3870 -0.5694
14418SOL    HW255314   6.094   4.003   4.927  0.2589  0.7105 -3.1754
14419SOL     OW55315   2.041   6.591   3.231 -0.3070  0.7096 -0.4088
14419SOL    HW155316   1.986   6.636   3.301 -0.9063 -0.6570  0.0288
14419SOL    HW255317   2.107   6.530   3.275 -1.0754 -0.5953 -1.0456
14420SOL     OW55318   6.307   9.181   4.842 -0.0652  0.3204 -0.4629
14420SOL    HW155319   6.263   9.256   4.794 -0.6714  0.4973  0.3659
14420SOL    HW255320   6.391   9.214   4.886 -0.2013  0.4509 -0.3032
14421SOL     OW55321   0.882   7.328   9.005 -0.2595 -0.5112  0.6554
14421SOL    HW155322   0.879   7.403   8.939  1.1501 -0.2792  0.8541
14421SOL    HW255323   0.946   7.258   8.974 -0.2270 -0.8024  1.3646
14422SOL     OW55324   2.277   6.379   9.430 -0.5475 -0.0458  0.1879
14422SOL    HW155325   2.237   6.347   9.344 -0.6216 -0.6503  0.4532
14422SOL    HW255326   2.315   6.302   9.481  0.8693  0.5124 -0.0127
14423SOL     OW55327   2.387   2.438   9.737  0.4308  0.9434  0.7656
14423SOL    HW155328   2.314   2.490   9.692  0.0990 -0.0503  0.1562
14423SOL    HW255329   2.446   2.502   9.787  0.0436  1.9246  0.0063
14424SOL     OW55330   2.585   6.566   7.848  0.4657  0.2459  0.2149
14424SOL    HW155331   2.501   6.513   7.862  1.5231 -1.3355  0.7144
14424SOL    HW255332   2.581   6.649   7.903 -0.6780  0.0810  0.4051
14425SOL     OW55333   1.834   5.116   6.483 -0.0045  0.0995 -0.1395
14425SOL    HW155334   1.873   5.201   6.449  0.7972  0.6625  2.1244
14425SOL    HW255335   1.899   5.041   6.467 -0.1045  0.1573 -0.8329
14426SOL     OW55336   4.534   3.659   5.583 -0.2034 -0.4706 -0.1601
14426SOL    HW155337   4.449   3.606   5.577  0.0907 -1.0432  0.7087
14426SOL    HW255338   4.569   3.656   5.676  1.7322 -1.7144 -0.8988
14427SOL     OW55339   0.439   1.641   9.674 -0.5976  0.0202  0.4406
14427SOL    HW155340   0.504   1.681   9.610 -0.0375  0.1419  1.0824
14427SOL    HW255341   0.353   1.692   9.672  0.1445  1.3216  1.3290
14428SOL     OW55342   5.671   4.225   3.127 -0.0385 -0.4815  0.2489
14428SOL    HW155343   5.592   4.219   3.066 -0.4329  0.9789  0.6096
14428SOL    HW255344   5.721   4.310   3.108  0.4387 -0.5423  1.2304
14429SOL     OW55345   8.747   6.931   4.300  0.1901  0.4328  0.2781
14429SOL    HW155346   8.767   6.840   4.263 -0.7804  0.0208  0.7400
14429SOL    HW255347   8.824   6.961   4.357  0.4023 -0.2201  0.3416
14430SOL     OW55348   3.856   5.101   9.562  0.4856  0.2015  0.2465
14430SOL    HW155349   3.844   5.149   9.649 -1.4346  0.8757 -0.3781
14430SOL    HW255350   3.825   5.159   9.487  0.8240 -0.9118 -0.7665
14431SOL     OW55351   5.686   7.341   2.031  0.1843 -0.0049 -0.1577
14431SOL    HW155352   5.592   7.323   2.003 -0.2277 -0.8967  1.7563
14431SOL    HW255353   5.698   7.319   2.128  2.6249 -0.8540 -0.6101
14432SOL     OW55354   7.675   0.696   4.689  0.1931  0.4723  0.1180
14432SOL    HW155355   7.626   0.736   4.612 -1.7776 -0.2860  0.9397
14432SOL    HW255356   7.733   0.621   4.656  0.2021  0.8674 -0.7727
14433SOL     OW55357   8.439   3.761   9.492 -0.1083  0.5240  1.1769
14433SOL    HW155358   8.516   3.702   9.513 -0.2443 -0.1678 -0.2167
14433SOL    HW255359   8.372   3.758   9.567 -0.2707 -1.3455  0.9798
14434SOL     OW55360   5.394   6.084   3.605  0.1306 -0.0603 -0.2058
14434SOL    HW155361   5.349   6.106   3.691  1.2674 -2.2165  0.9976
14434SOL    HW255362   5.491   6.065   3.622  0.2360 -1.1672 -1.8637
14435SOL     OW55363   7.058   7.825   6.797 -0.0875 -0.0866 -0.4101
14435SOL    HW155364   7.031   7.912   6.838  0.7090  0.3749 -0.8500
14435SOL    HW255365   7.067   7.837   6.698  2.2198 -0.1097 -0.2142
14436SOL     OW55366   5.189   9.780   9.572 -0.5159 -0.3736 -0.1432
14436SOL    HW155367   5.089   9.773   9.571 -0.5706 -0.4085  2.2116
14436SOL    HW255368   5.229   9.692   9.596  0.2595 -1.1544 -3.9702
14437SOL     OW55369   2.777   7.572   0.941  0.2508 -0.1665  0.0421
14437SOL    HW155370   2.834   7.513   0.884  1.4874  0.1346  0.9450
14437SOL    HW255371   2.687   7.531   0.952  0.8696 -1.5303  0.0675
14438SOL     OW55372   4.174   6.173   9.630 -0.1207  0.3568 -0.1004
14438SOL    HW155373   4.207   6.133   9.715  1.5562 -0.7759 -1.2763
14438SOL    HW255374   4.074   6.168   9.628 -0.0227 -2.7464  0.2750
14439SOL     OW55375   6.974   9.831   2.150 -0.3818 -0.0467 -0.2329
14439SOL    HW155376   7.000   9.924   2.178  1.1014 -0.3276 -0.6191
14439SOL    HW255377   7.024   9.764   2.205 -2.7669 -0.6494  1.2598
14440SOL     OW55378   7.536   1.999   4.491  0.0531  0.5914 -0.2899
14440SOL    HW155379   7.468   2.048   4.545  0.3828  1.2074 -0.4281
14440SOL    HW255380   7.579   1.929   4.548 -1.1690 -0.2520 -0.3972
14441SOL     OW55381   7.314   5.174   8.042  0.1086  0.5376 -0.7131
14441SOL    HW155382   7.215   5.184   8.044 -0.0264 -0.9167  0.6458
14441SOL    HW255383   7.351   5.182   8.135  1.2224  0.7231 -1.1593
14442SOL     OW55384   6.451   0.432   8.502 -0.2174  0.2203  0.6515
14442SOL    HW155385   6.408   0.437   8.412  0.7921 -3.8678 -0.1407
14442SOL    HW255386   6.550   0.449   8.493 -0.0639 -0.4955  0.9096
14443SOL     OW55387   1.736   7.394   8.714 -0.0421  0.3956  0.6665
14443SOL    HW155388   1.748   7.297   8.694  0.0361  0.2622  1.3682
14443SOL    HW255389   1.656   7.406   8.772 -0.6191  0.8452 -0.2029
14444SOL     OW55390   3.156   2.386   0.164 -0.2886  0.0167 -0.3508
14444SOL    HW155391   3.246   2.364   0.128  0.5142  1.7082  0.5489
14444SOL    HW255392   3.094   2.309   0.150  1.2168 -1.0446 -1.2411
14445SOL     OW55393   9.880   9.347   0.922 -0.6271 -0.0181  0.1000
14445SOL    HW155394   9.954   9.384   0.979 -0.0305  0.8817 -1.2247
14445SOL    HW255395   9.802   9.410   0.924 -0.1080  0.6903 -1.1030
14446SOL     OW55396   2.536   0.304   5.087 -0.4758  0.2322 -0.1478
14446SOL    HW155397   2.495   0.385   5.044  0.9630  1.0980  0.0821
14446SOL    HW255398   2.635   0.316   5.093 -0.1498 -1.8953 -0.8190
14447SOL     OW55399   4.851   6.723   8.429 -0.4630 -0.2046  0.2938
14447SOL    HW155400   4.858   6.654   8.500 -0.7087  1.0934  1.6112
14447SOL    HW255401   4.939   6.770   8.420 -0.7153  0.2976  0.4389
14448SOL     OW55402   2.815   4.743   5.979  0.0026  0.1400 -0.0763
14448SOL    HW155403   2.859   4.656   5.955 -1.4514 -0.4316 -0.7688
14448SOL    HW255404   2.786   4.790   5.895  0.8818  1.3537  0.2886
14449SOL     OW55405   3.705   7.750   5.919 -0.6310  0.0959 -0.0905
14449SOL    HW155406   3.798   7.733   5.954 -0.6406 -1.5595 -0.8303
14449SOL    HW255407   3.711   7.797   5.831 -0.5493  1.7386  0.7738
14450SOL     OW55408   0.893   9.907   8.546  0.0262 -0.3350 -0.6470
14450SOL    HW155409   0.810   9.961   8.527 -0.0521 -0.5634 -0.9507
14450SOL    HW255410   0.870   9.832   8.608  0.3351  0.5663  0.5648
14451SOL     OW55411   7.499   3.619   5.333  0.1778  0.6502  0.1401
14451SOL    HW155412   7.461   3.628   5.425 -0.6736 -1.2666 -0.0034
14451SOL    HW255413   7.428   3.587   5.271  1.4140 -0.6629 -0.6174
14452SOL     OW55414   3.547   4.619   5.251  0.2670  0.5343  0.0175
14452SOL    HW155415   3.466   4.669   5.283  0.1969  0.3212  0.1759
14452SOL    HW255416   3.519   4.553   5.181  0.5841  1.7736 -1.2987
14453SOL     OW55417   6.445   8.465   8.614  0.3321  0.0551  0.5317
14453SOL    HW155418   6.401   8.522   8.545 -1.3481 -2.1965 -0.3115
14453SOL    HW255419   6.542   8.491   8.621  0.6993 -0.1069 -3.1607
14454SOL     OW55420   5.459   8.350   4.306 -0.5761  0.4894  0.3594
14454SOL    HW155421   5.483   8.444   4.330  1.6587  0.2023 -0.6257
14454SOL    HW255422   5.516   8.287   4.358 -1.0690 -0.2790 -0.0247
14455SOL     OW55423   4.223   8.936   8.000 -0.3711 -0.1903 -0.8226
14455SOL    HW155424   4.275   8.854   7.975  1.8563  1.5838 -2.1775
14455SOL    HW255425   4.198   8.932   8.097  0.1785 -2.1946 -0.7395
14456SOL     OW55426   8.791   9.072   4.529  0.3527  0.2493 -0.0492
14456SOL    HW155427   8.700   9.107   4.507  0.3609  0.2222 -0.1288
14456SOL    HW255428   8.791   8.972   4.518  0.8115  0.3987 -1.5728
14457SOL     OW55429   2.548   7.816   9.995  0.5966 -0.2876 -0.2169
14457SOL    HW155430   2.461   7.857   9.969  1.4242  0.7346 -1.4067
14457SOL    HW255431   2.593   7.873  10.064  1.0982  0.0855 -0.8448
14458SOL     OW55432   8.040   1.339   3.815 -0.3043 -0.2305 -0.4919
14458SOL    HW155433   7.968   1.271   3.835 -0.4847  0.4885  1.4142
14458SOL    HW255434   8.073   1.325   3.722 -3.0306 -0.4941 -1.4847
14459SOL     OW55435   0.167   4.065   1.148 -0.3854  0.1662  0.3085
14459SOL    HW155436   0.218   4.013   1.217 -1.2878 -0.4558  0.5236
14459SOL    HW255437   0.230   4.097   1.077  0.2143 -1.0562  0.2767
14460SOL     OW55438   6.270   9.512   7.037  0.0538  0.3243  0.4057
14460SOL    HW155439   6.341   9.469   7.093  0.6434  0.2636 -0.3876
14460SOL    HW255440   6.192   9.535   7.095  0.1957 -0.7652  1.0516
14461SOL     OW55441   4.675   4.885   2.538  0.0669 -0.1925  0.1668
14461SOL    HW155442   4.637   4.936   2.461 -1.3410 -0.3859  0.7078
14461SOL    HW255443   4.674   4.943   2.619 -0.3148 -0.6442  0.4873
14462SOL     OW55444   4.250   8.836   7.600  0.4010  0.5265  0.5951
14462SOL    HW155445   4.318   8.890   7.551 -0.5652  0.6442 -0.6505
14462SOL    HW255446   4.240   8.746   7.557 -0.5052  0.6517  0.5167
14463SOL     OW55447   4.298   3.805   8.239 -0.1270  0.2657 -0.0074
14463SOL    HW155448   4.366   3.871   8.205 -1.3551  1.4626 -0.1719
14463SOL    HW255449   4.342   3.716   8.251  1.4921  1.0292 -0.0712
14464SOL     OW55450   7.083   5.777   7.549 -0.3669  0.2931 -0.7366
14464SOL    HW155451   6.989   5.810   7.534 -0.7000 -1.2398 -2.2183
14464SOL    HW255452   7.092   5.684   7.513  0.8890 -0.8077  2.2429
14465SOL     OW55453   9.725   8.800   7.839  0.0718  0.3830 -0.0774
14465SOL    HW155454   9.756   8.857   7.915 -0.7829  2.0295 -0.9218
14465SOL    HW255455   9.796   8.797   7.768 -0.2955  1.2781 -0.4905
14466SOL     OW55456   0.046   9.708   3.577  0.6922  0.2902  0.4037
14466SOL    HW155457  -0.025   9.724   3.646  0.4315 -1.4996  0.5710
14466SOL    HW255458   0.099   9.792   3.564 -0.4012  1.1665  1.4771
14467SOL     OW55459   4.721   4.466   8.788 -0.6760  0.1070  0.3114
14467SOL    HW155460   4.793   4.398   8.799  0.2186  0.7044 -1.5888
14467SOL    HW255461   4.632   4.421   8.785 -0.1073 -0.9579 -0.7682
14468SOL     OW55462   0.083   3.558   4.731 -0.0896 -0.5619  0.0077
14468SOL    HW155463   0.063   3.516   4.643  2.4623 -1.3509 -0.2375
14468SOL    HW255464   0.006   3.615   4.759 -1.7420 -1.8680 -1.7797
14469SOL     OW55465   6.411   0.863   1.765 -0.3522 -0.3012  0.1494
14469SOL    HW155466   6.442   0.843   1.672 -1.8307 -1.3468 -0.1299
14469SOL    HW255467   6.388   0.960   1.773  0.4051 -0.0755 -0.3869
14470SOL     OW55468   3.426   8.427   6.144 -0.6438 -0.5746  0.2425
14470SOL    HW155469   3.472   8.344   6.112  0.1570 -0.5166  1.2211
14470SOL    HW255470   3.331   8.427   6.112 -0.4297 -1.4932 -0.4074
14471SOL     OW55471   2.345   6.369   7.532 -0.6846  0.0800  0.1570
14471SOL    HW155472   2.435   6.355   7.572 -0.8806  1.1004  0.9845
14471SOL    HW255473   2.287   6.289   7.550 -0.2213 -0.1992  0.3993
14472SOL     OW55474   0.625   8.836   3.845  0.2964  0.5285  0.1913
14472SOL    HW155475   0.682   8.914   3.871 -1.4886  1.7609  0.5034
14472SOL    HW255476   0.632   8.765   3.915  0.9693  0.9133  0.5221
14473SOL     OW55477   1.126   5.275   8.135  0.2479  0.6107 -0.4864
14473SOL    HW155478   1.073   5.223   8.067  0.1771 -0.3715  0.3058
14473SOL    HW255479   1.223   5.258   8.122  0.2453  0.5937 -0.4834
14474SOL     OW55480   4.853   9.298   7.523  0.0910  0.4502  0.2374
14474SOL    HW155481   4.761   9.336   7.529  0.9623  2.4989  0.9077
14474SOL    HW255482   4.901   9.314   7.609  0.9257 -1.0195  0.0566
14475SOL     OW55483   4.305   1.502   7.698 -0.2920  0.0085  0.0772
14475SOL    HW155484   4.393   1.461   7.724 -0.6015  0.6329  2.2501
14475SOL    HW255485   4.321   1.591   7.655  0.1147  0.4427  1.1174
14476SOL     OW55486   5.627   3.835   4.041 -0.2851  0.4374  0.2127
14476SOL    HW155487   5.531   3.824   4.015 -0.5424 -0.1378  1.3582
14476SOL    HW255488   5.676   3.750   4.021 -0.6079 -0.2063  2.0840
14477SOL     OW55489   8.527   4.544   7.201 -0.5122 -0.1000 -0.0355
14477SOL    HW155490   8.569   4.627   7.238 -2.1790  0.9642 -0.4589
14477SOL    HW255491   8.463   4.569   7.128  0.3720 -1.9188 -1.4768
14478SOL     OW55492   7.915   0.147   7.497 -0.0032 -0.2685  0.5498
14478SOL    HW155493   7.999   0.171   7.545 -0.1177  0.4790  0.3744
14478SOL    HW255494   7.937   0.112   7.406  0.0529  1.1127  0.0271
14479SOL     OW55495   7.856   5.033   4.100  0.1313  0.0266  0.3204
14479SOL    HW155496   7.835   5.017   4.004  0.5476 -0.0205  0.2342
14479SOL    HW255497   7.771   5.038   4.153 -0.0660 -0.9165  0.1082
14480SOL     OW55498   8.669   4.340   8.633 -0.1288  0.2414  0.2708
14480SOL    HW155499   8.721   4.382   8.708  0.5666 -0.8766  0.4257
14480SOL    HW255500   8.716   4.358   8.547 -0.8915  1.4672  0.0992
14481SOL     OW55501   4.578   3.507   8.018  0.1515  0.2104  0.2370
14481SOL    HW155502   4.518   3.438   7.977 -2.5945  0.0099  4.3497
14481SOL    HW255503   4.648   3.461   8.073 -0.3575  0.6330  1.2429
14482SOL     OW55504   3.763   9.615   1.984 -0.1743  1.0986 -0.2060
14482SOL    HW155505   3.726   9.674   2.056  2.1478 -1.1155  2.9253
14482SOL    HW255506   3.849   9.652   1.950  0.4002  0.4350  0.5169
14483SOL     OW55507   9.925   3.433   0.664 -0.1170  0.8218  0.3129
14483SOL    HW155508  10.019   3.444   0.696 -0.2860  0.2988  1.0079
14483SOL    HW255509   9.883   3.523   0.651  1.5338  1.1351 -3.2217
14484SOL     OW55510   3.050   8.787   6.446  0.0072 -0.0346 -0.3498
14484SOL    HW155511   2.966   8.794   6.391 -1.4729 -0.4090  1.7860
14484SOL    HW255512   3.100   8.704   6.421 -0.0138  0.4201 -1.9554
14485SOL     OW55513   6.761   9.718   5.620 -0.1849  0.7629 -0.8982
14485SOL    HW155514   6.724   9.704   5.712  0.5703  1.8889 -0.4155
14485SOL    HW255515   6.801   9.632   5.587  0.6659  0.6768  0.3291
14486SOL     OW55516   4.537   0.059   7.674  0.4256  0.7541  0.3227
14486SOL    HW155517   4.530   0.086   7.770 -1.0632  1.7749 -0.0550
14486SOL    HW255518   4.449   0.073   7.629  0.9753 -0.1737 -1.0858
14487SOL     OW55519   2.830   1.125   1.795  0.0279  0.0433 -0.4738
14487SOL    HW155520   2.851   1.121   1.698  0.4206 -1.6627 -0.3310
14487SOL    HW255521   2.733   1.144   1.808 -0.2198 -0.6885 -1.2168
14488SOL     OW55522   9.241   6.042   8.605 -0.5410  0.4005  1.1015
14488SOL    HW155523   9.279   5.952   8.630 -0.5971  0.4818  1.4840
14488SOL    HW255524   9.294   6.114   8.649  1.3710  0.6948 -1.6212
14489SOL     OW55525   9.348   6.290   8.057  0.1211 -0.2238  0.1691
14489SOL    HW155526   9.380   6.294   7.962 -0.3406 -0.7884 -0.0087
14489SOL    HW255527   9.278   6.360   8.072 -0.5701 -0.8345 -0.1911
14490SOL     OW55528   7.357   6.199   7.316  0.0839 -0.5485  0.3670
14490SOL    HW155529   7.436   6.242   7.359  1.2253 -2.7214  0.5125
14490SOL    HW255530   7.338   6.112   7.362 -1.6319 -0.6314 -0.4778
14491SOL     OW55531   6.607   7.768   6.920  0.5501 -0.3547  0.6969
14491SOL    HW155532   6.612   7.683   6.972 -1.1704 -1.4503 -0.8413
14491SOL    HW255533   6.684   7.773   6.856  0.2198 -1.1661  0.2276
14492SOL     OW55534   6.333   8.038   2.904 -0.4765 -0.0388  0.0988
14492SOL    HW155535   6.240   8.008   2.885 -0.6929  0.9922 -0.4860
14492SOL    HW255536   6.398   7.969   2.872 -1.0297 -0.8133  0.6111
14493SOL     OW55537   8.014   7.249   7.008 -0.5806 -0.5282  0.0019
14493SOL    HW155538   8.110   7.248   6.979 -0.6218 -0.4099 -0.1398
14493SOL    HW255539   8.008   7.270   7.105 -0.4496 -0.7703  0.0629
14494SOL     OW55540   4.228   8.108   3.083  0.2982  0.2025  0.6998
14494SOL    HW155541   4.139   8.065   3.100  0.5445 -0.7468 -0.3860
14494SOL    HW255542   4.293   8.080   3.154  0.3376 -0.8924  0.2452
14495SOL     OW55543   4.833   7.014   1.421 -0.6887 -0.7150 -0.5034
14495SOL    HW155544   4.764   6.951   1.388 -0.8725 -0.9322  0.2712
14495SOL    HW255545   4.849   6.997   1.519 -0.8087  0.4767 -0.2633
14496SOL     OW55546   4.111   6.659   7.244  0.0676  0.3120  0.1422
14496SOL    HW155547   4.071   6.568   7.234  1.0740 -0.0054 -1.0841
14496SOL    HW255548   4.048   6.717   7.296 -1.5915 -0.4448 -0.9785
14497SOL     OW55549   5.118   6.950   5.074 -0.2282 -0.2428  0.1126
14497SOL    HW155550   5.096   6.861   5.033  1.7140 -1.6999  2.0940
14497SOL    HW255551   5.061   6.964   5.155  0.5505 -0.4496  0.7129
14498SOL     OW55552   2.519   6.231   2.384 -0.1289  0.2066 -0.5298
14498SOL    HW155553   2.476   6.307   2.335 -0.5798  0.5949  0.4577
14498SOL    HW255554   2.449   6.173   2.425  0.2355 -0.3566 -0.7016
14499SOL     OW55555   4.560   8.846   9.063 -0.2297 -0.3140  0.4581
14499SOL    HW155556   4.524   8.791   8.988 -1.6245  0.2497  0.6935
14499SOL    HW255557   4.486   8.898   9.105  1.1060  2.0640 -0.0255
14500SOL     OW55558   0.160   6.846   3.340 -0.3725  0.0138 -0.0846
14500SOL    HW155559   0.066   6.814   3.335 -0.3515 -0.4375  1.8538
14500SOL    HW255560   0.163   6.945   3.330 -0.9537 -0.0600 -1.0439
14501SOL     OW55561   4.572   5.335   4.666  0.2708  0.5454  0.0055
14501SOL    HW155562   4.542   5.421   4.624  1.8273  0.6648 -0.8876
14501SOL    HW255563   4.631   5.356   4.744  1.5462  0.2727 -0.8900
14502SOL     OW55564   3.001   2.434   8.545 -0.3496 -0.0729 -0.4157
14502SOL    HW155565   3.019   2.418   8.642 -0.6308 -0.3071 -0.4000
14502SOL    HW255566   3.025   2.528   8.521 -0.5441  0.0711 -0.0527
14503SOL     OW55567   1.329   9.455   7.990  0.5264  0.4486  0.0532
14503SOL    HW155568   1.397   9.435   7.919  0.6735  1.1069  0.0102
14503SOL    HW255569   1.373   9.461   8.079  0.5900  1.3457 -0.0414
14504SOL     OW55570   6.490   4.769   5.947  0.5085 -0.2695 -0.3612
14504SOL    HW155571   6.456   4.694   5.890  0.3878 -0.4736 -0.0212
14504SOL    HW255572   6.581   4.745   5.982 -0.5852 -1.3498  1.8104
14505SOL     OW55573   4.983   4.656   4.568  0.0149 -0.1184 -0.2973
14505SOL    HW155574   5.070   4.647   4.617  0.2138  1.0545 -0.4245
14505SOL    HW255575   5.002   4.667   4.470 -0.3654 -2.0623 -0.5959
14506SOL     OW55576   8.488   5.742   4.268 -0.6172  0.0494 -0.2204
14506SOL    HW155577   8.470   5.648   4.239  1.3094  0.2690 -2.2682
14506SOL    HW255578   8.546   5.741   4.350  1.3652 -0.5906 -1.5781
14507SOL     OW55579   9.727   6.995   6.429 -0.3711 -0.2473  0.5373
14507SOL    HW155580   9.790   6.984   6.506 -1.7084  1.3995  1.9173
14507SOL    HW255581   9.644   6.942   6.446 -0.6465  0.0734  0.2071
14508SOL     OW55582   3.608   0.662   5.430 -0.3412  0.3518  0.1750
14508SOL    HW155583   3.669   0.586   5.407  1.1396  1.4136  0.5355
14508SOL    HW255584   3.658   0.730   5.483 -1.0607  2.6125 -1.9681
14509SOL     OW55585   6.496   8.107   3.818 -0.7768 -0.1711 -0.6207
14509SOL    HW155586   6.474   8.045   3.894  0.4992 -1.3562 -1.2127
14509SOL    HW255587   6.555   8.181   3.852 -1.3184  0.0747 -0.1831
14510SOL     OW55588   3.929   0.204   6.365 -0.0904  0.5442 -0.0224
14510SOL    HW155589   3.853   0.247   6.415 -0.1095  2.4258 -1.5970
14510SOL    HW255590   3.980   0.144   6.427 -0.2951  2.5791  2.1912
14511SOL     OW55591   5.037   4.534   3.728 -0.5020  0.1988  0.4781
14511SOL    HW155592   5.066   4.462   3.791 -0.7071 -0.6093 -0.3438
14511SOL    HW255593   5.004   4.613   3.780 -0.1346 -0.2409  1.3817
14512SOL     OW55594   0.923   6.055   8.778  0.2439  0.9381 -0.2905
14512SOL    HW155595   0.832   6.061   8.738 -0.2096 -2.2370  0.0761
14512SOL    HW255596   0.978   5.991   8.724  0.9961 -0.0728  1.6230
14513SOL     OW55597   3.922   6.412   9.153 -0.0215  0.1512  0.3803
14513SOL    HW155598   3.927   6.332   9.092  0.8057  1.0183 -0.7184
14513SOL    HW255599   3.906   6.494   9.099 -1.2742  0.6921  1.5516
14514SOL     OW55600   5.661   7.672   6.925 -0.1864 -0.5664 -0.7327
14514SOL    HW155601   5.711   7.621   6.856 -0.3076 -0.7176 -0.7088
14514SOL    HW255602   5.725   7.714   6.989 -0.0768 -0.4916 -0.8893
14515SOL     OW55603   5.665   0.235   7.913  0.4063 -0.5857 -0.8727
14515SOL    HW155604   5.757   0.275   7.903  0.7467 -1.2914 -0.5678
14515SOL    HW255605   5.666   0.167   7.986 -0.8130  0.7381  0.3958
14516SOL     OW55606   2.278   2.383   5.831 -0.4310  0.2603  0.0618
14516SOL    HW155607   2.235   2.467   5.863  0.0911  0.5770 -0.0725
14516SOL    HW255608   2.371   2.402   5.799  0.6354 -0.7763  2.3712
14517SOL     OW55609   1.410   9.585   5.377 -0.1971  0.6080 -0.2356
14517SOL    HW155610   1.444   9.491   5.375  1.0844  1.0658 -2.0470
14517SOL    HW255611   1.312   9.586   5.360  0.0470 -0.3145 -1.7940
14518SOL     OW55612   8.943   7.163   5.751  0.4623 -0.1376  0.4772
14518SOL    HW155613   9.027   7.123   5.789 -0.4154 -1.2327  1.2857
14518SOL    HW255614   8.882   7.189   5.826 -0.1914  0.0977 -0.1303
14519SOL     OW55615   3.143   8.048   2.542 -0.3429 -0.5036 -0.5397
14519SOL    HW155616   3.046   8.032   2.521 -0.6123  0.5409 -0.1548
14519SOL    HW255617   3.175   8.128   2.492  0.1637 -0.5073 -0.2199
14520SOL     OW55618   0.227   4.822   9.103 -0.4647  0.4201 -0.3978
14520SOL    HW155619   0.282   4.751   9.060  0.3018 -1.0374  2.7836
14520SOL    HW255620   0.288   4.886   9.152 -1.2588  2.3119 -1.8008
14521SOL     OW55621   1.686   3.232   7.048  0.1704 -0.5512  0.1821
14521SOL    HW155622   1.776   3.198   7.022  1.1581  2.8700 -1.2073
14521SOL    HW255623   1.690   3.271   7.140 -0.0319 -0.8192  0.3070
14522SOL     OW55624   5.719   1.665   4.138 -0.2558 -0.0120  0.0260
14522SOL    HW155625   5.776   1.596   4.093 -1.7484 -1.0942 -0.2360
14522SOL    HW255626   5.744   1.756   4.105 -0.3106 -0.6783 -1.8899
14523SOL     OW55627   0.474   8.295   0.663  0.1956  0.2796  0.5978
14523SOL    HW155628   0.377   8.315   0.653  0.0157 -0.9491 -0.2681
14523SOL    HW255629   0.500   8.300   0.759 -1.5135 -2.7255  1.2887
14524SOL     OW55630   8.265   8.100   4.577  0.0133 -0.2921  0.3811
14524SOL    HW155631   8.273   8.085   4.676  1.3964 -1.1821  0.1440
14524SOL    HW255632   8.321   8.033   4.528 -0.4176  0.3353 -1.0052
14525SOL     OW55633   7.518   8.967   7.477 -0.2151  0.0104 -0.0964
14525SOL    HW155634   7.466   8.967   7.391 -0.1582  0.2100 -0.1320
14525SOL    HW255635   7.519   9.060   7.514  0.7082  0.1493 -0.4502
14526SOL     OW55636   3.670   7.740   2.031 -0.0428 -0.0929 -0.5105
14526SOL    HW155637   3.680   7.641   2.043  1.8164  0.2492  1.0884
14526SOL    HW255638   3.672   7.762   1.933 -0.9937 -1.6692 -0.8989
14527SOL     OW55639   6.678   5.465   1.788  0.1339 -0.4583 -0.2179
14527SOL    HW155640   6.700   5.404   1.712 -0.4028  0.8453 -1.4436
14527SOL    HW255641   6.683   5.414   1.874 -0.6882 -2.3190 -1.2439
14528SOL     OW55642   1.747   5.840   5.217 -0.0051  0.0986 -0.6200
14528SOL    HW155643   1.810   5.763   5.223 -0.0412  0.1955  1.2800
14528SOL    HW255644   1.798   5.924   5.198  0.4199  0.1246  0.6062
14529SOL     OW55645   5.493   5.211   7.326 -0.2432 -0.3719  0.3914
14529SOL    HW155646   5.453   5.125   7.357  0.2533 -0.7121  0.0971
14529SOL    HW255647   5.450   5.287   7.375 -1.6522 -0.6791 -0.3204
14530SOL     OW55648   6.361   9.214   4.463  0.8567 -0.2745 -0.1185
14530SOL    HW155649   6.402   9.301   4.437  0.9506  0.8889  3.6079
14530SOL    HW255650   6.267   9.209   4.429  0.0281  2.3765  1.6556
14531SOL     OW55651   0.569   9.658   9.691  0.9059 -0.0818  0.2563
14531SOL    HW155652   0.536   9.634   9.782 -0.5685 -0.6525 -0.4086
14531SOL    HW255653   0.493   9.692   9.635  1.7384  0.0330 -0.8368
14532SOL     OW55654   2.218   4.361   5.654 -1.3253  0.3853 -0.3018
14532SOL    HW155655   2.217   4.296   5.578  1.1272 -1.8139  1.4543
14532SOL    HW255656   2.139   4.343   5.714 -0.4658 -1.2622  0.3667
14533SOL     OW55657   2.938   9.222   4.586  0.1876  0.1157  0.4277
14533SOL    HW155658   2.931   9.280   4.505 -0.7500  1.2528  1.3056
14533SOL    HW255659   3.033   9.197   4.601  0.7230  2.0897  0.4701
14534SOL     OW55660   3.403   4.158   7.397  0.0491  0.2122  0.3802
14534SOL    HW155661   3.446   4.227   7.456 -1.1205 -0.0181  1.4952
14534SOL    HW255662   3.393   4.196   7.305  0.7123  1.0234  0.6322
14535SOL     OW55663   3.385   2.941   3.993 -0.4076  0.3278  0.5537
14535SOL    HW155664   3.469   2.976   4.034  0.0645  0.2607 -0.3372
14535SOL    HW255665   3.392   2.841   3.984 -0.5298  0.3358  0.3652
14536SOL     OW55666   7.029   4.189   8.389  0.2281  0.2498 -0.3634
14536SOL    HW155667   6.970   4.136   8.328 -1.1381 -0.3909  1.4551
14536SOL    HW255668   7.095   4.128   8.433  0.0500  0.4068  0.1262
14537SOL     OW55669   6.480   3.946   3.370  0.0375 -0.3078  0.3166
14537SOL    HW155670   6.451   3.922   3.463 -0.0543 -1.6689 -0.0519
14537SOL    HW255671   6.434   3.886   3.304  1.0788 -0.2092 -0.5169
14538SOL     OW55672   5.077   5.105   8.409 -0.2549  0.0756 -0.4915
14538SOL    HW155673   5.020   5.091   8.328 -2.1653  1.0548  0.6631
14538SOL    HW255674   5.170   5.129   8.380 -0.6240 -0.6668 -2.3865
14539SOL     OW55675   9.432   3.675   9.429  0.5068 -0.5194  0.0576
14539SOL    HW155676   9.489   3.614   9.484  0.6919 -0.6125 -0.2345
14539SOL    HW255677   9.344   3.631   9.411  0.2166 -0.2429  0.7833
14540SOL     OW55678   4.108   8.513   5.889  0.0866 -0.2305 -0.3012
14540SOL    HW155679   4.189   8.500   5.945  0.8833  0.2151 -1.3419
14540SOL    HW255680   4.099   8.609   5.864  0.5441 -0.6390 -2.1245
14541SOL     OW55681   5.785   9.548   9.391 -0.1262 -0.3967 -0.7289
14541SOL    HW155682   5.832   9.630   9.424  1.0167 -1.1945 -0.3178
14541SOL    HW255683   5.788   9.546   9.291  0.6142 -0.3598 -0.7147
14542SOL     OW55684   0.695   6.909   6.699  0.2093 -0.1597 -0.0414
14542SOL    HW155685   0.783   6.867   6.675  0.3716 -1.1176  2.1292
14542SOL    HW255686   0.689   6.921   6.798 -1.7303  0.7523 -0.2394
14543SOL     OW55687   1.074   3.479   4.986 -0.7398  0.0463  0.1253
14543SOL    HW155688   1.029   3.560   5.023  2.0856  1.9251 -0.4442
14543SOL    HW255689   1.054   3.472   4.888 -0.1648  0.6408 -0.0381
14544SOL     OW55690   2.919   8.934   3.501 -0.1468  0.3045 -0.1369
14544SOL    HW155691   3.000   8.880   3.477  0.1549  1.1639 -1.1051
14544SOL    HW255692   2.867   8.955   3.418 -1.0246  0.3027  0.4070
14545SOL     OW55693   2.780   3.836   8.003  0.5724 -0.1477  0.2679
14545SOL    HW155694   2.876   3.862   8.010  0.3277  0.7809  0.2378
14545SOL    HW255695   2.757   3.775   8.079  1.2811 -0.6893  0.0515
14546SOL     OW55696   5.139   0.534   7.343  0.5816  0.2960  0.1994
14546SOL    HW155697   5.081   0.616   7.344  2.5345  1.7300  2.0405
14546SOL    HW255698   5.176   0.519   7.435  1.6298 -1.6576 -0.5175
14547SOL     OW55699   1.702   6.594   8.616  0.0041  0.9494  0.1808
14547SOL    HW155700   1.637   6.640   8.676  1.3846  1.5848  1.1961
14547SOL    HW255701   1.731   6.508   8.657 -0.2333  0.6393 -0.2965
14548SOL     OW55702   1.616   6.700   0.754  0.3124 -0.1962  0.7234
14548SOL    HW155703   1.652   6.637   0.685 -0.8753 -0.1851  0.0853
14548SOL    HW255704   1.683   6.710   0.827  1.7288  0.0105 -0.5587
14549SOL     OW55705   1.999   8.178   4.880 -0.4924 -0.2940  0.2314
14549SOL    HW155706   1.948   8.136   4.956 -0.6075 -0.1053  0.2601
14549SOL    HW255707   1.958   8.151   4.793 -0.8358  0.1112  0.2653
14550SOL     OW55708   2.422   2.293   8.458  0.1989  0.0295 -0.3592
14550SOL    HW155709   2.327   2.299   8.489  0.5303  1.1133  0.4952
14550SOL    HW255710   2.426   2.310   8.360 -0.4424  0.5280 -0.3106
14551SOL     OW55711   8.719   7.318   8.473 -0.1831 -0.3506 -0.1083
14551SOL    HW155712   8.698   7.391   8.538 -1.4488 -1.2889  0.5714
14551SOL    HW255713   8.654   7.320   8.398  2.4566  1.9477 -2.4164
14552SOL     OW55714   3.749   8.648   6.085 -0.2746 -0.0581 -0.5213
14552SOL    HW155715   3.805   8.565   6.084 -1.0541 -0.5786 -1.9275
14552SOL    HW255716   3.664   8.630   6.135 -0.1057  0.1386 -0.1542
14553SOL     OW55717   8.012   2.456   2.209 -0.6535 -0.1610  0.0789
14553SOL    HW155718   8.109   2.462   2.183 -0.8216 -0.8558 -0.7323
14553SOL    HW255719   7.979   2.363   2.191 -1.0901 -0.3338  1.7151
14554SOL     OW55720   3.406   8.041   5.182  0.1493 -0.1911 -0.4265
14554SOL    HW155721   3.481   8.019   5.244  0.4335  0.9173 -0.3757
14554SOL    HW255722   3.440   8.096   5.106 -0.4883 -0.2489 -0.7576
14555SOL     OW55723   4.311   7.003   3.066 -0.2559 -0.0743 -0.0969
14555SOL    HW155724   4.220   7.013   3.025 -0.2174 -1.4842 -0.5337
14555SOL    HW255725   4.312   6.922   3.125  0.1356  1.0713  1.5062
14556SOL     OW55726   0.260   1.201   7.925  0.4290 -0.1963  0.2819
14556SOL    HW155727   0.237   1.261   7.848 -2.1085  0.7602  1.6894
14556SOL    HW255728   0.328   1.245   7.982  0.7520  0.0346 -0.2741
14557SOL     OW55729   5.454   9.257   0.527  0.0209 -0.3047  0.2286
14557SOL    HW155730   5.548   9.224   0.525  0.4970  1.0799 -2.5817
14557SOL    HW255731   5.392   9.180   0.539  1.3255 -1.7564 -1.9774
14558SOL     OW55732   3.858   4.162   1.695  0.2420 -0.3702 -0.3864
14558SOL    HW155733   3.834   4.235   1.632  1.2060  0.8852  0.6704
14558SOL    HW255734   3.952   4.134   1.680  0.3353 -0.3777  0.1994
14559SOL     OW55735   5.782   6.044   6.481  0.4796  0.4612  0.2148
14559SOL    HW155736   5.691   6.075   6.455  0.3474  1.7297  2.0344
14559SOL    HW255737   5.800   5.954   6.442 -1.3144  0.4699 -0.6577
14560SOL     OW55738   0.267   9.948   1.462 -0.2906  0.1184 -0.1357
14560SOL    HW155739   0.302  10.032   1.423  1.1115 -0.5969 -0.4491
14560SOL    HW255740   0.274   9.874   1.395  0.3226 -0.6811  0.7750
14561SOL     OW55741   7.179   8.238   6.286  0.0047  0.3063 -0.2220
14561SOL    HW155742   7.184   8.264   6.189 -2.2154 -1.4809 -0.8500
14561SOL    HW255743   7.201   8.317   6.343  0.4618  1.6135 -2.1564
14562SOL     OW55744   4.022   3.875   7.529 -0.3918  0.3164  0.0348
14562SOL    HW155745   4.102   3.833   7.572 -0.9971  0.7630  1.6223
14562SOL    HW255746   4.010   3.836   7.438  1.5192  0.1057 -0.1529
14563SOL     OW55747   3.362   7.875   5.570  0.3742 -0.4713 -0.2866
14563SOL    HW155748   3.461   7.880   5.579  0.4648 -3.2701  0.6703
14563SOL    HW255749   3.334   7.780   5.555 -2.1446  0.3130 -0.9085
14564SOL     OW55750   4.242   9.153   5.960  0.4808  0.0175 -0.7403
14564SOL    HW155751   4.257   9.199   6.048 -1.4226 -1.4678  0.4003
14564SOL    HW255752   4.177   9.206   5.906  0.8867  0.4085 -0.8528
14565SOL     OW55753   4.444   5.437   9.419  0.2696  0.2851  0.3696
14565SOL    HW155754   4.468   5.353   9.467 -0.6848  0.1216  0.5706
14565SOL    HW255755   4.477   5.516   9.470 -0.2497  0.0913  1.0127
14566SOL     OW55756   9.065   6.882   9.193  0.0062  0.1315 -0.0042
14566SOL    HW155757   9.107   6.850   9.108  1.6557 -2.1484  1.6245
14566SOL    HW255758   9.065   6.982   9.195  2.4097  0.1836 -1.4768
14567SOL     OW55759   7.886   4.302   3.319  0.3513  0.2422 -0.2571
14567SOL    HW155760   7.849   4.316   3.411  0.5461 -0.9716  0.0186
14567SOL    HW255761   7.816   4.325   3.251 -0.2277 -0.1018  0.2188
14568SOL     OW55762   2.897   6.876   9.977  0.1071 -0.0121  0.5246
14568SOL    HW155763   2.847   6.956   9.944 -0.7674  0.4716  2.9104
14568SOL    HW255764   2.838   6.796   9.976 -0.4173  0.3256  2.2891
14569SOL     OW55765   7.597   7.487   6.959  0.1185  0.3376  0.4429
14569SOL    HW155766   7.613   7.477   7.057  2.7775  2.1831  0.2442
14569SOL    HW255767   7.638   7.572   6.927 -2.9986  1.0778 -1.8220
14570SOL     OW55768   7.432   6.005   9.235  0.1940 -0.0072 -0.1896
14570SOL    HW155769   7.469   5.977   9.324  1.6883  0.7459 -0.5575
14570SOL    HW255770   7.451   5.935   9.167  2.2907  1.0031 -0.6983
14571SOL     OW55771   6.078   7.812   6.632  0.1642  0.3782  0.0534
14571SOL    HW155772   6.076   7.749   6.554 -0.9025 -0.7476  0.9800
14571SOL    HW255773   6.022   7.893   6.612 -0.5285 -0.1514 -0.1436
14572SOL     OW55774   6.050   7.611   7.849 -0.1928  0.9060  0.4928
14572SOL    HW155775   5.962   7.573   7.823 -1.1299  2.2831  1.6003
14572SOL    HW255776   6.041   7.663   7.934  1.5118  1.7476  0.1930
14573SOL     OW55777   1.134   0.045   3.822  0.2887  0.7723  0.2662
14573SOL    HW155778   1.159   0.008   3.912  0.0043  0.1919  0.1115
14573SOL    HW255779   1.037   0.071   3.823  0.1322  0.2183 -0.0469
14574SOL     OW55780   4.667   5.197   4.455  0.1173  0.2739  0.0298
14574SOL    HW155781   4.653   5.262   4.529  0.9119 -1.3386  1.6389
14574SOL    HW255782   4.656   5.104   4.489  2.0311 -0.5623 -1.5135
14575SOL     OW55783   2.489   2.326   4.052 -0.3002  0.4315 -0.3442
14575SOL    HW155784   2.555   2.253   4.033 -0.9452 -0.8797  2.2101
14575SOL    HW255785   2.538   2.411   4.072  0.5040  0.2238 -1.3530
14576SOL     OW55786   6.689   8.181   1.815  0.3063 -0.0723 -0.3373
14576SOL    HW155787   6.750   8.227   1.880  0.8891 -1.9153  0.4507
14576SOL    HW255788   6.594   8.190   1.847  0.7932 -3.2414  2.2908
14577SOL     OW55789   1.983   6.625   8.690  0.2870 -0.5826  0.1436
14577SOL    HW155790   2.011   6.720   8.674 -1.3101  0.0428  0.8807
14577SOL    HW255791   1.905   6.603   8.630 -0.1867 -0.9947  0.9008
14578SOL     OW55792   5.576   7.070   3.583  0.8663 -0.1909 -0.0943
14578SOL    HW155793   5.535   7.133   3.517  0.7797  1.0138  1.0836
14578SOL    HW255794   5.505   7.031   3.641  1.1668  0.4195  0.6945
14579SOL     OW55795   9.610   8.004   5.771 -0.1858 -0.6665  0.2196
14579SOL    HW155796   9.596   8.058   5.688  1.2179 -0.4870  0.0830
14579SOL    HW255797   9.688   7.943   5.758 -0.6117 -1.4001  1.0356
14580SOL     OW55798   6.054   8.774   0.686  0.1141  0.2315 -0.3137
14580SOL    HW155799   6.070   8.807   0.594 -4.0419 -0.5464 -1.4238
14580SOL    HW255800   6.015   8.682   0.682  0.3954 -0.0378  2.2459
14581SOL     OW55801   8.047   6.852   2.761  0.3325  0.1007 -0.0505
14581SOL    HW155802   8.028   6.939   2.715 -0.4351  0.2153  0.4779
14581SOL    HW255803   8.011   6.777   2.705 -2.4519  0.3664  1.3325
14582SOL     OW55804   4.028   9.784   5.858  0.2123  0.3836 -0.6329
14582SOL    HW155805   3.953   9.848   5.874  0.3539  0.1959  0.7852
14582SOL    HW255806   4.112   9.835   5.839  0.3322  0.6232  0.5218
14583SOL     OW55807   3.915   6.247   7.666  0.5888  0.2204 -0.8440
14583SOL    HW155808   3.899   6.167   7.608  0.8448 -1.2556  1.0819
14583SOL    HW255809   4.013   6.267   7.668  0.8874 -1.2321  0.9598
14584SOL     OW55810   7.061   6.111   6.334  0.1256 -0.2084  0.2669
14584SOL    HW155811   7.146   6.132   6.287  0.0130 -0.7544 -0.1955
14584SOL    HW255812   7.022   6.194   6.374  0.4883  0.1672 -0.1686
14585SOL     OW55813   3.512   5.177   9.164 -0.2523  0.0199  0.6015
14585SOL    HW155814   3.501   5.106   9.233 -0.7221  0.2954  0.8095
14585SOL    HW255815   3.423   5.199   9.123  0.1252 -0.7106 -0.6562
14586SOL     OW55816   3.122   6.594   8.218  0.1267  0.0671 -0.1558
14586SOL    HW155817   3.082   6.631   8.135  1.2117  2.4511  0.3421
14586SOL    HW255818   3.087   6.644   8.298 -0.3078 -1.6675  0.7757
14587SOL     OW55819   2.951   1.875   1.193  0.7607 -0.4118 -0.5837
14587SOL    HW155820   2.852   1.869   1.205  0.7529  0.0119 -0.4246
14587SOL    HW255821   2.984   1.962   1.231  1.5511 -1.6889  1.7664
14588SOL     OW55822   6.469   7.999   8.603 -0.0231  0.2718 -0.1721
14588SOL    HW155823   6.436   8.068   8.668  0.0717  0.1586 -0.0013
14588SOL    HW255824   6.493   7.916   8.653  0.0884  0.1978 -0.3493
14589SOL     OW55825   4.811   7.257   8.051  0.1475  0.2121  0.1962
14589SOL    HW155826   4.711   7.250   8.057 -0.0875  1.5490 -1.7312
14589SOL    HW255827   4.838   7.353   8.044  1.6812 -0.0513  1.9761
14590SOL     OW55828   9.347   8.261   8.899  0.1389  0.0351  0.3753
14590SOL    HW155829   9.263   8.315   8.893  1.1956  1.5165 -2.2071
14590SOL    HW255830   9.324   8.163   8.892 -1.4504  0.3323  1.0340
14591SOL     OW55831   2.027   6.564   0.046 -0.1209  0.8406 -0.1422
14591SOL    HW155832   1.947   6.594  -0.007 -0.4221 -0.4415 -0.4230
14591SOL    HW255833   2.026   6.610   0.135 -1.4182  0.5089  0.0299
14592SOL     OW55834   2.061   6.407   6.390 -0.0501 -0.3798 -0.1296
14592SOL    HW155835   2.117   6.478   6.432  0.8314 -1.6793  0.9496
14592SOL    HW255836   2.118   6.327   6.369 -1.0940 -0.9194 -0.9611
14593SOL     OW55837   1.228   9.865   5.440 -0.1165 -0.0717  0.2465
14593SOL    HW155838   1.242   9.835   5.345  1.7323 -1.4549  0.9169
14593SOL    HW255839   1.251   9.962   5.448 -0.3512  0.0704 -0.7487
14594SOL     OW55840   6.484   9.471   6.863  0.2425  0.2109 -0.0208
14594SOL    HW155841   6.423   9.521   6.924  1.7363  3.0798 -0.8272
14594SOL    HW255842   6.579   9.494   6.884  0.8410 -0.2080 -2.1941
14595SOL     OW55843   6.505   7.707   3.793  0.1708 -0.0302 -1.2975
14595SOL    HW155844   6.580   7.650   3.760 -0.5040 -0.3984 -2.2270
14595SOL    HW255845   6.530   7.804   3.782  1.0386 -0.1444 -0.3556
14596SOL     OW55846   8.195   5.990   7.112  0.9454  0.6381  0.0803
14596SOL    HW155847   8.096   5.990   7.100  1.1716 -0.7787 -2.1491
14596SOL    HW255848   8.229   6.084   7.107 -0.3620  1.2445  1.9042
14597SOL     OW55849   2.190   4.586   1.383  0.4463 -0.0078  0.3844
14597SOL    HW155850   2.173   4.679   1.351  0.3940 -0.0473  0.2978
14597SOL    HW255851   2.118   4.559   1.447  0.0625 -0.2593 -0.1570
14598SOL     OW55852   5.320   6.257   8.363 -0.1766  0.1342 -0.3193
14598SOL    HW155853   5.371   6.318   8.302 -1.1572  1.5029  0.2105
14598SOL    HW255854   5.233   6.232   8.321 -0.1389 -0.2377 -0.1784
14599SOL     OW55855   1.805   4.572   9.213 -1.0166  0.0510  0.0159
14599SOL    HW155856   1.895   4.601   9.181 -0.6590 -0.4870  0.5235
14599SOL    HW255857   1.757   4.526   9.139 -0.3306 -0.8856  0.1493
14600SOL     OW55858   5.281   6.726   5.955 -0.3946 -0.0323  0.6430
14600SOL    HW155859   5.284   6.759   6.050  0.2314 -4.8578  2.4370
14600SOL    HW255860   5.374   6.722   5.919 -0.2034 -2.0746  1.3135
14601SOL     OW55861   9.114   0.706   9.513  0.2053  0.0004  0.2931
14601SOL    HW155862   9.165   0.752   9.585 -0.0860 -0.2070  0.6351
14601SOL    HW255863   9.018   0.737   9.514  0.0718 -0.4117  0.3549
14602SOL     OW55864   1.207   3.237   0.064  0.3408  0.0291  0.3935
14602SOL    HW155865   1.172   3.258   0.156  1.5463 -1.0171  1.1018
14602SOL    HW255866   1.224   3.139   0.057  0.7453  0.1795 -0.7855
14603SOL     OW55867   3.013   6.239   1.328 -0.4091 -0.0170 -0.1922
14603SOL    HW155868   2.992   6.191   1.243  0.4564 -1.8513  0.5780
14603SOL    HW255869   3.067   6.321   1.308 -0.8584 -0.0184 -1.4531
14604SOL     OW55870   4.824   3.303   8.576 -0.1843 -1.0267 -0.1014
14604SOL    HW155871   4.865   3.287   8.486  0.7878  0.6917  0.0093
14604SOL    HW255872   4.883   3.264   8.647  1.0158  0.9069  0.0147
14605SOL     OW55873   2.852   3.671   9.470  0.2969 -0.1483  0.0749
14605SOL    HW155874   2.894   3.610   9.402  1.2057 -1.4256  1.7162
14605SOL    HW255875   2.923   3.705   9.532 -0.7990 -0.7017  1.6587
14606SOL     OW55876   4.527   5.475   1.985  0.6930 -0.1815 -0.9795
14606SOL    HW155877   4.501   5.435   1.898  1.5158 -0.2043 -1.2146
14606SOL    HW255878   4.572   5.406   2.042 -0.3643 -0.3299 -0.2988
14607SOL     OW55879   8.568   7.986   8.988  0.9631 -0.3093 -0.1397
14607SOL    HW155880   8.519   8.031   9.063  0.8314  1.8352 -1.4747
14607SOL    HW255881   8.661   8.023   8.982  1.1297 -0.8310 -0.7192
14608SOL     OW55882   0.512   5.795   9.619 -0.2080  0.2696 -0.2415
14608SOL    HW155883   0.538   5.848   9.699 -1.3489  1.8160 -0.8692
14608SOL    HW255884   0.540   5.844   9.536 -2.0306  0.3334 -0.8459
14609SOL     OW55885   6.545   6.905   6.760  0.2175  0.4550 -0.0788
14609SOL    HW155886   6.487   6.880   6.838  0.6270 -0.2249  0.0088
14609SOL    HW255887   6.494   6.893   6.675  0.2282 -0.1312 -0.0007
14610SOL     OW55888   5.619   6.184   5.988  0.7450 -0.1699 -0.1102
14610SOL    HW155889   5.643   6.091   5.960  2.1279  0.2887 -0.4826
14610SOL    HW255890   5.521   6.200   5.973  0.4058 -1.7046  0.3748
14611SOL     OW55891   6.479   8.497   4.786  0.1359  0.1137 -0.2729
14611SOL    HW155892   6.571   8.535   4.781  0.0287  0.1959 -1.8790
14611SOL    HW255893   6.485   8.397   4.791  0.3278  0.1291 -0.2019
14612SOL     OW55894   6.123   6.223   4.895  0.0026 -0.1501 -0.1491
14612SOL    HW155895   6.105   6.128   4.869 -0.0323 -0.3070  0.4397
14612SOL    HW255896   6.198   6.259   4.840  0.7760 -0.8891  0.4059
14613SOL     OW55897   8.129   4.284   6.525  0.0017  0.1605  0.5545
14613SOL    HW155898   8.102   4.335   6.606  0.0192 -0.3261  0.8640
14613SOL    HW255899   8.110   4.187   6.538 -0.1405  0.0972 -0.0808
14614SOL     OW55900   3.506   3.220   6.804 -0.4176 -0.4075 -0.4995
14614SOL    HW155901   3.587   3.241   6.749 -0.4811 -0.8774 -0.7785
14614SOL    HW255902   3.446   3.158   6.753 -0.6509 -0.5586 -0.0470
14615SOL     OW55903   8.844   8.812   9.715 -0.6503  0.3224 -0.1345
14615SOL    HW155904   8.903   8.893   9.721 -0.0929 -0.0441 -0.6282
14615SOL    HW255905   8.893   8.739   9.667 -0.9618 -0.4735  0.7403
14616SOL     OW55906   2.507   6.705   8.593  0.2136 -0.0481 -0.1713
14616SOL    HW155907   2.523   6.612   8.561 -0.3416 -0.0562 -0.4249
14616SOL    HW255908   2.594   6.745   8.623  0.5139 -0.5145 -0.4097
14617SOL     OW55909   2.528   1.302   2.025  0.1854 -0.1344  0.2902
14617SOL    HW155910   2.566   1.327   2.114  0.2058  1.4904 -0.1615
14617SOL    HW255911   2.434   1.270   2.037  0.2922 -0.2125  0.9357
14618SOL     OW55912   9.970   6.683   9.118 -0.1433  0.8312 -0.3163
14618SOL    HW155913   9.949   6.618   9.191  0.7741  0.4738 -0.3747
14618SOL    HW255914   9.900   6.754   9.117 -2.1643 -1.0905 -1.3703
14619SOL     OW55915   5.775   7.839   1.671 -0.0753  0.2240 -0.6750
14619SOL    HW155916   5.773   7.786   1.755 -0.7220 -0.7509 -1.2957
14619SOL    HW255917   5.861   7.824   1.623  0.9604  1.9733  0.5395
14620SOL     OW55918   3.183   9.051   6.175  0.1373 -0.1236  0.2338
14620SOL    HW155919   3.203   9.121   6.106 -1.7379 -0.8100 -1.0327
14620SOL    HW255920   3.226   8.965   6.149 -0.3499 -0.3156  0.0704
14621SOL     OW55921   3.481   7.612   0.647  0.0566 -0.2755  0.1039
14621SOL    HW155922   3.516   7.547   0.714  0.7147  0.4501  0.4776
14621SOL    HW255923   3.555   7.673   0.617  0.2700 -1.8662 -2.8177
14622SOL     OW55924   6.792   3.649   8.648 -0.7822  0.2411 -0.6127
14622SOL    HW155925   6.750   3.612   8.730 -2.1012  2.0575 -0.4262
14622SOL    HW255926   6.778   3.749   8.646  0.9728  0.4718 -2.0302
14623SOL     OW55927   8.986   8.657   2.277  0.1837  0.2644 -0.3264
14623SOL    HW155928   9.050   8.684   2.349 -0.1904 -2.0612  0.9189
14623SOL    HW255929   8.892   8.670   2.309  0.0173 -0.6254 -0.4281
14624SOL     OW55930   2.662   3.650   6.866 -0.0726  0.1041  0.1625
14624SOL    HW155931   2.664   3.602   6.953 -0.1401  0.9901  0.6521
14624SOL    HW255932   2.616   3.738   6.877  0.4421  0.4779 -0.6375
14625SOL     OW55933   6.087   8.597   5.007 -0.5334 -0.2197 -0.2120
14625SOL    HW155934   6.073   8.566   5.102  0.4444  0.3227  0.1187
14625SOL    HW255935   6.017   8.556   4.948  0.7742 -3.1618  0.1966
14626SOL     OW55936   2.945   2.526   7.726 -0.2189  1.0982 -0.9192
14626SOL    HW155937   2.868   2.517   7.789  0.5285  0.3922 -0.0890
14626SOL    HW255938   3.014   2.586   7.766  0.1978  0.7501 -1.1067
14627SOL     OW55939   0.754   4.710   9.887  0.6912 -0.0537 -0.1742
14627SOL    HW155940   0.724   4.658   9.967  2.3803 -0.6839  0.0805
14627SOL    HW255941   0.850   4.689   9.868  0.5469  0.7195 -1.8721
14628SOL     OW55942   0.300   8.776   9.526 -0.3921  0.2428 -0.1582
14628SOL    HW155943   0.334   8.870   9.531  1.0794 -0.2721 -0.2612
14628SOL    HW255944   0.347   8.728   9.451 -1.4948 -0.4322 -0.4248
14629SOL     OW55945   3.159   5.162   7.702  0.5209  0.4421 -0.2124
14629SOL    HW155946   3.184   5.204   7.615  2.1530  0.5485  0.2998
14629SOL    HW255947   3.147   5.233   7.772 -0.5128  0.3357 -0.2640
14630SOL     OW55948   9.948   6.642   7.254  0.3992  0.1024 -0.0819
14630SOL    HW155949   9.873   6.672   7.195 -0.6589  0.6527  1.4936
14630SOL    HW255950  10.025   6.706   7.245 -1.1810  2.3883  1.9379
14631SOL     OW55951   1.105   6.425   0.068 -0.8889 -0.1511 -0.2136
14631SOL    HW155952   1.130   6.488   0.141 -0.7259 -0.4515 -0.0091
14631SOL    HW255953   1.006   6.429   0.052 -0.4903  2.5598 -2.4326
14632SOL     OW55954   5.992   9.265   8.514 -0.8831  0.4052 -0.2991
14632SOL    HW155955   6.064   9.263   8.445 -0.5428 -1.7967  0.0746
14632SOL    HW255956   6.025   9.313   8.595  0.5007 -1.3293  0.1981
14633SOL     OW55957   4.650   5.575   0.642  0.5739 -0.1897 -0.1251
14633SOL    HW155958   4.712   5.521   0.699 -1.9899 -1.6745  1.3265
14633SOL    HW255959   4.568   5.521   0.622 -0.6534  2.0617 -1.2877
14634SOL     OW55960   3.731   1.755   9.045 -0.0980 -0.2984 -0.3992
14634SOL    HW155961   3.826   1.758   9.077 -0.1810  1.7807 -0.3007
14634SOL    HW255962   3.724   1.691   8.968  1.0777 -1.5911  0.5421
14635SOL     OW55963   6.687   7.318   5.111 -0.0818  0.0679 -0.3808
14635SOL    HW155964   6.625   7.329   5.034 -0.8668  0.5806  0.3218
14635SOL    HW255965   6.638   7.279   5.189  0.8712 -1.1257 -0.3613
14636SOL     OW55966   6.318   1.708   0.447 -0.9456 -0.1612 -0.3361
14636SOL    HW155967   6.319   1.610   0.466 -0.3296  0.0627  0.7802
14636SOL    HW255968   6.370   1.757   0.517 -1.7774  1.0249 -0.5297
14637SOL     OW55969   7.691   2.760   7.540 -0.0294 -0.2584 -0.5949
14637SOL    HW155970   7.758   2.695   7.506 -0.9703 -0.5110 -2.0031
14637SOL    HW255971   7.618   2.771   7.473 -0.5713  1.2335  0.2093
14638SOL     OW55972   4.017   4.966   6.209 -0.1556 -0.7069 -0.0649
14638SOL    HW155973   3.963   4.995   6.130 -2.7577 -1.3425  1.3875
14638SOL    HW255974   3.987   4.875   6.238  0.9267 -0.6025  1.4578
14639SOL     OW55975   0.474   1.509   6.621  0.0278 -0.0211 -0.0063
14639SOL    HW155976   0.386   1.555   6.622 -0.7782 -1.5069 -0.2564
14639SOL    HW255977   0.514   1.510   6.713 -1.0736 -0.8714  0.4872
14640SOL     OW55978   2.744   6.801   1.394  0.0415  0.5637 -0.1705
14640SOL    HW155979   2.776   6.712   1.425  0.1155  0.6922  0.1223
14640SOL    HW255980   2.821   6.865   1.390  0.0724  0.4920 -0.8216
14641SOL     OW55981   3.493   3.237   5.024  0.2257  0.1883 -0.5747
14641SOL    HW155982   3.432   3.245   5.104  0.3411 -1.6834 -0.2612
14641SOL    HW255983   3.521   3.141   5.014  0.0527  0.3682 -2.9986
14642SOL     OW55984   6.921   0.352   2.928  0.1646 -0.5112  0.1059
14642SOL    HW155985   6.892   0.261   2.957 -1.4984 -0.1333 -0.3332
14642SOL    HW255986   6.868   0.421   2.978  1.4801  0.2328  0.5073
14643SOL     OW55987   8.356   2.297   0.503  0.0082 -0.5671 -0.1121
14643SOL    HW155988   8.371   2.364   0.430  0.7933 -0.7669 -0.1377
14643SOL    HW255989   8.398   2.210   0.477 -3.0440 -1.8119 -1.1713
14644SOL     OW55990   6.503   0.654   5.688  0.2009  0.2237 -0.1735
14644SOL    HW155991   6.579   0.602   5.650  1.9751  1.0982  2.0248
14644SOL    HW255992   6.520   0.752   5.678  0.2641  0.4565  1.9667
14645SOL     OW55993   6.554   3.289   9.008 -0.3286 -0.7197  0.0533
14645SOL    HW155994   6.561   3.196   9.046 -2.8035 -0.4233  1.3258
14645SOL    HW255995   6.580   3.287   8.912 -0.8741 -2.8723 -0.0880
14646SOL     OW55996   5.739   8.241   7.853 -1.0827 -0.5695  0.2518
14646SOL    HW155997   5.799   8.237   7.933 -1.0224  1.9507  0.3584
14646SOL    HW255998   5.724   8.336   7.827 -4.2000 -1.1874 -0.4146
14647SOL     OW55999   0.767   1.520   8.272  0.8610 -0.1112 -0.7436
14647SOL    HW156000   0.711   1.537   8.190  0.4972  0.1515 -0.4439
14647SOL    HW256001   0.722   1.452   8.329  0.9728 -0.0820 -0.6221
14648SOL     OW56002   6.576   6.688   1.417  0.0477 -0.2029  0.4590
14648SOL    HW156003   6.639   6.668   1.343 -0.5740 -0.5224  0.0067
14648SOL    HW256004   6.596   6.778   1.455  1.4038 -0.7117  0.9890
14649SOL     OW56005   7.493   8.653   6.463  0.1358  0.1905 -0.1431
14649SOL    HW156006   7.577   8.601   6.478 -0.6582 -0.7101  1.2904
14649SOL    HW256007   7.440   8.611   6.389  0.5279  0.2465 -0.4569
14650SOL     OW56008   7.785   7.774   7.605  0.1636  0.0705 -0.7017
14650SOL    HW156009   7.719   7.723   7.549  1.1047  0.2774 -2.0225
14650SOL    HW256010   7.840   7.710   7.657 -2.2455 -0.0478  1.7881
14651SOL     OW56011   2.300   5.587   0.018 -0.2246 -0.6119  0.3169
14651SOL    HW156012   2.225   5.579   0.084 -0.6799 -2.2149 -0.3650
14651SOL    HW256013   2.363   5.658   0.048 -1.1944 -0.3171  1.7182
14652SOL     OW56014   2.489   2.182   1.999 -0.3172 -0.1596  0.8014
14652SOL    HW156015   2.556   2.108   1.996 -0.2910 -0.0992 -0.6587
14652SOL    HW256016   2.469   2.206   2.094  1.0835 -0.7606  1.2579
14653SOL     OW56017   2.548   8.659   6.189  0.1851  0.2544  0.2654
14653SOL    HW156018   2.504   8.725   6.128 -1.2963 -1.3495 -0.4498
14653SOL    HW256019   2.564   8.573   6.140  1.3971 -0.1800  1.3896
14654SOL     OW56020   5.323   6.423   7.522 -0.0076 -0.1171  0.1282
14654SOL    HW156021   5.378   6.361   7.465 -1.7406 -0.9142 -0.6929
14654SOL    HW256022   5.232   6.384   7.535 -0.3519  1.1441  1.5953
14655SOL     OW56023   3.849   1.284   7.308  0.0828  0.0733  0.1282
14655SOL    HW156024   3.948   1.294   7.306  0.0121  1.4693  2.2936
14655SOL    HW256025   3.806   1.374   7.311 -1.2647 -0.5128 -1.0156
14656SOL     OW56026   6.055   8.012   2.869  0.0616  0.2195 -0.2990
14656SOL    HW156027   6.004   8.096   2.890 -1.0119 -0.1759 -1.2580
14656SOL    HW256028   5.994   7.933   2.878  1.1576 -0.5134  0.9550
14657SOL     OW56029   7.327   9.185   9.961 -0.1312 -0.2672 -0.6481
14657SOL    HW156030   7.388   9.205   9.884  0.0505 -2.0797 -1.0108
14657SOL    HW256031   7.262   9.260   9.973  0.5176  0.5147 -1.9076
14658SOL     OW56032   2.363   7.820   7.957 -0.0999 -0.4918  0.1840
14658SOL    HW156033   2.438   7.863   8.008 -1.6405  0.7460  1.4592
14658SOL    HW256034   2.342   7.875   7.876 -0.2828 -0.2940  0.3647
14659SOL     OW56035   1.427   8.694   9.260  0.1596  0.1943 -0.6505
14659SOL    HW156036   1.491   8.618   9.251  0.9082  0.4888  1.8747
14659SOL    HW256037   1.337   8.658   9.285  0.2612  0.0786 -0.4539
14660SOL     OW56038   1.667   7.496   0.776  0.0264  0.0279  0.3796
14660SOL    HW156039   1.766   7.500   0.793 -0.0064  0.3050  0.5142
14660SOL    HW256040   1.635   7.402   0.788  0.1632  0.0523  0.9907
14661SOL     OW56041   3.189   8.663   9.674 -0.0214 -0.2817  0.2559
14661SOL    HW156042   3.199   8.566   9.699  1.1933 -0.5099 -1.0619
14661SOL    HW256043   3.274   8.712   9.694  0.0601  0.0816 -0.9245
14662SOL     OW56044   6.952   7.688   6.114  0.2195 -0.3529  0.1439
14662SOL    HW156045   7.040   7.655   6.146  0.9536 -2.5535 -3.7687
14662SOL    HW256046   6.881   7.620   6.134 -0.0120 -0.0386  0.4088
14663SOL     OW56047   3.343   8.779   6.155  0.3041  0.0511 -0.5978
14663SOL    HW156048   3.308   8.765   6.062 -0.0752 -3.2225  0.0030
14663SOL    HW256049   3.428   8.729   6.167  0.7147  1.0175  0.6345
14664SOL     OW56050   6.269   8.822   8.515  0.2476 -0.3960  0.3918
14664SOL    HW156051   6.198   8.871   8.565 -1.4535  0.0053 -2.2760
14664SOL    HW256052   6.356   8.871   8.521 -0.1076  0.0299  2.2456
14665SOL     OW56053   1.024   5.821   8.674  0.1071  0.5957 -0.3892
14665SOL    HW156054   1.048   5.750   8.740  1.4433  1.0250 -0.3981
14665SOL    HW256055   1.064   5.798   8.585  1.4122  1.8488 -0.1476
14666SOL     OW56056   5.176   4.367   1.976 -0.3599  0.5874  0.4091
14666SOL    HW156057   5.173   4.268   1.988  0.4634  0.4486 -0.4702
14666SOL    HW256058   5.179   4.389   1.878 -1.6152  1.5165  0.5528
14667SOL     OW56059   7.165   5.977   1.497 -0.0538  0.2717  0.4214
14667SOL    HW156060   7.090   6.043   1.492  0.3448  0.7089  0.1879
14667SOL    HW256061   7.239   6.015   1.552  0.6325  0.4710 -0.6262
14668SOL     OW56062   6.124   5.934   0.631 -0.3657  0.3166 -0.0200
14668SOL    HW156063   6.202   5.872   0.637  0.5081  1.2738 -1.1360
14668SOL    HW256064   6.156   6.029   0.638 -1.4454  0.7116 -0.2825
14669SOL     OW56065   4.787   2.331   0.234 -0.1534 -0.0152  0.0455
14669SOL    HW156066   4.728   2.369   0.162 -1.7640 -0.3454  1.1731
14669SOL    HW256067   4.850   2.264   0.193 -2.2547 -1.5284 -0.8193
14670SOL     OW56068   5.471   8.370   5.337 -0.0669 -0.0086 -0.3157
14670SOL    HW156069   5.510   8.286   5.298  0.0025 -0.1349  0.0266
14670SOL    HW256070   5.491   8.374   5.435  1.0167  1.0245 -0.5658
14671SOL     OW56071   5.352   6.183   7.831 -0.8191 -0.2049 -0.1046
14671SOL    HW156072   5.395   6.269   7.805 -0.3926 -0.2899  0.3107
14671SOL    HW256073   5.309   6.194   7.921  1.6522 -1.2348  1.2328
14672SOL     OW56074   8.081   0.166   6.481 -0.6624  0.0301 -0.5816
14672SOL    HW156075   8.073   0.106   6.401  0.7114  0.0809 -0.7708
14672SOL    HW256076   8.149   0.128   6.544  1.6566  2.3573 -1.6064
14673SOL     OW56077   2.709   7.997   6.795 -0.0967 -0.4187  0.1627
14673SOL    HW156078   2.797   8.023   6.754 -0.0838 -0.6170  0.0635
14673SOL    HW256079   2.724   7.968   6.889 -0.4935  2.6962  1.2299
14674SOL     OW56080   1.468   5.041   9.727  0.1933  0.0032 -0.2667
14674SOL    HW156081   1.528   4.961   9.729  1.7965  1.1930  0.8366
14674SOL    HW256082   1.509   5.115   9.781 -2.8100  0.4720  1.4805
14675SOL     OW56083   4.382   2.143   8.172 -0.4527 -0.7003  0.4252
14675SOL    HW156084   4.302   2.108   8.123 -1.2457  1.6413 -0.0463
14675SOL    HW256085   4.355   2.171   8.264  0.3989 -2.2909  1.1796
14676SOL     OW56086   3.587   9.047   9.608 -0.0410  0.3191  0.2509
14676SOL    HW156087   3.659   9.111   9.635  0.7128 -0.5437  0.3016
14676SOL    HW256088   3.585   9.039   9.508 -0.6006  0.9560  0.2120
14677SOL     OW56089   3.782   6.947   4.717 -0.4338 -0.4112 -0.8845
14677SOL    HW156090   3.766   7.038   4.754 -0.9066 -1.2500  1.0719
14677SOL    HW256091   3.860   6.905   4.765 -0.1136 -0.9676 -1.8793
14678SOL     OW56092   9.891   5.430   0.506  0.2044  1.5522 -0.2251
14678SOL    HW156093   9.943   5.477   0.577  0.7232 -0.4468  0.7676
14678SOL    HW256094   9.946   5.356   0.468 -1.8612 -0.5538  0.7844
14679SOL     OW56095   4.765   6.030   8.762 -0.1247 -0.9152  0.0561
14679SOL    HW156096   4.772   6.030   8.862 -0.5700 -0.5946  0.0892
14679SOL    HW256097   4.672   6.055   8.735 -0.0513 -1.1645 -0.4370
14680SOL     OW56098   9.674   7.350   2.686 -0.2460  0.2492 -0.2334
14680SOL    HW156099   9.677   7.251   2.704 -3.0625  0.1902  0.1583
14680SOL    HW256100   9.728   7.371   2.605  1.1484 -1.4812  0.2209
14681SOL     OW56101   2.387   4.568   9.244 -0.3107 -0.0494  0.0215
14681SOL    HW156102   2.482   4.556   9.213 -0.3208  0.0760 -0.0583
14681SOL    HW256103   2.370   4.506   9.321 -0.5193 -0.9276 -0.7186
14682SOL     OW56104   1.603   6.758   8.993 -0.2829  0.4051  0.2011
14682SOL    HW156105   1.572   6.764   8.898 -0.0134 -0.7141  0.0348
14682SOL    HW256106   1.524   6.770   9.054 -0.3536  1.8101 -0.1351
14683SOL     OW56107   3.822   0.358   5.643 -0.0553 -0.6913 -0.2740
14683SOL    HW156108   3.887   0.400   5.706 -1.0417  0.6736 -0.1364
14683SOL    HW256109   3.753   0.307   5.696  0.5100 -1.5793 -0.3839
14684SOL     OW56110   3.998   4.510   8.025 -0.2226 -0.1176 -0.1146
14684SOL    HW156111   4.003   4.410   8.027 -0.0519 -0.1649 -2.0062
14684SOL    HW256112   4.078   4.548   8.069 -0.2704 -0.8143  0.5844
14685SOL     OW56113   1.191   6.930   9.968  0.1257 -0.2865 -0.4905
14685SOL    HW156114   1.161   6.844   9.928 -0.8551 -1.0565  1.8002
14685SOL    HW256115   1.127   7.003   9.944  0.9024 -0.1875 -2.3471
14686SOL     OW56116   2.915   5.584   1.975 -0.0007  0.2652 -0.1620
14686SOL    HW156117   2.914   5.486   1.956 -0.2565  0.0937  0.7097
14686SOL    HW256118   2.851   5.604   2.049 -0.2297  1.1445 -0.5834
14687SOL     OW56119   4.372   5.365   5.366  0.0992 -0.3817  0.0750
14687SOL    HW156120   4.307   5.433   5.401  0.8725  0.6131 -0.3742
14687SOL    HW256121   4.462   5.383   5.406  1.3705  1.7532 -3.5512
14688SOL     OW56122   9.066   7.865   5.898  0.4979 -0.6220 -0.5467
14688SOL    HW156123   9.060   7.777   5.944  0.5725  0.2035  1.0894
14688SOL    HW256124   9.160   7.881   5.869  0.6874 -0.6781  0.0170
14689SOL     OW56125   3.505   1.730   9.219  0.1299  0.4982 -0.1025
14689SOL    HW156126   3.414   1.749   9.181 -0.7914 -2.9246  0.2965
14689SOL    HW256127   3.573   1.734   9.146 -0.9500 -1.2392 -1.2191
14690SOL     OW56128   0.952   6.414   9.421 -0.3606 -0.5280 -0.0834
14690SOL    HW156129   0.988   6.488   9.478 -0.5058 -0.2436 -0.3592
14690SOL    HW256130   0.911   6.344   9.480 -1.3664  0.2119  0.1311
14691SOL     OW56131   5.367   5.039   8.323  0.3179  0.1671 -0.0318
14691SOL    HW156132   5.426   5.064   8.246 -0.3423  1.2982 -0.1725
14691SOL    HW256133   5.338   4.944   8.313  0.2113  0.3160 -1.2052
14692SOL     OW56134   7.869   4.503   2.818 -0.4839  0.2739  0.0752
14692SOL    HW156135   7.940   4.574   2.817 -0.1152 -0.0918  0.0316
14692SOL    HW256136   7.874   4.452   2.904  0.9038 -1.3379 -0.9132
14693SOL     OW56137   3.278   8.728   6.880 -0.1481 -0.6861 -0.9234
14693SOL    HW156138   3.359   8.782   6.903 -0.9379  0.0286  0.2401
14693SOL    HW256139   3.200   8.761   6.933 -0.8247 -2.4713 -0.7600
14694SOL     OW56140   2.027   4.696   9.071  0.2955 -0.5251  0.1490
14694SOL    HW156141   2.107   4.647   9.036  0.1029 -1.5993  1.1621
14694SOL    HW256142   2.055   4.755   9.147  0.5445  1.0360 -1.1379
14695SOL     OW56143   8.082   5.933   5.870 -0.2226  0.0444  0.4167
14695SOL    HW156144   8.142   5.877   5.926 -0.8999 -3.1549 -1.9196
14695SOL    HW256145   8.113   5.932   5.775 -2.3930  0.5737 -0.3443
14696SOL     OW56146   8.857   4.112   5.523  0.1535 -0.2103  0.1116
14696SOL    HW156147   8.766   4.151   5.507 -0.5481 -1.6718  0.3955
14696SOL    HW256148   8.852   4.013   5.510  1.5153 -0.4006  1.0152
14697SOL     OW56149   7.607   3.532   9.209  0.5179  0.0637 -0.1341
14697SOL    HW156150   7.690   3.552   9.260  0.2367  0.5988  0.1214
14697SOL    HW256151   7.582   3.612   9.154 -0.6102  0.4254  0.8885
14698SOL     OW56152   8.089   0.916   0.206 -0.1521  0.5923 -0.1733
14698SOL    HW156153   8.136   0.842   0.253  0.9918  0.5183 -1.4155
14698SOL    HW256154   8.027   0.962   0.270  0.9578  0.1434  1.2447
14699SOL     OW56155   3.740   5.932   2.960  0.3067  0.2467  0.6379
14699SOL    HW156156   3.772   5.911   3.053  0.3475 -1.0291  0.3389
14699SOL    HW256157   3.736   6.031   2.949 -0.0701  0.4213  2.1332
14700SOL     OW56158   1.485   8.021   3.514  0.8875  0.0492 -0.0333
14700SOL    HW156159   1.527   8.014   3.605  1.0734  2.4235  0.1000
14700SOL    HW256160   1.539   8.084   3.457 -0.5895  0.4705 -0.9901
14701SOL     OW56161   5.071   8.112   4.189 -0.0807 -0.1969 -0.1203
14701SOL    HW156162   5.063   8.161   4.276  0.9089 -1.4011  0.6708
14701SOL    HW256163   5.151   8.146   4.139 -0.6565  0.5041 -0.5696
14702SOL     OW56164   4.766   8.469   3.579 -0.3325  0.2148  0.0130
14702SOL    HW156165   4.862   8.496   3.583 -0.5023  1.1649 -1.6696
14702SOL    HW256166   4.709   8.541   3.619 -0.5036  0.7024 -1.0854
14703SOL     OW56167   9.847   4.283   5.269  0.0414  0.1783  0.0381
14703SOL    HW156168   9.840   4.348   5.194 -0.1858 -0.0117 -0.1076
14703SOL    HW256169   9.756   4.258   5.300  0.1470  0.7892  0.8466
14704SOL     OW56170   7.042   5.420   2.315  0.6857  0.0198 -0.1859
14704SOL    HW156171   7.068   5.359   2.240 -1.9762  0.3234 -1.4190
14704SOL    HW256172   6.989   5.497   2.278 -0.4485  0.3065  1.9727
14705SOL     OW56173   2.047   5.830   7.981  0.1728 -0.1900  0.0079
14705SOL    HW156174   2.100   5.841   8.065 -1.1435  0.3729  0.7765
14705SOL    HW256175   2.080   5.750   7.931  0.6167 -0.8443  1.3281
14706SOL     OW56176   0.797   6.236   6.581  0.4087 -0.4085  0.0461
14706SOL    HW156177   0.826   6.330   6.598  2.6824 -1.0932  0.2165
14706SOL    HW256178   0.698   6.228   6.593  0.4853  1.4650  2.3009
14707SOL     OW56179   8.326   7.551   4.251 -0.0629 -0.2539 -0.1398
14707SOL    HW156180   8.301   7.556   4.154  1.6174 -0.3425 -0.5916
14707SOL    HW256181   8.333   7.455   4.278  2.1334 -0.2649 -0.6598
14708SOL     OW56182   2.169   7.769   7.601  0.1618  0.1820  0.0443
14708SOL    HW156183   2.095   7.809   7.656 -1.0441  1.6287 -2.5042
14708SOL    HW256184   2.139   7.680   7.565  0.7111 -0.4806  1.2276
14709SOL     OW56185   6.299   5.123   4.862  0.0346  0.6253 -0.2052
14709SOL    HW156186   6.304   5.088   4.956 -1.6852 -1.2047 -0.7535
14709SOL    HW256187   6.275   5.220   4.864  0.0051  0.6031  1.2679
14710SOL     OW56188   5.774   1.299   8.285 -0.0712  0.1196 -0.1828
14710SOL    HW156189   5.772   1.376   8.222  2.7807 -0.0136 -0.5295
14710SOL    HW256190   5.745   1.330   8.376 -0.2827  1.2775 -0.6366
14711SOL     OW56191   2.023   1.252   5.591  0.1472  0.1724  0.0936
14711SOL    HW156192   2.043   1.324   5.525  1.0670  1.0535  1.3046
14711SOL    HW256193   2.099   1.186   5.591 -0.3664 -0.4222 -0.5126
14712SOL     OW56194   3.487   0.716   9.997  0.1913 -0.0686 -0.0596
14712SOL    HW156195   3.507   0.814   9.986  1.4534 -0.3311 -0.1654
14712SOL    HW256196   3.562   0.662   9.959 -0.1441 -1.0741  0.6837
14713SOL     OW56197   1.372   8.614   0.362 -0.2548  0.7265 -0.0798
14713SOL    HW156198   1.460   8.583   0.397  0.8868  2.8038 -0.9837
14713SOL    HW256199   1.367   8.714   0.368 -2.2213  0.6995 -0.7960
14714SOL     OW56200   8.846   0.500   9.168 -0.2492  0.2148  0.7746
14714SOL    HW156201   8.865   0.520   9.264  1.3735 -0.9429  0.7232
14714SOL    HW256202   8.831   0.402   9.157  2.5850 -0.1138 -0.5822
14715SOL     OW56203   3.532   6.500   8.423 -0.2755 -0.0509  0.2281
14715SOL    HW156204   3.605   6.565   8.443  3.0517 -2.9959 -1.5622
14715SOL    HW256205   3.490   6.522   8.335  0.9307 -0.3806 -0.4365
14716SOL     OW56206   2.749   7.260   5.484 -0.0304  0.3373 -0.1448
14716SOL    HW156207   2.830   7.254   5.424  0.0043  1.5829 -0.2503
14716SOL    HW256208   2.762   7.336   5.548 -1.0615  0.4538 -0.0784
14717SOL     OW56209   3.242   8.325   9.559 -0.1816 -0.2119  0.0953
14717SOL    HW156210   3.206   8.236   9.586 -0.6290 -0.1653 -0.3436
14717SOL    HW256211   3.185   8.364   9.486  1.6484 -0.8385 -1.7184
14718SOL     OW56212   6.580   1.844   1.977 -0.0563 -1.0784  0.4144
14718SOL    HW156213   6.507   1.854   1.910  0.5381 -2.5270 -0.4592
14718SOL    HW256214   6.541   1.831   2.068 -0.8634  0.1194  0.2587
14719SOL     OW56215   9.280   7.664   6.480 -0.0430  0.3089 -0.5407
14719SOL    HW156216   9.297   7.657   6.579  3.4316  0.3269 -1.0833
14719SOL    HW256217   9.279   7.761   6.454 -1.1685  0.3117 -0.5081
14720SOL     OW56218   3.456   5.210   1.340 -0.6079 -0.3435 -0.0329
14720SOL    HW156219   3.421   5.117   1.354  1.3334 -0.9866  0.6523
14720SOL    HW256220   3.427   5.268   1.416 -1.2468 -0.5516 -0.1116
14721SOL     OW56221   4.189   4.242   0.580 -0.2810  0.3765 -0.5163
14721SOL    HW156222   4.193   4.339   0.554  1.2859  0.3230 -0.4967
14721SOL    HW256223   4.228   4.186   0.507 -0.5819 -0.1904 -0.2437
14722SOL     OW56224   4.354   8.079   4.712  0.4606  0.2227  0.2360
14722SOL    HW156225   4.418   8.111   4.642 -0.7925  1.9593 -0.1501
14722SOL    HW256226   4.334   7.982   4.697  1.2850  0.2359 -0.9721
14723SOL     OW56227   4.998   1.647   9.113  0.0764  0.5397 -0.7372
14723SOL    HW156228   4.946   1.563   9.128 -0.4414  0.9043 -0.5015
14723SOL    HW256229   5.086   1.624   9.069  0.0559 -0.1486 -0.4275
14724SOL     OW56230   6.145   8.532   1.833 -0.1593  0.4902 -0.0216
14724SOL    HW156231   6.073   8.507   1.897 -0.5564  1.0022 -0.2676
14724SOL    HW256232   6.223   8.569   1.884  0.7451 -1.9053  0.4185
14725SOL     OW56233   6.792   5.852   7.542 -0.3402 -0.6631 -0.2248
14725SOL    HW156234   6.734   5.868   7.462  1.7663 -0.6432 -1.8082
14725SOL    HW256235   6.854   5.930   7.553  2.5322 -2.7024 -1.3908
14726SOL     OW56236   0.457   2.854   0.677 -0.4109 -0.3231 -0.3970
14726SOL    HW156237   0.404   2.921   0.729  1.2024  0.6504  0.0355
14726SOL    HW256238   0.464   2.769   0.729 -1.2446 -0.3405 -0.3069
14727SOL     OW56239   6.959   5.150   5.530 -0.4042 -0.5586 -0.5397
14727SOL    HW156240   6.959   5.091   5.611 -0.9274 -0.4238 -0.4356
14727SOL    HW256241   6.892   5.116   5.464 -1.3177  0.3785 -0.1210
14728SOL     OW56242   4.248   5.536   8.720 -0.6270  0.1371  0.1445
14728SOL    HW156243   4.314   5.546   8.646  0.6899  1.7522  1.4919
14728SOL    HW256244   4.225   5.439   8.732 -0.0593 -0.2344 -1.6590
14729SOL     OW56245   3.297   8.494   1.033 -0.5904  0.2990 -0.0020
14729SOL    HW156246   3.250   8.542   0.960  0.5418  1.9010  0.2805
14729SOL    HW256247   3.242   8.498   1.117 -1.0306  0.0926 -0.2804
14730SOL     OW56248   0.318   1.097   9.093  0.4436  0.4134  1.2579
14730SOL    HW156249   0.222   1.123   9.100  0.4502  0.4056  1.3967
14730SOL    HW256250   0.353   1.077   9.185  0.9229  1.6483  1.3466
14731SOL     OW56251   2.772   5.865   3.436 -0.2095 -0.4189 -0.5364
14731SOL    HW156252   2.676   5.849   3.457 -0.6132  0.5118 -1.6118
14731SOL    HW256253   2.780   5.909   3.346  1.1315  0.8777  0.1940
14732SOL     OW56254   3.256   5.865   2.218  0.2927  0.5886  0.1324
14732SOL    HW156255   3.212   5.831   2.136 -0.1010  0.0507  0.5658
14732SOL    HW256256   3.208   5.832   2.299  1.8654 -0.5522  0.6298
14733SOL     OW56257   1.869   8.920   1.417  0.0735 -0.0998 -0.2331
14733SOL    HW156258   1.808   8.866   1.358  0.2195 -1.1975  0.6121
14733SOL    HW256259   1.963   8.891   1.403  0.0729 -0.5991  0.7923
14734SOL     OW56260   3.180   7.943   8.559  0.3255 -0.3009  0.1017
14734SOL    HW156261   3.190   8.024   8.617 -2.1415  0.0156  0.1566
14734SOL    HW256262   3.180   7.861   8.616 -0.8047 -0.0716  0.4624
14735SOL     OW56263   4.261   5.079   6.175 -0.4403 -0.6053  0.6516
14735SOL    HW156264   4.244   5.174   6.199  0.5705 -0.2195 -0.1590
14735SOL    HW256265   4.175   5.035   6.149 -0.7807  0.3065  0.2348
14736SOL     OW56266   2.811   0.156   8.004  0.2421  0.8923 -0.3035
14736SOL    HW156267   2.902   0.188   8.032 -0.3683  1.5169  1.0199
14736SOL    HW256268   2.742   0.217   8.042 -0.7531  0.2996 -1.1412
14737SOL     OW56269   7.127   2.740   5.484  0.2729  0.5502 -0.0080
14737SOL    HW156270   7.070   2.815   5.516  1.3341  0.8346  1.2889
14737SOL    HW256271   7.162   2.761   5.392 -1.3318  0.5593 -0.6239
14738SOL     OW56272   1.290   3.378   4.721  0.4497 -0.3293 -0.4377
14738SOL    HW156273   1.374   3.363   4.670  0.4759  0.4818 -0.6427
14738SOL    HW256274   1.309   3.369   4.819  0.5185 -1.3197 -0.5403
14739SOL     OW56275   6.666   2.557   3.290  0.7111  0.6733  0.1158
14739SOL    HW156276   6.740   2.621   3.274  1.5800 -0.2921  0.2476
14739SOL    HW256277   6.702   2.472   3.328 -0.5054  0.3382  0.5536
14740SOL     OW56278   6.836   4.240   1.722  0.2744 -0.4261  0.1554
14740SOL    HW156279   6.821   4.143   1.708  0.9454 -0.7257  1.3697
14740SOL    HW256280   6.819   4.263   1.818 -0.3450  0.7479 -0.2213
14741SOL     OW56281   3.554   2.654   5.962 -0.7199 -0.6818  0.1346
14741SOL    HW156282   3.499   2.726   5.919 -1.3696 -0.9058  0.5714
14741SOL    HW256283   3.540   2.657   6.061  1.4739  0.4197  0.4332
14742SOL     OW56284   3.793   8.766   4.594  0.1631 -0.4079  0.0787
14742SOL    HW156285   3.813   8.706   4.517  0.7547  1.1363 -0.9966
14742SOL    HW256286   3.730   8.838   4.565 -0.3492 -0.3495  1.2839
14743SOL     OW56287   6.313   9.332   5.872 -0.4168 -0.0117  0.0543
14743SOL    HW156288   6.310   9.360   5.968 -1.7246 -0.8452  0.2595
14743SOL    HW256289   6.321   9.414   5.814  1.7138  0.4267  0.9029
14744SOL     OW56290   5.764   0.281   0.317  0.2882  0.5021  0.9278
14744SOL    HW156291   5.707   0.232   0.382  2.0222  1.1269  2.9972
14744SOL    HW256292   5.729   0.375   0.306 -0.5668  0.1067  0.1895
14745SOL     OW56293   3.664   8.804   5.632  0.2878  0.1953  0.1716
14745SOL    HW156294   3.754   8.794   5.675 -0.8259 -0.9008  2.3105
14745SOL    HW256295   3.652   8.733   5.563  2.1817  2.1055 -2.2362
14746SOL     OW56296   9.595   4.296   8.103  0.1067  0.4721 -0.5532
14746SOL    HW156297   9.679   4.350   8.109 -0.1986  0.7381  1.4969
14746SOL    HW256298   9.617   4.203   8.073  0.9373  0.9557 -1.4881
14747SOL     OW56299   3.254   1.874   3.592 -0.0442 -0.1535 -0.7531
14747SOL    HW156300   3.336   1.819   3.606  1.3924  2.0897 -0.1369
14747SOL    HW256301   3.216   1.856   3.501  0.6194 -1.8532 -0.6990
14748SOL     OW56302   4.115   5.445   0.230  0.4461 -0.3669  0.9036
14748SOL    HW156303   4.091   5.372   0.166  0.3441 -0.8712  1.5201
14748SOL    HW256304   4.083   5.533   0.194 -1.7429 -0.9435  1.3911
14749SOL     OW56305   3.343   8.409   7.632  0.4692  0.1647 -0.3809
14749SOL    HW156306   3.315   8.317   7.658  1.9013 -0.1054  0.2496
14749SOL    HW256307   3.372   8.460   7.713 -0.0252  1.0732 -0.7601
14750SOL     OW56308   5.572   4.383   2.870  0.0122  0.4240 -0.5512
14750SOL    HW156309   5.625   4.305   2.835 -0.3489 -0.5988  1.0734
14750SOL    HW256310   5.608   4.468   2.833  1.0338 -0.4594 -1.6189
14751SOL     OW56311   3.117   2.079   5.499  0.0751  0.5178  0.2629
14751SOL    HW156312   3.193   2.025   5.536  0.3365  0.4739 -0.3288
14751SOL    HW256313   3.090   2.041   5.410  0.0213  1.1413  0.0110
14752SOL     OW56314   3.157   7.672   7.913  0.0293  0.0259 -0.2088
14752SOL    HW156315   3.220   7.617   7.967  0.9568  1.4058  0.1482
14752SOL    HW256316   3.109   7.736   7.973 -0.0352  0.5481 -0.8139
14753SOL     OW56317   4.640   8.453   7.586 -0.4708  0.0816  0.2030
14753SOL    HW156318   4.598   8.363   7.597  0.7436 -0.5698 -0.3692
14753SOL    HW256319   4.739   8.445   7.597 -0.2475  1.1568 -0.9395
14754SOL     OW56320   7.501   6.854   8.390 -0.7030 -0.6316  0.4224
14754SOL    HW156321   7.498   6.897   8.299 -0.3171 -0.3575  0.5390
14754SOL    HW256322   7.590   6.810   8.403 -1.0351 -1.3324  0.3694
14755SOL     OW56323   0.273   2.900   8.623  0.2420  0.2394 -0.0229
14755SOL    HW156324   0.176   2.904   8.650  0.2488  0.8979 -0.1027
14755SOL    HW256325   0.281   2.928   8.528  0.3139 -1.3491 -0.5044
14756SOL     OW56326   6.949   7.025   5.252 -0.1455  0.0690  0.6318
14756SOL    HW156327   7.005   7.084   5.193 -0.6311 -1.9111 -1.8775
14756SOL    HW256328   6.939   7.069   5.341  1.3645  2.7339 -0.4204
14757SOL     OW56329   7.327   6.861   4.834  0.0822 -0.1644 -0.5085
14757SOL    HW156330   7.323   6.947   4.885 -2.0506 -1.0886  0.9654
14757SOL    HW256331   7.295   6.876   4.741 -1.3091  0.4588  0.0549
14758SOL     OW56332   4.663   5.553   7.678 -0.1923  0.0750 -0.5851
14758SOL    HW156333   4.700   5.470   7.635  0.0462  0.6153 -1.4367
14758SOL    HW256334   4.581   5.583   7.628 -0.5158  0.1264 -0.0324
14759SOL     OW56335   4.584   0.442   7.460  0.6698  0.3897 -0.2904
14759SOL    HW156336   4.644   0.365   7.443 -1.9564 -1.7501 -0.1867
14759SOL    HW256337   4.523   0.456   7.382 -1.9115 -0.5547  1.4807
14760SOL     OW56338   1.053   4.762   7.706  0.0357  0.0865  0.3684
14760SOL    HW156339   0.957   4.790   7.706 -0.2071 -0.6469 -1.1535
14760SOL    HW256340   1.104   4.820   7.643  0.1976 -0.7371 -0.2671
14761SOL     OW56341   1.707   4.196   0.498  0.0844 -0.2059 -0.2437
14761SOL    HW156342   1.625   4.251   0.516  0.8510  0.0338  2.7912
14761SOL    HW256343   1.696   4.148   0.411 -3.2891 -0.2144  0.1215
14762SOL     OW56344   3.793   1.972   6.540 -0.1715 -0.8539 -0.1554
14762SOL    HW156345   3.848   1.953   6.459  1.2809 -2.1528  1.0970
14762SOL    HW256346   3.751   1.886   6.571 -1.9302 -0.0937 -0.3898
14763SOL     OW56347   3.294   2.111   0.835 -0.1442 -0.3915  0.1943
14763SOL    HW156348   3.244   2.186   0.791 -1.0040 -1.0163  0.1050
14763SOL    HW256349   3.359   2.150   0.902 -0.8536  0.4160  0.4295
14764SOL     OW56350   1.992   5.310   9.299  0.0087  0.4184 -0.3129
14764SOL    HW156351   1.938   5.301   9.383  0.8813  2.0460  0.4484
14764SOL    HW256352   1.934   5.347   9.226 -0.5009 -0.0390 -0.1365
14765SOL     OW56353   2.469   4.257   7.386 -0.5461  0.3112 -0.5154
14765SOL    HW156354   2.452   4.160   7.404 -1.0396  0.1585 -1.7378
14765SOL    HW256355   2.503   4.268   7.293 -1.6732  1.4258 -0.8139
14766SOL     OW56356   4.954   2.045   1.490  0.0585  0.1074  0.8365
14766SOL    HW156357   4.899   2.096   1.556 -1.5275 -1.4820  0.7714
14766SOL    HW256358   4.996   1.967   1.536  0.8700  0.3280  0.4814
14767SOL     OW56359   3.235   5.092   1.139  0.0797 -0.2755  0.1419
14767SOL    HW156360   3.264   4.996   1.133 -0.4039 -0.4673  0.8367
14767SOL    HW256361   3.226   5.130   1.046  2.5696 -0.1918 -0.0886
14768SOL     OW56362   5.812   6.843   2.797 -0.0131 -0.6627 -0.2376
14768SOL    HW156363   5.790   6.803   2.708  1.3623 -0.4990 -0.6587
14768SOL    HW256364   5.833   6.770   2.862 -1.5390 -0.8084  0.1045
14769SOL     OW56365   0.952   7.550   8.351  0.5193  0.0184  0.1566
14769SOL    HW156366   0.983   7.457   8.332  0.7886  0.0826  0.2731
14769SOL    HW256367   0.984   7.611   8.278 -0.7259 -0.1990 -0.5716
14770SOL     OW56368   6.927   5.341   7.513  0.1163  0.2559  0.0166
14770SOL    HW156369   6.974   5.390   7.440  0.3682  0.3380  0.2324
14770SOL    HW256370   6.860   5.401   7.556 -0.6022 -0.0408 -0.6763
14771SOL     OW56371   3.988   2.266   8.001 -0.0700  0.3881  0.0075
14771SOL    HW156372   3.944   2.249   8.089 -2.3225  1.3787 -0.8605
14771SOL    HW256373   4.002   2.364   7.990  1.9610  0.1191  0.0430
14772SOL     OW56374   3.168   2.314   1.101  0.5429  0.0998  0.9367
14772SOL    HW156375   3.124   2.373   1.033  2.3286  0.2261 -0.1462
14772SOL    HW256376   3.266   2.310   1.082  0.7046 -1.7772  2.1063
14773SOL     OW56377   2.873   8.458   3.308  0.5201 -0.8246 -1.1278
14773SOL    HW156378   2.862   8.378   3.249 -0.2825 -0.4572 -1.4689
14773SOL    HW256379   2.954   8.509   3.279 -0.3660 -0.1583 -2.4821
14774SOL     OW56380   5.863   4.940   7.265  0.1820  0.1015  0.2797
14774SOL    HW156381   5.824   5.003   7.198 -0.4283 -0.3458  0.2061
14774SOL    HW256382   5.861   4.984   7.355 -3.1130 -0.9328  0.7828
14775SOL     OW56383   3.644   7.231   8.828 -1.0287  0.6639  0.5523
14775SOL    HW156384   3.647   7.132   8.817 -1.2996  0.9139 -2.1065
14775SOL    HW256385   3.554   7.266   8.802 -0.7571  1.6579  0.8918
14776SOL     OW56386   0.254   1.873   9.435  0.3189  0.2516  0.6537
14776SOL    HW156387   0.180   1.913   9.381  0.6167  2.7011  1.9871
14776SOL    HW256388   0.216   1.817   9.509 -0.2723  2.0054  1.7143
14777SOL     OW56389   2.226   5.152   9.536 -0.2246 -0.4792 -0.2393
14777SOL    HW156390   2.311   5.205   9.533  0.1667 -1.1787 -1.9926
14777SOL    HW256391   2.236   5.077   9.601  0.5732 -0.6722 -0.5800
14778SOL     OW56392   8.431   4.066   4.915 -0.1809  0.2451 -0.4033
14778SOL    HW156393   8.357   4.031   4.857 -0.1777  1.3774 -1.1074
14778SOL    HW256394   8.481   3.989   4.956 -1.0827 -0.5416 -0.7560
14779SOL     OW56395   4.497   7.978   2.089 -0.2365 -0.6539  0.0679
14779SOL    HW156396   4.510   8.077   2.076  0.7328 -0.5906  1.4458
14779SOL    HW256397   4.442   7.962   2.170 -1.1189 -1.2437 -0.6319
14780SOL     OW56398   1.708   7.594   4.329  0.3863  0.4194  0.4813
14780SOL    HW156399   1.773   7.597   4.405 -1.7823 -1.0812  2.4424
14780SOL    HW256400   1.618   7.624   4.361 -1.2681 -3.0687 -0.6933
14781SOL     OW56401   9.837   0.301   8.980 -0.3038  0.0170  0.1581
14781SOL    HW156402   9.844   0.333   9.074 -0.6150  0.3696  0.0569
14781SOL    HW256403   9.773   0.224   8.976  0.4085 -0.5992  0.3918
14782SOL     OW56404   3.503   5.703   8.895 -0.3690 -0.0899  0.0848
14782SOL    HW156405   3.492   5.803   8.892 -1.0947 -0.0946  1.8936
14782SOL    HW256406   3.586   5.680   8.944 -0.2740 -0.3885 -0.2131
14783SOL     OW56407   2.274   8.665   3.252 -0.3969 -0.6259 -0.0591
14783SOL    HW156408   2.355   8.637   3.201  0.5648 -0.1556  1.1972
14783SOL    HW256409   2.288   8.756   3.290 -2.0300  0.0042 -0.9228
14784SOL     OW56410   6.336   4.834   7.964  0.6341  0.0266 -0.3020
14784SOL    HW156411   6.356   4.749   7.913  2.9085 -0.3606  1.1651
14784SOL    HW256412   6.298   4.811   8.053  1.1527  0.5670  0.0574
14785SOL     OW56413   5.611   5.600   5.797  0.6353  0.1004  0.3999
14785SOL    HW156414   5.584   5.554   5.881  0.2835  1.8463  1.2782
14785SOL    HW256415   5.644   5.692   5.819  1.1065  0.3628 -1.3154
14786SOL     OW56416   2.573   6.282   0.874  0.0667  0.1341 -0.1247
14786SOL    HW156417   2.581   6.293   0.973 -0.5581 -0.5944  0.0131
14786SOL    HW256418   2.653   6.235   0.838  0.2610  0.3390  0.0374
14787SOL     OW56419   5.745   5.665   3.589  0.6019 -0.2058 -0.0861
14787SOL    HW156420   5.831   5.653   3.639 -0.3214 -0.1103  1.5595
14787SOL    HW256421   5.723   5.580   3.540  1.1689 -0.5368  0.2268
14788SOL     OW56422   3.385   0.507   9.849 -0.9020 -0.2634 -0.0606
14788SOL    HW156423   3.288   0.524   9.829 -0.4276  1.4446 -0.9958
14788SOL    HW256424   3.417   0.573   9.916  0.0792  0.3660 -1.1367
14789SOL     OW56425   6.150   6.513   7.631  0.0100 -0.0592  0.6185
14789SOL    HW156426   6.230   6.456   7.653  0.6867 -0.2978 -2.3104
14789SOL    HW256427   6.067   6.460   7.648  0.5812 -1.1938 -0.0279
14790SOL     OW56428   4.916   4.003   9.024 -0.5813 -0.2624  0.0768
14790SOL    HW156429   4.836   3.987   8.965 -1.0425 -1.1505  0.9243
14790SOL    HW256430   4.998   4.009   8.968 -1.0427 -0.9191 -0.6745
14791SOL     OW56431   6.438   6.798   3.317  0.4809 -0.1942 -0.1100
14791SOL    HW156432   6.348   6.836   3.292  0.3308 -0.7459 -0.4112
14791SOL    HW256433   6.504   6.821   3.246  0.6543  0.5023  0.2770
14792SOL     OW56434   9.451   0.719   2.573  0.3614  0.6080 -0.2240
14792SOL    HW156435   9.505   0.778   2.513  1.7620 -0.0235  0.3962
14792SOL    HW256436   9.472   0.623   2.553 -0.0644  0.3691  0.4509
14793SOL     OW56437   9.146   8.785   6.353 -0.1092  0.0183 -0.1197
14793SOL    HW156438   9.115   8.877   6.377 -2.3248 -0.7917  0.2861
14793SOL    HW256439   9.133   8.725   6.432  0.0139 -0.9406 -0.8212
14794SOL     OW56440   2.770   0.974   8.890 -0.1067  0.3890 -0.4671
14794SOL    HW156441   2.870   0.974   8.890 -0.0764 -0.9905  0.9111
14794SOL    HW256442   2.738   0.927   8.972 -1.8839 -0.2985 -1.5432
14795SOL     OW56443   0.325   2.384   7.638 -0.1400  0.4289  0.2203
14795SOL    HW156444   0.407   2.339   7.673 -0.6768 -1.2809 -0.6855
14795SOL    HW256445   0.249   2.320   7.640 -1.1786  1.6459 -0.0692
14796SOL     OW56446   3.909   0.961   0.764  0.2734 -0.3197 -0.3098
14796SOL    HW156447   3.815   0.944   0.793 -0.2764  0.7131 -1.4421
14796SOL    HW256448   3.961   0.876   0.769 -1.5674 -1.6578 -2.7955
14797SOL     OW56449   3.245   7.313   0.115  0.4876 -0.4736  0.3619
14797SOL    HW156450   3.270   7.287   0.021 -0.1334 -1.7612  0.5492
14797SOL    HW256451   3.312   7.275   0.179  0.9310  0.4366  0.4481
14798SOL     OW56452   7.333   6.740   1.974  0.3439 -0.0461  0.0990
14798SOL    HW156453   7.295   6.648   1.973  2.3154 -0.8898  0.1219
14798SOL    HW256454   7.356   6.768   1.880 -1.0039  0.7582 -0.0040
14799SOL     OW56455   9.428   6.606   8.651 -0.5107 -0.4713 -0.1731
14799SOL    HW156456   9.483   6.588   8.732  0.2051  0.0755 -0.5312
14799SOL    HW256457   9.341   6.647   8.678 -0.5198 -0.8396  0.3593
14800SOL     OW56458   6.307   6.276   7.311 -0.1835 -0.0906  0.6233
14800SOL    HW156459   6.210   6.280   7.335 -0.1539 -1.5699  1.0192
14800SOL    HW256460   6.324   6.329   7.228 -1.3836 -0.1432  0.3466
14801SOL     OW56461   3.927   6.194   5.699 -0.1952 -0.3078  0.3466
14801SOL    HW156462   3.878   6.274   5.664  1.6716  0.5741 -0.2965
14801SOL    HW256463   3.939   6.203   5.798  1.1752  0.8594  0.0806
14802SOL     OW56464   6.527   1.840   8.728 -0.7473  0.1202 -0.0462
14802SOL    HW156465   6.622   1.820   8.703 -0.0128  0.6046  2.2454
14802SOL    HW256466   6.482   1.757   8.759 -1.1374 -0.1338 -1.2453
14803SOL     OW56467   5.280   9.674   9.325  0.2127  0.0735 -0.1567
14803SOL    HW156468   5.355   9.611   9.346 -0.5161 -0.4291  0.9751
14803SOL    HW256469   5.238   9.705   9.410 -2.0086 -1.0356 -0.8147
14804SOL     OW56470   4.560   4.200   7.642 -0.1855 -0.5434  0.2376
14804SOL    HW156471   4.489   4.155   7.697 -1.2199 -0.0264 -0.6710
14804SOL    HW256472   4.598   4.277   7.692  1.0422 -1.9073  1.4852
14805SOL     OW56473   9.573   8.618   9.250  0.0246 -0.1401 -0.8243
14805SOL    HW156474   9.484   8.573   9.238  0.0757 -0.4771  0.0579
14805SOL    HW256475   9.642   8.550   9.274  0.5441  0.1144 -1.5764
14806SOL     OW56476   2.267   7.828   1.762  0.5205  0.1743 -0.4005
14806SOL    HW156477   2.338   7.775   1.808  0.8998  0.5089 -0.6039
14806SOL    HW256478   2.267   7.806   1.664  0.5361  0.3942 -0.4494
14807SOL     OW56479   3.728   9.558   5.791 -0.1416  0.5856  0.2727
14807SOL    HW156480   3.805   9.507   5.829 -0.2230 -1.2801 -1.9787
14807SOL    HW256481   3.751   9.656   5.787  2.3164 -0.0223 -0.8633
14808SOL     OW56482   4.453   8.940   8.476  0.1709  0.3959  0.0823
14808SOL    HW156483   4.462   8.950   8.376 -0.4172 -0.7771 -0.0901
14808SOL    HW256484   4.536   8.898   8.512  1.2232  2.6326  0.3662
14809SOL     OW56485   3.249   4.494   9.570  0.4255  0.5273 -0.4998
14809SOL    HW156486   3.149   4.494   9.571  0.4219  0.0044  0.9890
14809SOL    HW256487   3.282   4.580   9.608  0.4954 -1.0368  3.2181
14810SOL     OW56488   3.725   9.527   7.432  0.1774  0.0926 -0.0961
14810SOL    HW156489   3.708   9.446   7.489 -1.6154  1.7765  1.8454
14810SOL    HW256490   3.650   9.592   7.443  1.1795  1.6973 -2.2709
14811SOL     OW56491   4.441   5.758   8.655  0.4491  0.9450  0.1557
14811SOL    HW156492   4.414   5.797   8.743  1.6928 -0.8861  1.3935
14811SOL    HW256493   4.529   5.710   8.666 -0.0203 -0.3988 -1.7703
14812SOL     OW56494   1.316   5.111   4.860  0.2238 -0.3541 -0.1460
14812SOL    HW156495   1.273   5.028   4.823 -0.7866  0.4559 -0.8236
14812SOL    HW256496   1.245   5.174   4.891  0.8211  1.7251 -2.8388
14813SOL     OW56497   1.706   5.338   5.905 -0.2031  0.1783 -0.3899
14813SOL    HW156498   1.671   5.347   5.998  1.3987 -0.2454  0.2768
14813SOL    HW256499   1.775   5.409   5.887 -0.9305  0.6286 -1.4628
14814SOL     OW56500   4.145   6.417   8.103  0.2465  0.1406 -0.0092
14814SOL    HW156501   4.059   6.403   8.152 -0.9966  2.5360 -1.4047
14814SOL    HW256502   4.183   6.506   8.127  1.2154  0.0162 -1.0425
14815SOL     OW56503   1.715   8.949   6.166 -0.0318  0.5445  0.9370
14815SOL    HW156504   1.617   8.952   6.184 -0.4407 -0.2777 -0.9475
14815SOL    HW256505   1.762   8.901   6.240 -1.1155  0.4921  1.5964
14816SOL     OW56506   2.653   6.492   3.298 -0.4332  0.0905  0.4839
14816SOL    HW156507   2.647   6.590   3.316  2.5661  0.5613 -0.7928
14816SOL    HW256508   2.688   6.445   3.380  1.2126  0.5433  0.0561
14817SOL     OW56509   6.525   7.443   4.075 -0.2090  0.1327 -0.0593
14817SOL    HW156510   6.472   7.370   4.033 -0.5459 -0.4158  1.3043
14817SOL    HW256511   6.621   7.435   4.049 -0.7596  1.1554 -2.5835
14818SOL     OW56512   2.884   7.584   6.116  0.3021 -0.4381 -0.4240
14818SOL    HW156513   2.938   7.547   6.191 -0.3973  2.2826  1.5318
14818SOL    HW256514   2.944   7.611   6.041  1.4562  0.2620  0.7171
14819SOL     OW56515   3.696   7.323   0.221  0.0267  0.0464 -0.1297
14819SOL    HW156516   3.749   7.344   0.303  1.5611  0.6755 -1.2700
14819SOL    HW256517   3.749   7.345   0.140 -1.7466  0.0938 -1.3091
14820SOL     OW56518   3.875   7.278   9.873  0.0851  0.1943 -0.1677
14820SOL    HW156519   3.805   7.206   9.876 -0.4508  0.7644  3.3218
14820SOL    HW256520   3.847   7.350   9.810 -2.1944  0.1006  0.7016
14821SOL     OW56521   0.225   4.904   8.311  0.4597 -0.5779 -0.3055
14821SOL    HW156522   0.285   4.830   8.341  2.1129  0.4798 -0.9239
14821SOL    HW256523   0.135   4.868   8.289  1.2300 -2.3889 -0.5203
14822SOL     OW56524   5.854   7.190   7.853  0.1038 -0.1876  0.4916
14822SOL    HW156525   5.918   7.122   7.818 -1.1702 -1.2136  0.1214
14822SOL    HW256526   5.871   7.205   7.950  0.3417 -1.0962  0.5941
14823SOL     OW56527   8.287   6.368   2.343  0.0090 -0.0945 -0.6595
14823SOL    HW156528   8.358   6.408   2.284 -0.1855  1.1434 -0.0651
14823SOL    HW256529   8.302   6.398   2.437  0.5875 -2.4314  0.0162
14824SOL     OW56530   1.603   4.154   7.594 -0.1366 -0.0636 -0.3754
14824SOL    HW156531   1.575   4.205   7.676  1.8069  0.8637 -0.2452
14824SOL    HW256532   1.545   4.179   7.517 -2.5415 -1.5656  0.8710
14825SOL     OW56533   5.604   6.063   7.731  0.1303  0.1791  0.7627
14825SOL    HW156534   5.657   5.985   7.766 -1.1178 -1.4134 -0.8035
14825SOL    HW256535   5.564   6.113   7.808  1.7182 -0.1516  1.8322
14826SOL     OW56536   4.849   3.206   5.464  0.0371 -0.2505 -0.2145
14826SOL    HW156537   4.907   3.266   5.518  0.3590 -0.0467 -0.7778
14826SOL    HW256538   4.756   3.241   5.463 -0.4886 -1.4808  2.0873
14827SOL     OW56539   4.856   5.868   8.595 -0.0856  0.3235 -0.2697
14827SOL    HW156540   4.875   5.914   8.507 -1.4601 -0.6511 -1.0865
14827SOL    HW256541   4.821   5.936   8.660 -1.0978  0.6498 -1.1391
14828SOL     OW56542   5.466   3.286   1.437 -0.1265 -0.2194 -0.1241
14828SOL    HW156543   5.501   3.197   1.409 -0.1777 -0.4811  0.6248
14828SOL    HW256544   5.380   3.273   1.488  0.6785  0.1285  1.3559
14829SOL     OW56545   3.613   9.213   4.731 -0.2618  0.2295  0.7459
14829SOL    HW156546   3.681   9.184   4.798 -1.4500 -3.5980  0.4045
14829SOL    HW256547   3.522   9.213   4.773 -0.5465  1.6997  0.1764
14830SOL     OW56548   3.515   7.271   5.665 -0.6966  0.1242 -0.2973
14830SOL    HW156549   3.453   7.228   5.598 -0.9989  0.8687 -0.5003
14830SOL    HW256550   3.549   7.357   5.627  0.9322 -0.5614 -0.4310
14831SOL     OW56551   7.995   5.788   3.422  0.4447  0.7626  0.5696
14831SOL    HW156552   8.085   5.789   3.466  0.1955  1.0637  1.0722
14831SOL    HW256553   8.006   5.763   3.326  1.1375  1.3584  0.4839
14832SOL     OW56554   3.444   9.116   1.689 -0.1860 -0.2500  0.5308
14832SOL    HW156555   3.345   9.130   1.695 -0.0121  1.5407 -0.2685
14832SOL    HW256556   3.491   9.185   1.745  0.6049 -1.1161  0.9391
14833SOL     OW56557   2.133   7.861   8.475  0.5803 -0.3489  0.8509
14833SOL    HW156558   2.181   7.946   8.498 -0.0387  0.9399 -2.4028
14833SOL    HW256559   2.035   7.874   8.486  0.3704 -0.1267 -1.1227
14834SOL     OW56560   4.127   8.049   6.187  0.4642  0.2921 -0.2364
14834SOL    HW156561   4.164   8.080   6.274 -1.6777 -0.5959  1.0307
14834SOL    HW256562   4.158   7.956   6.169  0.2714  0.1868 -0.0279
14835SOL     OW56563   9.099   0.133   3.513 -0.0216  0.4512  0.1550
14835SOL    HW156564   9.125   0.130   3.609  0.8617 -0.5700 -0.1168
14835SOL    HW256565   9.021   0.194   3.502 -1.4130 -0.9846  1.8157
14836SOL     OW56566   4.054   9.840   9.470  0.1933  0.1807  0.4265
14836SOL    HW156567   4.087   9.772   9.536  1.7166  0.0964 -0.3952
14836SOL    HW256568   3.991   9.795   9.406 -1.6567  0.3645  2.0672
14837SOL     OW56569   6.868   0.877   2.095  0.0911  0.1453  0.1469
14837SOL    HW156570   6.935   0.840   2.159 -0.4939  0.3006  0.8508
14837SOL    HW256571   6.833   0.803   2.037  0.1966 -0.0963  0.3927
14838SOL     OW56572   3.519   8.741   1.139  0.6424 -0.2001 -0.2034
14838SOL    HW156573   3.609   8.704   1.162  0.0833 -1.4529 -0.0067
14838SOL    HW256574   3.464   8.670   1.095 -0.9574 -0.0383  1.4995
14839SOL     OW56575   6.535   8.842   2.420 -0.0067 -0.1331  0.7158
14839SOL    HW156576   6.499   8.763   2.371 -0.0937 -1.6987  3.2299
14839SOL    HW256577   6.613   8.879   2.371 -0.7197 -1.0263 -1.1193
14840SOL     OW56578   5.914   0.156   1.992  0.1836  0.0106  0.2108
14840SOL    HW156579   5.923   0.057   2.000  0.4725  0.1401  1.5926
14840SOL    HW256580   6.003   0.199   2.011 -0.0095  0.5583 -0.0957
14841SOL     OW56581   3.066   1.784   1.488  0.2158  0.1228  0.4689
14841SOL    HW156582   3.151   1.735   1.470 -1.1686 -1.1334 -2.9711
14841SOL    HW256583   2.997   1.720   1.521  0.2242  0.9297  2.1086
14842SOL     OW56584   4.116   6.723   4.183  0.1844  0.2192  0.3373
14842SOL    HW156585   4.127   6.634   4.137  0.4072  0.4546 -0.0644
14842SOL    HW256586   4.030   6.765   4.154 -0.1802 -0.1134  0.9425
14843SOL     OW56587   2.470   7.695   1.844  0.0534  0.3466  0.9180
14843SOL    HW156588   2.442   7.682   1.939 -0.5052  2.7168  1.1029
14843SOL    HW256589   2.561   7.736   1.841  0.4111 -0.4724  0.4116
14844SOL     OW56590   3.876   0.298   9.140 -0.4703  0.3833  0.4117
14844SOL    HW156591   3.952   0.311   9.204  0.9051 -0.2481 -1.0553
14844SOL    HW256592   3.868   0.202   9.116 -1.8687  0.4238  0.7118
14845SOL     OW56593   3.135   0.860   0.618  0.0509  0.2143  0.0224
14845SOL    HW156594   3.146   0.863   0.519  0.2183 -0.9250  0.0006
14845SOL    HW256595   3.193   0.931   0.660  0.2987  0.4248 -0.6639
14846SOL     OW56596   3.560   6.954   9.482  0.2185 -0.2504  0.1040
14846SOL    HW156597   3.491   6.893   9.519  0.2730 -0.0096  0.6087
14846SOL    HW256598   3.648   6.906   9.478  0.5148  0.1296  1.5549
14847SOL     OW56599   2.057   0.087   4.153 -0.0805 -0.0948  0.1390
14847SOL    HW156600   2.009   0.000   4.163 -0.7227  0.1479 -0.8224
14847SOL    HW256601   2.064   0.132   4.242 -1.4374 -0.2236  0.3085
14848SOL     OW56602   5.342   7.525   4.004  0.0197  0.7487  0.4448
14848SOL    HW156603   5.268   7.458   4.000  0.0859  0.6435  0.8839
14848SOL    HW256604   5.376   7.531   4.098  2.4286 -1.2325 -0.2276
14849SOL     OW56605   6.978   7.141   6.963 -0.4143  0.1287  0.3613
14849SOL    HW156606   7.068   7.182   6.976 -0.9221  1.8534 -1.3192
14849SOL    HW256607   6.988   7.050   6.922  0.6199 -0.4493  1.8740
14850SOL     OW56608   5.930   2.170   2.238 -0.0966  0.1041 -0.1742
14850SOL    HW156609   5.837   2.167   2.201 -0.3586 -1.4294  0.5471
14850SOL    HW256610   5.927   2.145   2.335  0.9865  0.8121  0.0513
14851SOL     OW56611   1.802   6.967   5.403  0.5004  0.3604  1.1485
14851SOL    HW156612   1.894   7.001   5.385 -0.2523  1.0460 -1.6043
14851SOL    HW256613   1.756   7.026   5.468  1.5576  0.7264  1.5718
14852SOL     OW56614   4.175   5.111   1.492 -0.0791 -0.0352  0.6291
14852SOL    HW156615   4.222   5.087   1.577 -0.2870 -1.6217  0.3218
14852SOL    HW256616   4.130   5.029   1.455  1.0896  0.3256 -1.6882
14853SOL     OW56617   9.309   0.566   0.692  0.5312  0.2124  0.5346
14853SOL    HW156618   9.351   0.649   0.657  1.1978 -0.5792 -0.5921
14853SOL    HW256619   9.226   0.545   0.640  0.9335 -0.3784  0.1187
14854SOL     OW56620   4.756   5.787   6.509  0.2468  0.4820 -0.0259
14854SOL    HW156621   4.777   5.719   6.439  0.0183 -0.4256  0.7857
14854SOL    HW256622   4.724   5.871   6.465 -0.2379 -0.2011 -0.9948
14855SOL     OW56623   5.339   7.819   8.827 -0.0504  0.5153 -0.2861
14855SOL    HW156624   5.281   7.897   8.803 -0.4617  0.0987 -0.6752
14855SOL    HW256625   5.288   7.734   8.811  0.8427  0.1230 -1.1050
14856SOL     OW56626   5.558   4.589   0.100  0.4293  0.0515  0.1763
14856SOL    HW156627   5.571   4.566   0.197  3.9467  1.1284  0.0631
14856SOL    HW256628   5.478   4.647   0.090 -0.0184 -0.1258  2.4406
14857SOL     OW56629   1.449   6.711   9.262  0.4618 -0.7562  0.1862
14857SOL    HW156630   1.386   6.654   9.210 -0.1993  1.4248 -1.4989
14857SOL    HW256631   1.403   6.748   9.343  0.2546 -0.9619  0.1619
14858SOL     OW56632   0.485   5.811   1.888  0.7492 -0.0775 -0.2276
14858SOL    HW156633   0.524   5.821   1.979 -0.0585 -1.1580  0.2520
14858SOL    HW256634   0.395   5.855   1.885 -0.0943 -1.7432  0.0891
14859SOL     OW56635   5.907   4.654   5.277 -0.2792 -0.4823 -0.1637
14859SOL    HW156636   5.957   4.721   5.331 -0.5454 -1.5753  1.4925
14859SOL    HW256637   5.851   4.598   5.338  0.1301 -2.3648 -1.4815
14860SOL     OW56638   5.775   6.564   1.260  0.1919 -0.3107 -0.3057
14860SOL    HW156639   5.822   6.491   1.310 -0.1073 -0.6366 -0.4982
14860SOL    HW256640   5.828   6.648   1.266  0.3076 -0.4231  0.3186
14861SOL     OW56641   6.295   9.169   2.439  0.1594  0.2793  0.2512
14861SOL    HW156642   6.217   9.210   2.487  0.1484  1.0309 -0.3947
14861SOL    HW256643   6.376   9.176   2.497  0.0863  0.9249  0.2804
14862SOL     OW56644   2.263   1.375   2.599  0.3051  0.0430 -0.2775
14862SOL    HW156645   2.197   1.353   2.528  0.3074 -0.7115 -0.0530
14862SOL    HW256646   2.351   1.334   2.576  0.4623  0.3040 -0.1407
14863SOL     OW56647   3.798   0.054   7.865  0.1593  0.5827  1.0382
14863SOL    HW156648   3.736   0.132   7.850  0.2925  0.9688  2.4059
14863SOL    HW256649   3.744  -0.030   7.873  0.1112  0.2802 -1.9446
14864SOL     OW56650   7.281   7.926   0.278 -0.2842  0.3270 -0.3875
14864SOL    HW156651   7.314   7.859   0.212  2.0262 -0.4124  1.4402
14864SOL    HW256652   7.252   7.879   0.362 -1.0495  1.4231 -0.0192
14865SOL     OW56653   3.318   0.057   3.508  0.1132  0.3919 -0.4320
14865SOL    HW156654   3.267   0.069   3.593  1.2158 -0.8101  0.4078
14865SOL    HW256655   3.327  -0.040   3.487  1.2257  0.6186 -1.0724
14866SOL     OW56656   5.488   2.051   3.572  0.1208  0.1275  0.3377
14866SOL    HW156657   5.508   2.120   3.502  0.7599 -0.4258 -0.0247
14866SOL    HW256658   5.395   2.065   3.606  0.6504  1.8880  1.1044
14867SOL     OW56659   9.881   8.694   7.292  0.4331 -0.0519  0.2343
14867SOL    HW156660   9.913   8.601   7.310  0.1774 -0.5977 -1.9046
14867SOL    HW256661   9.914   8.723   7.202 -0.6294  1.4120  0.3014
14868SOL     OW56662   9.501   9.816   5.737  0.1243 -0.6601 -0.4409
14868SOL    HW156663   9.586   9.857   5.703  1.1450  1.6050  4.4844
14868SOL    HW256664   9.515   9.718   5.752  1.1745 -0.7233 -1.7403
14869SOL     OW56665   1.975   6.236   6.748  0.6229 -0.3849  0.2553
14869SOL    HW156666   2.070   6.265   6.736  0.9736 -1.6060  0.0417
14869SOL    HW256667   1.968   6.137   6.737 -0.7063 -0.2880  0.1003
14870SOL     OW56668   5.377   3.451   1.237  0.8529 -0.0566  0.2386
14870SOL    HW156669   5.361   3.385   1.163  1.6703 -0.0276  0.0242
14870SOL    HW256670   5.407   3.402   1.319  1.2100  0.0251  0.1571
14871SOL     OW56671   9.892   3.493   4.106  0.5334 -0.2917  0.2123
14871SOL    HW156672   9.991   3.479   4.108  1.0958  2.9654 -1.2141
14871SOL    HW256673   9.857   3.466   4.016  0.3065 -0.2933  0.3018
14872SOL     OW56674   0.195   4.225   9.871 -0.1389  0.2564 -0.2161
14872SOL    HW156675   0.155   4.148   9.919 -0.0316  1.6819  2.2235
14872SOL    HW256676   0.133   4.255   9.798 -0.7825 -1.2513 -0.2935
14873SOL     OW56677   5.646   9.057   9.251  0.0194 -0.1532 -0.0172
14873SOL    HW156678   5.661   8.994   9.175 -1.0701  0.2644 -0.5917
14873SOL    HW256679   5.734   9.085   9.289  0.5389 -1.0940 -0.5227
14874SOL     OW56680   7.694   2.737   1.669  0.4635  0.4394  0.1264
14874SOL    HW156681   7.652   2.646   1.667 -0.2718  0.7798 -0.1429
14874SOL    HW256682   7.778   2.734   1.723  1.6023 -0.8919 -1.6935
14875SOL     OW56683   8.992   9.541   5.561 -0.3414  0.3806 -0.1759
14875SOL    HW156684   8.899   9.536   5.598 -0.6347 -0.8741 -1.0902
14875SOL    HW256685   9.003   9.474   5.489  1.5991 -0.1605  0.6067
14876SOL     OW56686   1.982   9.697   7.707  0.1808  0.5082 -0.0056
14876SOL    HW156687   2.053   9.679   7.640 -1.2694 -0.2912 -1.3710
14876SOL    HW256688   1.941   9.610   7.736 -1.8034  1.0900 -0.9915
14877SOL     OW56689   4.790   6.976   3.108  0.5238  0.2288 -0.6369
14877SOL    HW156690   4.830   7.068   3.112 -0.0143  0.4419 -0.1198
14877SOL    HW256691   4.791   6.935   3.200  1.9224 -0.7852 -1.0795
14878SOL     OW56692   8.205   9.458   7.870  0.0403  0.5205 -0.2467
14878SOL    HW156693   8.182   9.471   7.967  0.9682 -1.3413  0.2562
14878SOL    HW256694   8.274   9.385   7.862  2.3433  2.7854 -2.0354
14879SOL     OW56695   5.846   8.333   1.787  0.4058 -0.0065  0.0602
14879SOL    HW156696   5.777   8.263   1.769  0.5915 -0.1650 -0.0322
14879SOL    HW256697   5.916   8.331   1.715  0.5544  0.0920  0.2012
14880SOL     OW56698   6.156   8.434   3.372 -0.0318 -0.3221  0.5540
14880SOL    HW156699   6.101   8.357   3.341 -0.9096  1.6120 -2.9159
14880SOL    HW256700   6.253   8.409   3.371 -0.2382 -1.1008 -1.4513
14881SOL     OW56701   5.309   8.167   5.137 -0.0347  0.0724 -0.5516
14881SOL    HW156702   5.408   8.154   5.143 -0.2863 -1.1754  1.2378
14881SOL    HW256703   5.276   8.211   5.221 -0.6614  2.8998 -2.2199
14882SOL     OW56704   4.574   4.890   1.706 -0.0826 -0.1593  0.2364
14882SOL    HW156705   4.534   4.814   1.758 -1.0516  0.1967  0.0163
14882SOL    HW256706   4.672   4.896   1.726 -0.4719  0.0993  2.1841
14883SOL     OW56707   3.964   1.203   9.665 -0.0483 -0.1689 -0.1103
14883SOL    HW156708   3.987   1.246   9.752 -0.9639 -0.4624  0.2903
14883SOL    HW256709   4.001   1.110   9.663 -0.0281 -0.1627 -0.0225
14884SOL     OW56710   2.922   6.766   3.185  0.2731  0.0934 -0.0494
14884SOL    HW156711   2.932   6.740   3.089 -1.4714  0.7896 -0.4402
14884SOL    HW256712   2.983   6.843   3.204 -0.4717  0.9509 -1.0210
14885SOL     OW56713   6.070   6.836   5.086 -1.1298  0.2569  0.2752
14885SOL    HW156714   6.122   6.847   5.001  2.4023  0.0850  2.3200
14885SOL    HW256715   6.056   6.739   5.104 -2.4314  0.3109 -0.4102
14886SOL     OW56716   3.388   2.257   0.135 -0.2890  0.1903  0.4828
14886SOL    HW156717   3.475   2.303   0.154  0.1241 -0.0588 -0.7423
14886SOL    HW256718   3.402   2.188   0.063 -1.8948  1.5593 -1.1998
14887SOL     OW56719   6.304   7.093   4.165 -0.1520  0.2053  0.8477
14887SOL    HW156720   6.300   7.180   4.116  1.8733 -0.5285 -0.7027
14887SOL    HW256721   6.335   7.109   4.258 -1.7338  1.3476  1.2052
14888SOL     OW56722   0.526   3.687   0.647 -0.2332 -0.3384 -0.6714
14888SOL    HW156723   0.599   3.705   0.581 -0.8432  1.0538 -0.9845
14888SOL    HW256724   0.446   3.742   0.625 -0.9178 -0.8399  0.4682
14889SOL     OW56725   0.598   4.825   0.379  0.3116 -0.0929  0.4439
14889SOL    HW156726   0.680   4.828   0.321  0.1498 -0.4093  0.1992
14889SOL    HW256727   0.550   4.913   0.373 -0.1150 -0.3869 -0.4914
14890SOL     OW56728   3.661   8.975   4.510 -0.3168 -0.0290  0.2461
14890SOL    HW156729   3.712   9.061   4.517 -1.1611  0.5148 -0.2034
14890SOL    HW256730   3.614   8.971   4.421 -0.6863 -0.7328  0.4681
14891SOL     OW56731   5.881   7.723   1.907  0.3115  0.4720 -0.2919
14891SOL    HW156732   5.884   7.623   1.902  0.3907  0.4611 -0.0719
14891SOL    HW256733   5.874   7.751   2.003  0.6948  0.6872 -0.3242
14892SOL     OW56734   6.207   4.356   8.790  0.0475 -0.3343  0.1519
14892SOL    HW156735   6.130   4.297   8.767  0.3139  0.0730 -1.9047
14892SOL    HW256736   6.251   4.323   8.874 -3.3119  0.3734  2.2872
14893SOL     OW56737   6.086   0.101   9.574  0.1897 -0.7130  0.1687
14893SOL    HW156738   6.151   0.025   9.572  0.6501 -0.3106 -0.2308
14893SOL    HW256739   6.028   0.097   9.493  0.1866 -0.6667  0.1691
14894SOL     OW56740   5.554   0.844   0.991 -0.5582  0.1344 -0.0436
14894SOL    HW156741   5.521   0.935   0.966 -1.1026 -0.1110 -0.2131
14894SOL    HW256742   5.483   0.795   1.041 -0.7180 -0.6644 -1.0483
14895SOL     OW56743   2.445   6.360   3.750  0.3800  0.1794 -0.0516
14895SOL    HW156744   2.438   6.409   3.664 -0.6202 -0.2782 -0.2415
14895SOL    HW256745   2.534   6.378   3.792  0.6174  0.9142 -0.8614
14896SOL     OW56746   6.989   8.930   0.952 -0.5316 -0.0610 -0.0990
14896SOL    HW156747   6.968   9.003   1.017  2.2492  1.8119 -1.2183
14896SOL    HW256748   6.923   8.933   0.877 -1.5138  0.1231  0.7465
14897SOL     OW56749   5.243   6.507   8.538 -0.8164  0.2131 -0.7388
14897SOL    HW156750   5.273   6.416   8.569  0.3704  0.8423  0.0228
14897SOL    HW256751   5.202   6.556   8.614 -0.4305  0.7259 -0.8547
14898SOL     OW56752   7.960   5.303   4.065  0.3540  0.8116 -0.0117
14898SOL    HW156753   7.960   5.203   4.069  1.5230  0.7028 -1.6569
14898SOL    HW256754   7.875   5.339   4.102 -0.8759 -0.8888 -1.1394
14899SOL     OW56755   5.938   3.955   9.279  0.1556 -0.5291 -0.2424
14899SOL    HW156756   5.963   4.021   9.350  1.8983 -0.7766 -0.6001
14899SOL    HW256757   5.843   3.971   9.251  0.1091  0.9079  0.6589
14900SOL     OW56758   2.594   6.588   8.885  0.6752 -0.1158  0.3039
14900SOL    HW156759   2.633   6.651   8.952 -1.0939  1.7756 -0.3910
14900SOL    HW256760   2.652   6.587   8.803  1.0336  0.1648  0.5520
14901SOL     OW56761   2.034   9.094   0.467 -0.0056 -0.3271 -0.2459
14901SOL    HW156762   1.983   9.076   0.551  1.0641 -1.0788  0.2661
14901SOL    HW256763   2.015   9.021   0.401  2.0170 -1.8086  0.7325
14902SOL     OW56764   5.335   9.789   2.782 -0.4168  0.1891  0.0814
14902SOL    HW156765   5.340   9.855   2.857  2.0018  2.5374 -2.0212
14902SOL    HW256766   5.265   9.820   2.716  0.5865  0.5846 -0.8130
14903SOL     OW56767   7.214   0.903   9.218 -0.7238 -0.2580  0.8239
14903SOL    HW156768   7.265   0.970   9.272 -0.3721 -1.2602  1.7589
14903SOL    HW256769   7.169   0.949   9.142  1.5603  0.6398 -0.0174
14904SOL     OW56770   4.158   5.240   7.140 -0.2651 -0.3946 -0.6357
14904SOL    HW156771   4.159   5.235   7.240 -1.0404 -0.5429 -0.6341
14904SOL    HW256772   4.247   5.271   7.107  0.0045 -0.3899  0.1007
14905SOL     OW56773   7.221   5.493   0.576 -0.3560 -0.8378  0.2136
14905SOL    HW156774   7.155   5.567   0.565 -2.2552 -2.4341  0.4994
14905SOL    HW256775   7.174   5.411   0.609  1.4342 -2.6255 -1.5295
14906SOL     OW56776   4.500   7.515   9.828 -0.4506 -0.0368 -0.7761
14906SOL    HW156777   4.544   7.432   9.862 -1.1859 -0.8412 -1.7697
14906SOL    HW256778   4.418   7.534   9.882 -1.0606 -0.7514 -1.4453
14907SOL     OW56779   9.613   4.846   9.644 -0.6005  0.3790  0.1101
14907SOL    HW156780   9.565   4.932   9.624 -0.7241  0.0415 -1.0521
14907SOL    HW256781   9.546   4.774   9.660 -0.5006  0.5842  1.5238
14908SOL     OW56782   4.077   6.084   3.433  0.3430 -0.3681 -0.3257
14908SOL    HW156783   4.113   6.052   3.345 -0.2538 -0.5238 -0.5162
14908SOL    HW256784   4.120   6.033   3.507 -0.5915 -1.6242 -0.6234
14909SOL     OW56785   5.401   4.671   8.871  0.2190  0.0522 -0.9589
14909SOL    HW156786   5.313   4.625   8.876 -0.5817  1.5388 -1.3144
14909SOL    HW256787   5.395   4.761   8.914  1.3043  0.5516 -1.8172
14910SOL     OW56788   6.287   1.882   0.954  0.0671  0.2783  0.3530
14910SOL    HW156789   6.310   1.897   1.050  1.1747  1.4354 -0.0810
14910SOL    HW256790   6.189   1.893   0.941  0.0994  1.5977  1.1027
14911SOL     OW56791   9.847   0.269   5.887  0.0008 -0.2594  0.2639
14911SOL    HW156792   9.755   0.238   5.866  0.1401  0.3985 -1.3951
14911SOL    HW256793   9.887   0.312   5.806  1.2829  0.6167  1.3350
14912SOL     OW56794   2.793   9.086   9.763 -0.3578  0.0841  0.2267
14912SOL    HW156795   2.801   9.121   9.856 -1.4930 -0.2153  0.4495
14912SOL    HW256796   2.819   8.989   9.761  0.5323  0.3236  0.0571
14913SOL     OW56797   3.910   0.658   7.220 -0.6524 -0.3503 -0.4240
14913SOL    HW156798   3.862   0.675   7.306 -2.1126 -1.8412 -0.9057
14913SOL    HW256799   3.934   0.561   7.214 -0.1904 -0.1762 -1.5036
14914SOL     OW56800   2.000   8.157   1.561  0.6652  0.5188 -0.3986
14914SOL    HW156801   2.044   8.235   1.606  0.2425 -0.4037  1.6827
14914SOL    HW256802   1.904   8.153   1.589  0.8072 -1.0205 -0.0885
14915SOL     OW56803   2.825   3.024   4.459  0.4012 -0.1463 -0.0503
14915SOL    HW156804   2.888   3.088   4.502  1.2947 -1.5462  0.7827
14915SOL    HW256805   2.734   3.065   4.454  0.4969  0.4536  2.2823
14916SOL     OW56806   3.953   4.788   0.545  0.7048 -0.2505  0.0827
14916SOL    HW156807   4.033   4.768   0.488  0.4967 -4.2938  1.0507
14916SOL    HW256808   3.880   4.826   0.488  1.7052 -0.9224 -1.6907
14917SOL     OW56809   4.519   3.155   0.858 -0.2411  0.5256 -0.0512
14917SOL    HW156810   4.508   3.064   0.897  1.6894 -0.2905 -1.3602
14917SOL    HW256811   4.431   3.203   0.861 -1.4824 -1.6724 -0.1077
14918SOL     OW56812   4.799   2.617   9.402  0.0966  0.2169 -0.0096
14918SOL    HW156813   4.860   2.596   9.479  0.1389 -0.4966 -0.2393
14918SOL    HW256814   4.846   2.598   9.316  0.3037  1.7074 -0.2373
14919SOL     OW56815   4.675   8.638   7.987 -0.6886  0.3012  0.0057
14919SOL    HW156816   4.726   8.708   7.937  0.9456 -0.1393  1.0193
14919SOL    HW256817   4.651   8.673   8.078  0.4432 -0.5613  0.6483
14920SOL     OW56818   5.278   4.013   8.403  0.2263 -0.5151  0.2960
14920SOL    HW156819   5.199   3.955   8.419 -0.5684  0.9417  1.7640
14920SOL    HW256820   5.256   4.079   8.331  0.5836 -0.9931 -0.2547
14921SOL     OW56821   3.937   0.381   7.132 -0.2436 -0.6624  0.0633
14921SOL    HW156822   3.860   0.376   7.068  0.8806 -0.8014 -1.2732
14921SOL    HW256823   3.965   0.289   7.157 -0.3495 -0.6120  0.3746
14922SOL     OW56824   0.530   4.812   7.733 -0.8189  0.0083  0.9343
14922SOL    HW156825   0.447   4.852   7.695 -1.0290  0.2266  1.6014
14922SOL    HW256826   0.604   4.879   7.729 -0.1112 -0.8722 -1.5278
14923SOL     OW56827   4.372   5.389   0.310  0.0461 -0.5038  0.3499
14923SOL    HW156828   4.417   5.330   0.243  0.6382 -1.2608  1.4147
14923SOL    HW256829   4.275   5.399   0.285 -0.0079 -1.7163  0.0266
14924SOL     OW56830   5.697   0.121   9.049  0.2999  0.1235 -0.4822
14924SOL    HW156831   5.712   0.214   9.082  1.1538  0.4620 -1.7915
14924SOL    HW256832   5.781   0.085   9.009  0.1828 -1.5039  0.6943
14925SOL     OW56833   7.415   7.175   5.781  0.1382 -0.0833  0.3566
14925SOL    HW156834   7.327   7.191   5.826 -0.1713 -0.0322 -0.2702
14925SOL    HW256835   7.463   7.262   5.770  0.0709 -0.0568  0.2798
14926SOL     OW56836   6.616   7.726   3.078 -0.2144  0.5646  0.0781
14926SOL    HW156837   6.716   7.723   3.074 -0.2842 -1.1422 -0.5331
14926SOL    HW256838   6.582   7.649   3.132 -1.3298 -0.6850 -2.3237
14927SOL     OW56839   5.357   0.414   7.583 -0.5015  0.8945 -0.0782
14927SOL    HW156840   5.291   0.340   7.569  0.2877  0.1498  0.1335
14927SOL    HW256841   5.398   0.406   7.673  2.0455 -0.3946 -1.2906
14928SOL     OW56842   1.725   9.823   1.830 -0.4849  0.5132 -0.1408
14928SOL    HW156843   1.742   9.873   1.745  0.4469 -1.7591 -1.3250
14928SOL    HW256844   1.771   9.870   1.905 -0.6075  2.0725 -1.0090
14929SOL     OW56845   3.268   7.160   8.602  0.6554 -0.4230 -0.0873
14929SOL    HW156846   3.339   7.229   8.617  2.1060 -2.0936  0.9600
14929SOL    HW256847   3.236   7.125   8.690 -0.5572 -0.6303 -0.5939
14930SOL     OW56848   2.043   2.579   4.740  0.2038  0.1492 -0.4588
14930SOL    HW156849   1.955   2.534   4.724 -0.0847  0.7496 -0.6188
14930SOL    HW256850   2.117   2.524   4.701 -0.0031 -0.8300  0.5263
14931SOL     OW56851   6.080   2.614   0.016 -0.3798  0.3896  0.3509
14931SOL    HW156852   6.104   2.710   0.025  0.2070  0.1940  0.9265
14931SOL    HW256853   6.136   2.559   0.078  0.5210 -0.5169 -1.2180
14932SOL     OW56854   6.989   0.497   7.666 -0.0315 -0.0577  0.3429
14932SOL    HW156855   7.062   0.474   7.601  0.7859  1.3191  0.7692
14932SOL    HW256856   6.907   0.444   7.642  0.8689 -1.0874 -0.5712
14933SOL     OW56857   1.125   7.183   0.624  0.5357  0.4202 -0.5156
14933SOL    HW156858   1.158   7.094   0.591 -0.0493 -0.2344  0.6542
14933SOL    HW256859   1.201   7.248   0.625  1.5736 -0.7654  1.0471
14934SOL     OW56860   3.841   9.007   2.108 -0.2408 -0.4425  0.3196
14934SOL    HW156861   3.819   9.086   2.166 -0.3091 -1.3258  1.4936
14934SOL    HW256862   3.799   8.925   2.145  0.7269 -1.2339 -0.3187
14935SOL     OW56863   5.798   3.226   9.018 -0.0591  0.1501  0.2820
14935SOL    HW156864   5.710   3.273   9.020 -0.4094 -0.4877 -0.2753
14935SOL    HW256865   5.841   3.233   9.109 -0.1494  1.4514  0.2336
14936SOL     OW56866   7.396   0.584   0.567  0.4353  0.6962 -0.1205
14936SOL    HW156867   7.411   0.584   0.666  0.8657  0.2323 -0.1844
14936SOL    HW256868   7.378   0.678   0.536  0.6869  0.8959  0.3357
14937SOL     OW56869   2.311   3.054   9.743  0.2624 -0.2873  0.3909
14937SOL    HW156870   2.313   2.961   9.708 -1.0467 -0.5422  0.9695
14937SOL    HW256871   2.239   3.106   9.696  0.6155  0.2719  0.4593
14938SOL     OW56872   2.837   6.917   2.782 -0.4677  0.1516 -0.1720
14938SOL    HW156873   2.846   6.907   2.683  0.2358 -0.3759 -0.0551
14938SOL    HW256874   2.741   6.905   2.808 -0.7587  0.9150 -0.8584
14939SOL     OW56875   3.087   3.850   0.196 -0.3105  0.1395 -0.3930
14939SOL    HW156876   3.032   3.934   0.197 -0.5133  0.0686 -3.0282
14939SOL    HW256877   3.034   3.775   0.236 -0.7393  0.8931  0.4712
14940SOL     OW56878   6.368   2.385   2.443 -0.0953 -0.1325  0.3108
14940SOL    HW156879   6.420   2.343   2.368  0.5099 -0.2356  0.7859
14940SOL    HW256880   6.431   2.426   2.509 -0.6430  0.3884  0.5176
14941SOL     OW56881   6.207   9.018   3.075 -0.0028  0.1015 -0.1744
14941SOL    HW156882   6.264   9.062   3.144 -0.5362  1.1793 -0.4159
14941SOL    HW256883   6.251   8.934   3.044  1.2316  0.6880 -0.0291
14942SOL     OW56884   8.673   8.916   6.590 -0.4691 -0.1095  0.0504
14942SOL    HW156885   8.625   8.837   6.628 -3.5195  0.2123 -2.8420
14942SOL    HW256886   8.719   8.965   6.663 -0.5326 -3.1622  2.2708
14943SOL     OW56887   4.222   9.666   3.384  0.4024  0.1947 -0.3231
14943SOL    HW156888   4.228   9.742   3.320  0.8047 -2.1246 -3.1778
14943SOL    HW256889   4.313   9.645   3.421  0.6456 -0.2088 -1.1473
14944SOL     OW56890   6.672   7.559   0.080 -0.2392 -0.2253 -0.0588
14944SOL    HW156891   6.652   7.461   0.080 -0.9793 -0.0925 -2.4064
14944SOL    HW256892   6.770   7.573   0.099 -0.4844 -1.2925  2.2090
14945SOL     OW56893   7.100   7.165   3.746  0.3734  0.5236  0.1301
14945SOL    HW156894   7.166   7.227   3.704  0.6160  1.4053  1.7768
14945SOL    HW256895   7.104   7.174   3.846 -2.2844  0.6678  0.2647
14946SOL     OW56896   3.282   7.319   9.476  0.0238  0.1522  0.1805
14946SOL    HW156897   3.183   7.318   9.463  0.1927 -0.2524 -1.2378
14946SOL    HW256898   3.310   7.237   9.526  0.1906 -2.7617 -4.3527
14947SOL     OW56899   4.006   8.724   1.851  0.3129  0.5101  0.4791
14947SOL    HW156900   3.979   8.688   1.761  1.3676  0.5393  0.1458
14947SOL    HW256901   4.106   8.724   1.858  0.3408  3.1953  0.5299
14948SOL     OW56902   3.797   3.845   2.262 -0.1633 -0.3317  0.2415
14948SOL    HW156903   3.818   3.809   2.172  0.3948  1.3163 -0.3098
14948SOL    HW256904   3.719   3.908   2.255 -0.5777 -0.7429  1.0361
14949SOL     OW56905   7.183   8.381   1.564 -0.0490 -0.1983 -0.3128
14949SOL    HW156906   7.265   8.427   1.600  0.3648 -1.0272 -0.1881
14949SOL    HW256907   7.126   8.351   1.641  0.2684 -0.9475 -0.3657
14950SOL     OW56908   9.690   0.589   9.202  0.4175 -0.0259  0.1245
14950SOL    HW156909   9.777   0.569   9.247 -0.2680 -0.7341  1.1658
14950SOL    HW256910   9.638   0.504   9.191 -1.2678  0.7408  1.8978
14951SOL     OW56911   8.839   4.925   8.134  0.2102 -0.0753 -0.1556
14951SOL    HW156912   8.741   4.926   8.114  0.3974  2.0103 -1.0623
14951SOL    HW256913   8.861   5.002   8.194  1.1870 -0.9882  0.6884
14952SOL     OW56914   6.791   9.682   1.701 -0.2676 -0.0001 -0.1395
14952SOL    HW156915   6.869   9.671   1.764  1.4528  1.3745 -1.9587
14952SOL    HW256916   6.723   9.742   1.742  0.8979  0.9865  0.3941
14953SOL     OW56917   4.631   5.079   6.731  0.5705 -0.2569 -0.5840
14953SOL    HW156918   4.680   4.993   6.743 -1.4179 -1.2990  0.3486
14953SOL    HW256919   4.576   5.098   6.813  1.0999  1.9825 -0.7193
14954SOL     OW56920   4.555   3.370   2.941 -0.5327  0.2880 -0.7051
14954SOL    HW156921   4.470   3.348   2.893 -1.0361 -1.0191  0.7772
14954SOL    HW256922   4.543   3.453   2.996  0.1594  2.0228 -3.0644
14955SOL     OW56923   5.807   1.791   8.274 -0.2850 -0.0230  0.3150
14955SOL    HW156924   5.864   1.736   8.336  0.8534 -0.8384 -1.4055
14955SOL    HW256925   5.730   1.736   8.242  1.2559 -0.9449 -1.9859
14956SOL     OW56926   3.814   5.148   0.227 -0.4765  0.3062 -0.1559
14956SOL    HW156927   3.903   5.160   0.182 -0.9065  0.6234 -0.9163
14956SOL    HW256928   3.783   5.235   0.264 -0.1703  0.0651  0.6734
14957SOL     OW56929   8.708   0.526   0.411 -0.1140  0.3230 -0.4537
14957SOL    HW156930   8.659   0.517   0.324 -0.8480 -2.3660  0.1753
14957SOL    HW256931   8.806   0.517   0.394 -0.1292  1.3501 -1.1718
14958SOL     OW56932   6.310   8.981   1.061  0.0275 -0.0410 -0.1785
14958SOL    HW156933   6.331   8.897   1.010  1.1685 -0.2945  0.6894
14958SOL    HW256934   6.221   9.016   1.032  0.1241 -0.8425 -1.4736
14959SOL     OW56935   5.775   0.957   7.846 -0.1188 -0.6635 -0.1680
14959SOL    HW156936   5.708   0.913   7.786  1.6810 -1.9352 -1.2893
14959SOL    HW256937   5.801   0.894   7.919 -1.2545  0.3740  1.1363
14960SOL     OW56938   1.360   7.845   2.580 -0.0646 -0.4552  0.3423
14960SOL    HW156939   1.427   7.790   2.629  0.6964 -0.4683 -0.6887
14960SOL    HW256940   1.279   7.858   2.637  1.3245  0.6507  2.1182
14961SOL     OW56941   6.949   9.651   1.953 -0.0451  0.4099  0.0588
14961SOL    HW156942   7.035   9.652   1.903 -0.7538  1.1240 -1.1678
14961SOL    HW256943   6.958   9.708   2.035  0.4909  0.9269 -0.3482
14962SOL     OW56944   3.951   3.242   6.082  0.4621  0.0051  0.7812
14962SOL    HW156945   4.010   3.294   6.020  1.3683  0.4803  2.0156
14962SOL    HW256946   3.860   3.282   6.083  0.7457  0.6511  0.6053
14963SOL     OW56947   2.386   8.338   2.121  0.5340  0.5588 -0.3515
14963SOL    HW156948   2.369   8.436   2.120  0.4950  0.5864  1.3774
14963SOL    HW256949   2.371   8.300   2.030 -1.9166  1.7215 -0.4456
14964SOL     OW56950   6.589   0.203   2.665  0.0817  0.1498  0.2574
14964SOL    HW156951   6.604   0.156   2.752  1.7888  1.6852  0.8119
14964SOL    HW256952   6.673   0.246   2.635 -0.2412 -1.1191 -2.6609
14965SOL     OW56953   0.565   7.512   9.464  0.4780  0.2523  0.0406
14965SOL    HW156954   0.538   7.423   9.503  0.2256 -0.3208 -1.4074
14965SOL    HW256955   0.647   7.500   9.409  1.2192  1.1879  0.9388
14966SOL     OW56956   3.879   8.209   2.409  0.1044 -0.0040  0.0176
14966SOL    HW156957   3.926   8.296   2.392 -0.3304  0.0699 -0.8322
14966SOL    HW256958   3.908   8.142   2.341 -0.6651 -0.0938 -0.2303
14967SOL     OW56959   5.453   1.680   2.809  0.2778 -0.2763  0.8619
14967SOL    HW156960   5.537   1.732   2.823 -0.2839  1.0221 -0.4545
14967SOL    HW256961   5.375   1.742   2.814 -0.5745 -1.3820  1.5089
14968SOL     OW56962   8.282   8.853   5.783  0.5458  0.3715 -0.1251
14968SOL    HW156963   8.328   8.788   5.722  1.6551  1.5891 -0.6238
14968SOL    HW256964   8.316   8.841   5.876 -0.7579 -1.1351  0.1691
14969SOL     OW56965   9.576   1.101   5.928 -0.1603  0.6657 -0.5281
14969SOL    HW156966   9.637   1.061   5.997  1.1098  0.3693 -1.8115
14969SOL    HW256967   9.557   1.197   5.951 -1.0184  0.1319  1.0750
14970SOL     OW56968   0.848   0.289   2.171 -0.3243  0.1818 -0.2279
14970SOL    HW156969   0.929   0.326   2.218  0.0144 -0.1450 -0.5459
14970SOL    HW256970   0.793   0.236   2.235  0.3930 -0.6729 -0.3173
14971SOL     OW56971   2.953   4.223   7.736  0.2308  0.2376 -0.3027
14971SOL    HW156972   2.942   4.322   7.746  0.7682  0.2279  0.4212
14971SOL    HW256973   3.041   4.203   7.693  0.3816  0.0538  0.0883
14972SOL     OW56974   4.492   8.301   5.386  0.2141  0.7671  0.2478
14972SOL    HW156975   4.546   8.349   5.456  0.0329 -1.2123  1.7848
14972SOL    HW256976   4.423   8.364   5.349  2.1133  2.6598 -0.1732
14973SOL     OW56977   4.186   4.025   7.123  0.0642  0.3536 -0.0303
14973SOL    HW156978   4.281   3.994   7.118  0.8733  2.6953  0.2919
14973SOL    HW256979   4.136   3.970   7.190  1.9269  0.9124  1.8496
14974SOL     OW56980   1.023   8.227   2.576 -0.3846 -0.5125  0.2194
14974SOL    HW156981   1.008   8.138   2.619 -1.6920 -0.1277  0.5711
14974SOL    HW256982   1.011   8.219   2.477 -0.0191 -0.8253  0.1977
14975SOL     OW56983   1.182   8.263   5.154  0.0852 -0.2236  0.1364
14975SOL    HW156984   1.151   8.346   5.107 -0.0392 -0.9142 -1.0248
14975SOL    HW256985   1.159   8.270   5.251 -0.8310  0.6674 -0.1253
14976SOL     OW56986   3.472   2.600   6.249 -0.2038  0.1879 -0.3310
14976SOL    HW156987   3.374   2.584   6.235 -0.2259  1.2144 -1.4075
14976SOL    HW256988   3.522   2.514   6.238 -1.2406 -0.9048  2.8651
14977SOL     OW56989   6.826   9.355   6.087  0.1350 -0.0092  0.1605
14977SOL    HW156990   6.769   9.323   6.011  0.1197  0.4801 -0.0317
14977SOL    HW256991   6.873   9.276   6.128  0.8650 -0.1665 -0.9436
14978SOL     OW56992   0.498   6.820   4.239 -0.0090  0.3485  0.1270
14978SOL    HW156993   0.421   6.876   4.270 -0.3156 -0.5635  1.0564
14978SOL    HW256994   0.584   6.865   4.264 -0.2299  1.5589 -1.2535
14979SOL     OW56995   2.339   7.454   6.084 -0.2216  0.0858  0.0444
14979SOL    HW156996   2.240   7.440   6.083 -0.4686  1.4773  2.0819
14979SOL    HW256997   2.385   7.367   6.101 -1.0198 -0.7560 -1.9431
14980SOL     OW56998   5.248   7.915   4.757  0.1603  0.1176 -0.1215
14980SOL    HW156999   5.189   7.840   4.725 -0.3947  0.6673 -0.3949
14980SOL    HW257000   5.313   7.879   4.824 -2.3042  0.0317  2.3270
14981SOL     OW57001   2.316   0.704   0.986  0.0218 -0.2186  0.0498
14981SOL    HW157002   2.242   0.640   1.007  0.8411 -0.7583  1.3605
14981SOL    HW257003   2.316   0.724   0.888 -2.3208  0.3835  0.1353
14982SOL     OW57004   4.820   9.386   8.427 -0.0024  0.8345  0.4321
14982SOL    HW157005   4.757   9.454   8.465 -2.0523 -0.8965  0.1749
14982SOL    HW257006   4.804   9.298   8.471  0.3093 -0.2802 -1.6381
14983SOL     OW57007   5.195   1.412   2.468 -0.0118  0.1721 -0.2064
14983SOL    HW157008   5.212   1.444   2.561 -1.1861  0.5070 -0.0995
14983SOL    HW257009   5.097   1.409   2.451  0.1329 -1.7030 -0.8085
14984SOL     OW57010   3.066   0.102   8.145 -0.4917  0.2393 -0.1235
14984SOL    HW157011   2.992   0.099   8.212 -0.7764 -2.1784 -0.5030
14984SOL    HW257012   3.136   0.166   8.175 -0.1250 -1.5401  2.9845
14985SOL     OW57013   3.546   9.991   2.418 -0.7479 -0.4064 -0.6880
14985SOL    HW157014   3.644   9.998   2.433 -0.6487  0.7191 -1.6891
14985SOL    HW257015   3.524   9.901   2.380 -0.0260 -0.4658 -0.9801
14986SOL     OW57016   4.727   1.515   3.412  0.7680  0.1401  0.0748
14986SOL    HW157017   4.785   1.434   3.425 -0.2335 -0.6581 -0.3445
14986SOL    HW257018   4.631   1.488   3.421  0.3975  1.1307 -0.9227
14987SOL     OW57019   9.420   7.502   2.645 -0.1988  0.3260  0.1526
14987SOL    HW157020   9.361   7.450   2.582  1.2252  0.3485 -1.2337
14987SOL    HW257021   9.490   7.442   2.683  0.8173  0.9887 -0.6530
14988SOL     OW57022   9.667   0.964   4.569 -0.1386 -0.2954  0.3204
14988SOL    HW157023   9.731   0.897   4.608 -0.2010 -0.4975  0.0758
14988SOL    HW257024   9.659   0.949   4.471  0.6529  0.7615  0.0943
14989SOL     OW57025   1.079   6.215   3.836  0.3118 -0.0326  0.5001
14989SOL    HW157026   1.054   6.285   3.769 -0.1417  0.4402  1.1512
14989SOL    HW257027   1.101   6.259   3.923  0.7935 -0.6485  0.6970
14990SOL     OW57028   5.277   6.538   3.004 -0.0617 -0.3070 -0.0116
14990SOL    HW157029   5.273   6.601   3.082  0.1971  0.2283 -0.4312
14990SOL    HW257030   5.184   6.524   2.969 -0.0302  0.4854 -0.4290
14991SOL     OW57031   0.559   8.399   4.582 -0.3668  0.2472  0.1267
14991SOL    HW157032   0.516   8.367   4.666 -0.2583  2.1522  0.9517
14991SOL    HW257033   0.562   8.325   4.515 -2.1598 -0.7704  1.1296
14992SOL     OW57034   7.749   5.957   3.292 -0.2083 -0.3120  0.1560
14992SOL    HW157035   7.668   5.910   3.257 -1.6013  1.2711  1.1677
14992SOL    HW257036   7.807   5.891   3.340 -0.6721 -1.5501 -0.9581
14993SOL     OW57037   7.936   2.510   2.802 -0.1570 -0.4039 -0.7890
14993SOL    HW157038   7.881   2.574   2.856 -0.4473 -1.4832  0.2101
14993SOL    HW257039   8.033   2.521   2.825 -0.0152  0.9011 -1.9264
14994SOL     OW57040   9.648   5.208   9.871  0.7031 -0.2389 -0.0240
14994SOL    HW157041   9.700   5.124   9.853  0.3389 -0.3755 -0.4363
14994SOL    HW257042   9.553   5.184   9.891  0.6329  0.0656 -0.0013
14995SOL     OW57043   5.352   2.865   0.736 -0.2539  0.2768  0.0076
14995SOL    HW157044   5.322   2.772   0.716  2.3850 -0.3085 -1.4572
14995SOL    HW257045   5.373   2.913   0.651 -0.2328  1.7360  0.8119
14996SOL     OW57046   3.348   7.334   5.080 -0.4470 -0.0337 -0.2406
14996SOL    HW157047   3.249   7.341   5.074 -0.5017  0.1211  0.6821
14996SOL    HW257048   3.375   7.238   5.080 -0.5480 -0.0626 -1.1507
14997SOL     OW57049   1.548   1.773   2.351  0.3023  0.2538 -0.2684
14997SOL    HW157050   1.645   1.751   2.362 -0.0316 -1.6187 -0.9138
14997SOL    HW257051   1.520   1.753   2.257 -0.6268  1.1992 -0.2059
14998SOL     OW57052   7.345   0.000   5.795  0.2037  0.0176 -0.2529
14998SOL    HW157053   7.294  -0.019   5.711  0.3466 -0.6713 -0.1803
14998SOL    HW257054   7.414   0.070   5.776 -0.6853  0.8732 -0.3785
14999SOL     OW57055   1.971   8.919   5.171  0.0766 -0.3097 -0.1177
14999SOL    HW157056   1.956   8.833   5.218  2.4415 -0.4850  0.3433
14999SOL    HW257057   2.058   8.916   5.121 -0.0041  1.6520 -0.4328
15000SOL     OW57058   6.385   8.210   7.704 -0.2940  0.6108 -0.4923
15000SOL    HW157059   6.355   8.259   7.786 -0.8620 -0.1289 -0.2465
15000SOL    HW257060   6.478   8.177   7.717 -0.1702  1.0001 -0.3770
15001SOL     OW57061   8.964   1.253   5.265 -0.0095 -0.0390 -0.0475
15001SOL    HW157062   9.062   1.232   5.270 -0.2258 -0.8973  0.9511
15001SOL    HW257063   8.937   1.303   5.348 -0.6465 -0.8509  0.2411
15002SOL     OW57064   3.004   8.499   1.030 -0.5782  0.1966  0.1274
15002SOL    HW157065   2.929   8.565   1.039  1.4660  2.4779  0.8628
15002SOL    HW257066   3.003   8.437   1.108 -1.4228  0.4885  0.3584
15003SOL     OW57067   2.253   2.032   1.558  0.5992  0.3387 -0.6013
15003SOL    HW157068   2.280   2.079   1.642  2.7385  0.0584 -1.1085
15003SOL    HW257069   2.327   1.971   1.529 -0.2928  0.1354 -2.4775
15004SOL     OW57070   5.241   9.403   5.367  0.0615  0.3783  0.3937
15004SOL    HW157071   5.156   9.434   5.324  0.3933 -0.1236 -0.6291
15004SOL    HW257072   5.220   9.332   5.434 -0.2587 -0.2664 -0.3763
15005SOL     OW57073   3.146   7.033   4.906  0.0744 -0.4303  0.1371
15005SOL    HW157074   3.112   7.010   4.997 -0.5021 -0.8719 -0.1895
15005SOL    HW257075   3.145   6.952   4.848  0.6376 -0.1960 -0.1994
15006SOL     OW57076   2.323   7.787   3.847  0.3754  0.3899  0.5281
15006SOL    HW157077   2.269   7.777   3.931 -0.2015  0.3883  0.1573
15006SOL    HW257078   2.350   7.697   3.814 -0.1005  0.3461  0.2565
15007SOL     OW57079   4.775   3.363   8.178  0.4139 -0.0135 -0.1423
15007SOL    HW157080   4.818   3.404   8.257  1.5793 -1.5425  0.0427
15007SOL    HW257081   4.837   3.295   8.137 -0.5986 -0.0344 -1.6925
15008SOL     OW57082   3.415   7.771   2.145 -0.7754  0.7775  0.1267
15008SOL    HW157083   3.505   7.760   2.102 -1.1256  0.5169 -0.5559
15008SOL    HW257084   3.426   7.800   2.240  0.0661 -0.3215  0.3808
15009SOL     OW57085   9.516   8.868   5.329 -0.1998  0.0981  0.2777
15009SOL    HW157086   9.447   8.808   5.370  1.0431 -0.6232  1.3109
15009SOL    HW257087   9.607   8.835   5.351  0.5081  0.0469 -2.5741
15010SOL     OW57088   2.996   9.719   0.583 -0.0384 -0.3547 -0.3057
15010SOL    HW157089   3.024   9.647   0.646 -0.4431 -1.1572 -1.0323
15010SOL    HW257090   3.005   9.808   0.627  3.7917 -0.5452 -0.5565
15011SOL     OW57091   6.922   8.008   0.570 -0.1034  0.3620  0.2189
15011SOL    HW157092   6.991   8.059   0.519 -0.5579  1.3580  0.6018
15011SOL    HW257093   6.858   7.966   0.506  0.0089  0.6402 -0.0773
15012SOL     OW57094   8.403   5.217   6.176 -0.0683 -0.0977  0.2135
15012SOL    HW157095   8.371   5.251   6.087 -0.2910  0.8578  0.6488
15012SOL    HW257096   8.501   5.202   6.172  0.0338  0.5975  0.0039
15013SOL     OW57097   2.807   2.393   9.523 -0.2767  0.2336  0.5260
15013SOL    HW157098   2.828   2.473   9.580  0.9018 -1.3631  2.3932
15013SOL    HW257099   2.721   2.353   9.554 -0.2659  0.0838  0.3585
15014SOL     OW57100   6.129   1.076   2.832 -0.5167 -0.1914  0.0376
15014SOL    HW157101   6.223   1.071   2.798 -0.5865  0.6047 -0.2858
15014SOL    HW257102   6.069   1.025   2.771 -0.1549 -1.5677  0.8027
15015SOL     OW57103   5.633   1.276   3.558 -0.2813  0.2566 -0.2202
15015SOL    HW157104   5.730   1.255   3.562 -0.0805  1.2906  0.6287
15015SOL    HW257105   5.604   1.318   3.644 -1.2543  0.9096 -0.8526
15016SOL     OW57106   0.157   9.899   3.208  0.0946 -0.1901  0.4441
15016SOL    HW157107   0.207   9.983   3.188 -0.4886 -0.1140 -0.7368
15016SOL    HW257108   0.159   9.839   3.128  1.7218 -1.9438  1.7359
15017SOL     OW57109   7.849   0.260   3.589 -0.3788 -0.1724 -0.0660
15017SOL    HW157110   7.868   0.277   3.685 -1.0762  0.2108  0.0091
15017SOL    HW257111   7.914   0.311   3.532 -1.4456  1.4805  0.1783
15018SOL     OW57112   6.009   6.362   5.300 -0.3863 -0.3095 -0.2779
15018SOL    HW157113   5.917   6.322   5.293 -0.8745  0.6804  0.3067
15018SOL    HW257114   6.066   6.304   5.357 -2.2496  1.7320  3.8905
15019SOL     OW57115   5.308   8.153   8.542  0.1208  0.2124  0.1544
15019SOL    HW157116   5.330   8.240   8.499 -1.4811  0.5487 -0.0039
15019SOL    HW257117   5.354   8.079   8.494  0.8177  0.8836 -0.2222
15020SOL     OW57118   0.885   7.446   2.628 -0.1872  1.1457 -0.0238
15020SOL    HW157119   0.811   7.501   2.589  0.2089 -0.4733 -3.3002
15020SOL    HW257120   0.973   7.486   2.603  0.0709  0.0999 -0.8644
15021SOL     OW57121   1.866   2.103   4.326 -0.4014 -0.2126 -0.2853
15021SOL    HW157122   1.933   2.151   4.270  0.3593 -0.4602  0.4141
15021SOL    HW257123   1.907   2.021   4.365 -0.7491  0.2787  1.1328
15022SOL     OW57124   0.881   2.493   8.650  0.0697 -0.7995  0.0066
15022SOL    HW157125   0.880   2.447   8.740 -2.7078  2.8322  1.9621
15022SOL    HW257126   0.949   2.566   8.650 -0.8334  0.0600 -0.3468
15023SOL     OW57127   7.888   8.220   5.386 -0.7369  0.1504  0.1534
15023SOL    HW157128   7.967   8.173   5.346 -0.7116  0.1910  0.1568
15023SOL    HW257129   7.811   8.216   5.322 -0.1651  1.7589 -0.6791
15024SOL     OW57130   2.009   5.868   0.107  0.1929  0.4030 -0.1887
15024SOL    HW157131   2.061   5.953   0.118 -1.9146  1.5761  1.1290
15024SOL    HW257132   1.916   5.882   0.142 -0.4211 -2.2147 -0.7177
15025SOL     OW57133   6.306   7.191   1.639  0.1647  0.3745 -0.0502
15025SOL    HW157134   6.281   7.140   1.721 -0.2966 -0.4865 -0.7140
15025SOL    HW257135   6.405   7.197   1.632  0.2926 -2.1985 -1.0026
15026SOL     OW57136   3.405   4.007   0.187 -0.6321  0.5508 -0.0947
15026SOL    HW157137   3.348   4.058   0.122 -1.0656  0.1395 -0.0368
15026SOL    HW257138   3.353   3.930   0.224  0.5336 -0.8408 -1.3246
15027SOL     OW57139   3.168   6.487   4.005  0.5725  0.4027 -0.4137
15027SOL    HW157140   3.259   6.453   3.980  1.0618  1.4941 -0.1536
15027SOL    HW257141   3.128   6.427   4.074  1.5912  0.5562  0.3307
15028SOL     OW57142   6.772   8.305   0.910  0.1689  0.1230  0.6739
15028SOL    HW157143   6.762   8.286   1.008 -0.1979  0.7175  0.7579
15028SOL    HW257144   6.725   8.234   0.858 -0.7039  0.4717  0.9689
15029SOL     OW57145   8.473   9.304   4.245 -0.0773  0.6164  0.2282
15029SOL    HW157146   8.433   9.357   4.320 -0.2279 -0.2826  0.7882
15029SOL    HW257147   8.478   9.208   4.271  1.8572  0.6125 -0.0852
15030SOL     OW57148   8.075   0.708   5.515  0.0246 -0.0744 -0.2324
15030SOL    HW157149   7.984   0.747   5.523 -0.6815 -1.7783  0.4046
15030SOL    HW257150   8.086   0.668   5.424 -0.3272 -0.9636  0.1104
15031SOL     OW57151   2.455   1.941   8.553  0.2996 -0.2100 -0.4142
15031SOL    HW157152   2.530   1.988   8.599  0.0746  0.1044 -0.3662
15031SOL    HW257153   2.473   1.843   8.550  0.5570 -0.1712 -0.1133
15032SOL     OW57154   3.674   2.374   5.479  0.0944  0.2181 -0.4620
15032SOL    HW157155   3.641   2.414   5.565 -0.2115 -0.0616 -0.4499
15032SOL    HW257156   3.597   2.364   5.416  0.1852 -0.2917 -0.4886
15033SOL     OW57157   0.382   7.840   2.654 -0.0151  0.5629  0.0682
15033SOL    HW157158   0.409   7.931   2.624  2.3029 -0.3713 -0.7978
15033SOL    HW257159   0.452   7.802   2.715 -0.0528 -1.3213 -1.0043
15034SOL     OW57160   3.337   8.071   3.167  0.2836 -0.0267  0.2702
15034SOL    HW157161   3.400   8.055   3.091  0.6981 -1.2967  0.8698
15034SOL    HW257162   3.243   8.052   3.136  0.6458 -2.4499  0.6102
15035SOL     OW57163   0.954   7.708   0.518  0.1190  0.4890 -0.6544
15035SOL    HW157164   1.015   7.699   0.439  0.0625 -0.9400 -0.5564
15035SOL    HW257165   0.897   7.626   0.525 -0.5724  1.0366  0.2967
15036SOL     OW57166   5.211   9.771   1.934 -0.4597  0.0231  0.0910
15036SOL    HW157167   5.172   9.858   1.966  0.3696  1.2266 -2.0229
15036SOL    HW257168   5.140   9.701   1.933 -1.4072  0.9488  0.7942
15037SOL     OW57169   9.998   2.812   4.787 -0.0904  0.2148 -0.5237
15037SOL    HW157170   9.928   2.744   4.808 -0.6855  1.1689  0.6547
15037SOL    HW257171   9.969   2.866   4.708 -0.9557  0.9732  0.3018
15038SOL     OW57172   4.662   6.437   4.236 -0.0397  0.1724  0.1826
15038SOL    HW157173   4.691   6.440   4.140  0.8595 -0.4764  0.4300
15038SOL    HW257174   4.619   6.350   4.255 -1.3967  0.8029  0.0408
15039SOL     OW57175   5.659   5.400   5.624  0.2004 -0.3347  0.5102
15039SOL    HW157176   5.630   5.476   5.682 -1.7034 -0.5960 -0.0708
15039SOL    HW257177   5.667   5.431   5.529 -3.4859 -1.5203 -0.2302
15040SOL     OW57178   3.639   7.987   1.431 -0.4810 -0.0833 -0.3370
15040SOL    HW157179   3.619   8.061   1.494 -1.0848 -0.6521  0.1512
15040SOL    HW257180   3.738   7.969   1.431 -0.2660  1.0616 -0.8565
15041SOL     OW57181   0.605   7.035   8.351  0.3154  0.6790  0.0194
15041SOL    HW157182   0.527   7.028   8.289  1.6190  0.6895 -1.6770
15041SOL    HW257183   0.582   6.996   8.439 -0.7382 -1.7802 -1.3042
15042SOL     OW57184   3.973   1.742   6.768 -0.2533 -0.0911 -0.7515
15042SOL    HW157185   3.887   1.761   6.721 -0.1487 -1.2563 -1.4258
15042SOL    HW257186   4.047   1.737   6.702  0.2862  0.5714 -0.2067
15043SOL     OW57187   7.380   1.076   3.575 -0.2636 -0.4883 -0.8308
15043SOL    HW157188   7.396   1.148   3.507  1.3530 -1.5645 -1.6188
15043SOL    HW257189   7.435   1.095   3.656 -0.5950 -0.3005 -0.6524
15044SOL     OW57190   0.894   1.170   9.891 -0.0987 -0.0202  0.8230
15044SOL    HW157191   0.922   1.182   9.796  1.3402  0.2200  1.2742
15044SOL    HW257192   0.974   1.151   9.948 -1.0954 -1.4062  1.7968
15045SOL     OW57193   1.938   7.520   0.842 -0.2140  0.1400  0.2221
15045SOL    HW157194   1.906   7.583   0.912 -0.5593 -0.1203  0.2984
15045SOL    HW257195   1.949   7.429   0.882  1.3528  0.3892  0.3882
15046SOL     OW57196   7.157   3.309   8.146 -0.1813 -0.3978 -0.1088
15046SOL    HW157197   7.230   3.281   8.208 -1.4490  0.6675  1.9277
15046SOL    HW257198   7.086   3.239   8.144 -0.5775 -0.0118  0.3726
15047SOL     OW57199   2.593   8.381   4.578  0.1963 -1.1549  0.4937
15047SOL    HW157200   2.562   8.461   4.527  0.7906  0.5506  2.7053
15047SOL    HW257201   2.651   8.324   4.520 -3.1069 -1.8676 -2.1975
15048SOL     OW57202   6.954   2.303   6.576 -0.5530 -0.7130 -0.2320
15048SOL    HW157203   6.948   2.214   6.530  2.5447 -1.0422 -0.0706
15048SOL    HW257204   6.928   2.375   6.512  3.5400 -1.1741 -2.5834
15049SOL     OW57205   1.637   0.539   4.806  0.4767 -0.0875 -0.1089
15049SOL    HW157206   1.733   0.538   4.780 -0.1965 -1.8269 -2.6887
15049SOL    HW257207   1.621   0.472   4.879  0.9975 -0.7593 -0.6069
15050SOL     OW57208   6.279   0.083   2.648  0.1340  0.3150 -0.5273
15050SOL    HW157209   6.290  -0.015   2.660 -1.2647  0.3774  1.5831
15050SOL    HW257210   6.346   0.131   2.705 -1.4435  0.5759  1.1585
15051SOL     OW57211   3.983   8.243   8.793 -0.3102  0.0885  0.2543
15051SOL    HW157212   3.985   8.176   8.867  0.5468  1.2527  1.3098
15051SOL    HW257213   3.928   8.322   8.820 -0.2934  0.3684 -0.4954
15052SOL     OW57214   4.340   9.080   6.581 -0.9515 -0.1385 -1.1807
15052SOL    HW157215   4.267   9.145   6.601 -0.3561  0.2839 -0.3791
15052SOL    HW257216   4.306   8.987   6.596 -1.4533  0.0324 -1.2312
15053SOL     OW57217   4.947   9.858   7.331  0.0869  0.0591 -0.1357
15053SOL    HW157218   4.889   9.788   7.372 -0.8920  0.0302 -1.5240
15053SOL    HW257219   5.010   9.814   7.267  0.5052  0.2842  0.1218
15054SOL     OW57220   3.888   6.851   1.319 -0.2519  0.4078 -0.4605
15054SOL    HW157221   3.891   6.808   1.409 -1.2689  1.7051  0.2163
15054SOL    HW257222   3.867   6.949   1.330  0.8191  0.8280 -2.0339
15055SOL     OW57223   2.937   8.384   0.239 -0.3425 -0.4883  0.2664
15055SOL    HW157224   2.908   8.405   0.332 -0.1908  0.4090  0.1224
15055SOL    HW257225   3.007   8.450   0.210 -0.7239 -0.4645 -0.6395
15056SOL     OW57226   8.925   9.292   6.499 -0.1382  0.4610 -0.1798
15056SOL    HW157227   8.825   9.284   6.508 -0.5825  2.3448 -2.7427
15056SOL    HW257228   8.948   9.386   6.478  2.0384 -0.3706 -1.5906
15057SOL     OW57229   4.948   6.182   5.932 -0.1308 -0.3517  0.0598
15057SOL    HW157230   4.854   6.173   5.964 -0.2774 -0.9578 -0.5388
15057SOL    HW257231   5.011   6.145   6.000 -0.5421 -3.1795 -1.0658
15058SOL     OW57232   2.952   0.824   9.854 -0.4063  0.1112 -0.2818
15058SOL    HW157233   2.936   0.879   9.936  1.9556 -1.3957  1.2554
15058SOL    HW257234   3.035   0.855   9.809  1.0331 -2.2371  0.6870
15059SOL     OW57235   1.221   8.334   9.092 -0.0617 -0.0850  0.2824
15059SOL    HW157236   1.169   8.250   9.106  0.9345 -0.8439 -0.4839
15059SOL    HW257237   1.222   8.357   8.995  1.3999 -0.3357  0.2218
15060SOL     OW57238   4.317   1.981   0.706 -0.0758  0.5273  0.4370
15060SOL    HW157239   4.234   2.014   0.661 -0.0208 -0.6785 -0.5577
15060SOL    HW257240   4.329   1.883   0.689  2.9294  1.1595 -1.6619
15061SOL     OW57241   1.945   0.706   0.847  0.2498 -0.0411 -0.3640
15061SOL    HW157242   1.933   0.606   0.848  0.0382 -0.0263 -1.1199
15061SOL    HW257243   1.972   0.735   0.755 -0.8657  0.7231 -0.4596
15062SOL     OW57244   3.154   9.773   3.126 -0.3150 -0.6323  0.3285
15062SOL    HW157245   3.074   9.736   3.173 -0.3472 -0.5642  0.3272
15062SOL    HW257246   3.149   9.873   3.124  0.0919 -0.5930  0.9040
15063SOL     OW57247   6.617   2.403   1.938  0.4399  0.0088 -0.4730
15063SOL    HW157248   6.601   2.309   1.966  0.9722  0.0279 -0.0789
15063SOL    HW257249   6.662   2.405   1.849  2.3104 -0.1942  0.4295
15064SOL     OW57250   4.499   8.959   9.473 -0.1605  0.2513  0.0133
15064SOL    HW157251   4.528   8.974   9.568 -1.4589 -0.8265  0.6104
15064SOL    HW257252   4.500   8.861   9.454 -2.3266  0.2674 -0.2769
15065SOL     OW57253   9.746   0.680   3.672  0.0846 -0.2906 -0.5951
15065SOL    HW157254   9.843   0.674   3.695 -0.1751 -0.1582  0.5372
15065SOL    HW257255   9.726   0.770   3.633  0.4962 -0.4654 -1.2125
15066SOL     OW57256   6.444   0.827   3.566  0.2754  0.2721 -0.1761
15066SOL    HW157257   6.467   0.905   3.509 -0.1175  0.9384  0.5636
15066SOL    HW257258   6.528   0.788   3.605  0.4213  0.7210 -0.0386
15067SOL     OW57259   5.326   6.018   6.118  0.3155  0.1668  0.0631
15067SOL    HW157260   5.392   5.950   6.150 -0.4216 -1.4037 -1.7085
15067SOL    HW257261   5.250   6.023   6.182  2.2642  2.2724  2.3342
15068SOL     OW57262   3.311   5.013   0.502 -0.4139  0.0884 -0.0576
15068SOL    HW157263   3.285   4.950   0.576 -2.8491  0.4814 -0.5084
15068SOL    HW257264   3.304   5.107   0.534 -1.6839  0.2676 -0.8259
15069SOL     OW57265   1.632   4.701   1.095  0.2757  0.2119  0.8692
15069SOL    HW157266   1.672   4.633   1.157 -2.8670 -1.3325  1.2720
15069SOL    HW257267   1.626   4.789   1.143  2.5307  0.3279  1.0093
15070SOL     OW57268   5.622   6.904   9.136  0.1338 -0.2989  0.3570
15070SOL    HW157269   5.565   6.976   9.176 -0.9633 -1.0623  0.2039
15070SOL    HW257270   5.688   6.873   9.204 -0.8779 -0.7006  1.1760
15071SOL     OW57271   4.678   2.797   0.734  0.4568  0.0079 -0.1926
15071SOL    HW157272   4.643   2.719   0.683 -1.2486  0.3031  0.4807
15071SOL    HW257273   4.737   2.852   0.675 -0.0767 -0.6051 -1.3132
15072SOL     OW57274   6.966   7.114   1.516 -0.0781  0.3660 -0.3256
15072SOL    HW157275   7.055   7.145   1.550  0.6048 -1.3116 -0.5095
15072SOL    HW257276   6.930   7.043   1.577  0.3788 -1.4780 -2.1305
15073SOL     OW57277   2.487   1.989   7.490 -0.4308  0.3853 -0.1287
15073SOL    HW157278   2.390   2.014   7.493 -0.0143  1.9597  1.3669
15073SOL    HW257279   2.542   2.068   7.519  1.3545 -0.2193 -1.7880
15074SOL     OW57280   1.760   8.169   3.168  0.2116 -0.4507 -0.3507
15074SOL    HW157281   1.726   8.215   3.086  0.6115 -1.9419 -1.3615
15074SOL    HW257282   1.859   8.157   3.160  0.7411  2.1282  1.7117
15075SOL     OW57283   4.620   6.180   3.647  0.2148 -0.3622  0.2514
15075SOL    HW157284   4.689   6.251   3.655  0.4042 -0.4046 -0.8492
15075SOL    HW257285   4.551   6.208   3.581  0.8625 -1.6337 -0.9970
15076SOL     OW57286   2.968   8.694   0.359  0.3365 -0.0480  0.3312
15076SOL    HW157287   2.917   8.709   0.275  0.5510 -1.1729 -0.0027
15076SOL    HW257288   3.066   8.707   0.342  0.3941 -0.4219  0.3680
15077SOL     OW57289   0.948   5.267   2.905 -0.1311  0.9124 -0.4507
15077SOL    HW157290   0.911   5.353   2.870 -1.6256 -0.0089 -1.1343
15077SOL    HW257291   0.874   5.202   2.920  0.8287  0.2089  1.4352
15078SOL     OW57292   6.671   4.363   8.794  0.3918 -0.4190 -0.2237
15078SOL    HW157293   6.601   4.361   8.722 -0.0966  2.3736  0.1400
15078SOL    HW257294   6.754   4.318   8.760 -0.1544  0.0025 -2.1918
15079SOL     OW57295   4.068   5.586   2.615  0.4458  0.1858  0.1052
15079SOL    HW157296   4.099   5.672   2.655  0.2281 -0.6814  2.2161
15079SOL    HW257297   4.008   5.539   2.680 -1.6628 -0.2955 -2.0869
15080SOL     OW57298   2.851   6.191   4.004 -0.1394  0.0232  0.0584
15080SOL    HW157299   2.937   6.156   3.966 -1.2557 -1.0672 -1.5089
15080SOL    HW257300   2.775   6.140   3.966 -1.5715  1.7224  0.6083
15081SOL     OW57301   1.122   5.773   1.576  0.0964 -0.4591  0.2625
15081SOL    HW157302   1.091   5.721   1.496  0.0162 -1.3574  0.8618
15081SOL    HW257303   1.042   5.798   1.632 -0.1746  2.7761 -1.4411
15082SOL     OW57304   0.394   9.590   1.491  0.2725 -0.0583 -0.5475
15082SOL    HW157305   0.372   9.568   1.586 -2.2409 -2.3589 -1.5955
15082SOL    HW257306   0.396   9.506   1.437  2.0741  1.1844 -2.4821
15083SOL     OW57307   9.294   9.081   3.240  0.5240 -0.0036  0.7150
15083SOL    HW157308   9.245   9.168   3.230  0.4247 -0.3655 -2.3928
15083SOL    HW257309   9.301   9.058   3.337 -5.0763  0.2683  1.3221
15084SOL     OW57310   7.842   4.059   4.008 -0.2854 -0.1602  0.3094
15084SOL    HW157311   7.889   4.143   3.982 -2.0495  0.8174  0.2407
15084SOL    HW257312   7.826   4.003   3.927  0.5066 -0.3668  0.2945
15085SOL     OW57313   5.688   0.504   0.835 -0.4053 -0.1548 -0.5314
15085SOL    HW157314   5.724   0.425   0.886  0.9046  0.5225 -0.3749
15085SOL    HW257315   5.736   0.510   0.747 -0.6849  0.3275 -0.6492
15086SOL     OW57316   1.715   2.122   1.482  0.2467  0.1202  0.2392
15086SOL    HW157317   1.721   2.219   1.462 -0.2070  0.1392  0.1716
15086SOL    HW257318   1.705   2.071   1.397 -1.0133  0.1441  0.3557
15087SOL     OW57319   3.781   1.003   4.307  0.0781 -0.0206 -0.5312
15087SOL    HW157320   3.846   1.060   4.256  0.0674 -0.9020 -1.5509
15087SOL    HW257321   3.720   1.062   4.361  0.4964  0.9024 -1.0541
15088SOL     OW57322   0.213   7.601   2.732  0.3545 -0.4262 -0.1907
15088SOL    HW157323   0.217   7.625   2.829  0.5365 -1.7860  0.1488
15088SOL    HW257324   0.263   7.668   2.678  0.7593  0.0047  0.7248
15089SOL     OW57325   6.912   5.642   2.222  0.0403  0.3227 -0.3789
15089SOL    HW157326   6.945   5.699   2.146 -0.1704 -0.1576 -0.8400
15089SOL    HW257327   6.817   5.616   2.205  0.5389 -1.2882 -0.8789
15090SOL     OW57328   6.655   9.580   2.297 -0.1149 -0.3557 -0.3496
15090SOL    HW157329   6.580   9.646   2.286  0.5977  0.4120 -0.7273
15090SOL    HW257330   6.619   9.494   2.331 -1.0752  0.2228  0.1300
15091SOL     OW57331   9.062   4.597   7.216  0.5414  0.7007 -0.2075
15091SOL    HW157332   9.130   4.556   7.155  0.3625 -0.4498  0.3529
15091SOL    HW257333   9.106   4.663   7.276  1.1391  0.0751  0.0437
15092SOL     OW57334   0.208   8.366   4.207 -0.0099  0.3135  0.0008
15092SOL    HW157335   0.136   8.393   4.271 -0.6575  1.5015 -1.2082
15092SOL    HW257336   0.181   8.392   4.114  0.6010 -2.0116 -0.8646
15093SOL     OW57337   9.577   5.885   7.067  0.2158  0.3349 -0.1716
15093SOL    HW157338   9.580   5.803   7.009  1.0418  1.7000 -2.0895
15093SOL    HW257339   9.621   5.865   7.155  0.0248 -1.3980 -0.4548
15094SOL     OW57340   6.039   8.874   0.429  0.7937 -0.0088  0.0579
15094SOL    HW157341   6.105   8.865   0.354  0.0274 -0.3291 -0.5839
15094SOL    HW257342   6.045   8.967   0.467  2.4553 -0.4153  0.8099
15095SOL     OW57343   3.595   0.322   3.011  0.7365 -0.0040  0.0064
15095SOL    HW157344   3.619   0.377   2.931  2.1073  1.3628  1.3201
15095SOL    HW257345   3.529   0.371   3.067  0.5671 -0.5048  0.2494
15096SOL     OW57346   5.402   5.198   7.071  0.1594 -0.2450  0.2010
15096SOL    HW157347   5.416   5.103   7.043 -1.7074 -0.5362  0.2184
15096SOL    HW257348   5.408   5.204   7.170 -1.7100 -0.6979  0.3472
15097SOL     OW57349   4.675   5.267   1.570  0.0445 -0.1849  0.1770
15097SOL    HW157350   4.590   5.281   1.620 -0.5200 -0.9789 -0.5528
15097SOL    HW257351   4.683   5.334   1.497  0.2426  0.1449  0.5001
15098SOL     OW57352   3.493   4.122   8.917 -0.2891  0.1391  0.6896
15098SOL    HW157353   3.417   4.090   8.861  1.0599 -1.1534 -0.4391
15098SOL    HW257354   3.540   4.043   8.957  1.8330  0.7741 -0.4575
15099SOL     OW57355   2.945   7.810   2.039  0.4764 -0.1057  0.1230
15099SOL    HW157356   2.871   7.797   1.973 -0.2396  1.6092  0.5522
15099SOL    HW257357   3.029   7.769   2.004  0.0538  0.5895 -1.7450
15100SOL     OW57358   1.015   1.234   3.132  0.4057 -0.0937 -0.2056
15100SOL    HW157359   1.013   1.309   3.197  1.7878 -1.0358  0.9667
15100SOL    HW257360   1.098   1.240   3.077 -0.0817 -0.0757 -0.9399
15101SOL     OW57361   2.370   7.735   8.330  0.5234 -0.0937  0.5586
15101SOL    HW157362   2.320   7.759   8.412 -0.8795 -0.6622 -0.1109
15101SOL    HW257363   2.331   7.651   8.290 -0.1722  1.3013 -1.7991
15102SOL     OW57364   0.101   6.322   1.723  0.2153  0.3780 -0.2374
15102SOL    HW157365   0.176   6.304   1.660  1.5706  0.3486  1.3465
15102SOL    HW257366   0.061   6.412   1.703  0.0725 -0.0011 -1.6632
15103SOL     OW57367   1.054   7.191   9.617  0.3789 -0.2026 -0.7230
15103SOL    HW157368   1.012   7.222   9.532  2.5480  0.6536 -1.5397
15103SOL    HW257369   1.012   7.106   9.646 -2.1024  0.7916 -1.3023
15104SOL     OW57370   1.870   7.505   4.129 -0.1771  0.3602  0.0631
15104SOL    HW157371   1.790   7.521   4.187 -1.2584 -1.0266 -1.0105
15104SOL    HW257372   1.927   7.587   4.127 -1.0607  1.0211  1.6340
15105SOL     OW57373   5.200   1.418   3.485 -0.0679 -0.2847  0.4088
15105SOL    HW157374   5.112   1.376   3.462  0.3946 -0.8949 -0.2636
15105SOL    HW257375   5.266   1.346   3.505  0.4819  0.1552  0.1776
15106SOL     OW57376   1.188   6.147   3.407 -0.7748  0.4514 -0.2911
15106SOL    HW157377   1.097   6.132   3.445 -0.2220 -0.2286  0.7748
15106SOL    HW257378   1.257   6.110   3.469  0.1737 -0.0450 -1.6182
15107SOL     OW57379   7.479   0.031   4.794  0.2818 -0.7234  0.4891
15107SOL    HW157380   7.559   0.041   4.736  1.5387 -0.0907  2.2717
15107SOL    HW257381   7.508   0.001   4.885 -1.5811 -1.1842  0.9422
15108SOL     OW57382   0.879   6.552   9.845  0.4804 -0.1750  0.1057
15108SOL    HW157383   0.845   6.577   9.754 -0.5324 -0.9829  0.2640
15108SOL    HW257384   0.835   6.468   9.876 -0.9026  1.3215  2.3413
15109SOL     OW57385   4.904   6.913   2.052  0.4388  0.3266  0.0301
15109SOL    HW157386   4.862   6.843   1.994  0.6141  0.8993 -0.8112
15109SOL    HW257387   5.004   6.908   2.043  0.4592  0.5314  0.1361
15110SOL     OW57388   9.985   6.161   4.775  0.0085  0.3954  0.0363
15110SOL    HW157389  10.055   6.105   4.820  0.4152  0.1133 -0.9405
15110SOL    HW257390   9.954   6.232   4.838 -0.3850 -0.8148  1.2392
15111SOL     OW57391   6.896   8.015   6.989  0.0820 -0.4396 -0.1152
15111SOL    HW157392   6.862   8.103   6.956  0.5303 -0.0859  0.3720
15111SOL    HW257393   6.836   7.980   7.060  1.1788  0.5780  1.3323
15112SOL     OW57394   5.499   7.978   4.134  0.1655 -0.1169 -0.5780
15112SOL    HW157395   5.591   8.014   4.123  0.1024 -0.0257 -0.8103
15112SOL    HW257396   5.502   7.878   4.135  0.4622 -0.1063  1.1103
15113SOL     OW57397   2.823   8.152   1.210  0.5165  0.3155 -0.8580
15113SOL    HW157398   2.901   8.096   1.181 -0.2953 -1.7902  0.8656
15113SOL    HW257399   2.764   8.170   1.133  1.2379 -0.4980 -1.6161
15114SOL     OW57400   1.875   7.681   1.041 -0.1864  0.9110 -0.1725
15114SOL    HW157401   1.865   7.781   1.040 -2.1472  0.7347  0.1581
15114SOL    HW257402   1.824   7.643   1.117  2.3370 -0.2054  1.0330
15115SOL     OW57403   9.262   2.058   3.473 -0.0068  0.2497  0.1124
15115SOL    HW157404   9.180   2.006   3.498  0.9276 -1.0728  0.4706
15115SOL    HW257405   9.275   2.132   3.538 -0.7901  0.3289  0.1912
15116SOL     OW57406   5.986   0.768   2.921 -0.4666  0.1292 -0.6811
15116SOL    HW157407   5.913   0.740   2.983  0.3413  0.3587  0.3909
15116SOL    HW257408   5.955   0.759   2.827 -2.2188  1.1908 -0.2240
15117SOL     OW57409   6.574   9.808   1.150  0.4646  0.0519 -0.3613
15117SOL    HW157410   6.579   9.848   1.059  0.9488  0.2844 -0.2361
15117SOL    HW257411   6.663   9.819   1.196 -0.9632  3.9147  1.7989
15118SOL     OW57412   6.012   8.466   0.232  0.3090  0.4223 -0.0982
15118SOL    HW157413   6.042   8.494   0.323 -2.1792 -1.9455  1.5369
15118SOL    HW257414   5.943   8.531   0.199  1.0176  1.1338 -0.2041
15119SOL     OW57415   3.262   8.408   4.218  0.2165 -0.0909 -0.1291
15119SOL    HW157416   3.204   8.396   4.137  0.0416  1.6474 -0.2861
15119SOL    HW257417   3.352   8.369   4.200  0.2661  0.5185 -1.2910
15120SOL     OW57418   1.183   0.888   5.672 -0.8942 -0.5184 -0.6789
15120SOL    HW157419   1.258   0.949   5.646  0.0725 -0.7240  1.5094
15120SOL    HW257420   1.098   0.922   5.634 -0.2230  1.7292 -0.2385
15121SOL     OW57421   6.132   4.250   4.600 -0.2324  0.5375  0.4316
15121SOL    HW157422   6.182   4.235   4.686  0.6469  1.3019  0.0651
15121SOL    HW257423   6.037   4.272   4.620 -0.0523  0.6330  1.2047
15122SOL     OW57424   1.464   8.958   3.243 -0.2304  0.3273 -0.1968
15122SOL    HW157425   1.415   9.038   3.278 -0.4834 -0.0872  0.4036
15122SOL    HW257426   1.436   8.877   3.294  0.9446  0.0596  0.0437
15123SOL     OW57427   1.277   1.468   4.099 -0.4849  0.6625 -0.2730
15123SOL    HW157428   1.377   1.463   4.110 -0.5038  0.3637 -0.2350
15123SOL    HW257429   1.253   1.438   4.007 -0.5313  0.8569 -0.3252
15124SOL     OW57430   3.574   2.836   4.266 -0.6568 -0.2407 -0.4098
15124SOL    HW157431   3.517   2.753   4.269  1.3880 -1.6950 -0.2187
15124SOL    HW257432   3.568   2.883   4.354 -0.0447 -1.4509  0.2934
15125SOL     OW57433   2.995   5.243   7.248  0.3788  0.2617 -0.2423
15125SOL    HW157434   3.019   5.324   7.302 -0.5353 -0.2132  0.8988
15125SOL    HW257435   3.068   5.175   7.255 -1.3793 -1.3771  3.6135
15126SOL     OW57436   2.979   3.902   7.750 -0.3756 -0.5897 -0.4187
15126SOL    HW157437   3.033   3.962   7.809  1.4883 -0.0180 -2.6126
15126SOL    HW257438   2.882   3.927   7.757  0.3421  2.7729 -1.3132
15127SOL     OW57439   8.463   7.153   7.482 -0.0833 -0.2678  0.2748
15127SOL    HW157440   8.531   7.115   7.419 -0.2096  0.1487 -0.1177
15127SOL    HW257441   8.372   7.140   7.445 -0.4760 -3.5106  2.2083
15128SOL     OW57442   1.936   1.130   1.531 -0.0659  0.5000 -0.5240
15128SOL    HW157443   1.938   1.056   1.463  0.2554  0.2960 -0.2946
15128SOL    HW257444   1.900   1.095   1.617 -1.5958  1.0489 -0.9266
15129SOL     OW57445   1.475   3.659   4.314  0.1248 -0.1627  0.5304
15129SOL    HW157446   1.504   3.657   4.410 -0.8536 -1.8235  0.8147
15129SOL    HW257447   1.379   3.686   4.309  0.2589  0.2227 -0.0239
15130SOL     OW57448   6.503   7.076   1.871 -0.6114 -0.3768  0.0654
15130SOL    HW157449   6.455   6.990   1.856 -1.4723 -0.0495  0.8703
15130SOL    HW257450   6.576   7.086   1.803  1.2684 -2.9979  1.6302
15131SOL     OW57451   4.174   8.368   1.857 -0.1356 -0.1840 -0.2389
15131SOL    HW157452   4.160   8.363   1.956 -0.7856 -0.6670 -0.3578
15131SOL    HW257453   4.143   8.458   1.824  1.1085  0.4058  0.1587
15132SOL     OW57454   6.885   9.058   9.581 -0.2905 -0.5575  0.6693
15132SOL    HW157455   6.811   9.123   9.599  0.7414  1.1180 -0.9559
15132SOL    HW257456   6.966   9.085   9.635 -0.0261 -0.8260  0.4067
15133SOL     OW57457   5.258   3.120   0.817 -0.2428 -0.2563 -0.9863
15133SOL    HW157458   5.163   3.091   0.821 -0.3592  0.3022  3.2637
15133SOL    HW257459   5.317   3.040   0.809 -0.9569 -0.8374 -0.5271
15134SOL     OW57460   4.070   8.132   1.765 -0.4769 -0.5178  0.3586
15134SOL    HW157461   4.069   8.070   1.844 -1.7457 -0.0546  0.7284
15134SOL    HW257462   4.106   8.221   1.793  0.7880 -0.9007 -0.0305
15135SOL     OW57463   4.135   5.857   2.728  0.4689 -0.2321 -0.2607
15135SOL    HW157464   4.197   5.935   2.738  1.7303 -0.7573 -3.4502
15135SOL    HW257465   4.047   5.888   2.692  1.1888 -0.3087 -2.1504
15136SOL     OW57466   7.138   1.444   3.389  0.0978 -0.0744 -0.1035
15136SOL    HW157467   7.066   1.410   3.328 -0.0529  0.6160 -0.3127
15136SOL    HW257468   7.194   1.511   3.340  0.0192  0.4328  0.5058
15137SOL     OW57469   3.832   2.298   7.117 -0.0452 -0.3157  0.0896
15137SOL    HW157470   3.861   2.323   7.209  1.4894 -1.3317 -0.1028
15137SOL    HW257471   3.849   2.374   7.054 -1.0382  0.3536  0.6241
15138SOL     OW57472   3.934   3.814   3.160 -0.1693  0.1517  0.0364
15138SOL    HW157473   3.929   3.850   3.067 -0.4759  1.5576  0.5818
15138SOL    HW257474   4.007   3.861   3.210 -0.8547  0.3040  0.8955
15139SOL     OW57475   6.274   8.068   5.177  0.3399 -0.2880  0.3719
15139SOL    HW157476   6.195   8.116   5.216 -0.9656 -1.7367 -0.4453
15139SOL    HW257477   6.333   8.036   5.251  0.4911  1.3174  0.9757
15140SOL     OW57478   6.136   5.039   7.489 -0.4945 -0.2562  0.0923
15140SOL    HW157479   6.175   5.111   7.431 -0.2531 -0.9610 -0.6367
15140SOL    HW257480   6.037   5.037   7.478 -0.6314  0.7939  1.0816
15141SOL     OW57481   7.877   9.536   3.642  0.3608 -0.0445 -0.1458
15141SOL    HW157482   7.934   9.607   3.684 -0.3051  1.0798 -1.1181
15141SOL    HW257483   7.913   9.515   3.550 -0.9348  0.8768 -0.8795
15142SOL     OW57484   3.232   7.620   2.339  0.3222 -0.1818 -0.0812
15142SOL    HW157485   3.228   7.682   2.261 -0.5006  0.0667  0.1553
15142SOL    HW257486   3.246   7.673   2.423 -0.1595 -0.3356  0.0959
15143SOL     OW57487   3.716   5.531   4.997 -0.0783  0.2614  0.1089
15143SOL    HW157488   3.749   5.539   4.903 -0.8179 -0.6582 -0.2342
15143SOL    HW257489   3.763   5.456   5.043 -0.0755  0.3929  0.3255
15144SOL     OW57490   3.914   7.928   7.015 -0.4686 -0.2228 -0.3207
15144SOL    HW157491   3.828   7.883   7.039 -0.6256  0.1930 -0.0880
15144SOL    HW257492   3.989   7.861   7.015 -0.5115 -0.2843  1.0857
15145SOL     OW57493   3.966   3.563   7.633 -0.0314 -0.0659  0.1134
15145SOL    HW157494   4.028   3.548   7.710  0.2372  1.1555  0.1401
15145SOL    HW257495   3.963   3.660   7.611  0.0967 -0.4349 -1.5943
15146SOL     OW57496   5.443   9.371   6.586 -0.0548 -0.5030  0.6018
15146SOL    HW157497   5.407   9.297   6.643  3.3586 -1.7337  1.3306
15146SOL    HW257498   5.469   9.335   6.497  1.7561 -0.2551  1.0055
15147SOL     OW57499   5.547   6.328   0.709 -0.4131 -0.7871  0.1765
15147SOL    HW157500   5.631   6.325   0.656 -1.0914  1.5713 -1.0735
15147SOL    HW257501   5.499   6.240   0.700  0.5450 -1.1747 -1.3186
15148SOL     OW57502   7.029   8.097   4.507  0.3638  0.4735 -0.0939
15148SOL    HW157503   6.981   8.040   4.573 -0.0480  1.0384  0.1002
15148SOL    HW257504   7.124   8.110   4.536 -0.1135  1.6203  0.9568
15149SOL     OW57505   3.538   6.871   5.916  0.1772 -0.2013  0.1745
15149SOL    HW157506   3.592   6.922   5.984  0.2481  0.0127 -0.0435
15149SOL    HW257507   3.538   6.774   5.941 -0.9039  0.0623  1.2185
15150SOL     OW57508   7.204   4.030   8.987 -0.0557  0.3480  0.2186
15150SOL    HW157509   7.298   4.045   9.019 -0.1982  0.1383  0.7498
15150SOL    HW257510   7.193   4.070   8.896  1.1364 -1.3987 -0.7359
15151SOL     OW57511   1.625   0.088   1.441 -0.4246 -0.5035 -0.2644
15151SOL    HW157512   1.627   0.010   1.380 -0.6509 -0.5290 -0.2385
15151SOL    HW257513   1.665   0.168   1.395  0.6221 -0.8519  0.0186
15152SOL     OW57514   4.623   6.703   2.241 -0.4007  0.4082  0.0167
15152SOL    HW157515   4.642   6.700   2.143 -0.6392  0.7787 -0.0444
15152SOL    HW257516   4.595   6.795   2.267  1.3629  0.7619  0.7620
15153SOL     OW57517   3.567   7.426   2.796  0.8761  0.6316  0.7976
15153SOL    HW157518   3.495   7.374   2.749  2.8829 -1.6117  0.1023
15153SOL    HW257519   3.573   7.518   2.757 -0.0159  0.0417 -0.7668
15154SOL     OW57520   5.722   5.863   8.819  0.1054  0.2275  0.1490
15154SOL    HW157521   5.814   5.845   8.783 -0.7119 -0.8717 -1.4300
15154SOL    HW257522   5.655   5.810   8.768 -1.2001 -0.7489  2.8065
15155SOL     OW57523   6.913   6.794   6.318  0.0487 -0.3256 -0.0465
15155SOL    HW157524   6.924   6.867   6.386 -2.8359  1.4943 -1.4037
15155SOL    HW257525   6.994   6.792   6.259 -0.7225  3.4171 -1.4086
15156SOL     OW57526   6.459   0.230   5.458  0.2602  0.3309  0.3285
15156SOL    HW157527   6.438   0.276   5.544 -2.1576  0.9607 -0.5618
15156SOL    HW257528   6.479   0.133   5.476  1.0350  0.7304  1.7157
15157SOL     OW57529   4.877   4.884   6.740 -0.0275  0.2392 -0.6658
15157SOL    HW157530   4.944   4.916   6.673  1.0217 -0.8766 -0.1604
15157SOL    HW257531   4.915   4.891   6.832 -1.0558  0.7195 -0.2618
15158SOL     OW57532   6.593   2.954   4.391 -0.5432 -0.1370  0.3236
15158SOL    HW157533   6.521   3.008   4.348  0.9717  1.2708 -0.5076
15158SOL    HW257534   6.670   2.945   4.328 -1.1294 -4.1586  0.0490
15159SOL     OW57535   0.122   8.135   8.471  0.5604 -0.2593  0.3183
15159SOL    HW157536   0.157   8.123   8.564 -2.1913  1.4804  1.6610
15159SOL    HW257537   0.036   8.085   8.461  0.4184  0.2362 -0.9934
15160SOL     OW57538   6.444   8.418   3.586  0.3054  0.2082  0.7594
15160SOL    HW157539   6.541   8.403   3.609  0.5218 -0.1466 -0.3320
15160SOL    HW257540   6.387   8.389   3.662  1.0372 -0.2903  1.1226
15161SOL     OW57541   8.240   7.949   0.062  0.5503 -0.2316 -0.5101
15161SOL    HW157542   8.169   8.010   0.026  0.4880  0.6779  1.1316
15161SOL    HW257543   8.196   7.871   0.107  0.6272 -0.8584 -1.4949
15162SOL     OW57544   3.717   2.395   4.175  0.2923  0.0208  0.0687
15162SOL    HW157545   3.793   2.428   4.231  2.7876 -2.6998 -1.6096
15162SOL    HW257546   3.669   2.322   4.224 -1.2933  1.7035  1.1066
15163SOL     OW57547   3.892   5.428   3.667 -0.1555 -0.6819  0.9357
15163SOL    HW157548   3.797   5.402   3.680 -0.7610  0.5143 -1.0761
15163SOL    HW257549   3.930   5.459   3.754 -1.2761 -2.1313  1.9709
15164SOL     OW57550   3.388   1.390   0.877  0.2546  0.3188 -0.6417
15164SOL    HW157551   3.354   1.342   0.796 -1.3375 -1.6679  1.1494
15164SOL    HW257552   3.311   1.414   0.936  1.5748 -0.3906  1.4179
15165SOL     OW57553   4.322   7.809   0.904  0.8352 -0.1348  0.1477
15165SOL    HW157554   4.414   7.772   0.891  1.1460  0.5064  0.5355
15165SOL    HW257555   4.312   7.892   0.850 -0.0102 -1.0011 -1.0743
15166SOL     OW57556   5.442   4.401   1.517 -0.5665  0.3518  0.8680
15166SOL    HW157557   5.514   4.345   1.558 -1.7968 -1.1434  1.0391
15166SOL    HW257558   5.472   4.433   1.427  0.9163  1.0616  1.5935
15167SOL     OW57559   2.213   1.092   7.299 -0.7514 -0.3676  0.2102
15167SOL    HW157560   2.127   1.084   7.350 -0.2760  0.7034  1.2074
15167SOL    HW257561   2.257   1.002   7.294 -1.1142 -0.6105  1.1529
15168SOL     OW57562   9.771   2.707   1.986 -0.6815  0.2472  0.5760
15168SOL    HW157563   9.859   2.706   2.035  0.6954 -1.7132 -1.8343
15168SOL    HW257564   9.736   2.801   1.983  1.1897  1.0147  1.8018
15169SOL     OW57565   7.621   6.228   2.243 -0.1315  0.1269  0.2070
15169SOL    HW157566   7.658   6.245   2.152 -0.8063 -1.0107 -0.2918
15169SOL    HW257567   7.562   6.304   2.270  0.2605  0.5798 -0.2044
15170SOL     OW57568   9.510   8.481   6.899  0.1081 -0.3771  0.5484
15170SOL    HW157569   9.441   8.409   6.896  0.1806 -0.4050 -0.8561
15170SOL    HW257570   9.475   8.559   6.949 -0.9348 -0.4014 -0.1210
15171SOL     OW57571   8.400   1.992   0.954 -0.1118  0.5956 -0.0230
15171SOL    HW157572   8.407   1.893   0.967  0.4183  0.6007 -0.2773
15171SOL    HW257573   8.425   2.015   0.860  1.4916  1.1596  0.5255
15172SOL     OW57574   0.325   0.403   4.313  0.4233 -0.2512  0.5522
15172SOL    HW157575   0.339   0.428   4.217  0.9692  1.5048  1.0670
15172SOL    HW257576   0.264   0.470   4.356  0.4585 -0.8379  1.5215
15173SOL     OW57577   1.973   6.034   3.490 -0.1852 -0.0855 -0.2289
15173SOL    HW157578   2.072   6.016   3.492 -0.3944 -1.2598 -0.1088
15173SOL    HW257579   1.951   6.106   3.555  0.3066 -1.3693  1.4003
15174SOL     OW57580   7.734   1.196   5.389  0.2970  0.0102  0.1204
15174SOL    HW157581   7.723   1.191   5.488 -0.3098 -0.6279  0.0288
15174SOL    HW257582   7.813   1.143   5.361  0.7023  0.5156  0.2996
15175SOL     OW57583   4.144   7.934   6.800 -0.5167 -0.0424  0.1777
15175SOL    HW157584   4.114   7.913   6.707  0.1134 -0.1711 -0.0014
15175SOL    HW257585   4.128   7.854   6.858 -1.5074  0.2629  0.3284
15176SOL     OW57586   5.139   8.367   4.648  0.1374 -0.3633  0.3077
15176SOL    HW157587   5.102   8.274   4.648 -1.6488  0.3257  0.9800
15176SOL    HW257588   5.064   8.433   4.658  1.4801  1.1034  0.9504
15177SOL     OW57589   4.212   7.819   6.010 -0.7868  0.0872 -0.2731
15177SOL    HW157590   4.168   7.876   5.941 -2.9173 -2.1716 -0.8862
15177SOL    HW257591   4.270   7.751   5.965 -1.8111 -1.0862  0.1292
15178SOL     OW57592   5.446   3.041   3.947  0.0470 -0.3675 -0.6500
15178SOL    HW157593   5.449   3.122   3.888 -0.2509  0.5479  0.5703
15178SOL    HW257594   5.350   3.018   3.966  0.1393  0.6783  1.2479
15179SOL     OW57595   7.525   8.150   2.594 -0.5282 -0.3734 -0.5495
15179SOL    HW157596   7.599   8.205   2.554  0.2541 -1.1777 -0.2272
15179SOL    HW257597   7.445   8.208   2.609 -0.0072  0.4826 -1.0238
15180SOL     OW57598   6.145   8.816   6.918  0.4817 -0.1409 -0.1864
15180SOL    HW157599   6.240   8.796   6.942  0.7036 -0.5891 -1.4016
15180SOL    HW257600   6.143   8.873   6.836 -0.2658  1.2309  0.7693
15181SOL     OW57601   5.247   4.900   0.418  0.0224 -0.1751  0.1761
15181SOL    HW157602   5.176   4.855   0.363 -0.2109  1.4932 -0.9432
15181SOL    HW257603   5.321   4.929   0.358 -0.6019  2.3713  0.5954
15182SOL     OW57604   3.481   9.939   3.128 -1.1176 -0.0357 -0.2006
15182SOL    HW157605   3.513   9.875   3.059 -0.4026 -2.0391  1.9157
15182SOL    HW257606   3.556   9.999   3.155 -0.2454 -1.8875  1.6510
15183SOL     OW57607   1.795   1.249   6.362  0.4838 -0.4846  0.4879
15183SOL    HW157608   1.880   1.201   6.382  0.4358 -0.6859  0.2059
15183SOL    HW257609   1.725   1.221   6.427  0.8902  0.3921  1.3254
15184SOL     OW57610   4.145   7.258   4.735 -0.5748 -0.5059  0.5435
15184SOL    HW157611   4.112   7.351   4.718  1.4277  0.1052 -0.1285
15184SOL    HW257612   4.072   7.193   4.714 -1.4608  0.8214 -0.6329
15185SOL     OW57613   1.713   6.337   5.932  0.0606  0.4666 -0.1541
15185SOL    HW157614   1.783   6.285   5.884 -0.5378 -1.0587  0.6184
15185SOL    HW257615   1.642   6.366   5.868 -0.4301 -1.0574 -0.3009
15186SOL     OW57616   8.966   9.466   3.556 -0.5250  0.1310 -0.0171
15186SOL    HW157617   8.909   9.547   3.544 -0.5913  0.0213 -0.4495
15186SOL    HW257618   9.055   9.492   3.593 -0.0831  0.5454 -1.3606
15187SOL     OW57619   5.658   8.293   0.307  0.7319 -0.3061 -0.3336
15187SOL    HW157620   5.653   8.382   0.353  1.8752 -1.0719  1.3148
15187SOL    HW257621   5.565   8.263   0.285  0.3668  1.6056 -1.5759
15188SOL     OW57622   4.676   2.651   7.374 -0.2183 -0.2496  0.2729
15188SOL    HW157623   4.628   2.663   7.286  2.6511 -0.5871 -1.3897
15188SOL    HW257624   4.743   2.578   7.366  0.2892 -0.0897  2.6858
15189SOL     OW57625   2.066   0.727   1.205 -0.7402  0.0661  0.2608
15189SOL    HW157626   2.163   0.716   1.229 -0.8328 -1.8453 -0.1926
15189SOL    HW257627   2.057   0.800   1.137  0.2956  0.7592  0.8554
15190SOL     OW57628   1.407   8.170   4.100 -0.3426 -0.3042 -0.5453
15190SOL    HW157629   1.308   8.167   4.110 -0.0984 -1.4849  1.9587
15190SOL    HW257630   1.435   8.111   4.024 -1.5850  0.7151 -1.8280
15191SOL     OW57631   3.390   5.649   9.539  0.1314 -0.0602  0.1935
15191SOL    HW157632   3.339   5.689   9.615 -0.7375 -1.5271  0.3944
15191SOL    HW257633   3.329   5.634   9.462  0.7729  0.3424 -0.4062
15192SOL     OW57634   6.228   0.446   1.720  0.0821  0.0672 -0.1598
15192SOL    HW157635   6.202   0.506   1.645  1.5817 -0.9276 -1.5083
15192SOL    HW257636   6.148   0.394   1.750 -0.7351  1.1491 -0.4421
15193SOL     OW57637   3.189   5.543   6.019  0.3493  0.2165  0.1689
15193SOL    HW157638   3.264   5.541   5.953  0.4122 -0.9789  0.2766
15193SOL    HW257639   3.102   5.532   5.972  0.4826 -2.0225  0.4162
15194SOL     OW57640   2.620   1.090   4.160 -0.0440  0.0645 -0.4325
15194SOL    HW157641   2.694   1.027   4.138  0.1449  0.8481 -2.1456
15194SOL    HW257642   2.584   1.131   4.075 -1.5459  0.6902  0.4722
15195SOL     OW57643   1.922   6.100   8.243  0.2749 -0.2000  0.2496
15195SOL    HW157644   2.020   6.082   8.235 -0.2116 -1.9931 -1.9321
15195SOL    HW257645   1.875   6.067   8.162 -2.0341  1.6174  0.7963
15196SOL     OW57646   5.392   9.140   1.551 -0.2744 -0.1251 -0.1490
15196SOL    HW157647   5.314   9.182   1.598  0.3360 -0.6553  1.3684
15196SOL    HW257648   5.452   9.212   1.517 -0.7058  0.2758 -0.0786
15197SOL     OW57649   6.404   7.308   0.548 -0.1357 -0.3852 -0.1416
15197SOL    HW157650   6.484   7.312   0.488 -0.9466 -0.9425 -1.2794
15197SOL    HW257651   6.331   7.366   0.511 -0.3551 -0.0839  0.7471
15198SOL     OW57652   3.413   8.628   2.671 -0.2556  0.3204 -0.1816
15198SOL    HW157653   3.385   8.657   2.580 -0.6959  0.4300 -0.0112
15198SOL    HW257654   3.335   8.630   2.733 -0.2347 -0.9534 -0.1006
15199SOL     OW57655   3.177   6.427   1.221  0.2719  0.2432 -0.1296
15199SOL    HW157656   3.221   6.350   1.174  0.3945 -1.0800  2.0851
15199SOL    HW257657   3.232   6.509   1.209  1.7038 -0.6849 -0.0591
15200SOL     OW57658   2.388   0.460   2.452  0.3052  0.9970 -0.5945
15200SOL    HW157659   2.373   0.465   2.353 -0.9972 -1.5121 -0.5686
15200SOL    HW257660   2.306   0.423   2.496  1.1766  1.3135  1.3443
15201SOL     OW57661   4.136   7.560   7.415 -0.6573  0.4716 -0.2754
15201SOL    HW157662   4.180   7.590   7.331 -0.0877 -0.4614 -0.3135
15201SOL    HW257663   4.039   7.543   7.397 -0.9996  2.2789 -0.2488
15202SOL     OW57664   7.918   8.817   2.618 -0.1232 -0.2213 -0.0357
15202SOL    HW157665   7.884   8.759   2.691  0.0856  0.2427  0.4372
15202SOL    HW257666   7.859   8.809   2.538 -1.3803  0.6190  0.7834
15203SOL     OW57667   9.601   1.122   6.742 -0.7802  0.3616 -0.0260
15203SOL    HW157668   9.684   1.103   6.794 -0.6101 -0.8654 -0.7228
15203SOL    HW257669   9.597   1.060   6.663 -2.0002  0.8972 -0.3884
15204SOL     OW57670   7.141   1.891   2.407  0.8675  0.1283  0.3387
15204SOL    HW157671   7.074   1.872   2.478 -1.2209  0.4506 -1.5150
15204SOL    HW257672   7.112   1.969   2.352  1.2835 -1.5101 -2.3110
15205SOL     OW57673   3.096   4.712   7.487  0.0661  0.1544 -0.3841
15205SOL    HW157674   3.085   4.713   7.387 -1.2333  0.4368 -0.2545
15205SOL    HW257675   3.057   4.796   7.525  2.0350  0.8048  0.2297
15206SOL     OW57676   3.713   9.282   6.643  0.1710  0.1041 -0.0573
15206SOL    HW157677   3.634   9.231   6.609  0.3011 -1.5488  2.0287
15206SOL    HW257678   3.759   9.327   6.566 -1.9478 -0.0835 -1.4781
15207SOL     OW57679   5.346   9.555   9.913  0.2223 -0.2261 -0.3400
15207SOL    HW157680   5.248   9.555   9.935  0.0799  0.2139 -0.9288
15207SOL    HW257681   5.399   9.574   9.995 -0.2101 -0.1032 -0.0861
15208SOL     OW57682   6.019   7.803   8.115 -0.3230 -0.2761  0.0336
15208SOL    HW157683   5.948   7.832   8.179 -2.0235 -0.4548 -1.7182
15208SOL    HW257684   6.094   7.870   8.115 -1.7683  1.3591 -0.1142
15209SOL     OW57685   4.128   9.847   6.782  0.3017 -0.3222  0.1591
15209SOL    HW157686   4.149   9.779   6.712  1.0706  0.3207 -0.2372
15209SOL    HW257687   4.033   9.835   6.812 -0.1524 -0.3688 -1.2631
15210SOL     OW57688   7.805   0.228   2.487 -0.3352  0.1919 -0.8641
15210SOL    HW157689   7.881   0.292   2.481 -2.0640  2.1794 -2.4657
15210SOL    HW257690   7.741   0.245   2.412 -1.4969 -2.5803 -0.5700
15211SOL     OW57691   8.116   4.101   4.556  0.0975  0.1955 -0.1880
15211SOL    HW157692   8.046   4.080   4.487  1.4552 -0.1785 -1.4669
15211SOL    HW257693   8.153   4.192   4.539 -0.6978  0.7632  1.0402
15212SOL     OW57694   9.574   0.886   0.245  0.1106 -0.7609  0.1165
15212SOL    HW157695   9.583   0.985   0.232  0.7973 -0.6842  1.1176
15212SOL    HW257696   9.477   0.861   0.245 -0.0424 -0.1820 -0.7809
15213SOL     OW57697   1.007   1.667   1.080 -0.1125  0.7651  0.5032
15213SOL    HW157698   0.976   1.624   0.995  2.5304  0.2556 -0.2705
15213SOL    HW257699   0.993   1.605   1.156 -0.6036  0.3958  0.1156
15214SOL     OW57700   2.839   3.633   1.353 -0.1906 -0.2546 -0.0493
15214SOL    HW157701   2.813   3.676   1.266  0.9155  1.0906  0.2641
15214SOL    HW257702   2.912   3.687   1.396  0.2706 -1.7018  1.0215
15215SOL     OW57703   9.770   8.515   7.851 -0.1239  0.4128 -0.1317
15215SOL    HW157704   9.788   8.611   7.869  0.0544  0.3627 -0.0334
15215SOL    HW257705   9.857   8.465   7.847 -0.3435 -0.3740  3.3314
15216SOL     OW57706   0.131   4.962   1.753 -0.0813  0.4772  0.1231
15216SOL    HW157707   0.181   4.985   1.669 -0.0431  1.9472  0.5235
15216SOL    HW257708   0.195   4.963   1.830 -0.4777  1.0455  0.4450
15217SOL     OW57709   6.983   5.262   1.039 -0.2479 -0.5974  0.4980
15217SOL    HW157710   6.960   5.357   1.056 -0.4695 -0.5516 -0.0832
15217SOL    HW257711   6.933   5.204   1.103  0.1921 -0.2993  1.1195
15218SOL     OW57712   0.875   5.320   3.587  0.1892  0.1381  0.0586
15218SOL    HW157713   0.880   5.335   3.489 -0.1846  0.2601  0.0563
15218SOL    HW257714   0.860   5.407   3.634 -1.0829 -0.0960  0.1115
15219SOL     OW57715   7.261   0.191   1.647 -0.0074  0.4717 -0.3979
15219SOL    HW157716   7.174   0.163   1.605  0.0093 -0.0976 -0.0571
15219SOL    HW257717   7.307   0.257   1.587 -0.0361 -0.2554 -1.2339
15220SOL     OW57718   1.370   8.089   0.930 -0.4023  0.2725 -0.4934
15220SOL    HW157719   1.297   8.097   0.998  0.6468  1.9740  0.4711
15220SOL    HW257720   1.458   8.103   0.975  0.3073  1.3873 -2.2100
15221SOL     OW57721   2.165   1.868   0.144  0.2739  0.1610 -0.5352
15221SOL    HW157722   2.103   1.818   0.205  0.9989 -0.8769 -0.6351
15221SOL    HW257723   2.112   1.928   0.085 -0.4529  1.2640  1.1772
15222SOL     OW57724   0.708   9.190   0.961 -0.7260 -0.2375 -0.6888
15222SOL    HW157725   0.771   9.249   0.910  0.2926  1.1975  2.1163
15222SOL    HW257726   0.756   9.107   0.989 -0.6641 -0.0401 -0.2193
15223SOL     OW57727   4.836   5.231   0.966 -0.3974 -0.3150 -0.0820
15223SOL    HW157728   4.834   5.137   0.932 -2.0855  0.2411 -1.6357
15223SOL    HW257729   4.761   5.244   1.030 -2.7595  1.0116 -2.9629
15224SOL     OW57730   2.588   0.342   5.971  0.1144  0.5720  0.0589
15224SOL    HW157731   2.589   0.419   6.034 -1.0594 -0.2273  1.0564
15224SOL    HW257732   2.517   0.356   5.902 -0.4128  0.1445  0.5216
15225SOL     OW57733   5.092   7.718   4.370  0.0579  0.0441 -0.1269
15225SOL    HW157734   5.115   7.622   4.354 -0.3207  0.0193 -0.5066
15225SOL    HW257735   5.115   7.742   4.464  0.0975 -0.4346 -0.0125
15226SOL     OW57736   5.798   3.868   3.131  0.2901  0.0025 -0.1626
15226SOL    HW157737   5.832   3.950   3.084  0.3003 -0.7644 -1.5320
15226SOL    HW257738   5.723   3.893   3.192  0.2902  1.0241 -0.5652
15227SOL     OW57739   7.201   0.859   4.908 -0.1016  0.6965  0.5918
15227SOL    HW157740   7.112   0.814   4.918  0.2916 -0.3173 -0.4620
15227SOL    HW257741   7.268   0.794   4.874  0.9577  1.5722  0.9672
15228SOL     OW57742   9.201   0.476   5.603 -0.3759 -0.2418  0.1779
15228SOL    HW157743   9.165   0.384   5.583  0.6242 -0.1090 -2.4093
15228SOL    HW257744   9.125   0.537   5.624 -1.2977 -1.0456 -0.7419
15229SOL     OW57745   3.440   5.357   0.275  0.4801 -0.2386 -0.1204
15229SOL    HW157746   3.531   5.387   0.246 -0.4336  0.8056 -1.9615
15229SOL    HW257747   3.401   5.296   0.206  0.4912 -2.1466  1.5089
15230SOL     OW57748   9.170   3.992   6.922 -0.2989  0.3971  0.0636
15230SOL    HW157749   9.148   4.080   6.879 -0.4240  0.6093  0.5527
15230SOL    HW257750   9.095   3.965   6.983 -0.2372 -0.0242 -0.0456
15231SOL     OW57751   0.689   0.990   1.385 -0.0394  0.2809  0.1358
15231SOL    HW157752   0.595   0.958   1.384 -0.3072  0.9403  2.0510
15231SOL    HW257753   0.725   0.987   1.479  1.4203  1.2282 -0.3636
15232SOL     OW57754   4.206   5.289   3.293 -0.1177  0.0288 -0.0649
15232SOL    HW157755   4.297   5.248   3.282  1.2755  2.3402  2.1101
15232SOL    HW257756   4.184   5.293   3.391 -1.6017  1.5162 -0.4477
15233SOL     OW57757   3.331   7.041   1.180  0.8081 -0.0750  0.3995
15233SOL    HW157758   3.375   7.093   1.107 -0.8616 -1.4138 -1.6251
15233SOL    HW257759   3.283   6.962   1.141  1.3221 -1.8261  3.1379
15234SOL     OW57760   0.686   8.204   2.267 -0.1750  0.8390 -0.4362
15234SOL    HW157761   0.666   8.109   2.288 -0.0188  0.8065 -0.4406
15234SOL    HW257762   0.699   8.255   2.353 -1.1179  1.0418 -0.4026
15235SOL     OW57763   3.128   3.070   8.700  0.6302 -0.3441  0.4924
15235SOL    HW157764   3.048   3.104   8.749  1.5212  2.2460  0.2227
15235SOL    HW257765   3.207   3.127   8.720  2.2697 -2.4331  0.1801
15236SOL     OW57766   4.332   2.132   5.361 -0.1308  0.7716 -0.1147
15236SOL    HW157767   4.263   2.061   5.351  0.5099  0.2338 -0.7732
15236SOL    HW257768   4.386   2.139   5.277  0.5946  1.2145  0.3741
15237SOL     OW57769   4.996   8.096   6.864  0.5827 -0.4565  0.0377
15237SOL    HW157770   5.027   8.002   6.875  0.4925 -0.5032 -0.1083
15237SOL    HW257771   4.982   8.138   6.954  0.8403 -0.5105  0.1041
15238SOL     OW57772   8.151   9.769   5.650 -0.5011  0.6255 -0.2454
15238SOL    HW157773   8.192   9.680   5.673 -1.4567  0.0834 -0.6289
15238SOL    HW257774   8.220   9.826   5.605 -0.3423 -0.5495 -1.5318
15239SOL     OW57775   6.157   0.772   7.187 -0.1263 -0.0984 -0.4421
15239SOL    HW157776   6.149   0.870   7.208  0.8392 -0.2288  0.5858
15239SOL    HW257777   6.248   0.753   7.151  0.0205 -0.7722  0.2643
15240SOL     OW57778   2.673   0.217   2.558 -0.6288 -0.0604  0.2402
15240SOL    HW157779   2.753   0.233   2.615 -1.0853 -1.0112  1.1637
15240SOL    HW257780   2.591   0.217   2.615 -1.0601 -1.3394 -0.3641
15241SOL     OW57781   5.148   0.912   1.023  0.3338 -0.2114 -0.6114
15241SOL    HW157782   5.215   0.867   1.082 -0.1859 -3.3699 -2.3000
15241SOL    HW257783   5.058   0.909   1.066  0.4438 -0.0995 -0.3744
15242SOL     OW57784   7.855   9.979   3.266 -0.4520 -0.0954  0.2142
15242SOL    HW157785   7.868   9.953   3.362  1.1569 -1.1204 -0.2698
15242SOL    HW257786   7.789   9.917   3.224 -0.4738 -0.2127  0.4172
15243SOL     OW57787   4.130   6.135   5.231 -0.5656 -0.1614 -0.1954
15243SOL    HW157788   4.039   6.095   5.228 -0.4788 -0.2371 -2.2254
15243SOL    HW257789   4.166   6.130   5.325 -3.3406  1.4989  1.0079
15244SOL     OW57790   3.667   7.262   4.446  0.3581  0.2850 -0.2930
15244SOL    HW157791   3.701   7.191   4.385 -1.6723 -0.0544 -1.0573
15244SOL    HW257792   3.568   7.253   4.456  0.4538  1.3361  1.7685
15245SOL     OW57793   5.690   4.721   4.464  0.3778 -0.3590 -0.2196
15245SOL    HW157794   5.691   4.819   4.488 -2.0912 -0.2987 -0.2023
15245SOL    HW257795   5.756   4.673   4.522  0.3409  1.0295  1.0282
15246SOL     OW57796   5.076   7.150   4.895 -0.0717  0.1496 -0.0908
15246SOL    HW157797   5.089   7.072   4.956 -2.8144 -1.0848 -0.9889
15246SOL    HW257798   5.085   7.120   4.800 -2.0025  0.6937 -0.4740
15247SOL     OW57799   3.141   3.092   6.473 -0.2833  0.2309  0.6372
15247SOL    HW157800   3.074   3.103   6.546 -0.2124  0.1293  0.7183
15247SOL    HW257801   3.225   3.051   6.510 -0.3351 -0.0474  0.4538
15248SOL     OW57802   9.716   8.929   0.750 -0.1125  0.4524 -0.0036
15248SOL    HW157803   9.727   8.921   0.849 -1.4124  1.7273  0.2626
15248SOL    HW257804   9.753   9.017   0.719  1.5802 -0.5320 -0.8789
15249SOL     OW57805   3.454   6.904   1.921  0.1632 -0.0625  0.4127
15249SOL    HW157806   3.481   6.964   1.997  2.2334 -0.6325  0.1324
15249SOL    HW257807   3.451   6.809   1.952 -0.0089 -0.1823  0.0366
15250SOL     OW57808   4.119   8.656   7.147  0.5171  0.3146 -0.4127
15250SOL    HW157809   4.190   8.719   7.176  2.8381 -1.7058 -1.4678
15250SOL    HW257810   4.057   8.702   7.083  1.7298  1.7249 -0.6048
15251SOL     OW57811   3.751   7.029   7.958  0.0559 -0.4568  0.2646
15251SOL    HW157812   3.669   6.974   7.946 -0.0510 -0.2198 -0.0941
15251SOL    HW257813   3.732   7.123   7.931  0.6924 -0.5890 -0.6574
15252SOL     OW57814   6.603   9.297   0.202  0.3103 -0.2924 -1.2020
15252SOL    HW157815   6.645   9.216   0.242  0.8679  0.5820 -0.0019
15252SOL    HW257816   6.651   9.378   0.233 -1.3038  0.6149 -1.0391
15253SOL     OW57817   1.786   8.853   2.934 -0.0710 -0.6770 -0.0192
15253SOL    HW157818   1.735   8.932   2.970 -0.2041 -0.2949 -1.0471
15253SOL    HW257819   1.871   8.885   2.893  1.2795 -1.3560  2.1636
15254SOL     OW57820   8.585   7.906   2.826 -0.0089  0.1119 -0.2796
15254SOL    HW157821   8.648   7.983   2.814  0.3437 -0.1601 -0.1858
15254SOL    HW257822   8.495   7.931   2.793 -0.1409  0.9151  0.6857
15255SOL     OW57823   7.000   7.976   4.184  1.0239 -0.1347 -0.1666
15255SOL    HW157824   7.039   8.034   4.256  0.5264 -1.4612  1.1934
15255SOL    HW257825   7.037   7.883   4.193 -1.1602 -0.9929  0.1068
15256SOL     OW57826   4.228   5.602   3.022  0.2715  0.0179  0.1458
15256SOL    HW157827   4.209   5.684   3.075  0.9428 -0.1904  0.7127
15256SOL    HW257828   4.321   5.606   2.986 -0.2115  0.2126 -1.1189
15257SOL     OW57829   2.071   4.120   8.161  0.2809  0.0639  0.0668
15257SOL    HW157830   2.031   4.066   8.235 -1.4400  1.5527  0.2729
15257SOL    HW257831   2.138   4.184   8.200  0.6333 -0.3369  0.1187
15258SOL     OW57832   3.073   6.463   9.775  0.0285  0.5391 -0.5567
15258SOL    HW157833   3.092   6.557   9.746  2.1270  0.4359  0.3536
15258SOL    HW257834   2.975   6.447   9.775 -0.2029  1.6819 -3.9595
15259SOL     OW57835   0.997   9.043   4.090  0.2208  0.1893 -0.1225
15259SOL    HW157836   1.017   8.949   4.116 -0.8465  0.1161  0.4493
15259SOL    HW257837   0.916   9.045   4.032 -0.7562  0.9053  1.2406
15260SOL     OW57838   1.447   1.054   3.551 -0.3136 -0.1113  0.1642
15260SOL    HW157839   1.419   1.138   3.598  1.5933  0.4522  0.3225
15260SOL    HW257840   1.529   1.017   3.594 -0.0468 -1.0144 -1.0993
15261SOL     OW57841   6.729   8.969   2.254 -0.0030 -0.4943  0.5568
15261SOL    HW157842   6.722   9.011   2.164 -3.0216  3.0160  2.2613
15261SOL    HW257843   6.792   9.023   2.310 -0.9035 -0.4952  1.5916
15262SOL     OW57844   2.798   9.901   3.201  0.0314 -0.6002  0.7877
15262SOL    HW157845   2.760   9.912   3.293  0.2075 -1.2753  0.9468
15262SOL    HW257846   2.828   9.807   3.189  0.9654 -0.2584  0.4017
15263SOL     OW57847   5.113   6.004   6.863 -0.1853  0.0189 -0.0569
15263SOL    HW157848   5.197   6.003   6.809  0.0967 -0.8092  0.3827
15263SOL    HW257849   5.053   6.078   6.831  0.6018  0.4584 -0.5309
15264SOL     OW57850   2.800   6.729   8.619  0.4501  0.0261 -0.2864
15264SOL    HW157851   2.829   6.633   8.609  1.8349  0.4463 -0.3901
15264SOL    HW257852   2.878   6.785   8.645 -0.4490  1.0748  0.1872
15265SOL     OW57853   9.676   8.192   2.600 -0.4174 -0.3306  0.0420
15265SOL    HW157854   9.631   8.166   2.686 -0.0173 -0.6276  0.1655
15265SOL    HW257855   9.614   8.246   2.544 -1.3539 -1.7627 -0.3140
15266SOL     OW57856   2.063   7.507   1.356  0.3785  0.1167  0.4715
15266SOL    HW157857   2.049   7.563   1.437 -0.6942 -1.2620  1.2677
15266SOL    HW257858   2.104   7.562   1.283  0.3698  1.6244  1.5908
15267SOL     OW57859   9.288   8.043   4.183  0.2422 -0.2256  0.0422
15267SOL    HW157860   9.353   8.068   4.111  1.7914  0.6703  1.6973
15267SOL    HW257861   9.244   8.125   4.219  0.1206 -0.5679  0.6925
15268SOL     OW57862   6.561   5.783   2.796  0.2331 -0.4310 -0.0143
15268SOL    HW157863   6.488   5.718   2.778  0.7848 -0.7503 -1.1294
15268SOL    HW257864   6.649   5.741   2.776  0.4959  1.3112 -2.8198
15269SOL     OW57865   1.864   2.278   8.536  0.3230  0.4889 -0.6284
15269SOL    HW157866   1.778   2.303   8.492 -0.0742 -1.2971 -0.8995
15269SOL    HW257867   1.873   2.330   8.622 -2.9388 -2.0959  1.4378
15270SOL     OW57868   4.639   1.558   1.043 -0.0608 -0.4146  0.2673
15270SOL    HW157869   4.611   1.654   1.036  0.4192 -0.4277 -2.1821
15270SOL    HW257870   4.738   1.552   1.035 -0.2778 -1.3061 -2.1122
15271SOL     OW57871   0.108   0.976   3.786 -0.4419 -0.2736 -0.1504
15271SOL    HW157872   0.161   1.005   3.707 -0.5182  0.6901  0.1407
15271SOL    HW257873   0.064   0.888   3.767  2.9263 -2.1745  0.3470
15272SOL     OW57874   0.221   3.975   8.532 -0.2410 -0.1563 -0.0560
15272SOL    HW157875   0.256   3.904   8.470 -0.6731  0.3775 -0.9114
15272SOL    HW257876   0.252   3.955   8.625  0.8593 -0.6676 -0.5189
15273SOL     OW57877   5.618   2.868   2.588 -0.0647 -0.4253  0.0620
15273SOL    HW157878   5.611   2.801   2.514  0.6600 -0.9331  0.4568
15273SOL    HW257879   5.531   2.872   2.637 -0.5155 -0.1694 -0.7356
15274SOL     OW57880   5.160   3.872   3.410  0.3438  0.1878 -0.2088
15274SOL    HW157881   5.060   3.869   3.414  0.4121 -1.3182  0.7832
15274SOL    HW257882   5.193   3.941   3.475 -0.1506  3.2691 -3.0641
15275SOL     OW57883   7.025   8.513   3.038  0.3737 -0.1609 -0.1805
15275SOL    HW157884   6.971   8.459   3.102  0.0721 -0.1046 -0.3845
15275SOL    HW257885   7.083   8.577   3.088  0.1294 -0.1068  0.0331
15276SOL     OW57886   2.657   9.194   2.955 -0.4337  0.2748  0.0776
15276SOL    HW157887   2.686   9.111   2.907 -0.8637  1.2591 -1.9470
15276SOL    HW257888   2.590   9.171   3.025 -0.2580 -1.1268 -0.2048
15277SOL     OW57889   2.761   8.991   2.150  0.1226  0.1414  0.1492
15277SOL    HW157890   2.840   8.961   2.095  0.3347 -1.9610  1.5171
15277SOL    HW257891   2.780   8.973   2.246 -2.1799 -0.6947  0.4588
15278SOL     OW57892   6.718   3.946   7.168  0.1207 -0.3764 -0.7392
15278SOL    HW157893   6.743   4.017   7.102  0.6392  0.1171 -0.0134
15278SOL    HW257894   6.799   3.891   7.188  0.2489  0.2274  0.4090
15279SOL     OW57895   3.781   0.285   0.530 -0.4512 -0.1136  0.3796
15279SOL    HW157896   3.800   0.235   0.445 -0.8359  1.8010 -0.8784
15279SOL    HW257897   3.800   0.227   0.608  1.4767 -1.4056 -0.9945
15280SOL     OW57898   3.091   4.963   8.459  0.2313  0.3367  0.0074
15280SOL    HW157899   2.995   4.986   8.443 -0.0689  0.1563  1.4980
15280SOL    HW257900   3.137   4.951   8.371 -0.9606  1.0200 -0.7274
15281SOL     OW57901   2.490   7.559   6.312 -0.8916  0.8458 -0.0900
15281SOL    HW157902   2.541   7.633   6.268 -1.8089  2.4963  1.5273
15281SOL    HW257903   2.448   7.501   6.243 -0.9913  2.4241 -1.3795
15282SOL     OW57904   8.044   1.211   3.310  0.6510  0.3575 -0.1643
15282SOL    HW157905   8.010   1.126   3.351 -0.5393  0.1610 -1.5224
15282SOL    HW257906   8.113   1.189   3.241  0.6227  0.5182 -0.2437
15283SOL     OW57907   6.413   6.658   4.176 -0.1703 -0.7475 -0.2279
15283SOL    HW157908   6.447   6.635   4.085  0.2400 -0.1156 -0.2355
15283SOL    HW257909   6.318   6.688   4.170  0.1400  0.1851 -0.5719
15284SOL     OW57910   2.505   6.093   4.160  0.4138  0.1811  0.2890
15284SOL    HW157911   2.494   6.187   4.127 -0.5445  0.3212  0.9594
15284SOL    HW257912   2.587   6.052   4.120  0.1802  0.9003 -0.9487
15285SOL     OW57913   4.850   9.485   2.604  0.1811 -0.5428 -0.0258
15285SOL    HW157914   4.820   9.522   2.516  0.4890  0.1495  0.1565
15285SOL    HW257915   4.786   9.415   2.635  0.4034 -1.2174 -1.0953
15286SOL     OW57916   1.810   0.988   5.010  0.5856 -0.7120 -0.1482
15286SOL    HW157917   1.880   1.059   5.008  0.3889 -0.5441 -1.1700
15286SOL    HW257918   1.855   0.898   5.010  0.8301 -0.5925  1.0107
15287SOL     OW57919   7.709   2.522   6.811 -0.3892 -0.5050  0.2442
15287SOL    HW157920   7.691   2.585   6.886 -0.8712 -0.4280  0.0631
15287SOL    HW257921   7.769   2.566   6.745 -0.3871 -0.3865  0.3252
15288SOL     OW57922   3.314   7.391   6.118 -0.0519 -0.0355 -0.0723
15288SOL    HW157923   3.291   7.344   6.203 -1.1323 -0.8197 -0.7825
15288SOL    HW257924   3.390   7.343   6.073 -0.1173 -0.1896 -0.0200
15289SOL     OW57925   3.298   6.766   0.207 -0.7711 -0.1689  0.0756
15289SOL    HW157926   3.276   6.802   0.116 -0.4906  3.2145  1.2743
15289SOL    HW257927   3.394   6.783   0.228 -0.1646 -3.1927  0.0800
15290SOL     OW57928   0.042   5.256   5.640 -0.7414  0.3466 -0.1877
15290SOL    HW157929   0.066   5.216   5.551 -0.6105  1.6440 -0.7540
15290SOL    HW257930   0.115   5.238   5.706 -0.9339 -0.8062 -0.2782
15291SOL     OW57931   9.394   8.846   6.628 -0.2364  0.0086 -0.0205
15291SOL    HW157932   9.489   8.842   6.658  0.0985 -0.4229 -1.1487
15291SOL    HW257933   9.348   8.922   6.675 -0.2157 -1.7846  3.0153
15292SOL     OW57934   3.918   5.645   4.517  0.2547 -0.2375 -0.1605
15292SOL    HW157935   3.995   5.589   4.545  0.5452  1.3611  2.4614
15292SOL    HW257936   3.951   5.730   4.476 -0.1440 -0.1769 -0.3680
15293SOL     OW57937   2.347   2.218   3.112  0.2632 -0.1655 -0.0910
15293SOL    HW157938   2.402   2.248   3.190  0.1781 -0.0529 -0.0751
15293SOL    HW257939   2.264   2.173   3.145  0.0606  0.1853 -0.1168
15294SOL     OW57940   9.893   5.016   5.266  0.1547 -0.3872 -0.0601
15294SOL    HW157941   9.853   4.943   5.322 -1.9901 -0.1272 -1.2083
15294SOL    HW257942   9.971   4.980   5.215 -1.9645 -2.4027 -1.9781
15295SOL     OW57943   1.287   7.302   2.344 -0.2884  0.6032 -0.0708
15295SOL    HW157944   1.316   7.393   2.371  1.3005 -0.2707  1.2343
15295SOL    HW257945   1.326   7.279   2.255  0.0110  0.8505 -0.0009
15296SOL     OW57946   4.511   6.075   4.632  0.4785  0.0167 -0.8112
15296SOL    HW157947   4.458   6.070   4.547 -1.3321  0.3249  0.2739
15296SOL    HW257948   4.505   5.988   4.681  0.5868  0.2073 -0.4548
15297SOL     OW57949   5.522   9.759   5.168 -0.4053  0.2606 -0.2543
15297SOL    HW157950   5.605   9.704   5.171 -0.1295  0.6364 -0.8275
15297SOL    HW257951   5.546   9.856   5.166 -0.9108  0.4396  1.7070
15298SOL     OW57952   7.223   6.112   2.010  0.1556 -0.1170 -0.1556
15298SOL    HW157953   7.189   6.044   1.945  0.6988  0.6367 -1.2356
15298SOL    HW257954   7.155   6.126   2.082 -1.4077  0.6749 -1.7593
15299SOL     OW57955   2.695   7.864   1.869  0.7224 -0.4060  0.2732
15299SOL    HW157956   2.635   7.921   1.926 -0.1394 -1.8166  0.8203
15299SOL    HW257957   2.699   7.902   1.776  0.7895  0.9653  0.8234
15300SOL     OW57958   3.606   3.614   0.438  0.0611 -0.2282  0.1243
15300SOL    HW157959   3.539   3.660   0.496 -0.1720 -0.5044  0.0813
15300SOL    HW257960   3.584   3.631   0.342 -0.8687 -1.5643  0.0730
15301SOL     OW57961   5.180   3.281   3.273  0.4666 -0.3056  0.2343
15301SOL    HW157962   5.247   3.342   3.230  0.5594  0.5659  1.5826
15301SOL    HW257963   5.139   3.326   3.352  1.1394 -2.2781  1.7706
15302SOL     OW57964   7.784   1.198   4.546  0.3110  0.3324  0.3826
15302SOL    HW157965   7.828   1.126   4.493  2.2041 -0.1068  2.4510
15302SOL    HW257966   7.735   1.156   4.623 -0.8862  1.0859  0.0423
15303SOL     OW57967   2.963   8.374   1.307 -0.1037 -0.1743 -0.3662
15303SOL    HW157968   2.879   8.427   1.290 -2.1248 -3.0104  0.3641
15303SOL    HW257969   2.949   8.280   1.278  2.8235 -0.7365 -0.0532
15304SOL     OW57970   9.643   6.670   5.179  0.5887 -0.2654  0.4819
15304SOL    HW157971   9.703   6.604   5.225 -0.5199 -0.9846  0.9161
15304SOL    HW257972   9.552   6.630   5.168 -0.0653  1.1513  0.6494
15305SOL     OW57973   5.669   5.651   3.252  0.4885  1.0190  0.1375
15305SOL    HW157974   5.673   5.596   3.169  2.4341  2.7827 -0.9681
15305SOL    HW257975   5.576   5.685   3.265  0.5165  2.0495 -2.2045
15306SOL     OW57976   4.267   4.431   5.834  0.1822 -0.2860  0.1508
15306SOL    HW157977   4.240   4.517   5.879 -0.2864 -0.4578  0.2031
15306SOL    HW257978   4.363   4.411   5.855 -1.0004 -2.2358  4.0882
15307SOL     OW57979   9.073   8.972   5.508  0.0704 -0.0478 -0.5592
15307SOL    HW157980   9.032   8.883   5.526  1.0815 -0.7964 -1.8588
15307SOL    HW257981   9.030   9.041   5.566 -0.7018 -1.3807  0.4768
15308SOL     OW57982   4.847   7.674   5.217  0.1198  0.9958  0.1016
15308SOL    HW157983   4.902   7.597   5.185  1.0355  1.6433  0.0840
15308SOL    HW257984   4.907   7.752   5.236 -0.7096  1.4614  0.8544
15309SOL     OW57985   5.597   6.602   6.123 -0.1438  0.1747  0.5710
15309SOL    HW157986   5.514   6.595   6.177  0.6957 -2.7985  1.5422
15309SOL    HW257987   5.573   6.621   6.027 -1.8577  0.6837  1.0905
15310SOL     OW57988   9.101   1.549   6.778 -0.0807  0.8681  0.1478
15310SOL    HW157989   9.087   1.452   6.799  0.0262  1.0148  0.8884
15310SOL    HW257990   9.183   1.559   6.722 -0.2712  0.4982 -0.2055
15311SOL     OW57991   1.331   9.430   7.028  0.1025  0.1293 -0.0903
15311SOL    HW157992   1.330   9.336   6.993  1.6131  0.0683 -0.0096
15311SOL    HW257993   1.237   9.462   7.041 -0.4483 -0.6398 -2.0440
15312SOL     OW57994   7.588   6.220   5.188 -0.0274  0.4780  0.7309
15312SOL    HW157995   7.523   6.267   5.248 -0.8942 -0.8032  0.8184
15312SOL    HW257996   7.681   6.241   5.218 -0.3730  2.6656  0.3357
15313SOL     OW57997   9.849   9.230   3.262 -0.7144 -0.0610 -0.4021
15313SOL    HW157998   9.800   9.310   3.226  0.7973  1.2789  0.4814
15313SOL    HW257999   9.782   9.161   3.290 -2.1522  1.9198  1.2288
15314SOL     OW58000   6.684   8.520   8.390  0.1012 -0.7417  0.1849
15314SOL    HW158001   6.586   8.530   8.370 -0.0506  1.4941  1.8586
15314SOL    HW258002   6.700   8.534   8.487  2.3392  1.1154 -0.4105
15315SOL     OW58003   4.364   9.276   3.380  0.2418  0.7311  0.3387
15315SOL    HW158004   4.442   9.224   3.346  0.5256  1.5461 -0.2590
15315SOL    HW258005   4.293   9.213   3.411  1.2043 -0.0176  1.0473
15316SOL     OW58006   3.763   4.069   9.808 -0.2027 -0.2588 -0.4381
15316SOL    HW158007   3.703   4.069   9.728 -0.1865 -0.7636 -0.4562
15316SOL    HW258008   3.710   4.092   9.889 -0.0686  0.9623 -0.6986
15317SOL     OW58009   2.866   9.553   5.056  0.1189  0.3195 -0.7245
15317SOL    HW158010   2.803   9.500   5.113  0.2304 -0.2208 -1.0928
15317SOL    HW258011   2.929   9.604   5.114  0.6209 -0.6978 -0.3555
15318SOL     OW58012   5.833   5.689   4.703 -0.2760 -0.1489  0.7347
15318SOL    HW158013   5.914   5.720   4.653 -0.4213 -0.7693  0.1177
15318SOL    HW258014   5.847   5.596   4.736  0.0239  0.4357  2.3023
15319SOL     OW58015   7.709   9.744   8.189 -0.1608 -0.1580 -0.3228
15319SOL    HW158016   7.646   9.786   8.254 -1.9536 -0.4603 -1.8217
15319SOL    HW258017   7.793   9.797   8.185 -1.8882  2.5996 -1.2661
15320SOL     OW58018   4.246   5.342   6.324 -0.1714  0.2342 -0.2257
15320SOL    HW158019   4.147   5.355   6.317 -0.2140  0.5061  0.7201
15320SOL    HW258020   4.288   5.429   6.351  0.1845 -0.1847  0.5882
15321SOL     OW58021   6.755   6.059   2.117  0.0692  0.3758  0.2042
15321SOL    HW158022   6.685   6.016   2.060  0.4253 -0.4865  0.4134
15321SOL    HW258023   6.721   6.070   2.210 -0.5491  1.8743 -0.1840
15322SOL     OW58024   3.607   8.519   8.575 -0.0608  0.1052  0.3552
15322SOL    HW158025   3.539   8.591   8.564  0.0732  0.1150 -0.4276
15322SOL    HW258026   3.571   8.434   8.535  0.5708  0.2278 -0.4872
15323SOL     OW58027   1.997   7.466   2.283 -0.1086  0.3905  0.2940
15323SOL    HW158028   2.013   7.456   2.185 -3.8458  3.2026 -0.7295
15323SOL    HW258029   1.960   7.381   2.320  1.2268 -0.6556 -0.7181
15324SOL     OW58030   4.610   4.547   6.174 -0.1113  0.4581  0.1184
15324SOL    HW158031   4.595   4.467   6.115 -0.9678  0.3054  0.5274
15324SOL    HW258032   4.527   4.603   6.174  0.7460  1.7631 -0.7758
15325SOL     OW58033   3.358   0.920   9.185  0.0030 -0.0383  0.1056
15325SOL    HW158034   3.290   0.852   9.157 -1.3607  0.8366  1.2315
15325SOL    HW258035   3.396   0.895   9.275  0.1852  0.2034  0.0979
15326SOL     OW58036   8.624   4.633   8.018 -0.4034  0.1764  0.0196
15326SOL    HW158037   8.582   4.724   8.018  0.2969  0.5298 -2.4691
15326SOL    HW258038   8.564   4.568   8.065 -1.9000  1.4806 -0.0714
15327SOL     OW58039   5.281   7.533   9.635 -0.2912 -0.3725  0.3954
15327SOL    HW158040   5.294   7.434   9.635 -2.2612 -0.6447  0.4671
15327SOL    HW258041   5.213   7.559   9.566 -0.6429  0.8030  1.1587
15328SOL     OW58042   2.571   7.343   8.531 -0.6766 -0.0171 -0.2095
15328SOL    HW158043   2.565   7.439   8.503 -1.1379 -0.0105 -0.0885
15328SOL    HW258044   2.623   7.336   8.616 -1.7237  0.2637  0.4677
15329SOL     OW58045   3.300   9.503   2.987 -0.2258 -0.3013 -0.1385
15329SOL    HW158046   3.383   9.528   2.939 -0.5463 -0.9704 -1.0498
15329SOL    HW258047   3.239   9.582   2.993 -0.0325 -0.1253 -0.5152
15330SOL     OW58048   4.878   1.285   6.895 -0.3474  0.2250  0.6607
15330SOL    HW158049   4.956   1.311   6.953 -0.4109  0.1181  0.7926
15330SOL    HW258050   4.818   1.363   6.883 -0.3256  0.2517  0.7253
15331SOL     OW58051   5.621   5.235   9.350  0.0728 -0.3706 -0.2619
15331SOL    HW158052   5.531   5.193   9.337  0.9832 -3.2949  2.1043
15331SOL    HW258053   5.684   5.199   9.281  0.2361 -0.9839  0.1992
15332SOL     OW58054   4.282   7.581   4.546  0.2579  0.1274 -0.1939
15332SOL    HW158055   4.206   7.552   4.488  0.8814 -0.4828 -0.7116
15332SOL    HW258056   4.359   7.519   4.534  1.2203  1.3463 -0.4892
15333SOL     OW58057   5.856   7.431   4.704 -0.2785 -0.4129  0.3163
15333SOL    HW158058   5.898   7.344   4.727 -0.5977 -0.6208  0.1243
15333SOL    HW258059   5.805   7.422   4.618 -1.1230 -0.3057  0.7939
15334SOL     OW58060   8.734   9.527   5.673 -0.7490  0.1835  0.0910
15334SOL    HW158061   8.730   9.624   5.696 -0.4764  0.0613  0.6482
15334SOL    HW258062   8.681   9.474   5.739  2.7284 -0.5136  2.4598
15335SOL     OW58063   3.876   7.232   4.610 -0.6983 -0.1624 -1.3862
15335SOL    HW158064   3.817   7.281   4.546 -0.2013 -0.4330 -2.0550
15335SOL    HW258065   3.844   7.248   4.704 -2.1479 -0.7278 -1.7673
15336SOL     OW58066   1.127   1.495   8.120 -0.3684  0.2036  0.1773
15336SOL    HW158067   1.192   1.524   8.050 -0.6201 -1.3086 -0.7102
15336SOL    HW258068   1.177   1.464   8.202  0.0842 -1.6423 -0.7673
15337SOL     OW58069   9.367   6.490   9.965 -0.4308  0.0696 -0.4727
15337SOL    HW158070   9.346   6.504   9.868  0.3994  1.6325 -0.4367
15337SOL    HW258071   9.463   6.514   9.982 -0.3843 -0.8689  0.5996
15338SOL     OW58072   4.896   5.137   7.277 -0.3371 -0.0861  0.1435
15338SOL    HW158073   4.865   5.230   7.298 -1.9781 -0.8747  1.2920
15338SOL    HW258074   4.929   5.094   7.361  2.1395  0.0678 -0.7132
15339SOL     OW58075   4.621   1.438   9.059 -0.6888 -0.1110 -0.5547
15339SOL    HW158076   4.559   1.510   9.089  0.2476 -0.1534  1.5264
15339SOL    HW258077   4.626   1.439   8.959 -1.6086  1.9080 -0.6125
15340SOL     OW58078   3.286   0.367   1.405 -0.3376  0.5569  0.1473
15340SOL    HW158079   3.357   0.437   1.412  0.4145 -0.3171  1.5928
15340SOL    HW258080   3.197   0.408   1.427 -0.4439  1.8595 -2.5393
15341SOL     OW58081   7.315   7.949   6.228 -0.0140  0.1968 -0.4892
15341SOL    HW158082   7.233   7.974   6.279 -0.3056  0.5265 -1.1079
15341SOL    HW258083   7.370   8.031   6.210  0.5449 -0.0468  0.0792
15342SOL     OW58084   7.509   5.990   9.503 -0.0326 -0.1545 -0.9641
15342SOL    HW158085   7.538   5.902   9.540 -0.0623 -0.9632 -2.8080
15342SOL    HW258086   7.586   6.053   9.503 -0.1353 -0.0073  0.8275
15343SOL     OW58087   9.194   3.547   5.022  0.3797 -0.6291 -0.0956
15343SOL    HW158088   9.256   3.589   4.956  1.6386 -1.8797  0.2588
15343SOL    HW258089   9.236   3.463   5.058 -0.8623 -0.6653  1.3014
15344SOL     OW58090   2.759   8.339   7.153 -0.1740  0.1226  0.0069
15344SOL    HW158091   2.734   8.374   7.243 -2.7488  0.6000 -0.8413
15344SOL    HW258092   2.823   8.262   7.163 -1.5243 -0.7502  2.3162
15345SOL     OW58093   4.394   5.303   8.489  0.2295 -0.0744 -0.8943
15345SOL    HW158094   4.362   5.391   8.453  1.2825 -0.1774 -2.0913
15345SOL    HW258095   4.345   5.229   8.445  0.8135 -0.1645 -1.3903
15346SOL     OW58096   3.272   0.258   0.846  0.6192  0.1290 -0.0106
15346SOL    HW158097   3.256   0.356   0.851 -2.0348 -0.2570 -0.4371
15346SOL    HW258098   3.215   0.210   0.913  0.4612 -1.2555 -1.0998
15347SOL     OW58099   9.243   8.544   2.966  0.1049  0.4996  0.0379
15347SOL    HW158100   9.290   8.620   2.921 -0.5942  1.3134  0.6820
15347SOL    HW258101   9.194   8.577   3.046 -0.0335 -0.6668  0.4512
15348SOL     OW58102   4.155   5.985   8.682  0.4267  0.2238 -0.0820
15348SOL    HW158103   4.112   5.944   8.602  3.1621 -1.4178 -0.7848
15348SOL    HW258104   4.139   6.083   8.682 -1.1637 -0.0082 -1.6226
15349SOL     OW58105   2.758   9.239   1.771 -0.2352 -0.2300 -0.2787
15349SOL    HW158106   2.747   9.292   1.687 -0.6213  1.4591  0.8030
15349SOL    HW258107   2.684   9.262   1.835 -1.1051 -3.0026 -0.2476
15350SOL     OW58108   4.146   8.798   5.841  0.1410  0.2092  0.0283
15350SOL    HW158109   4.091   8.792   5.758  1.2623 -1.7016 -0.6193
15350SOL    HW258110   4.243   8.793   5.817  0.4875  0.1382  1.4106
15351SOL     OW58111   2.836   7.830   2.643  0.0036  0.3975 -0.0954
15351SOL    HW158112   2.862   7.886   2.565  0.8847  1.3042  0.8486
15351SOL    HW258113   2.743   7.795   2.629 -0.1701  1.2614 -1.1362
15352SOL     OW58114   5.793   8.610   7.075 -0.4849 -0.5121 -0.0239
15352SOL    HW158115   5.785   8.536   7.009  1.8067  0.0887 -1.0283
15352SOL    HW258116   5.773   8.697   7.030 -2.1375 -0.3909  0.8972
15353SOL     OW58117   5.718   3.821   0.492  0.3925  0.3681 -0.2675
15353SOL    HW158118   5.643   3.822   0.557  0.0684 -0.6618 -0.6193
15353SOL    HW258119   5.800   3.785   0.536 -0.0052 -0.9842 -0.6092
15354SOL     OW58120   5.789   0.349   1.555 -0.3263  0.1741 -0.2935
15354SOL    HW158121   5.698   0.347   1.513 -0.2759 -0.4468 -0.3791
15354SOL    HW258122   5.792   0.421   1.624 -0.4806  1.0478 -1.1927
15355SOL     OW58123   2.216   6.967   7.204  0.0284 -0.3936 -1.2170
15355SOL    HW158124   2.258   6.921   7.282 -1.6430  0.8008  0.4376
15355SOL    HW258125   2.221   7.066   7.217  0.2646 -0.1682 -2.9190
15356SOL     OW58126   8.306   9.703   8.123  0.3230 -0.2773 -0.6084
15356SOL    HW158127   8.307   9.758   8.039 -0.6559 -0.0203 -0.4477
15356SOL    HW258128   8.255   9.619   8.107 -1.1511  0.4519  0.1561
15357SOL     OW58129   2.174   2.989   9.461  0.6064 -0.2096 -0.9675
15357SOL    HW158130   2.257   3.032   9.426  1.0170  0.0038  0.2247
15357SOL    HW258131   2.117   3.058   9.506 -1.0524 -0.0331 -3.2899
15358SOL     OW58132   4.785   9.713   6.476  0.4918  0.0382  0.1221
15358SOL    HW158133   4.706   9.714   6.537 -0.5565 -1.3754 -1.1785
15358SOL    HW258134   4.797   9.804   6.437 -3.1156 -0.6607 -2.9154
15359SOL     OW58135   6.472   6.619   6.305  0.0102  0.0974 -0.1223
15359SOL    HW158136   6.542   6.646   6.239  0.2398 -0.8885 -0.3018
15359SOL    HW258137   6.470   6.519   6.311  0.0674  0.1854  1.4477
15360SOL     OW58138   5.787   7.511   0.652 -0.2805  0.3590  0.0183
15360SOL    HW158139   5.789   7.413   0.632 -0.3926  0.3040  0.2749
15360SOL    HW258140   5.843   7.560   0.586 -0.9084  0.2120 -0.6261
15361SOL     OW58141   0.380   8.658   7.020  0.1980  0.0544  0.0391
15361SOL    HW158142   0.442   8.736   7.027  1.5672 -0.9345 -0.9306
15361SOL    HW258143   0.428   8.574   7.044 -0.2740 -0.9202 -2.2726
15362SOL     OW58144   5.536   1.230   9.033 -0.2923  0.0490  0.9569
15362SOL    HW158145   5.577   1.142   9.010 -1.7306 -0.5511  0.5939
15362SOL    HW258146   5.478   1.220   9.114 -1.5225  0.3337  0.1371
15363SOL     OW58147   6.931   7.533   6.563  0.2461  0.1008 -0.0151
15363SOL    HW158148   6.983   7.610   6.527  1.4707 -1.3103 -1.3270
15363SOL    HW258149   6.844   7.525   6.515  0.0385  0.7593  0.2473
15364SOL     OW58150   4.634   9.075   5.266  0.5034 -0.1823 -0.0801
15364SOL    HW158151   4.623   8.976   5.270  0.3383 -0.1384  0.6871
15364SOL    HW258152   4.590   9.117   5.346  0.0154  0.5552 -0.7240
15365SOL     OW58153   7.411   8.349   5.147 -0.5104 -0.0673 -0.4056
15365SOL    HW158154   7.447   8.440   5.164  0.2471 -0.4016 -0.2142
15365SOL    HW258155   7.312   8.354   5.132 -0.6369  0.6403  0.6887
15366SOL     OW58156   5.896   7.232   5.358 -0.1716 -0.3531 -0.4161
15366SOL    HW158157   5.935   7.143   5.337  0.0149 -0.3597 -0.0593
15366SOL    HW258158   5.842   7.225   5.442 -0.3113 -0.1728 -0.4914
15367SOL     OW58159   1.323   1.193   3.221 -0.1088  0.2437 -0.5920
15367SOL    HW158160   1.295   1.195   3.125 -1.0498 -0.3930 -0.3435
15367SOL    HW258161   1.387   1.118   3.236  0.8177  0.9578 -0.9168
15368SOL     OW58162   4.814   8.456   4.764 -0.2793 -0.0409  0.2713
15368SOL    HW158163   4.820   8.477   4.666  0.2625  0.6741  0.4591
15368SOL    HW258164   4.718   8.451   4.790 -0.4264 -0.0409 -0.2533
15369SOL     OW58165   9.442   2.264   4.708  0.2390  0.1044  0.2723
15369SOL    HW158166   9.436   2.363   4.716  2.5749  0.2573  0.5729
15369SOL    HW258167   9.457   2.239   4.613  2.2590  0.2450  0.5231
15370SOL     OW58168   5.960   4.895   6.193 -0.2503  0.1706 -0.8243
15370SOL    HW158169   5.898   4.847   6.130  2.1420 -1.1942 -2.2390
15370SOL    HW258170   5.946   4.993   6.185 -3.1469 -0.1417 -0.1125
15371SOL     OW58171   2.650   9.461   6.129 -0.5059 -0.1860 -0.6370
15371SOL    HW158172   2.560   9.480   6.089 -0.7607 -0.4156 -0.1727
15371SOL    HW258173   2.639   9.401   6.208  0.0889 -0.4581 -0.7642
15372SOL     OW58174   0.539   9.394   2.757 -0.6625  0.3415 -0.0900
15372SOL    HW158175   0.622   9.364   2.806 -0.4764 -0.2525 -0.7546
15372SOL    HW258176   0.458   9.361   2.805 -0.4878  0.1441  0.0707
15373SOL     OW58177   6.693   6.954   7.583 -0.5893 -0.4738  0.2448
15373SOL    HW158178   6.750   6.873   7.599  0.4715  0.1873 -0.1387
15373SOL    HW258179   6.689   7.008   7.667  0.6807  0.3058 -0.1861
15374SOL     OW58180   0.746   0.328   3.690  0.0252  0.0395  0.5744
15374SOL    HW158181   0.758   0.319   3.591 -0.7501  0.6540  0.4140
15374SOL    HW258182   0.658   0.372   3.708  0.7948  1.1993  1.5036
15375SOL     OW58183   3.497   3.492   4.044 -0.2910  0.0850  0.2020
15375SOL    HW158184   3.570   3.474   4.110 -0.7466 -0.4020  0.5864
15375SOL    HW258185   3.502   3.424   3.970  0.0224  0.4319 -0.0957
15376SOL     OW58186   3.576   2.542   7.187 -0.4170  0.0633  0.6317
15376SOL    HW158187   3.640   2.506   7.254 -0.0630  1.0767  0.8562
15376SOL    HW258188   3.615   2.624   7.144 -1.2718  0.2989  0.2846
15377SOL     OW58189   3.532   3.815   6.057 -0.2094  0.0823  0.1357
15377SOL    HW158190   3.494   3.852   6.142  0.4407 -0.9523  0.8867
15377SOL    HW258191   3.593   3.882   6.015 -0.7139  0.6856  0.3697
15378SOL     OW58192   1.916   5.082   2.139  0.7342  1.0087  0.4599
15378SOL    HW158193   1.932   5.164   2.194  0.9725 -0.0430  1.9780
15378SOL    HW258194   1.959   5.003   2.183 -0.3422 -0.1176 -0.4663
15379SOL     OW58195   2.495   9.814   5.894 -0.2643  0.4044 -0.2425
15379SOL    HW158196   2.498   9.819   5.795 -0.5133  0.2283 -0.2588
15379SOL    HW258197   2.475   9.720   5.922 -2.2605  0.8656 -0.0635
15380SOL     OW58198   7.137   8.415   7.334 -0.3165  0.0480  0.3196
15380SOL    HW158199   7.139   8.333   7.277  1.9220 -0.7552  1.4824
15380SOL    HW258200   7.113   8.494   7.277  1.0153 -0.8542 -1.5600
15381SOL     OW58201   6.368   0.747   7.797  0.1424  0.4521  0.1482
15381SOL    HW158202   6.353   0.654   7.832 -0.4635  0.3252 -0.4408
15381SOL    HW258203   6.388   0.808   7.873  2.0512 -0.4463  0.4111
15382SOL     OW58204   8.463   5.357   8.026  0.0906  0.1151 -0.1536
15382SOL    HW158205   8.425   5.439   8.067 -1.2140 -0.7082  0.3173
15382SOL    HW258206   8.424   5.276   8.069  0.6539 -0.7653 -1.2427
15383SOL     OW58207   7.292   7.656   6.597  0.0378  0.2672  0.7741
15383SOL    HW158208   7.354   7.617   6.530 -1.0193 -0.0320 -0.0453
15383SOL    HW258209   7.274   7.589   6.670  0.1341  0.1064  0.6480
15384SOL     OW58210   3.451   6.687   4.907  0.0516 -0.1790  0.1290
15384SOL    HW158211   3.409   6.654   4.822  3.0485 -2.5116 -0.5117
15384SOL    HW258212   3.497   6.774   4.890 -1.3547  0.5450 -0.0433
15385SOL     OW58213   1.076   0.116   8.609 -0.4139  0.5058 -0.3491
15385SOL    HW158214   1.024   0.033   8.589  0.9482 -0.8712  1.5917
15385SOL    HW258215   1.017   0.196   8.598 -2.5980 -0.9137  0.6233
15386SOL     OW58216   0.466   9.397   8.733 -0.8119 -0.1629  0.3487
15386SOL    HW158217   0.457   9.337   8.812 -1.9946 -0.5321 -0.0550
15386SOL    HW258218   0.551   9.376   8.685 -0.0799  0.0668  1.5061
15387SOL     OW58219   5.805   4.652   4.208 -0.2207 -0.8160  0.0067
15387SOL    HW158220   5.762   4.601   4.133  1.8586 -0.3721 -1.5471
15387SOL    HW258221   5.748   4.730   4.232 -0.5071 -0.4489 -1.7578
15388SOL     OW58222   3.392   3.752   8.019 -0.0763  0.5638  0.5651
15388SOL    HW158223   3.446   3.696   7.956  0.3411 -0.6593  1.9736
15388SOL    HW258224   3.296   3.721   8.016 -0.0465  0.4717  0.5461
15389SOL     OW58225   6.109   7.212   4.476 -0.3858  0.2627  0.0803
15389SOL    HW158226   6.205   7.200   4.454 -0.4471  1.4209 -0.8819
15389SOL    HW258227   6.053   7.195   4.394 -0.9417  0.2792  0.4506
15390SOL     OW58228   3.404   8.190   5.891  0.7327  0.2078  0.0207
15390SOL    HW158229   3.351   8.274   5.874 -0.4516 -0.4942  0.1842
15390SOL    HW258230   3.434   8.189   5.986  1.3218  0.7615 -0.1549
15391SOL     OW58231   4.081   8.233   7.058  0.1942  0.2388 -0.7159
15391SOL    HW158232   3.993   8.242   7.011 -0.1734 -0.0681 -0.0888
15391SOL    HW258233   4.149   8.198   6.993 -0.1861  0.3081 -1.1570
15392SOL     OW58234   2.933   7.687   9.938  0.1607  0.3840 -0.1691
15392SOL    HW158235   2.901   7.609   9.993 -1.1977 -0.6863 -2.3974
15392SOL    HW258236   2.933   7.769   9.994  0.1495 -0.9339  1.8249
15393SOL     OW58237   2.577   9.515   2.858  0.3346  0.1908 -0.5404
15393SOL    HW158238   2.574   9.615   2.868  1.6978  0.0912  1.2007
15393SOL    HW258239   2.604   9.474   2.945  2.3553 -1.5241 -1.9284
15394SOL     OW58240   0.980   9.014   7.368 -0.2507  0.5933 -0.5338
15394SOL    HW158241   1.045   9.005   7.442 -1.0787  0.3353  0.1737
15394SOL    HW258242   1.006   9.090   7.308  0.5182  0.6770 -0.0873
15395SOL     OW58243   4.298   6.012   4.474 -0.2305  0.3421  0.7689
15395SOL    HW158244   4.274   5.966   4.388 -0.9326  0.3468  0.9625
15395SOL    HW258245   4.274   6.109   4.467  1.8605  0.8319  0.1170
15396SOL     OW58246   0.543   8.214   7.542  0.3568  0.0856 -0.1528
15396SOL    HW158247   0.467   8.150   7.526  0.1078  0.7476 -1.7402
15396SOL    HW258248   0.530   8.260   7.630 -1.2618  0.4207 -0.5433
15397SOL     OW58249   3.753   7.953   5.040  0.1585  0.6172  0.0922
15397SOL    HW158250   3.730   8.002   4.955 -0.4761 -0.5794 -0.4287
15397SOL    HW258251   3.852   7.954   5.053  0.3858 -0.6089 -1.5173
15398SOL     OW58252   1.909   1.768   7.298  0.1449 -0.4632  0.2245
15398SOL    HW158253   1.995   1.760   7.348 -0.2289  0.1698  0.9641
15398SOL    HW258254   1.839   1.809   7.356 -0.5516 -0.5977 -0.5038
15399SOL     OW58255   6.015   5.721   5.019 -0.2342  0.8238 -0.7587
15399SOL    HW158256   5.988   5.816   5.003  0.3986  0.8441 -1.7335
15399SOL    HW258257   6.048   5.712   5.113 -2.2033  1.1115 -0.0185
15400SOL     OW58258   4.196   4.695   1.345  0.4337  1.1187  0.0479
15400SOL    HW158259   4.189   4.635   1.265  2.6906  1.0019 -0.0937
15400SOL    HW258260   4.195   4.791   1.315  0.6519  1.0850 -0.0670
15401SOL     OW58261   6.651   4.441   3.116  0.1449  0.4530  0.6941
15401SOL    HW158262   6.620   4.391   3.035 -0.6856 -0.3171  1.4781
15401SOL    HW258263   6.718   4.385   3.165  2.0406  1.6827 -0.4397
15402SOL     OW58264   3.326   6.789   3.843  0.1225 -0.3155  0.0024
15402SOL    HW158265   3.302   6.885   3.858  0.8918  0.0815 -1.2218
15402SOL    HW258266   3.244   6.737   3.821  0.1853  0.8532 -3.2696
15403SOL     OW58267   8.473   9.078   8.163  0.5701 -0.0971  0.3673
15403SOL    HW158268   8.548   9.045   8.105  1.3752  1.3305  0.5858
15403SOL    HW258269   8.510   9.130   8.239 -0.6566  0.8340  0.3388
15404SOL     OW58270   3.426   9.609   8.221  0.1551  0.5088  0.5786
15404SOL    HW158271   3.484   9.581   8.297  0.8434 -1.4456 -0.6289
15404SOL    HW258272   3.330   9.602   8.248  0.4277  1.7229  1.8915
15405SOL     OW58273   2.446   8.971   7.529  0.4284 -0.0630  0.0463
15405SOL    HW158274   2.425   9.046   7.466  0.2944 -0.7930 -0.7905
15405SOL    HW258275   2.360   8.931   7.563  0.4888 -0.7343 -0.5885
15406SOL     OW58276   8.509   7.983   5.207  0.3274 -0.7807  0.3938
15406SOL    HW158277   8.478   7.967   5.301  1.1031 -0.2677  0.7357
15406SOL    HW258278   8.509   7.896   5.157 -0.8439 -0.9315  0.6325
15407SOL     OW58279   5.942   5.740   3.803  0.6563 -0.6478 -0.2286
15407SOL    HW158280   5.898   5.737   3.893 -0.3239 -0.8118 -0.7032
15407SOL    HW258281   5.993   5.656   3.788  0.4932 -0.7901  0.0158
15408SOL     OW58282   4.189   6.347   2.367  0.0697 -0.5245 -0.3679
15408SOL    HW158283   4.110   6.338   2.428 -0.6100 -2.3244 -1.4654
15408SOL    HW258284   4.226   6.439   2.374 -0.2661 -0.5542  2.4179
15409SOL     OW58285   5.542   4.496   5.020 -0.4265 -0.0372 -0.1846
15409SOL    HW158286   5.562   4.400   5.000 -0.6205 -0.0206 -0.4679
15409SOL    HW258287   5.627   4.547   5.030 -0.3108  0.2024 -2.2027
15410SOL     OW58288   3.512   1.002   9.995  0.2577 -0.7008 -0.2201
15410SOL    HW158289   3.421   1.004   9.953  0.5204 -0.0883 -0.7668
15410SOL    HW258290   3.522   1.082  10.054  0.7100 -0.3898 -0.7228
15411SOL     OW58291   6.352   7.523   5.016 -0.8948  0.0084 -0.3695
15411SOL    HW158292   6.380   7.611   4.978  0.0028  0.8298  2.1540
15411SOL    HW258293   6.368   7.521   5.114 -1.6937 -2.6770 -0.2344
15412SOL     OW58294   8.879   5.528   3.544  0.0249 -0.3762  0.0427
15412SOL    HW158295   8.962   5.476   3.523  0.4357 -0.3023  1.4401
15412SOL    HW258296   8.871   5.604   3.480  0.3726 -1.0976 -0.8799
15413SOL     OW58297   3.583   0.626   3.797  0.5398 -0.4776  0.2869
15413SOL    HW158298   3.604   0.530   3.779  2.2472 -0.1465  0.4052
15413SOL    HW258299   3.645   0.684   3.744 -2.0624  0.6093 -1.6901
15414SOL     OW58300   4.910   0.722   1.820  0.2721  0.0618  0.2077
15414SOL    HW158301   4.859   0.681   1.744 -0.0162 -0.4754  0.6811
15414SOL    HW258302   5.008   0.716   1.801  0.1493  1.3598 -0.8355
15415SOL     OW58303   6.923   9.154   7.818  0.0295  0.9720 -0.3419
15415SOL    HW158304   7.000   9.208   7.783 -0.1420  0.3886 -1.6343
15415SOL    HW258305   6.929   9.149   7.918  1.0971  1.7897 -0.3535
15416SOL     OW58306   4.685   0.761   8.123 -0.2279 -0.0224 -0.3533
15416SOL    HW158307   4.740   0.678   8.133  0.2343  0.6522  3.6904
15416SOL    HW258308   4.746   0.839   8.112 -0.3732  0.4184  1.6684
15417SOL     OW58309   3.089   5.599   0.582 -0.7551 -0.3038  0.0498
15417SOL    HW158310   2.996   5.606   0.617 -0.5841  3.0608  0.0531
15417SOL    HW258311   3.151   5.574   0.656 -1.1424  1.4655  1.0175
15418SOL     OW58312   6.669   7.596   6.483 -0.2107  0.1542 -0.6842
15418SOL    HW158313   6.688   7.680   6.534  1.0412 -1.2496  1.2453
15418SOL    HW258314   6.653   7.618   6.387 -0.1573  2.6145 -0.1647
15419SOL     OW58315   8.858   1.319   4.430 -0.2408  0.1087 -0.4857
15419SOL    HW158316   8.876   1.373   4.512 -1.2214  0.0157 -0.2052
15419SOL    HW258317   8.796   1.370   4.369 -1.3107 -0.7505 -0.1410
15420SOL     OW58318   3.463   7.775   8.034  0.4367  0.0492 -0.1164
15420SOL    HW158319   3.455   7.735   7.943  0.2178  1.2860 -0.6476
15420SOL    HW258320   3.486   7.872   8.026  0.1707  0.2247  1.1431
15421SOL     OW58321   7.695   3.390   4.981  0.2730  0.3683  0.1310
15421SOL    HW158322   7.666   3.447   4.903  1.3586  0.2920 -0.3340
15421SOL    HW258323   7.729   3.449   5.054  1.1366  0.3285 -0.2407
15422SOL     OW58324   6.090   8.973   8.625  0.0585 -0.3395 -0.0640
15422SOL    HW158325   5.991   8.960   8.628  0.1099 -0.4674  0.9872
15422SOL    HW258326   6.111   9.068   8.599 -0.3384 -0.1904  0.1707
15423SOL     OW58327   7.951   7.179   4.476 -0.1250 -0.8349  0.2061
15423SOL    HW158328   8.037   7.140   4.510 -0.8802 -1.0638  1.9028
15423SOL    HW258329   7.875   7.144   4.530 -1.4789 -1.8368 -2.2766
15424SOL     OW58330   1.437   4.197   4.836 -0.4526 -0.1951  0.3768
15424SOL    HW158331   1.417   4.294   4.821  1.1210 -0.1817 -1.8962
15424SOL    HW258332   1.363   4.142   4.797 -1.2204  0.0881  1.4349
15425SOL     OW58333   7.320   5.475   6.456  0.3503 -0.7227  0.0377
15425SOL    HW158334   7.312   5.376   6.440  0.2919 -1.0484  1.9098
15425SOL    HW258335   7.236   5.521   6.427 -0.1808 -1.4104  0.4706
15426SOL     OW58336   8.126   8.845   8.805  0.4216  0.0752  0.3991
15426SOL    HW158337   8.154   8.879   8.714 -0.2137 -0.8343 -0.1414
15426SOL    HW258338   8.202   8.796   8.847  1.0405  1.3556  0.7828
15427SOL     OW58339   7.416   3.019   9.315 -0.1375 -0.7179 -0.5049
15427SOL    HW158340   7.509   3.021   9.279 -0.2607  0.4686 -0.8085
15427SOL    HW258341   7.413   3.071   9.400 -0.6642 -0.0845 -0.8979
15428SOL     OW58342   2.402   4.281   7.652 -0.4192  0.2339  0.0773
15428SOL    HW158343   2.433   4.362   7.703 -2.0334  0.2395  1.0733
15428SOL    HW258344   2.448   4.279   7.563  2.3712  0.2619  1.4783
15429SOL     OW58345   9.720   7.337   8.851 -0.4281 -0.4096  0.4560
15429SOL    HW158346   9.753   7.243   8.859 -1.9418 -1.1050 -1.0929
15429SOL    HW258347   9.663   7.345   8.769  0.9156  2.2211 -0.2816
15430SOL     OW58348   7.471   9.802   9.615 -0.3433  0.2411  0.1620
15430SOL    HW158349   7.492   9.886   9.564 -0.5032 -0.2518 -0.7423
15430SOL    HW258350   7.548   9.739   9.606 -1.2443 -0.6962 -1.2851
15431SOL     OW58351   7.110   2.264   5.655  0.3307  0.1003 -0.4231
15431SOL    HW158352   7.107   2.176   5.703 -2.3169  1.1350  1.4160
15431SOL    HW258353   7.183   2.320   5.694 -0.1760 -0.0136  0.7093
15432SOL     OW58354   5.904   1.583   8.414 -0.1057 -0.0620 -0.3382
15432SOL    HW158355   5.832   1.514   8.425  0.9728 -0.7057  3.5619
15432SOL    HW258356   5.993   1.540   8.423  0.5911  1.7514  1.9706
15433SOL     OW58357   6.221   7.111   7.431  1.1102  0.0892  0.9144
15433SOL    HW158358   6.295   7.103   7.498  1.8110  1.7765  0.3543
15433SOL    HW258359   6.209   7.207   7.405  0.1726 -0.4296 -0.6388
15434SOL     OW58360   3.829   6.881   0.618  0.0346 -0.4196  0.5949
15434SOL    HW158361   3.892   6.870   0.694 -0.5682 -0.7632  1.0475
15434SOL    HW258362   3.793   6.792   0.591  2.7736 -0.7393 -2.2741
15435SOL     OW58363   1.708   4.196   3.944 -0.2888  0.4067  0.0556
15435SOL    HW158364   1.651   4.130   3.993 -0.8842 -0.1027 -1.2898
15435SOL    HW258365   1.773   4.147   3.886 -0.9369  0.9735 -1.1861
15436SOL     OW58366   3.330   7.739   9.618 -0.2538 -0.4781 -0.5086
15436SOL    HW158367   3.238   7.778   9.628  0.2787  0.7770 -0.3330
15436SOL    HW258368   3.355   7.738   9.521  0.3328  1.1086 -0.3962
15437SOL     OW58369   4.376   5.919   6.168 -0.1173 -0.3555  0.7148
15437SOL    HW158370   4.296   5.898   6.112  0.2168 -0.4224  0.2586
15437SOL    HW258371   4.346   5.955   6.256 -0.8514 -5.1120  2.5783
15438SOL     OW58372   4.299   6.741   0.687 -0.0276  0.0118  0.8493
15438SOL    HW158373   4.315   6.701   0.777  0.6205 -0.0534  0.7051
15438SOL    HW258374   4.361   6.817   0.671  0.0120 -0.1157  0.3679
15439SOL     OW58375   5.012   7.280   5.343  0.4494 -0.4170  0.2391
15439SOL    HW158376   5.032   7.300   5.439  1.6066 -2.2921  0.4094
15439SOL    HW258377   5.053   7.349   5.285 -0.8270  1.1123  1.1202
15440SOL     OW58378   3.496   8.146   6.164 -0.4582  0.5465 -0.0248
15440SOL    HW158379   3.525   8.059   6.124 -0.1600 -0.7343  2.8439
15440SOL    HW258380   3.413   8.131   6.219  0.9745  1.5578  2.4844
15441SOL     OW58381   4.392   8.652   4.948  0.2267  0.3519 -0.5013
15441SOL    HW158382   4.424   8.563   4.980  1.7902  1.1812  0.3394
15441SOL    HW258383   4.306   8.641   4.899  0.0624 -1.5341  0.1535
15442SOL     OW58384   3.674   4.802   9.817  0.0745 -0.1008  0.0710
15442SOL    HW158385   3.746   4.734   9.803  0.9874  0.7658  0.5534
15442SOL    HW258386   3.656   4.811   9.915  0.2189  0.6257  0.0316
15443SOL     OW58387   2.316   7.321   6.955 -0.3503 -0.5101 -0.1764
15443SOL    HW158388   2.378   7.327   6.877 -0.9970 -0.3061 -0.6780
15443SOL    HW258389   2.315   7.409   7.003 -1.2217 -0.1190 -0.9132
15444SOL     OW58390   6.833   6.679   4.681 -0.3280  0.2830  0.1141
15444SOL    HW158391   6.846   6.582   4.701 -0.1261  0.2495 -0.1831
15444SOL    HW258392   6.836   6.732   4.767  3.1568  0.4539 -0.0388
15445SOL     OW58393   4.646   6.612   7.711 -0.0209  0.1713 -0.2541
15445SOL    HW158394   4.739   6.635   7.740 -0.2199  2.0504 -0.9823
15445SOL    HW258395   4.649   6.574   7.619  0.2419 -2.0920  0.6686
15446SOL     OW58396   9.094   7.855   3.772  0.7890 -0.2062  0.2121
15446SOL    HW158397   9.098   7.821   3.865  0.5072 -0.4432  0.1418
15446SOL    HW258398   9.183   7.890   3.744  0.6974  0.5214  0.8161
15447SOL     OW58399   6.505   6.511   7.364 -0.7366 -0.3903  0.3311
15447SOL    HW158400   6.479   6.416   7.350 -1.8388 -0.2499  1.3877
15447SOL    HW258401   6.448   6.552   7.435  0.0491  0.9250  0.2317
15448SOL     OW58402   9.378   7.550   4.676 -0.1821 -0.0892  0.8790
15448SOL    HW158403   9.338   7.628   4.726  0.3635  0.5817  0.2845
15448SOL    HW258404   9.478   7.558   4.679 -0.1468  0.3026 -0.8535
15449SOL     OW58405   4.126   2.238   9.452 -0.4570 -0.4522 -0.1434
15449SOL    HW158406   4.068   2.313   9.421 -2.6494 -1.6562  0.9626
15449SOL    HW258407   4.176   2.200   9.374  0.5657  2.0289 -0.7355
15450SOL     OW58408   3.478   8.540   1.323 -0.2513  0.1451  0.1165
15450SOL    HW158409   3.470   8.622   1.265  1.4551 -0.4364 -0.9881
15450SOL    HW258410   3.400   8.480   1.306  0.9482 -0.6983 -2.7322
15451SOL     OW58411   4.498   5.557   6.936 -0.2931 -0.1110 -0.2987
15451SOL    HW158412   4.409   5.583   6.898 -0.7407  1.4674  1.7244
15451SOL    HW258413   4.533   5.632   6.993  0.8797 -1.9235  1.4348
15452SOL     OW58414   4.701   2.801   6.052  0.1654  0.0049 -0.1994
15452SOL    HW158415   4.766   2.877   6.058 -0.1302  0.3570 -1.4460
15452SOL    HW258416   4.688   2.775   5.957  0.1648 -1.5326  0.2013
15453SOL     OW58417   1.673   2.728   5.750  0.3435 -0.4241 -0.1963
15453SOL    HW158418   1.768   2.758   5.757  0.3631 -0.6148  0.3133
15453SOL    HW258419   1.619   2.800   5.706  0.8467 -0.5685 -1.0661
15454SOL     OW58420   0.006   2.901   8.696 -0.3595 -0.3364  0.7212
15454SOL    HW158421   0.001   3.001   8.697  0.2545 -0.3068  1.6924
15454SOL    HW258422  -0.081   2.863   8.728 -0.6066 -0.1172  0.3146
15455SOL     OW58423   8.948   8.269   3.992  0.4027 -0.5141  0.1145
15455SOL    HW158424   9.001   8.286   4.075 -0.4304 -1.0647  0.7572
15455SOL    HW258425   8.903   8.354   3.964  0.0120 -0.5339  0.6901
15456SOL     OW58426   2.956   6.676   5.069 -0.0621 -0.3091  0.0461
15456SOL    HW158427   2.929   6.612   5.141 -0.0560 -0.9396 -0.5051
15456SOL    HW258428   2.992   6.625   4.990 -1.8358  0.2561 -1.1572
15457SOL     OW58429   3.375   9.011   7.616 -0.8804  0.3304  0.3784
15457SOL    HW158430   3.276   8.997   7.612 -0.9945  0.3806  2.4312
15457SOL    HW258431   3.422   8.923   7.603 -1.2363  0.1064  0.5928
15458SOL     OW58432   5.350   6.604   3.920 -0.4993 -0.3478  0.2246
15458SOL    HW158433   5.261   6.578   3.958 -1.6943  1.8546 -0.9745
15458SOL    HW258434   5.344   6.696   3.882  1.6814 -1.0483 -1.9065
15459SOL     OW58435   6.400   7.519   5.286  0.3940 -0.3655  0.3700
15459SOL    HW158436   6.489   7.530   5.331  1.1161 -1.9633 -0.6005
15459SOL    HW258437   6.344   7.456   5.340  0.5676 -0.8386  0.0010
15460SOL     OW58438   2.859   1.825   6.835  0.0617 -0.3292 -0.4618
15460SOL    HW158439   2.852   1.726   6.832  0.9422 -0.4485  0.8347
15460SOL    HW258440   2.956   1.852   6.837 -0.1729  0.4737  0.7531
15461SOL     OW58441   2.842   1.838   3.306  0.1016 -0.5540 -0.2005
15461SOL    HW158442   2.751   1.843   3.266  0.1772  0.6518 -0.2487
15461SOL    HW258443   2.900   1.778   3.251 -0.0345  0.4387 -1.4474
15462SOL     OW58444   5.780   8.762   0.437  0.1977 -0.2603  0.3279
15462SOL    HW158445   5.729   8.820   0.500  0.5189 -1.3660  1.6444
15462SOL    HW258446   5.877   8.788   0.437  0.2244 -0.3581  0.4189
15463SOL     OW58447   8.881   2.874   8.715  0.4841 -0.3400 -0.0076
15463SOL    HW158448   8.912   2.783   8.742 -2.1223 -1.8308 -1.8595
15463SOL    HW258449   8.831   2.916   8.791  0.6477 -0.9635  0.4459
15464SOL     OW58450   4.228   3.372   6.969 -0.9790 -0.1763 -0.9125
15464SOL    HW158451   4.202   3.466   6.950 -0.5594  0.0496 -0.3803
15464SOL    HW258452   4.190   3.344   7.058 -0.5631 -0.2921 -0.7701
15465SOL     OW58453   4.552   6.788   3.367  0.3892  0.7731 -0.2589
15465SOL    HW158454   4.652   6.793   3.368  0.2832  3.5058  0.7915
15465SOL    HW258455   4.520   6.743   3.451  0.7119 -0.2754 -0.6825
15466SOL     OW58456   3.924   7.684   4.082  0.0661  0.3248  0.5246
15466SOL    HW158457   3.943   7.720   3.991  2.3140  3.3022  2.0751
15466SOL    HW258458   3.975   7.599   4.096 -1.1168 -0.7317 -1.2961
15467SOL     OW58459   3.628   3.280   7.438  0.2020 -0.2422  0.2206
15467SOL    HW158460   3.593   3.281   7.345  2.3527  0.0306 -0.5977
15467SOL    HW258461   3.660   3.371   7.463 -0.9366 -0.1642  1.4694
15468SOL     OW58462   2.191   1.424   0.081 -0.6516  0.2357 -0.1456
15468SOL    HW158463   2.235   1.340   0.052 -0.7913  0.6792 -1.7142
15468SOL    HW258464   2.120   1.403   0.148  1.7647 -0.4916  2.2509
15469SOL     OW58465   6.975   2.499   8.410 -0.1844 -0.0328  0.1663
15469SOL    HW158466   6.962   2.597   8.424 -0.3896  0.2373 -1.7193
15469SOL    HW258467   6.905   2.448   8.461 -2.8092  0.9992 -2.2609
15470SOL     OW58468   1.934   0.840   9.700  0.7181  0.0408  0.1841
15470SOL    HW158469   2.020   0.794   9.679  1.6941  1.0762  1.7897
15470SOL    HW258470   1.918   0.912   9.632  0.4404 -0.9929 -0.8717
15471SOL     OW58471   2.038   2.964   4.922  0.0081 -0.2407  0.2206
15471SOL    HW158472   2.059   3.003   5.012  1.6254  0.8749 -0.6300
15471SOL    HW258473   2.106   2.995   4.855 -1.6253 -0.4356 -1.5619
15472SOL     OW58474   3.011   2.242   7.748  0.4289 -0.5015 -0.5139
15472SOL    HW158475   3.018   2.341   7.734 -2.0501 -0.2201  0.0126
15472SOL    HW258476   2.915   2.216   7.752  1.0630 -2.7381  0.8830
15473SOL     OW58477   3.243   7.434   8.121 -0.0745 -0.8095  0.1344
15473SOL    HW158478   3.159   7.392   8.154  0.8272 -1.8444  1.1297
15473SOL    HW258479   3.298   7.366   8.073 -0.1838  0.0686 -1.2942
15474SOL     OW58480   6.532   8.900   2.942 -0.1565 -0.0600  0.5292
15474SOL    HW158481   6.553   8.909   3.040  2.0595  1.1024 -0.0402
15474SOL    HW258482   6.593   8.833   2.901  0.2454  0.9279 -0.4767
15475SOL     OW58483   2.470   7.381   7.221  0.2169 -0.5764 -0.6771
15475SOL    HW158484   2.528   7.323   7.165  0.9668  0.1923 -0.7095
15475SOL    HW258485   2.393   7.328   7.256  1.1975 -1.7387 -0.2250
15476SOL     OW58486   6.720   6.184   4.901  0.0470  0.4970 -0.2838
15476SOL    HW158487   6.808   6.140   4.918  0.5773  1.5156 -0.3313
15476SOL    HW258488   6.665   6.185   4.985 -0.1242 -0.5710 -0.3753
15477SOL     OW58489   0.654   0.446   6.532 -0.1012  0.2800 -0.3290
15477SOL    HW158490   0.667   0.468   6.629  0.6095  1.3609 -0.6595
15477SOL    HW258491   0.571   0.489   6.499  0.2951  0.9158 -0.5016
15478SOL     OW58492   3.863   5.438   0.850  0.2815  0.8121 -0.1533
15478SOL    HW158493   3.915   5.365   0.806  1.2995  1.2103  0.3690
15478SOL    HW258494   3.899   5.454   0.942 -1.6075  0.2232  0.6991
15479SOL     OW58495   3.346   7.998   7.363  0.3214 -0.3680 -0.3142
15479SOL    HW158496   3.326   8.084   7.409  1.1432 -0.6118  0.5087
15479SOL    HW258497   3.269   7.973   7.303  0.0015  0.8283 -0.4111
15480SOL     OW58498   8.995   6.557   6.926 -0.1598 -0.7253  0.0275
15480SOL    HW158499   9.061   6.574   6.853  0.4007 -0.7694  0.5118
15480SOL    HW258500   8.903   6.554   6.889  0.2091 -1.6891 -0.8146
15481SOL     OW58501   1.247   5.093   9.866 -0.2824  0.5393 -0.2491
15481SOL    HW158502   1.278   5.093   9.961 -1.6531  0.9037  0.2088
15481SOL    HW258503   1.324   5.069   9.806  0.8534  1.3196  0.8598
15482SOL     OW58504   0.904   0.347   8.561 -0.2204  0.4244 -0.3342
15482SOL    HW158505   0.905   0.406   8.641 -1.0762 -0.2939  0.2212
15482SOL    HW258506   0.844   0.386   8.491 -0.6135  0.3302 -0.0520
15483SOL     OW58507   3.309   9.478   0.708 -0.0814  0.0939  0.4895
15483SOL    HW158508   3.262   9.498   0.795  0.5218  0.7417  0.6742
15483SOL    HW258509   3.360   9.559   0.679  0.2694 -0.3469 -0.1243
15484SOL     OW58510   5.876   6.939   6.573 -0.0077  0.4368 -0.1472
15484SOL    HW158511   5.948   6.873   6.594 -0.0523  0.7739  1.0697
15484SOL    HW258512   5.813   6.947   6.650 -1.8011 -0.4130 -1.4908
15485SOL     OW58513   3.711   9.773   8.756 -0.4063  0.5318 -0.1565
15485SOL    HW158514   3.626   9.811   8.718 -1.4219 -1.9820 -0.5213
15485SOL    HW258515   3.787   9.795   8.695 -1.3899 -0.1581 -1.6629
15486SOL     OW58516   0.741   9.731   0.719 -0.6082 -0.1483  0.3510
15486SOL    HW158517   0.838   9.747   0.736 -0.6686 -0.6509  1.2083
15486SOL    HW258518   0.717   9.637   0.746 -0.9999 -0.5469 -1.3106
15487SOL     OW58519   4.545   7.347   8.011 -0.2764  0.4317 -0.4198
15487SOL    HW158520   4.561   7.353   7.912  0.1978 -1.6859 -0.4864
15487SOL    HW258521   4.447   7.352   8.029 -0.4526 -0.3912 -1.1089
15488SOL     OW58522   2.118   7.291   8.534  0.1742  0.1394  0.1606
15488SOL    HW158523   2.077   7.334   8.453  0.0174 -1.5478 -0.6642
15488SOL    HW258524   2.080   7.199   8.546 -0.0239  0.4844  2.3331
15489SOL     OW58525   0.979   2.846   5.851 -0.2623  0.0188  0.2721
15489SOL    HW158526   1.061   2.837   5.908 -0.5237  0.4228  0.7181
15489SOL    HW258527   0.973   2.768   5.789  1.7515  1.1792 -1.4319
15490SOL     OW58528   3.380   0.144   0.331 -0.0549  0.9149  0.1147
15490SOL    HW158529   3.300   0.115   0.278  0.4872  0.4909 -0.4871
15490SOL    HW258530   3.449   0.180   0.269  0.8806 -0.2618  0.4457
15491SOL     OW58531   6.152   0.958   5.607  0.0033  0.1729 -0.1362
15491SOL    HW158532   6.239   1.000   5.580 -0.8406  2.7201  0.9673
15491SOL    HW258533   6.165   0.901   5.688  0.3611  1.8388  0.9875
15492SOL     OW58534   1.253   5.889   9.630  0.0615  0.1928 -0.2441
15492SOL    HW158535   1.202   5.805   9.613  1.0505 -0.4243 -0.2326
15492SOL    HW258536   1.290   5.888   9.723 -0.1372  0.7508 -0.1588
15493SOL     OW58537   0.267   7.312   6.286 -0.0818 -1.4006  0.1741
15493SOL    HW158538   0.238   7.244   6.353 -1.7580 -1.9934 -1.0908
15493SOL    HW258539   0.186   7.362   6.253  0.6538 -1.3831 -1.6458
15494SOL     OW58540   2.569   8.474   1.063  0.0080  0.2553  0.3344
15494SOL    HW158541   2.605   8.382   1.050 -0.6472 -0.1620  1.4427
15494SOL    HW258542   2.469   8.471   1.066 -0.0535  1.1191 -0.5007
15495SOL     OW58543   4.842   7.297   1.335  0.2018 -0.0919 -0.7713
15495SOL    HW158544   4.749   7.306   1.299 -0.5419 -1.9133  0.6360
15495SOL    HW258545   4.858   7.203   1.362  1.6416  0.6904  1.2064
15496SOL     OW58546   6.957   6.238   0.700  0.3660  0.2264  0.4657
15496SOL    HW158547   6.926   6.148   0.669 -0.2425  0.1012  1.3858
15496SOL    HW258548   6.885   6.279   0.757  0.8014  1.1255  0.3712
15497SOL     OW58549   4.767   4.185   5.293  0.5083  0.6483  0.0051
15497SOL    HW158550   4.788   4.095   5.256 -0.1527  0.2851  0.5000
15497SOL    HW258551   4.706   4.176   5.372  1.5117  1.4410  0.8922
15498SOL     OW58552   4.126   9.993   8.193 -0.5138 -0.4462 -0.1278
15498SOL    HW158553   4.193  10.027   8.127 -1.7108 -1.5945 -1.9751
15498SOL    HW258554   4.034  10.022   8.166 -1.4268 -3.8625 -1.0010
15499SOL     OW58555   2.379   0.378   1.362  0.2857  0.0229  0.2849
15499SOL    HW158556   2.456   0.439   1.346  0.1509  0.1366  0.0578
15499SOL    HW258557   2.356   0.377   1.459  0.8203 -0.3142  0.4068
15500SOL     OW58558   4.748   1.162   9.014  0.7513  0.0332  0.5724
15500SOL    HW158559   4.839   1.193   9.040  0.7332  0.1762  0.4649
15500SOL    HW258560   4.686   1.241   9.009  0.3241 -0.2141  1.8894
15501SOL     OW58561   6.452   7.939   3.433 -0.3849 -0.0085  0.1768
15501SOL    HW158562   6.388   7.862   3.425  0.3854 -0.5558 -0.9375
15501SOL    HW258563   6.410   8.012   3.487 -1.2163 -1.1170  1.0432
15502SOL     OW58564   3.885   0.566   0.598 -0.6683  0.1919 -0.1938
15502SOL    HW158565   3.891   0.583   0.696 -2.5838  0.2363 -0.0607
15502SOL    HW258566   3.879   0.467   0.583  0.3679  0.1443 -0.3218
15503SOL     OW58567   4.501   6.158   7.260  0.1015  0.2394 -0.6229
15503SOL    HW158568   4.599   6.155   7.280  0.0330 -0.7121 -0.4003
15503SOL    HW258569   4.459   6.234   7.309  0.6544  0.3686 -0.3470
15504SOL     OW58570   8.345   1.033   2.708  0.1321 -0.6716  0.2503
15504SOL    HW158571   8.271   0.995   2.764  0.1252 -0.7239  0.2069
15504SOL    HW258572   8.378   1.118   2.749 -1.0104  0.1796 -0.5536
15505SOL     OW58573   2.783   4.025   9.486  0.6647 -0.1027  0.2093
15505SOL    HW158574   2.749   3.940   9.448 -2.6627  1.0078  0.5477
15505SOL    HW258575   2.827   4.008   9.574 -0.0029 -1.4514  0.2795
15506SOL     OW58576   0.725   5.041   5.808 -0.1187  0.2864 -0.3183
15506SOL    HW158577   0.803   5.082   5.854  1.4097 -2.1983 -0.6172
15506SOL    HW258578   0.692   5.103   5.737  0.2268  2.2619  1.2217
15507SOL     OW58579   2.706   7.611   9.168 -0.3890 -0.2841 -0.3665
15507SOL    HW158580   2.720   7.699   9.124  2.5258 -0.7145 -0.3968
15507SOL    HW258581   2.688   7.541   9.099  0.8422 -0.3525 -0.6216
15508SOL     OW58582   1.431   1.104   8.294 -0.7523 -0.5387  0.2360
15508SOL    HW158583   1.334   1.125   8.284  0.2059  4.5365  0.1957
15508SOL    HW258584   1.468   1.156   8.371  2.6249  0.3096 -1.8585
15509SOL     OW58585   5.107   6.566   7.189 -0.2961  0.2634  0.5236
15509SOL    HW158586   5.140   6.488   7.135 -2.2359  0.2185 -0.6439
15509SOL    HW258587   5.186   6.615   7.228  1.1094 -0.3339 -1.4729
15510SOL     OW58588   1.849   3.380   0.960 -0.3926 -0.5111 -0.3906
15510SOL    HW158589   1.812   3.289   0.978 -0.3982 -0.6619 -1.1160
15510SOL    HW258590   1.789   3.428   0.896 -0.4743  0.0637  0.1182
15511SOL     OW58591   9.679   5.679   8.393  0.1493 -0.0151 -0.0101
15511SOL    HW158592   9.657   5.752   8.458  0.3487  0.1573 -0.1374
15511SOL    HW258593   9.775   5.685   8.367  0.0722 -0.0914 -0.3156
15512SOL     OW58594   0.030   0.654   9.997  0.3538 -0.5988 -0.8685
15512SOL    HW158595   0.049   0.736   9.944  0.6394 -0.7103 -0.9393
15512SOL    HW258596   0.079   0.577   9.958 -0.2019 -0.8819 -1.0185
15513SOL     OW58597   1.550   7.046   2.090 -0.7133  0.2207 -0.0184
15513SOL    HW158598   1.522   7.012   2.179 -0.8478  0.1482 -0.0885
15513SOL    HW258599   1.474   7.036   2.025 -0.4582 -0.1525 -0.2562
15514SOL     OW58600   3.831   8.267   1.496 -0.1756  0.2755  0.1033
15514SOL    HW158601   3.906   8.322   1.534 -0.0557  0.0708  0.1683
15514SOL    HW258602   3.787   8.317   1.422  0.8386 -0.1077 -0.7809
15515SOL     OW58603   2.313   5.936   1.313 -0.0840 -0.0870 -0.2739
15515SOL    HW158604   2.368   6.019   1.300  0.1752 -0.2721 -0.3419
15515SOL    HW258605   2.216   5.961   1.316 -0.0129  0.2055 -0.4118
15516SOL     OW58606   5.360   8.876   1.718  0.1318  0.2777 -0.3032
15516SOL    HW158607   5.424   8.806   1.689 -1.1502 -0.8266 -0.5120
15516SOL    HW258608   5.357   8.949   1.649 -0.0682 -0.4734 -1.1002
15517SOL     OW58609   2.208   6.653   4.443 -0.1916 -1.0502 -0.2611
15517SOL    HW158610   2.194   6.652   4.344  1.1987  0.0608 -0.4775
15517SOL    HW258611   2.158   6.729   4.483 -0.1092 -1.0270 -0.2024
15518SOL     OW58612   4.093   9.716   6.259 -0.1743  0.4229 -0.1654
15518SOL    HW158613   4.001   9.740   6.229 -0.9929 -1.6400  0.6433
15518SOL    HW258614   4.123   9.633   6.212  0.9131  0.5577  0.2640
15519SOL     OW58615   0.132   8.968   0.196 -0.1559  0.3569 -0.5252
15519SOL    HW158616   0.063   8.898   0.174 -0.2596  0.3512 -0.1857
15519SOL    HW258617   0.089   9.042   0.248 -0.3029  1.2461 -1.8878
15520SOL     OW58618   2.831   9.989   9.077 -0.3204  0.7242  0.2730
15520SOL    HW158619   2.744   9.942   9.068  0.7982 -1.4930  0.8460
15520SOL    HW258620   2.854  10.000   9.173  0.4315  0.5744  0.1144
15521SOL     OW58621   2.811   6.526   3.622 -0.3180 -0.2867 -0.1831
15521SOL    HW158622   2.745   6.601   3.620 -0.6285 -0.5243  0.7800
15521SOL    HW258623   2.903   6.562   3.611 -0.5911  0.0683 -1.3494
15522SOL     OW58624   3.386   0.383   2.650  0.1865  0.0898  0.0497
15522SOL    HW158625   3.327   0.392   2.731 -0.3261  0.0981 -0.3226
15522SOL    HW258626   3.407   0.287   2.635  1.4612  0.2007  1.0285
15523SOL     OW58627   1.606   6.412   7.495 -0.3024 -0.2062 -0.4957
15523SOL    HW158628   1.683   6.471   7.471 -0.1271  0.1844  1.0064
15523SOL    HW258629   1.622   6.320   7.459  1.0928 -0.2535  0.1994
15524SOL     OW58630   7.394   8.324   3.950  0.2207 -0.4837 -0.5469
15524SOL    HW158631   7.401   8.300   4.046 -1.1080 -0.8088 -0.5338
15524SOL    HW258632   7.484   8.352   3.916  0.7705 -0.7784  0.6713
15525SOL     OW58633   2.408   7.921   4.903 -0.5363  0.0970  0.2318
15525SOL    HW158634   2.473   7.891   4.833 -0.1555  1.7579 -0.1542
15525SOL    HW258635   2.353   7.996   4.867 -1.3123  0.0192  1.2378
15526SOL     OW58636   3.411   5.961   8.907 -0.3126 -0.7649  0.3987
15526SOL    HW158637   3.453   5.986   8.994  1.2388 -2.4073  0.1520
15526SOL    HW258638   3.418   6.038   8.843  1.6929 -0.7187  0.6202
15527SOL     OW58639   2.119   0.567   5.585  0.5102 -0.0199 -0.8752
15527SOL    HW158640   2.204   0.594   5.631  0.5664  0.6682 -1.3733
15527SOL    HW258641   2.140   0.534   5.494  0.2545  0.0047 -0.9432
15528SOL     OW58642   5.531   6.973   8.591 -0.4110 -0.5538  0.1164
15528SOL    HW158643   5.618   7.014   8.616 -1.4235  0.9781  1.2511
15528SOL    HW258644   5.487   7.030   8.521  0.3751 -2.3938 -1.9284
15529SOL     OW58645   1.990   7.477   4.787 -0.0154  0.2240 -0.0644
15529SOL    HW158646   1.942   7.490   4.874 -0.0179  0.0284 -0.0359
15529SOL    HW258647   2.008   7.380   4.774 -0.7290  0.1722 -0.6655
15530SOL     OW58648   4.609   4.612   8.125  0.2373  0.2015  0.3739
15530SOL    HW158649   4.583   4.679   8.194 -0.6076 -1.8917  2.1424
15530SOL    HW258650   4.528   4.586   8.072  0.3961 -0.0005  0.2287
15531SOL     OW58651   0.839   6.333   8.412  0.5330 -0.3426 -0.0692
15531SOL    HW158652   0.903   6.358   8.484  0.7952 -1.1464 -0.0216
15531SOL    HW258653   0.877   6.258   8.358 -1.4056 -2.4803  1.4731
15532SOL     OW58654   0.896   9.144   5.316  0.0015 -0.8499  0.1403
15532SOL    HW158655   0.873   9.162   5.412 -0.7338 -0.0622 -0.1794
15532SOL    HW258656   0.816   9.103   5.270  0.5530 -1.8012  0.0141
15533SOL     OW58657   7.518   9.075   9.284 -0.1367  0.7082  0.2723
15533SOL    HW158658   7.453   9.124   9.226  0.4457  0.8676 -0.2430
15533SOL    HW258659   7.596   9.046   9.230  0.0785  0.2404  0.8305
15534SOL     OW58660   9.894   9.185   9.744  0.2776  0.0942  0.3372
15534SOL    HW158661   9.920   9.090   9.729  1.3694  0.1357  1.8049
15534SOL    HW258662   9.974   9.243   9.730 -0.1696  0.7049  0.3092
15535SOL     OW58663   1.994   6.391   7.536  0.5075 -0.0546 -0.2180
15535SOL    HW158664   2.023   6.483   7.562 -1.9836  1.1397 -1.4982
15535SOL    HW258665   2.036   6.366   7.449 -2.1608  1.6399 -2.0369
15536SOL     OW58666   4.177   7.895   9.131 -0.2330  0.1504  0.0357
15536SOL    HW158667   4.150   7.915   9.036 -0.3568 -0.6793 -0.1054
15536SOL    HW258668   4.273   7.867   9.133 -0.3183 -0.1392  0.1137
15537SOL     OW58669   3.150   8.860   9.013 -0.2919 -0.2472  0.0528
15537SOL    HW158670   3.063   8.852   9.061  0.2581  1.3127  1.3622
15537SOL    HW258671   3.189   8.769   8.999 -1.9663 -0.9263 -0.2594
15538SOL     OW58672   4.563   7.026   7.501 -0.2499  0.6726  0.0419
15538SOL    HW158673   4.539   6.947   7.558 -0.4329  1.0096  0.4299
15538SOL    HW258674   4.655   7.058   7.525 -0.6031  1.2472  0.6313
15539SOL     OW58675   2.823   9.794   3.795 -0.3579 -0.2557 -0.5140
15539SOL    HW158676   2.814   9.893   3.785 -0.0687 -0.1577  0.1531
15539SOL    HW258677   2.919   9.767   3.784 -0.4312 -0.4595 -0.6732
15540SOL     OW58678   0.848   9.363   9.917 -0.0598  0.0148 -0.4372
15540SOL    HW158679   0.767   9.314   9.885 -1.1870 -0.0444  2.3417
15540SOL    HW258680   0.930   9.309   9.898 -1.0967 -2.0147  0.7733
15541SOL     OW58681   9.221   9.025   6.727  0.9850 -0.5911 -1.0412
15541SOL    HW158682   9.136   9.063   6.689  0.6003 -1.2193 -0.7954
15541SOL    HW258683   9.215   9.021   6.826  0.9384 -1.5279 -1.0820
15542SOL     OW58684   5.907   8.513   6.207 -0.0538 -0.3424 -0.2184
15542SOL    HW158685   5.972   8.574   6.253 -0.9885  0.1465  0.4655
15542SOL    HW258686   5.891   8.546   6.114  2.0239 -1.4667 -0.9939
15543SOL     OW58687   8.756   4.390   3.804 -0.5744 -0.5369  0.6321
15543SOL    HW158688   8.680   4.393   3.739 -1.0374 -1.4377  1.1166
15543SOL    HW258689   8.721   4.401   3.897 -0.2400 -1.9827  0.9399
15544SOL     OW58690   7.314   6.917   7.957  0.5934  0.4613 -0.2465
15544SOL    HW158691   7.327   6.839   7.895 -1.4610  1.2954 -1.7952
15544SOL    HW258692   7.248   6.892   8.028  1.0564  0.3293  0.1425
15545SOL     OW58693   3.959   7.048   8.137 -0.5037  0.0418  0.3321
15545SOL    HW158694   3.939   7.014   8.229 -0.5723 -0.4771  0.1283
15545SOL    HW258695   3.876   7.042   8.081 -0.3492 -0.0501  0.1126
15546SOL     OW58696   4.805   9.969   8.037 -0.0121  1.2974 -0.0291
15546SOL    HW158697   4.835   9.912   7.960  0.2641  2.2209 -0.6123
15546SOL    HW258698   4.882  10.024   8.069 -0.6695  2.4950 -0.4840
15547SOL     OW58699   6.901   6.624   5.159 -0.4868  0.3239  0.1096
15547SOL    HW158700   6.989   6.666   5.180 -0.6862  0.9985 -0.3857
15547SOL    HW258701   6.907   6.577   5.070 -0.5644  0.1748  0.1819
15548SOL     OW58702   9.282   5.662   7.988 -0.4920 -0.2114 -0.2300
15548SOL    HW158703   9.251   5.738   7.931 -0.1240 -0.7517 -1.1534
15548SOL    HW258704   9.355   5.693   8.049 -2.3931  0.9319  1.5562
15549SOL     OW58705   8.322   2.686   1.456 -0.0256 -0.0566 -0.2929
15549SOL    HW158706   8.254   2.754   1.484  1.1081  0.7706  0.5294
15549SOL    HW258707   8.403   2.695   1.513  0.7050 -1.1571 -1.1347
15550SOL     OW58708   3.947   2.019   7.398 -0.4791 -0.0045 -0.3300
15550SOL    HW158709   3.957   1.921   7.382  0.2469 -0.0935  0.6080
15550SOL    HW258710   3.863   2.051   7.357 -0.1836 -0.8160 -1.5951
15551SOL     OW58711   2.101   2.579   7.418  0.1445 -0.4628 -0.0418
15551SOL    HW158712   2.044   2.518   7.472 -0.0395 -1.2692 -1.1360
15551SOL    HW258713   2.198   2.563   7.440  0.0475 -0.4240  0.4154
15552SOL     OW58714   3.152   7.969   7.167 -0.0206 -0.1308 -0.1898
15552SOL    HW158715   3.123   7.898   7.102  0.0350 -1.4184  1.1575
15552SOL    HW258716   3.190   8.046   7.117  1.1245 -1.5979 -1.6475
15553SOL     OW58717   7.292   8.410   0.826  0.0074  0.0016  0.0315
15553SOL    HW158718   7.332   8.499   0.845  0.4749  0.4792 -2.9120
15553SOL    HW258719   7.327   8.342   0.891  1.9006  1.3748  0.4655
15554SOL     OW58720   5.028   9.787   6.209 -0.9855 -0.0001  0.0044
15554SOL    HW158721   4.998   9.699   6.172  2.5321 -1.5323  0.6179
15554SOL    HW258722   5.071   9.841   6.136  0.3075 -0.4176  0.4431
15555SOL     OW58723   4.881   6.253   6.358  0.0997 -0.2805 -0.0475
15555SOL    HW158724   4.914   6.186   6.425 -0.6576 -1.2803 -0.6590
15555SOL    HW258725   4.943   6.331   6.356  1.9310 -1.7054 -0.5076
15556SOL     OW58726   3.400   7.706   7.790  0.1403 -0.0010  0.0586
15556SOL    HW158727   3.305   7.677   7.781  0.0350  0.7078 -1.1918
15556SOL    HW258728   3.425   7.764   7.712  1.2938  0.6366  0.8833
15557SOL     OW58729   3.992   0.749   1.126  0.1395 -0.0239  0.1255
15557SOL    HW158730   4.005   0.842   1.161 -1.4338  0.0727  0.5290
15557SOL    HW258731   3.949   0.693   1.197 -2.4226 -0.0178 -1.3415
15558SOL     OW58732   8.249   9.112   9.399  0.4167 -0.6808  0.1084
15558SOL    HW158733   8.170   9.107   9.461 -0.0681 -2.1015 -0.5980
15558SOL    HW258734   8.324   9.058   9.436  0.2183 -1.3099 -0.3876
15559SOL     OW58735   8.509   3.582   7.331 -0.0256 -0.2650  0.0865
15559SOL    HW158736   8.508   3.593   7.232 -0.8994  0.7270  0.1962
15559SOL    HW258737   8.444   3.511   7.358  1.3125 -1.5909 -0.1655
15560SOL     OW58738   7.809   8.768   9.717  0.2939 -0.0752  0.0883
15560SOL    HW158739   7.845   8.745   9.808  1.0092  0.9471  0.0676
15560SOL    HW258740   7.807   8.685   9.661  0.8818 -0.4992  0.6819
15561SOL     OW58741   7.167   0.189   0.613  0.9229  0.5929 -0.2698
15561SOL    HW158742   7.147   0.229   0.703 -0.3689 -0.9862  0.1786
15561SOL    HW258743   7.199   0.260   0.551 -0.5390  2.1796  0.7317
15562SOL     OW58744   7.282   8.704   7.677 -0.0777 -0.0465 -0.0689
15562SOL    HW158745   7.258   8.634   7.609 -2.4727 -0.2408  0.9413
15562SOL    HW258746   7.223   8.784   7.665  3.5673  2.5070 -2.1542
15563SOL     OW58747   1.883   1.877   1.031 -0.7460 -0.1057  0.0394
15563SOL    HW158748   1.805   1.893   1.092 -0.3958 -1.7013  0.9180
15563SOL    HW258749   1.940   1.959   1.027 -1.7416  0.6143  0.4294
15564SOL     OW58750   3.613   5.227   1.642 -0.2659  0.2642 -0.0048
15564SOL    HW158751   3.699   5.277   1.652 -0.0894  0.1884 -0.9913
15564SOL    HW258752   3.589   5.184   1.728  2.0074 -1.8151 -0.3349
15565SOL     OW58753   4.053   0.920   9.004  0.0363 -0.0474  0.1560
15565SOL    HW158754   4.023   0.829   9.034 -1.0959  0.0697 -0.5806
15565SOL    HW258755   3.975   0.983   9.009  0.4143  0.5039 -0.8643
15566SOL     OW58756   9.286   5.887   1.117  0.8501 -0.4208  0.5108
15566SOL    HW158757   9.378   5.924   1.133  0.6369  0.0705  0.6159
15566SOL    HW258758   9.219   5.960   1.130  0.5631 -0.3608 -1.1700
15567SOL     OW58759   7.330   4.882   5.216  0.7046  0.1155 -0.4039
15567SOL    HW158760   7.231   4.896   5.214  0.8416  0.9865 -1.1927
15567SOL    HW258761   7.373   4.954   5.270  1.0029  0.3461 -0.9427
15568SOL     OW58762   9.305   0.023   8.596  0.5812 -0.4859  0.8097
15568SOL    HW158763   9.381   0.086   8.579  0.0808  0.1409  0.9072
15568SOL    HW258764   9.323  -0.029   8.679  1.2349 -0.8434  0.4547
15569SOL     OW58765   2.183   8.579   6.044 -0.0353  0.4313 -0.0175
15569SOL    HW158766   2.178   8.544   6.137  1.1333 -0.5699 -0.3114
15569SOL    HW258767   2.228   8.668   6.043 -1.0286  0.9469  0.4877
15570SOL     OW58768   8.430   7.035   8.430 -0.3541 -0.0701 -0.1422
15570SOL    HW158769   8.335   7.035   8.461 -0.0185 -1.0464  0.9536
15570SOL    HW258770   8.489   7.066   8.505  0.0120  2.5377 -1.4760
15571SOL     OW58771   3.262   0.683   7.364  0.3353 -0.0545 -0.0927
15571SOL    HW158772   3.346   0.735   7.348  1.0826 -0.8484  1.0807
15571SOL    HW258773   3.281   0.586   7.350 -0.2061 -0.2989  0.7966
15572SOL     OW58774   6.548   0.845   1.533 -0.1421  0.3645  0.1377
15572SOL    HW158775   6.507   0.802   1.453  0.1526  0.9237 -0.3145
15572SOL    HW258776   6.584   0.935   1.508  0.1846  0.4304  0.8345
15573SOL     OW58777   2.551   2.290   9.591  0.3834 -0.3914 -0.2056
15573SOL    HW158778   2.488   2.356   9.631  0.3098  0.4713 -1.7036
15573SOL    HW258779   2.512   2.253   9.507  0.1522 -2.8344  0.9397
15574SOL     OW58780   6.649   6.281   9.986 -0.4173  0.6199 -0.2578
15574SOL    HW158781   6.638   6.334   9.902 -0.0953  0.6096 -0.3084
15574SOL    HW258782   6.746   6.263  10.001 -0.6849 -2.2188 -1.6213
15575SOL     OW58783   8.715   0.687   0.826  0.7622 -0.2113  0.3860
15575SOL    HW158784   8.796   0.724   0.872  1.9823 -0.6628 -1.3683
15575SOL    HW258785   8.729   0.590   0.806  1.5164  0.6052 -3.5476
15576SOL     OW58786   3.596   8.946   6.464  0.1334  0.0208 -0.1236
15576SOL    HW158787   3.615   8.888   6.543  0.4021  1.5879  0.9802
15576SOL    HW258788   3.657   8.921   6.388 -0.6439 -2.0005 -0.1194
15577SOL     OW58789   0.401   3.204   7.996 -0.3501 -1.1534 -0.2801
15577SOL    HW158790   0.330   3.186   7.928 -1.3393 -1.1486  0.7290
15577SOL    HW258791   0.453   3.120   8.014  2.1718 -0.3635 -3.5217
15578SOL     OW58792   5.651   7.447   4.863 -0.6793  0.5540  0.2430
15578SOL    HW158793   5.729   7.430   4.803 -1.6586  0.3012 -0.9861
15578SOL    HW258794   5.634   7.366   4.919 -0.4749  0.3690  0.0379
15579SOL     OW58795   4.776   7.587   9.681  0.3331 -0.2001  0.0267
15579SOL    HW158796   4.731   7.646   9.613 -0.0857 -0.0445  0.4332
15579SOL    HW258797   4.772   7.492   9.650 -0.2672 -0.1857  0.0460
15580SOL     OW58798   2.807   9.169   4.175 -0.2840  0.0377 -0.1233
15580SOL    HW158799   2.717   9.174   4.131 -0.5985 -1.7478  0.2996
15580SOL    HW258800   2.805   9.099   4.246  1.8343 -0.9299 -0.9990
15581SOL     OW58801   4.195   3.906   6.303  0.4395  0.2269  0.0742
15581SOL    HW158802   4.158   3.839   6.239  1.6350 -0.6519  0.2756
15581SOL    HW258803   4.201   3.996   6.258  0.6855 -0.2420 -0.8388
15582SOL     OW58804   6.791   0.456   8.185 -0.0822  0.0784  0.1445
15582SOL    HW158805   6.789   0.364   8.223  0.9824  0.5812  1.4832
15582SOL    HW258806   6.710   0.506   8.215 -0.6137 -0.3885 -0.5052
15583SOL     OW58807   7.360   7.953   1.080  0.3104  0.5538 -0.0793
15583SOL    HW158808   7.429   7.900   1.032  0.4106  1.6501 -1.1923
15583SOL    HW258809   7.281   7.895   1.100  1.5556 -0.7286  1.2851
15584SOL     OW58810   3.097   4.265   1.626  0.4759  0.0942 -0.0507
15584SOL    HW158811   3.139   4.282   1.537  1.9550  0.2544  0.6646
15584SOL    HW258812   3.101   4.167   1.647  1.9792  0.3097  0.7312
15585SOL     OW58813   7.819   6.147   7.267  0.7154 -0.1546 -0.2073
15585SOL    HW158814   7.748   6.210   7.233  0.6608 -0.0744  0.0500
15585SOL    HW258815   7.895   6.200   7.304  0.7662 -0.2386 -0.1912
15586SOL     OW58816   9.776   8.581   6.141 -0.5380  0.2022  0.4787
15586SOL    HW158817   9.822   8.542   6.221 -0.5645 -0.8318  0.0036
15586SOL    HW258818   9.757   8.508   6.075  0.5402  1.2468 -1.0027
15587SOL     OW58819   3.036   1.982   7.448 -0.2283 -0.0694 -0.5164
15587SOL    HW158820   3.099   1.974   7.371  1.4687  2.1448  0.5688
15587SOL    HW258821   2.970   2.055   7.429 -1.2599 -1.0698 -0.8231
15588SOL     OW58822   8.301   1.062   0.290 -0.7174  0.0990 -0.5220
15588SOL    HW158823   8.377   1.002   0.264 -0.8108  0.0756 -0.7418
15588SOL    HW258824   8.217   1.030   0.246 -0.4872  1.2702 -1.8744
15589SOL     OW58825   9.075   8.244  10.000  0.2314  0.1869  0.2068
15589SOL    HW158826   9.042   8.310  10.067 -1.7512 -1.1206  0.5626
15589SOL    HW258827   9.090   8.155  10.044  0.7742 -0.1775 -0.6907
15590SOL     OW58828   8.227   6.856   7.557 -0.3378  0.2744 -0.4475
15590SOL    HW158829   8.251   6.894   7.647  0.9294  0.2766 -0.7729
15590SOL    HW258830   8.199   6.931   7.496 -0.5384  0.3531 -0.2599
15591SOL     OW58831   3.677   3.814   8.122 -0.2886 -0.3712 -0.1044
15591SOL    HW158832   3.618   3.736   8.142  1.4789 -1.5060  0.7344
15591SOL    HW258833   3.687   3.870   8.204  1.7178 -1.4985  0.4563
15592SOL     OW58834   2.292   3.418   3.930 -0.0909 -0.0955 -0.2321
15592SOL    HW158835   2.275   3.491   3.996 -1.4865 -2.5592  2.2270
15592SOL    HW258836   2.379   3.435   3.883 -0.2940  3.0001  0.4090
15593SOL     OW58837   2.920   6.159   9.264 -0.3912 -0.1796 -0.0125
15593SOL    HW158838   2.846   6.181   9.328 -0.8654  0.1565 -0.6717
15593SOL    HW258839   2.997   6.221   9.280  0.1040 -1.1131  1.2732
15594SOL     OW58840   2.740   5.512   7.458  0.8492  0.3115  0.6270
15594SOL    HW158841   2.717   5.431   7.405  1.2784  1.1194 -0.8247
15594SOL    HW258842   2.657   5.559   7.486  0.6044 -0.5211  1.3181
15595SOL     OW58843   1.111   0.723   4.913  0.1424  0.2670 -0.3414
15595SOL    HW158844   1.077   0.802   4.861  1.3082  0.9673 -0.0471
15595SOL    HW258845   1.097   0.739   5.011 -0.9825 -0.5478 -0.3563
15596SOL     OW58846   2.060   3.196   9.633  0.8671 -0.0168 -0.3445
15596SOL    HW158847   2.002   3.134   9.686  2.0155 -0.3725  0.5219
15596SOL    HW258848   2.036   3.291   9.654  1.0158 -0.1611  0.4916
15597SOL     OW58849   5.062   6.236   8.312 -0.2255  0.3356  0.0076
15597SOL    HW158850   4.970   6.213   8.279  0.3285  0.4477 -1.6952
15597SOL    HW258851   5.076   6.335   8.302  0.6544  0.0926 -1.2998
15598SOL     OW58852   0.719   9.044   7.474  0.2730 -0.4827  0.2978
15598SOL    HW158853   0.809   9.039   7.431  0.7168  1.4507  0.9506
15598SOL    HW258854   0.729   9.040   7.574 -0.2824  0.5481  0.4036
15599SOL     OW58855   1.168   2.653   1.914  0.1829 -0.2292  0.0808
15599SOL    HW158856   1.069   2.652   1.906  0.2184 -0.1982 -0.4039
15599SOL    HW258857   1.195   2.638   2.009 -0.2923  0.2329  0.2862
15600SOL     OW58858   2.647   6.877   9.509  0.2309  0.1039 -0.1966
15600SOL    HW158859   2.743   6.850   9.496  0.3037 -0.2823  1.0965
15600SOL    HW258860   2.598   6.865   9.422  1.2499 -0.1002 -0.7616
15601SOL     OW58861   7.415   7.090   7.527  0.4480  0.0813 -0.1321
15601SOL    HW158862   7.365   7.107   7.443  0.8865  0.2563 -0.3625
15601SOL    HW258863   7.362   7.122   7.605  0.1785  0.2112 -0.3699
15602SOL     OW58864   5.424   5.776   8.130  0.8586  0.3177 -0.5368
15602SOL    HW158865   5.397   5.865   8.166  0.2464 -0.4509  0.9262
15602SOL    HW258866   5.360   5.747   8.059 -0.9317 -0.4982  1.3769
15603SOL     OW58867   0.028   0.697   7.424 -0.0400  0.4074  0.3788
15603SOL    HW158868   0.031   0.730   7.330 -1.9904  1.4031  0.6402
15603SOL    HW258869   0.011   0.774   7.485  0.6995 -0.3140  1.5097
15604SOL     OW58870   5.891   8.816   3.949 -0.0313  0.4939 -0.2278
15604SOL    HW158871   5.904   8.722   3.981 -1.4100  0.1872 -0.5651
15604SOL    HW258872   5.963   8.874   3.987  1.3243 -0.8475 -0.6651
15605SOL     OW58873   1.959   8.178   7.316 -0.1539 -0.4870 -0.0881
15605SOL    HW158874   1.915   8.231   7.244  0.5185 -1.3780 -1.1680
15605SOL    HW258875   1.909   8.093   7.331 -0.8378  0.1275  1.1669
15606SOL     OW58876   5.602   2.083   9.726 -0.1033 -0.3347  0.0262
15606SOL    HW158877   5.663   2.056   9.652 -1.9023 -0.9881 -1.2384
15606SOL    HW258878   5.652   2.139   9.792  2.1870 -1.9219 -0.3208
15607SOL     OW58879   3.449   6.901   2.719 -0.4051 -0.2747 -0.5714
15607SOL    HW158880   3.373   6.966   2.719  0.7214  1.0662 -0.0873
15607SOL    HW258881   3.470   6.874   2.813  0.7633  0.6042 -0.5751
15608SOL     OW58882   5.700   8.520   8.117 -0.1546  0.2541  0.0980
15608SOL    HW158883   5.761   8.592   8.084  0.5518 -1.4859 -2.4612
15608SOL    HW258884   5.754   8.446   8.157 -0.6931 -0.3381 -0.2546
15609SOL     OW58885   4.248   7.384   8.053 -0.8384 -0.1471 -0.5320
15609SOL    HW158886   4.219   7.336   7.970 -0.7982 -1.3106  0.1128
15609SOL    HW258887   4.281   7.317   8.120  0.7318  0.9159 -0.2075
15610SOL     OW58888   2.888   1.936   4.481 -0.3972  0.1074 -0.4715
15610SOL    HW158889   2.838   1.924   4.566  0.1653 -0.2610 -0.1901
15610SOL    HW258890   2.842   1.886   4.408 -0.5409 -0.0779 -0.2532
15611SOL     OW58891   4.459   8.408   7.324 -0.5442 -0.5602 -0.2785
15611SOL    HW158892   4.391   8.428   7.254 -1.6216 -0.0249  0.9128
15611SOL    HW258893   4.473   8.489   7.381  0.5761 -0.8861 -0.0823
15612SOL     OW58894   5.586   7.589   6.612  0.0317 -0.4989 -0.7300
15612SOL    HW158895   5.681   7.579   6.644  0.0597  0.5780 -0.4874
15612SOL    HW258896   5.569   7.521   6.540  1.1137 -0.4305 -1.0585
15613SOL     OW58897   2.196   0.290   2.561  0.2623  0.4289 -0.4326
15613SOL    HW158898   2.279   0.242   2.532 -0.1483 -0.4651 -0.1661
15613SOL    HW258899   2.118   0.226   2.560 -0.1723  0.9169  0.5453
15614SOL     OW58900   8.916   8.881   7.283  0.2495 -0.0647 -0.6225
15614SOL    HW158901   8.894   8.877   7.186 -0.9769  0.8095 -0.4057
15614SOL    HW258902   9.009   8.848   7.299 -0.0452 -1.5681 -1.9091
15615SOL     OW58903   0.540   3.428   2.229 -0.0405 -0.2406  0.4035
15615SOL    HW158904   0.552   3.475   2.141  3.5382 -0.8172  0.4911
15615SOL    HW258905   0.557   3.493   2.303 -0.6500 -0.3407  0.6334
15616SOL     OW58906   4.021   7.670   7.948 -0.0630 -0.7103 -0.7249
15616SOL    HW158907   3.951   7.600   7.934  0.7809 -1.7552  0.1714
15616SOL    HW258908   4.093   7.660   7.880  0.8898 -1.7860  0.4251
15617SOL     OW58909   0.233   0.897   7.646 -0.0582 -0.2204  0.5922
15617SOL    HW158910   0.259   0.826   7.580  0.3475 -0.6269  1.1753
15617SOL    HW258911   0.291   0.889   7.727  0.3100  1.0914  0.4668
15618SOL     OW58912   3.078   8.317   4.023  0.1442  0.2263 -0.1844
15618SOL    HW158913   3.023   8.364   3.954  0.1112 -0.1771 -0.4332
15618SOL    HW258914   3.140   8.253   3.978  1.2157  1.0794  0.0503
15619SOL     OW58915   2.301   7.061   9.566  0.1366 -0.3178 -0.1015
15619SOL    HW158916   2.326   7.049   9.662 -0.2581 -0.6396 -0.0380
15619SOL    HW258917   2.375   7.110   9.518  0.6041 -0.6970  0.2258
15620SOL     OW58918   9.625   7.187   6.275 -0.2328 -0.3469  0.1964
15620SOL    HW158919   9.593   7.251   6.345 -0.5098 -0.6234  0.3262
15620SOL    HW258920   9.669   7.109   6.320 -0.0009 -0.3024  0.0438
15621SOL     OW58921   1.138   9.339   1.353  0.2016  0.0031  0.1533
15621SOL    HW158922   1.086   9.414   1.394  1.0013  1.3324 -1.1979
15621SOL    HW258923   1.084   9.299   1.279 -0.4788 -1.1944  1.2638
15622SOL     OW58924   2.601   8.089   8.393 -0.4763 -0.2528  0.7832
15622SOL    HW158925   2.655   8.161   8.350  0.3752 -1.2672  0.1227
15622SOL    HW258926   2.659   8.036   8.455 -0.5349 -1.7066 -0.3623
15623SOL     OW58927   5.844   8.481   3.775 -0.2630 -0.2702  0.5311
15623SOL    HW158928   5.794   8.558   3.735  1.4291  0.3113 -0.5112
15623SOL    HW258929   5.792   8.396   3.761 -0.5125  0.1863 -1.3816
15624SOL     OW58930   0.449   5.590   9.789  0.1624  0.1121  0.4222
15624SOL    HW158931   0.534   5.569   9.838 -0.1830 -2.3298  0.0509
15624SOL    HW258932   0.463   5.670   9.731  1.6753  0.8148  1.7005
15625SOL     OW58933   4.771   2.897   1.568  0.2924 -0.8501  0.4267
15625SOL    HW158934   4.819   2.882   1.482  0.7733  0.9425  0.3620
15625SOL    HW258935   4.675   2.915   1.550  0.9016  2.3400 -0.0167
15626SOL     OW58936   2.622   7.426   9.800  0.3112  0.5992 -0.6346
15626SOL    HW158937   2.710   7.441   9.847  0.0912  2.3507 -0.7434
15626SOL    HW258938   2.568   7.361   9.852  1.0591  0.6800  0.2714
15627SOL     OW58939   2.390   8.165   5.737 -0.4073  0.0823 -0.6289
15627SOL    HW158940   2.363   8.069   5.737 -2.0716  0.5369 -1.1018
15627SOL    HW258941   2.350   8.210   5.817  0.2501  0.4099 -0.4856
15628SOL     OW58942   7.481   7.819   6.741 -0.5419  0.5161 -0.7969
15628SOL    HW158943   7.419   7.764   6.685 -1.2179  0.1762  0.2685
15628SOL    HW258944   7.437   7.906   6.765 -0.8863  0.0001  0.5088
15629SOL     OW58945   5.231   6.268   9.356  0.5019  0.0524 -0.5629
15629SOL    HW158946   5.204   6.364   9.361  1.3957  0.4082 -2.2895
15629SOL    HW258947   5.238   6.231   9.449  0.4822  1.7356  0.1363
15630SOL     OW58948   6.031   0.846   8.589  0.3262 -0.7221 -0.3252
15630SOL    HW158949   6.115   0.898   8.580 -0.2319  0.4191  0.8875
15630SOL    HW258950   5.962   0.881   8.526  1.3549 -2.9952 -2.8439
15631SOL     OW58951   8.293   8.528   6.399 -0.4837 -0.3862  0.6062
15631SOL    HW158952   8.358   8.479   6.340 -0.3600  0.4364  0.0515
15631SOL    HW258953   8.336   8.544   6.488  0.1369  0.2918  0.1910
15632SOL     OW58954   5.961   1.678   9.545 -0.3792  0.5802  0.1037
15632SOL    HW158955   5.977   1.647   9.639 -1.9609 -2.5024 -0.5463
15632SOL    HW258956   5.867   1.710   9.536 -0.4824  0.1170 -0.5735
15633SOL     OW58957   4.896   5.183   1.715 -0.1148  0.4913 -0.0704
15633SOL    HW158958   4.805   5.191   1.675 -0.8419  1.5211  1.7464
15633SOL    HW258959   4.904   5.244   1.793  1.9102 -0.1128  0.2303
15634SOL     OW58960   5.068   4.854   8.889  0.4530 -0.1983 -0.0289
15634SOL    HW158961   5.140   4.863   8.820 -0.7323 -0.8180 -1.3812
15634SOL    HW258962   4.988   4.810   8.848 -0.5807  0.1709  1.5427
15635SOL     OW58963   2.111   7.026   9.358  0.1194 -0.1787  0.2431
15635SOL    HW158964   2.055   6.943   9.357  1.8734 -1.4070  0.3878
15635SOL    HW258965   2.162   7.030   9.444  0.6796  0.6088 -0.1256
15636SOL     OW58966   5.124   6.773   5.744  0.4017  0.3262 -0.0881
15636SOL    HW158967   5.159   6.866   5.758 -0.0848  0.3141  1.3094
15636SOL    HW258968   5.171   6.710   5.805 -1.7247  0.2427  1.5226
15637SOL     OW58969   0.418   1.058   9.333 -0.1579 -0.2162  0.1490
15637SOL    HW158970   0.414   1.085   9.429 -1.1007  0.2542 -0.0206
15637SOL    HW258971   0.419   0.958   9.327 -2.5288 -0.2970  0.5746
15638SOL     OW58972   4.800   5.364   9.485 -0.3788  0.1464  0.1585
15638SOL    HW158973   4.830   5.452   9.523 -1.6556  1.2439 -1.3378
15638SOL    HW258974   4.880   5.314   9.451  0.1159  1.7134 -1.0328
15639SOL     OW58975   6.262   7.395   3.785 -0.5833 -0.6306 -0.4172
15639SOL    HW158976   6.213   7.340   3.717  1.8708 -0.9051 -1.9979
15639SOL    HW258977   6.317   7.465   3.739  0.4665 -0.2740  1.3257
15640SOL     OW58978   5.787   0.617   8.971 -0.2005 -0.2927 -0.2554
15640SOL    HW158979   5.701   0.659   9.001 -0.4877 -0.2225 -1.1688
15640SOL    HW258980   5.842   0.684   8.922  0.1157 -0.5033 -0.1914
15641SOL     OW58981   9.844   0.351   7.120  0.0904  0.0645  0.6787
15641SOL    HW158982   9.768   0.415   7.126  1.3508  1.6597 -0.0904
15641SOL    HW258983   9.924   0.390   7.166  1.2032 -0.4468 -0.8026
15642SOL     OW58984   4.561   6.484   1.496 -0.2174 -0.0506 -0.0514
15642SOL    HW158985   4.564   6.396   1.545 -0.5594  0.4127  0.8297
15642SOL    HW258986   4.628   6.484   1.423  1.0190 -0.3897  1.0630
15643SOL     OW58987   4.231   8.612   0.127  0.4773 -0.0856 -0.5685
15643SOL    HW158988   4.238   8.698   0.077 -0.6621  0.0141 -0.5717
15643SOL    HW258989   4.280   8.540   0.077  0.4184  0.2933 -1.1756
15644SOL     OW58990   3.949   1.133   0.974 -0.0808 -0.1780  0.4275
15644SOL    HW158991   3.911   1.223   0.953 -1.0470 -0.8882 -0.9257
15644SOL    HW258992   3.951   1.077   0.891  0.6632 -1.3557  1.2207
15645SOL     OW58993   9.423   2.430   5.552  0.0049  0.1951  0.1887
15645SOL    HW158994   9.437   2.461   5.646  1.2654  0.4497 -0.0751
15645SOL    HW258995   9.349   2.483   5.510  0.2110  0.8678  0.6715
15646SOL     OW58996   0.925   0.037   0.692 -0.6238  0.6167 -0.8350
15646SOL    HW158997   0.895   0.069   0.783 -0.0505 -1.4639  0.1119
15646SOL    HW258998   1.024   0.028   0.692 -0.6897 -0.0641 -1.4510
15647SOL     OW58999   4.038   2.776   8.154  0.5021 -0.0717  0.1369
15647SOL    HW159000   3.941   2.798   8.143  0.4520 -0.5840 -0.4709
15647SOL    HW259001   4.051   2.722   8.237  0.2779  0.0558  0.2549
15648SOL     OW59002   3.214   8.329   2.463  0.5807 -0.2703 -0.0352
15648SOL    HW159003   3.260   8.413   2.435 -0.7767  0.0750 -1.3217
15648SOL    HW259004   3.139   8.351   2.525  0.3352 -0.5478 -0.2317
15649SOL     OW59005   3.825   8.589   3.365  0.2190 -0.5069 -0.3112
15649SOL    HW159006   3.873   8.561   3.281  0.8680  1.2785 -0.5720
15649SOL    HW259007   3.727   8.572   3.355  0.4020 -1.1538 -1.0649
15650SOL     OW59008   1.937   3.982   0.832  0.3984 -0.2100 -0.2615
15650SOL    HW159009   1.893   3.902   0.873 -0.6024  0.0542 -0.8140
15650SOL    HW259010   1.948   4.053   0.902 -1.4263  0.2877 -0.4613
15651SOL     OW59011   0.578   4.140   5.874  0.1060  0.2704 -0.0929
15651SOL    HW159012   0.597   4.224   5.823 -0.0993  2.3535  3.1362
15651SOL    HW259013   0.660   4.083   5.876  1.0457  1.6065 -0.0812
15652SOL     OW59014   3.666   2.316   5.885  0.2772 -0.2863 -0.2540
15652SOL    HW159015   3.731   2.251   5.846 -0.5971 -0.7987 -0.8733
15652SOL    HW259016   3.573   2.288   5.862 -0.1405  0.7538  0.1408
15653SOL     OW59017   2.805   1.934   3.915  0.1022 -0.6820 -0.3822
15653SOL    HW159018   2.743   1.895   3.847  0.3028 -0.2954 -0.7834
15653SOL    HW259019   2.899   1.908   3.895  0.1371 -0.7796 -0.1046
15654SOL     OW59020   0.092   4.930   9.723 -0.3268  0.0806  0.0832
15654SOL    HW159021   0.087   4.928   9.823  0.5690 -1.8694  0.1268
15654SOL    HW259022   0.033   4.859   9.685  0.9036 -0.5610 -0.6738
15655SOL     OW59023   9.768   0.838   0.636  0.3092  0.3189 -0.2494
15655SOL    HW159024   9.797   0.835   0.540 -0.2088  0.3851 -0.4091
15655SOL    HW259025   9.715   0.921   0.652  0.0668  0.1166  0.0033
15656SOL     OW59026   5.179   3.668   2.617 -0.1190 -0.3464 -0.0380
15656SOL    HW159027   5.129   3.735   2.672  1.2670  0.2801  0.4667
15656SOL    HW259028   5.274   3.665   2.646 -0.4412 -3.5407  0.8845
15657SOL     OW59029   4.147   8.238   0.628 -0.3628  0.3854  0.1699
15657SOL    HW159030   4.070   8.288   0.589 -1.0029 -1.0437 -0.4121
15657SOL    HW259031   4.230   8.260   0.577 -0.8115  0.1529 -0.6663
15658SOL     OW59032   5.885   5.782   6.984 -0.1099  0.2477 -0.1377
15658SOL    HW159033   5.948   5.709   6.956  2.0424  0.8704  2.8785
15658SOL    HW259034   5.815   5.744   7.044  0.4727  0.4698  0.6932
15659SOL     OW59035   1.491   1.999   6.210 -0.6144  0.7230 -0.2506
15659SOL    HW159036   1.417   2.008   6.276 -1.3406 -1.2080 -0.7822
15659SOL    HW259037   1.573   1.965   6.256 -1.2095 -0.9172 -0.3920
15660SOL     OW59038   5.591   8.055   3.088  0.6213 -0.0994 -0.7452
15660SOL    HW159039   5.631   8.144   3.070  0.6703 -0.1522 -0.8976
15660SOL    HW259040   5.491   8.063   3.091  0.6322 -0.0071 -0.5740
15661SOL     OW59041   8.001   6.784   7.085  0.0070  0.3315  0.1126
15661SOL    HW159042   7.939   6.846   7.038  0.2590  0.2629 -0.3201
15661SOL    HW259043   7.980   6.690   7.059 -0.4541  0.2283  0.8624
15662SOL     OW59044   3.215   0.486   6.411  0.4687 -0.2984  0.1266
15662SOL    HW159045   3.178   0.579   6.411 -1.7042 -1.1351 -0.4614
15662SOL    HW259046   3.213   0.449   6.503  1.2316  0.1870  0.3423
15663SOL     OW59047   5.663   6.992   7.930  0.1701  0.0783 -0.0948
15663SOL    HW159048   5.594   7.039   7.875 -0.0141  2.4936  2.1018
15663SOL    HW259049   5.751   7.039   7.921 -0.0966  1.1188  2.4063
15664SOL     OW59050   4.433   1.604   9.151 -0.6235  0.1783 -0.4215
15664SOL    HW159051   4.349   1.618   9.203 -1.3931 -2.3283 -0.9360
15664SOL    HW259052   4.433   1.664   9.071 -1.8648  0.2705 -0.3543
15665SOL     OW59053   4.988   9.973   1.353 -0.5229  0.4284 -0.0159
15665SOL    HW159054   4.941  10.052   1.391 -0.1774  0.1921  0.9189
15665SOL    HW259055   4.981   9.896   1.416 -1.2800 -0.4463 -1.1335
15666SOL     OW59056   4.014   6.083   1.203  0.6045  0.1321  0.2747
15666SOL    HW159057   3.985   6.008   1.262  2.4862  0.1364  1.2490
15666SOL    HW259058   3.935   6.117   1.151 -0.8444 -0.6420  1.9100
15667SOL     OW59059   2.414   2.875   7.242 -0.1117 -0.2037  0.2996
15667SOL    HW159060   2.394   2.836   7.151 -0.0203 -0.6443  0.4674
15667SOL    HW259061   2.474   2.812   7.292 -2.7949 -1.5512  1.9195
15668SOL     OW59062   2.668   9.265   7.505 -0.2848 -0.1242  0.6426
15668SOL    HW159063   2.675   9.224   7.596  0.8810  0.1054  0.6580
15668SOL    HW259064   2.711   9.205   7.438  0.6461  0.6468  0.5370
15669SOL     OW59065   9.539   7.967   9.098  0.7135  0.3744  0.3738
15669SOL    HW159066   9.566   7.871   9.105  1.4081  0.4719 -0.9066
15669SOL    HW259067   9.455   7.975   9.044  1.4764  0.6022 -0.8067
15670SOL     OW59068   5.244   0.097   1.405 -0.1126 -0.5035 -0.2388
15670SOL    HW159069   5.202   0.151   1.478 -0.4590  0.9008 -1.4578
15670SOL    HW259070   5.178   0.029   1.372 -0.3294 -0.4023 -0.0180
15671SOL     OW59071   6.725   6.240   4.483 -0.4535  0.2262  0.0349
15671SOL    HW159072   6.817   6.255   4.447 -0.4315 -1.4340 -0.6441
15671SOL    HW259073   6.726   6.165   4.549 -1.6089 -1.1237 -1.3999
15672SOL     OW59074   4.951   8.905   0.194 -0.4204 -0.4850  0.0145
15672SOL    HW159075   4.897   8.961   0.131 -0.3177 -0.1517  0.2273
15672SOL    HW259076   5.044   8.941   0.201 -0.4362 -0.5134  0.3721
15673SOL     OW59077   2.587   1.474   9.524 -0.0766  0.4295 -0.0443
15673SOL    HW159078   2.658   1.524   9.574  0.0512 -1.0046  1.2343
15673SOL    HW259079   2.498   1.491   9.565 -0.1648  0.3588 -0.2035
15674SOL     OW59080   1.167   5.996   1.757  0.2082  0.0590 -0.5343
15674SOL    HW159081   1.087   6.035   1.711  1.9864  2.1709 -1.9424
15674SOL    HW259082   1.204   5.922   1.702 -1.7324 -2.0628  0.9455
15675SOL     OW59083   3.753   9.489   2.331 -0.2819 -0.5723  0.0901
15675SOL    HW159084   3.763   9.496   2.430 -0.8065 -1.5085  0.2192
15675SOL    HW259085   3.836   9.522   2.286 -0.5123  0.9985  0.7947
15676SOL     OW59086   2.392   2.644   1.612 -0.7559 -0.0357 -0.3911
15676SOL    HW159087   2.452   2.650   1.531  0.4369  2.1387  0.6290
15676SOL    HW259088   2.326   2.719   1.611  0.4838  1.1255  1.5916
15677SOL     OW59089   4.127   2.641   6.818 -0.0700  0.2351  0.2132
15677SOL    HW159090   4.045   2.649   6.874 -0.4326  0.8662 -0.3965
15677SOL    HW259091   4.184   2.566   6.851 -1.4819 -0.9880 -0.1030
15678SOL     OW59092   9.847   1.655   9.950 -0.3509  0.0528 -0.0759
15678SOL    HW159093   9.900   1.606   9.881 -0.3633 -3.0685  2.0227
15678SOL    HW259094   9.905   1.676  10.028 -1.1042  0.7240  0.3090
15679SOL     OW59095   9.222   9.471   2.781 -0.1103  0.2586 -0.4990
15679SOL    HW159096   9.306   9.493   2.732  0.5627  0.1126  0.5672
15679SOL    HW259097   9.154   9.434   2.717  0.2525  1.3852 -1.5480
15680SOL     OW59098   2.411   7.114   0.643 -0.2866  0.2639 -0.0883
15680SOL    HW159099   2.445   7.030   0.684  0.9195  0.5616 -0.4385
15680SOL    HW259100   2.488   7.168   0.609 -0.9330  2.1135  1.2956
15681SOL     OW59101   6.619   8.956   1.172 -0.1644 -0.1788 -0.6552
15681SOL    HW159102   6.594   8.876   1.118  1.1496 -1.1110  0.0938
15681SOL    HW259103   6.537   8.994   1.215 -1.0235 -0.1910 -2.2397
15682SOL     OW59104   7.690   5.394   7.529  0.5794  0.0576 -0.0326
15682SOL    HW159105   7.723   5.486   7.550  2.3001 -0.4622 -0.3615
15682SOL    HW259106   7.727   5.365   7.441 -0.2175 -0.8350 -0.0828
15683SOL     OW59107   4.412   1.731   8.330 -0.1816  0.4910 -0.2526
15683SOL    HW159108   4.410   1.701   8.235  0.8821  2.0790 -0.7909
15683SOL    HW259109   4.375   1.824   8.337  2.2120  1.4309  0.4560
15684SOL     OW59110   9.524   7.244   9.069  0.4036 -0.0738  0.0203
15684SOL    HW159111   9.555   7.265   8.976  0.3310 -0.1417 -0.0188
15684SOL    HW259112   9.579   7.170   9.107 -0.2620 -0.7791 -0.3657
15685SOL     OW59113   1.094   8.596   6.477  0.5663  0.2169 -0.0496
15685SOL    HW159114   1.024   8.611   6.547 -0.0865  1.6369 -0.9550
15685SOL    HW259115   1.057   8.625   6.388  2.2056  0.7315 -0.5747
15686SOL     OW59116   6.736   6.469   7.079 -0.2637 -0.1573 -0.3948
15686SOL    HW159117   6.792   6.546   7.110  0.6217 -0.5233 -1.0673
15686SOL    HW259118   6.650   6.504   7.040 -0.6808  0.3821  0.9776
15687SOL     OW59119   9.266   0.433   1.244  0.4324 -0.0076 -0.0884
15687SOL    HW159120   9.209   0.354   1.221 -2.3704  1.2415  2.2782
15687SOL    HW259121   9.263   0.449   1.343  2.0562  2.2199 -0.3628
15688SOL     OW59122   5.344   5.886   7.783 -0.2478  0.4093 -0.4971
15688SOL    HW159123   5.387   5.976   7.768  2.3345 -0.7307 -0.2807
15688SOL    HW259124   5.255   5.884   7.737  1.4707  1.6555 -4.1584
15689SOL     OW59125   4.928   0.336   2.657 -0.3964 -0.0546 -0.0084
15689SOL    HW159126   4.963   0.411   2.712 -1.1844  0.4836 -0.2287
15689SOL    HW259127   4.944   0.356   2.560 -1.9732  0.5552 -0.1557
15690SOL     OW59128   9.863   6.566   5.376 -0.3742 -0.5638 -0.0132
15690SOL    HW159129   9.861   6.495   5.305  0.6084 -2.8375  2.1508
15690SOL    HW259130   9.949   6.616   5.372 -1.0765  0.5345 -1.5644
15691SOL     OW59131   0.068   3.825   9.512  0.0203 -0.0436  0.2105
15691SOL    HW159132   0.060   3.769   9.430  0.7812 -0.1780  0.2275
15691SOL    HW259133   0.132   3.900   9.496  0.8184 -0.5651  0.9516
15692SOL     OW59134   0.606   6.824   3.947  0.0414  0.1368 -0.5365
15692SOL    HW159135   0.631   6.867   3.860 -0.0117  0.8345 -0.2179
15692SOL    HW259136   0.521   6.865   3.980  0.2597  0.1412  0.0207
15693SOL     OW59137   2.607   9.969   7.144 -0.2175  0.6567  0.0702
15693SOL    HW159138   2.582   9.900   7.076  0.6217  0.8352 -0.4251
15693SOL    HW259139   2.636  10.052   7.097 -0.3836  1.0482  0.6606
15694SOL     OW59140   2.815   0.840   0.955  0.1341 -0.3792  0.6224
15694SOL    HW159141   2.830   0.931   0.993 -0.8911  0.0915 -0.0671
15694SOL    HW259142   2.725   0.806   0.982  0.0371 -0.6933 -0.0757
15695SOL     OW59143   4.328   9.923   3.360  1.0784  0.6207  0.0542
15695SOL    HW159144   4.242   9.972   3.345  0.4788 -0.3650  0.2308
15695SOL    HW259145   4.399   9.988   3.388  0.3299  1.4050  0.1562
15696SOL     OW59146   3.976   7.694   1.716 -0.1116 -0.4981  0.7494
15696SOL    HW159147   4.033   7.685   1.798  1.6676 -0.8742 -0.4949
15696SOL    HW259148   4.033   7.679   1.635 -1.2096  2.6921 -0.6808
15697SOL     OW59149   4.357   7.825   9.724 -0.1032  0.3811  0.0383
15697SOL    HW159150   4.361   7.866   9.633  0.2015 -0.1742 -0.2018
15697SOL    HW259151   4.349   7.897   9.793  2.1180  0.9304 -0.2473
15698SOL     OW59152   6.936   1.367   2.059 -0.0368  0.0378 -0.2379
15698SOL    HW159153   6.991   1.433   2.110 -0.5433  0.5818 -0.3817
15698SOL    HW259154   6.978   1.351   1.970  0.5124 -0.4344  0.1085
15699SOL     OW59155   3.660   8.470   9.652  0.4069 -0.2469  0.2588
15699SOL    HW159156   3.597   8.546   9.643  0.3515 -0.1503  1.3547
15699SOL    HW259157   3.648   8.406   9.576 -0.6306  0.0430  0.1764
15700SOL     OW59158   6.500   7.676   7.795 -0.1296  0.0120  0.0553
15700SOL    HW159159   6.474   7.715   7.883 -0.1048  1.1867 -0.4491
15700SOL    HW259160   6.450   7.722   7.722  1.6849  0.7848 -0.7459
15701SOL     OW59161   6.549   1.902   3.605  0.0597 -0.2586 -0.2309
15701SOL    HW159162   6.495   1.917   3.522 -0.1338  3.0414  0.4519
15701SOL    HW259163   6.624   1.968   3.609  1.5972 -2.0130  1.0034
15702SOL     OW59164   5.369   9.129   7.935  0.2330  0.0561 -0.4497
15702SOL    HW159165   5.377   9.217   7.981 -0.0202 -0.9362  1.5659
15702SOL    HW259166   5.456   9.081   7.940  0.1784 -0.0875 -0.9238
15703SOL     OW59167   4.586   7.032   9.988  0.2678  0.0484 -0.4463
15703SOL    HW159168   4.589   7.027   9.889 -0.6637  2.0223 -0.5925
15703SOL    HW259169   4.491   7.031  10.019  0.5211  0.3257  0.3549
15704SOL     OW59170   7.827   6.477   2.103 -0.3073 -0.5021 -0.2250
15704SOL    HW159171   7.876   6.417   2.166 -0.5182 -0.4117  0.0225
15704SOL    HW259172   7.745   6.430   2.069 -0.6649 -0.2153  0.2448
15705SOL     OW59173   4.325   8.888   2.133  0.3653 -0.2942 -0.2398
15705SOL    HW159174   4.371   8.833   2.063 -1.1134 -1.3977 -0.3750
15705SOL    HW259175   4.260   8.951   2.090  1.4998  1.0319 -0.0315
15706SOL     OW59176   2.650   5.251   8.627 -0.2598  0.1900  0.2493
15706SOL    HW159177   2.563   5.255   8.676  1.1731  2.7351  2.7246
15706SOL    HW259178   2.641   5.300   8.540 -1.0235  1.3861  0.9873
15707SOL     OW59179   4.265   6.077   2.350  0.1772  0.4176 -0.0728
15707SOL    HW159180   4.194   6.096   2.418 -0.0672 -0.3924 -0.0979
15707SOL    HW259181   4.321   6.158   2.338 -0.6797  1.0343  0.0269
15708SOL     OW59182   3.725   7.765   1.181 -0.1542  0.0841 -0.0106
15708SOL    HW159183   3.667   7.840   1.215  0.4326  0.6432 -0.2277
15708SOL    HW259184   3.676   7.713   1.112 -0.1902  0.9307 -0.6355
15709SOL     OW59185   7.481   7.249   1.915  0.1471  0.1588 -0.0797
15709SOL    HW159186   7.518   7.175   1.859 -0.8338  0.0954 -0.6667
15709SOL    HW259187   7.554   7.289   1.971  0.8300 -0.7614 -0.3040
15710SOL     OW59188   7.112   2.856   2.341  0.1508  0.1516  0.0161
15710SOL    HW159189   7.020   2.868   2.303 -1.1818 -2.3580  2.2764
15710SOL    HW259190   7.161   2.943   2.337 -2.8442  1.9173  0.1335
15711SOL     OW59191   9.331   7.757   8.202 -0.0164  0.4210  0.2669
15711SOL    HW159192   9.281   7.731   8.119 -0.7003 -0.5900  0.9857
15711SOL    HW259193   9.429   7.757   8.182 -0.0351 -1.8169 -0.0439
15712SOL     OW59194   4.967   1.904   1.758 -0.5646  0.5891 -0.2222
15712SOL    HW159195   4.950   1.806   1.759 -1.0731  0.6712 -0.7473
15712SOL    HW259196   4.887   1.952   1.797 -0.1920  0.7776  0.3241
15713SOL     OW59197   2.995   8.117   0.900  0.0223 -0.3439  0.3788
15713SOL    HW159198   3.080   8.102   0.951  0.9865 -2.6727 -1.7578
15713SOL    HW259199   2.932   8.042   0.917 -1.3816  1.0676  1.4721
15714SOL     OW59200   2.507   7.495   2.608 -0.3153 -0.2119 -0.1558
15714SOL    HW159201   2.578   7.450   2.554 -0.5268  0.3065 -0.8732
15714SOL    HW259202   2.424   7.506   2.553 -0.5316  0.3264  0.2677
15715SOL     OW59203   3.091   6.185   7.928 -0.5048  0.3390  0.0668
15715SOL    HW159204   3.164   6.119   7.947 -1.0333 -0.0080  0.9049
15715SOL    HW259205   3.116   6.240   7.848  0.0510 -0.7084 -0.4848
15716SOL     OW59206   3.790   1.794   7.672 -0.3679 -0.3273 -0.3878
15716SOL    HW159207   3.801   1.707   7.625 -1.1779 -0.7012  0.1021
15716SOL    HW259208   3.721   1.849   7.624 -0.8119 -0.4966  0.0477
15717SOL     OW59209   6.009   4.529   9.811  0.1251 -0.1234  0.3221
15717SOL    HW159210   6.095   4.482   9.830 -0.5313 -1.3679  0.3474
15717SOL    HW259211   5.980   4.509   9.717 -0.2527  0.0616  0.3959
15718SOL     OW59212   7.154   9.706   2.307 -0.7297 -0.0797  0.1247
15718SOL    HW159213   7.210   9.743   2.381  1.2414  0.5007 -1.6130
15718SOL    HW259214   7.214   9.663   2.239 -2.5710 -1.2999 -0.7609
15719SOL     OW59215   3.243   1.201   7.530 -0.3031  0.2462  0.2271
15719SOL    HW159216   3.241   1.274   7.599  2.1579  0.5104  0.0650
15719SOL    HW259217   3.150   1.175   7.507 -1.2018  2.0980  1.6103
15720SOL     OW59218   3.763   4.486   5.291  0.7048 -0.4690 -0.5420
15720SOL    HW159219   3.685   4.542   5.263  1.5580  0.5279 -0.9502
15720SOL    HW259220   3.749   4.391   5.262  0.5718  0.1101 -2.4446
15721SOL     OW59221   7.568   1.990   2.324 -0.8312  0.4648 -0.4176
15721SOL    HW159222   7.620   2.016   2.405 -1.1192 -0.9994  0.2425
15721SOL    HW259223   7.520   1.904   2.340 -2.5925  1.2154 -1.4007
15722SOL     OW59224   7.003   4.967   9.894  0.0627  0.2126 -0.2070
15722SOL    HW159225   7.101   4.963   9.875 -0.1771 -0.3013 -1.3882
15722SOL    HW259226   6.988   4.965   9.993  1.2225  0.0258 -0.0273
15723SOL     OW59227   1.587   5.391   0.723 -0.5729 -0.0777 -0.3902
15723SOL    HW159228   1.518   5.443   0.775  1.3086  1.6933  0.4395
15723SOL    HW259229   1.598   5.301   0.764  1.3169  1.4916  2.8408
15724SOL     OW59230   7.435   2.613   1.188 -0.0222  0.2584 -0.3439
15724SOL    HW159231   7.485   2.684   1.139 -1.0330  0.9355 -0.4056
15724SOL    HW259232   7.490   2.529   1.191  1.2567  1.0935 -0.1009
15725SOL     OW59233   5.869   4.269   0.504 -0.3776 -0.2069  0.7618
15725SOL    HW159234   5.954   4.292   0.552 -0.4910 -0.0346  0.8808
15725SOL    HW259235   5.810   4.216   0.565 -0.9800  0.9268  1.1962
15726SOL     OW59236   4.051   5.073   0.895 -0.5620 -0.2753  0.2634
15726SOL    HW159237   4.090   5.158   0.858 -1.2662  1.5629  3.5782
15726SOL    HW259238   3.982   5.095   0.963 -1.3963 -3.5643  0.5609
15727SOL     OW59239   6.906   0.959   3.169 -0.4811 -0.0553 -0.0081
15727SOL    HW159240   6.914   0.875   3.115 -3.9247 -0.3311 -0.1825
15727SOL    HW259241   6.858   0.940   3.254  1.3259  1.1956  1.3330
15728SOL     OW59242   5.982   0.739   3.510 -0.4088 -0.4029  0.2251
15728SOL    HW159243   6.055   0.788   3.557  0.9242 -0.4648 -1.7310
15728SOL    HW259244   5.999   0.641   3.514  1.0157 -0.2948 -2.4319
15729SOL     OW59245   7.047   9.293   0.582  0.1462  0.2655  0.6031
15729SOL    HW159246   7.109   9.219   0.608 -0.0200 -0.0799  0.0110
15729SOL    HW259247   7.061   9.317   0.486 -2.4469 -1.6476 -0.3272
15730SOL     OW59248   3.874   0.484   3.862  0.0516 -0.5291  0.4687
15730SOL    HW159249   3.872   0.480   3.962 -0.8935  1.6511  0.5650
15730SOL    HW259250   3.802   0.425   3.826 -0.3668 -0.4224  1.1118
15731SOL     OW59251   6.695   2.173   8.365  0.0622  0.1210 -0.0373
15731SOL    HW159252   6.612   2.126   8.396  1.2480 -1.5425  0.7097
15731SOL    HW259253   6.709   2.256   8.420 -0.3014 -0.3896  0.8397
15732SOL     OW59254   6.173   6.719   2.398  0.3002 -0.2551 -0.4074
15732SOL    HW159255   6.120   6.664   2.463  1.0430 -1.4706 -0.8092
15732SOL    HW259256   6.238   6.660   2.350  2.4790  1.3029  0.5310
15733SOL     OW59257   4.858   8.195   4.838  0.0863 -0.2051 -0.3820
15733SOL    HW159258   4.949   8.174   4.875  0.1410  0.1499 -0.3089
15733SOL    HW259259   4.860   8.286   4.796 -0.0110 -0.5527 -1.1441
15734SOL     OW59260   1.671   1.053   1.638 -0.3560 -0.2231  0.2387
15734SOL    HW159261   1.639   1.139   1.599 -0.9785 -1.2689 -1.5857
15734SOL    HW259262   1.594   0.991   1.652  0.4385 -1.5850 -1.2205
15735SOL     OW59263   6.072   6.431   5.804  0.1485  0.0692 -0.0658
15735SOL    HW159264   6.113   6.340   5.798 -0.7210 -0.3418  0.1712
15735SOL    HW259265   5.973   6.425   5.791 -0.0875  0.8169  1.2449
15736SOL     OW59266   9.156   1.228   1.270 -0.0098  0.2118  0.2992
15736SOL    HW159267   9.115   1.319   1.261 -0.3768  0.1156  1.0243
15736SOL    HW259268   9.144   1.178   1.184 -0.2682  0.6582  0.0737
15737SOL     OW59269   7.792   1.599   9.489 -0.2594  0.2863 -0.4179
15737SOL    HW159270   7.802   1.539   9.411  0.3122 -1.3548  0.8819
15737SOL    HW259271   7.862   1.577   9.557 -1.8105  0.5081  1.2895
15738SOL     OW59272   2.358   7.636   6.796 -0.5296  0.7439  0.0532
15738SOL    HW159273   2.270   7.591   6.779  0.1965 -0.1996 -1.2947
15738SOL    HW259274   2.407   7.648   6.710  1.0831  0.3916  0.8963
15739SOL     OW59275   1.090   5.195   0.819  0.5193 -0.7266 -0.2553
15739SOL    HW159276   1.040   5.177   0.903  1.5433 -0.2188  0.4731
15739SOL    HW259277   1.152   5.119   0.799  1.4519 -0.1370  0.3297
15740SOL     OW59278   4.141   7.379   0.807  0.0433  0.1691 -0.1658
15740SOL    HW159279   4.080   7.346   0.878  3.0653 -1.1667  1.8857
15740SOL    HW259280   4.115   7.339   0.719 -1.7155 -0.7558  0.7585
15741SOL     OW59281   3.753   9.003   8.219 -0.1031  0.0803  0.1849
15741SOL    HW159282   3.780   9.092   8.254  1.5838 -0.3366 -0.0498
15741SOL    HW259283   3.782   8.994   8.123 -0.5469 -0.5995  0.1056
15742SOL     OW59284   4.573   5.638   8.214 -0.3852 -0.2851  0.1210
15742SOL    HW159285   4.517   5.645   8.296 -0.1286 -1.0784  0.3683
15742SOL    HW259286   4.660   5.594   8.236 -0.6073 -1.1669 -0.7167
15743SOL     OW59287   8.687   0.703   2.609  0.1760  0.5007  0.0775
15743SOL    HW159288   8.667   0.619   2.559  1.6262  0.4303 -0.3997
15743SOL    HW259289   8.603   0.756   2.619 -0.1551  0.5052 -2.4027
15744SOL     OW59290   9.911   1.497   2.399 -0.0623  0.2652 -0.0211
15744SOL    HW159291   9.951   1.437   2.468 -0.9855 -1.6656 -1.1191
15744SOL    HW259292   9.853   1.565   2.444  0.3182 -0.1928  1.1835
15745SOL     OW59293   1.784   9.262   6.147 -0.5032 -0.1467 -0.8357
15745SOL    HW159294   1.822   9.216   6.227  0.7529  0.3579 -1.1214
15745SOL    HW259295   1.842   9.245   6.068 -1.3392 -0.0428 -1.4775
15746SOL     OW59296   6.670   0.364   1.113 -0.1358  0.2221 -0.4822
15746SOL    HW159297   6.612   0.418   1.051 -0.2303  1.1566  0.3937
15746SOL    HW259298   6.678   0.412   1.200  2.9649  0.7301 -0.9788
15747SOL     OW59299   3.534   2.839   9.446 -0.2734 -0.2317 -0.0734
15747SOL    HW159300   3.618   2.863   9.398 -0.0299 -0.4877  0.2156
15747SOL    HW259301   3.543   2.863   9.543 -0.9536  0.7529 -0.2434
15748SOL     OW59302   9.094   2.343   2.386  0.0123  0.4234 -0.2079
15748SOL    HW159303   9.082   2.437   2.417  1.5853  0.0550  1.6276
15748SOL    HW259304   9.119   2.285   2.464 -0.0356 -1.3431 -1.4743
15749SOL     OW59305   2.616   0.408   7.503 -0.1838  0.0509  0.4330
15749SOL    HW159306   2.636   0.310   7.504  0.4240  0.1644  0.1267
15749SOL    HW259307   2.539   0.428   7.563 -0.4642 -0.6502  0.3018
15750SOL     OW59308   5.772   6.365   8.290 -0.3069  0.0220 -0.5107
15750SOL    HW159309   5.795   6.448   8.341 -0.6814 -0.8061  1.0345
15750SOL    HW259310   5.822   6.364   8.204  3.9367 -0.7364  1.8128
15751SOL     OW59311   0.928   9.899   8.283  0.4136 -0.1446 -0.6359
15751SOL    HW159312   0.953   9.880   8.378  0.0173  0.7837 -0.3396
15751SOL    HW259313   0.891   9.992   8.276 -1.2845 -0.8484 -1.3718
15752SOL     OW59314   2.900   9.369   1.479  0.8396  0.1980 -0.4216
15752SOL    HW159315   2.937   9.282   1.510  1.4567  0.5970 -0.0196
15752SOL    HW259316   2.961   9.443   1.507  0.4077  0.7441 -0.9060
15753SOL     OW59317   6.887   6.922   2.783  0.0907 -0.2218  0.4518
15753SOL    HW159318   6.912   6.860   2.708 -0.5376  1.0439 -0.8354
15753SOL    HW259319   6.929   7.011   2.768  1.0836 -0.3538  2.3530
15754SOL     OW59320   3.417   0.898   1.630 -0.0458  0.5188  0.1131
15754SOL    HW159321   3.325   0.938   1.627 -0.1802  0.2047 -0.0679
15754SOL    HW259322   3.466   0.933   1.710 -0.6511 -0.0046  0.7304
15755SOL     OW59323   6.971   2.764   1.941  0.0641 -0.1437 -0.3729
15755SOL    HW159324   6.969   2.810   2.030 -0.2757  2.0545 -1.4733
15755SOL    HW259325   7.066   2.749   1.914  0.1623 -1.3858  0.6297
15756SOL     OW59326   4.787   2.638   0.065  0.2177 -0.1048 -0.4004
15756SOL    HW159327   4.716   2.568   0.054 -1.1097  1.0019  0.9298
15756SOL    HW259328   4.751   2.727   0.042  1.0608  0.5223  0.6167
15757SOL     OW59329   5.273   8.407   9.671 -0.1381  0.0519  0.0864
15757SOL    HW159330   5.273   8.312   9.637 -0.2763  0.0525  0.0847
15757SOL    HW259331   5.359   8.425   9.718  0.1004  0.0832 -0.3534
15758SOL     OW59332   1.379   5.932   8.054  0.6362 -0.0864 -0.0028
15758SOL    HW159333   1.281   5.911   8.049  0.3574  1.2181 -0.2909
15758SOL    HW259334   1.429   5.875   7.989 -0.0333 -0.2329 -0.3892
15759SOL     OW59335   5.174   6.843   1.769 -0.1479  0.1646 -0.5900
15759SOL    HW159336   5.185   6.942   1.763 -0.0394  0.1122 -1.2935
15759SOL    HW259337   5.148   6.807   1.679  2.1775 -0.7456 -0.9200
15760SOL     OW59338   4.062   2.617   0.135 -0.3137 -0.3758 -0.2139
15760SOL    HW159339   4.017   2.554   0.071 -0.4152  1.5862 -2.1343
15760SOL    HW259340   3.995   2.681   0.171  0.0927 -0.3359  0.4662
15761SOL     OW59341   3.225   9.993   9.332  0.0108  0.6975  0.2216
15761SOL    HW159342   3.156   9.968   9.399 -1.6482  1.5975 -1.1325
15761SOL    HW259343   3.193   9.970   9.240  2.4723 -1.0065 -0.2645
15762SOL     OW59344   9.633   9.068   0.368  0.1415  0.3106 -0.3170
15762SOL    HW159345   9.718   9.033   0.329  0.2699 -0.4600  0.6332
15762SOL    HW259346   9.653   9.151   0.420  0.3216  0.1116 -0.0663
15763SOL     OW59347   6.266   2.082   0.535  0.0511 -0.0945  0.2083
15763SOL    HW159348   6.289   2.073   0.632  0.4644 -1.3749 -0.0006
15763SOL    HW259349   6.347   2.113   0.484  0.5311 -1.7535 -0.0783
15764SOL     OW59350   0.072   7.450   2.575  0.2366 -0.4560  1.2458
15764SOL    HW159351  -0.008   7.504   2.547  0.1791 -1.4785 -0.6416
15764SOL    HW259352   0.112   7.490   2.657 -0.3811  1.8946  0.4465
15765SOL     OW59353   8.937   3.335   7.989  0.6777  0.2952  1.1136
15765SOL    HW159354   9.027   3.378   7.978  0.1752  1.6854  2.2189
15765SOL    HW259355   8.946   3.236   7.985  2.2875  0.4225  1.3490
15766SOL     OW59356   7.481   6.072   1.949 -0.1087  0.4033 -0.4204
15766SOL    HW159357   7.507   6.050   1.855 -1.3688 -3.0241 -0.0387
15766SOL    HW259358   7.389   6.109   1.951 -0.2712  0.0096 -0.5085
15767SOL     OW59359   3.088   0.437   1.939  0.0056  0.3737  0.0534
15767SOL    HW159360   2.997   0.475   1.956  0.0588 -0.4051  2.3113
15767SOL    HW259361   3.155   0.486   1.994  0.6112 -0.5064  0.1013
15768SOL     OW59362   3.338   1.190   1.874  0.5468  0.6400  0.3660
15768SOL    HW159363   3.351   1.267   1.812  0.8749 -0.4063 -0.8877
15768SOL    HW259364   3.405   1.119   1.853 -2.2359 -1.6109 -1.0771
15769SOL     OW59365   6.647   8.997   6.252  0.3023 -0.2423 -0.3694
15769SOL    HW159366   6.596   9.046   6.181 -0.6567 -1.0931 -0.2929
15769SOL    HW259367   6.615   9.025   6.342 -0.8985 -1.6353 -0.3345
15770SOL     OW59368   8.871   7.665   7.751 -0.0834 -0.0127 -0.1894
15770SOL    HW159369   8.821   7.746   7.784  0.8265  0.3765  0.2719
15770SOL    HW259370   8.951   7.695   7.699  1.2051 -0.5975  1.4227
15771SOL     OW59371   6.604   7.982   9.405  0.0685  0.5315 -0.0654
15771SOL    HW159372   6.525   8.038   9.429 -0.9496 -0.0227 -2.0142
15771SOL    HW259373   6.584   7.929   9.322  1.1167 -2.4852  1.5211
15772SOL     OW59374   4.224   3.668   1.536 -0.3706 -0.1531 -0.0758
15772SOL    HW159375   4.148   3.607   1.561 -0.8303  0.2262 -0.5162
15772SOL    HW259376   4.230   3.743   1.601  0.7299 -1.1088  0.9500
15773SOL     OW59377   2.611   3.906   0.737 -0.0663  0.2811  0.1002
15773SOL    HW159378   2.515   3.934   0.727 -0.3976 -0.9940 -0.3826
15773SOL    HW259379   2.653   3.900   0.646  0.3997  0.5817  0.2966
15774SOL     OW59380   1.718   5.517   3.629 -0.0469  0.1290  0.1358
15774SOL    HW159381   1.722   5.535   3.728  2.1084  1.4465 -0.1736
15774SOL    HW259382   1.701   5.602   3.580 -2.1837 -0.6801 -0.6088
15775SOL     OW59383   2.939   7.717   3.585 -0.1189 -0.8975  0.0875
15775SOL    HW159384   2.909   7.651   3.516  0.4050 -0.4440 -0.5825
15775SOL    HW259385   2.987   7.793   3.540 -3.2405  1.4589  0.5023
15776SOL     OW59386   2.159   7.656   0.375  0.2355  0.3398 -0.1334
15776SOL    HW159387   2.105   7.634   0.457  0.4379 -2.5116 -0.7233
15776SOL    HW259388   2.157   7.755   0.360 -1.8837  0.6504  1.8723
15777SOL     OW59389   7.190   8.669   0.611  0.5172 -0.4758  0.5673
15777SOL    HW159390   7.149   8.581   0.588  0.6741 -0.4925  0.3514
15777SOL    HW259391   7.288   8.666   0.594  0.3762  0.0441 -0.3736
15778SOL     OW59392   1.446   9.920   1.869 -0.1556 -0.1349  0.4183
15778SOL    HW159393   1.451   9.996   1.934  1.3287  1.9738 -2.0851
15778SOL    HW259394   1.536   9.876   1.862 -0.4246 -0.6423  0.1067
15779SOL     OW59395   3.813   8.057   3.694 -0.0619  0.0019  0.0675
15779SOL    HW159396   3.877   8.019   3.627  1.5351  2.0415  0.3788
15779SOL    HW259397   3.740   8.106   3.646  0.4923  0.5583 -0.2109
15780SOL     OW59398   9.571   2.731   2.313 -0.0311 -0.0618  0.9892
15780SOL    HW159399   9.670   2.746   2.305 -0.3129  1.8579  0.7305
15780SOL    HW259400   9.547   2.723   2.410  0.1650  1.2307  1.1567
15781SOL     OW59401   8.580   9.281   3.037  1.2855  0.3439 -0.7309
15781SOL    HW159402   8.584   9.194   2.988  1.7627  0.6142 -1.1827
15781SOL    HW259403   8.667   9.330   3.024  1.8434 -0.0597  1.2547
15782SOL     OW59404   3.435   1.341   5.223  0.3092  0.0708  0.5608
15782SOL    HW159405   3.433   1.405   5.300  2.2582  1.7006 -0.6794
15782SOL    HW259406   3.520   1.288   5.226  0.9257  0.9263 -1.0512
15783SOL     OW59407   7.270   9.870   5.163  0.3667  0.0861 -0.3632
15783SOL    HW159408   7.267   9.970   5.155 -0.5231  0.0216 -0.9858
15783SOL    HW259409   7.181   9.837   5.195  0.7719 -0.4776  0.1702
15784SOL     OW59410   5.833   2.000   0.071  0.9423  0.0213 -0.4035
15784SOL    HW159411   5.838   2.090   0.028  1.1596  0.8115  1.2420
15784SOL    HW259412   5.909   1.990   0.136  0.2837 -0.9192  0.2299
15785SOL     OW59413   8.960   3.461   3.393  0.1652  0.1509 -0.3122
15785SOL    HW159414   8.871   3.465   3.437  0.4798 -2.9079  0.7205
15785SOL    HW259415   9.032   3.469   3.462  0.7000  0.9709 -0.9481
15786SOL     OW59416   1.432   8.957   6.187 -0.1610  0.0313 -0.0628
15786SOL    HW159417   1.427   8.926   6.282 -0.9930 -0.8664 -0.3876
15786SOL    HW259418   1.458   9.053   6.185 -1.1547  0.3378  1.1146
15787SOL     OW59419   7.457   7.967   0.592 -0.0934 -0.5396 -0.1635
15787SOL    HW159420   7.444   7.921   0.680 -0.4025 -0.0669  0.0411
15787SOL    HW259421   7.399   8.048   0.588 -2.6553 -2.3873 -2.1449
15788SOL     OW59422   9.200   1.086   7.912 -0.3934 -0.0903  0.4736
15788SOL    HW159423   9.282   1.143   7.901 -0.2522 -0.1859  0.9884
15788SOL    HW259424   9.161   1.102   8.003 -2.3219  1.7432 -0.6520
15789SOL     OW59425   3.441   4.603   3.340 -0.7989  0.6096  0.2486
15789SOL    HW159426   3.418   4.536   3.410  0.8162  1.6966  1.8563
15789SOL    HW259427   3.472   4.688   3.383  0.3240  1.2699 -1.7746
15790SOL     OW59428   6.471   8.335   1.934  0.1462  0.2156 -0.5799
15790SOL    HW159429   6.431   8.373   2.017 -0.6317  0.0769 -0.8855
15790SOL    HW259430   6.522   8.407   1.886  1.4771  0.0275  0.5506
15791SOL     OW59431   6.623   0.120   0.179 -0.2229 -0.2135 -0.4202
15791SOL    HW159432   6.560   0.112   0.102 -1.0812 -0.4932  0.3082
15791SOL    HW259433   6.573   0.106   0.264  0.3972  1.7895  0.2815
15792SOL     OW59434   6.397   6.323   5.498 -0.4296  0.0288 -0.2490
15792SOL    HW159435   6.331   6.265   5.545 -0.6036  0.9760  0.6669
15792SOL    HW259436   6.486   6.314   5.541 -0.4703  0.4965 -0.0671
15793SOL     OW59437   3.779   8.354   5.385  0.4308  0.2279 -0.1334
15793SOL    HW159438   3.824   8.358   5.295 -0.5944  1.1730 -0.6155
15793SOL    HW259439   3.698   8.296   5.379 -0.0320  0.8559  0.0047
15794SOL     OW59440   2.671   9.454   1.183  0.3787  0.2500 -0.3766
15794SOL    HW159441   2.726   9.405   1.250 -0.0309  2.6738  1.7795
15794SOL    HW259442   2.730   9.498   1.116  0.8596 -0.7419 -0.6085
15795SOL     OW59443   6.957   7.758   2.720  0.0311  0.2306  0.4130
15795SOL    HW159444   6.976   7.675   2.771  1.5204  0.3996  0.1423
15795SOL    HW259445   6.985   7.746   2.625 -2.8043 -0.1143 -0.4175
15796SOL     OW59446   3.871   9.618   3.808  0.2430 -0.2145  0.5636
15796SOL    HW159447   3.863   9.717   3.818  1.8674 -0.1418  1.2971
15796SOL    HW259448   3.869   9.575   3.899  1.6828 -0.6644  0.4012
15797SOL     OW59449   3.974   1.438   5.799  0.9387  0.0637  0.0710
15797SOL    HW159450   3.996   1.495   5.719  0.3805 -1.3645 -1.1115
15797SOL    HW259451   3.876   1.420   5.802  1.1210 -0.9181  0.3810
15798SOL     OW59452   2.845   7.193   3.917 -0.2529 -0.6078 -0.0429
15798SOL    HW159453   2.879   7.167   4.007  1.2384 -1.7075 -0.9112
15798SOL    HW259454   2.913   7.250   3.870  0.3218 -2.5583 -1.6663
15799SOL     OW59455   5.200   8.517   3.859 -0.2925  0.1672 -0.3647
15799SOL    HW159456   5.254   8.435   3.837  1.1958  0.9017  0.4947
15799SOL    HW259457   5.252   8.575   3.922 -2.8302  0.0476  1.8860
15800SOL     OW59458   0.497   7.869   3.375  0.4828  0.0175 -0.1007
15800SOL    HW159459   0.518   7.946   3.315 -0.6172 -0.2728 -0.8636
15800SOL    HW259460   0.503   7.898   3.471  0.3665  0.9740 -0.3851
15801SOL     OW59461   6.449   3.782   0.010 -0.0960 -0.0174  0.0487
15801SOL    HW159462   6.447   3.850  -0.063  1.7344  0.4335  0.4027
15801SOL    HW259463   6.426   3.826   0.097 -0.2345 -0.1364  0.0732
15802SOL     OW59464   8.930   0.956   5.248 -0.0602  0.0138  0.1113
15802SOL    HW159465   8.990   0.933   5.325  0.4622 -1.2578 -0.6585
15802SOL    HW259466   8.912   1.054   5.249 -1.3961 -0.2116  2.7972
15803SOL     OW59467   6.458   9.148   1.597  0.0600  0.0448  0.2079
15803SOL    HW159468   6.392   9.087   1.641 -0.5897  0.3697 -0.3093
15803SOL    HW259469   6.482   9.222   1.661  0.4552 -0.4527  0.6448
15804SOL     OW59470   6.742   1.414   0.705 -0.6213  0.3598  0.3113
15804SOL    HW159471   6.650   1.434   0.741 -0.8386 -1.3839  0.7713
15804SOL    HW259472   6.738   1.412   0.605 -1.2981 -0.6044  0.3453
15805SOL     OW59473   3.181   9.999   2.649  0.2015  0.0972  0.2742
15805SOL    HW159474   3.140  10.053   2.575 -0.9169  0.6291  1.2547
15805SOL    HW259475   3.279  10.017   2.653  0.0029  1.3220 -0.0367
15806SOL     OW59476   8.030   8.181   3.122 -0.1284 -0.3601 -0.6088
15806SOL    HW159477   8.086   8.263   3.130 -0.3928 -0.4040  2.1579
15806SOL    HW259478   7.943   8.204   3.078  0.1850  0.6316 -0.7280
15807SOL     OW59479   4.723   0.434   9.256 -0.2058 -0.5010 -0.6457
15807SOL    HW159480   4.675   0.362   9.207  0.5113 -0.4043 -1.4824
15807SOL    HW259481   4.752   0.505   9.192 -0.9720  0.5743  0.1767
15808SOL     OW59482   2.915   8.919   6.255 -0.4235 -0.5627 -0.0094
15808SOL    HW159483   3.004   8.965   6.266 -0.5868 -0.4767  1.0409
15808SOL    HW259484   2.848   8.962   6.316 -0.5522 -2.2696  1.0621
15809SOL     OW59485   2.470   9.172   9.905 -0.6778 -0.7135  0.0750
15809SOL    HW159486   2.480   9.211   9.813  0.2672  0.5082  0.6805
15809SOL    HW259487   2.560   9.163   9.947 -0.9465 -2.8822  0.2510
15810SOL     OW59488   5.048   2.330   9.750  0.2232 -0.2772 -0.1574
15810SOL    HW159489   5.139   2.315   9.712 -0.1514 -1.6769 -0.5456
15810SOL    HW259490   4.984   2.265   9.708 -0.5678 -0.6028  1.5234
15811SOL     OW59491   5.991   0.049   2.576 -0.0942  0.3166 -0.0609
15811SOL    HW159492   6.087   0.071   2.596 -0.7019  2.8757  0.1314
15811SOL    HW259493   5.968   0.080   2.484 -0.3130 -1.8172 -0.7652
15812SOL     OW59494   5.251   5.377   8.137 -0.2699  0.3902 -0.1155
15812SOL    HW159495   5.235   5.318   8.058 -0.3002  1.1999 -0.7316
15812SOL    HW259496   5.337   5.427   8.124  1.1453 -1.5127  1.6590
15813SOL     OW59497   3.281   1.948   1.919  0.2506  0.3997  0.1009
15813SOL    HW159498   3.216   1.954   1.995 -0.2884 -1.0449 -0.2423
15813SOL    HW259499   3.309   2.040   1.893 -2.3924  1.1117 -0.3742
15814SOL     OW59500   3.742   7.787   6.241 -0.1008  0.2340 -0.1836
15814SOL    HW159501   3.800   7.745   6.172  0.6999 -0.1860  0.7247
15814SOL    HW259502   3.764   7.884   6.250  1.1558 -0.1319  0.8377
15815SOL     OW59503   6.757   4.608   2.483  0.1982  0.2307  0.6809
15815SOL    HW159504   6.769   4.518   2.441  1.9492  1.0918 -0.6847
15815SOL    HW259505   6.844   4.640   2.520 -0.2245  1.7844  0.3380
15816SOL     OW59506   9.943   1.957   0.935  0.0882  0.0326  0.3658
15816SOL    HW159507   9.929   2.051   0.904 -0.3705 -0.4340 -0.9022
15816SOL    HW259508   9.856   1.920   0.967 -0.3136 -0.7943 -1.5858
15817SOL     OW59509   3.376   9.216   3.587  0.0638  0.0632 -0.2344
15817SOL    HW159510   3.369   9.150   3.662 -0.9212 -1.2860 -1.4896
15817SOL    HW259511   3.339   9.176   3.503  2.7938  0.8929 -1.9017
15818SOL     OW59512   8.266   2.009   3.126 -0.6729  0.6876  0.2158
15818SOL    HW159513   8.259   1.931   3.188  1.0660 -0.2125 -0.6569
15818SOL    HW259514   8.338   2.071   3.158 -0.2757  0.5919 -0.4692
15819SOL     OW59515   6.507   1.112   0.139 -0.4622  0.5717 -0.3711
15819SOL    HW159516   6.485   1.209   0.131 -0.4798  0.5643 -0.4152
15819SOL    HW259517   6.606   1.100   0.148 -0.2927  0.4886 -2.1516
15820SOL     OW59518   7.730   9.491   8.131  0.0356  0.1207 -0.2619
15820SOL    HW159519   7.734   9.587   8.161  0.2589 -0.3960  1.4138
15820SOL    HW259520   7.635   9.459   8.138 -0.0957  0.3088 -1.1344
15821SOL     OW59521   7.740   2.860   4.797  0.4149  0.2252 -0.4844
15821SOL    HW159522   7.686   2.779   4.820 -0.0029  0.6766  0.1513
15821SOL    HW259523   7.832   2.851   4.833 -0.4773  1.3032  2.1852
15822SOL     OW59524   5.553   7.346   6.091  0.0219  0.1756  0.1062
15822SOL    HW159525   5.613   7.396   6.028 -0.1220 -0.3428 -0.4529
15822SOL    HW259526   5.561   7.384   6.183  1.1170  0.1902  0.0117
15823SOL     OW59527   5.947   9.346   1.812  0.6199  0.5302  0.0211
15823SOL    HW159528   6.020   9.295   1.856  1.9470  0.7887 -1.7957
15823SOL    HW259529   5.883   9.283   1.768  0.6491  0.3448  0.2478
15824SOL     OW59530   9.761   8.806   2.371  0.5444  0.4075  0.5535
15824SOL    HW159531   9.716   8.887   2.408 -0.4625  0.1804 -0.1507
15824SOL    HW259532   9.702   8.763   2.303  1.2924 -0.6243  0.5420
15825SOL     OW59533   5.047   2.581   9.890 -0.5643  0.2936  0.1054
15825SOL    HW159534   5.024   2.590   9.987  0.6077  1.2032  0.3170
15825SOL    HW259535   5.039   2.485   9.863  0.0806 -0.1370  1.3616
15826SOL     OW59536   3.404   9.520   3.864  0.2846  0.7094  0.0325
15826SOL    HW159537   3.365   9.548   3.776 -0.6251  0.3044  0.2934
15826SOL    HW259538   3.339   9.459   3.910  0.9085  0.6448  0.8276
15827SOL     OW59539   0.155   8.999   2.906  0.2379  0.0209  0.6095
15827SOL    HW159540   0.152   8.907   2.868  1.2202 -0.2647  1.2155
15827SOL    HW259541   0.202   8.998   2.994 -0.4972  0.9661  1.0281
15828SOL     OW59542   1.315   8.646   9.819  0.3025  0.3992 -0.4967
15828SOL    HW159543   1.321   8.549   9.844 -1.6375  0.1440 -0.9529
15828SOL    HW259544   1.371   8.663   9.738 -0.1011 -0.5317 -0.9776
15829SOL     OW59545   5.531   2.516   2.044  0.4001  0.0015  0.1884
15829SOL    HW159546   5.519   2.596   2.102 -0.8667 -1.4041  1.9142
15829SOL    HW259547   5.622   2.476   2.061  0.3540  0.0728  0.6024
15830SOL     OW59548   8.941   1.591   3.877 -0.3011 -0.5112  0.0302
15830SOL    HW159549   8.861   1.650   3.887  0.4018  0.3638  0.5452
15830SOL    HW259550   8.999   1.597   3.958  0.4723 -0.8679 -0.4746
15831SOL     OW59551   6.974   7.681   1.285 -0.4223  0.1876 -0.4642
15831SOL    HW159552   6.913   7.613   1.244 -0.6558  0.3357 -0.3599
15831SOL    HW259553   6.990   7.658   1.381  1.0213 -0.7999 -0.9069
15832SOL     OW59554   1.786   0.698   7.468 -0.5363 -0.5477 -0.6075
15832SOL    HW159555   1.749   0.772   7.411  1.6448  0.4423 -0.7832
15832SOL    HW259556   1.737   0.696   7.555  1.7367  3.5427  0.9005
15833SOL     OW59557   9.485   3.828   9.639  0.3105  0.3682 -0.2217
15833SOL    HW159558   9.443   3.767   9.571 -3.1940  0.2767  1.9132
15833SOL    HW259559   9.551   3.776   9.694  0.8171 -0.3174 -1.4465
15834SOL     OW59560   5.421   1.229   3.088  0.1875  0.7247  0.2922
15834SOL    HW159561   5.403   1.322   3.053 -3.3646 -0.1169 -0.3076
15834SOL    HW259562   5.462   1.235   3.179  0.0300  2.8971  0.2552
15835SOL     OW59563   6.660   0.054   5.305 -0.2332 -0.4661 -0.4415
15835SOL    HW159564   6.624   0.105   5.227  0.5314 -1.4036 -1.4251
15835SOL    HW259565   6.754   0.081   5.322 -0.5775  0.1537  0.5362
15836SOL     OW59566   9.966   9.533   2.890 -0.3544  0.6193  0.1106
15836SOL    HW159567   9.940   9.621   2.850 -0.5926  1.5007  2.1092
15836SOL    HW259568   9.999   9.472   2.819  1.5718  2.9631 -1.0710
15837SOL     OW59569   0.423   7.675   9.293 -0.4888  0.5524  0.3254
15837SOL    HW159570   0.474   7.600   9.334 -1.1883  0.2310  0.6102
15837SOL    HW259571   0.325   7.658   9.301 -0.6945  2.3702  2.0319
15838SOL     OW59572   5.792   9.446   2.645  0.3095 -0.7815 -0.3075
15838SOL    HW159573   5.795   9.374   2.575 -1.5468 -0.8495 -0.3388
15838SOL    HW259574   5.770   9.534   2.603 -0.3849 -0.7450  0.1127
15839SOL     OW59575   3.214   5.758   9.747 -0.3406 -0.0850  0.0071
15839SOL    HW159576   3.267   5.778   9.830 -0.5553  0.4951  0.0052
15839SOL    HW259577   3.121   5.790   9.759 -0.2895  0.2889 -0.5847
15840SOL     OW59578   7.647   7.263   5.016  0.1199  0.1898 -0.1412
15840SOL    HW159579   7.642   7.297   4.922 -0.0065  2.0790  0.5220
15840SOL    HW259580   7.597   7.177   5.023  0.1239  0.0351 -1.8038
15841SOL     OW59581   1.626   4.077   5.587 -0.1187 -0.0193  0.5140
15841SOL    HW159582   1.530   4.095   5.611 -0.5312 -1.9398  0.4179
15841SOL    HW259583   1.630   4.042   5.493  0.8474  1.4520 -0.0108
15842SOL     OW59584   0.821   1.807   4.125  0.2124  0.0864  0.7334
15842SOL    HW159585   0.837   1.713   4.155  0.8547  0.1144  0.4941
15842SOL    HW259586   0.806   1.865   4.205 -0.2792 -0.2383  0.8768
15843SOL     OW59587   5.881   1.177   9.597  0.1897  0.0710 -0.2040
15843SOL    HW159588   5.901   1.079   9.590  1.4026  0.5018 -3.6954
15843SOL    HW259589   5.966   1.229   9.599 -0.4545  1.2335 -1.9612
15844SOL     OW59590   1.737   9.460   1.256  0.0280 -0.4820 -0.1226
15844SOL    HW159591   1.757   9.558   1.267 -0.2073 -0.4548  0.0576
15844SOL    HW259592   1.782   9.426   1.173  0.7467 -0.3983  0.2309
15845SOL     OW59593   7.688   3.061   5.536  0.1844 -0.6393 -0.2302
15845SOL    HW159594   7.625   2.984   5.541  1.0671 -1.4375 -1.1958
15845SOL    HW259595   7.645   3.136   5.486 -0.8177 -0.3517  1.0381
15846SOL     OW59596   5.848   0.371   1.222  0.4134 -0.0003  0.3258
15846SOL    HW159597   5.882   0.367   1.129  1.1975  2.1830  0.4839
15846SOL    HW259598   5.923   0.353   1.286  0.3676  0.6136  0.5626
15847SOL     OW59599   7.085   3.534   6.870  0.2013  0.3518 -0.2514
15847SOL    HW159600   7.095   3.440   6.839 -0.6649  0.4575 -0.8570
15847SOL    HW259601   6.991   3.550   6.900 -0.2710  1.6833 -2.3802
15848SOL     OW59602   1.189   0.708   9.696 -0.3146  0.4549 -0.1107
15848SOL    HW159603   1.110   0.762   9.726  1.6591  2.6638  1.3727
15848SOL    HW259604   1.264   0.721   9.761  0.7735 -2.8565 -0.6254
15849SOL     OW59605   0.913   8.865   3.103 -0.0126  0.2516 -0.0249
15849SOL    HW159606   0.993   8.831   3.153  1.9358  0.1542 -3.0723
15849SOL    HW259607   0.868   8.936   3.157  1.1907 -0.7919  2.4533
15850SOL     OW59608   3.349   8.626   2.402  0.2409 -0.1338  0.6397
15850SOL    HW159609   3.398   8.612   2.317 -0.5837  0.4926  0.0546
15850SOL    HW259610   3.279   8.696   2.390  0.1295 -0.0188  1.8362
15851SOL     OW59611   0.531   5.025   6.087  0.1060  0.2186  0.2711
15851SOL    HW159612   0.592   5.078   6.028  0.6452 -0.4417  0.2200
15851SOL    HW259613   0.586   4.966   6.147 -0.4685  0.0504  0.6349
15852SOL     OW59614   2.005   8.713   2.498  0.4248  0.0261  0.1260
15852SOL    HW159615   1.985   8.633   2.441 -0.7632  0.0967  0.4347
15852SOL    HW259616   1.922   8.742   2.545  1.2029  0.4784  1.2502
15853SOL     OW59617   7.766   1.761   6.293 -0.6774 -0.1484  0.5881
15853SOL    HW159618   7.672   1.745   6.324 -1.0327  1.9179  0.7051
15853SOL    HW259619   7.830   1.731   6.363 -1.2875 -0.6980  0.9172
15854SOL     OW59620   7.825   7.578   4.796  0.1053 -0.1584 -0.3733
15854SOL    HW159621   7.822   7.550   4.892  1.9816 -1.6030 -0.7093
15854SOL    HW259622   7.829   7.678   4.791 -0.0874 -0.0671  1.0405
15855SOL     OW59623   3.033   0.214   5.134 -0.2767 -0.2576  0.3189
15855SOL    HW159624   3.067   0.151   5.065  1.6125  1.5435 -0.4251
15855SOL    HW259625   3.017   0.164   5.220 -1.4510 -2.2480 -1.0142
15856SOL     OW59626   5.726   0.179   2.346 -0.3862  0.1972 -0.1609
15856SOL    HW159627   5.698   0.155   2.438  0.3950  1.0855  0.3236
15856SOL    HW259628   5.756   0.275   2.344 -0.9077  0.3488 -1.4500
15857SOL     OW59629   4.174   8.319   1.259 -0.1307  0.3897 -0.0447
15857SOL    HW159630   4.137   8.410   1.239 -1.3915 -0.0657  0.1907
15857SOL    HW259631   4.240   8.294   1.188 -0.5774  1.0372 -0.6980
15858SOL     OW59632   6.197   8.675   6.125 -0.3615 -0.5320 -0.1583
15858SOL    HW159633   6.138   8.712   6.054  1.4120 -0.4096 -1.6079
15858SOL    HW259634   6.239   8.750   6.177 -0.0502 -0.5891 -0.3282
15859SOL     OW59635   9.942   2.234   2.375  0.0735 -0.1908  0.0681
15859SOL    HW159636  10.015   2.279   2.426  0.4484 -1.6685  0.8551
15859SOL    HW259637   9.956   2.248   2.277  2.5719 -2.1689  0.0907
15860SOL     OW59638   6.180   8.250   8.549 -0.1383 -0.3712 -0.1141
15860SOL    HW159639   6.096   8.282   8.593 -0.1807 -0.8292  0.1515
15860SOL    HW259640   6.242   8.214   8.619  0.5654  0.5855 -0.2382
15861SOL     OW59641   1.490   9.150   9.365  0.3202  0.3566 -0.1762
15861SOL    HW159642   1.481   9.051   9.379 -0.9684  0.3766 -0.7536
15861SOL    HW259643   1.519   9.168   9.271 -0.9977  0.5596 -0.5637
15862SOL     OW59644   6.643   9.115   8.972  0.0867 -1.2632 -0.5424
15862SOL    HW159645   6.705   9.047   9.011  2.1276  0.6554 -0.3090
15862SOL    HW259646   6.661   9.125   8.874  1.4072  0.5216 -0.1546
15863SOL     OW59647   3.934   5.867   1.359  0.2594  0.2070 -0.3195
15863SOL    HW159648   3.994   5.890   1.435 -0.4907  1.0924  0.0131
15863SOL    HW259649   3.890   5.779   1.377  0.1969  0.3441  0.2040
15864SOL     OW59650   7.161   2.722   5.189 -0.1297  0.5669  0.3710
15864SOL    HW159651   7.066   2.709   5.161 -0.3931  1.8487  0.6639
15864SOL    HW259652   7.218   2.734   5.107 -0.3590  0.7548  0.2386
15865SOL     OW59653   2.708   0.646   0.265 -0.3204  0.2195 -0.4679
15865SOL    HW159654   2.807   0.663   0.273 -0.1516 -0.7694 -0.3739
15865SOL    HW259655   2.664   0.726   0.227  0.8808 -0.2255 -2.8927
15866SOL     OW59656   8.152   9.785   4.483 -0.3720  0.1088  0.5687
15866SOL    HW159657   8.233   9.840   4.466 -0.2646  0.5115  2.2890
15866SOL    HW259658   8.143   9.716   4.411 -0.1403  1.9134 -1.2378
15867SOL     OW59659   4.502   8.155   4.519  0.2017  0.2064 -0.4776
15867SOL    HW159660   4.475   8.237   4.469  1.0855  0.0528 -1.2237
15867SOL    HW259661   4.556   8.095   4.459  1.4131  0.0916  0.6899
15868SOL     OW59662   6.921   7.751   2.140  0.3168 -0.5219 -0.4222
15868SOL    HW159663   6.829   7.788   2.126 -0.3073 -2.1641 -0.7862
15868SOL    HW259664   6.971   7.810   2.203 -1.4670 -0.3209  0.8526
15869SOL     OW59665   6.796   7.499   7.481  0.3049 -0.5605  0.5112
15869SOL    HW159666   6.813   7.449   7.396  0.7949  1.6561 -0.7513
15869SOL    HW259667   6.853   7.461   7.554 -0.1314 -2.5058 -0.1282
15870SOL     OW59668   2.564   5.074   9.346 -0.3153  0.1420 -0.7761
15870SOL    HW159669   2.628   5.121   9.285 -0.3519 -0.4909 -1.3039
15870SOL    HW259670   2.508   5.010   9.293  0.1507 -0.9452  0.0263
15871SOL     OW59671   6.152   9.150   6.134 -0.4165  0.5892 -0.2620
15871SOL    HW159672   6.064   9.175   6.094  0.4443  2.0339 -1.3317
15871SOL    HW259673   6.167   9.204   6.217  0.3405  1.8809 -1.2078
15872SOL     OW59674   5.114   5.349   0.059 -0.2647 -0.0313  0.0582
15872SOL    HW159675   5.145   5.444   0.060 -0.1271 -0.0801  0.6270
15872SOL    HW259676   5.139   5.304   0.145 -2.6806  0.1934  0.9212
15873SOL     OW59677   8.116   3.872   7.085 -0.9227  0.0614  0.1594
15873SOL    HW159678   8.069   3.845   7.169 -1.1229  0.6659  0.2434
15873SOL    HW259679   8.052   3.921   7.025 -0.1106  1.9651  0.7917
15874SOL     OW59680   9.025   9.464   8.318  0.0792  0.0216  0.4713
15874SOL    HW159681   8.999   9.560   8.323  1.3799  0.4738 -1.3186
15874SOL    HW259682   9.122   9.456   8.298 -0.0919 -1.6605  0.2297
15875SOL     OW59683   1.351   5.705   1.368  0.8129 -0.7181 -0.3922
15875SOL    HW159684   1.284   5.636   1.393  0.1729  0.4824  1.3161
15875SOL    HW259685   1.311   5.768   1.301  0.7989 -0.9700 -0.6209
15876SOL     OW59686   3.178   8.711   5.907  0.3602 -0.4151 -0.6000
15876SOL    HW159687   3.267   8.723   5.863 -0.2734 -2.4963 -2.5431
15876SOL    HW259688   3.118   8.659   5.847 -1.2525 -1.5017  1.8873
15877SOL     OW59689   9.639   6.206   2.992  0.4711  0.1701  0.0008
15877SOL    HW159690   9.677   6.161   3.072 -1.1627 -0.5289  0.4021
15877SOL    HW259691   9.654   6.149   2.911 -0.7097 -0.6320  0.3439
15878SOL     OW59692   4.126   9.054   4.555 -0.2610 -0.6950 -0.0332
15878SOL    HW159693   4.050   9.108   4.519 -0.9575 -0.4723  1.7424
15878SOL    HW259694   4.091   8.967   4.590  0.3047 -0.6293  0.7164
15879SOL     OW59695   0.985   9.244   5.034  0.2274 -0.5068 -0.3137
15879SOL    HW159696   0.961   9.333   5.072  0.6652  0.2479 -1.7664
15879SOL    HW259697   0.904   9.203   4.993  0.2783 -0.2558 -0.6689
15880SOL     OW59698   7.936   9.510   6.176  1.0793 -0.0493 -0.4236
15880SOL    HW159699   8.012   9.458   6.216  0.6107 -0.8323 -0.5242
15880SOL    HW259700   7.852   9.491   6.228  0.7093 -0.1458 -1.0559
15881SOL     OW59701   5.514   7.292   3.423  0.3663  0.3672  0.6079
15881SOL    HW159702   5.568   7.377   3.422  1.2637 -0.2043 -1.5784
15881SOL    HW259703   5.424   7.309   3.382  0.8988  0.0557 -0.7132
15882SOL     OW59704   7.841   0.253   1.826 -0.6860  0.5502 -0.6565
15882SOL    HW159705   7.854   0.295   1.916 -1.6816  0.0140 -0.2512
15882SOL    HW259706   7.761   0.192   1.829  0.8789 -1.5924 -1.1526
15883SOL     OW59707   5.142   6.231   9.025 -0.4419 -0.3337 -0.4459
15883SOL    HW159708   5.117   6.134   9.015 -0.6010 -0.1637 -1.7722
15883SOL    HW259709   5.061   6.288   9.008 -0.5905  0.0136  1.3116
15884SOL     OW59710   5.751   9.121   7.782  0.7721  0.3051  0.2453
15884SOL    HW159711   5.826   9.180   7.810 -0.6221  2.8224 -1.1174
15884SOL    HW259712   5.741   9.124   7.683  0.3884 -1.9129  0.1906
15885SOL     OW59713   2.962   6.424   8.013 -0.9572  0.2703 -0.1570
15885SOL    HW159714   3.013   6.343   7.985 -0.9516 -0.7616  2.6925
15885SOL    HW259715   3.025   6.501   8.025 -0.4577 -0.2364  0.5087
15886SOL     OW59716   8.631   8.735   3.189  0.7325  0.9644 -0.3981
15886SOL    HW159717   8.635   8.688   3.277  3.8805 -0.2670 -1.1426
15886SOL    HW259718   8.645   8.833   3.203  3.2912  0.5232  0.3016
15887SOL     OW59719   5.344   8.490   5.867  0.6788  0.8901 -0.0568
15887SOL    HW159720   5.424   8.506   5.925  0.2234  0.0080  0.8421
15887SOL    HW259721   5.281   8.568   5.875 -0.3787 -0.1378  2.3454
15888SOL     OW59722   8.267   3.366   6.207 -0.2232 -0.1698 -0.4248
15888SOL    HW159723   8.284   3.317   6.292 -0.4301  3.2865  1.7162
15888SOL    HW259724   8.173   3.347   6.176 -0.0352 -1.7165 -0.0967
15889SOL     OW59725   7.450   0.480   1.580  0.2000 -0.0007 -0.1972
15889SOL    HW159726   7.521   0.526   1.634 -0.0049 -2.2250  2.0703
15889SOL    HW259727   7.493   0.421   1.512  0.4876  0.2889 -0.2716
15890SOL     OW59728   3.163   0.957   6.970 -0.0843  0.1123 -0.0749
15890SOL    HW159729   3.187   0.930   6.876 -2.4116 -0.0451 -0.6430
15890SOL    HW259730   3.143   0.875   7.024 -1.4091  0.3578 -0.1896
15891SOL     OW59731   9.557   4.752   8.010  0.0887  0.7110 -1.0140
15891SOL    HW159732   9.504   4.729   7.928 -1.6767 -0.2670  0.3637
15891SOL    HW259733   9.535   4.687   8.083 -1.0758  3.6538  1.3564
15892SOL     OW59734   6.598   1.348   5.235  0.0742 -0.0524 -0.0923
15892SOL    HW159735   6.500   1.348   5.255  0.1660  0.3811  0.3546
15892SOL    HW259736   6.629   1.254   5.222 -0.2118 -0.2549  0.6846
15893SOL     OW59737   4.314   7.737   3.411 -0.4585 -0.1023 -0.2450
15893SOL    HW159738   4.282   7.665   3.350  0.4367 -0.8939  0.2085
15893SOL    HW259739   4.277   7.721   3.503 -0.5132  0.1935 -0.2161
15894SOL     OW59740   9.021   2.493   4.247  0.4368 -0.3918 -0.2604
15894SOL    HW159741   8.942   2.482   4.187  1.1596  0.2566 -1.3487
15894SOL    HW259742   9.009   2.437   4.329 -1.9312  0.9809  0.3836
15895SOL     OW59743   2.018   0.664   4.474 -0.6031 -0.0280 -0.0889
15895SOL    HW159744   2.083   0.705   4.538  1.1975 -1.7941 -0.7482
15895SOL    HW259745   1.994   0.732   4.405  0.4776  0.6888  0.2148
15896SOL     OW59746   8.955   7.394   7.180 -0.1673 -0.6380 -0.2242
15896SOL    HW159747   9.005   7.307   7.181 -1.5620 -1.4723 -1.1842
15896SOL    HW259748   8.886   7.393   7.252 -1.7291 -1.2723 -1.7054
15897SOL     OW59749   4.405   5.318   7.082  0.2059  0.5255 -0.1608
15897SOL    HW159750   4.445   5.369   7.006 -0.5764  2.2750  0.5667
15897SOL    HW259751   4.447   5.348   7.168 -0.0837 -0.2417  0.2534
15898SOL     OW59752   0.861   7.983   0.495  0.3389 -0.3999  0.2343
15898SOL    HW159753   0.893   7.889   0.482 -0.7788 -0.6974 -0.4098
15898SOL    HW259754   0.770   7.982   0.537  0.5014  0.4064  0.6116
15899SOL     OW59755   5.220   8.905   0.860 -0.1115  0.2091  0.6564
15899SOL    HW159756   5.181   8.931   0.948  1.5728  1.4825  1.0627
15899SOL    HW259757   5.297   8.843   0.874  0.3481  0.6429  0.1102
15900SOL     OW59758   1.626   9.062   3.027  0.0756 -0.2075 -0.1780
15900SOL    HW159759   1.584   9.004   3.097 -0.1996 -0.8716 -0.8791
15900SOL    HW259760   1.555   9.110   2.976  0.3657  1.9027  1.3536
15901SOL     OW59761   0.935   0.102   9.094  0.7413  0.2908 -0.0770
15901SOL    HW159762   0.938   0.154   9.179  1.1903 -0.3373  0.2961
15901SOL    HW259763   0.986   0.151   9.023 -0.3038  1.2042 -0.2063
15902SOL     OW59764   0.234   1.418   3.878 -0.2038 -0.1075  0.4913
15902SOL    HW159765   0.231   1.435   3.780  0.9950  0.9326  0.6159
15902SOL    HW259766   0.153   1.458   3.921  0.3800  1.4088  0.2039
15903SOL     OW59767   7.606   8.473   6.200 -0.3074  0.0285  0.0211
15903SOL    HW159768   7.670   8.446   6.128 -1.7073  1.3502 -1.7551
15903SOL    HW259769   7.553   8.552   6.170  0.3962  1.8062  3.2570
15904SOL     OW59770   6.789   8.274   2.058  0.7178 -0.0601  0.1290
15904SOL    HW159771   6.750   8.353   2.106 -0.1930 -1.2098  1.2975
15904SOL    HW259772   6.886   8.266   2.081  1.0713  1.2821 -0.7744
15905SOL     OW59773   3.279   9.213   4.382  0.3755 -0.2687  0.2148
15905SOL    HW159774   3.252   9.140   4.320 -0.9101 -0.2599  0.7529
15905SOL    HW259775   3.253   9.189   4.475 -1.6516  1.6224  0.1719
15906SOL     OW59776   1.729   8.642   4.946 -0.2345 -0.0379  0.1804
15906SOL    HW159777   1.703   8.594   5.030 -0.4460 -0.9350 -0.3974
15906SOL    HW259778   1.813   8.603   4.909 -1.0451 -0.7456 -0.9314
15907SOL     OW59779   3.810   6.131   2.239  0.3068 -0.3105  0.2490
15907SOL    HW159780   3.862   6.046   2.231  0.8086  0.1215 -1.3030
15907SOL    HW259781   3.743   6.122   2.312 -0.1824 -2.3296 -0.4066
15908SOL     OW59782   7.441   4.218   1.275  0.1134  0.4446 -0.2452
15908SOL    HW159783   7.430   4.303   1.224  0.0444  0.3222 -0.4348
15908SOL    HW259784   7.375   4.216   1.351  0.0954  0.5470 -0.2580
15909SOL     OW59785   4.751   3.866   7.215 -0.0966  0.3995 -0.1781
15909SOL    HW159786   4.803   3.846   7.297 -1.2242  0.9975  0.7009
15909SOL    HW259787   4.811   3.908   7.147  0.4527  1.6332  1.0382
15910SOL     OW59788   3.737   0.806   4.129 -0.2160  0.1914 -0.4395
15910SOL    HW159789   3.641   0.780   4.139  0.2310 -1.4353 -0.2594
15910SOL    HW259790   3.752   0.896   4.169 -1.4910  0.0980  0.2560
15911SOL     OW59791   2.829   9.372   0.209 -0.2613 -0.7168  0.0479
15911SOL    HW159792   2.833   9.401   0.113 -2.5627  2.7136  0.9065
15911SOL    HW259793   2.903   9.415   0.260 -1.5374  0.8545  0.6097
15912SOL     OW59794   6.652   9.101   7.126  0.5383  0.0421  0.2130
15912SOL    HW159795   6.615   9.039   7.195 -0.2581  0.2511 -0.0255
15912SOL    HW259796   6.616   9.076   7.036  0.4277  0.6873  0.0790
15913SOL     OW59797   5.618   9.530   6.771 -0.7312 -0.0515  0.8287
15913SOL    HW159798   5.627   9.445   6.719  0.2836 -0.1957  1.2302
15913SOL    HW259799   5.560   9.594   6.720  0.5391 -0.0466 -0.6662
15914SOL     OW59800   8.970   6.823   4.997  0.0017 -0.3058 -0.1817
15914SOL    HW159801   8.983   6.910   5.044 -0.4572 -1.4600  2.1908
15914SOL    HW259802   8.897   6.832   4.929 -1.2327  0.7276  1.2476
15915SOL     OW59803   6.690   9.984   2.847 -0.2176  0.0230  0.7950
15915SOL    HW159804   6.676   9.889   2.876  1.6452 -0.4276  0.3012
15915SOL    HW259805   6.769  10.023   2.896 -0.8747  1.2761  0.8849
15916SOL     OW59806   6.950   4.709   1.481 -0.2570 -0.4071  0.0988
15916SOL    HW159807   6.911   4.666   1.399 -1.2222  0.3743  0.1367
15916SOL    HW259808   7.050   4.706   1.475 -0.3138 -1.3257 -0.5919
15917SOL     OW59809   6.210   9.179   5.247  0.2119 -0.3449  0.5913
15917SOL    HW159810   6.267   9.137   5.318  0.8252  1.0835  0.9479
15917SOL    HW259811   6.266   9.198   5.167 -0.2540 -0.9588  0.1055
15918SOL     OW59812   6.059   6.640   5.970  0.2631  0.0744  0.6640
15918SOL    HW159813   6.138   6.657   6.029 -0.7032  0.8946  1.7556
15918SOL    HW259814   6.073   6.556   5.918  2.4142  0.8948 -0.1355
15919SOL     OW59815   1.171   2.491   9.548  0.9889 -0.8767  0.3945
15919SOL    HW159816   1.168   2.572   9.607 -0.6781 -0.8049  0.2160
15919SOL    HW259817   1.222   2.513   9.465  0.9269 -0.1416  0.5433
15920SOL     OW59818   0.793   8.932   2.742 -0.4256  0.4721  0.2493
15920SOL    HW159819   0.885   8.950   2.776 -0.6970  0.4985  0.9673
15920SOL    HW259820   0.793   8.935   2.642  0.1953  1.2536  0.2678
15921SOL     OW59821   4.075   4.854   1.934 -0.4586  0.0789 -0.1553
15921SOL    HW159822   4.004   4.866   2.003  0.8499 -0.2927  1.2846
15921SOL    HW259823   4.054   4.773   1.878  0.2132 -1.6332  2.0147
15922SOL     OW59824   8.236   3.796   7.433  0.0801 -0.1028 -0.0240
15922SOL    HW159825   8.306   3.796   7.362 -0.9895  1.7583 -1.1065
15922SOL    HW259826   8.262   3.731   7.505  0.8645 -2.5058 -2.3731
15923SOL     OW59827   6.018   8.988   7.162  0.0896 -0.5703  0.2136
15923SOL    HW159828   5.982   9.063   7.106 -1.8798 -0.2777  1.8207
15923SOL    HW259829   6.037   8.909   7.104 -0.7571  0.1455 -1.0486
15924SOL     OW59830   8.007   0.562   1.296  0.0988 -0.2756 -0.0470
15924SOL    HW159831   7.910   0.543   1.311 -0.2617 -0.9748 -3.0228
15924SOL    HW259832   8.060   0.479   1.316 -0.2037 -0.7293 -1.1151
15925SOL     OW59833   8.016   3.120   7.713  0.0475 -0.2686 -0.4988
15925SOL    HW159834   7.974   3.029   7.717 -2.2760  0.7634 -0.2966
15925SOL    HW259835   8.102   3.120   7.764  0.0759 -2.3505 -0.5350
15926SOL     OW59836   4.480   9.999   9.003 -0.2505 -0.1206  0.0188
15926SOL    HW159837   4.475   9.967   8.908  1.5972  2.2805 -0.9387
15926SOL    HW259838   4.538   9.937   9.056  1.0015  0.0663 -1.1090
15927SOL     OW59839   4.443   2.944   7.092 -0.2025 -0.2202  0.2546
15927SOL    HW159840   4.489   3.023   7.133  1.2595 -1.6343  1.3655
15927SOL    HW259841   4.363   2.920   7.148 -0.1386 -0.0715  0.4100
15928SOL     OW59842   9.965   7.653   3.458 -0.1040 -0.5657  0.5302
15928SOL    HW159843   9.980   7.656   3.557  0.0278 -0.1245  0.4975
15928SOL    HW259844   9.894   7.719   3.433  0.7656  0.2240  0.1596
15929SOL     OW59845   1.316   0.047   2.284 -0.7483 -0.0691  0.6219
15929SOL    HW159846   1.276  -0.043   2.264  1.7667 -1.6038  2.1931
15929SOL    HW259847   1.375   0.075   2.209 -1.1145  0.0529  0.3737
15930SOL     OW59848   2.744   8.149   5.821 -0.2217 -0.1403  0.8921
15930SOL    HW159849   2.709   8.057   5.805  1.0313 -0.2419 -1.5069
15930SOL    HW259850   2.681   8.217   5.782  0.5088 -0.1628 -0.3549
15931SOL     OW59851   1.243   3.095   3.131 -0.0047 -0.1405  0.1379
15931SOL    HW159852   1.279   3.131   3.045 -0.7392 -2.3288 -1.1374
15931SOL    HW259853   1.181   3.018   3.111 -0.6627 -0.2715  2.5917
15932SOL     OW59854   2.662   9.046   7.684 -0.7730  0.1353  0.5386
15932SOL    HW159855   2.569   9.026   7.653 -0.3604 -2.6053  0.9231
15932SOL    HW259856   2.714   8.961   7.688  2.3518  1.8682 -1.4966
15933SOL     OW59857   1.848   8.373   5.770 -0.6725 -0.5088  0.2019
15933SOL    HW159858   1.862   8.435   5.847  0.2493  1.4760 -1.5010
15933SOL    HW259859   1.752   8.375   5.742 -0.7445 -0.2352  0.4679
15934SOL     OW59860   6.102   2.167   8.871 -0.3726 -0.0140  0.7765
15934SOL    HW159861   6.070   2.262   8.881 -1.4469 -0.2466 -0.2971
15934SOL    HW259862   6.024   2.108   8.849  0.3816 -1.0542  0.8720
15935SOL     OW59863   2.210   0.332   7.848 -0.2787 -0.4647  0.4700
15935SOL    HW159864   2.306   0.309   7.864  0.0913  1.0358  0.4972
15935SOL    HW259865   2.177   0.285   7.767 -0.0018 -2.2744  1.3689
15936SOL     OW59866   7.154   8.992   2.707  0.1338  0.4540 -0.3310
15936SOL    HW159867   7.200   9.069   2.663  0.3376  1.0940  0.9841
15936SOL    HW259868   7.114   9.022   2.794  0.9717 -1.1215  0.6194
15937SOL     OW59869   2.241   9.393   6.147  0.6246  0.2864  0.2306
15937SOL    HW159870   2.165   9.419   6.087  0.6875  2.4190  1.0221
15937SOL    HW259871   2.205   9.344   6.226  0.3072 -0.5298 -0.4050
15938SOL     OW59872   0.766   9.530   0.096 -0.7021  0.0556  0.3367
15938SOL    HW159873   0.800   9.482   0.014  1.4862  0.0791  1.1839
15938SOL    HW259874   0.755   9.627   0.075  2.0401  0.4799  0.6474
15939SOL     OW59875   4.623   8.767   4.862  0.0055  0.2425 -0.1153
15939SOL    HW159876   4.596   8.840   4.924 -1.4476 -0.3300 -0.0515
15939SOL    HW259877   4.549   8.700   4.855  1.5036 -1.4909  0.2362
15940SOL     OW59878   5.228   9.080   9.020 -0.5935  0.0335  0.3232
15940SOL    HW159879   5.303   9.125   8.971 -0.8834 -0.9750 -1.0494
15940SOL    HW259880   5.180   9.148   9.076  0.2684  1.0266 -0.1314
15941SOL     OW59881   4.236   5.203   7.416 -0.3547  0.3202 -0.3400
15941SOL    HW159882   4.328   5.242   7.421 -0.2809  0.1809 -0.6099
15941SOL    HW259883   4.242   5.107   7.388 -0.5369  0.1150  0.3082
15942SOL     OW59884   6.120   6.607   6.927 -0.1361 -0.0793  0.3725
15942SOL    HW159885   6.172   6.580   7.008 -0.9819 -0.6550  0.7303
15942SOL    HW259886   6.097   6.526   6.873  0.2181  0.2784 -0.3135
15943SOL     OW59887   3.045   9.195   5.966  0.3670  0.4143 -0.2556
15943SOL    HW159888   3.054   9.100   5.936  0.2330  0.1401  0.5439
15943SOL    HW259889   3.120   9.250   5.929  0.9388 -0.1923 -0.0123
15944SOL     OW59890   5.116   4.870   6.282 -0.2528 -0.2422  0.3168
15944SOL    HW159891   5.113   4.922   6.196 -0.9402  2.5410  1.9473
15944SOL    HW259892   5.140   4.775   6.263 -2.3622 -0.1567 -3.1488
15945SOL     OW59893   8.872   1.867   2.459  0.0974 -0.0450  0.7443
15945SOL    HW159894   8.792   1.807   2.453  1.3272 -1.4809 -2.1328
15945SOL    HW259895   8.864   1.941   2.393  1.1678 -0.2162  0.4103
15946SOL     OW59896   2.498   0.982   1.245  0.3677 -0.1897 -0.1997
15946SOL    HW159897   2.411   1.005   1.201  0.3205 -0.1671 -0.0930
15946SOL    HW259898   2.546   1.066   1.269 -0.3038 -0.1892  1.1944
15947SOL     OW59899   6.111   1.143   8.964 -0.5913  0.0377  0.7301
15947SOL    HW159900   6.119   1.234   8.924  0.6608 -0.1162  0.6078
15947SOL    HW259901   6.054   1.147   9.046  0.6569  1.1981  1.5528
15948SOL     OW59902   4.406   1.056   8.373 -0.4043 -0.2170 -0.1726
15948SOL    HW159903   4.473   1.045   8.447 -1.4669  0.3976  0.9131
15948SOL    HW259904   4.351   0.972   8.366  0.5259 -0.7611 -1.1329
15949SOL     OW59905   3.143   2.005   6.777 -0.5295 -0.0685 -0.1745
15949SOL    HW159906   3.102   2.094   6.794 -0.5371 -0.2619  0.8397
15949SOL    HW259907   3.218   2.015   6.712 -1.8852  0.3434 -1.6978
15950SOL     OW59908   2.736   9.308   3.206  0.2949  0.4396  0.6842
15950SOL    HW159909   2.678   9.257   3.143  0.1313  0.8143  0.5306
15950SOL    HW259910   2.730   9.405   3.186  0.3668  0.5462  1.1791
15951SOL     OW59911   6.061   6.772   2.163  0.3136 -0.2045 -0.0498
15951SOL    HW159912   6.105   6.756   2.252  0.7787 -1.8343 -0.5578
15951SOL    HW259913   6.099   6.855   2.122  1.4539 -0.4573  0.4480
15952SOL     OW59914   4.046   8.436   8.368  0.5842  0.1437 -0.3713
15952SOL    HW159915   4.067   8.342   8.340  1.2466  0.5123 -1.1401
15952SOL    HW259916   4.091   8.456   8.455  0.0686 -0.4002  0.0203
15953SOL     OW59917   5.522   0.154   9.741  0.3761  0.3098  0.7004
15953SOL    HW159918   5.486   0.065   9.714  1.5648  0.0317 -0.0172
15953SOL    HW259919   5.455   0.201   9.798  0.3018 -1.6299  2.2611
15954SOL     OW59920   1.949   0.226   2.164 -0.2771  0.1686  0.0435
15954SOL    HW159921   2.044   0.254   2.155 -0.4692 -0.0268 -2.8566
15954SOL    HW259922   1.889   0.305   2.152 -0.5512 -0.0437  0.0079
15955SOL     OW59923   6.940   8.782   9.611 -0.8272  0.0222 -0.6838
15955SOL    HW159924   6.896   8.871   9.600 -0.6573  0.2014  0.0165
15955SOL    HW259925   6.981   8.777   9.702  0.4503 -0.2096 -1.2583
15956SOL     OW59926   3.017   5.744   6.795 -0.3809  0.1405 -0.7115
15956SOL    HW159927   3.107   5.787   6.786 -0.9391  1.4946  0.0417
15956SOL    HW259928   2.964   5.791   6.866 -1.9430 -0.1726 -1.6285
15957SOL     OW59929   5.769   1.491   2.753 -0.2189 -0.6984 -0.2822
15957SOL    HW159930   5.776   1.455   2.846  1.4543  0.5639  0.1034
15957SOL    HW259931   5.852   1.541   2.731 -1.0469 -0.0953 -2.0845
15958SOL     OW59932   6.161   8.957   6.654  0.0946  0.0416  0.2237
15958SOL    HW159933   6.247   8.947   6.603 -0.1848 -0.7243 -0.1116
15958SOL    HW259934   6.098   9.014   6.602  0.3027  0.3913  0.3502
15959SOL     OW59935   8.261   7.315   7.206 -0.7619  0.0260  0.3046
15959SOL    HW159936   8.162   7.314   7.194 -0.5422  0.2176 -1.9032
15959SOL    HW259937   8.294   7.222   7.221 -1.1646 -0.2004 -0.1942
15960SOL     OW59938   7.268   8.543   6.227 -0.6169  0.0321  0.0756
15960SOL    HW159939   7.182   8.595   6.228 -0.6630  0.0878 -2.3128
15960SOL    HW259940   7.296   8.527   6.132 -0.5779 -4.2849  0.7026
15961SOL     OW59941   2.064   6.877   4.515 -0.1841 -0.0546  0.0121
15961SOL    HW159942   2.104   6.917   4.597  0.3920 -1.6381  0.5231
15961SOL    HW259943   2.107   6.918   4.434 -0.5373  1.2881  0.4957
15962SOL     OW59944   8.013   0.330   4.670 -0.7291 -0.4962 -0.0529
15962SOL    HW159945   8.084   0.265   4.699 -0.7721 -1.1179 -1.3258
15962SOL    HW259946   7.927   0.306   4.713 -0.8423 -1.5511 -0.8540
15963SOL     OW59947   6.488   0.695   7.245  0.2011 -0.2121  0.0103
15963SOL    HW159948   6.402   0.669   7.288 -0.2173 -0.3173 -0.8803
15963SOL    HW259949   6.539   0.756   7.306  0.0978 -1.1809  1.0902
15964SOL     OW59950   7.301   8.154   4.535 -0.0217 -0.5498  0.1178
15964SOL    HW159951   7.338   8.126   4.447  1.2983  0.6773  0.2585
15964SOL    HW259952   7.376   8.178   4.597 -1.0046  2.7520  0.1673
15965SOL     OW59953   0.375   1.944   5.957 -0.0690 -0.0033 -0.1586
15965SOL    HW159954   0.426   1.859   5.968 -3.0066 -2.1804 -2.4397
15965SOL    HW259955   0.282   1.933   5.991 -1.0867  1.6237 -2.2316
15966SOL     OW59956   3.104   2.504   0.911 -0.2239  0.5905  0.0108
15966SOL    HW159957   3.168   2.579   0.894  0.1375  0.2431 -0.1600
15966SOL    HW259958   3.034   2.501   0.839  0.3454  0.1416 -0.5273
15967SOL     OW59959   5.542   7.128   7.254  0.3182  0.6238 -0.4390
15967SOL    HW159960   5.451   7.095   7.279  0.3523  0.3837 -0.6221
15967SOL    HW259961   5.535   7.201   7.187  0.3234 -1.2748 -2.5982
15968SOL     OW59962   3.605   1.733   7.427 -0.4751 -0.3545  0.5741
15968SOL    HW159963   3.511   1.716   7.455 -0.4644  1.7218  1.9828
15968SOL    HW259964   3.618   1.831   7.410  1.7870 -0.3782  1.8825
15969SOL     OW59965   3.762   0.420   8.036 -0.1538  0.1800  0.0579
15969SOL    HW159966   3.791   0.506   8.079 -0.7067  1.5049 -2.1381
15969SOL    HW259967   3.682   0.385   8.084 -0.7970  1.6432  0.0837
15970SOL     OW59968   3.962   8.366   4.537  0.0977  0.0020 -0.2942
15970SOL    HW159969   3.865   8.381   4.553 -0.0962 -1.3572 -0.1401
15970SOL    HW259970   3.991   8.419   4.457 -0.8417  0.1537 -0.5445
15971SOL     OW59971   3.285   8.585   5.557 -0.5026 -0.1839  0.2169
15971SOL    HW159972   3.205   8.637   5.528  0.1476  0.3790 -0.5925
15971SOL    HW259973   3.266   8.487   5.548 -0.4998 -0.0299 -1.6486
15972SOL     OW59974   5.941   4.068   2.999  0.1435 -0.6022  0.0335
15972SOL    HW159975   5.894   4.153   2.978 -0.6000 -0.9633  0.2119
15972SOL    HW259976   6.035   4.087   3.026  0.0294  0.1453 -0.0932
15973SOL     OW59977   8.630   3.153   3.077  0.5017 -0.2060  0.2763
15973SOL    HW159978   8.660   3.104   2.995 -1.3734  0.5061 -0.8585
15973SOL    HW259979   8.650   3.098   3.158 -0.3862 -2.2686 -0.8704
15974SOL     OW59980   6.793   5.304   0.069  0.4806 -0.2354 -0.3002
15974SOL    HW159981   6.849   5.343  -0.005 -0.5894 -0.4926 -1.2635
15974SOL    HW259982   6.852   5.278   0.145  1.5097  0.8086 -0.7245
15975SOL     OW59983   2.972   0.134   5.461 -0.2816 -0.2640  0.1905
15975SOL    HW159984   2.984   0.043   5.421  0.3501  0.1388 -0.5446
15975SOL    HW259985   2.880   0.167   5.440 -0.0975 -0.2328 -0.5747
15976SOL     OW59986   2.384   4.607   6.745  0.0495  0.2579  0.1422
15976SOL    HW159987   2.345   4.698   6.728  1.4083  0.8871  0.3396
15976SOL    HW259988   2.483   4.614   6.749  0.1550 -1.2338  0.2585
15977SOL     OW59989   7.770   4.449   8.025  0.0713 -0.8045  0.4987
15977SOL    HW159990   7.674   4.475   8.038  0.0656 -0.8478  0.5497
15977SOL    HW259991   7.782   4.407   7.935  0.4026  0.8637 -0.2438
15978SOL     OW59992   9.003   8.758   8.042  0.0646  0.2814 -0.5517
15978SOL    HW159993   9.044   8.848   8.022 -0.4579  0.7517  0.4414
15978SOL    HW259994   9.069   8.686   8.019  2.1895  1.0861  2.6795
15979SOL     OW59995   9.196   3.903   2.580 -0.5170 -0.0041 -0.0992
15979SOL    HW159996   9.157   3.946   2.499 -1.3416  1.5234  1.0847
15979SOL    HW259997   9.290   3.936   2.594 -1.0303  1.1941  0.6124
15980SOL     OW59998   4.846   0.049   5.637 -0.1586 -0.4507  0.0397
15980SOL    HW159999   4.758   0.096   5.627 -0.1376 -0.8101 -2.1084
15980SOL    HW260000   4.862  -0.008   5.557  1.7612 -0.8566  0.6923
15981SOL     OW60001   4.463   2.372   7.426  0.4466 -0.1302  0.2344
15981SOL    HW160002   4.455   2.462   7.468 -0.8585 -0.1247  0.0032
15981SOL    HW260003   4.524   2.377   7.347 -0.3820  0.7749 -0.3604
15982SOL     OW60004   5.965   2.438   8.380 -0.2670 -0.1692  0.2678
15982SOL    HW160005   5.984   2.530   8.413 -1.6207  0.3513 -0.3573
15982SOL    HW260006   6.043   2.405   8.327  0.7534  0.0983  1.5668
15983SOL     OW60007   3.288   8.044   0.149 -0.5389  0.0268 -0.1085
15983SOL    HW160008   3.226   8.049   0.227 -1.3984 -0.9707 -0.7127
15983SOL    HW260009   3.247   7.986   0.078  1.1421 -0.7634 -0.4569
15984SOL     OW60010   4.897   1.355   2.720  0.6983  0.1430  0.6271
15984SOL    HW160011   4.813   1.315   2.757  0.5036  0.3726  0.4398
15984SOL    HW260012   4.976   1.307   2.757  0.4874  0.0073  0.9050
15985SOL     OW60013   4.283   1.081   3.484  0.7270  0.6984 -0.4143
15985SOL    HW160014   4.209   1.021   3.514 -0.6456  1.3163 -2.4942
15985SOL    HW260015   4.371   1.034   3.497 -0.0503 -0.3476  1.3177
15986SOL     OW60016   5.947   7.889   4.558 -0.0068 -0.4132 -0.1374
15986SOL    HW160017   5.958   7.809   4.617 -0.3246  0.6588  1.4185
15986SOL    HW260018   5.965   7.972   4.611  1.9781  0.4832 -2.1425
15987SOL     OW60019   4.281   5.108   8.310  0.0246  0.4267  0.5743
15987SOL    HW160020   4.222   5.036   8.347  0.4199 -0.1887  0.0362
15987SOL    HW260021   4.249   5.132   8.218  0.9303 -0.2937  0.0649
15988SOL     OW60022   7.268   0.419   6.307  0.2689  0.8243  0.4100
15988SOL    HW160023   7.248   0.375   6.219  1.3973  1.6198 -0.2490
15988SOL    HW260024   7.182   0.435   6.356 -0.2180 -1.3381  0.2905
15989SOL     OW60025   4.306   0.936   6.617 -0.5531 -0.0398  0.7272
15989SOL    HW160026   4.247   0.855   6.627 -1.8491  0.8262  0.1674
15989SOL    HW260027   4.258   1.016   6.652  1.1996  0.3024  2.3926
15990SOL     OW60028   8.912   0.669   1.250  0.0930  0.0966  0.6523
15990SOL    HW160029   8.980   0.659   1.178  1.9537 -0.1458  2.3955
15990SOL    HW260030   8.828   0.707   1.212  0.9280 -0.3321 -1.6857
15991SOL     OW60031   4.799   1.449   3.015  0.2249 -0.3679  0.1617
15991SOL    HW160032   4.885   1.398   3.018  1.1494  1.0241 -1.3456
15991SOL    HW260033   4.810   1.535   3.066 -0.1472 -0.0213 -0.3382
15992SOL     OW60034   5.915   3.516   9.408 -0.0274 -0.0928 -0.2589
15992SOL    HW160035   5.862   3.531   9.492  1.1263 -2.1095  0.8893
15992SOL    HW260036   5.863   3.548   9.329 -1.5925  0.8685  1.1224
15993SOL     OW60037   2.309   8.954   9.864  0.3340 -0.1096  0.1992
15993SOL    HW160038   2.222   8.996   9.838  0.8764  0.6110 -0.4776
15993SOL    HW260039   2.379   9.025   9.872  1.2575 -0.8877 -0.9470
15994SOL     OW60040   9.470   5.306   0.971  0.2546  0.1634 -0.0445
15994SOL    HW160041   9.438   5.361   1.049  0.1676 -1.9157  1.4158
15994SOL    HW260042   9.401   5.308   0.899  0.7862  2.9778 -0.5581
15995SOL     OW60043   5.691   3.413   0.900 -0.1792 -0.4214 -0.2575
15995SOL    HW160044   5.684   3.399   0.999 -1.4587  0.7214 -0.1748
15995SOL    HW260045   5.603   3.394   0.857 -0.0924  0.7276 -0.9660
15996SOL     OW60046   3.311   3.350   6.957 -0.6599 -0.1864  0.2221
15996SOL    HW160047   3.377   3.282   6.925 -0.3250  1.4962 -2.8870
15996SOL    HW260048   3.255   3.310   7.030  0.9639 -3.0349  0.0045
15997SOL     OW60049   2.769   9.845   3.466  0.2144  0.4098  0.7022
15997SOL    HW160050   2.716   9.864   3.549  0.1276  2.6002  0.1888
15997SOL    HW260051   2.863   9.877   3.479  0.8333 -1.3529  0.7653
15998SOL     OW60052   8.649   3.798   1.485 -0.0306  0.0192 -0.6547
15998SOL    HW160053   8.738   3.755   1.468 -0.3768 -1.0928  0.3297
15998SOL    HW260054   8.586   3.731   1.524 -1.4082  0.7279 -1.6486
15999SOL     OW60055   7.702   3.336   3.166  0.4654 -0.2136 -0.5540
15999SOL    HW160056   7.722   3.374   3.076 -0.0513 -2.2332 -1.5494
15999SOL    HW260057   7.783   3.289   3.201  0.6620  0.5583  0.0325
16000SOL     OW60058   4.833   5.440   0.782  0.2020 -0.3792 -0.3159
16000SOL    HW160059   4.802   5.476   0.870  1.1234 -0.4405  0.0325
16000SOL    HW260060   4.859   5.344   0.793 -1.0189 -0.8041 -0.9661
16001SOL     OW60061   3.981   0.860   6.537 -0.3006 -0.6677  0.0241
16001SOL    HW160062   3.958   0.922   6.613  2.2840 -1.1244  1.2203
16001SOL    HW260063   4.030   0.780   6.573  1.6835 -0.4959 -2.2218
16002SOL     OW60064   5.713   8.108   1.717  0.4626  0.2601 -0.3084
16002SOL    HW160065   5.731   8.010   1.720 -1.4291 -0.0978 -0.2000
16002SOL    HW260066   5.635   8.126   1.657  1.2025  1.7647 -0.8482
16003SOL     OW60067   6.503   8.713   3.473 -0.3634 -0.2525  0.4522
16003SOL    HW160068   6.502   8.619   3.508 -3.0677 -0.6264 -0.4863
16003SOL    HW260069   6.433   8.767   3.521  0.8161  1.1608  0.6185
16004SOL     OW60070   3.360   7.822   6.505  0.1852 -0.6090  0.0549
16004SOL    HW160071   3.456   7.850   6.496  0.4695 -0.9762  1.8643
16004SOL    HW260072   3.311   7.888   6.562 -0.9037  0.1225 -1.6667
16005SOL     OW60073   5.749   6.780   8.611  0.2770  0.1112 -0.0685
16005SOL    HW160074   5.731   6.711   8.681  0.6592 -0.2944 -0.3673
16005SOL    HW260075   5.684   6.856   8.621 -0.3010 -0.4056  0.1086
16006SOL     OW60076   3.858   9.985   6.088 -0.0464  0.1174 -0.3605
16006SOL    HW160077   3.789  10.058   6.091 -1.8263 -1.5432 -0.2162
16006SOL    HW260078   3.888   9.964   6.181 -1.0616 -0.7648 -0.2327
16007SOL     OW60079   8.045   2.951   3.908  0.5819  0.8190 -0.3386
16007SOL    HW160080   8.117   2.909   3.964 -0.1276 -0.9736 -0.7205
16007SOL    HW260081   8.084   3.024   3.852  2.3503 -0.8902 -1.3993
16008SOL     OW60082   1.054   9.933   7.222  0.2385  0.4939 -0.3417
16008SOL    HW160083   1.035   9.886   7.309  0.1628  0.6766 -0.2587
16008SOL    HW260084   1.027   9.875   7.146  0.3308  0.3212 -0.2421
16009SOL     OW60085   3.550   0.787   8.531 -0.3516  0.7602  0.1402
16009SOL    HW160086   3.586   0.698   8.504  1.3366  1.0045  1.5677
16009SOL    HW260087   3.571   0.854   8.460  2.1798  0.9319  1.0050
16010SOL     OW60088   4.923   1.896   0.821 -0.3748  0.5718  0.1758
16010SOL    HW160089   4.973   1.893   0.908 -1.4968  0.1647  0.8124
16010SOL    HW260090   4.827   1.916   0.839 -0.9638 -1.2735 -0.8406
16011SOL     OW60091   5.676   8.981   1.465  0.0628  0.0595 -0.5204
16011SOL    HW160092   5.593   9.035   1.450 -0.4389 -0.3332  0.7640
16011SOL    HW260093   5.652   8.893   1.505  1.2681  0.8611  2.0605
16012SOL     OW60094   1.671   8.819   1.257  0.3170  0.5448  0.1338
16012SOL    HW160095   1.623   8.896   1.214  0.3410  1.2264  1.2875
16012SOL    HW260096   1.723   8.769   1.188 -0.0597  1.2979 -0.7095
16013SOL     OW60097   0.504   3.124   6.990 -0.6262 -0.3152 -0.2537
16013SOL    HW160098   0.456   3.095   7.073 -0.6739 -0.4044 -0.3118
16013SOL    HW260099   0.463   3.079   6.910  0.3237 -1.3451 -0.1790
16014SOL     OW60100   3.183   0.461   3.362 -0.2134  0.0906  0.3057
16014SOL    HW160101   3.199   0.483   3.458  0.4985  1.6396 -0.1596
16014SOL    HW260102   3.127   0.533   3.320 -1.7116 -1.2754 -0.1011
16015SOL     OW60103   4.175   4.170   5.985  0.2824  0.0595  0.1162
16015SOL    HW160104   4.213   4.236   5.921  0.5230  1.0725  1.2862
16015SOL    HW260105   4.099   4.121   5.942  2.0207 -1.0458 -1.7696
16016SOL     OW60106   9.120   9.945   6.331  0.1504  0.3129 -0.2893
16016SOL    HW160107   9.057   9.941   6.253 -0.6098  0.4377  0.3078
16016SOL    HW260108   9.169  10.032   6.331  1.6190 -0.5020 -1.7499
16017SOL     OW60109   3.404   3.066   8.959 -0.0875  0.2967 -0.7042
16017SOL    HW160110   3.325   3.032   9.011 -0.5489  1.0602 -0.9080
16017SOL    HW260111   3.465   2.989   8.940  0.2769  0.0540  1.2937
16018SOL     OW60112   8.167   7.630   5.969  0.0539  0.4877 -0.1591
16018SOL    HW160113   8.123   7.643   6.058 -1.0472  3.4287 -1.0993
16018SOL    HW260114   8.255   7.678   5.968 -0.3309  1.1859 -0.9331
16019SOL     OW60115   1.807   9.606   4.584 -0.0858  0.1039  0.1653
16019SOL    HW160116   1.881   9.554   4.627  0.0304 -0.2376 -0.4522
16019SOL    HW260117   1.809   9.700   4.619  0.0955 -0.1323  0.8026
16020SOL     OW60118   4.590   3.722   9.297 -0.3479  0.4962  0.0683
16020SOL    HW160119   4.516   3.677   9.346 -2.2653  1.3392 -1.9701
16020SOL    HW260120   4.615   3.806   9.344 -0.0432 -0.2434  1.2541
16021SOL     OW60121   0.723   2.281   9.698 -0.1118  0.1248 -0.2093
16021SOL    HW160122   0.789   2.207   9.686  0.6913  1.0784 -1.8400
16021SOL    HW260123   0.771   2.365   9.721 -0.8042  0.6824 -0.7798
16022SOL     OW60124   6.010   9.278   5.398  0.5085  0.1240  0.0579
16022SOL    HW160125   6.066   9.241   5.324 -0.2595 -0.8941 -0.0285
16022SOL    HW260126   5.913   9.259   5.379  0.4343 -2.0677  2.3601
16023SOL     OW60127   5.056   5.743   3.749 -0.1655 -0.0522 -0.3679
16023SOL    HW160128   5.116   5.813   3.710 -1.3001  1.9417  1.3326
16023SOL    HW260129   5.060   5.749   3.849  0.1447 -2.8202 -0.1933
16024SOL     OW60130   0.678   1.048   3.583 -0.0387  0.0850 -0.3180
16024SOL    HW160131   0.632   1.075   3.498 -0.6279 -0.7351 -0.2657
16024SOL    HW260132   0.611   1.039   3.656  0.6695  2.3204  0.6349
16025SOL     OW60133   4.682   7.800   8.734  0.5476  0.1437  0.9562
16025SOL    HW160134   4.698   7.728   8.666  0.0145  1.6923 -0.8639
16025SOL    HW260135   4.690   7.889   8.690 -0.5792  1.1801  2.7797
16026SOL     OW60136   3.301   1.635   1.075  0.3111 -0.1052 -0.1881
16026SOL    HW160137   3.267   1.543   1.059  0.1182  0.2252 -1.7974
16026SOL    HW260138   3.399   1.638   1.054  1.0917 -0.7244  3.0967
16027SOL     OW60139   7.628   2.943   7.723 -0.2122 -0.1820 -0.2028
16027SOL    HW160140   7.552   2.937   7.788 -1.5281 -0.6855 -1.7540
16027SOL    HW260141   7.618   2.872   7.653  2.3691 -1.0451  0.2669
16028SOL     OW60142   4.156   0.688   6.653  0.0991 -0.7174  0.4821
16028SOL    HW160143   4.240   0.637   6.636 -0.5974 -1.9555  0.7258
16028SOL    HW260144   4.080   0.625   6.668 -0.8768  0.3876  0.2999
16029SOL     OW60145   4.510   8.208   0.108  0.4939  0.1262  0.6638
16029SOL    HW160146   4.475   8.199   0.202 -1.3311  0.3304  0.0199
16029SOL    HW260147   4.486   8.126   0.056  0.7368  0.3915  0.1398
16030SOL     OW60148   2.888   8.392   9.134 -0.1223 -0.4856  0.3960
16030SOL    HW160149   2.857   8.378   9.039  1.7847 -1.9451 -0.0569
16030SOL    HW260150   2.821   8.353   9.197 -0.4322 -1.3313 -0.4458
16031SOL     OW60151   1.837   1.138   0.964  0.4611  0.0796  0.0098
16031SOL    HW160152   1.766   1.067   0.964 -0.8504  1.3195 -2.0957
16031SOL    HW260153   1.813   1.209   1.029 -0.1091  0.3535 -0.4914
16032SOL     OW60154   7.065   3.304   6.049  0.2049  0.0623 -0.6221
16032SOL    HW160155   7.037   3.400   6.052  2.3860  0.7159 -0.5875
16032SOL    HW260156   6.986   3.246   6.068 -1.8719  1.6980 -3.8576
16033SOL     OW60157   4.607   8.413   7.010 -0.1828 -0.1614  0.0403
16033SOL    HW160158   4.576   8.378   7.099  0.1041  0.0409  0.2229
16033SOL    HW260159   4.626   8.511   7.018 -0.9080  0.0227 -0.4493
16034SOL     OW60160   4.037   5.138   8.923  0.6717  0.1938  0.0001
16034SOL    HW160161   4.071   5.164   8.833 -1.3953  1.2017 -0.5316
16034SOL    HW260162   4.003   5.044   8.920 -0.4975  0.6173 -0.6352
16035SOL     OW60163   5.521   8.327   6.757 -0.2464 -0.4354 -0.4023
16035SOL    HW160164   5.512   8.400   6.690 -0.3547 -0.1972 -0.1305
16035SOL    HW260165   5.464   8.347   6.837  1.7055  0.5098  0.8166
16036SOL     OW60166   5.596   0.093   1.465  0.0099 -0.5305  0.1552
16036SOL    HW160167   5.555   0.013   1.420  0.0990 -0.2691 -0.3839
16036SOL    HW260168   5.581   0.174   1.409  1.4096 -0.4547 -0.1327
16037SOL     OW60169   1.710   8.033   5.895  0.2617  0.2111 -0.2748
16037SOL    HW160170   1.765   8.016   5.977 -0.8961 -0.4801  0.3737
16037SOL    HW260171   1.621   8.069   5.922 -0.4672 -0.8827 -1.1639
16038SOL     OW60172   3.814   7.480   7.937  0.5335 -0.8051 -0.6150
16038SOL    HW160173   3.731   7.514   7.981  1.5663  1.3867 -0.2682
16038SOL    HW260174   3.868   7.428   8.004  0.0825 -1.0988 -0.4777
16039SOL     OW60175   8.573   0.150   5.778 -0.1120 -0.2902 -0.2098
16039SOL    HW160176   8.610   0.241   5.796 -1.8359  0.3649  0.0829
16039SOL    HW260177   8.576   0.131   5.680 -0.9041  0.5928 -0.4119
16040SOL     OW60178   1.982   0.151   1.471 -0.3217 -0.7696  0.7404
16040SOL    HW160179   1.998   0.187   1.563 -1.1596  1.2309  0.1193
16040SOL    HW260180   1.931   0.065   1.478 -2.9317  0.8347  2.0586
16041SOL     OW60181   0.583   0.458   1.251  0.0634  0.1201  0.0679
16041SOL    HW160182   0.664   0.512   1.277  0.2620  0.4394 -1.1879
16041SOL    HW260183   0.544   0.416   1.333 -0.2042  2.3207  1.1081
16042SOL     OW60184   8.917   4.721   9.997 -0.0938 -0.4410 -0.2145
16042SOL    HW160185   8.954   4.672  10.076 -0.6321 -0.1161  0.2407
16042SOL    HW260186   8.857   4.660   9.945 -0.1913 -0.4803 -0.0546
16043SOL     OW60187   5.898   8.525   9.459  0.2818  0.0321 -0.0380
16043SOL    HW160188   5.880   8.605   9.402 -0.6980  0.6002  1.0545
16043SOL    HW260189   5.968   8.468   9.416 -0.4627  0.4339 -1.8145
16044SOL     OW60190   3.714   8.881   7.539  0.3751 -0.4567  0.2016
16044SOL    HW160191   3.687   8.900   7.633 -0.3863 -0.3723 -0.0308
16044SOL    HW260192   3.813   8.870   7.534  0.6328  1.3527  0.7152
16045SOL     OW60193   9.383   5.317   0.183  0.6941  0.3330 -0.1102
16045SOL    HW160194   9.361   5.315   0.280 -0.0730  1.3475 -0.2639
16045SOL    HW260195   9.319   5.376   0.135  1.7933  0.7796 -1.0555
16046SOL     OW60196   1.234   7.499   5.438  0.2188 -0.4740  0.0036
16046SOL    HW160197   1.221   7.408   5.479  0.8234 -0.5531  0.0355
16046SOL    HW260198   1.332   7.515   5.426  0.0611 -0.4466 -1.3851
16047SOL     OW60199   5.541   4.229   8.256 -0.0249 -0.1391  0.2985
16047SOL    HW160200   5.594   4.261   8.178  1.5048  1.9681  2.1529
16047SOL    HW260201   5.542   4.129   8.258  2.0709 -0.1688 -0.9324
16048SOL     OW60202   6.023   8.702   9.757  0.7393  0.5239  0.2244
16048SOL    HW160203   6.008   8.656   9.669  2.1306  0.9262 -0.2383
16048SOL    HW260204   5.947   8.764   9.775  1.3714  1.9192 -1.6712
16049SOL     OW60205   5.790   9.174   1.703  0.5947 -0.5876  0.1565
16049SOL    HW160206   5.782   9.140   1.609 -0.6031 -0.3059  0.1512
16049SOL    HW260207   5.737   9.115   1.764  1.1241 -0.5951  0.6092
16050SOL     OW60208   4.380   0.854   3.713  0.0743  0.1343 -0.0860
16050SOL    HW160209   4.307   0.873   3.779  1.0238  1.9599  0.5028
16050SOL    HW260210   4.462   0.824   3.762  0.0488 -0.8831 -0.6534
16051SOL     OW60211   6.506   8.961   8.522 -0.1367 -0.7287  0.5152
16051SOL    HW160212   6.515   9.057   8.549 -0.3255 -1.0619  1.7886
16051SOL    HW260213   6.597   8.923   8.508 -0.0192 -0.6593  1.0753
16052SOL     OW60214   6.881   7.251   2.696 -0.0517 -0.0356 -0.1598
16052SOL    HW160215   6.835   7.239   2.608 -0.1841  0.9167 -0.2240
16052SOL    HW260216   6.816   7.286   2.763  0.5066  1.0016 -0.1632
16053SOL     OW60217   1.168   9.454   1.069 -0.6997  0.7964 -0.2030
16053SOL    HW160218   1.263   9.481   1.055 -0.4724  0.0953 -0.0208
16053SOL    HW260219   1.151   9.439   1.166 -0.5882 -0.5488 -0.3781
16054SOL     OW60220   7.093   6.819   2.554  0.4027  0.3454 -0.0142
16054SOL    HW160221   7.079   6.887   2.483  1.2772 -1.9551 -2.5010
16054SOL    HW260222   7.182   6.775   2.540 -0.4365 -1.7607  1.0813
16055SOL     OW60223   5.598   8.723   4.653 -0.4920 -0.2070  0.3089
16055SOL    HW160224   5.513   8.671   4.662 -0.8203  0.0851 -1.0674
16055SOL    HW260225   5.675   8.666   4.683 -1.1876 -0.3689  1.8501
16056SOL     OW60226   8.732   3.280   4.562 -0.7882 -0.0719 -0.1456
16056SOL    HW160227   8.688   3.369   4.571 -0.9801 -0.2999  1.2501
16056SOL    HW260228   8.814   3.290   4.505 -0.5089  1.1140  0.4246
16057SOL     OW60229   8.200   8.096   6.128 -0.0256  0.8813 -0.5436
16057SOL    HW160230   8.116   8.071   6.080  0.0324  1.7736 -1.1333
16057SOL    HW260231   8.206   8.046   6.214 -2.2626  2.4041  0.5633
16058SOL     OW60232   2.781   0.730   0.556  0.0689 -0.1252 -0.1170
16058SOL    HW160233   2.865   0.780   0.536  0.2175 -1.0793 -2.0050
16058SOL    HW260234   2.734   0.709   0.470 -2.7422  1.4776  0.9757
16059SOL     OW60235   1.466   1.651   0.924 -0.0147  0.1812 -0.1448
16059SOL    HW160236   1.558   1.621   0.951  0.0132 -0.3099 -0.7686
16059SOL    HW260237   1.400   1.626   0.994  0.2409  0.0228  0.0394
16060SOL     OW60238   1.067   0.863   0.036  0.0169 -0.3726 -0.1094
16060SOL    HW160239   1.111   0.953   0.034  0.6040 -0.6867 -2.1503
16060SOL    HW260240   1.135   0.793   0.061  0.1095 -0.5517 -0.8629
16061SOL     OW60241   5.256   6.331   8.038  0.1020  0.8517 -0.6092
16061SOL    HW160242   5.355   6.344   8.043  0.2766 -0.3982 -0.8873
16061SOL    HW260243   5.213   6.383   8.112  1.0487  0.4093  0.2704
16062SOL     OW60244   3.212   6.688   1.973 -0.1712  0.4228  0.5179
16062SOL    HW160245   3.193   6.590   1.976  0.2016  0.2807 -1.5684
16062SOL    HW260246   3.220   6.722   2.067  0.1324 -1.6143  1.2698
16063SOL     OW60247   5.154   7.524   1.834 -0.4535  0.5735  0.4986
16063SOL    HW160248   5.134   7.555   1.927 -0.9510  1.2732  0.1600
16063SOL    HW260249   5.087   7.455   1.807  0.4503 -0.5760  1.1246
16064SOL     OW60250   2.543   0.183   9.323  0.1993  0.0328  0.3599
16064SOL    HW160251   2.539   0.231   9.235 -0.5935 -0.0267  0.3632
16064SOL    HW260252   2.623   0.123   9.325 -0.7362 -1.2935 -0.9995
16065SOL     OW60253   8.977   0.120   7.539  0.0099  0.2278 -0.4713
16065SOL    HW160254   8.961   0.045   7.475  0.8440 -0.5615  0.2273
16065SOL    HW260255   8.890   0.163   7.563 -0.7336 -1.8948  0.7697
16066SOL     OW60256   2.273   1.249   9.483  0.0259  0.2545 -0.0922
16066SOL    HW160257   2.335   1.204   9.547 -0.8345 -0.2269  0.4046
16066SOL    HW260258   2.246   1.184   9.412 -0.5987  0.2083  0.1837
16067SOL     OW60259   1.679   6.425   9.754  0.0691 -0.4148  0.0831
16067SOL    HW160260   1.673   6.393   9.848  1.8622  2.9607  1.4527
16067SOL    HW260261   1.761   6.386   9.711 -0.7327 -1.9309 -0.1065
16068SOL     OW60262   4.320   0.691   1.331  0.5494 -0.6568  0.4448
16068SOL    HW160263   4.404   0.676   1.384  0.5734 -0.8839  0.3429
16068SOL    HW260264   4.258   0.749   1.384  0.4691 -1.0849  0.8281
16069SOL     OW60265   3.401   2.157   9.256  0.6854  0.1518 -0.2084
16069SOL    HW160266   3.405   2.188   9.351  0.8104  1.7574 -0.7172
16069SOL    HW260267   3.342   2.076   9.249 -0.5679  0.9478  1.0094
16070SOL     OW60268   7.555   3.406   9.477 -0.3810  0.0071  0.1035
16070SOL    HW160269   7.489   3.448   9.415  0.9632  0.7597 -0.8322
16070SOL    HW260270   7.598   3.328   9.433 -0.1979 -0.1105  0.4847
16071SOL     OW60271   0.603   5.277   0.858 -0.0747 -0.3751  0.0197
16071SOL    HW160272   0.691   5.324   0.865 -1.1177  1.7901 -1.1133
16071SOL    HW260273   0.605   5.216   0.778  0.1236  0.3019 -0.4994
16072SOL     OW60274   3.153   8.144   1.777 -0.1535  0.3327  0.1912
16072SOL    HW160275   3.074   8.133   1.838 -1.0332 -0.5835 -1.0807
16072SOL    HW260276   3.122   8.168   1.686  1.1268  1.1714 -0.0379
16073SOL     OW60277   0.243   8.397   0.522  0.2500 -0.0935  0.2905
16073SOL    HW160278   0.199   8.387   0.612 -2.5774 -1.3125 -1.1657
16073SOL    HW260279   0.210   8.480   0.479 -0.0199 -0.6034 -0.4899
16074SOL     OW60280   4.026   8.464   3.186 -0.7210 -0.5255 -1.0604
16074SOL    HW160281   4.062   8.466   3.093 -2.9550 -0.4478 -1.9541
16074SOL    HW260282   4.002   8.370   3.210 -0.6544 -0.4624 -0.7426
16075SOL     OW60283   2.506   6.172   7.897  0.2026 -0.5608  0.3786
16075SOL    HW160284   2.571   6.179   7.822 -1.4744 -0.2464 -1.0859
16075SOL    HW260285   2.437   6.103   7.874 -2.5040  2.1662 -0.1204
16076SOL     OW60286   8.324   1.156   0.550 -0.8389 -0.0949 -0.0055
16076SOL    HW160287   8.239   1.142   0.600 -0.6554 -1.5169 -0.0813
16076SOL    HW260288   8.311   1.133   0.454 -0.7251  0.9797 -0.2850
16077SOL     OW60289   0.090   6.186   7.748 -0.3385  0.1109 -0.3616
16077SOL    HW160290   0.076   6.204   7.651 -1.6456  1.8634  0.1352
16077SOL    HW260291   0.005   6.201   7.798  0.4421 -0.2905  1.1382
16078SOL     OW60292   2.437   1.235   8.616 -0.1505 -0.5047 -0.0437
16078SOL    HW160293   2.512   1.229   8.681  0.7054  0.1328 -0.9543
16078SOL    HW260294   2.449   1.165   8.545  2.1336  2.4559 -2.7521
16079SOL     OW60295   7.233   4.966   9.347 -0.0602  0.4243 -0.5474
16079SOL    HW160296   7.228   4.867   9.361  4.4190  0.2760  0.8582
16079SOL    HW260297   7.253   4.985   9.251 -2.0956  0.0514 -1.0606
16080SOL     OW60298   0.661   9.051   6.429  1.1154 -0.3434  0.0609
16080SOL    HW160299   0.611   9.123   6.382  1.0336 -0.3980  0.0655
16080SOL    HW260300   0.746   9.031   6.379  1.3088 -0.0010  0.2460
16081SOL     OW60301   8.999   1.050   3.971 -0.2514  0.1991 -0.1552
16081SOL    HW160302   9.001   1.083   4.065  0.6236 -0.5079  0.0793
16081SOL    HW260303   9.050   1.114   3.912 -0.2117  0.2817 -0.0308
16082SOL     OW60304   7.438   7.120   6.723  0.0452 -0.2103 -0.1108
16082SOL    HW160305   7.399   7.169   6.645  0.8284  0.4885 -0.0754
16082SOL    HW260306   7.459   7.026   6.697  1.5412  0.3990 -1.1476
16083SOL     OW60307   2.104   7.923   0.269 -0.4395  0.5064  0.7326
16083SOL    HW160308   2.022   7.960   0.225 -0.3728  0.8388  0.8803
16083SOL    HW260309   2.175   7.994   0.272  0.8135 -0.5902 -1.8182
16084SOL     OW60310   7.944   0.744   9.532  0.2902 -0.4722 -0.2480
16084SOL    HW160311   7.883   0.702   9.465  1.2712 -1.8874 -0.2592
16084SOL    HW260312   7.915   0.717   9.624  1.0197 -1.3039 -0.2625
16085SOL     OW60313   5.155   5.707   3.012 -0.5781  0.1425 -0.3831
16085SOL    HW160314   5.248   5.682   2.982 -1.1388 -2.0166 -0.3795
16085SOL    HW260315   5.129   5.794   2.969  1.7124  1.1640  0.1919
16086SOL     OW60316   7.008   3.205   1.670 -0.6085  0.5912 -0.3199
16086SOL    HW160317   6.953   3.126   1.696 -0.8899  0.0021 -2.5492
16086SOL    HW260318   7.090   3.209   1.726 -0.3872 -1.5611 -0.4618
16087SOL     OW60319   2.525   2.674   4.497 -0.0065 -0.0357  0.4451
16087SOL    HW160320   2.437   2.637   4.467  0.2467 -1.6475  1.6074
16087SOL    HW260321   2.597   2.609   4.476  1.0532  1.6334 -1.2293
16088SOL     OW60322   4.707   1.231   1.368 -0.1613  0.1239  0.1013
16088SOL    HW160323   4.674   1.147   1.412  0.5071 -1.1806 -1.8332
16088SOL    HW260324   4.806   1.223   1.352  0.1510  1.8272  1.0451
16089SOL     OW60325   7.880   9.173   6.575 -0.4568 -0.1809  0.3976
16089SOL    HW160326   7.802   9.167   6.512  0.1474  0.7785 -0.4592
16089SOL    HW260327   7.850   9.150   6.667 -1.8537  0.5682  0.1474
16090SOL     OW60328   6.629   9.860   2.582  0.3986  0.8840 -0.1096
16090SOL    HW160329   6.555   9.793   2.589  2.8094 -1.7633  0.9722
16090SOL    HW260330   6.647   9.898   2.673 -0.3404  2.3677 -0.5659
16091SOL     OW60331   2.256   3.033   2.733 -0.2842  0.1579  0.1124
16091SOL    HW160332   2.201   3.075   2.660 -0.1881  2.2885  1.2304
16091SOL    HW260333   2.353   3.039   2.709 -0.2615  0.7120  0.3497
16092SOL     OW60334   5.385   1.150   4.388  0.1882  0.2019  0.7249
16092SOL    HW160335   5.378   1.237   4.436 -1.0327  0.3579  0.2697
16092SOL    HW260336   5.475   1.109   4.406  0.3621  1.0430  1.7919
16093SOL     OW60337   7.687   8.796   2.441 -0.2932  0.3926  0.4606
16093SOL    HW160338   7.686   8.718   2.379  2.2067  0.9600 -0.3467
16093SOL    HW260339   7.638   8.873   2.400 -0.3415  0.1454  0.0566
16094SOL     OW60340   7.597   4.444   1.909 -0.0144 -0.4514  0.0459
16094SOL    HW160341   7.644   4.530   1.888 -1.8560  0.9796  1.6759
16094SOL    HW260342   7.607   4.423   2.006 -1.6610 -0.7749  0.1600
16095SOL     OW60343   9.364   2.299   1.342 -0.0453 -0.3621 -0.2960
16095SOL    HW160344   9.335   2.384   1.298  0.2148  0.1048  0.4448
16095SOL    HW260345   9.286   2.259   1.390 -0.2736 -0.7630 -0.9829
16096SOL     OW60346   3.739   7.804   1.772  0.3231  0.0152 -0.0826
16096SOL    HW160347   3.824   7.754   1.752 -0.3755  0.1542 -3.5900
16096SOL    HW260348   3.751   7.901   1.752 -0.9410 -0.1108 -1.5087
16097SOL     OW60349   3.464   2.296   0.556 -0.3162 -0.2664 -0.4871
16097SOL    HW160350   3.435   2.217   0.502 -3.3045  0.9145 -0.7493
16097SOL    HW260351   3.386   2.332   0.607  1.4299  1.3597  1.1378
16098SOL     OW60352   4.660   9.591   3.338  0.4307  0.0981  0.2767
16098SOL    HW160353   4.714   9.509   3.319 -1.4616 -0.8400 -1.2469
16098SOL    HW260354   4.596   9.572   3.412  1.8674  1.0820  1.8008
16099SOL     OW60355   3.787   6.585   7.403 -0.6568 -0.0381  0.3537
16099SOL    HW160356   3.828   6.675   7.394 -1.6420  0.5199  1.2675
16099SOL    HW260357   3.768   6.566   7.499 -0.1705 -1.3528  0.1998
16100SOL     OW60358   6.378   6.431   7.784 -0.2088  0.2563  0.8076
16100SOL    HW160359   6.418   6.501   7.724 -0.5911  0.2831  0.5875
16100SOL    HW260360   6.320   6.475   7.853 -1.5269  0.0528 -0.1644
16101SOL     OW60361   7.519   9.230   9.731  0.6466 -0.1893 -0.0247
16101SOL    HW160362   7.524   9.131   9.746  0.5118 -0.3473 -1.0034
16101SOL    HW260363   7.611   9.269   9.732  0.7002 -0.3271  0.3532
16102SOL     OW60364   3.042   0.153   1.953  0.1652 -0.0735 -0.6438
16102SOL    HW160365   3.063   0.248   1.978 -0.2931 -0.2828  0.5700
16102SOL    HW260366   3.119   0.115   1.902  1.1544  0.3615  0.4813
16103SOL     OW60367   4.545   2.672   7.099 -0.5457 -0.0755 -0.6166
16103SOL    HW160368   4.523   2.600   7.032 -1.4196  1.0873 -1.5985
16103SOL    HW260369   4.489   2.753   7.081 -0.1789  0.5602  1.0149
16104SOL     OW60370   8.038   3.601   6.161  0.4692  0.0880 -0.3692
16104SOL    HW160371   8.138   3.609   6.151  0.3691  1.2178 -0.4426
16104SOL    HW260372   8.012   3.505   6.151  1.5178 -0.1739 -0.6667
16105SOL     OW60373   0.951   8.403   1.970  0.0226 -0.1323 -0.2708
16105SOL    HW160374   0.894   8.337   2.018  0.3385  0.3619  0.8273
16105SOL    HW260375   0.960   8.485   2.026 -0.1778  0.7486 -1.5170
16106SOL     OW60376   6.417   5.842   6.877 -0.5733  0.4722  0.2131
16106SOL    HW160377   6.492   5.852   6.812  1.9305  3.7054  3.3204
16106SOL    HW260378   6.403   5.746   6.898  1.6854 -0.2886 -1.5799
16107SOL     OW60379   6.872   4.141   3.057  0.2033 -0.2443  0.1525
16107SOL    HW160380   6.829   4.061   3.099 -0.2221 -0.8645 -1.4495
16107SOL    HW260381   6.830   4.160   2.969 -0.2663  2.2787  0.8898
16108SOL     OW60382   7.418   6.125   0.809  0.3312 -0.1529  0.1363
16108SOL    HW160383   7.366   6.175   0.740 -1.7543 -1.7197  0.5027
16108SOL    HW260384   7.451   6.039   0.770  0.0087 -0.5754  0.7735
16109SOL     OW60385   4.873   9.532   9.876 -0.4951  0.6050  0.2875
16109SOL    HW160386   4.944   9.589   9.918  0.3775 -1.1114  1.2072
16109SOL    HW260387   4.843   9.573   9.790  1.5966  1.3768 -0.0925
16110SOL     OW60388   5.864   9.762   2.000  0.2487  0.0255 -0.0260
16110SOL    HW160389   5.938   9.806   1.950  0.1252  2.5097  1.8842
16110SOL    HW260390   5.784   9.753   1.941  1.2946 -0.5358 -1.3788
16111SOL     OW60391   7.168   0.615   6.968  0.2794  0.2703  0.6048
16111SOL    HW160392   7.261   0.591   6.941  0.7473  0.9264  1.6108
16111SOL    HW260393   7.103   0.558   6.917  1.1673  0.6638 -1.0256
16112SOL     OW60394   2.851   4.639   8.315 -0.2803 -0.8683 -0.1046
16112SOL    HW160395   2.872   4.681   8.227  0.4739 -1.8902 -0.4252
16112SOL    HW260396   2.934   4.596   8.352 -0.6306 -0.5824  1.0312
16113SOL     OW60397   2.831   3.176   0.421  0.0941  0.2434 -0.1957
16113SOL    HW160398   2.818   3.082   0.453 -2.1495  0.8981  0.8978
16113SOL    HW260399   2.929   3.197   0.420  0.6993 -2.4290 -1.4529
16114SOL     OW60400   8.077   9.179   3.810  0.4970  0.3386 -0.0161
16114SOL    HW160401   8.092   9.160   3.907  1.5183  0.1929 -0.1962
16114SOL    HW260402   8.161   9.214   3.770  0.7141 -1.5714 -1.3201
16115SOL     OW60403   5.457   0.422   1.584  0.3119  0.1814 -0.2677
16115SOL    HW160404   5.367   0.417   1.542  0.2354  0.5453 -0.1463
16115SOL    HW260405   5.454   0.376   1.673  0.8561 -1.9412 -1.3116
16116SOL     OW60406   6.427   8.247   0.958  0.2734  0.4867  0.3039
16116SOL    HW160407   6.430   8.346   0.969 -0.5834  0.6006 -0.4214
16116SOL    HW260408   6.407   8.203   1.045  1.2635  0.9115  0.7545
16117SOL     OW60409   2.181   5.331   0.416  0.4832  0.4154 -0.0874
16117SOL    HW160410   2.097   5.283   0.440 -0.2002  1.6921  0.0973
16117SOL    HW260411   2.245   5.326   0.493  0.2132  0.2657  0.1307
16118SOL     OW60412   4.628   8.988   5.642 -0.1584  0.1046  0.2780
16118SOL    HW160413   4.571   9.042   5.581 -0.9700 -0.0796  0.8669
16118SOL    HW260414   4.583   8.979   5.731  0.5668 -0.4433  0.5974
16119SOL     OW60415   5.336   0.521   9.095 -0.2859 -0.1684  0.3827
16119SOL    HW160416   5.344   0.483   9.003  0.8185  1.6136 -0.2858
16119SOL    HW260417   5.338   0.447   9.162  0.7195 -1.3501 -0.9290
16120SOL     OW60418   5.001   3.642   0.233  0.3002  0.1450  0.2925
16120SOL    HW160419   4.911   3.604   0.212  0.2728 -1.3420  2.8366
16120SOL    HW260420   5.071   3.573   0.215  0.8833  1.0621 -1.0165
16121SOL     OW60421   2.520   2.571   6.681 -0.0882  0.1594 -0.0860
16121SOL    HW160422   2.473   2.629   6.614 -1.4528 -0.1099  0.6119
16121SOL    HW260423   2.465   2.488   6.696  1.2039 -0.7079 -0.1142
16122SOL     OW60424   1.909   4.692   5.992  0.0011 -0.2607 -0.1266
16122SOL    HW160425   1.813   4.715   5.984 -0.4398 -1.4355  1.3463
16122SOL    HW260426   1.934   4.684   6.089  1.1571 -1.5669 -0.4933
16123SOL     OW60427   5.990   4.951   5.658  0.2329  0.3530  0.0955
16123SOL    HW160428   5.947   4.924   5.572 -0.8725 -0.7007  0.9794
16123SOL    HW260429   5.948   5.035   5.692 -1.9222 -1.2711  1.5248
16124SOL     OW60430   6.459   0.807   0.265 -0.0635 -0.4436 -0.0529
16124SOL    HW160431   6.364   0.819   0.293  0.9583  0.1317  3.5058
16124SOL    HW260432   6.497   0.896   0.238 -0.1841 -0.4356 -0.1937
16125SOL     OW60433   8.565   1.190   2.807  0.5983  0.0055  0.4760
16125SOL    HW160434   8.585   1.142   2.722  0.1491 -0.5268  0.6620
16125SOL    HW260435   8.642   1.248   2.832  0.3861  0.8474 -0.7540
16126SOL     OW60436   4.530   0.672   1.499  0.1961  0.4758  0.4535
16126SOL    HW160437   4.489   0.677   1.590 -0.4406  1.1620  0.1355
16126SOL    HW260438   4.565   0.762   1.473  0.4132  0.2727  0.0315
16127SOL     OW60439   0.840   9.912   4.013 -0.3019  0.2571 -0.2761
16127SOL    HW160440   0.816   9.992   3.958 -1.1166  0.1825 -0.0337
16127SOL    HW260441   0.913   9.937   4.076  0.3258  0.4685 -1.0632
16128SOL     OW60442   6.511   3.117   3.886  0.4962  0.4086  0.2534
16128SOL    HW160443   6.540   3.212   3.875  1.7660 -0.1544 -1.5161
16128SOL    HW260444   6.578   3.057   3.843 -1.3857 -1.1705 -0.5277
16129SOL     OW60445   7.253   1.880   9.547  0.4970 -0.2371 -0.2069
16129SOL    HW160446   7.295   1.883   9.638 -0.7398 -0.0309  0.3813
16129SOL    HW260447   7.278   1.795   9.502 -0.3089 -1.1701  1.0543
16130SOL     OW60448   5.008   0.238   0.856  0.1022 -0.0095 -0.1585
16130SOL    HW160449   5.077   0.299   0.816 -0.1974  0.6811  0.3635
16130SOL    HW260450   4.918   0.280   0.849 -0.1056 -0.3836  0.2309
16131SOL     OW60451   5.287   8.151   0.630  0.4920 -0.1288  0.2042
16131SOL    HW160452   5.269   8.108   0.542 -1.3542 -0.3594  0.6728
16131SOL    HW260453   5.350   8.094   0.683 -1.1622 -1.7893  0.4254
16132SOL     OW60454   1.854   4.774   0.647 -0.4689 -0.0825  0.2852
16132SOL    HW160455   1.886   4.732   0.563  0.6122  0.3110  0.4916
16132SOL    HW260456   1.933   4.799   0.704 -1.1627  0.3223  1.0790
16133SOL     OW60457   4.382   0.449   9.435  0.0156 -0.2858 -0.6815
16133SOL    HW160458   4.378   0.469   9.533 -0.2105 -1.0588 -0.5251
16133SOL    HW260459   4.449   0.509   9.391 -1.2671  1.3928 -0.3939
16134SOL     OW60460   7.000   8.301   0.778 -0.0465  0.0119  0.0159
16134SOL    HW160461   6.926   8.317   0.844 -0.6929 -2.7227  0.0172
16134SOL    HW260462   7.088   8.302   0.826 -0.5474 -2.3894  1.0280
16135SOL     OW60463   7.626   1.029   1.537 -0.1023  0.3735  0.0614
16135SOL    HW160464   7.533   1.052   1.507  0.4542  2.1981 -0.3679
16135SOL    HW260465   7.688   1.034   1.458  0.4603 -0.2425  0.4594
16136SOL     OW60466   6.351   0.560   2.133 -0.3902  0.4087 -0.2078
16136SOL    HW160467   6.360   0.545   2.035  0.0577 -0.7785  0.0160
16136SOL    HW260468   6.380   0.654   2.155 -0.1365  0.5528 -1.1519
16137SOL     OW60469   6.308   1.107   1.773 -0.2259  0.1047  0.0726
16137SOL    HW160470   6.280   1.112   1.868  1.3155 -3.9487  0.8449
16137SOL    HW260471   6.228   1.090   1.715 -1.1033  2.1826  0.6173
16138SOL     OW60472   0.530   8.429   7.073  0.2138 -0.5190  0.1906
16138SOL    HW160473   0.498   8.349   7.123 -0.2078 -0.5177 -0.0712
16138SOL    HW260474   0.555   8.402   6.980  1.1860 -0.5609  0.4573
16139SOL     OW60475   2.706   8.079   2.719 -0.3292 -0.7622 -0.0704
16139SOL    HW160476   2.691   8.116   2.627 -1.0210 -1.3402 -0.1940
16139SOL    HW260477   2.735   7.983   2.711  0.5583 -0.5321  0.2821
16140SOL     OW60478   7.064   2.092   2.283  0.7183  0.2953 -0.4404
16140SOL    HW160479   7.152   2.135   2.305  1.3621 -0.5337 -1.3647
16140SOL    HW260480   7.035   2.120   2.192  0.2932  0.1212 -0.3606
16141SOL     OW60481   3.426   8.284   2.095 -0.2468 -0.6157  0.3532
16141SOL    HW160482   3.518   8.245   2.099 -0.7551 -1.8588 -0.0349
16141SOL    HW260483   3.364   8.231   2.153 -0.3381  1.3523  2.1459
16142SOL     OW60484   1.813   0.469   2.113 -0.0218  0.5356 -0.0095
16142SOL    HW160485   1.863   0.531   2.053 -1.8668  1.2500 -0.8379
16142SOL    HW260486   1.734   0.516   2.152 -0.3126 -0.7008  0.9290
16143SOL     OW60487   7.847   1.861   9.905  0.0023 -0.2748 -0.3205
16143SOL    HW160488   7.881   1.824   9.818  1.3400 -1.9241  0.8808
16143SOL    HW260489   7.925   1.886   9.963 -0.8768  1.8613  0.0023
16144SOL     OW60490   4.859   2.911   9.368  0.7158 -0.0217  0.4537
16144SOL    HW160491   4.809   2.959   9.297 -0.3944  0.4611  1.5378
16144SOL    HW260492   4.834   2.814   9.367 -1.2977  0.4621  1.8609
16145SOL     OW60493   3.681   2.892   5.164 -0.8819 -0.5874  0.1144
16145SOL    HW160494   3.700   2.890   5.262  0.3547  1.3704 -0.0678
16145SOL    HW260495   3.727   2.816   5.120  0.8026  0.0806  0.6835
16146SOL     OW60496   6.233   7.039   7.171 -0.1669  0.4069 -0.6168
16146SOL    HW160497   6.198   7.110   7.109  0.4990  0.7107 -0.6471
16146SOL    HW260498   6.192   7.052   7.262 -0.1925  0.7134 -0.6699
16147SOL     OW60499   6.232   8.566   9.875 -0.2390 -0.1946  0.5372
16147SOL    HW160500   6.165   8.622   9.826  0.5262  0.6820  0.4615
16147SOL    HW260501   6.213   8.469   9.859 -0.3078  0.0663 -1.0937
16148SOL     OW60502   4.204   8.399   9.822  0.5287  0.0677  0.0077
16148SOL    HW160503   4.289   8.438   9.856  1.7049 -1.3677 -1.1489
16148SOL    HW260504   4.197   8.303   9.852  0.0153 -0.2380 -1.0548
16149SOL     OW60505   7.881   2.755   6.723  0.0067 -0.3506 -0.1496
16149SOL    HW160506   7.845   2.847   6.704  2.4545  0.5647 -0.5317
16149SOL    HW260507   7.919   2.716   6.639  0.8137 -0.8744  0.4544
16150SOL     OW60508   5.602   0.924   2.981 -0.1502  0.4815 -0.0095
16150SOL    HW160509   5.626   0.907   3.077 -1.0993 -1.4931 -0.0859
16150SOL    HW260510   5.651   1.004   2.948  1.0997  0.4910  1.7843
16151SOL     OW60511   6.638   9.743   8.691 -0.4212  0.0046  0.3397
16151SOL    HW160512   6.691   9.807   8.635  1.4862  0.4339  2.5447
16151SOL    HW260513   6.578   9.795   8.753  1.6634 -0.2341  2.6515
16152SOL     OW60514   5.549   6.740   6.756  0.0845  0.0930 -0.3683
16152SOL    HW160515   5.583   6.833   6.745 -1.2598  0.3396 -2.7197
16152SOL    HW260516   5.572   6.707   6.848  0.0041  2.9554  0.7326
16153SOL     OW60517   0.539   2.582   0.196 -0.1003 -0.9061  0.3305
16153SOL    HW160518   0.553   2.611   0.291 -1.5777  1.8262 -0.2349
16153SOL    HW260519   0.445   2.602   0.169  0.3768 -1.4543 -1.8062
16154SOL     OW60520   0.863   1.657   9.181  0.0009  0.4574 -0.1029
16154SOL    HW160521   0.780   1.679   9.232  0.7614  0.0725  1.3563
16154SOL    HW260522   0.914   1.741   9.163 -0.0854  0.5599  0.1245
16155SOL     OW60523   0.650   3.222   9.593 -0.3201  0.4561  0.1686
16155SOL    HW160524   0.670   3.231   9.495  0.3512 -2.0075  0.0532
16155SOL    HW260525   0.696   3.141   9.629 -2.0861  0.2813  2.1069
16156SOL     OW60526   2.768   3.205   9.477  0.0664 -0.5685 -0.4072
16156SOL    HW160527   2.792   3.158   9.563  2.8518  1.2736 -0.0985
16156SOL    HW260528   2.748   3.301   9.497 -1.4446 -0.6430 -1.5604
16157SOL     OW60529   1.531   9.438   3.014  0.1010 -0.1019  0.8255
16157SOL    HW160530   1.487   9.482   3.092  2.1494 -1.5910  2.8723
16157SOL    HW260531   1.609   9.493   2.984 -1.4285  1.1173 -1.0324
16158SOL     OW60532   7.700   9.006   8.760  0.3958 -0.1746  0.0413
16158SOL    HW160533   7.686   8.914   8.723  1.3315 -0.0461 -0.6402
16158SOL    HW260534   7.797   9.017   8.786  0.2658  0.5781  0.2223
16159SOL     OW60535   5.476   2.114   1.294 -0.0434 -0.3515 -0.4486
16159SOL    HW160536   5.420   2.177   1.347 -1.9424 -1.2180 -1.3488
16159SOL    HW260537   5.563   2.157   1.271 -0.8498  1.5128 -0.1129
16160SOL     OW60538   6.916   5.700   1.613 -0.2085  0.1789 -0.0249
16160SOL    HW160539   7.006   5.699   1.657  0.1621  0.1326 -0.7692
16160SOL    HW260540   6.898   5.611   1.572 -0.0093  0.5927 -1.0352
16161SOL     OW60541   7.637   1.135   9.407 -0.3171 -0.0055  0.1408
16161SOL    HW160542   7.675   1.207   9.349 -2.5893  1.0190 -0.1323
16161SOL    HW260543   7.709   1.097   9.465  1.3045  1.1621 -1.0781
16162SOL     OW60544   0.216   9.996   3.949  0.7097  0.2479  0.2274
16162SOL    HW160545   0.119   9.977   3.940  0.6451  0.3448  0.6977
16162SOL    HW260546   0.249  10.041   3.866  0.3969  0.0399 -0.0099
16163SOL     OW60547   7.066   0.652   7.242 -0.0295 -0.0273 -0.2950
16163SOL    HW160548   7.095   0.557   7.248 -0.9574 -0.4024 -1.4786
16163SOL    HW260549   7.082   0.685   7.149 -1.3639  0.4180 -0.3788
16164SOL     OW60550   6.216   1.838   8.393  0.0670  0.2586 -0.5891
16164SOL    HW160551   6.155   1.853   8.470 -0.0552  0.5240 -0.7359
16164SOL    HW260552   6.197   1.749   8.351  1.4942 -0.7965  0.9348
16165SOL     OW60553   6.028   9.902   9.193  0.0364  0.0308 -0.2672
16165SOL    HW160554   6.124   9.891   9.168 -0.4753  0.5493 -2.6000
16165SOL    HW260555   6.021   9.956   9.278  1.8332 -1.5585  0.9180
16166SOL     OW60556   7.569   3.391   7.297 -0.0683  0.1829  0.3998
16166SOL    HW160557   7.630   3.318   7.326  0.9919  1.5242  1.6217
16166SOL    HW260558   7.563   3.392   7.197  0.6912 -0.9139  0.3384
16167SOL     OW60559   6.845   6.438   1.654 -0.0859 -0.6338  0.1289
16167SOL    HW160560   6.885   6.408   1.568  1.6845  0.8008  0.4120
16167SOL    HW260561   6.832   6.360   1.715 -1.5429 -1.6870 -1.4820
16168SOL     OW60562   6.840   0.647   1.944  0.0112 -0.4891 -0.3154
16168SOL    HW160563   6.922   0.598   1.916 -1.0517 -1.9046 -1.0179
16168SOL    HW260564   6.780   0.659   1.865 -1.1964 -0.9128  0.5213
16169SOL     OW60565   3.245   1.867   4.354 -0.1733  0.2532 -0.4384
16169SOL    HW160566   3.189   1.802   4.405 -1.1998  0.6576 -1.0206
16169SOL    HW260567   3.248   1.954   4.404  1.2842 -0.2653  0.3912
16170SOL     OW60568   5.080   8.956   7.793 -0.3367 -0.0504  0.0794
16170SOL    HW160569   5.176   8.948   7.765 -0.4788 -0.2171 -0.3703
16170SOL    HW260570   5.024   8.980   7.714 -0.7143 -0.2880  0.2693
16171SOL     OW60571   9.375   5.782   8.682 -0.3541  0.4284  0.0268
16171SOL    HW160572   9.434   5.740   8.751 -0.9953  0.2487  0.4774
16171SOL    HW260573   9.294   5.724   8.668 -0.4359  0.6856 -0.5590
16172SOL     OW60574   5.552   8.263   0.685  0.1833 -0.4900  0.0695
16172SOL    HW160575   5.577   8.167   0.674 -1.1327 -0.8669  0.3150
16172SOL    HW260576   5.471   8.284   0.630 -0.8615 -0.0817  1.7090
16173SOL     OW60577   6.984   7.989   2.346 -0.5208  0.2153 -0.1745
16173SOL    HW160578   6.910   7.921   2.346 -0.3390  0.0112 -0.6317
16173SOL    HW260579   6.951   8.074   2.385 -1.3752  0.5127 -1.4997
16174SOL     OW60580   4.471   5.838   7.955  0.6733 -0.1093  0.0787
16174SOL    HW160581   4.564   5.832   7.919  0.5397  0.6966 -0.4258
16174SOL    HW260582   4.467   5.912   8.023  0.8466 -1.3967  1.5315
16175SOL     OW60583   3.969   3.055   0.094 -0.5736 -0.2863 -0.1671
16175SOL    HW160584   3.911   3.128   0.058  2.7270  0.7393 -3.7684
16175SOL    HW260585   4.019   3.089   0.174 -0.9268  0.5883 -0.3083
16176SOL     OW60586   6.310   0.619   3.905 -0.1290  0.2956  0.3384
16176SOL    HW160587   6.407   0.629   3.926 -0.1804  0.2981  0.5721
16176SOL    HW260588   6.290   0.523   3.883 -0.5510 -0.1895  2.7345
16177SOL     OW60589   4.262   5.378   7.835 -0.0133  0.2058  0.2220
16177SOL    HW160590   4.321   5.447   7.878 -0.8999  0.1069  1.6269
16177SOL    HW260591   4.191   5.424   7.781  0.7053  0.3435 -0.6154
16178SOL     OW60592   4.627   3.881   0.074  0.4552  0.1489 -0.0609
16178SOL    HW160593   4.580   3.919  -0.006 -0.5244 -1.4786 -0.2747
16178SOL    HW260594   4.710   3.834   0.045  0.0162 -0.5798 -0.1613
16179SOL     OW60595   6.083   0.535   4.648  0.3108 -0.5790 -0.1373
16179SOL    HW160596   6.171   0.581   4.635 -0.6730  1.2465 -0.6123
16179SOL    HW260597   6.092   0.464   4.718  2.3671 -1.0466 -0.8539
16180SOL     OW60598   7.448   8.673   0.550 -0.1434  0.3285 -0.0556
16180SOL    HW160599   7.468   8.656   0.646 -0.0492 -1.6002 -0.3818
16180SOL    HW260600   7.531   8.659   0.496 -0.5027  0.0640 -0.5486
16181SOL     OW60601   6.664   2.358   3.888 -0.1940 -0.4483 -0.7802
16181SOL    HW160602   6.643   2.284   3.825 -0.2758 -0.0061 -1.2807
16181SOL    HW260603   6.744   2.334   3.943 -0.7904 -1.3007 -0.2660
16182SOL     OW60604   8.167   8.966   2.582 -0.3452  1.0525  0.0279
16182SOL    HW160605   8.086   8.913   2.605  0.8315  0.1097  2.1629
16182SOL    HW260606   8.192   9.023   2.660  1.2972  1.0010 -0.4453
16183SOL     OW60607   5.507   1.092   0.907  0.2194  0.7377  0.2615
16183SOL    HW160608   5.585   1.138   0.865 -0.0534  1.5175  0.6032
16183SOL    HW260609   5.463   1.153   0.973  0.2741 -0.2609  1.2349
16184SOL     OW60610   6.460   0.967   0.692  0.4725 -0.7802 -0.2436
16184SOL    HW160611   6.471   0.987   0.790 -0.5840 -0.2247 -0.2321
16184SOL    HW260612   6.373   0.921   0.677 -0.0936  0.5585 -1.1197
16185SOL     OW60613   8.683   4.021   1.295  0.4214  0.1534 -0.4760
16185SOL    HW160614   8.755   4.067   1.347  1.4044 -0.3920 -1.3342
16185SOL    HW260615   8.632   3.959   1.355  0.3980  0.8411  0.2261
16186SOL     OW60616   3.397   8.850   4.344 -0.2003  0.2068 -0.2632
16186SOL    HW160617   3.452   8.787   4.288  0.2540  0.2303  0.1516
16186SOL    HW260618   3.320   8.884   4.290  0.4031  0.4568 -0.9746
16187SOL     OW60619   4.932   0.437   9.517 -0.0561 -0.4861 -0.1869
16187SOL    HW160620   4.867   0.470   9.586 -0.2480  2.0886 -1.5369
16187SOL    HW260621   4.909   0.343   9.492 -2.7439  0.0880 -0.0372
16188SOL     OW60622   4.667   2.885   8.530  0.6490 -0.0302 -0.1149
16188SOL    HW160623   4.675   2.786   8.523  1.9272  0.0467  0.1781
16188SOL    HW260624   4.689   2.914   8.624  1.5428  0.6503 -0.5261
16189SOL     OW60625   1.015   7.908   5.598 -0.2269 -0.0656  0.2086
16189SOL    HW160626   0.973   7.945   5.515  0.2041  1.8555  0.8184
16189SOL    HW260627   1.114   7.925   5.595 -0.3094  0.7142  1.4401
16190SOL     OW60628   8.173   2.510   6.349 -0.0667 -0.0508 -0.2678
16190SOL    HW160629   8.172   2.572   6.270  0.6053 -0.4875 -0.6167
16190SOL    HW260630   8.120   2.428   6.327 -0.3790  0.0894 -0.0478
16191SOL     OW60631   8.755   3.348   8.479 -0.3769  0.0809 -0.0896
16191SOL    HW160632   8.822   3.422   8.471  0.1928 -0.5145 -0.9395
16191SOL    HW260633   8.775   3.293   8.560 -1.6418  1.6693  1.3372
16192SOL     OW60634   5.279   2.945   9.862 -0.5494  0.3629 -0.0839
16192SOL    HW160635   5.280   3.044   9.876 -1.6084  0.1117  1.9453
16192SOL    HW260636   5.196   2.919   9.812 -0.6866  0.4155  0.1160
16193SOL     OW60637   4.591   1.610   5.367 -0.0225  0.1678 -0.0606
16193SOL    HW160638   4.498   1.592   5.400 -0.1496  0.1742 -0.4122
16193SOL    HW260639   4.657   1.566   5.429 -0.3393 -1.7335 -1.0307
16194SOL     OW60640   5.135   9.027   6.498  0.3787 -0.1319  0.1137
16194SOL    HW160641   5.068   9.079   6.551  0.2970 -1.1293  0.9980
16194SOL    HW260642   5.132   9.057   6.403  0.0334  1.1811  0.5281
16195SOL     OW60643   7.106   4.255   9.923 -0.5372 -0.3003  0.3010
16195SOL    HW160644   7.044   4.271   9.999 -1.1655  0.7012 -0.4130
16195SOL    HW260645   7.078   4.172   9.874 -0.3754 -0.7137  0.8978
16196SOL     OW60646   3.472   8.596   8.811  0.4132 -1.0354 -0.2128
16196SOL    HW160647   3.533   8.540   8.756  0.3258 -1.3588  0.0175
16196SOL    HW260648   3.388   8.545   8.830 -0.9435  0.2640 -2.5290
16197SOL     OW60649   6.335   5.117   6.156  0.2138 -0.1900 -1.5175
16197SOL    HW160650   6.280   5.193   6.122 -0.6217 -0.3928 -0.6627
16197SOL    HW260651   6.314   5.034   6.104 -0.1600 -0.2254 -1.3115
16198SOL     OW60652   6.855   5.655   8.327 -0.2073 -0.4619  0.0626
16198SOL    HW160653   6.821   5.717   8.398 -1.4996 -0.2057 -0.7669
16198SOL    HW260654   6.778   5.618   8.275  0.8359  0.7389 -2.3764
16199SOL     OW60655   7.815   7.358   8.331  0.2979  0.1056  0.5523
16199SOL    HW160656   7.838   7.429   8.398 -0.1378 -0.1950  1.0229
16199SOL    HW260657   7.722   7.372   8.299  0.6565  0.5154 -0.3394
16200SOL     OW60658   6.318   6.422   3.116 -0.3282  0.4317 -0.2627
16200SOL    HW160659   6.402   6.416   3.062  0.4782 -0.7973  1.0740
16200SOL    HW260660   6.300   6.517   3.142 -0.1887  0.8916 -1.8347
16201SOL     OW60661   8.605   2.513   2.577  0.1977 -0.6293  0.7896
16201SOL    HW160662   8.649   2.517   2.488 -3.4327 -0.9615 -1.1459
16201SOL    HW260663   8.591   2.417   2.603  1.0336 -0.5341  1.6147
16202SOL     OW60664   6.462   0.109   0.409  0.2851 -0.2560  0.0730
16202SOL    HW160665   6.370   0.072   0.393  0.7331 -0.3637 -2.4613
16202SOL    HW260666   6.455   0.207   0.428 -0.3275 -0.1385 -0.7205
16203SOL     OW60667   9.928   2.885   2.410  0.3556 -0.4018 -0.2469
16203SOL    HW160668   9.861   2.888   2.484  0.0676  0.7077 -0.5461
16203SOL    HW260669   9.941   2.790   2.381  0.8702 -0.9103  1.5746
16204SOL     OW60670   6.787   9.279   8.215 -0.0994  0.9032  0.0105
16204SOL    HW160671   6.755   9.331   8.135  1.4796  1.6776 -0.1515
16204SOL    HW260672   6.802   9.342   8.291 -1.1926  0.2221  0.7992
16205SOL     OW60673   8.386   2.811   3.405  0.0098  0.1999 -0.0461
16205SOL    HW160674   8.413   2.829   3.311 -1.4691 -0.7331 -0.6705
16205SOL    HW260675   8.287   2.797   3.409 -0.0600  1.0179  1.7733
16206SOL     OW60676   6.659   1.979   3.084  0.1626  0.0499  0.1574
16206SOL    HW160677   6.565   2.003   3.060 -0.0372  0.3840  1.2425
16206SOL    HW260678   6.673   1.995   3.182  1.2405 -0.3492  0.0692
16207SOL     OW60679   4.317   1.189   8.156  0.4902  0.3167 -0.5123
16207SOL    HW160680   4.390   1.247   8.120  0.1817  1.3501  0.4719
16207SOL    HW260681   4.353   1.133   8.231  0.5765 -0.1312 -0.8832
16208SOL     OW60682   5.404   9.281   2.211 -0.2319  0.8646 -0.7743
16208SOL    HW160683   5.363   9.207   2.263  0.5785  0.5872 -0.5134
16208SOL    HW260684   5.484   9.315   2.260 -0.3245  1.5931 -1.1235
16209SOL     OW60685   3.660   9.513   1.059  0.0728 -0.7196 -0.9560
16209SOL    HW160686   3.672   9.549   1.151 -2.3216 -0.7894 -0.6084
16209SOL    HW260687   3.704   9.423   1.052  0.1506 -0.7662  0.1516
16210SOL     OW60688   5.297   1.182   9.173 -0.1288  0.4380  0.3460
16210SOL    HW160689   5.314   1.109   9.239 -0.1927 -1.1925 -1.4142
16210SOL    HW260690   5.212   1.163   9.123  0.1208  1.4456 -0.4837
16211SOL     OW60691   8.332   1.242   1.119  0.4322  0.9142  0.4332
16211SOL    HW160692   8.275   1.163   1.094 -0.2608  0.6978  2.5596
16211SOL    HW260693   8.276   1.325   1.117  0.5093  0.9726  0.7034
16212SOL     OW60694   5.372   2.748   9.343 -0.2224  0.2305 -0.1341
16212SOL    HW160695   5.387   2.760   9.441 -0.0299  2.1282 -0.3874
16212SOL    HW260696   5.303   2.813   9.311  0.5445  0.4057 -1.4706
16213SOL     OW60697   3.856   5.469   5.349  0.9663 -0.2641  0.3052
16213SOL    HW160698   3.798   5.395   5.383 -1.5282  0.9020 -1.2597
16213SOL    HW260699   3.885   5.448   5.256  0.4685  0.5967 -0.0476
16214SOL     OW60700   6.861   9.230   1.552  0.5553  0.2457  0.0829
16214SOL    HW160701   6.933   9.237   1.483  1.7598 -0.5362  1.2258
16214SOL    HW260702   6.817   9.319   1.563  1.6425  0.8470 -0.3195
16215SOL     OW60703   4.907   9.939   9.533 -0.1126  0.2238 -0.2802
16215SOL    HW160704   4.967  10.005   9.489  0.3466  0.3007  0.4538
16215SOL    HW260705   4.818   9.940   9.488  0.4336  0.0945 -1.3960
16216SOL     OW60706   5.755   3.059   0.686  0.2330 -0.9524 -0.3726
16216SOL    HW160707   5.810   3.027   0.608 -1.0156 -2.2940 -0.7381
16216SOL    HW260708   5.674   3.106   0.651 -0.4398 -1.7500  0.1045
16217SOL     OW60709   3.766   5.695   2.455  0.1346  0.1821  0.7160
16217SOL    HW160710   3.840   5.655   2.401 -1.0383  0.3849 -1.0758
16217SOL    HW260711   3.728   5.773   2.407 -0.7537  0.5461  1.9860
16218SOL     OW60712   7.676   3.723   0.472 -0.0451  0.4621 -0.7503
16218SOL    HW160713   7.745   3.670   0.521 -0.3307 -0.2295 -1.0922
16218SOL    HW260714   7.720   3.775   0.399  0.2877  0.9950 -0.1755
16219SOL     OW60715   3.385   8.952   8.123  0.3209 -0.6391  0.0643
16219SOL    HW160716   3.370   8.980   8.028 -1.8754 -0.8032  0.3312
16219SOL    HW260717   3.369   9.030   8.183  0.8421 -0.7551  0.3538
16220SOL     OW60718   5.896   5.150   1.379 -0.0079  0.8603  0.4189
16220SOL    HW160719   5.812   5.203   1.388 -0.1381  0.9770 -1.3380
16220SOL    HW260720   5.942   5.174   1.293 -0.0319 -1.8280 -0.3720
16221SOL     OW60721   9.595   3.833   6.187 -0.3072 -0.7051  0.2577
16221SOL    HW160722   9.520   3.784   6.143  0.9342 -1.7595 -0.7190
16221SOL    HW260723   9.589   3.822   6.287 -1.3501 -0.9189  0.1685
16222SOL     OW60724   6.643   1.354   2.883  0.6345  0.0862 -0.2558
16222SOL    HW160725   6.681   1.274   2.931 -0.1069 -0.4428 -0.5518
16222SOL    HW260726   6.689   1.437   2.916  0.6013 -0.3412  0.8853
16223SOL     OW60727   5.348   2.603   8.752 -0.9167 -0.4047 -0.4591
16223SOL    HW160728   5.337   2.535   8.679 -0.9251 -0.2620 -0.5897
16223SOL    HW260729   5.444   2.610   8.778 -1.1611 -2.0326  1.0475
16224SOL     OW60730   6.514   1.267   1.449 -0.3560 -0.1514 -0.4269
16224SOL    HW160731   6.546   1.336   1.384 -2.5503  1.1758 -0.1585
16224SOL    HW260732   6.586   1.200   1.465  0.4047 -0.2004 -3.7928
16225SOL     OW60733   6.237   0.252   3.211 -0.5686 -0.0462 -0.2098
16225SOL    HW160734   6.198   0.344   3.215 -1.3553 -0.3670 -0.4765
16225SOL    HW260735   6.262   0.231   3.117 -1.1547 -0.4224 -0.2822
16226SOL     OW60736   2.803   8.012   5.052  0.2688 -0.2187  0.2655
16226SOL    HW160737   2.824   8.077   4.979 -0.4270  0.2313  0.4627
16226SOL    HW260738   2.752   7.934   5.014 -1.0270  0.5313  0.4528
16227SOL     OW60739   4.090   3.101   1.039 -0.0138  0.3173 -0.4959
16227SOL    HW160740   4.132   3.011   1.036 -2.0766 -0.6766 -0.7077
16227SOL    HW260741   3.998   3.096   1.000  0.5090  2.8972 -2.1846
16228SOL     OW60742   6.568   9.925   0.596 -0.5634  0.2639  0.4536
16228SOL    HW160743   6.514   9.840   0.595  2.9326 -2.0858 -0.3413
16228SOL    HW260744   6.529   9.990   0.530 -2.5523 -1.2257  0.0998
16229SOL     OW60745   0.324   2.428   9.861  0.1878 -0.6660 -0.4268
16229SOL    HW160746   0.413   2.387   9.881  0.2656 -0.8345 -1.0985
16229SOL    HW260747   0.326   2.469   9.769  0.1869  1.0731  0.3330
16230SOL     OW60748   4.529   9.585   5.794 -0.3021  0.3777  0.1210
16230SOL    HW160749   4.460   9.638   5.844  0.4772 -0.3110  1.9467
16230SOL    HW260750   4.494   9.493   5.777  0.5996 -0.3635  2.1209
16231SOL     OW60751   5.776   0.746   2.024  0.0859  0.1358  0.1417
16231SOL    HW160752   5.841   0.822   2.021  0.4798 -0.1305  1.5759
16231SOL    HW260753   5.724   0.749   2.110 -1.4160  0.0216 -0.7452
16232SOL     OW60754   0.307   5.359   8.054  0.6495  0.0577  0.0908
16232SOL    HW160755   0.318   5.458   8.063 -1.5775  0.3637 -0.1139
16232SOL    HW260756   0.248   5.340   7.975 -1.3962 -1.2667  1.9034
16233SOL     OW60757   9.855   1.532   1.128 -0.0504  0.2844  0.1085
16233SOL    HW160758   9.830   1.558   1.035 -2.0889 -0.5458  0.3906
16233SOL    HW260759   9.790   1.572   1.193  0.3479 -0.5239  1.0264
16234SOL     OW60760   5.866   2.163   3.022  0.1912 -0.1953  0.2738
16234SOL    HW160761   5.781   2.182   2.973 -0.0973  1.8510  1.4930
16234SOL    HW260762   5.943   2.165   2.959 -0.3542  0.8680 -0.3701
16235SOL     OW60763   8.816   4.147   2.774  0.2401 -0.6412  0.5813
16235SOL    HW160764   8.822   4.074   2.706 -0.6807  0.5192 -0.7798
16235SOL    HW260765   8.728   4.194   2.764  1.5472  1.8176  0.2134
16236SOL     OW60766   1.543   8.446   0.862 -0.1423  0.0544 -0.9111
16236SOL    HW160767   1.612   8.375   0.853 -1.1470 -0.7013 -3.2030
16236SOL    HW260768   1.520   8.459   0.958  2.7059 -0.1100 -0.1762
16237SOL     OW60769   2.403   4.119   4.264 -0.0054 -0.0691  0.0160
16237SOL    HW160770   2.359   4.038   4.303 -1.1029  0.5595  0.1025
16237SOL    HW260771   2.343   4.161   4.196 -0.3456  1.8109  1.4084
16238SOL     OW60772   3.871   3.103   8.471 -0.2436 -0.2605 -0.0210
16238SOL    HW160773   3.774   3.116   8.454  0.0656  2.5631  0.0638
16238SOL    HW260774   3.923   3.127   8.389  0.4868  0.4258  0.6298
16239SOL     OW60775   7.863   1.061   1.667  0.3741  0.5752  0.3987
16239SOL    HW160776   7.769   1.066   1.632  0.0622  1.1329  1.2673
16239SOL    HW260777   7.907   0.978   1.633 -0.9782 -0.5348  1.2706
16240SOL     OW60778   4.407   5.718   0.839  0.6564  0.0342 -0.1668
16240SOL    HW160779   4.413   5.750   0.745  0.9074  1.9692  0.4854
16240SOL    HW260780   4.327   5.761   0.883  0.9053 -0.3655  0.6803
16241SOL     OW60781   6.719   3.131   4.560  0.0930  0.1943 -0.3702
16241SOL    HW160782   6.734   3.203   4.492 -1.6337  0.1639 -0.8132
16241SOL    HW260783   6.667   3.056   4.517  0.5627 -0.6342  0.4965
16242SOL     OW60784   9.079   6.295   3.123  0.0874  0.6574  0.1450
16242SOL    HW160785   8.987   6.312   3.159  0.8301  0.8452  2.0198
16242SOL    HW260786   9.147   6.334   3.186  1.4318  1.0644 -1.5294
16243SOL     OW60787   6.590   3.817   2.941  0.5014  0.1315  0.0774
16243SOL    HW160788   6.596   3.812   2.841  2.6780 -1.0924  0.2249
16243SOL    HW260789   6.545   3.734   2.975 -1.5652  1.2043  0.0657
16244SOL     OW60790   7.607   2.907   7.303 -0.2297  0.8317 -0.1687
16244SOL    HW160791   7.686   2.864   7.260 -0.9532  0.4087 -1.0975
16244SOL    HW260792   7.537   2.926   7.234 -0.6405  1.8733  0.5280
16245SOL     OW60793   8.963   1.343   1.453  0.2920  0.5932  0.1899
16245SOL    HW160794   8.882   1.386   1.412  0.3115  1.7561  1.3381
16245SOL    HW260795   8.983   1.257   1.405 -2.5603 -0.5213  0.8802
16246SOL     OW60796   2.879   3.019   7.334  0.2152  0.4452  0.9425
16246SOL    HW160797   2.973   3.035   7.302 -0.0766  1.3030  0.5183
16246SOL    HW260798   2.830   3.106   7.340 -0.5386  0.0056  1.2172
16247SOL     OW60799   5.840   0.130   3.744 -0.1086 -0.6660 -0.3486
16247SOL    HW160800   5.750   0.134   3.700 -0.3079  0.7411  0.1642
16247SOL    HW260801   5.839   0.185   3.827  0.6438 -2.2807  0.7477
16248SOL     OW60802   6.930   5.480   6.756  0.1162  0.3788 -0.1610
16248SOL    HW160803   6.976   5.541   6.820  0.6617 -1.3169  1.1257
16248SOL    HW260804   6.930   5.387   6.794  0.1192 -0.5837 -2.4578
16249SOL     OW60805   7.433   0.708   4.855 -0.4382  0.0572  0.0790
16249SOL    HW160806   7.478   0.700   4.766  0.2250  0.2540  0.3973
16249SOL    HW260807   7.501   0.704   4.928 -1.0055 -0.3518  0.5924
16250SOL     OW60808   8.713   2.544   7.915 -0.7511 -0.1536 -0.2034
16250SOL    HW160809   8.687   2.637   7.890  0.1293  0.2990  0.5263
16250SOL    HW260810   8.656   2.479   7.865  0.7346  0.7145 -3.1734
16251SOL     OW60811   6.940   0.470   3.614 -0.0365 -0.3352 -0.2573
16251SOL    HW160812   6.922   0.568   3.629 -1.1359 -0.5232 -0.3323
16251SOL    HW260813   6.860   0.417   3.641  0.5361 -1.2185 -0.2818
16252SOL     OW60814   7.060   8.153   7.222 -0.2782  0.3036 -0.9110
16252SOL    HW160815   7.043   8.101   7.306 -0.1699  1.2036 -0.3251
16252SOL    HW260816   6.993   8.127   7.152  0.2568 -1.1908 -0.8906
16253SOL     OW60817   4.704   4.321   1.343 -0.2471 -0.3418  0.3349
16253SOL    HW160818   4.708   4.356   1.437 -0.4862 -0.0541  0.2393
16253SOL    HW260819   4.618   4.350   1.300  0.0853 -0.0524 -0.1372
16254SOL     OW60820   6.758   3.460   4.073  0.5061 -0.1795  0.1543
16254SOL    HW160821   6.797   3.370   4.095 -1.5321 -0.9998  0.5273
16254SOL    HW260822   6.706   3.494   4.151 -1.1983 -0.0273 -1.0265
16255SOL     OW60823   0.341   1.585   6.291  0.0635 -0.1380  0.1869
16255SOL    HW160824   0.329   1.636   6.376  1.1710  1.3869 -0.5690
16255SOL    HW260825   0.406   1.511   6.305  1.2359  0.9123  0.3429
16256SOL     OW60826   2.843   2.742   3.909 -0.1785 -0.6442  0.4176
16256SOL    HW160827   2.781   2.793   3.968  0.1834 -0.1652  0.3860
16256SOL    HW260828   2.836   2.778   3.815 -0.8948 -1.5265  0.1243
16257SOL     OW60829   4.961   4.425   9.744  0.0647 -0.0669 -0.3926
16257SOL    HW160830   4.866   4.410   9.717  0.2438  0.0386 -1.1116
16257SOL    HW260831   5.021   4.385   9.674  0.5551 -2.0385  1.0959
16258SOL     OW60832   9.255   0.980   7.008  0.6471  0.3446  0.7103
16258SOL    HW160833   9.266   1.027   6.921  0.4586  0.9191  0.9977
16258SOL    HW260834   9.264   1.045   7.083 -2.1032  0.3950  1.0367
16259SOL     OW60835   4.863   6.268   9.610 -0.0649  0.0969 -0.2379
16259SOL    HW160836   4.926   6.194   9.589 -0.8431 -0.6221 -0.0551
16259SOL    HW260837   4.880   6.302   9.702 -0.8437 -1.0301  0.3381
16260SOL     OW60838   6.410   3.028   7.963 -0.1901 -0.1658 -0.1802
16260SOL    HW160839   6.388   3.059   8.055 -0.3330  1.1768 -0.6419
16260SOL    HW260840   6.345   3.068   7.898  1.2893  0.7785 -1.1200
16261SOL     OW60841   7.880   8.101   3.525 -0.3773  0.1616 -0.6144
16261SOL    HW160842   7.946   8.164   3.566  1.4445 -0.9407 -1.7518
16261SOL    HW260843   7.796   8.100   3.579  0.3882  1.8958  0.6444
16262SOL     OW60844   5.922   6.351   1.382  0.1400  0.2246 -0.0356
16262SOL    HW160845   6.013   6.354   1.423 -0.3246  0.6571  0.9699
16262SOL    HW260846   5.852   6.351   1.454 -0.6766  0.6874 -0.8075
16263SOL     OW60847   0.406   1.726   4.629 -0.2362 -0.1949 -0.1160
16263SOL    HW160848   0.454   1.756   4.546  1.9272  1.5630  1.7024
16263SOL    HW260849   0.444   1.639   4.660  0.2246  0.0612  0.0463
16264SOL     OW60850   4.380   5.876   2.469  0.0094 -0.3420 -0.0145
16264SOL    HW160851   4.322   5.861   2.549  0.3276 -0.6045  0.1719
16264SOL    HW260852   4.347   5.955   2.418 -0.5005 -0.4827  0.0947
16265SOL     OW60853   3.973   7.732   0.189  0.2887  0.3949 -0.2131
16265SOL    HW160854   4.015   7.823   0.183 -1.8842  1.4376 -0.4091
16265SOL    HW260855   4.002   7.676   0.112  0.6676  1.3650 -0.7895
16266SOL     OW60856   9.936   4.146   5.483 -0.0148  0.0720 -0.5643
16266SOL    HW160857   9.888   4.188   5.406  0.1060 -0.7090 -1.0729
16266SOL    HW260858   9.895   4.178   5.569 -0.4815  0.5548 -0.9619
16267SOL     OW60859   8.440   9.820   6.064  0.3079 -0.3417 -0.4575
16267SOL    HW160860   8.513   9.880   6.030  0.6838 -0.2075  0.5825
16267SOL    HW260861   8.353   9.868   6.060  0.1381 -0.7619 -2.4263
16268SOL     OW60862   2.757   5.285   1.536  0.2196 -0.0592  0.6869
16268SOL    HW160863   2.781   5.296   1.440  0.2640  2.3165  0.9205
16268SOL    HW260864   2.733   5.190   1.555 -2.5261 -0.0060 -2.2966
16269SOL     OW60865   6.677   6.997   6.397 -0.2086  0.0734  1.2194
16269SOL    HW160866   6.656   7.090   6.428 -0.4690  0.0894  1.0004
16269SOL    HW260867   6.772   6.975   6.419  0.0590  0.6503  0.6357
16270SOL     OW60868   3.456   1.073   0.902 -0.1099  0.5731 -0.2998
16270SOL    HW160869   3.540   1.030   0.935 -0.8411  0.3464  1.2848
16270SOL    HW260870   3.446   1.164   0.943 -0.3219  0.8709 -0.9885
16271SOL     OW60871   3.910   5.530   3.912  0.2083 -0.4293 -0.1411
16271SOL    HW160872   3.848   5.598   3.873  0.4274 -0.2286 -0.1387
16271SOL    HW260873   3.935   5.557   4.005  1.5686  0.3221 -0.7098
16272SOL     OW60874   4.168   3.920   0.310  0.4085 -0.5140 -0.1738
16272SOL    HW160875   4.106   3.990   0.345  0.2498 -0.6221 -0.2395
16272SOL    HW260876   4.253   3.921   0.364 -0.3048 -1.4889  1.0053
16273SOL     OW60877   5.604   1.581   1.895  0.2487 -0.1220 -0.2695
16273SOL    HW160878   5.514   1.555   1.928  1.0626 -1.6120  0.8256
16273SOL    HW260879   5.605   1.577   1.795 -1.2214  1.0579 -0.3512
16274SOL     OW60880   7.597   9.314   2.760  0.9930 -0.3507  0.0986
16274SOL    HW160881   7.572   9.408   2.739 -0.8078 -0.8389  0.0144
16274SOL    HW260882   7.618   9.265   2.675  1.6614 -0.1026  0.1200
16275SOL     OW60883   1.652   8.858   4.013 -0.3179 -0.3332  0.6003
16275SOL    HW160884   1.568   8.855   3.958  0.3869  0.3576 -0.5341
16275SOL    HW260885   1.660   8.947   4.058 -0.6258 -0.7069  1.4017
16276SOL     OW60886   4.965   5.107   4.813  0.1498 -0.3564 -0.8078
16276SOL    HW160887   4.987   5.013   4.788  1.0022 -0.0116 -1.3891
16276SOL    HW260888   5.049   5.157   4.836 -0.5227 -0.3988  1.9088
16277SOL     OW60889   3.853   3.369   4.206  1.2184  0.0485 -0.0909
16277SOL    HW160890   3.853   3.271   4.224 -0.4314  0.0426 -0.1040
16277SOL    HW260891   3.927   3.412   4.257  0.7811 -0.9310  1.3767
16278SOL     OW60892   6.434   8.749   9.179  0.2834 -0.1640 -0.6603
16278SOL    HW160893   6.511   8.692   9.148  0.6165 -0.6132  0.9780
16278SOL    HW260894   6.461   8.799   9.261 -0.9906  0.1487 -0.4344
16279SOL     OW60895   5.522   9.964   1.704 -0.1319  0.1456  0.3652
16279SOL    HW160896   5.557  10.018   1.627 -0.0127 -0.0268  0.2977
16279SOL    HW260897   5.508  10.024   1.783 -0.0065  0.2762  0.2890
16280SOL     OW60898   2.318   6.101   3.750  0.0257  0.5058  0.6313
16280SOL    HW160899   2.316   6.074   3.846 -2.7545  0.2239  0.5072
16280SOL    HW260900   2.372   6.185   3.740  0.9427  0.1236  2.3143
16281SOL     OW60901   2.005   0.911   1.019 -0.2560  0.5205  0.0928
16281SOL    HW160902   1.972   1.000   0.989 -1.6281  0.3993  1.1576
16281SOL    HW260903   1.986   0.843   0.948 -0.0098  0.9209 -0.3541
16282SOL     OW60904   2.677   9.617   7.274 -0.0108 -0.0263  0.0063
16282SOL    HW160905   2.729   9.554   7.331 -2.6642 -1.4220  0.9432
16282SOL    HW260906   2.624   9.679   7.332 -1.0013  0.0271 -0.9462
16283SOL     OW60907   3.038   6.657   3.822 -0.3280 -0.2837  0.0456
16283SOL    HW160908   3.093   6.589   3.871  0.4580  0.4111  0.1390
16283SOL    HW260909   2.963   6.687   3.881  0.7165  0.6742  0.8908
16284SOL     OW60910   2.458   3.938   2.284 -0.0515 -0.4670 -0.0617
16284SOL    HW160911   2.494   3.865   2.226  1.0420 -0.0242  0.0435
16284SOL    HW260912   2.498   3.931   2.375  2.0326  1.7545 -0.7643
16285SOL     OW60913   9.805   5.239   2.086 -0.6043  0.1355  0.0960
16285SOL    HW160914   9.727   5.189   2.121 -0.5242 -0.2845 -0.3145
16285SOL    HW260915   9.885   5.222   2.144 -0.6030 -0.1344  0.0177
16286SOL     OW60916   9.619   0.593   0.681  0.1552 -0.5109  0.1563
16286SOL    HW160917   9.703   0.598   0.627  0.8756  1.4932  1.4181
16286SOL    HW260918   9.562   0.673   0.661  0.7946  0.6865  2.8993
16287SOL     OW60919   2.641   1.889   2.651  0.6914 -0.0267  0.1048
16287SOL    HW160920   2.735   1.888   2.684  0.4905  1.0823  0.7328
16287SOL    HW260921   2.581   1.929   2.721  0.0552  1.0516 -1.0358
16288SOL     OW60922   5.721   8.649   0.816 -0.2279 -0.0185  0.4844
16288SOL    HW160923   5.739   8.574   0.753 -1.5392 -0.1532  0.2647
16288SOL    HW260924   5.752   8.624   0.908  0.2444 -0.4321  0.2124
16289SOL     OW60925   9.058   9.481   4.567 -1.0109 -0.4394 -0.1125
16289SOL    HW160926   9.057   9.383   4.587  1.6383 -0.2366  1.1668
16289SOL    HW260927   9.031   9.532   4.649  0.3136  0.0126  0.0452
16290SOL     OW60928   9.318   9.484   6.189 -0.3229  0.2490 -0.1360
16290SOL    HW160929   9.394   9.523   6.136  0.4112 -0.6074  0.2643
16290SOL    HW260930   9.247   9.553   6.201  1.3044  1.7235  1.2758
16291SOL     OW60931   6.852   9.515   9.489 -0.0415 -0.2364 -0.0453
16291SOL    HW160932   6.791   9.593   9.502  2.6058  2.0720 -0.9442
16291SOL    HW260933   6.865   9.468   9.576 -1.4487  0.5019  0.5788
16292SOL     OW60934   3.640   2.340   8.930  0.4300 -0.5185  0.3232
16292SOL    HW160935   3.726   2.309   8.969  0.5506 -0.2452  0.2764
16292SOL    HW260936   3.579   2.371   9.003  0.2501 -1.0037  0.3819
16293SOL     OW60937   6.627   7.004   5.867 -0.1975  0.1769 -0.3707
16293SOL    HW160938   6.633   6.924   5.808 -0.4799 -0.1627  0.0621
16293SOL    HW260939   6.647   6.978   5.962  1.1523  0.8832 -0.4423
16294SOL     OW60940   8.845   3.689   3.749 -0.2440 -0.2788  0.6479
16294SOL    HW160941   8.944   3.675   3.751 -0.3779 -1.1184  1.8073
16294SOL    HW260942   8.821   3.763   3.812 -0.0520  2.0873 -1.9403
16295SOL     OW60943   2.916   1.634   2.351  0.2616 -0.1102 -0.3268
16295SOL    HW160944   3.007   1.674   2.355  0.3946 -0.5245  1.0030
16295SOL    HW260945   2.848   1.707   2.347  0.5684  0.2189  0.5416
16296SOL     OW60946   6.216   0.317   2.552  0.1876  0.2118 -0.2877
16296SOL    HW160947   6.221   0.224   2.587  0.3333 -0.2351 -1.4665
16296SOL    HW260948   6.214   0.382   2.629 -2.5640 -0.8618  0.5942
16297SOL     OW60949   3.185   7.643   2.034  0.0165  0.1980  0.8628
16297SOL    HW160950   3.169   7.549   2.063  2.5485 -0.3478  0.5410
16297SOL    HW260951   3.274   7.674   2.068 -0.2055  2.0250 -0.1669
16298SOL     OW60952   6.346   0.269   4.116  0.5297 -0.0340 -0.2499
16298SOL    HW160953   6.253   0.234   4.118  0.1925  0.8845  0.9819
16298SOL    HW260954   6.384   0.261   4.024 -0.8284 -0.2413 -0.7872
16299SOL     OW60955   3.148   1.897   0.621 -0.1349  0.0853 -0.5737
16299SOL    HW160956   3.183   1.924   0.531  0.3067 -0.9605 -0.7257
16299SOL    HW260957   3.218   1.909   0.690  0.0290 -0.5458 -0.6247
16300SOL     OW60958   9.889   2.635   2.271 -0.1544 -0.1043  0.3479
16300SOL    HW160959   9.977   2.605   2.233  0.8675  0.3711  2.2537
16300SOL    HW260960   9.834   2.555   2.294  0.2955 -0.4347  0.2909
16301SOL     OW60961   5.226   0.973   4.252  0.0524  0.1027  0.3531
16301SOL    HW160962   5.233   1.053   4.191 -0.9762  0.7501  1.0734
16301SOL    HW260963   5.270   0.995   4.339 -3.9950  1.4957  2.1622
16302SOL     OW60964   5.563   8.423   9.014 -0.4756 -0.2736 -0.0310
16302SOL    HW160965   5.526   8.417   9.107 -0.4214 -1.0847 -0.0561
16302SOL    HW260966   5.651   8.375   9.010 -1.5623 -2.2459 -1.0374
16303SOL     OW60967   8.096   4.251   2.555 -0.1813  0.1888 -0.2583
16303SOL    HW160968   8.112   4.241   2.653  0.2483 -0.3368 -0.3822
16303SOL    HW260969   8.071   4.346   2.535  2.4309  0.9575 -0.0152
16304SOL     OW60970   2.680   7.033   3.707 -0.0041 -0.0249 -0.4929
16304SOL    HW160971   2.696   7.084   3.791  1.0468 -1.4538  0.1930
16304SOL    HW260972   2.584   7.042   3.680 -0.6233 -0.5210  1.4945
16305SOL     OW60973   9.290   9.455   9.591  0.1537 -0.4917 -0.1812
16305SOL    HW160974   9.376   9.430   9.546 -0.1634  0.3500 -1.2951
16305SOL    HW260975   9.228   9.377   9.589  0.0898 -0.4306 -1.3886
16306SOL     OW60976   3.187   3.405   5.457  0.3976 -0.4436  0.6574
16306SOL    HW160977   3.190   3.472   5.532  1.7097 -0.1983  0.4049
16306SOL    HW260978   3.261   3.338   5.470 -0.3632 -1.3244  0.4288
16307SOL     OW60979   6.962   1.312   4.656  0.4574  0.2805 -0.7306
16307SOL    HW160980   6.922   1.345   4.570 -0.3119 -0.6006 -0.7172
16307SOL    HW260981   6.950   1.213   4.663  2.3977  0.0439 -0.5757
16308SOL     OW60982   6.863   1.145   1.164 -0.6265  0.4067  0.3338
16308SOL    HW160983   6.845   1.242   1.181  0.3865  0.4370  1.2735
16308SOL    HW260984   6.876   1.098   1.251 -2.1594 -0.7961 -0.0602
16309SOL     OW60985   2.334   6.813   6.961 -0.1936 -0.5302 -0.0734
16309SOL    HW160986   2.362   6.747   7.031  0.4507  1.1425  1.2838
16309SOL    HW260987   2.277   6.884   7.003 -1.3586 -0.5060 -1.6286
16310SOL     OW60988   4.269   0.346   3.232  0.6123  0.2075 -0.5280
16310SOL    HW160989   4.288   0.426   3.175  0.8787 -0.1846 -0.9867
16310SOL    HW260990   4.303   0.363   3.325  0.2424  0.8172 -0.4990
16311SOL     OW60991   2.738   3.193   3.339 -0.5008  0.1238  0.4157
16311SOL    HW160992   2.783   3.283   3.338  0.5004 -0.3735  0.0382
16311SOL    HW260993   2.711   3.169   3.246  0.4769 -0.5785  0.3093
16312SOL     OW60994   7.262   9.459   8.305  0.2274 -0.1834  0.0520
16312SOL    HW160995   7.217   9.370   8.302  0.4359 -0.3339  1.1221
16312SOL    HW260996   7.344   9.453   8.363 -0.2162  0.8911  0.8147
16313SOL     OW60997   7.320   9.836   4.088 -0.2691  0.3672  0.7816
16313SOL    HW160998   7.228   9.830   4.050 -1.2004  0.9095  2.8867
16313SOL    HW260999   7.370   9.751   4.069 -0.3906  0.9395 -2.3403
16314SOL     OW61000   5.491   8.355   5.656 -0.4967  0.8800 -0.6847
16314SOL    HW161001   5.588   8.373   5.672 -0.6556  1.6745 -0.5947
16314SOL    HW261002   5.436   8.414   5.715 -1.0271 -1.4499  1.2839
16315SOL     OW61003   6.927   0.586   5.226  0.7096  0.2753  0.1709
16315SOL    HW161004   6.987   0.595   5.305  1.3117 -0.8003 -0.1524
16315SOL    HW261005   6.937   0.667   5.168 -0.4979  1.5443  1.6932
16316SOL     OW61006   6.850   7.540   2.411 -0.0890 -0.6777 -0.4401
16316SOL    HW161007   6.932   7.589   2.441 -0.2462 -1.3596  1.2031
16316SOL    HW261008   6.834   7.557   2.314  0.9877  0.8789 -0.3641
16317SOL     OW61009   4.320   3.044   0.077  0.0498 -0.1959 -0.2506
16317SOL    HW161010   4.355   3.079  -0.011  1.0817 -1.0745 -0.1938
16317SOL    HW261011   4.326   2.944   0.078 -0.6807 -0.2356  0.5271
16318SOL     OW61012   5.544   1.062   2.183  0.0616 -0.2183  0.4518
16318SOL    HW161013   5.468   1.120   2.211  0.5041  0.0869  1.0309
16318SOL    HW261014   5.614   1.062   2.255 -0.0709 -1.7032  0.5974
16319SOL     OW61015   3.100   6.429   1.723 -0.2127 -0.2692 -0.5221
16319SOL    HW161016   3.186   6.479   1.726 -0.8438  0.8788 -1.0183
16319SOL    HW261017   3.056   6.433   1.813 -0.6343  0.7692 -0.7608
16320SOL     OW61018   1.412   5.854   9.083  0.8542  0.6627 -0.3576
16320SOL    HW161019   1.411   5.923   9.010  1.3425  0.8009 -0.2380
16320SOL    HW261020   1.496   5.799   9.074 -1.2102 -2.2992 -2.6860
16321SOL     OW61021   7.888   0.931   4.692  0.2850 -0.3398 -0.0086
16321SOL    HW161022   7.849   0.877   4.618  0.7596  1.0590 -1.3052
16321SOL    HW261023   7.970   0.885   4.728  0.3192 -0.7945 -0.6661
16322SOL     OW61024   5.271   9.651   8.454  0.8150 -0.6914 -0.1572
16322SOL    HW161025   5.336   9.618   8.386  1.2740  0.8183 -0.4714
16322SOL    HW261026   5.211   9.720   8.413 -0.0685 -1.0628  0.4957
16323SOL     OW61027   6.652   7.528   2.582  0.0206 -0.4399 -0.2080
16323SOL    HW161028   6.647   7.627   2.596 -0.0031 -0.5645  0.7490
16323SOL    HW261029   6.727   7.506   2.521  1.8574 -0.0282  1.8277
16324SOL     OW61030   6.694   3.547   8.887 -0.2399  0.4072 -0.4361
16324SOL    HW161031   6.758   3.563   8.963  0.5311 -0.7313 -0.8238
16324SOL    HW261032   6.617   3.492   8.920  0.4315 -0.6639 -0.6082
16325SOL     OW61033   9.567   2.545   1.512 -0.2716  0.2031  0.2290
16325SOL    HW161034   9.543   2.498   1.597 -0.8721  0.1418  0.0231
16325SOL    HW261035   9.585   2.478   1.440 -0.5923  0.2732  0.0823
16326SOL     OW61036   8.885   1.142   3.624 -0.3442  0.3404 -0.1460
16326SOL    HW161037   8.980   1.115   3.609 -0.2905  0.9818 -1.0121
16326SOL    HW261038   8.877   1.191   3.711 -0.0858 -0.6763  0.4599
16327SOL     OW61039   3.695   0.013   1.093 -0.1132 -0.3476 -0.1469
16327SOL    HW161040   3.689   0.109   1.122  0.9031 -0.5532  0.7363
16327SOL    HW261041   3.784  -0.025   1.118  0.0457 -1.1050 -1.8013
16328SOL     OW61042   6.453   8.973   0.403 -0.5035 -0.2761  0.3362
16328SOL    HW161043   6.449   9.042   0.475 -0.0757 -0.5760  0.6484
16328SOL    HW261044   6.535   8.917   0.414  0.0274  0.2313 -0.9061
16329SOL     OW61045   9.573   0.023   1.791 -0.4094  0.4913 -0.2271
16329SOL    HW161046   9.627  -0.049   1.748  0.4643  0.6919  0.5153
16329SOL    HW261047   9.605   0.113   1.760 -0.1290  0.6174  0.4010
16330SOL     OW61048   6.510   1.311   3.342 -0.1414  0.2653 -0.0361
16330SOL    HW161049   6.453   1.310   3.425  0.6527  1.3735  0.5408
16330SOL    HW261050   6.456   1.347   3.266 -1.5966 -2.9146 -0.5697
16331SOL     OW61051   2.853   9.809   2.694 -0.4478 -0.3792  0.2668
16331SOL    HW161052   2.834   9.889   2.637  0.8950 -0.1329  0.1279
16331SOL    HW261053   2.779   9.795   2.759 -0.7141  0.9528  0.2605
16332SOL     OW61054   7.916   0.112   5.184 -0.0778 -0.9833  0.0238
16332SOL    HW161055   7.896   0.080   5.091 -1.5874 -1.1222  0.3837
16332SOL    HW261056   7.936   0.209   5.181 -0.7825 -0.8394 -0.3786
16333SOL     OW61057   5.577   2.004   1.661 -0.0089  0.4538  0.1611
16333SOL    HW161058   5.561   1.931   1.594 -1.5523  0.3670  0.5897
16333SOL    HW261059   5.529   2.087   1.631 -0.0915  0.6303  0.7865
16334SOL     OW61060   4.967   3.800   9.734  0.1596  0.6052 -0.0125
16334SOL    HW161061   5.028   3.735   9.690 -0.2545 -0.7376  1.3377
16334SOL    HW261062   4.872   3.769   9.724  0.0460  0.3826  1.5934
16335SOL     OW61063   4.063   2.382   0.595  0.3842 -0.5672 -0.1626
16335SOL    HW161064   4.026   2.474   0.580  1.7625  0.2311  1.1708
16335SOL    HW261065   3.991   2.322   0.630 -0.1422  0.4163  0.4466
16336SOL     OW61066   4.755   0.940   3.492  0.0446 -0.6491 -0.1258
16336SOL    HW161067   4.790   0.913   3.582 -1.0972 -0.4440  0.3812
16336SOL    HW261068   4.691   1.015   3.502  0.1959 -0.3714 -1.1603
16337SOL     OW61069   6.980   9.523   8.903 -0.3453  0.1511 -0.1238
16337SOL    HW161070   6.886   9.498   8.926 -0.4061  1.1199  0.7214
16337SOL    HW261071   7.006   9.606   8.954  0.7365  0.2701 -0.8533
16338SOL     OW61072   1.660   7.933   3.716  0.0450  0.1349 -0.4326
16338SOL    HW161073   1.758   7.948   3.702  0.2468 -1.1758 -0.4928
16338SOL    HW261074   1.647   7.860   3.784 -0.8851 -0.0025 -0.7580
16339SOL     OW61075   3.055   0.892   2.742  0.3944 -0.0070  0.0013
16339SOL    HW161076   3.079   0.892   2.839 -1.1482 -0.4097  0.3882
16339SOL    HW261077   3.108   0.822   2.694 -0.4669 -1.3324  0.9647
16340SOL     OW61078   7.115   3.270   9.700  0.0706 -0.3001  0.6837
16340SOL    HW161079   7.154   3.178   9.687 -1.1667 -0.7925  0.3769
16340SOL    HW261080   7.074   3.301   9.614  0.6969  0.6454  0.7204
16341SOL     OW61081   0.234   5.860   4.181  0.3685  0.4378  0.1817
16341SOL    HW161082   0.237   5.850   4.082  1.0425  2.0989  0.0304
16341SOL    HW261083   0.252   5.771   4.223  0.0356 -0.2876 -1.1695
16342SOL     OW61084   3.884   9.899   0.805  0.2805  0.3760 -0.1234
16342SOL    HW161085   3.819   9.826   0.828  0.5759 -0.2391 -1.2165
16342SOL    HW261086   3.966   9.889   0.861  0.2153  0.0177 -0.0899
16343SOL     OW61087   7.809   9.236   3.109 -1.0337  0.1319  0.2871
16343SOL    HW161088   7.833   9.171   3.037  0.0782  0.1854  0.6017
16343SOL    HW261089   7.791   9.187   3.194  0.3584  0.2609  0.6692
16344SOL     OW61090   5.390   0.506   6.112 -0.0835 -0.6962 -0.1515
16344SOL    HW161091   5.375   0.435   6.181  1.9508  0.7221  1.8147
16344SOL    HW261092   5.446   0.469   6.037  0.3733 -1.3718  0.5178
16345SOL     OW61093   8.495   4.291   2.260 -0.0904  0.3447 -0.1800
16345SOL    HW161094   8.517   4.379   2.303  0.7668  0.1452 -0.2146
16345SOL    HW261095   8.556   4.220   2.295 -0.8306 -0.2579 -0.0949
16346SOL     OW61096   8.864   8.553   5.478  0.7422 -0.9653 -0.2431
16346SOL    HW161097   8.929   8.611   5.527 -1.3146  0.5720  0.7463
16346SOL    HW261098   8.801   8.512   5.544  0.1703 -1.7500 -1.2699
16347SOL     OW61099   5.465   5.988   6.907 -0.0729 -0.7520  0.0374
16347SOL    HW161100   5.409   6.041   6.843 -0.1320 -0.7865  0.0623
16347SOL    HW261101   5.561   5.992   6.877 -0.4984 -3.3872 -1.8823
16348SOL     OW61102   6.289   1.951   4.405 -0.2702 -0.0280 -0.1555
16348SOL    HW161103   6.342   1.933   4.488 -1.7094 -1.1425  0.5449
16348SOL    HW261104   6.256   1.865   4.367 -0.0973  0.5265 -1.5765
16349SOL     OW61105   5.581   0.231   3.671 -1.2155  0.3030 -0.1934
16349SOL    HW161106   5.601   0.209   3.575 -0.9965 -0.5990  0.0581
16349SOL    HW261107   5.621   0.320   3.693  2.0885 -1.1978  0.1454
16350SOL     OW61108   9.005   0.820   2.292  0.6851 -0.4665  0.0846
16350SOL    HW161109   8.958   0.747   2.242  0.8745  0.3798 -1.3423
16350SOL    HW261110   8.948   0.848   2.369  0.2217 -1.5307  0.1490
16351SOL     OW61111   5.585   2.784   1.242  0.0687 -0.1285 -0.7241
16351SOL    HW161112   5.555   2.730   1.163  0.1323 -0.3623 -0.5900
16351SOL    HW261113   5.570   2.731   1.325  0.5966 -0.1375 -0.6336
16352SOL     OW61114   7.101   4.452   7.913 -0.6269 -0.3942 -0.1329
16352SOL    HW161115   7.154   4.401   7.844  0.3564  0.3015  0.0950
16352SOL    HW261116   7.125   4.418   8.004 -1.8568 -1.2477 -0.1195
16353SOL     OW61117   1.359   0.483   1.285 -0.4623 -0.7191  0.0360
16353SOL    HW161118   1.286   0.414   1.283  1.0434 -2.5880  3.9389
16353SOL    HW261119   1.443   0.444   1.248  0.1815 -0.7421  1.4887
16354SOL     OW61120   3.457   1.744   2.198  0.1175 -0.9932 -0.6430
16354SOL    HW161121   3.497   1.781   2.113 -0.1234  0.5517 -0.1014
16354SOL    HW261122   3.524   1.751   2.272  0.1683 -1.9308 -0.5911
16355SOL     OW61123   4.790   0.508   9.727  1.3694  0.2379  0.1812
16355SOL    HW161124   4.795   0.601   9.761 -1.8807  0.7106 -0.5212
16355SOL    HW261125   4.733   0.453   9.788 -0.6929 -0.0533 -1.9484
16356SOL     OW61126   6.461   1.256   4.186  0.0122  0.2778 -0.1397
16356SOL    HW161127   6.551   1.222   4.214 -0.2565 -0.4120 -0.0964
16356SOL    HW261128   6.473   1.330   4.120  0.6427  1.5369  1.3424
16357SOL     OW61129   2.884   2.231   4.611 -1.3256 -0.6745  0.1892
16357SOL    HW161130   2.903   2.156   4.675 -0.0499 -0.4791  0.0568
16357SOL    HW261131   2.848   2.193   4.525  0.5123 -1.2631 -0.3480
16358SOL     OW61132   6.584   4.132   1.520  0.4394  0.3674  0.1026
16358SOL    HW161133   6.647   4.207   1.540  1.7683 -1.2967  2.3728
16358SOL    HW261134   6.500   4.170   1.480  1.5117  2.9375  0.1513
16359SOL     OW61135   5.393   0.778   3.865 -0.0441 -0.2066  0.0695
16359SOL    HW161136   5.463   0.763   3.935  0.9006  0.4878 -0.7182
16359SOL    HW261137   5.407   0.713   3.790  0.0127  0.2153 -0.2837
16360SOL     OW61138   6.735   1.672   0.031 -0.2555  0.5158 -0.1751
16360SOL    HW161139   6.727   1.624  -0.056 -1.9505 -0.5711  0.5655
16360SOL    HW261140   6.792   1.619   0.094  1.4114  1.5523 -0.7667
16361SOL     OW61141   1.310   4.941   2.537 -0.2674  0.0615  0.6062
16361SOL    HW161142   1.364   4.858   2.527 -1.6715 -1.1469  2.6285
16361SOL    HW261143   1.225   4.932   2.486  0.2983  0.9411 -0.5127
16362SOL     OW61144   7.423   2.568   2.609  0.4514  0.0253  0.1533
16362SOL    HW161145   7.375   2.542   2.525 -0.9094 -0.5436  1.0948
16362SOL    HW261146   7.497   2.503   2.626 -0.4393 -0.9479  0.3690
16363SOL     OW61147   0.020   4.646   0.662 -0.0363  0.1014  0.0105
16363SOL    HW161148  -0.005   4.551   0.646 -0.2680  0.1825 -0.1194
16363SOL    HW261149   0.013   4.698   0.576 -1.4660  0.5777  0.3943
16364SOL     OW61150   6.299   3.287   8.796  0.4043  0.0984 -0.4342
16364SOL    HW161151   6.222   3.241   8.840  0.1450  1.7764  0.9354
16364SOL    HW261152   6.291   3.386   8.811  1.2858  0.5524 -2.7548
16365SOL     OW61153   2.143   4.412   0.269 -0.2388 -0.3976 -0.6455
16365SOL    HW161154   2.242   4.415   0.256 -0.3107  1.0488 -0.8892
16365SOL    HW261155   2.097   4.443   0.187 -0.9162 -1.4239 -0.6632
16366SOL     OW61156   5.094   0.995   0.485  0.8179 -0.3051 -0.7606
16366SOL    HW161157   5.057   1.066   0.425 -0.3926 -1.8068 -1.8286
16366SOL    HW261158   5.080   1.022   0.581 -2.1442 -0.3142 -1.1273
16367SOL     OW61159   1.248   4.987   1.861  0.2642 -0.5249 -0.2782
16367SOL    HW161160   1.184   4.922   1.819 -0.2390  0.0485 -0.3983
16367SOL    HW261161   1.262   5.064   1.799  1.1695 -0.6969 -0.3079
16368SOL     OW61162   7.436   0.961   2.782 -0.1363 -0.0489  0.0136
16368SOL    HW161163   7.467   1.048   2.744 -0.9529 -0.0419 -0.6319
16368SOL    HW261164   7.407   0.975   2.877  0.2675  0.2644  0.0932
16369SOL     OW61165   5.840   5.667   8.379  0.3649  0.2634  0.5743
16369SOL    HW161166   5.780   5.613   8.438 -0.3726  1.0770  0.5867
16369SOL    HW261167   5.922   5.614   8.356  0.4687 -0.2168  1.9910
16370SOL     OW61168   7.128   8.205   7.631  0.2974  0.0096 -0.1671
16370SOL    HW161169   7.110   8.149   7.551  0.6901  0.7075 -0.7528
16370SOL    HW261170   7.170   8.149   7.703  0.4121 -0.4988 -0.6330
16371SOL     OW61171   2.100   1.612   2.068 -0.4938  0.2953  0.0756
16371SOL    HW161172   2.184   1.627   2.015 -0.5456 -1.1828 -0.4296
16371SOL    HW261173   2.097   1.518   2.101 -1.4146  0.6608  1.0491
16372SOL     OW61174   7.781   3.062   6.925  0.4839 -0.1953 -0.6538
16372SOL    HW161175   7.702   3.121   6.937 -0.9295 -1.6273 -2.4759
16372SOL    HW261176   7.830   3.089   6.842  0.3782 -0.9418 -0.9672
16373SOL     OW61177   0.343   5.086   5.050 -0.0765  0.8902  0.5896
16373SOL    HW161178   0.277   5.090   5.125 -1.1085  0.8495 -0.2988
16373SOL    HW261179   0.296   5.057   4.966  1.4231 -0.8416  0.3272
16374SOL     OW61180   8.092   2.979   2.628  0.1060 -0.4474  0.3316
16374SOL    HW161181   8.147   3.062   2.620  2.8676 -2.2529  0.1830
16374SOL    HW261182   8.079   2.938   2.538 -1.6353  0.0335  0.3461
16375SOL     OW61183   7.201   7.938   2.489  0.1646 -0.1306 -0.1459
16375SOL    HW161184   7.123   7.962   2.431 -1.2568  0.2076  1.8395
16375SOL    HW261185   7.204   8.000   2.567  0.6348 -2.0039  1.3717
16376SOL     OW61186   8.456   1.042   3.033 -0.0374  0.4565 -0.1295
16376SOL    HW161187   8.463   1.095   2.949  1.1538  2.2689  1.0833
16376SOL    HW261188   8.360   1.035   3.061 -0.4762 -0.4746 -1.8089
16377SOL     OW61189   6.825   6.893   1.663  0.5846  0.8834  0.6052
16377SOL    HW161190   6.765   6.901   1.583  2.9593 -0.8165 -1.4376
16377SOL    HW261191   6.801   6.964   1.729 -3.4215  0.4561 -0.2462
16378SOL     OW61192   3.142   7.587   1.590 -0.1186  0.0516 -0.0134
16378SOL    HW161193   3.206   7.663   1.600  1.0680 -0.9159 -0.1261
16378SOL    HW261194   3.059   7.606   1.643 -0.0023  1.5951 -0.3637
16379SOL     OW61195   8.716   5.144   3.052 -0.0041  0.0013 -0.7381
16379SOL    HW161196   8.787   5.086   3.093  0.2290  0.5863 -0.3017
16379SOL    HW261197   8.628   5.125   3.094  0.3569  1.0859  0.5221
16380SOL     OW61198   6.982   0.533   6.797 -0.3365 -0.7941  0.4178
16380SOL    HW161199   7.051   0.565   6.732 -0.4851 -1.1179  0.0996
16380SOL    HW261200   6.892   0.565   6.767 -0.4797 -1.4707  0.1254
16381SOL     OW61201   6.599   6.248   2.487 -0.1164  0.5155  0.0784
16381SOL    HW161202   6.528   6.186   2.454  0.7801 -0.2306 -0.4468
16381SOL    HW261203   6.564   6.342   2.486 -1.7084 -0.0454  1.5113
16382SOL     OW61204   5.669   6.745   2.081 -0.6509 -0.0915 -0.0811
16382SOL    HW161205   5.601   6.717   2.149  1.0205 -0.0286  1.6527
16382SOL    HW261206   5.675   6.845   2.080 -1.3550 -0.0450 -1.0409
16383SOL     OW61207   3.231   2.745   0.856 -0.2730  0.2382  0.7401
16383SOL    HW161208   3.293   2.771   0.782 -1.4939 -1.6765 -1.0143
16383SOL    HW261209   3.156   2.812   0.862 -0.3415  0.2241  0.0399
16384SOL     OW61210   3.496   5.931   2.682  0.1993  0.3863  0.1366
16384SOL    HW161211   3.406   5.952   2.720  1.2555  0.8501  2.4842
16384SOL    HW261212   3.559   6.006   2.702  1.4246 -0.4798 -0.3981
16385SOL     OW61213   9.033   3.565   2.649  0.3944 -0.4398 -0.1390
16385SOL    HW161214   8.979   3.599   2.572  0.6553  0.1480 -0.0707
16385SOL    HW261215   9.034   3.634   2.722  2.5533  0.2663 -0.7780
16386SOL     OW61216   5.219   2.981   1.872 -0.2781  0.1350 -0.2039
16386SOL    HW161217   5.292   2.932   1.918 -1.1559  1.0525  2.2685
16386SOL    HW261218   5.169   2.919   1.811 -0.8671 -1.8321  2.2489
16387SOL     OW61219   7.462   2.953   4.861  0.0344 -0.2424 -0.4245
16387SOL    HW161220   7.561   2.953   4.848 -0.0574  1.0865 -1.2953
16387SOL    HW261221   7.417   2.988   4.779 -1.0407  0.9045  0.6141
16388SOL     OW61222   0.359   4.399   0.438 -0.4552  0.1741 -0.0529
16388SOL    HW161223   0.371   4.486   0.390  0.5556  0.1739  0.1803
16388SOL    HW261224   0.347   4.325   0.371  0.8148  0.1922 -0.3260
16389SOL     OW61225   5.385   1.917   2.168 -0.3333  0.4022  0.0424
16389SOL    HW161226   5.367   2.001   2.116 -1.0184 -0.1993 -0.6895
16389SOL    HW261227   5.308   1.854   2.159  0.8494 -0.9665 -0.7245
16390SOL     OW61228   5.005   9.388   8.227  0.2929  0.3034  0.9655
16390SOL    HW161229   4.954   9.339   8.157  0.9995  1.5240 -0.4235
16390SOL    HW261230   4.958   9.378   8.315 -0.8767 -0.8053  0.2328
16391SOL     OW61231   4.440   1.633   8.058  0.2144 -0.2930  0.0122
16391SOL    HW161232   4.348   1.609   8.026  0.2351 -0.3951  0.0278
16391SOL    HW261233   4.473   1.713   8.008 -0.9808  1.4458  1.9168
16392SOL     OW61234   5.980   8.892   0.077 -0.2463 -0.3274  0.7832
16392SOL    HW161235   6.070   8.931   0.098 -1.5219  2.6632  1.0795
16392SOL    HW261236   5.964   8.898  -0.021  0.2569 -1.7771  0.6042
16393SOL     OW61237   2.070   3.473   9.216 -0.3222 -0.3326 -0.0835
16393SOL    HW161238   2.077   3.434   9.124  1.8009 -0.3315  0.0683
16393SOL    HW261239   2.161   3.482   9.256 -1.0553  1.7153  1.1812
16394SOL     OW61240   7.641   4.332   5.248  0.2264 -0.0522 -0.0024
16394SOL    HW161241   7.543   4.326   5.233  0.1924  0.2213  0.1041
16394SOL    HW261242   7.678   4.241   5.271  0.1764 -0.3606 -1.1086
16395SOL     OW61243   7.372   2.564   7.694  0.1712 -0.0688  0.3083
16395SOL    HW161244   7.278   2.537   7.716  0.0364  0.0410 -0.1375
16395SOL    HW261245   7.373   2.616   7.609  0.6427 -0.0998  0.2943
16396SOL     OW61246   8.407   2.152   7.876 -0.0970  0.3334  0.3735
16396SOL    HW161247   8.452   2.168   7.964  0.1457 -1.1701  0.5439
16396SOL    HW261248   8.421   2.056   7.849 -1.1870  0.4773 -0.7242
16397SOL     OW61249   4.368   1.882   2.344  0.4913  0.2981 -0.4866
16397SOL    HW161250   4.463   1.869   2.373  0.5680 -1.3043 -1.3805
16397SOL    HW261251   4.335   1.970   2.377  1.9543  0.4165  0.7243
16398SOL     OW61252   7.733   0.613   4.949  0.6687  0.0707 -0.1015
16398SOL    HW161253   7.739   0.708   4.920 -0.9446  0.1952 -0.0301
16398SOL    HW261254   7.700   0.557   4.873  1.7123 -0.4657 -0.1790
16399SOL     OW61255   0.793   1.019   3.082 -0.0446  0.6564  0.2852
16399SOL    HW161256   0.808   0.955   3.006 -1.8586 -0.7432  1.0841
16399SOL    HW261257   0.881   1.042   3.123  0.6659 -1.0731 -0.2132
16400SOL     OW61258   6.193   3.721   1.020 -0.8649  0.3659  0.3411
16400SOL    HW161259   6.283   3.678   1.025 -0.8983  0.3676  1.0977
16400SOL    HW261260   6.202   3.814   0.985 -0.7905 -0.2356 -1.2852
16401SOL     OW61261   2.188   7.660   0.905 -0.0560 -0.1980 -0.0763
16401SOL    HW161262   2.100   7.623   0.875  0.2352 -0.6829 -0.3316
16401SOL    HW261263   2.258   7.636   0.838  0.5093 -0.8641  0.7527
16402SOL     OW61264   9.404   3.136   0.667  0.4439 -0.1799  0.5394
16402SOL    HW161265   9.306   3.118   0.677  0.4998 -0.8071  0.0493
16402SOL    HW261266   9.446   3.060   0.616  1.2048  0.0191  0.8710
16403SOL     OW61267   5.816   9.919   2.260  0.1300 -0.3411  0.1141
16403SOL    HW161268   5.749   9.992   2.270 -0.2257 -0.7296  0.6505
16403SOL    HW261269   5.808   9.879   2.169  1.1716  1.0979 -0.6196
16404SOL     OW61270   6.735   0.427   5.138 -0.1311 -0.4218 -0.0487
16404SOL    HW161271   6.769   0.369   5.064  1.6417  0.3522  0.1238
16404SOL    HW261272   6.798   0.503   5.152 -0.8734 -0.0996  1.7034
16405SOL     OW61273   6.351   8.085   1.195 -0.6607  0.6766 -0.7118
16405SOL    HW161274   6.339   8.106   1.292  0.9210  0.4020 -0.4299
16405SOL    HW261275   6.268   8.043   1.159 -0.7214 -0.7327  0.9646
16406SOL     OW61276   2.577   7.903   9.334 -0.2096 -0.6371 -0.0025
16406SOL    HW161277   2.525   7.825   9.299 -2.8343 -0.2720  2.8382
16406SOL    HW261278   2.593   7.891   9.432  2.5829  0.6939 -0.2520
16407SOL     OW61279   7.567   1.412   1.391 -0.3991  0.1739  0.1313
16407SOL    HW161280   7.550   1.323   1.348  2.3842 -0.1637 -0.3782
16407SOL    HW261281   7.634   1.401   1.465 -0.3985  1.7565  0.3825
16408SOL     OW61282   5.746   7.002   2.097 -0.2642 -0.4071  0.2808
16408SOL    HW161283   5.785   7.009   2.005 -1.9877 -0.0813 -0.4376
16408SOL    HW261284   5.712   7.091   2.126  0.4074 -0.4787  1.2960
16409SOL     OW61285   5.619   9.377   1.767  0.5491  0.2865  0.2059
16409SOL    HW161286   5.611   9.459   1.710  0.8628 -0.8830 -1.5566
16409SOL    HW261287   5.706   9.331   1.746  0.5067 -0.3406  1.3983
16410SOL     OW61288   5.241   0.211   8.935  0.1840  0.1203 -0.0955
16410SOL    HW161289   5.157   0.244   8.979  0.9232  1.5405  0.3050
16410SOL    HW261290   5.247   0.112   8.944 -0.2779  0.2448  1.9800
16411SOL     OW61291   8.609   2.607   5.684 -0.1348 -0.0331  0.9856
16411SOL    HW161292   8.593   2.705   5.676  1.4188  0.2418  1.1705
16411SOL    HW261293   8.703   2.586   5.658 -0.5773 -1.5309  0.5322
16412SOL     OW61294   4.142   0.864   1.478 -0.0081 -0.4647 -0.6548
16412SOL    HW161295   4.043   0.854   1.468 -0.2788  0.2418  1.1435
16412SOL    HW261296   4.169   0.956   1.450  0.6048 -1.6110 -4.1066
16413SOL     OW61297   7.874   2.062   9.663  0.4759 -0.1128 -0.4297
16413SOL    HW161298   7.775   2.063   9.649  0.6835 -0.5063 -1.9016
16413SOL    HW261299   7.897   2.127   9.736 -0.5429  2.4560 -2.3136
16414SOL     OW61300   2.954   8.592   4.452 -0.0967 -0.2290 -0.0882
16414SOL    HW161301   2.961   8.525   4.377  1.1832 -0.7039  0.4453
16414SOL    HW261302   2.933   8.545   4.537  2.6266 -0.1920  0.6449
16415SOL     OW61303   4.517   5.016   2.054  0.1070 -0.0933 -0.2073
16415SOL    HW161304   4.596   4.976   2.007  0.3590  0.7463 -0.5042
16415SOL    HW261305   4.433   4.984   2.011  0.2851 -0.7534 -0.0794
16416SOL     OW61306   6.422   2.619   1.198 -0.1697  0.3845  0.7502
16416SOL    HW161307   6.342   2.676   1.176 -0.8581 -1.2200 -1.0323
16416SOL    HW261308   6.396   2.523   1.196  1.4832 -0.0988  1.6266
16417SOL     OW61309   8.645   3.868   9.030  0.5160  0.3099  0.0150
16417SOL    HW161310   8.635   3.966   9.010 -0.0863  0.7190  2.1940
16417SOL    HW261311   8.571   3.839   9.091  0.8852 -1.4323 -0.3544
16418SOL     OW61312   9.675   7.043   1.807 -0.0089 -0.5463  0.1397
16418SOL    HW161313   9.657   6.947   1.785 -2.5060 -0.1670  0.3649
16418SOL    HW261314   9.718   7.049   1.897 -0.3554 -1.4164  0.3692
16419SOL     OW61315   7.337   3.753   9.746 -0.9147  0.5397 -0.5793
16419SOL    HW161316   7.272   3.805   9.691 -1.2296  0.8187  0.0557
16419SOL    HW261317   7.351   3.799   9.834 -0.3496  0.1398 -0.4577
16420SOL     OW61318   0.985   5.710   0.387 -0.4547  0.3849  0.4145
16420SOL    HW161319   1.031   5.624   0.365 -0.4577  0.3709  0.4623
16420SOL    HW261320   0.948   5.705   0.480  1.3789  1.2142  1.2046
16421SOL     OW61321   0.476   8.695   1.230 -0.8727  0.5425 -0.4302
16421SOL    HW161322   0.428   8.625   1.177 -0.2715  1.8255 -2.7611
16421SOL    HW261323   0.419   8.777   1.234 -1.6045 -0.0698  2.3431
16422SOL     OW61324   9.469   9.298   5.681 -0.2985 -0.1598  0.4386
16422SOL    HW161325   9.427   9.279   5.592 -0.0930  2.3598 -0.2341
16422SOL    HW261326   9.555   9.247   5.688 -0.7833 -1.1251 -0.3930
16423SOL     OW61327   6.962   1.744   1.296 -0.4272  0.0506  0.2738
16423SOL    HW161328   6.997   1.762   1.203 -0.1839 -0.1511  0.3255
16423SOL    HW261329   6.863   1.731   1.292 -0.3004 -0.8017 -0.0809
16424SOL     OW61330   3.405   9.693   8.606  0.7350  0.3480  0.6844
16424SOL    HW161331   3.325   9.741   8.570 -0.0475 -0.7120  0.9781
16424SOL    HW261332   3.386   9.663   8.700  2.4690  2.4322  1.7343
16425SOL     OW61333   7.952   1.776   1.066 -0.7234 -0.4498  0.3094
16425SOL    HW161334   7.937   1.855   1.006 -1.2126 -0.7394  0.0494
16425SOL    HW261335   7.864   1.736   1.091 -0.4829 -0.8281  0.5539
16426SOL     OW61336   9.451   2.984   1.060 -0.1599 -0.3634 -0.1978
16426SOL    HW161337   9.507   3.033   0.994 -0.3687 -0.4504 -0.4383
16426SOL    HW261338   9.423   2.896   1.021 -1.5907  0.2473 -0.6059
16427SOL     OW61339   5.628   3.611   9.388  0.5410 -0.0368 -0.1311
16427SOL    HW161340   5.571   3.692   9.406 -0.5692 -0.8986  0.2714
16427SOL    HW261341   5.672   3.621   9.298  0.5696  1.0980 -0.0029
16428SOL     OW61342   6.922   0.290   9.494 -1.1596  0.2897  0.3927
16428SOL    HW161343   6.983   0.283   9.415 -0.6809 -0.4447  0.8226
16428SOL    HW261344   6.973   0.269   9.578 -2.3422 -1.7536  0.6135
16429SOL     OW61345   5.358   9.305   1.887 -0.0081  0.7169  0.2162
16429SOL    HW161346   5.444   9.322   1.839  0.2419  0.7524  0.6706
16429SOL    HW261347   5.378   9.284   1.983 -0.3075 -1.7652 -0.2212
16430SOL     OW61348   7.692   0.913   6.644  0.2256  0.6804  0.2347
16430SOL    HW161349   7.771   0.973   6.660 -0.6583  1.3596  2.1820
16430SOL    HW261350   7.717   0.819   6.668  0.4239  0.9042  0.9197
16431SOL     OW61351   9.456   6.543   6.796 -0.0327 -0.1245  0.3284
16431SOL    HW161352   9.465   6.450   6.832  1.6448  0.6793  2.0967
16431SOL    HW261353   9.534   6.564   6.737  1.0274  1.0528  2.0997
16432SOL     OW61354   5.666   6.527   5.215 -0.1733 -0.2251 -0.5553
16432SOL    HW161355   5.689   6.558   5.123  1.9066 -1.7908 -0.5954
16432SOL    HW261356   5.570   6.499   5.218 -0.2483 -0.2135 -2.2628
16433SOL     OW61357   8.132   4.148   2.806  0.1055 -0.3514  0.0126
16433SOL    HW161358   8.194   4.155   2.884  0.4175 -1.3656 -0.1327
16433SOL    HW261359   8.040   4.174   2.835  0.3070 -0.2717  0.6022
16434SOL     OW61360   9.914   0.583   5.962 -0.2123 -0.4458  0.2169
16434SOL    HW161361   9.934   0.665   5.910  1.7962 -0.0046  1.6436
16434SOL    HW261362   9.906   0.505   5.900 -0.7124  0.5557 -0.9977
16435SOL     OW61363   9.957   9.330   4.097  0.2779  0.2562  0.4697
16435SOL    HW161364  10.041   9.287   4.063  0.9937  1.8799  0.1376
16435SOL    HW261365   9.976   9.425   4.122 -1.5610  0.7858 -0.0562
16436SOL     OW61366   4.283   9.215   6.248  0.0029  0.1709 -0.7351
16436SOL    HW161367   4.323   9.126   6.273 -0.1901  0.2181 -0.2723
16436SOL    HW261368   4.356   9.282   6.235  0.0914  0.1868 -0.1527
16437SOL     OW61369   5.723   8.273   6.502  0.3339  0.6772  0.2969
16437SOL    HW161370   5.682   8.229   6.582  0.3326  1.9516  1.0083
16437SOL    HW261371   5.655   8.278   6.429  0.0507  0.3555  0.5323
16438SOL     OW61372   4.593   7.891   3.726 -0.3277 -0.2412 -0.1090
16438SOL    HW161373   4.528   7.964   3.748 -0.1969 -0.6252  1.6690
16438SOL    HW261374   4.575   7.857   3.634 -0.4250  1.9878 -0.9630
16439SOL     OW61375   2.074   8.937   2.898  0.0865  0.3141 -0.0127
16439SOL    HW161376   2.107   8.849   2.862  2.1112  0.9521  0.1889
16439SOL    HW261377   2.129   9.011   2.859 -1.2164  1.4408  0.2804
16440SOL     OW61378   6.609   8.786   5.907 -0.6545  0.1235  0.1574
16440SOL    HW161379   6.565   8.726   5.841  0.5273 -0.2114 -0.3371
16440SOL    HW261380   6.597   8.881   5.878  0.6495 -0.0605 -1.0662
16441SOL     OW61381   6.715   7.520   1.698 -0.3145 -0.4793 -0.3652
16441SOL    HW161382   6.645   7.591   1.688 -1.4047 -1.5105 -0.1909
16441SOL    HW261383   6.697   7.468   1.782  0.1101 -1.3639 -0.8192
16442SOL     OW61384   7.811   8.518   3.072 -0.1655 -0.2812  0.0282
16442SOL    HW161385   7.911   8.517   3.076 -0.0868 -2.1485 -1.3991
16442SOL    HW261386   7.782   8.549   2.981 -0.8810  0.3062  0.4587
16443SOL     OW61387   3.509   1.177   3.507  0.1512 -0.4286 -0.2577
16443SOL    HW161388   3.560   1.253   3.549 -1.3662 -1.2244  3.2356
16443SOL    HW261389   3.573   1.117   3.459  1.7406  1.5681 -0.7232
16444SOL     OW61390   7.431   3.164   9.545  0.5628 -0.0375  0.4010
16444SOL    HW161391   7.425   3.152   9.644 -2.1374  0.7836  0.3677
16444SOL    HW261392   7.464   3.256   9.524 -1.3283  0.6738  0.5293
16445SOL     OW61393   3.682   8.201   2.088 -0.2811  0.2596  0.2315
16445SOL    HW161394   3.732   8.273   2.040 -1.5832  2.0405  1.4963
16445SOL    HW261395   3.743   8.122   2.101  0.4998  0.2466 -3.0884
16446SOL     OW61396   6.137   0.565   7.653  0.0350  0.4824  0.9823
16446SOL    HW161397   6.101   0.654   7.679  0.6983  0.6758  1.2417
16446SOL    HW261398   6.063   0.507   7.619 -0.4312  1.0514  1.0370
16447SOL     OW61399   2.376   0.474   2.192  1.0299 -0.0217 -0.0668
16447SOL    HW161400   2.475   0.471   2.201  0.9419 -0.7190  0.6949
16447SOL    HW261401   2.343   0.567   2.207  1.4033 -0.1154  1.3251
16448SOL     OW61402   7.150   2.464   9.954  0.0832 -0.5745 -0.0116
16448SOL    HW161403   7.179   2.499   9.865 -1.6526  0.1385 -0.3240
16448SOL    HW261404   7.147   2.539  10.020 -0.8420 -0.6605  0.0559
16449SOL     OW61405   6.233   2.569   7.866 -0.4060 -0.4372  0.1641
16449SOL    HW161406   6.175   2.516   7.928 -1.2856 -0.1620 -0.4185
16449SOL    HW261407   6.178   2.604   7.790 -0.0464  2.1352  1.0312
16450SOL     OW61408   3.978   9.608   6.936 -0.5696 -0.2028 -0.2108
16450SOL    HW161409   3.936   9.671   7.001 -1.9836 -0.8998 -0.4382
16450SOL    HW261410   3.910   9.543   6.903  0.3648 -0.5020 -1.6252
16451SOL     OW61411   6.996   9.810   0.725  0.2524  0.0067  0.4838
16451SOL    HW161412   7.084   9.854   0.740  0.4991 -0.1498 -0.4960
16451SOL    HW261413   6.946   9.858   0.653  0.1947 -0.8451 -0.0508
16452SOL     OW61414   0.487   9.748   6.537 -0.0554  0.0566 -0.2919
16452SOL    HW161415   0.506   9.655   6.568 -0.2171 -0.3130 -1.2872
16452SOL    HW261416   0.573   9.795   6.518  0.0755  0.5925  1.6011
16453SOL     OW61417   9.522   6.835   6.478 -0.9243 -0.2496  0.0801
16453SOL    HW161418   9.556   6.765   6.542  0.9337 -0.1264 -0.7560
16453SOL    HW261419   9.464   6.792   6.409 -0.1435 -0.9087 -0.1714
16454SOL     OW61420   4.035   7.625   0.428  0.2134  0.0402  0.4648
16454SOL    HW161421   4.042   7.703   0.490 -1.9997 -0.8370  1.9062
16454SOL    HW261422   4.013   7.658   0.336  1.8200  1.2472  0.4883
16455SOL     OW61423   8.996   7.073   5.499 -0.3715 -0.2648 -0.3852
16455SOL    HW161424   8.973   7.122   5.583 -0.3583  0.2069 -0.6565
16455SOL    HW261425   9.064   7.124   5.448  0.9829 -1.4363  0.1975
16456SOL     OW61426   1.641   0.054   9.411 -1.1575  0.3051  0.5387
16456SOL    HW161427   1.643  -0.027   9.353 -0.2353 -0.0072  0.9897
16456SOL    HW261428   1.645   0.026   9.507  1.2458  0.9199  0.6695
16457SOL     OW61429   8.280   8.748   2.041 -0.6022  0.2412  0.2227
16457SOL    HW161430   8.270   8.789   1.950  1.5016 -0.0889 -0.1817
16457SOL    HW261431   8.193   8.708   2.069 -1.1834  0.0248 -1.8023
16458SOL     OW61432   9.395   2.389   8.532  0.2221  0.3484 -0.1054
16458SOL    HW161433   9.368   2.408   8.627 -1.0316 -0.2244 -0.3365
16458SOL    HW261434   9.458   2.312   8.529 -1.7849 -1.3194  0.0436
16459SOL     OW61435   0.165   7.461   4.573  0.1509  0.2325  0.3929
16459SOL    HW161436   0.125   7.390   4.516  2.5324 -0.8858  0.0270
16459SOL    HW261437   0.149   7.441   4.670 -0.7779  0.2017  0.2312
16460SOL     OW61438   2.533   3.682   5.588  0.3172 -0.2712 -0.0702
16460SOL    HW161439   2.581   3.658   5.504  0.6692  1.6689 -0.4560
16460SOL    HW261440   2.600   3.696   5.662  0.1832  0.2663 -0.0494
16461SOL     OW61441   5.390   4.089   8.655  0.0262  0.0260  0.9150
16461SOL    HW161442   5.348   4.055   8.570 -0.8076  0.6601  1.0650
16461SOL    HW261443   5.432   4.013   8.704  0.3619 -0.3746  0.0095
16462SOL     OW61444   1.734   9.204   7.180  0.4689 -0.2895 -0.2034
16462SOL    HW161445   1.741   9.193   7.081  0.0501  3.0074 -0.6474
16462SOL    HW261446   1.641   9.231   7.204  1.1794  1.4196  0.7824
16463SOL     OW61447   7.118   7.518   4.588 -0.2312 -0.4991  0.1611
16463SOL    HW161448   7.076   7.452   4.525  1.7803  0.6528 -2.4711
16463SOL    HW261449   7.115   7.609   4.548 -0.4573  0.5856  2.5409
16464SOL     OW61450   8.299   9.394   4.454 -0.0796  0.0778 -0.2731
16464SOL    HW161451   8.254   9.356   4.535 -2.2541 -2.3328 -2.4764
16464SOL    HW261452   8.236   9.456   4.407 -0.1799 -1.2675 -1.9714
16465SOL     OW61453   1.993   0.902   1.384  0.8788 -0.0471  0.1826
16465SOL    HW161454   2.030   0.841   1.313 -2.5706 -0.7354 -1.1434
16465SOL    HW261455   1.934   0.849   1.445  1.5256  1.1188  1.8337
16466SOL     OW61456   1.407   3.063   9.593  0.1479 -0.3987  0.0097
16466SOL    HW161457   1.437   2.969   9.612  1.1842 -0.3658 -1.3889
16466SOL    HW261458   1.363   3.066   9.503  1.7289  0.7925 -0.7390
16467SOL     OW61459   7.712   0.508   3.546  0.4020  0.5075 -0.2643
16467SOL    HW161460   7.777   0.432   3.541  0.0922  0.1193  1.1740
16467SOL    HW261461   7.697   0.532   3.642 -1.5710  0.5932 -0.5723
16468SOL     OW61462   6.897   2.649   5.081 -0.4968  0.1235  0.0286
16468SOL    HW161463   6.863   2.619   5.170  0.0882 -0.1070  0.1789
16468SOL    HW261464   6.872   2.745   5.067  0.1164  0.4083  0.8019
16469SOL     OW61465   8.585   2.655   2.835  0.1874  0.8638 -0.0285
16469SOL    HW161466   8.585   2.597   2.753  0.3100 -0.1446  0.6760
16469SOL    HW261467   8.520   2.730   2.823  0.3699  0.8444 -1.1422
16470SOL     OW61468   0.586   3.062   5.200 -0.1119 -0.3731  0.0292
16470SOL    HW161469   0.545   3.077   5.110  0.1021 -0.6344 -0.1138
16470SOL    HW261470   0.684   3.041   5.189 -1.0060 -5.0449 -0.0596
16471SOL     OW61471   6.050   1.921   0.828 -0.2772 -0.0168  0.0656
16471SOL    HW161472   6.070   1.873   0.742  0.6736  0.0026  0.2723
16471SOL    HW261473   6.013   2.011   0.808  2.0489  0.8740 -0.3397
16472SOL     OW61474   3.330   8.265   7.982 -0.1386 -0.5130  0.1460
16472SOL    HW161475   3.308   8.222   7.895 -0.2372 -1.8412  0.8203
16472SOL    HW261476   3.374   8.353   7.965 -1.3271 -0.1548 -1.2346
16473SOL     OW61477   5.792   9.999   2.763 -0.3852 -0.1808  1.0633
16473SOL    HW161478   5.856   9.966   2.694 -0.6868  1.6818 -0.1549
16473SOL    HW261479   5.717   9.934   2.774  0.5731 -1.3194  0.8994
16474SOL     OW61480   0.047   2.087   6.378  0.8309  0.1754  0.0838
16474SOL    HW161481  -0.050   2.074   6.358  0.6128  0.9146  0.6375
16474SOL    HW261482   0.080   2.166   6.326  0.5945  1.2788  1.5729
16475SOL     OW61483   8.918   8.928   3.571  0.0235  0.4101 -0.1146
16475SOL    HW161484   8.951   8.913   3.665 -2.6583  0.7546  0.9400
16475SOL    HW261485   8.868   9.015   3.568  1.9742  1.4990 -2.4259
16476SOL     OW61486   5.496   0.363   6.686  0.0651  0.1818 -0.2224
16476SOL    HW161487   5.402   0.341   6.709 -0.4962  2.1524 -0.4726
16476SOL    HW261488   5.520   0.321   6.599 -1.9010  2.7515 -2.1095
16477SOL     OW61489   9.123   7.935   7.919  0.5824 -0.3962  0.0071
16477SOL    HW161490   9.118   8.021   7.868 -0.1766 -0.5829 -0.2443
16477SOL    HW261491   9.206   7.886   7.893  1.4306  0.6118  0.7292
16478SOL     OW61492   0.109   7.525   5.897  0.4352  0.3951  0.5457
16478SOL    HW161493   0.080   7.574   5.979  2.0114 -0.3610  1.5858
16478SOL    HW261494   0.056   7.440   5.889 -0.3453  0.9020  0.2769
16479SOL     OW61495   7.758   5.277   7.032 -0.2150 -0.4511  0.3814
16479SOL    HW161496   7.667   5.314   7.015  0.1208 -0.5285 -1.7719
16479SOL    HW261497   7.816   5.293   6.952  1.9709  0.4607  2.0652
16480SOL     OW61498   1.336   9.177   3.359 -0.6095  0.1659  0.0430
16480SOL    HW161499   1.386   9.193   3.444  0.9376 -0.1156 -0.7906
16480SOL    HW261500   1.238   9.188   3.375 -0.4899 -1.7288  2.2875
16481SOL     OW61501   8.495   1.379   2.258 -0.2203 -0.0978  0.4579
16481SOL    HW161502   8.483   1.466   2.305  0.6481 -0.3144  1.0998
16481SOL    HW261503   8.428   1.313   2.292 -1.2506  0.4752 -0.4377
16482SOL     OW61504   3.252   9.883   4.420 -0.1076 -0.2047 -0.1344
16482SOL    HW161505   3.244   9.794   4.375  0.2446 -0.7569  0.8732
16482SOL    HW261506   3.194   9.949   4.373  0.6670 -0.6265 -1.7332
16483SOL     OW61507   5.166   2.825   2.179 -0.0311  0.0768  0.4357
16483SOL    HW161508   5.148   2.923   2.182 -0.6109 -0.0242  0.1894
16483SOL    HW261509   5.121   2.785   2.099  3.3702  0.2579 -1.6783
16484SOL     OW61510   7.087   7.740   1.610 -0.2031  0.3948  0.1525
16484SOL    HW161511   7.033   7.666   1.568  2.1298  0.3172 -2.8367
16484SOL    HW261512   7.135   7.705   1.690  0.1326 -1.1214 -0.6900
16485SOL     OW61513   6.137   0.063   4.365  0.9462 -0.5733 -0.0719
16485SOL    HW161514   6.132  -0.017   4.425 -0.3235  0.9553  1.9302
16485SOL    HW261515   6.109   0.144   4.416  2.0949  1.1381 -2.1130
16486SOL     OW61516   9.095   2.446   3.294 -0.1191  0.5302 -0.4340
16486SOL    HW161517   9.140   2.508   3.359 -0.4631 -0.5646  0.8845
16486SOL    HW261518   9.155   2.431   3.216  0.5761  1.3824 -0.0803
16487SOL     OW61519   4.078   8.011   0.143 -0.0432  0.8347  0.2346
16487SOL    HW161520   3.997   8.030   0.087 -0.4661  0.2873  0.6604
16487SOL    HW261521   4.108   8.096   0.188  0.6487  1.4119 -1.2563
16488SOL     OW61522   8.698   0.725   6.815 -0.6964 -0.6466 -0.5084
16488SOL    HW161523   8.680   0.627   6.817 -1.6346 -0.4574  1.5953
16488SOL    HW261524   8.789   0.742   6.779 -0.0005 -2.3858  0.4041
16489SOL     OW61525   5.672   3.119   3.522 -0.2800 -0.0089 -0.2653
16489SOL    HW161526   5.726   3.060   3.462  0.4821 -0.6180  0.9888
16489SOL    HW261527   5.608   3.173   3.467 -0.3315 -1.3037 -1.5185
16490SOL     OW61528   8.088   0.905   2.562  0.2969 -0.5301 -0.3279
16490SOL    HW161529   7.990   0.906   2.544 -0.0560 -0.6252  1.4955
16490SOL    HW261530   8.107   0.955   2.647  1.9910  0.7672 -1.4424
16491SOL     OW61531   9.083   9.188   2.840  0.1527  0.1631 -0.0590
16491SOL    HW161532   9.109   9.099   2.878  0.8798  0.8059  0.9785
16491SOL    HW261533   9.033   9.241   2.908 -0.3714  0.5165 -0.7090
16492SOL     OW61534   5.000   7.749   1.457  0.0488  0.0486  0.5249
16492SOL    HW161535   5.064   7.740   1.533  0.1318  1.2344  0.6005
16492SOL    HW261536   5.013   7.838   1.412 -2.0508  0.6398  1.0236
16493SOL     OW61537   2.863   0.198   3.475  0.2319 -0.2606 -0.2585
16493SOL    HW161538   2.822   0.266   3.415 -0.5057 -0.9541 -0.5451
16493SOL    HW261539   2.958   0.183   3.447  0.6582  1.2803  0.3539
16494SOL     OW61540   3.865   6.254   3.197 -0.0950  0.0637 -0.0641
16494SOL    HW161541   3.852   6.314   3.276  0.9480  1.7853 -1.1547
16494SOL    HW261542   3.939   6.290   3.140 -0.9603 -1.0410 -1.9284
16495SOL     OW61543   3.004   2.395   3.120  0.1084  0.2866  0.9908
16495SOL    HW161544   2.960   2.325   3.064 -0.9072  1.7581 -0.1128
16495SOL    HW261545   3.081   2.434   3.070 -2.1968  3.2185 -0.4499
16496SOL     OW61546   5.936   3.240   2.244  0.3721 -0.0899  0.1405
16496SOL    HW161547   5.862   3.277   2.300 -2.0501 -0.8939 -2.4158
16496SOL    HW261548   5.986   3.172   2.296 -1.7575 -0.7515  1.3817
16497SOL     OW61549   3.628   3.567   8.251 -0.2029 -0.0891  0.3541
16497SOL    HW161550   3.607   3.494   8.186 -0.9812  2.4430 -2.3313
16497SOL    HW261551   3.727   3.580   8.255 -0.1264 -0.5528  0.0309
16498SOL     OW61552   9.249   7.272   5.946 -0.2251  0.0270 -0.0455
16498SOL    HW161553   9.210   7.193   5.898 -1.5727  1.6814 -1.7699
16498SOL    HW261554   9.349   7.265   5.946 -0.2754 -0.8933 -1.5852
16499SOL     OW61555   5.946   0.328   0.965 -0.0779 -0.7163 -0.3319
16499SOL    HW161556   5.892   0.299   0.886  0.8482  0.7980 -1.5438
16499SOL    HW261557   6.000   0.251   0.998  0.6407 -0.9996 -2.1013
16500SOL     OW61558   9.103   9.960   5.471 -0.6080 -0.4421  0.1238
16500SOL    HW161559   9.181   9.929   5.416  0.9412 -1.1469  2.6488
16500SOL    HW261560   9.070   9.884   5.528 -1.0482  0.7436  1.4756
16501SOL     OW61561   5.328   8.581   0.357 -0.1540  0.0687  0.0442
16501SOL    HW161562   5.339   8.676   0.385 -1.0283  0.2598 -0.2661
16501SOL    HW261563   5.242   8.545   0.392 -0.2601 -0.3299 -0.6154
16502SOL     OW61564   7.246   0.181   6.791  0.2301 -0.1557  0.3914
16502SOL    HW161565   7.282   0.094   6.758 -1.0357 -1.5551  2.6299
16502SOL    HW261566   7.256   0.250   6.719 -0.8686 -2.6902 -2.2759
16503SOL     OW61567   5.587   0.622   3.445 -0.3552 -0.2196 -0.4419
16503SOL    HW161568   5.510   0.563   3.420 -0.1823 -0.4975 -0.3268
16503SOL    HW261569   5.572   0.659   3.537 -0.4615 -0.0868 -0.5122
16504SOL     OW61570   3.237   1.012   5.103  0.2630  0.3228  0.3996
16504SOL    HW161571   3.194   1.097   5.131 -0.3177  0.9810 -2.3694
16504SOL    HW261572   3.281   1.024   5.014 -0.1074 -2.3191 -0.1899
16505SOL     OW61573   9.467   2.525   5.808  0.7642 -0.1821 -0.0870
16505SOL    HW161574   9.546   2.509   5.868  0.7303 -0.8139 -0.2116
16505SOL    HW261575   9.386   2.486   5.850  0.5948  0.0882 -0.1645
16506SOL     OW61576   8.664   3.725   2.214  0.1686 -0.3792  0.2669
16506SOL    HW161577   8.568   3.748   2.198  0.0582 -0.3705  0.9076
16506SOL    HW261578   8.710   3.711   2.127  0.2473  2.3711 -0.1767
16507SOL     OW61579   5.229   1.371   2.838  0.2403  0.1294 -0.4405
16507SOL    HW161580   5.321   1.399   2.863 -0.7114  2.1615  0.8791
16507SOL    HW261581   5.230   1.274   2.811  2.5801 -0.1112  0.3991
16508SOL     OW61582   6.498   1.525   8.563  0.0559 -0.0965  0.4549
16508SOL    HW161583   6.594   1.550   8.567  0.0956  0.0682 -1.3183
16508SOL    HW261584   6.474   1.495   8.471 -1.6676  0.1844  0.7784
16509SOL     OW61585   8.339   4.366   4.708 -0.3577 -0.2398 -0.3194
16509SOL    HW161586   8.339   4.326   4.800 -0.5747  0.2057 -0.1207
16509SOL    HW261587   8.431   4.364   4.671  0.3006  2.0624  1.0293
16510SOL     OW61588   0.419   6.990   6.641 -0.3623  0.3152  0.2393
16510SOL    HW161589   0.519   6.989   6.640 -0.3751 -0.1323 -1.3450
16510SOL    HW261590   0.386   6.923   6.707  0.3908  1.6363  2.0056
16511SOL     OW61591   9.168   6.734   8.707  0.3915 -0.2239 -0.1521
16511SOL    HW161592   9.068   6.731   8.713  0.4091 -0.3784  0.0259
16511SOL    HW261593   9.196   6.816   8.656  0.1782 -0.1563 -0.1594
16512SOL     OW61594   0.279   7.812   0.103  0.3489 -0.2438 -0.7260
16512SOL    HW161595   0.247   7.904   0.127 -1.0883 -0.9765  0.2338
16512SOL    HW261596   0.207   7.763   0.054  0.6258 -1.3086 -0.0779
16513SOL     OW61597   7.832   1.322   3.550  0.4993 -0.2036  0.1796
16513SOL    HW161598   7.810   1.332   3.647 -1.7125  1.2143 -0.4185
16513SOL    HW261599   7.755   1.278   3.503  0.8270  0.6857 -1.2146
16514SOL     OW61600   8.761   3.048   4.703 -0.0742  0.7316 -0.1991
16514SOL    HW161601   8.751   3.129   4.646 -0.0963  0.0500 -1.1792
16514SOL    HW261602   8.858   3.035   4.726  0.0805  0.4129 -0.9883
16515SOL     OW61603   1.834   4.203   3.400 -0.5525 -0.1422  0.3895
16515SOL    HW161604   1.933   4.192   3.389 -0.5906 -0.1660  0.0883
16515SOL    HW261605   1.817   4.268   3.475 -0.2982  0.4660 -0.0744
16516SOL     OW61606   7.405   3.457   4.061 -0.2637 -0.2679  0.1185
16516SOL    HW161607   7.475   3.480   3.993  2.7362  0.6863  3.3740
16516SOL    HW261608   7.365   3.368   4.038 -1.1821  1.1389 -4.2200
16517SOL     OW61609   6.740   1.093   5.174 -0.3646 -0.0489  0.3357
16517SOL    HW161610   6.684   1.022   5.132 -1.9346  0.7706  0.9968
16517SOL    HW261611   6.811   1.123   5.110 -0.6362 -1.1322 -0.4843
16518SOL     OW61612   1.259   7.917   7.463  0.1657  0.4296  0.0068
16518SOL    HW161613   1.169   7.873   7.452  0.1255  0.0651  1.7046
16518SOL    HW261614   1.323   7.852   7.503  0.7489  1.2075  0.3466
16519SOL     OW61615   4.263   2.876   5.400 -0.4718  0.0368  0.1518
16519SOL    HW161616   4.188   2.911   5.344 -0.3842  0.4692  0.3008
16519SOL    HW261617   4.301   2.794   5.358 -1.8181 -0.8895  0.7039
16520SOL     OW61618   9.345   1.788   3.241  0.3622 -0.2102  0.0036
16520SOL    HW161619   9.401   1.864   3.274 -0.0293  0.3142 -0.5583
16520SOL    HW261620   9.252   1.819   3.223  0.5412 -0.5245 -1.4910
16521SOL     OW61621   2.804   0.007   2.469 -0.1894  0.1768 -0.2607
16521SOL    HW161622   2.894   0.047   2.448  0.1246 -1.0562 -1.3655
16521SOL    HW261623   2.746   0.076   2.511  1.5559  0.7726  1.2501
16522SOL     OW61624   6.583   2.458   4.124 -0.0833 -0.3042 -0.5117
16522SOL    HW161625   6.578   2.380   4.185 -0.7486 -0.1934 -0.4165
16522SOL    HW261626   6.612   2.427   4.033  3.8136 -0.0464  0.5716
16523SOL     OW61627   0.890   3.873   1.910  0.0276  0.1841  0.2113
16523SOL    HW161628   0.913   3.777   1.896 -0.5369 -0.2042  1.9058
16523SOL    HW261629   0.820   3.900   1.843 -0.0712 -0.6835 -0.0427
16524SOL     OW61630   5.155   1.008   7.015  0.3374 -0.1806  0.1761
16524SOL    HW161631   5.081   0.941   7.007  0.7372 -0.5416 -0.5022
16524SOL    HW261632   5.211   0.986   7.094  0.9583 -1.1305 -0.5300
16525SOL     OW61633   6.511   0.191   7.364  0.5122 -0.0572 -0.5472
16525SOL    HW161634   6.538   0.120   7.430 -0.2910 -2.1423 -2.4118
16525SOL    HW261635   6.572   0.270   7.374  2.1402 -1.4340  0.8332
16526SOL     OW61636   3.617   4.915   3.134 -0.7396  0.0851 -0.1334
16526SOL    HW161637   3.649   4.905   3.228 -1.1940  2.0307  0.2417
16526SOL    HW261638   3.518   4.910   3.131 -0.6346 -2.2648 -0.8313
16527SOL     OW61639   3.580   0.364   8.727 -0.4771 -0.3770  0.0322
16527SOL    HW161640   3.674   0.334   8.745 -0.3199  0.1622  0.1038
16527SOL    HW261641   3.517   0.302   8.772 -0.1992 -1.5209 -1.0937
16528SOL     OW61642   9.003   4.870   1.968 -0.4075  0.0114  0.4231
16528SOL    HW161643   9.074   4.896   1.902 -0.2361 -1.7705 -0.1162
16528SOL    HW261644   8.922   4.926   1.952  0.1177  0.5669 -0.3827
16529SOL     OW61645   7.768   0.702   3.144 -0.7647  0.5572  0.6874
16529SOL    HW161646   7.697   0.667   3.205 -0.4735  0.9415  1.2502
16529SOL    HW261647   7.731   0.712   3.051 -1.4883  0.9143  1.0149
16530SOL     OW61648   7.829   5.764   6.887  0.1656  0.2473  0.7165
16530SOL    HW161649   7.732   5.746   6.901 -0.0461  1.0334  0.2751
16530SOL    HW261650   7.883   5.702   6.944 -0.5785 -0.5732  0.5445
16531SOL     OW61651   3.378   2.207   7.804 -0.5058  0.1327 -0.2408
16531SOL    HW161652   3.312   2.278   7.827 -1.1883 -0.8288  0.7976
16531SOL    HW261653   3.384   2.141   7.878  1.3856  0.0225 -0.4629
16532SOL     OW61654   9.776   6.416   3.113  0.2944 -0.2094  0.4552
16532SOL    HW161655   9.862   6.455   3.081  1.2647 -1.8982  0.9403
16532SOL    HW261656   9.733   6.364   3.039  0.5702 -0.8215  0.7220
16533SOL     OW61657   4.637   1.263   6.168 -0.1228 -0.1540 -0.1931
16533SOL    HW161658   4.629   1.230   6.262  3.0627 -2.4179 -0.6357
16533SOL    HW261659   4.574   1.213   6.109  0.8529 -1.7024  0.0630
16534SOL     OW61660   1.111   2.848   8.881  0.1873 -0.7181 -0.1319
16534SOL    HW161661   1.053   2.770   8.857  1.2049 -1.8122  0.9161
16534SOL    HW261662   1.201   2.837   8.839  0.6278 -0.5447  0.7662
16535SOL     OW61663   9.751   8.479   3.254  0.0785  0.4708  1.4144
16535SOL    HW161664   9.691   8.402   3.275  3.0000 -1.1685  4.1330
16535SOL    HW261665   9.763   8.486   3.155 -1.8720 -1.2380  1.0305
16536SOL     OW61666   0.085   8.373   5.798  0.8752  0.4171 -0.0275
16536SOL    HW161667   0.176   8.351   5.763  0.0971  0.2392 -1.9985
16536SOL    HW261668   0.019   8.308   5.762 -0.0684  0.5922  1.3272
16537SOL     OW61669   4.925   2.472   3.126  0.0410  0.3011  0.1459
16537SOL    HW161670   4.833   2.438   3.141 -0.2747  0.9108 -0.4108
16537SOL    HW261671   4.984   2.397   3.094  0.1755 -0.4954  2.1723
16538SOL     OW61672   0.143   8.545   3.106  0.1952  0.2182  0.4256
16538SOL    HW161673   0.229   8.496   3.088 -0.2694 -0.4731  0.0447
16538SOL    HW261674   0.084   8.539   3.026 -0.9783 -0.9554  1.3393
16539SOL     OW61675   5.897   9.058   1.264 -0.3491  0.0018  0.2419
16539SOL    HW161676   5.861   9.145   1.231  0.2036  0.9128  1.9549
16539SOL    HW261677   5.829   9.013   1.321 -0.6088 -0.6539 -0.5881
16540SOL     OW61678   7.001   9.175   8.840 -0.0155 -0.5789 -0.6872
16540SOL    HW161679   6.983   9.077   8.838  2.0405 -1.0069  0.9682
16540SOL    HW261680   6.962   9.214   8.923  0.3536 -0.2188 -0.6836
16541SOL     OW61681   7.114   8.420   4.909 -0.8597  0.1484 -0.1175
16541SOL    HW161682   7.104   8.359   4.988 -0.5363 -1.1684 -1.0919
16541SOL    HW261683   7.026   8.432   4.865 -1.1091  1.1683  0.6384
16542SOL     OW61684   9.615   0.635   4.723  0.3530 -0.5208  0.0189
16542SOL    HW161685   9.518   0.615   4.710  0.3456  0.6279 -1.9557
16542SOL    HW261686   9.629   0.676   4.813 -1.4183  1.7376 -0.6927
16543SOL     OW61687   6.659   9.740   1.477  0.7394 -0.1315  0.3351
16543SOL    HW161688   6.581   9.802   1.487  0.0833 -0.8015 -0.6161
16543SOL    HW261689   6.710   9.738   1.563  0.9228  1.9163  0.3029
16544SOL     OW61690   4.008   8.567   1.248  0.2375 -0.3175 -0.2291
16544SOL    HW161691   4.051   8.638   1.305  1.3666 -0.5493 -0.7932
16544SOL    HW261692   4.028   8.584   1.152  0.8183 -1.5980 -0.3475
16545SOL     OW61693   8.976   8.129   9.382  0.6718 -0.1681  0.3078
16545SOL    HW161694   8.905   8.079   9.331  2.0095 -2.3515  0.5122
16545SOL    HW261695   8.987   8.087   9.472  2.7770 -0.3910 -0.0234
16546SOL     OW61696   8.427   2.424   3.093 -0.1897  0.4939 -0.7021
16546SOL    HW161697   8.350   2.488   3.084 -0.9197 -0.4370 -1.2870
16546SOL    HW261698   8.429   2.365   3.012  1.8061  1.2085 -1.1868
16547SOL     OW61699   8.176   5.032   7.998  0.4177 -0.2944  0.1006
16547SOL    HW161700   8.220   4.989   7.919 -0.4908 -1.0237 -0.0211
16547SOL    HW261701   8.135   4.962   8.056  1.2582  0.2227  1.3452
16548SOL     OW61702   3.494   9.195   4.035  0.3406 -0.6008  0.4087
16548SOL    HW161703   3.553   9.269   4.002  1.0112 -0.8258  1.0957
16548SOL    HW261704   3.518   9.173   4.129 -0.9905 -0.5555  0.7667
16549SOL     OW61705   9.481   8.810   4.908 -0.3881 -0.2768  0.4096
16549SOL    HW161706   9.581   8.803   4.909 -0.3441  0.0808 -0.5123
16549SOL    HW261707   9.443   8.731   4.858 -0.4723  0.4187 -0.6445
16550SOL     OW61708   5.265   2.210   8.869  0.3764  0.2529  0.2145
16550SOL    HW161709   5.357   2.249   8.860  0.7057 -0.6213 -0.2465
16550SOL    HW261710   5.198   2.273   8.831  0.8496  0.6018 -0.0476
16551SOL     OW61711   8.486   6.171   6.191 -0.0797 -0.3042 -0.6312
16551SOL    HW161712   8.476   6.168   6.091  0.9558 -2.0595 -0.7023
16551SOL    HW261713   8.471   6.079   6.228 -3.6282  0.9103  1.1650
16552SOL     OW61714   3.518   8.525   3.071  0.4382 -0.2279  0.4057
16552SOL    HW161715   3.588   8.455   3.086  1.3849  0.8886  1.2751
16552SOL    HW261716   3.433   8.482   3.041  1.5123 -1.6024 -0.7301
16553SOL     OW61717   0.226   5.102   4.813 -0.1131  0.1069  0.1657
16553SOL    HW161718   0.166   5.156   4.754 -0.3104 -0.4563 -0.1482
16553SOL    HW261719   0.207   5.005   4.801 -1.2977  0.0349  2.3481
16554SOL     OW61720   5.013   1.909   0.518 -0.7912  0.1102 -0.0718
16554SOL    HW161721   4.925   1.900   0.472 -0.9742  1.0315  0.0847
16554SOL    HW261722   5.004   1.972   0.596 -0.4222 -1.1941  1.0555
16555SOL     OW61723   0.044   2.679   0.838 -0.2132 -0.4783 -0.2498
16555SOL    HW161724   0.104   2.732   0.898 -0.7674  0.6593 -0.6850
16555SOL    HW261725   0.013   2.596   0.886 -1.1549  0.7219  1.2779
16556SOL     OW61726   7.887   3.162   1.408  0.2879  0.4144  0.0608
16556SOL    HW161727   7.971   3.184   1.358  0.2796  3.9651  1.4776
16556SOL    HW261728   7.897   3.190   1.504 -2.1072 -0.1610  0.4971
16557SOL     OW61729   4.737   4.319   9.371 -0.6910 -0.7403  0.1149
16557SOL    HW161730   4.775   4.277   9.454  1.0258 -0.8638 -0.7150
16557SOL    HW261731   4.686   4.401   9.396  1.0424  0.0566  1.1857
16558SOL     OW61732   7.867   3.910   3.767  0.0069  0.4485 -0.2744
16558SOL    HW161733   7.819   3.836   3.720  0.7292  0.5693 -1.2349
16558SOL    HW261734   7.960   3.919   3.729  0.7695  0.2549  1.5053
16559SOL     OW61735   5.836   0.852   3.962  0.2998 -0.0054 -0.1975
16559SOL    HW161736   5.896   0.898   4.027 -0.2918 -1.0400  1.0951
16559SOL    HW261737   5.890   0.791   3.904  0.6812  0.0706  0.0777
16560SOL     OW61738   8.652   9.518   4.193  0.3233  0.1091 -0.0734
16560SOL    HW161739   8.715   9.495   4.267 -0.7090  1.8337  1.3931
16560SOL    HW261740   8.578   9.451   4.190  2.3519 -2.1441 -2.0496
16561SOL     OW61741   7.285   2.950   6.509  0.5759  0.2208 -0.3834
16561SOL    HW161742   7.214   2.886   6.538  0.5436  0.3254 -0.2316
16561SOL    HW261743   7.369   2.900   6.488  0.9469  0.2677  0.9810
16562SOL     OW61744   6.679   2.395   2.953  0.3154  0.5602  0.3507
16562SOL    HW161745   6.611   2.332   2.991  0.1332 -0.0545 -0.9733
16562SOL    HW261746   6.657   2.488   2.981 -2.2089  0.6193 -1.6667
16563SOL     OW61747   6.672   8.657   9.964 -0.4358 -0.5337  0.0902
16563SOL    HW161748   6.750   8.719   9.973  0.6902 -1.8292 -0.5836
16563SOL    HW261749   6.645   8.624  10.055 -1.8419  1.8654  0.5933
16564SOL     OW61750   5.858   9.772   8.755  0.2843 -0.1672 -0.4805
16564SOL    HW161751   5.847   9.835   8.831 -2.1313 -1.1830  0.0731
16564SOL    HW261752   5.938   9.714   8.770  0.9336  0.9203  0.3218
16565SOL     OW61753   5.923   8.994   2.698  0.2063 -0.3167  0.1125
16565SOL    HW161754   5.985   9.030   2.627 -1.7676  1.0006 -1.0047
16565SOL    HW261755   5.925   9.055   2.777 -0.6903  0.4829 -0.4760
16566SOL     OW61756   5.159   0.720   3.064  0.0563 -0.6802 -0.0843
16566SOL    HW161757   5.229   0.785   3.093  1.2401 -1.6168 -0.7708
16566SOL    HW261758   5.090   0.710   3.136  0.8422 -0.0481  0.7662
16567SOL     OW61759   0.002   6.888   7.118 -0.8985  0.3761  0.4014
16567SOL    HW161760   0.058   6.904   7.199  0.8162  0.0459 -0.6915
16567SOL    HW261761  -0.021   6.976   7.076  0.0165  0.4649  0.0636
16568SOL     OW61762   1.162   4.528   6.229  0.8722  0.1817  0.4044
16568SOL    HW161763   1.143   4.462   6.301  0.0704  0.5872  0.5813
16568SOL    HW261764   1.206   4.609   6.269  0.6418  0.3079  0.4037
16569SOL     OW61765   2.880   9.416   4.126 -0.0915 -0.3229  0.4359
16569SOL    HW161766   2.885   9.317   4.140  1.3221 -0.0254  2.2255
16569SOL    HW261767   2.784   9.445   4.124 -0.5302 -1.8176 -0.8680
16570SOL     OW61768   6.284   2.578   2.258  0.7259  0.5430  0.2006
16570SOL    HW161769   6.309   2.502   2.318 -1.7443 -0.8478 -0.4716
16570SOL    HW261770   6.353   2.589   2.187  1.0577 -1.1611  0.2389
16571SOL     OW61771   4.227   2.313   6.642  0.3762  0.6743 -0.2309
16571SOL    HW161772   4.238   2.385   6.574  0.1805  2.4139  1.5275
16571SOL    HW261773   4.223   2.224   6.597 -0.1906  1.8265 -2.4940
16572SOL     OW61774   6.421   4.643   6.226  0.6521  0.2770 -0.4154
16572SOL    HW161775   6.345   4.697   6.263  1.6115  1.6402 -0.4142
16572SOL    HW261776   6.475   4.700   6.164  0.8501 -1.1004 -1.5234
16573SOL     OW61777   1.368   7.813   1.513 -0.3271  0.3917 -0.2673
16573SOL    HW161778   1.387   7.888   1.448  0.3407  0.2264 -0.2701
16573SOL    HW261779   1.321   7.739   1.465  0.2131  0.2466 -0.5861
16574SOL     OW61780   8.444   0.248   6.388  0.0919  0.3253  0.5079
16574SOL    HW161781   8.444   0.230   6.290  0.8810 -0.3874  0.6337
16574SOL    HW261782   8.352   0.274   6.418 -0.0281  1.0786 -0.5148
16575SOL     OW61783   6.213   7.301   4.914  0.2303  0.3542  0.2429
16575SOL    HW161784   6.238   7.397   4.925 -1.6854  0.8672  0.1923
16575SOL    HW261785   6.166   7.268   4.996 -0.7017 -0.0265 -0.4274
16576SOL     OW61786   3.476   4.292   6.308  0.4172 -0.0280 -0.2318
16576SOL    HW161787   3.469   4.193   6.291 -1.7445  0.3446 -1.6619
16576SOL    HW261788   3.551   4.330   6.254 -0.3047 -0.4895 -1.5869
16577SOL     OW61789   7.315   0.543   2.242 -0.1486 -0.0378 -0.1843
16577SOL    HW161790   7.221   0.550   2.276  0.1188  1.9676  0.2571
16577SOL    HW261791   7.378   0.568   2.315  0.6725 -0.2732 -0.8084
16578SOL     OW61792   8.373   1.214   4.823 -0.0313 -0.4823 -0.4115
16578SOL    HW161793   8.386   1.297   4.877 -0.4198 -1.1709  0.7654
16578SOL    HW261794   8.411   1.135   4.873  0.8334 -0.9445 -1.7553
16579SOL     OW61795   1.557   2.953   5.628  0.4487  0.0974 -0.7115
16579SOL    HW161796   1.471   2.911   5.600 -0.1187  0.7876 -0.0573
16579SOL    HW261797   1.560   3.048   5.595  0.0246  0.7358  0.9906
16580SOL     OW61798   7.719   1.815   1.568 -0.3029 -0.4612  0.1120
16580SOL    HW161799   7.706   1.913   1.553 -1.9075 -0.7997 -0.8329
16580SOL    HW261800   7.803   1.784   1.524 -0.3290  0.2897 -0.4559
16581SOL     OW61801   8.296   1.749   5.453  0.4685 -0.7182  0.6603
16581SOL    HW161802   8.281   1.684   5.528  0.5069 -1.2390  0.2146
16581SOL    HW261803   8.338   1.702   5.376  1.9367  0.1595  0.9080
16582SOL     OW61804   5.657   2.272   2.912  0.5040 -0.2721 -0.4117
16582SOL    HW161805   5.658   2.318   2.823  1.9651 -1.6610 -1.1519
16582SOL    HW261806   5.588   2.314   2.971  0.3464  1.4583 -1.7798
16583SOL     OW61807   5.014   0.443   3.405 -0.2171  0.0524  0.3599
16583SOL    HW161808   5.032   0.346   3.387 -0.3837  0.3471 -1.4837
16583SOL    HW261809   4.930   0.452   3.459 -0.8749 -0.7967 -0.4957
16584SOL     OW61810   5.926   8.801   6.689  0.1121 -0.3374 -0.1609
16584SOL    HW161811   5.908   8.734   6.617  0.2794  0.0516 -0.5708
16584SOL    HW261812   6.020   8.835   6.680 -0.1079  0.2638 -0.2227
16585SOL     OW61813   7.595   0.398   4.802  0.7278 -0.1385 -0.4729
16585SOL    HW161814   7.601   0.343   4.719 -0.2930 -2.1425  0.7574
16585SOL    HW261815   7.505   0.441   4.808  0.7445 -0.1241 -0.3160
16586SOL     OW61816   6.784   1.656   2.220  1.5870 -0.0387  0.1898
16586SOL    HW161817   6.792   1.744   2.172  1.5574 -0.4589 -0.5941
16586SOL    HW261818   6.873   1.610   2.221  1.4359 -0.3382 -0.0584
16587SOL     OW61819   8.929   7.084   4.449  0.4302  0.5586 -0.0427
16587SOL    HW161820   8.972   7.126   4.369  0.7115 -0.7400 -0.5832
16587SOL    HW261821   8.890   7.155   4.506  0.2671  1.5138 -1.3116
16588SOL     OW61822   0.569   1.331   0.369  0.7952  0.5158  0.2562
16588SOL    HW161823   0.635   1.336   0.443  0.2987  0.9895  0.6714
16588SOL    HW261824   0.478   1.357   0.403  0.2592 -0.8281 -0.1391
16589SOL     OW61825   1.830   5.017   2.486  0.1568  0.6686 -0.6785
16589SOL    HW161826   1.774   5.023   2.568  0.7575  1.3104 -0.3097
16589SOL    HW261827   1.787   5.069   2.412  0.9478  2.3370  0.0033
16590SOL     OW61828   8.128   9.730   4.068  0.0471 -0.7192 -0.1387
16590SOL    HW161829   8.225   9.713   4.050  0.0291  0.2015 -1.1649
16590SOL    HW261830   8.076   9.716   3.984 -0.1513  2.8149 -0.7022
16591SOL     OW61831   0.508   0.921   1.924  0.2590  0.4594 -0.0183
16591SOL    HW161832   0.442   0.847   1.934  0.4173  0.2132 -0.7347
16591SOL    HW261833   0.464   0.999   1.878  0.5851  0.1280 -0.8974
16592SOL     OW61834   4.866   1.769   2.885  0.0479  0.0128 -0.0978
16592SOL    HW161835   4.916   1.714   2.952 -0.9049 -0.0551  0.5647
16592SOL    HW261836   4.846   1.859   2.924  1.1657  0.6682 -0.9940
16593SOL     OW61837   8.970   6.989   4.023  0.2145  0.3359 -0.1926
16593SOL    HW161838   9.003   6.895   4.028  0.5592  0.5307  1.5597
16593SOL    HW261839   8.978   7.032   4.113 -3.1914  0.9382 -0.1137
16594SOL     OW61840   0.134   0.193   4.313  0.0001  0.2375  0.4201
16594SOL    HW161841   0.198   0.128   4.273  0.3800  1.9757 -1.9157
16594SOL    HW261842   0.183   0.277   4.336 -0.8146  0.3621  1.7442
16595SOL     OW61843   0.611   9.405   3.587  0.4492  0.0831 -0.0071
16595SOL    HW161844   0.689   9.363   3.539  1.4651  1.3203  0.5538
16595SOL    HW261845   0.535   9.339   3.589  0.4866 -0.1456 -3.0139
16596SOL     OW61846   5.968   0.211   3.499  0.1017  0.1054  0.2098
16596SOL    HW161847   6.030   0.152   3.448 -0.4374 -0.3620  0.0947
16596SOL    HW261848   5.921   0.158   3.569  1.4726  0.9206  1.7689
16597SOL     OW61849   5.981   7.075   3.867  0.2807  0.4277 -0.0600
16597SOL    HW161850   6.014   7.078   3.962  0.0148  0.8350  0.0202
16597SOL    HW261851   5.955   6.981   3.844 -1.5616  0.6867  0.9282
16598SOL     OW61852   0.260   1.493   3.598 -0.3262 -0.8393 -0.1029
16598SOL    HW161853   0.284   1.590   3.588 -2.5460 -0.2987 -0.3940
16598SOL    HW261854   0.293   1.442   3.519 -0.3371 -0.0923 -0.5963
16599SOL     OW61855   6.464   0.404   7.150  0.1956  0.1434  0.2862
16599SOL    HW161856   6.470   0.500   7.177 -1.4034  0.1707  0.6200
16599SOL    HW261857   6.471   0.346   7.231 -0.2025  0.0337  0.2428
16600SOL     OW61858   7.425   8.163   7.203  0.0565 -0.9211  0.1754
16600SOL    HW161859   7.363   8.154   7.125 -2.4139  2.8470  1.6115
16600SOL    HW261860   7.413   8.085   7.264 -1.8384 -1.2218 -0.5500
16601SOL     OW61861   2.005   0.770   3.749 -0.2466  0.4102 -0.2760
16601SOL    HW161862   1.962   0.831   3.815 -2.8645 -0.2050 -1.3368
16601SOL    HW261863   1.940   0.698   3.723  1.6611 -0.9296 -1.4817
16602SOL     OW61864   7.147   4.473   2.062  0.5686 -0.2596 -0.0698
16602SOL    HW161865   7.169   4.434   2.151 -0.5655  0.2337  0.4305
16602SOL    HW261866   7.215   4.443   1.995  0.9605 -1.2987  0.7775
16603SOL     OW61867   7.096   9.632   5.692 -0.1521 -0.0112  0.1659
16603SOL    HW161868   7.191   9.657   5.712  0.5571 -3.0902  0.9129
16603SOL    HW261869   7.062   9.570   5.764 -1.7628 -1.2363 -1.6030
16604SOL     OW61870   9.561   8.642   3.385 -0.1936 -0.3314 -0.0749
16604SOL    HW161871   9.496   8.566   3.387 -0.7641  0.2057  2.1120
16604SOL    HW261872   9.652   8.606   3.361 -0.3022 -1.8396  1.6612
16605SOL     OW61873   0.979   9.722   6.457  0.2653  0.0634 -0.7245
16605SOL    HW161874   1.016   9.814   6.464 -1.4614  0.7948 -0.8788
16605SOL    HW261875   0.911   9.718   6.384  0.8525 -1.5268 -1.2106
16606SOL     OW61876   6.887   1.324   3.641 -0.1859 -0.6493 -0.3604
16606SOL    HW161877   6.982   1.293   3.644  0.1944  0.5367  0.0102
16606SOL    HW261878   6.846   1.314   3.732 -0.2403 -0.6320 -0.3828
16607SOL     OW61879   5.938   0.975   6.090 -0.2010 -0.3222 -0.1095
16607SOL    HW161880   5.937   1.021   6.001 -1.0122 -1.3106 -0.6224
16607SOL    HW261881   5.857   0.916   6.098  0.5650 -1.2709  0.7410
16608SOL     OW61882   8.446   9.078   5.160 -0.4356 -0.2421 -0.0900
16608SOL    HW161883   8.387   9.107   5.235  0.7947 -1.0683  1.2218
16608SOL    HW261884   8.537   9.056   5.195  0.3781  0.0692 -1.9345
16609SOL     OW61885   7.849   7.248   4.054 -0.2663  0.0198  0.3462
16609SOL    HW161886   7.914   7.273   4.126  0.3592  0.0926 -0.2444
16609SOL    HW261887   7.896   7.246   3.966 -0.9182 -0.5994  0.0151
16610SOL     OW61888   2.672   0.769   3.456 -0.9883 -0.4837 -0.4061
16610SOL    HW161889   2.603   0.763   3.384  0.8348  0.3218 -2.2795
16610SOL    HW261890   2.633   0.815   3.536 -3.0336 -1.3666 -0.8616
16611SOL     OW61891   5.613   6.625   4.946  0.1086  0.6403  0.7423
16611SOL    HW161892   5.675   6.631   4.867 -0.7766  1.5968  0.1153
16611SOL    HW261893   5.533   6.570   4.921  0.6311 -0.4729  1.5060
16612SOL     OW61894   7.657   4.418   3.481  0.0508 -0.1001 -0.5382
16612SOL    HW161895   7.575   4.414   3.425 -0.3257  0.9452 -0.0891
16612SOL    HW261896   7.631   4.437   3.576  0.6515 -2.1244  0.0616
16613SOL     OW61897   2.703   8.890   3.652 -0.3439  0.0875 -0.4964
16613SOL    HW161898   2.700   8.802   3.699  0.5704 -0.5587 -1.6616
16613SOL    HW261899   2.777   8.891   3.585  0.2365  2.0578  0.1317
16614SOL     OW61900   6.727   9.523   5.078 -0.1364  0.3357  0.2030
16614SOL    HW161901   6.684   9.612   5.096 -0.5049 -0.0373  1.2445
16614SOL    HW261902   6.819   9.523   5.118 -0.4617 -0.0427  0.9603
16615SOL     OW61903   9.725   3.705   9.757 -0.8450  0.3721 -0.4441
16615SOL    HW161904   9.679   3.669   9.838 -0.8502  1.8047  0.2156
16615SOL    HW261905   9.795   3.770   9.786  0.9077 -1.0290 -1.4942
16616SOL     OW61906   2.388   0.327   4.217 -0.3942  0.0095  0.1731
16616SOL    HW161907   2.399   0.362   4.124  0.7830 -0.2940  0.1833
16616SOL    HW261908   2.375   0.228   4.214 -0.1055 -0.0356  0.3372
16617SOL     OW61909   0.295   5.974   2.302 -0.0625  0.9704  0.3255
16617SOL    HW161910   0.273   5.877   2.303 -0.4417  1.0654  1.5590
16617SOL    HW261911   0.263   6.017   2.387 -0.9665  2.3986 -0.7089
16618SOL     OW61912   7.539   9.952   5.064  0.4526  0.1583  0.2031
16618SOL    HW161913   7.529  10.051   5.080 -0.8394  0.1400 -0.4124
16618SOL    HW261914   7.458   9.905   5.099  0.7869 -0.6273 -0.0672
16619SOL     OW61915   7.886   0.759   0.044  0.5299 -0.0190  0.1323
16619SOL    HW161916   7.975   0.784   0.081  0.9631 -0.1395 -0.7994
16619SOL    HW261917   7.825   0.734   0.118  1.2821  0.0470  0.7815
16620SOL     OW61918   3.359   9.655   4.854 -0.5279  0.2015  0.4144
16620SOL    HW161919   3.321   9.567   4.824 -1.6019  0.8325 -0.0961
16620SOL    HW261920   3.386   9.648   4.950  0.6477 -1.0925  0.0096
16621SOL     OW61921   8.845   0.463   9.483 -0.6051 -0.3187  0.5777
16621SOL    HW161922   8.810   0.455   9.577 -1.7824  0.1334  0.1897
16621SOL    HW261923   8.934   0.419   9.477 -0.3872 -0.0965  1.9828
16622SOL     OW61924   6.007   1.664   0.250 -0.0060 -0.2193  0.3816
16622SOL    HW161925   6.073   1.704   0.187 -0.7436 -0.0691 -0.3121
16622SOL    HW261926   5.927   1.724   0.256 -0.1023 -0.4251  1.1688
16623SOL     OW61927   4.988   3.653   3.629  0.0292  0.4198 -0.5964
16623SOL    HW161928   4.949   3.722   3.567 -2.7230  0.7569  1.4290
16623SOL    HW261929   5.072   3.689   3.670 -0.1242  1.6392 -1.3292
16624SOL     OW61930   4.996   0.517   8.468  0.2487  0.4558 -0.3070
16624SOL    HW161931   4.917   0.579   8.472 -0.0322  0.0483  0.7619
16624SOL    HW261932   5.052   0.529   8.550  0.2203 -0.6732 -0.1121
16625SOL     OW61933   7.850   9.215   4.501  0.3593 -0.0289  0.0604
16625SOL    HW161934   7.750   9.220   4.496  0.1955 -2.7696 -0.4668
16625SOL    HW261935   7.877   9.173   4.588  1.0247  0.0094 -0.1216
16626SOL     OW61936   6.218   3.276   3.931  0.3246  0.0917 -0.3181
16626SOL    HW161937   6.291   3.304   3.993 -1.2119 -1.1352  2.1322
16626SOL    HW261938   6.185   3.185   3.957 -1.2432  0.0973 -2.1501
16627SOL     OW61939   5.363   0.114   1.154 -0.3294  0.6409 -0.0149
16627SOL    HW161940   5.342   0.086   1.247 -1.4779  0.7012 -0.2517
16627SOL    HW261941   5.417   0.043   1.109 -0.8072  0.0750  0.3050
16628SOL     OW61942   4.498   9.384   6.200  0.4610  0.2708 -0.2227
16628SOL    HW161943   4.569   9.454   6.194 -0.0781  0.9000  0.6460
16628SOL    HW261944   4.541   9.294   6.210  1.1521  0.8441  2.2845
16629SOL     OW61945   7.754   9.467   2.562  0.0988  0.5268  0.4425
16629SOL    HW161946   7.807   9.448   2.644  0.3910 -0.7115 -0.0331
16629SOL    HW261947   7.662   9.496   2.588  0.9499  2.5922  1.2637
16630SOL     OW61948   8.142   6.011   3.248 -0.1151  0.8409  0.5075
16630SOL    HW161949   8.071   6.004   3.177 -1.1378 -0.8331  1.6669
16630SOL    HW261950   8.103   6.055   3.329  0.6080  1.2936  0.6145
16631SOL     OW61951   9.456   9.988   3.604 -0.0595 -0.1598  0.4238
16631SOL    HW161952   9.404   9.933   3.670  0.0861 -0.3229  0.4034
16631SOL    HW261953   9.449  10.085   3.628  1.8100 -0.3774  1.9734
16632SOL     OW61954   6.403   9.699   2.276 -0.2865  0.5112  0.3665
16632SOL    HW161955   6.337   9.664   2.210 -0.4716  1.1259  0.2231
16632SOL    HW261956   6.387   9.797   2.291  0.0761  0.4884  0.9397
16633SOL     OW61957   8.101   8.356   5.578  0.3984 -0.1689 -0.1379
16633SOL    HW161958   8.042   8.305   5.515 -2.2978  2.6688  0.0360
16633SOL    HW261959   8.197   8.343   5.550 -0.4715 -2.1099 -2.4347
16634SOL     OW61960   9.004   8.840   4.661  0.5602 -0.4039 -0.7387
16634SOL    HW161961   9.021   8.742   4.669  0.2615 -0.2531  1.9297
16634SOL    HW261962   8.997   8.881   4.752 -0.5445  1.8892 -1.8086
16635SOL     OW61963   6.251   0.550   5.696  0.1237  0.4070 -0.0066
16635SOL    HW161964   6.343   0.589   5.685  0.6101 -0.4610  0.8866
16635SOL    HW261965   6.259   0.451   5.705 -0.8820  0.3704  0.4547
16636SOL     OW61966   7.661   9.569   5.398  0.2876 -0.2544  0.2633
16636SOL    HW161967   7.681   9.601   5.491 -0.7786 -0.5050  0.5827
16636SOL    HW261968   7.635   9.473   5.401 -1.8580  0.3066 -0.0381
16637SOL     OW61969   9.569   7.761   4.789  0.5702 -0.2081 -0.3472
16637SOL    HW161970   9.504   7.834   4.771  1.6932  0.8872 -0.0231
16637SOL    HW261971   9.615   7.778   4.876  2.0588 -0.3919 -1.0811
16638SOL     OW61972   1.036   5.733   6.093  0.0696  0.1633  0.2068
16638SOL    HW161973   1.022   5.829   6.070 -0.5934 -0.1362 -0.6668
16638SOL    HW261974   0.952   5.695   6.132 -0.4874 -0.7323 -1.8216
16639SOL     OW61975   7.322   0.999   4.694 -0.8933 -0.4638 -0.1944
16639SOL    HW161976   7.406   1.032   4.737 -0.5045 -0.3651 -1.0088
16639SOL    HW261977   7.254   0.978   4.764 -1.2778  2.4217  0.3480
16640SOL     OW61978   9.907   3.740   8.964  0.1235  0.1691 -0.3261
16640SOL    HW161979   9.859   3.826   8.979 -0.2467 -0.3406  1.4808
16640SOL    HW261980   9.935   3.701   9.052  1.5662 -0.8331 -1.2029
16641SOL     OW61981   5.037   5.868   4.483  0.4961  0.2704 -0.5226
16641SOL    HW161982   5.014   5.772   4.467  1.3099  0.0884 -0.6619
16641SOL    HW261983   4.998   5.899   4.570  0.9800 -0.4470 -0.0471
16642SOL     OW61984   7.647   0.460   5.195 -0.2552 -0.4838 -0.2948
16642SOL    HW161985   7.650   0.539   5.133 -0.0932 -0.9166 -0.8422
16642SOL    HW261986   7.711   0.476   5.270 -0.0128 -0.2138 -0.5514
16643SOL     OW61987   9.276   9.847   5.230 -0.5124 -0.2506  0.1863
16643SOL    HW161988   9.196   9.800   5.266 -1.4213  0.7296 -0.5395
16643SOL    HW261989   9.356   9.826   5.287 -1.3628 -0.8981  1.1462
16644SOL     OW61990   0.709   4.328   6.283  0.0361 -0.1441  0.2479
16644SOL    HW161991   0.627   4.297   6.234 -0.1267 -1.1627  1.1503
16644SOL    HW261992   0.758   4.394   6.226 -1.3747  0.4353 -0.3308
16645SOL     OW61993   6.687   1.594   5.164 -0.2968  0.4464 -0.6920
16645SOL    HW161994   6.786   1.580   5.166 -0.1335  1.5510 -0.9957
16645SOL    HW261995   6.641   1.512   5.198  0.7940  0.6489  1.3100
16646SOL     OW61996   2.047   5.621   7.421  0.5301  0.5421 -0.9715
16646SOL    HW161997   2.046   5.554   7.495  0.8714 -0.8146 -2.1802
16646SOL    HW261998   1.968   5.607   7.362  1.6532 -0.0877 -2.3560
16647SOL     OW61999   6.075   0.625   0.482 -0.1042  0.6036 -0.0381
16647SOL    HW162000   6.160   0.575   0.498 -0.4182 -0.6255 -1.9740
16647SOL    HW262001   6.057   0.630   0.384 -2.2531  0.8725  0.3344
16648SOL     OW62002   7.312   3.953   7.870  0.2502  0.4147 -0.3202
16648SOL    HW162003   7.252   3.875   7.853  0.4610 -0.1254  1.3329
16648SOL    HW262004   7.320   4.008   7.787  1.9023 -2.5510 -2.2193
16649SOL     OW62005   7.106   9.715   7.887 -0.1720 -0.0689  0.3997
16649SOL    HW162006   7.031   9.780   7.882 -0.3739 -0.1911  1.5710
16649SOL    HW262007   7.121   9.689   7.983  1.2101 -0.2205  0.1527
16650SOL     OW62008   7.986   3.083   7.318 -0.2521  0.1461  0.3850
16650SOL    HW162009   7.894   3.119   7.331  0.5225  1.4307  2.4317
16650SOL    HW262010   8.053   3.156   7.329  1.1036 -1.1057  0.6304
16651SOL     OW62011   7.567   7.812   3.997 -0.6656 -0.4016  0.6379
16651SOL    HW162012   7.545   7.775   3.907  1.1682 -0.1713  0.0732
16651SOL    HW262013   7.623   7.894   3.987  0.1569 -0.7673  1.9785
16652SOL     OW62014   7.402   2.241   9.900 -0.2738 -0.2841 -0.3173
16652SOL    HW162015   7.407   2.221   9.998  0.3215  0.8422 -0.0993
16652SOL    HW262016   7.421   2.158   9.848  3.1208 -0.1444  0.5487
16653SOL     OW62017   7.933   1.389   4.946 -0.4980  0.0994  0.0217
16653SOL    HW162018   7.872   1.405   5.024 -0.3752 -1.9740  0.5805
16653SOL    HW262019   7.906   1.305   4.899  0.5913  0.3325 -1.0558
16654SOL     OW62020   7.085   7.774   6.511 -0.0999  0.4773 -0.2544
16654SOL    HW162021   7.109   7.851   6.451 -0.2084  0.1651 -0.7056
16654SOL    HW262022   7.167   7.722   6.532 -0.0960  0.4571 -0.3183
16655SOL     OW62023   7.594   8.904   6.628 -0.5065 -0.1337  0.7241
16655SOL    HW162024   7.509   8.924   6.678 -0.8633  0.1504  0.0092
16655SOL    HW262025   7.574   8.841   6.553 -0.4383  1.4201 -0.6268
16656SOL     OW62026   6.482   1.084   4.829 -0.4360 -0.5987  0.0315
16656SOL    HW162027   6.405   1.036   4.786 -1.4682  2.3569 -1.5156
16656SOL    HW262028   6.455   1.177   4.852  2.3786  0.1493  0.4645
16657SOL     OW62029   3.443   1.705   9.770 -0.1077  0.5618 -0.2258
16657SOL    HW162030   3.423   1.800   9.794 -1.1359  0.7887 -1.8763
16657SOL    HW262031   3.480   1.702   9.677 -3.1641 -0.9336 -1.4661
16658SOL     OW62032   8.110   3.894   5.447 -0.3011 -0.3469  0.3654
16658SOL    HW162033   8.102   3.982   5.400  1.3619 -1.5209 -2.2461
16658SOL    HW262034   8.186   3.899   5.513 -1.5408  0.7771  1.7481
16659SOL     OW62035   7.667   4.378   6.519  0.3580  0.1619 -0.5432
16659SOL    HW162036   7.729   4.436   6.571  0.7526  1.0576 -1.9784
16659SOL    HW262037   7.720   4.308   6.470 -0.2521 -2.6446  2.6289
16660SOL     OW62038   4.678   9.540   9.193  0.2524 -0.2971 -0.1027
16660SOL    HW162039   4.658   9.637   9.183  1.1637 -0.2166 -1.3446
16660SOL    HW262040   4.601   9.486   9.159 -0.2188 -0.0174  0.5098
16661SOL     OW62041   0.474   3.923   6.223 -0.2446 -0.1230 -0.3991
16661SOL    HW162042   0.471   3.894   6.319 -0.2167 -0.2747 -0.4437
16661SOL    HW262043   0.426   3.856   6.166 -0.1583 -0.0960 -0.5051
16662SOL     OW62044   7.775   9.312   7.933 -0.5332  0.0810  0.6788
16662SOL    HW162045   7.790   9.380   8.005  1.5098  1.5175 -1.0138
16662SOL    HW262046   7.848   9.244   7.935 -1.1872 -0.6293  0.7730
16663SOL     OW62047   9.121   1.005   3.594 -0.0788 -0.2161 -0.5188
16663SOL    HW162048   9.063   0.924   3.581  0.0548 -0.2794 -0.7176
16663SOL    HW262049   9.211   0.989   3.554  0.0792 -0.1181 -0.2070
16664SOL     OW62050   6.706   1.590   2.716  0.1373 -0.2359 -0.1831
16664SOL    HW162051   6.628   1.652   2.704 -2.5438 -3.3759  0.1133
16664SOL    HW262052   6.728   1.583   2.813 -0.6716 -0.9745 -0.0405
16665SOL     OW62053   7.214   7.762   6.990 -0.4904 -0.7112  0.0028
16665SOL    HW162054   7.160   7.770   6.906 -0.7423 -0.5777  0.1748
16665SOL    HW262055   7.290   7.699   6.975 -1.7833 -2.3651  0.3048
16666SOL     OW62056   3.856   3.161   5.587 -0.2407 -0.4283 -0.1905
16666SOL    HW162057   3.884   3.117   5.673 -2.0507 -1.2734 -0.0161
16666SOL    HW262058   3.792   3.235   5.607  1.5390  1.2726 -0.6175
16667SOL     OW62059   7.030   8.653   6.181 -0.0724  0.2003 -0.1107
16667SOL    HW162060   7.037   8.622   6.086  0.1434  1.7143 -0.6047
16667SOL    HW262061   6.938   8.634   6.215 -1.0455  2.1117 -1.5462
16668SOL     OW62062   0.039   9.984   0.373  0.0737 -0.2914 -0.2380
16668SOL    HW162063   0.009  10.077   0.392 -1.8497 -0.5130 -1.9901
16668SOL    HW262064   0.074   9.942   0.457 -0.1161  1.6063  0.8054
16669SOL     OW62065   1.329   6.237   7.588 -0.2517 -0.6367 -0.0727
16669SOL    HW162066   1.321   6.320   7.533  0.2169 -0.6945 -0.2368
16669SOL    HW262067   1.342   6.262   7.684 -0.4911 -0.5266 -0.0690
16670SOL     OW62068   1.538   7.778   4.489 -0.5362 -0.0596 -0.3006
16670SOL    HW162069   1.579   7.763   4.579  0.5061 -1.4655 -0.9946
16670SOL    HW262070   1.584   7.854   4.443 -0.7319  0.3283  0.1399
16671SOL     OW62071   8.685   9.692   6.261 -0.6337 -0.7026  0.1238
16671SOL    HW162072   8.614   9.735   6.205 -1.8897 -2.4737  0.3142
16671SOL    HW262073   8.643   9.624   6.321  1.2289 -1.8031  0.2161
16672SOL     OW62074   4.138   1.769   7.464 -0.0481  0.4431 -0.2022
16672SOL    HW162075   4.238   1.762   7.467 -0.0861 -0.2505 -0.4237
16672SOL    HW262076   4.104   1.716   7.387 -0.5601  1.0556 -0.4018
16673SOL     OW62077   4.701   5.787   7.848 -0.2236 -0.1191  0.0595
16673SOL    HW162078   4.708   5.716   7.778  0.0361  0.2626 -0.2970
16673SOL    HW262079   4.751   5.758   7.930 -0.6703 -0.6372  0.1543
16674SOL     OW62080   5.395   0.821   6.056  0.4364 -0.1108  0.3040
16674SOL    HW162081   5.359   0.728   6.052  1.8001 -0.6115 -0.7553
16674SOL    HW262082   5.324   0.885   6.027 -0.5697 -0.8002  1.2145
16675SOL     OW62083   9.162   8.620   3.594 -0.4272 -0.7488 -0.0532
16675SOL    HW162084   9.180   8.539   3.537  0.6714 -0.6102  0.0959
16675SOL    HW262085   9.192   8.602   3.688  0.5024  0.0954 -0.1801
16676SOL     OW62086   8.760   3.698   6.908  0.3573 -0.1067 -0.3921
16676SOL    HW162087   8.760   3.599   6.923  1.2774 -0.2057 -1.0405
16676SOL    HW262088   8.671   3.726   6.873 -1.7363  0.0534  4.5503
16677SOL     OW62089   7.945   2.182   3.256 -0.2538 -0.1611  0.4264
16677SOL    HW162090   7.907   2.089   3.256 -0.2100 -0.1772  0.6336
16677SOL    HW262091   7.930   2.223   3.165 -1.9717  0.3204  0.9002
16678SOL     OW62092   6.020   9.502   3.110 -0.8278  0.3678 -0.6301
16678SOL    HW162093   6.026   9.483   3.012 -0.5445  0.7931 -0.6990
16678SOL    HW262094   5.933   9.547   3.131 -0.7104  0.6473 -0.7489
16679SOL     OW62095   9.312   8.594   5.773 -0.0522  0.2112 -0.2241
16679SOL    HW162096   9.275   8.686   5.779  0.3971  0.4420 -0.8888
16679SOL    HW262097   9.412   8.597   5.785 -0.4106 -0.6115  3.4760
16680SOL     OW62098   8.627   4.122   7.618  0.2153 -0.1855 -0.1685
16680SOL    HW162099   8.615   4.104   7.521  1.4388  0.1672 -0.3943
16680SOL    HW262100   8.563   4.193   7.647 -1.6366 -1.7909 -0.2268
16681SOL     OW62101   0.543   4.225   3.271  0.2777  0.2532 -0.3991
16681SOL    HW162102   0.515   4.142   3.320  0.9843  0.7356  0.8461
16681SOL    HW262103   0.643   4.228   3.266  0.2608  1.2165 -0.1121
16682SOL     OW62104   3.821   5.104   5.725  0.1315  0.1403 -0.3561
16682SOL    HW162105   3.909   5.145   5.749  0.5271  0.0123 -1.5663
16682SOL    HW262106   3.821   5.007   5.750  0.5565 -0.0031 -0.9081
16683SOL     OW62107   6.208   8.218   4.902 -0.1018  0.3224  0.1678
16683SOL    HW162108   6.218   8.312   4.934  2.0800  0.3164 -0.4500
16683SOL    HW262109   6.223   8.155   4.979  1.0781  0.4195  0.0236
16684SOL     OW62110   7.847   2.000   8.619  0.2568  0.1762 -0.2167
16684SOL    HW162111   7.938   2.031   8.647  0.7134 -0.9275 -0.4525
16684SOL    HW262112   7.823   2.043   8.531  0.3295  0.8653  0.0957
16685SOL     OW62113   7.503   7.483   5.132  0.0478 -0.6491  0.6051
16685SOL    HW162114   7.557   7.410   5.090  0.8029 -0.0437  0.5297
16685SOL    HW262115   7.529   7.571   5.092 -3.2307 -0.6601 -1.7795
16686SOL     OW62116   5.482   9.891   1.282 -0.1319  0.7973  0.6864
16686SOL    HW162117   5.533   9.811   1.247 -1.7470  0.3440 -0.6875
16686SOL    HW262118   5.398   9.860   1.327 -0.0034  1.6412  1.5230
16687SOL     OW62119   2.064   0.935   6.003  0.7664 -0.2328 -0.2705
16687SOL    HW162120   1.986   0.996   5.988  0.8506 -0.5600 -2.1186
16687SOL    HW262121   2.034   0.840   5.996  1.2873 -0.3598 -0.8459
16688SOL     OW62122   6.875   9.414   4.887  0.6444 -0.3473 -0.1946
16688SOL    HW162123   6.835   9.354   4.817 -0.5825  1.1698 -0.8323
16688SOL    HW262124   6.803   9.445   4.949  1.6200 -1.1316  1.3437
16689SOL     OW62125   9.382   2.632   0.576 -0.0664  0.2806 -0.6221
16689SOL    HW162126   9.423   2.550   0.538 -1.2894  0.1145 -1.6300
16689SOL    HW262127   9.288   2.641   0.543 -0.5818  1.0791  0.9779
16690SOL     OW62128   4.654   9.062   8.933  0.1592  0.2081 -0.0521
16690SOL    HW162129   4.752   9.072   8.913  0.0114  1.2983 -0.2406
16690SOL    HW262130   4.639   8.974   8.979  0.9199 -0.9784 -1.9888
16691SOL     OW62131   7.968   9.445   3.406 -0.1791  0.4783 -0.4132
16691SOL    HW162132   7.972   9.437   3.306 -1.3926 -1.0797 -0.3624
16691SOL    HW262133   8.002   9.360   3.448 -1.8990  0.1868  0.4341
16692SOL     OW62134   0.798   2.105   4.398  0.1897  0.2814 -0.0764
16692SOL    HW162135   0.708   2.074   4.368 -0.5760  1.8308  0.6360
16692SOL    HW262136   0.838   2.036   4.458 -0.4800 -0.4385 -0.4443
16693SOL     OW62137   5.176   4.909   4.461  0.4697  0.5299  0.4310
16693SOL    HW162138   5.258   4.901   4.404 -0.1150  1.4489 -0.5593
16693SOL    HW262139   5.125   4.823   4.459  1.6610 -0.2113  1.4551
16694SOL     OW62140   1.135   5.380   9.245 -0.8433  0.5819 -0.4390
16694SOL    HW162141   1.139   5.458   9.307  1.7478 -0.2835  0.5546
16694SOL    HW262142   1.130   5.413   9.151 -0.8814  1.9490  0.0264
16695SOL     OW62143   1.561   8.604   3.246 -0.2690 -0.3538 -0.0643
16695SOL    HW162144   1.555   8.685   3.304 -1.2652 -0.1765 -0.4017
16695SOL    HW262145   1.651   8.600   3.203  0.7532 -0.8909  2.0638
16696SOL     OW62146   9.906   3.990   2.564  0.0239  0.1632  0.0407
16696SOL    HW162147   9.873   3.919   2.627  0.2667  0.1164  0.1143
16696SOL    HW262148   9.963   4.055   2.615  1.7992 -0.9394 -0.5141
16697SOL     OW62149   8.773   8.747   4.103 -0.4696  0.3874 -0.0706
16697SOL    HW162150   8.775   8.716   4.008 -0.9593  0.9100 -0.2518
16697SOL    HW262151   8.762   8.846   4.106 -0.1925  0.4069  0.5307
16698SOL     OW62152   8.437   3.275   0.487  0.3687  0.1692 -0.0591
16698SOL    HW162153   8.517   3.268   0.429  0.1751  0.8380 -0.4136
16698SOL    HW262154   8.368   3.332   0.442  0.0176  0.2713  0.5979
16699SOL     OW62155   0.550   4.052   8.030 -0.2256 -0.2754 -0.0894
16699SOL    HW162156   0.508   4.142   8.023 -0.2368 -0.2250  0.6212
16699SOL    HW262157   0.581   4.023   7.939  3.1226  2.0201  0.2349
16700SOL     OW62158   2.245   0.731   0.002  0.3151  0.4230  0.3848
16700SOL    HW162159   2.191   0.815   0.002 -0.4289 -0.0521 -0.8486
16700SOL    HW262160   2.208   0.667  -0.065  1.3961 -0.5635  0.7125
16701SOL     OW62161   7.524   1.101   4.898  0.3021 -0.1496 -0.2259
16701SOL    HW162162   7.504   1.140   4.988  1.6385  0.2950 -0.1142
16701SOL    HW262163   7.556   1.173   4.837  0.4833 -0.6496 -0.7234
16702SOL     OW62164   7.182   9.000   9.259  0.4027 -0.1358 -0.0226
16702SOL    HW162165   7.255   9.020   9.324  1.2313 -1.7319 -0.4416
16702SOL    HW262166   7.094   9.029   9.297  1.2010  1.5678  0.5889
16703SOL     OW62167   4.511   6.152   1.983  0.1175  0.2020 -0.7483
16703SOL    HW162168   4.467   6.070   1.947 -2.3896  1.1347  0.0798
16703SOL    HW262169   4.443   6.208   2.031  2.3439  1.4634  0.9956
16704SOL     OW62170   6.962   5.115   8.671 -0.1104  0.0622  0.0416
16704SOL    HW162171   7.000   5.045   8.731  0.0305 -0.5820 -0.7947
16704SOL    HW262172   6.912   5.182   8.726 -1.9284 -1.7413  0.6682
16705SOL     OW62173   7.454   7.756   5.432  0.3031 -0.6320 -0.1771
16705SOL    HW162174   7.468   7.661   5.403 -1.6463 -0.4389 -1.8726
16705SOL    HW262175   7.363   7.766   5.473  0.7756  0.3712  0.6728
16706SOL     OW62176   2.961   0.974   8.022  0.3674 -0.4331 -0.0769
16706SOL    HW162177   2.967   0.998   8.119 -0.4244  0.9270 -0.3430
16706SOL    HW262178   3.035   1.021   7.972  0.8976 -1.2929 -0.0980
16707SOL     OW62179   9.572   7.047   2.953 -0.2646  0.2040 -0.0319
16707SOL    HW162180   9.557   7.041   2.854 -1.8591  1.2497  0.1155
16707SOL    HW262181   9.657   7.001   2.977  0.4710  0.5076 -1.9778
16708SOL     OW62182   6.718   6.717   6.157 -0.2823 -0.1822  0.0229
16708SOL    HW162183   6.656   6.781   6.112  0.9082  0.0980 -1.2396
16708SOL    HW262184   6.783   6.768   6.213 -0.2689 -0.3835  0.1928
16709SOL     OW62185   7.060   6.667   6.590  0.3873 -0.4273  0.1554
16709SOL    HW162186   7.138   6.680   6.651  0.6859  0.0279 -0.3177
16709SOL    HW262187   6.975   6.674   6.642  0.5797  1.8254  0.2146
16710SOL     OW62188   8.685   5.785   7.082 -0.1295  0.1374  0.1516
16710SOL    HW162189   8.750   5.725   7.035 -0.9416  0.4364 -1.3890
16710SOL    HW262190   8.733   5.836   7.154  1.3798  0.4616 -1.0602
16711SOL     OW62191   3.398   2.049   8.957 -0.1479  0.0979 -0.0573
16711SOL    HW162192   3.498   2.054   8.950 -0.0013 -2.9422 -0.5184
16711SOL    HW262193   3.359   2.137   8.930  2.4407  1.7061  1.2093
16712SOL     OW62194   5.990   4.448   1.876 -0.0858  0.2917  0.0012
16712SOL    HW162195   5.968   4.434   1.779  0.7278  1.9776 -0.4460
16712SOL    HW262196   6.050   4.374   1.907  0.3772  0.2233 -1.0255
16713SOL     OW62197   8.350   7.273   5.500 -0.0703  0.5121 -0.0284
16713SOL    HW162198   8.338   7.280   5.401 -1.6078  1.2924  0.1941
16713SOL    HW262199   8.312   7.185   5.531 -0.2009  0.5648 -0.0401
16714SOL     OW62200   5.977   8.685   9.042  0.3078  0.4540  0.3067
16714SOL    HW162201   6.073   8.662   9.030  0.5295  0.2746  2.2427
16714SOL    HW262202   5.946   8.742   8.965  2.4536  2.0690  0.5805
16715SOL     OW62203   9.705   1.254   1.153  0.4411 -0.2280  0.5752
16715SOL    HW162204   9.745   1.344   1.168 -3.3506  1.9204 -1.2348
16715SOL    HW262205   9.681   1.212   1.240  0.0073  1.6187  1.3473
16716SOL     OW62206   1.858   1.870   4.950 -0.8235 -0.2957 -0.5421
16716SOL    HW162207   1.774   1.889   4.899  0.2709  1.7525 -1.6778
16716SOL    HW262208   1.935   1.863   4.885  0.0976 -0.7319  0.5824
16717SOL     OW62209   5.310   8.091   3.375  0.0827  0.1814  0.6937
16717SOL    HW162210   5.378   8.069   3.304 -0.4953 -0.1273  0.2343
16717SOL    HW262211   5.219   8.069   3.342 -0.3706  1.8091  0.8229
16718SOL     OW62212   3.103   3.529   1.820  0.6951  0.1194 -0.1943
16718SOL    HW162213   3.026   3.535   1.882  0.0906 -1.4817 -0.7653
16718SOL    HW262214   3.074   3.487   1.734  2.3832 -1.3901 -0.0778
16719SOL     OW62215   6.948   3.173   8.806 -0.2589 -0.6058 -0.4114
16719SOL    HW162216   6.984   3.184   8.713 -0.6020  0.6656 -0.4128
16719SOL    HW262217   6.943   3.263   8.850 -1.4605 -1.0287  0.3340
16720SOL     OW62218   2.107   9.212   3.730  0.0834 -0.1699  0.3300
16720SOL    HW162219   2.144   9.139   3.787  1.2424  0.7596  0.7812
16720SOL    HW262220   2.044   9.267   3.784  0.9642  0.5395  0.6367
16721SOL     OW62221   1.027   6.335   4.482 -0.3089  0.1222 -0.3318
16721SOL    HW162222   1.064   6.243   4.489  0.6124  0.5042 -0.1404
16721SOL    HW262223   1.020   6.376   4.573  0.1066  0.5538 -0.4882
16722SOL     OW62224   9.047   2.857   8.019 -0.3025 -0.3267  0.1528
16722SOL    HW162225   8.987   2.937   8.012  1.3049  1.1019  1.8975
16722SOL    HW262226   9.104   2.866   8.101  1.6359 -2.0647 -0.9539
16723SOL     OW62227   0.524   8.991   4.467  0.4047 -0.1084 -0.5655
16723SOL    HW162228   0.520   9.090   4.484  0.9709 -0.2115  0.1821
16723SOL    HW262229   0.618   8.959   4.483  0.1932 -0.7894 -0.7026
16724SOL     OW62230   1.985   5.702   6.764  0.0617  0.2766 -0.0569
16724SOL    HW162231   2.063   5.703   6.827  0.3935  1.6203 -0.4734
16724SOL    HW262232   1.900   5.711   6.816  0.0065 -3.3410  0.5890
16725SOL     OW62233   6.018   8.223   6.618  0.2066  0.6186 -0.9506
16725SOL    HW162234   6.010   8.172   6.704  1.5114 -0.0808 -1.2408
16725SOL    HW262235   5.991   8.318   6.634  0.9035  0.6112  0.3561
16726SOL     OW62236   7.420   3.804   6.252 -0.0308  0.9126 -0.0391
16726SOL    HW162237   7.341   3.804   6.191 -1.4502 -0.5355  1.7308
16726SOL    HW262238   7.444   3.711   6.277  0.0057  1.4826  2.2075
16727SOL     OW62239   2.606   1.902   6.966  0.2940  0.3843  0.1150
16727SOL    HW162240   2.679   1.878   6.902  1.2141  0.0262  1.2966
16727SOL    HW262241   2.625   1.862   7.055  0.0868  2.6067  1.1878
16728SOL     OW62242   7.652   8.824   8.337  0.2129  0.2685 -0.3339
16728SOL    HW162243   7.618   8.781   8.421  2.0595  0.1731  0.3822
16728SOL    HW262244   7.636   8.763   8.259 -1.0705  0.1517  0.0039
16729SOL     OW62245   5.877   4.077   9.854  0.2461 -0.6872  0.0424
16729SOL    HW162246   5.853   4.131   9.774  0.5509 -0.1579  0.3082
16729SOL    HW262247   5.950   4.122   9.905 -0.6314 -0.5154  1.1682
16730SOL     OW62248   4.694   1.592   9.737 -0.1238 -0.4481 -0.1543
16730SOL    HW162249   4.663   1.511   9.688  0.6036 -0.1601 -1.0902
16730SOL    HW262250   4.779   1.626   9.696  0.6978 -0.4229  1.5138
16731SOL     OW62251   6.796   7.402   3.969  0.1196 -0.0810  0.3670
16731SOL    HW162252   6.866   7.338   4.001  1.2327  1.1690  0.4471
16731SOL    HW262253   6.822   7.495   3.993  0.6632  0.8584 -3.5015
16732SOL     OW62254   8.359   0.698   3.333  0.1817  0.0282  0.0176
16732SOL    HW162255   8.336   0.796   3.327  1.0859  0.2704  0.3678
16732SOL    HW262256   8.279   0.644   3.311 -0.1514  0.8542 -0.8650
16733SOL     OW62257   3.042   9.478   5.378  0.1093  0.1777 -0.1034
16733SOL    HW162258   3.011   9.389   5.411 -0.5030  0.0596 -0.9851
16733SOL    HW262259   3.007   9.550   5.438  0.8126 -0.1816  0.7582
16734SOL     OW62260   9.599   4.952   0.183  0.0138  0.6329  0.2800
16734SOL    HW162261   9.592   4.931   0.280 -1.0281  0.7256  0.2293
16734SOL    HW262262   9.695   4.949   0.155  0.4687  1.9998  1.6239
16735SOL     OW62263   8.752   1.560   6.455 -0.0597  0.0567  0.2259
16735SOL    HW162264   8.725   1.653   6.477  0.8096  0.2549  0.4865
16735SOL    HW262265   8.783   1.555   6.360 -1.6752 -0.3211 -0.2867
16736SOL     OW62266   5.778   6.176   4.670  0.1091  0.2913  0.0559
16736SOL    HW162267   5.740   6.087   4.695 -0.3105 -1.0840 -4.9351
16736SOL    HW262268   5.873   6.165   4.640  0.3392  1.6564  0.2269
16737SOL     OW62269   6.171   7.922   7.479  0.0627 -0.4978 -0.0406
16737SOL    HW162270   6.133   7.918   7.572  0.7216  1.2009  0.3123
16737SOL    HW262271   6.260   7.875   7.478 -0.4324 -1.4454 -0.0640
16738SOL     OW62272   1.617   1.901   3.981 -0.4740  0.1281 -0.0321
16738SOL    HW162273   1.612   1.942   4.072  0.3257 -0.0174  0.0818
16738SOL    HW262274   1.676   1.821   3.984 -0.3507  0.1911 -0.7107
16739SOL     OW62275   7.390   9.641   4.724 -0.3413  0.6898 -0.0768
16739SOL    HW162276   7.363   9.677   4.814  1.5626  1.8369  0.0802
16739SOL    HW262277   7.350   9.551   4.711  0.8884 -0.3527  2.7856
16740SOL     OW62278   0.916   1.054   8.557  0.6961 -0.3577  0.3532
16740SOL    HW162279   0.944   0.958   8.562  1.5827 -0.1488 -0.3387
16740SOL    HW262280   0.836   1.062   8.498  0.6574 -0.6655  0.3604
16741SOL     OW62281   6.983   8.106   8.060  0.4793 -0.6463  0.1674
16741SOL    HW162282   7.063   8.067   8.105 -0.1379 -0.1865  1.6863
16741SOL    HW262283   6.948   8.041   7.992  1.4111 -1.3439  0.3409
16742SOL     OW62284   3.267   2.910   7.101  0.0315  0.5706  0.2642
16742SOL    HW162285   3.351   2.965   7.103 -0.4289  1.2901 -0.1602
16742SOL    HW262286   3.289   2.817   7.128  1.2444  0.3961 -1.2102
16743SOL     OW62287   5.965   9.725   5.383  0.4145  0.0696 -0.3677
16743SOL    HW162288   6.027   9.804   5.377 -0.6673  0.9382 -0.1117
16743SOL    HW262289   6.016   9.646   5.417  0.9311  1.3070  1.8203
16744SOL     OW62290   3.621   9.704   6.358 -0.1358  0.6083  0.0735
16744SOL    HW162291   3.590   9.609   6.356 -0.4679  0.7302 -0.8308
16744SOL    HW262292   3.669   9.725   6.272 -0.4144  1.3755  0.1068
16745SOL     OW62293   4.243   7.987   7.785  0.3334 -0.4509  0.0183
16745SOL    HW162294   4.253   7.912   7.719  0.8661  0.1252 -0.5565
16745SOL    HW262295   4.146   8.011   7.794  0.1229 -1.4482  0.4729
16746SOL     OW62296   5.770   5.497   6.391  0.1444 -0.6634 -0.6635
16746SOL    HW162297   5.753   5.426   6.324  0.8330 -0.3126 -1.2116
16746SOL    HW262298   5.813   5.458   6.472  0.3480 -0.9007 -0.8877
16747SOL     OW62299   7.976   0.413   5.137  0.1687 -0.2039 -0.1439
16747SOL    HW162300   7.927   0.420   5.050 -0.8622 -0.2782  0.4190
16747SOL    HW262301   7.919   0.451   5.210  1.8029  1.5760  0.2192
16748SOL     OW62302   6.324   0.484   7.829  0.5799  0.0852 -0.1624
16748SOL    HW162303   6.254   0.499   7.758  0.4832  0.5776  0.0351
16748SOL    HW262304   6.380   0.405   7.804  0.1501 -0.1234 -0.4801
16749SOL     OW62305   7.597   4.033   5.867 -0.4707 -0.2711  0.3723
16749SOL    HW162306   7.497   4.037   5.876 -0.5091 -0.3019 -0.0143
16749SOL    HW262307   7.635   3.982   5.943 -0.8334 -1.0632  0.0375
16750SOL     OW62308   5.380   5.342   6.093 -0.1575 -0.0021  0.4134
16750SOL    HW162309   5.456   5.403   6.116  0.2683 -0.1309 -0.6106
16750SOL    HW262310   5.403   5.249   6.122 -0.6265  0.2326  1.5867
16751SOL     OW62311   0.432   9.574   6.872  0.3819 -0.1011 -0.2693
16751SOL    HW162312   0.376   9.624   6.807 -1.1880 -0.4778  0.7810
16751SOL    HW262313   0.429   9.476   6.851  0.0576 -0.1992  0.2350
16752SOL     OW62314   6.406   4.012   8.996  0.5668 -0.1185 -0.2146
16752SOL    HW162315   6.318   4.014   8.948 -0.0997 -0.2710  0.9821
16752SOL    HW262316   6.446   3.921   8.988  0.3014 -0.2368 -0.2225
16753SOL     OW62317   6.344   6.685   9.069  0.2043 -0.2322  0.1789
16753SOL    HW162318   6.287   6.607   9.095 -0.3602  0.1510  0.1081
16753SOL    HW262319   6.298   6.736   8.996  1.3176 -0.7445 -0.8884
16754SOL     OW62320   7.278   4.675   4.766  0.8167 -0.3442 -0.0521
16754SOL    HW162321   7.355   4.615   4.747  0.3828 -0.6325 -0.9135
16754SOL    HW262322   7.200   4.649   4.709  0.6678  1.1109 -0.5289
16755SOL     OW62323   5.096   6.407   6.605 -0.2841 -0.5107  0.0230
16755SOL    HW162324   5.139   6.427   6.517  1.4799 -0.4709  0.8846
16755SOL    HW262325   5.067   6.492   6.648 -2.2754 -0.6050 -1.0457
16756SOL     OW62326   8.529   7.766   5.034 -0.1317 -0.4409  0.0868
16756SOL    HW162327   8.617   7.723   5.013  0.0072 -0.0503 -0.1488
16756SOL    HW262328   8.491   7.805   4.950 -0.1389  0.0967  0.3399
16757SOL     OW62329   4.941   9.616   5.712  0.2629  0.4254  0.1671
16757SOL    HW162330   4.949   9.697   5.770  1.0895  1.5006 -1.4101
16757SOL    HW262331   4.971   9.536   5.763  2.5163  1.5879  0.7643
16758SOL     OW62332   7.310   0.665   5.166 -0.2188 -0.2338 -0.1083
16758SOL    HW162333   7.246   0.637   5.095 -1.0546  0.0613  0.5221
16758SOL    HW262334   7.274   0.745   5.214  0.9508  0.3554 -0.2113
16759SOL     OW62335   5.466   7.524   0.913 -0.3291 -0.3704 -0.1269
16759SOL    HW162336   5.374   7.498   0.943 -1.1862  1.8680 -0.7488
16759SOL    HW262337   5.503   7.594   0.975  0.8719 -1.0682 -0.0252
16760SOL     OW62338   5.677   8.428   4.696 -0.0577 -0.2106 -0.8730
16760SOL    HW162339   5.618   8.381   4.762 -0.5821  0.0813 -1.1294
16760SOL    HW262340   5.644   8.409   4.603 -0.1427  0.4872 -0.9889
16761SOL     OW62341   3.769   2.956   5.422 -0.1053  0.0512  0.9916
16761SOL    HW162342   3.709   2.893   5.471 -1.3965  1.1045  0.8068
16761SOL    HW262343   3.793   3.033   5.482 -1.1386  0.9965  0.2237
16762SOL     OW62344   3.683   4.021   6.754  0.1068 -0.0898 -0.3041
16762SOL    HW162345   3.680   4.017   6.654 -0.7368  1.5479 -0.3772
16762SOL    HW262346   3.606   3.969   6.792 -1.7794  2.3159 -0.6669
16763SOL     OW62347   9.463   9.780   4.968 -0.0497 -0.0568  0.1928
16763SOL    HW162348   9.422   9.870   4.959  0.6374  0.1995 -0.4037
16763SOL    HW262349   9.425   9.719   4.899  2.6043  0.9504 -2.2511
16764SOL     OW62350   9.364   8.409   4.722  0.2125 -0.2202  0.6941
16764SOL    HW162351   9.402   8.435   4.633  0.9827 -0.6498  0.8903
16764SOL    HW262352   9.362   8.310   4.730 -0.4403 -0.1920  0.9105
16765SOL     OW62353   2.711   7.499   2.219 -0.1976  0.5095 -0.6034
16765SOL    HW162354   2.665   7.479   2.132 -1.3684  0.5582 -0.0151
16765SOL    HW262355   2.744   7.593   2.219 -2.0041  1.1586 -0.2223
16766SOL     OW62356   5.552   7.064   6.176 -0.0871 -0.0766 -0.3338
16766SOL    HW162357   5.534   7.157   6.145 -0.2269 -0.3981 -1.2316
16766SOL    HW262358   5.621   7.022   6.118 -0.9020 -0.9462 -0.6962
16767SOL     OW62359   5.707   9.961   5.091  0.4179  0.1711  0.8620
16767SOL    HW162360   5.797   9.936   5.055 -0.3529 -1.2326 -0.1539
16767SOL    HW262361   5.662  10.025   5.028 -0.3502 -1.1819  0.0070
16768SOL     OW62362   8.597   6.007   7.324  0.3397  0.2661 -0.3219
16768SOL    HW162363   8.531   5.933   7.317 -1.3936  1.8868 -1.9432
16768SOL    HW262364   8.687   5.971   7.348 -0.8906 -2.1007  0.8463
16769SOL     OW62365   8.936   4.335   2.573  0.3005 -0.0326 -0.0143
16769SOL    HW162366   9.034   4.345   2.587 -0.3411  1.4145  4.1866
16769SOL    HW262367   8.904   4.251   2.617 -0.4759 -0.0351 -0.5731
16770SOL     OW62368   6.381   7.176   6.244  0.4961  0.6409 -0.1101
16770SOL    HW162369   6.389   7.274   6.263  1.0908  0.5309  0.2120
16770SOL    HW262370   6.394   7.124   6.328 -0.9571  0.3293 -0.0735
16771SOL     OW62371   2.647   7.200   8.227 -0.0898 -0.2764  0.1614
16771SOL    HW162372   2.662   7.177   8.323 -0.2621 -1.4263 -0.0804
16771SOL    HW262373   2.706   7.143   8.170 -0.9110 -0.4997 -0.4746
16772SOL     OW62374   8.903   7.823   4.950  0.1999  0.5754 -0.3819
16772SOL    HW162375   8.853   7.740   4.976  3.1635 -2.0661 -2.7418
16772SOL    HW262376   8.947   7.861   5.031  0.0372 -1.0332  0.4999
16773SOL     OW62377   8.846   4.619   2.528  0.2656  0.9871 -0.6881
16773SOL    HW162378   8.887   4.528   2.530 -0.0749  0.8344 -0.6953
16773SOL    HW262379   8.747   4.611   2.515  0.2037  1.3467 -0.4419
16774SOL     OW62380   4.086   1.155   7.563 -0.3714 -0.4155 -0.3525
16774SOL    HW162381   4.120   1.122   7.651  0.3609 -0.5362 -0.6714
16774SOL    HW262382   4.108   1.087   7.492 -1.9425 -0.8377 -0.4514
16775SOL     OW62383   8.915   3.479   4.382  0.4982 -0.2753  0.3163
16775SOL    HW162384   8.898   3.453   4.287 -0.7979 -0.0030  0.4524
16775SOL    HW262385   8.874   3.569   4.399 -0.8443 -1.1008  1.5881
16776SOL     OW62386   7.797   9.280   3.726 -0.5034  0.1230 -0.3620
16776SOL    HW162387   7.850   9.223   3.788 -2.3382 -0.2751  0.8785
16776SOL    HW262388   7.834   9.373   3.725 -0.5215  0.1597  1.4102
16777SOL     OW62389   1.551   0.261   8.794 -0.1987 -0.3928  0.3757
16777SOL    HW162390   1.631   0.287   8.849 -0.4214  1.0994  0.0197
16777SOL    HW262391   1.514   0.343   8.749 -0.7625 -1.3894 -1.0067
16778SOL     OW62392   5.496   5.667   5.566  0.3780 -0.0336  0.6412
16778SOL    HW162393   5.450   5.755   5.574  0.6762  0.1475  0.3814
16778SOL    HW262394   5.547   5.648   5.650  2.0642  1.0454 -0.1176
16779SOL     OW62395   5.391   0.409   8.326  0.1340  0.2347 -0.1028
16779SOL    HW162396   5.402   0.311   8.311  3.1657  0.6033 -0.5758
16779SOL    HW262397   5.302   0.438   8.292 -1.5069 -2.6321  1.5687
16780SOL     OW62398   0.446   4.542   0.655  0.7278  0.2872 -0.2220
16780SOL    HW162399   0.542   4.565   0.638  0.5391  0.1209 -1.5224
16780SOL    HW262400   0.410   4.487   0.580 -0.0353 -0.7330  0.8534
16781SOL     OW62401   4.704   3.054   7.964  0.2657  0.8215  0.5034
16781SOL    HW162402   4.632   3.121   7.952 -1.2070 -1.1842 -2.4624
16781SOL    HW262403   4.700   3.016   8.057 -1.1215  2.2557  1.0321
16782SOL     OW62404   1.585   9.286   5.135 -0.6712 -0.0171 -0.0386
16782SOL    HW162405   1.515   9.251   5.072 -1.4506 -0.6127  1.1433
16782SOL    HW262406   1.540   9.333   5.211  0.2347 -0.3851  0.7261
16783SOL     OW62407   5.186   8.320   5.492 -0.0971 -0.0421 -0.1089
16783SOL    HW162408   5.174   8.418   5.475  0.6899 -0.0923 -1.0047
16783SOL    HW262409   5.282   8.302   5.513 -0.4882 -0.4388  1.3304
16784SOL     OW62410   5.190   4.206   8.222  0.6010 -0.2223  0.2670
16784SOL    HW162411   5.271   4.264   8.232 -0.3787  1.0811  0.7911
16784SOL    HW262412   5.118   4.239   8.283  0.0107 -1.9714  0.5268
16785SOL     OW62413   6.545   2.495   8.788  0.1815  0.0738  0.1770
16785SOL    HW162414   6.518   2.517   8.695  2.7167  0.7779 -0.4418
16785SOL    HW262415   6.552   2.580   8.842  1.1392 -0.0763  0.3010
16786SOL     OW62416   6.759   9.264   9.949 -0.2596 -0.2172 -0.4235
16786SOL    HW162417   6.694   9.250  10.024 -0.2710  1.5967 -0.0885
16786SOL    HW262418   6.791   9.175   9.916 -0.5579 -1.0441  1.4641
16787SOL     OW62419   2.771   8.770   6.927 -0.1435 -0.1107  0.2479
16787SOL    HW162420   2.815   8.784   6.839  0.1757 -2.3665  0.0200
16787SOL    HW262421   2.676   8.800   6.923  0.4246  1.6228 -0.2660
16788SOL     OW62422   3.707   1.510   7.312  0.0030 -0.1581  0.2000
16788SOL    HW162423   3.637   1.486   7.245  0.8771 -2.9016  0.1966
16788SOL    HW262424   3.672   1.582   7.372 -1.5938  0.7958 -1.8009
16789SOL     OW62425   3.393   5.384   1.560 -0.1890 -0.0784 -0.0728
16789SOL    HW162426   3.438   5.473   1.551 -0.7243  0.2416  0.4066
16789SOL    HW262427   3.459   5.316   1.593  0.3408  0.0300 -0.9050
16790SOL     OW62428   2.496   2.202   4.559 -0.1294 -0.4010  0.2688
16790SOL    HW162429   2.578   2.232   4.509  0.2240 -0.3309  0.8816
16790SOL    HW262430   2.418   2.199   4.496  0.1123  0.5404 -0.0857
16791SOL     OW62431   8.789   1.227   0.055  0.2399  0.0114  0.0190
16791SOL    HW162432   8.722   1.293   0.090  1.8182  1.3635  0.5908
16791SOL    HW262433   8.875   1.237   0.106  1.3374 -0.7111 -1.6401
16792SOL     OW62434   7.765   7.142   5.640 -0.2140  0.2964 -0.8325
16792SOL    HW162435   7.864   7.135   5.635 -0.2391  0.1483 -1.0914
16792SOL    HW262436   7.739   7.239   5.641 -0.1321  0.3297 -1.9221
16793SOL     OW62437   2.777   9.072   7.370  0.2442 -0.0143 -0.2022
16793SOL    HW162438   2.741   8.986   7.408 -0.2901  0.7075  0.9492
16793SOL    HW262439   2.756   9.077   7.273 -1.4398 -0.3118  0.1277
16794SOL     OW62440   4.970   6.644   1.962  0.1636 -0.3468  0.4588
16794SOL    HW162441   4.943   6.584   1.887  0.7485  0.9633 -0.8281
16794SOL    HW262442   4.988   6.589   2.044  1.8615 -2.0686 -1.0110
16795SOL     OW62443   5.714   7.693   2.596 -0.6247  0.4811  0.1912
16795SOL    HW162444   5.776   7.621   2.564 -0.4220  0.4671  0.6105
16795SOL    HW262445   5.763   7.780   2.599 -0.8127  0.5959 -0.1176
16796SOL     OW62446   6.033   0.302   0.290  0.4240 -0.1093 -0.2945
16796SOL    HW162447   5.934   0.306   0.299  0.5290  1.0541  0.3489
16796SOL    HW262448   6.065   0.377   0.233  0.8853 -0.7717 -0.9086
16797SOL     OW62449   7.346   1.346   6.154 -0.0223  0.5224 -0.1266
16797SOL    HW162450   7.409   1.396   6.095 -1.0724  1.5735 -0.3782
16797SOL    HW262451   7.269   1.313   6.099  0.2348 -0.6483  0.1995
16798SOL     OW62452   6.944   1.500   9.550  0.4435 -0.2454  0.4810
16798SOL    HW162453   7.035   1.540   9.553  1.2157 -2.0332  1.7180
16798SOL    HW262454   6.934   1.447   9.466  1.3301 -1.7747  1.3115
16799SOL     OW62455   6.260   8.874   0.265  0.1128  0.4300  0.4595
16799SOL    HW162456   6.288   8.787   0.225 -2.0074  0.1858 -0.6032
16799SOL    HW262457   6.334   8.912   0.320  1.9523 -0.8193 -1.1165
16800SOL     OW62458   3.353   0.575   3.593  0.0994 -0.4205  0.2487
16800SOL    HW162459   3.330   0.557   3.688 -1.3573  0.4218  0.0690
16800SOL    HW262460   3.409   0.658   3.587  1.7560 -1.4882  0.5196
16801SOL     OW62461   2.184   3.234   1.715  0.0637  0.3619  0.3156
16801SOL    HW162462   2.171   3.314   1.657  2.2116  0.9732  0.6229
16801SOL    HW262463   2.168   3.259   1.811  1.3483  0.6062  0.4788
16802SOL     OW62464   6.068   9.662   1.158 -0.0827  0.5889  0.0977
16802SOL    HW162465   6.120   9.636   1.239 -1.1368 -0.4087  0.4671
16802SOL    HW262466   5.970   9.654   1.177 -0.3589  1.1579 -1.0094
16803SOL     OW62467   8.677   5.270   6.153  0.0666  0.3996 -0.8946
16803SOL    HW162468   8.747   5.335   6.124 -1.0038  1.5880 -0.8571
16803SOL    HW262469   8.720   5.193   6.201  1.4257  0.6173 -1.7502
16804SOL     OW62470   8.163   2.901   5.141 -0.4410 -0.2403  0.4506
16804SOL    HW162471   8.259   2.915   5.115 -0.5554 -1.8509 -0.9457
16804SOL    HW262472   8.119   2.990   5.155  0.4762  0.6263 -1.8893
16805SOL     OW62473   3.322   4.590   8.555  0.1565  0.7711  0.1722
16805SOL    HW162474   3.224   4.603   8.566  0.0989  0.0125  0.5703
16805SOL    HW262475   3.356   4.653   8.485 -0.7574  0.4339 -0.5867
16806SOL     OW62476   0.672   5.156   7.959  0.9294  0.8489 -0.0611
16806SOL    HW162477   0.729   5.121   8.034  2.5109  2.5546 -0.4142
16806SOL    HW262478   0.581   5.116   7.965  1.2832  0.2990  2.2705
16807SOL     OW62479   8.621   9.487   4.769  0.1174  0.1822 -0.4077
16807SOL    HW162480   8.705   9.436   4.754  0.6371  1.0222 -0.3781
16807SOL    HW262481   8.587   9.521   4.681 -0.1028 -0.0152 -0.3996
16808SOL     OW62482   5.123   4.428   5.566  0.4279 -0.1346  0.0440
16808SOL    HW162483   5.124   4.328   5.577 -0.4540 -0.0836  0.6253
16808SOL    HW262484   5.148   4.451   5.472 -1.4065 -0.9972 -0.6800
16809SOL     OW62485   5.766   0.763   8.030  0.2293  0.5040  0.3228
16809SOL    HW162486   5.813   0.712   8.102 -0.2596  1.7321  1.5496
16809SOL    HW262487   5.692   0.817   8.070 -1.3781 -0.3478 -1.4003
16810SOL     OW62488   9.637   1.132   8.049  0.0056 -0.0458 -0.1979
16810SOL    HW162489   9.570   1.090   8.110  0.3044  2.0342  1.6225
16810SOL    HW262490   9.589   1.190   7.982 -0.4165 -3.2400 -2.7938
16811SOL     OW62491   8.270   0.975   6.223  0.2238 -0.1173  0.0891
16811SOL    HW162492   8.354   1.030   6.223  1.6070 -2.0462 -2.8044
16811SOL    HW262493   8.265   0.920   6.306  2.6410 -1.0277 -0.3186
16812SOL     OW62494   5.249   4.261   7.586 -0.2418 -0.8474  0.0453
16812SOL    HW162495   5.262   4.183   7.523  0.0046 -1.2423  0.5822
16812SOL    HW262496   5.318   4.257   7.658 -1.5968 -1.3962  1.3475
16813SOL     OW62497   5.214   7.811   9.614  0.0243 -0.3052  0.2169
16813SOL    HW162498   5.231   7.723   9.657  1.7441  0.9079  2.1494
16813SOL    HW262499   5.296   7.842   9.566 -0.1256  0.8500  0.6865
16814SOL     OW62500   5.066   3.275   8.716  0.7479  0.3038  0.0769
16814SOL    HW162501   5.049   3.221   8.799 -0.4325 -1.6922 -1.4470
16814SOL    HW262502   5.154   3.248   8.677  0.0964 -0.6405 -0.7594
16815SOL     OW62503   0.272   1.831   1.014 -0.6608  0.1524 -0.0085
16815SOL    HW162504   0.332   1.849   0.936 -0.2553  0.8262  0.4521
16815SOL    HW262505   0.230   1.741   1.004  0.3768 -0.2941 -0.3730
16816SOL     OW62506   7.168   0.005   5.566 -0.1178  0.0496 -0.5480
16816SOL    HW162507   7.101  -0.029   5.633  0.3340 -3.1738 -1.6150
16816SOL    HW262508   7.122   0.061   5.497 -1.2801 -0.0306  0.1542
16817SOL     OW62509   6.797   4.817   7.455 -0.2877  0.0575 -0.5058
16817SOL    HW162510   6.702   4.796   7.431  0.0628  0.8035 -2.6750
16817SOL    HW262511   6.807   4.915   7.472 -0.5383 -0.4603  2.9412
16818SOL     OW62512   6.302   3.374   9.109  0.7197 -0.2370  0.2127
16818SOL    HW162513   6.378   3.321   9.071  1.1080  0.2899  0.2340
16818SOL    HW262514   6.271   3.441   9.041  1.6219  0.9196  0.9199
16819SOL     OW62515   4.917   9.279   6.224 -0.1824  0.0611  0.2464
16819SOL    HW162516   4.890   9.258   6.130  0.6440 -0.7235  0.1844
16819SOL    HW262517   4.839   9.262   6.285 -0.9944  1.4093 -0.3945
16820SOL     OW62518   5.965   1.582   0.517  0.1489 -0.0001  0.6181
16820SOL    HW162519   5.983   1.577   0.419  0.3598 -1.0300  0.7046
16820SOL    HW262520   5.913   1.665   0.537 -1.4973 -0.7173 -0.6116
16821SOL     OW62521   6.828   8.356   9.232  0.5893 -0.3823 -0.4143
16821SOL    HW162522   6.786   8.304   9.306 -1.3651  0.9073 -0.5860
16821SOL    HW262523   6.881   8.432   9.271 -1.1964  0.8479 -0.3472
16822SOL     OW62524   2.454   1.516   6.310  0.3676 -0.5754 -0.6472
16822SOL    HW162525   2.380   1.547   6.370 -0.0534  1.6923 -2.2813
16822SOL    HW262526   2.533   1.576   6.321  1.0414 -1.4204 -0.8267
16823SOL     OW62527   0.605   2.393   8.945 -0.2656 -0.2907 -0.0567
16823SOL    HW162528   0.556   2.476   8.970 -0.9312 -0.4689 -0.7258
16823SOL    HW262529   0.579   2.318   9.006 -1.2361 -0.5144 -0.7326
16824SOL     OW62530   5.917   0.376   8.243 -0.2029  0.2781 -0.3197
16824SOL    HW162531   5.868   0.298   8.281 -1.2117  1.4498  0.8161
16824SOL    HW262532   5.999   0.395   8.298 -0.5294  0.6781  0.0280
16825SOL     OW62533   9.401   7.639   4.045  0.7727 -0.1539  0.0795
16825SOL    HW162534   9.332   7.711   4.056  2.2330  1.2529  0.1354
16825SOL    HW262535   9.381   7.586   3.963 -1.1355 -0.6157  0.8157
16826SOL     OW62536   6.316   1.036   9.550  0.5075  0.3500  0.5412
16826SOL    HW162537   6.388   1.029   9.481  0.1682 -0.2897  0.2460
16826SOL    HW262538   6.300   0.946   9.590  0.2925  0.6088  1.0371
16827SOL     OW62539   9.007   9.683   7.004  0.2946 -0.2582  0.4800
16827SOL    HW162540   8.922   9.666   7.054  0.5132 -0.3232  0.8271
16827SOL    HW262541   8.985   9.701   6.908 -0.1885  0.7574  0.7764
16828SOL     OW62542   8.791   0.823   5.969 -0.0758 -0.0609  0.0374
16828SOL    HW162543   8.859   0.751   5.951 -1.2184 -1.0540 -0.4018
16828SOL    HW262544   8.820   0.908   5.926  0.1428 -0.8729 -1.4455
16829SOL     OW62545   3.215   9.758   7.111  0.0738  0.0187 -0.1346
16829SOL    HW162546   3.209   9.788   7.015 -0.1533 -2.1776 -0.8411
16829SOL    HW262547   3.310   9.733   7.131 -0.1913 -1.2653 -0.3773
16830SOL     OW62548   5.524   3.047   8.767  0.1138  0.2451 -0.1090
16830SOL    HW162549   5.615   3.063   8.727  0.0975  1.0552  0.1734
16830SOL    HW262550   5.482   2.968   8.723  0.5877  0.4129 -0.8766
16831SOL     OW62551   9.166   3.780   8.872 -0.4727  0.0869  0.2295
16831SOL    HW162552   9.136   3.743   8.960 -0.3525  2.0877  1.1418
16831SOL    HW262553   9.205   3.707   8.817 -1.0291 -1.3005  1.6344
16832SOL     OW62554   1.488   1.688   8.761 -0.3911 -0.5732  0.0004
16832SOL    HW162555   1.440   1.758   8.708 -0.1587 -1.2960 -1.2053
16832SOL    HW262556   1.585   1.710   8.764 -0.7662  0.8531  2.3818
16833SOL     OW62557   5.530   2.308   8.823 -0.4177  1.0497  0.2983
16833SOL    HW162558   5.547   2.406   8.811  2.1541  0.7011  0.7951
16833SOL    HW262559   5.566   2.279   8.912 -0.5397 -0.4641 -0.1390
16834SOL     OW62560   4.338   1.884   7.000  0.0624 -0.4134 -0.7436
16834SOL    HW162561   4.427   1.843   7.023  1.0687  2.2887  0.3119
16834SOL    HW262562   4.335   1.978   7.032 -4.3022 -1.2948  1.9307
16835SOL     OW62563   3.622   9.739   4.401  0.7947  0.1966  0.4632
16835SOL    HW162564   3.606   9.645   4.370 -2.3349  0.2606  1.6525
16835SOL    HW262565   3.601   9.745   4.499  0.5227  2.2374  0.2927
16836SOL     OW62566   6.468   1.410   0.774  0.3470 -0.1901 -0.5811
16836SOL    HW162567   6.408   1.337   0.806  0.8647 -1.3039 -2.1052
16836SOL    HW262568   6.415   1.493   0.759 -0.6284 -0.8675 -0.9198
16837SOL     OW62569   1.194   0.668   1.553  0.4003 -0.0637  0.2063
16837SOL    HW162570   1.256   0.592   1.575  1.8970  0.8341 -0.8044
16837SOL    HW262571   1.131   0.639   1.482  1.8399  0.0041 -1.1442
16838SOL     OW62572   4.302   9.694   8.777  0.1595  0.3435 -0.0734
16838SOL    HW162573   4.246   9.756   8.830 -0.1971  1.8750 -2.1730
16838SOL    HW262574   4.385   9.741   8.746 -0.5733  0.1323 -2.5073
16839SOL     OW62575   8.543   5.627   5.752 -0.0398 -0.4008  0.4127
16839SOL    HW162576   8.608   5.701   5.770 -0.5027 -0.3559  1.9581
16839SOL    HW262577   8.450   5.663   5.749 -0.1752 -0.7629  0.1287
16840SOL     OW62578   5.104   1.653   6.599  0.2823  0.0181 -0.4554
16840SOL    HW162579   5.147   1.740   6.625  0.0496  0.5720 -1.8696
16840SOL    HW262580   5.121   1.585   6.670  3.2650  0.3020 -0.8208
16841SOL     OW62581   9.366   0.347   5.840  0.6860 -0.4313 -1.0341
16841SOL    HW162582   9.376   0.446   5.832 -0.7683 -0.2698 -0.9626
16841SOL    HW262583   9.310   0.313   5.765  0.0150 -1.0213 -0.2687
16842SOL     OW62584   2.897   2.095   3.649  0.4669  0.0708  0.6718
16842SOL    HW162585   2.882   1.999   3.627 -0.1235  0.5074 -0.8902
16842SOL    HW262586   2.808   2.141   3.660  0.7142  0.9167 -0.7629
16843SOL     OW62587   7.115   1.350   5.192  0.2888 -0.4514  0.3754
16843SOL    HW162588   7.187   1.419   5.188  0.1130 -0.3572 -1.7437
16843SOL    HW262589   7.151   1.262   5.161  0.0260 -0.9102  1.3291
16844SOL     OW62590   7.333   4.143   8.096  0.0214 -0.1274  0.2345
16844SOL    HW162591   7.260   4.207   8.120 -0.1497 -0.8199  1.5602
16844SOL    HW262592   7.304   4.086   8.019 -0.3581  0.4355 -0.0418
16845SOL     OW62593   8.879   0.773   9.184 -0.0015 -0.7326 -0.1196
16845SOL    HW162594   8.865   0.797   9.280  1.0280 -0.6117  0.0061
16845SOL    HW262595   8.859   0.676   9.170 -3.4851 -0.0097 -0.4876
16846SOL     OW62596   7.888   1.816   4.757  0.0036  0.3435  0.3622
16846SOL    HW162597   7.940   1.835   4.841 -2.3369 -0.3945  2.0194
16846SOL    HW262598   7.916   1.880   4.685  2.3282  0.7352  1.5754
16847SOL     OW62599   1.714   2.136   2.020 -0.4964  0.0504  0.0091
16847SOL    HW162600   1.765   2.083   2.088 -1.8600 -0.2719  0.7886
16847SOL    HW262601   1.725   2.094   1.930  2.5172  1.2934 -0.2790
16848SOL     OW62602   7.961   8.804   8.386  0.0044 -0.7431 -0.3436
16848SOL    HW162603   7.954   8.756   8.299 -0.3102  0.1542 -0.8242
16848SOL    HW262604   7.872   8.803   8.432 -0.0548 -0.4567 -0.4484
16849SOL     OW62605   4.274   2.505   6.460  0.3832 -0.3975 -0.8763
16849SOL    HW162606   4.237   2.598   6.472  0.5729 -0.3748 -0.4358
16849SOL    HW262607   4.350   2.507   6.396 -0.8114 -0.5519 -2.3387
16850SOL     OW62608   0.882   8.429   0.156  0.5135  0.0697  0.2937
16850SOL    HW162609   0.857   8.506   0.098 -0.8812  1.0510  2.1434
16850SOL    HW262610   0.975   8.440   0.189  1.0762 -0.1553 -1.1634
16851SOL     OW62611   5.529   9.449   9.458 -0.1121 -0.2122 -0.2097
16851SOL    HW162612   5.490   9.366   9.418  1.1132 -0.4651 -0.8873
16851SOL    HW262613   5.625   9.457   9.433 -0.3937  1.7966 -0.7889
16852SOL     OW62614   2.972   9.424   7.129  0.1207  0.1952  0.2340
16852SOL    HW162615   2.945   9.446   7.222 -0.1176  1.4392 -0.1153
16852SOL    HW262616   3.070   9.440   7.117  0.2417 -0.3954  0.3787
16853SOL     OW62617   7.859   3.534   4.684  0.1024  0.4311 -0.1027
16853SOL    HW162618   7.781   3.558   4.626 -1.5932  0.5408  2.1027
16853SOL    HW262619   7.884   3.613   4.741  0.3135 -0.2949  0.8344
16854SOL     OW62620   6.321   2.983   6.929 -0.2398 -0.2364  0.5147
16854SOL    HW162621   6.320   3.083   6.939  0.2389 -0.0862 -0.7623
16854SOL    HW262622   6.408   2.948   6.964  0.5630  0.0591 -1.1197
16855SOL     OW62623   5.316   9.067   5.896 -0.3330  0.4829 -0.1096
16855SOL    HW162624   5.319   8.973   5.930 -0.6680  0.1144 -1.0692
16855SOL    HW262625   5.292   9.129   5.971  0.4620 -0.1256  0.6579
16856SOL     OW62626   3.014   0.185   3.955 -0.2220 -0.0409 -0.1057
16856SOL    HW162627   2.939   0.157   3.895 -1.2696  0.8784  0.7370
16856SOL    HW262628   2.986   0.266   4.006  1.1347 -0.0564  0.6767
16857SOL     OW62629   9.303   9.981   4.740 -0.7667 -0.0975  0.1985
16857SOL    HW162630   9.346  10.053   4.685  1.8311 -0.7830  1.2430
16857SOL    HW262631   9.258   9.915   4.679 -0.6199  0.8082 -0.9134
16858SOL     OW62632   7.537   6.519   5.273  0.5813 -0.4153 -0.0903
16858SOL    HW162633   7.539   6.494   5.176 -0.6958  3.0380 -1.0852
16858SOL    HW262634   7.630   6.534   5.306  1.0824 -2.4677 -0.5079
16859SOL     OW62635   9.573   2.176   1.723 -0.2262  0.0861  0.2615
16859SOL    HW162636   9.511   2.232   1.778  0.1791 -1.3837  2.2956
16859SOL    HW262637   9.663   2.219   1.722  0.1887 -0.6617  2.1547
16860SOL     OW62638   0.078   3.016   9.670  0.2128 -0.0060 -0.5823
16860SOL    HW162639   0.178   3.025   9.672  0.1167  1.8487 -2.3827
16860SOL    HW262640   0.041   3.030   9.761  1.7104 -2.4483  0.4456
16861SOL     OW62641   4.154   4.073   6.727 -0.2289  0.6335  0.2574
16861SOL    HW162642   4.098   4.016   6.667 -0.6255  0.0346  1.1881
16861SOL    HW262643   4.235   4.022   6.755 -0.5837  0.5302  1.0930
16862SOL     OW62644   7.829   0.318   4.907 -0.0363 -0.3227 -0.0793
16862SOL    HW162645   7.735   0.350   4.894  0.3684  1.8902  2.0643
16862SOL    HW262646   7.828   0.219   4.920 -1.9346 -0.4912 -1.2717
16863SOL     OW62647   8.061   1.387   0.834 -0.4639 -0.7482  0.3628
16863SOL    HW162648   8.024   1.296   0.815  0.3545 -0.6672 -1.7746
16863SOL    HW262649   8.157   1.379   0.862 -0.2032 -0.5121 -0.4476
16864SOL     OW62650   5.435   7.945   9.469 -0.0003 -0.5954  0.2102
16864SOL    HW162651   5.461   8.041   9.454 -0.1897 -0.6690 -0.6203
16864SOL    HW262652   5.517   7.888   9.473  0.1294 -0.3453  1.0696
16865SOL     OW62653   4.660   2.615   4.906  0.0655  0.5924 -0.5071
16865SOL    HW162654   4.627   2.522   4.889  2.0000 -0.4413  1.1573
16865SOL    HW262655   4.593   2.664   4.962  0.2486 -0.6974  0.8678
16866SOL     OW62656   6.648   9.309   4.150  0.2400  0.2566 -0.1764
16866SOL    HW162657   6.655   9.395   4.098  1.9138 -0.3650 -1.0096
16866SOL    HW262658   6.706   9.316   4.232 -4.0740  2.0729  2.8881
16867SOL     OW62659   3.361   2.096   5.730  0.0392 -0.1204  0.2602
16867SOL    HW162660   3.404   2.089   5.640 -0.6395  0.2094 -0.0889
16867SOL    HW262661   3.386   2.183   5.772 -0.1006 -0.0296  0.1549
16868SOL     OW62662   9.785   1.155   2.727  0.2688  0.1829 -0.1371
16868SOL    HW162663   9.803   1.056   2.724  0.9576  0.3246 -0.9622
16868SOL    HW262664   9.867   1.203   2.757 -0.0766  0.5038  0.2890
16869SOL     OW62665   6.594   3.914   8.171 -0.4211  0.5110  0.2267
16869SOL    HW162666   6.556   3.835   8.218 -1.0895  1.0193  0.5439
16869SOL    HW262667   6.573   3.997   8.223  2.6144  0.6364  1.3311
16870SOL     OW62668   4.095   3.643   8.684 -0.1328 -0.0445  0.6009
16870SOL    HW162669   4.080   3.544   8.680  2.7687 -0.4586 -2.2909
16870SOL    HW262670   4.177   3.662   8.737 -0.2197  0.7676  0.4457
16871SOL     OW62671   7.209   6.066   8.208 -0.1863 -0.1994 -0.2745
16871SOL    HW162672   7.240   6.090   8.299 -2.1912  1.0665  0.0973
16871SOL    HW262673   7.154   5.982   8.212 -0.2393 -0.1683 -0.3404
16872SOL     OW62674   9.963   3.713   2.376 -0.5835  0.0236 -0.0400
16872SOL    HW162675   9.950   3.787   2.442 -1.1547 -0.9641  0.9732
16872SOL    HW262676  10.049   3.726   2.327 -0.2295  0.8559  0.7980
16873SOL     OW62677   2.333   8.561   2.481  0.2018 -0.6047  0.1207
16873SOL    HW162678   2.321   8.659   2.498  1.4660 -0.0030 -2.2201
16873SOL    HW262679   2.257   8.528   2.425  0.9243 -0.4288 -0.9877
16874SOL     OW62680   0.380   6.809   0.740 -0.4133  0.0341 -0.3476
16874SOL    HW162681   0.425   6.820   0.651 -0.4459  0.1477 -0.3498
16874SOL    HW262682   0.320   6.887   0.757 -0.3052  0.0783 -0.1655
16875SOL     OW62683   2.381   4.463   6.242  0.3253 -0.0419  0.0098
16875SOL    HW162684   2.416   4.556   6.244  1.0976 -0.3106 -1.0816
16875SOL    HW262685   2.301   4.458   6.181 -1.1239  0.3834  1.8280
16876SOL     OW62686   2.479   2.617   7.877  0.3634 -1.1276 -0.5195
16876SOL    HW162687   2.394   2.586   7.920 -0.1695  1.5348  0.4156
16876SOL    HW262688   2.461   2.641   7.782 -0.3333  1.0103  0.1273
16877SOL     OW62689   5.742   1.434   9.792  0.2109 -0.3459 -0.3681
16877SOL    HW162690   5.833   1.470   9.812  0.5618 -2.1625  1.4396
16877SOL    HW262691   5.748   1.368   9.718  0.4254 -0.7437  0.0024
16878SOL     OW62692   6.324   1.297   4.843  0.5168  0.5002  0.3642
16878SOL    HW162693   6.386   1.364   4.884  0.5768 -0.0473  1.1723
16878SOL    HW262694   6.264   1.260   4.913  0.6494 -0.4723 -0.0279
16879SOL     OW62695   7.539   8.204   5.988 -0.6362 -0.1937 -0.0432
16879SOL    HW162696   7.513   8.217   6.084 -0.1522 -0.9665  0.1981
16879SOL    HW262697   7.506   8.115   5.957  1.2299 -0.9602  0.1110
16880SOL     OW62698   7.847   7.963   7.404  0.1950 -0.0492  0.5540
16880SOL    HW162699   7.781   7.940   7.333  1.3902 -1.4059 -0.1442
16880SOL    HW262700   7.826   7.912   7.487  1.2513 -1.6631 -0.1488
16881SOL     OW62701   9.777   6.277   0.935 -0.4187  0.1135 -0.0256
16881SOL    HW162702   9.804   6.226   0.854  0.0895 -0.1810  0.3274
16881SOL    HW262703   9.712   6.349   0.910 -0.1606  0.1046 -0.7056
16882SOL     OW62704   9.337   9.615   9.114  0.0284  0.3260 -0.5650
16882SOL    HW162705   9.370   9.530   9.156 -1.6942  0.2960  0.7883
16882SOL    HW262706   9.391   9.692   9.149 -2.0887  0.4445  2.7266
16883SOL     OW62707   7.356   2.799   9.585 -0.7663  0.5030  0.1389
16883SOL    HW162708   7.418   2.869   9.550 -0.2930 -0.2733 -0.5888
16883SOL    HW262709   7.354   2.722   9.522  0.4465 -1.1032  2.0146
16884SOL     OW62710   4.993   7.071   9.601  0.2878 -0.0815 -0.3011
16884SOL    HW162711   5.067   7.139   9.598  0.9905 -0.7935  0.6443
16884SOL    HW262712   4.962   7.052   9.507  1.4469  0.0819 -0.7341
16885SOL     OW62713   2.413   3.433   5.586  0.0358 -0.1248 -0.3955
16885SOL    HW162714   2.459   3.521   5.602  0.1883 -0.1468 -0.7005
16885SOL    HW262715   2.478   3.369   5.545  0.1321 -0.6232  0.5274
16886SOL     OW62716   8.102   3.876   6.457  0.3819 -0.2273  0.3815
16886SOL    HW162717   8.180   3.828   6.498  0.4865  0.0391  0.4933
16886SOL    HW262718   8.135   3.958   6.411 -0.1783  1.3095  2.6905
16887SOL     OW62719   4.394   3.395   4.778 -0.5227 -0.1508  0.0022
16887SOL    HW162720   4.303   3.356   4.790 -0.6617 -0.2528 -1.2706
16887SOL    HW262721   4.460   3.321   4.767 -0.2660 -0.0786  0.9962
16888SOL     OW62722   5.822   1.762   1.801 -0.5446  0.5027 -0.2067
16888SOL    HW162723   5.847   1.851   1.838  0.6445 -0.3004  0.9821
16888SOL    HW262724   5.794   1.701   1.875 -1.8906  0.0521 -1.0683
16889SOL     OW62725   5.910   8.083   6.108 -0.1166 -0.6802  0.1649
16889SOL    HW162726   5.854   8.045   6.035  0.6487 -1.1070 -0.1971
16889SOL    HW262727   5.856   8.087   6.192 -1.1089  0.1339 -0.4924
16890SOL     OW62728   1.628   9.241   8.432  0.1106  0.0910  0.2706
16890SOL    HW162729   1.620   9.209   8.527 -3.4243  0.3432  0.1138
16890SOL    HW262730   1.606   9.166   8.370 -0.0323  0.5931 -0.2876
16891SOL     OW62731   1.507   4.923   4.350  0.4083  0.0746 -0.5350
16891SOL    HW162732   1.591   4.927   4.296  0.1626 -2.0533 -1.1014
16891SOL    HW262733   1.504   4.837   4.401 -0.1929  1.2793  1.5221
16892SOL     OW62734   3.891   1.449   8.756 -0.1848 -0.3630  0.7038
16892SOL    HW162735   3.972   1.395   8.776 -0.1824 -0.8343 -0.5425
16892SOL    HW262736   3.897   1.485   8.663 -1.2101 -0.0343  0.7580
16893SOL     OW62737   8.336   0.931   5.162  0.1366 -0.6062  0.1347
16893SOL    HW162738   8.383   0.846   5.186  0.7302 -0.0581  0.9017
16893SOL    HW262739   8.366   0.960   5.071  0.3570 -0.9184  0.1057
16894SOL     OW62740   6.304   0.266   5.723 -0.0187 -0.3106 -0.2010
16894SOL    HW162741   6.234   0.242   5.790  0.9156 -0.1009  0.8574
16894SOL    HW262742   6.387   0.298   5.770  0.3644  0.6197 -1.4595
16895SOL     OW62743   5.689   0.697   7.241 -0.0685  0.0935 -0.2685
16895SOL    HW162744   5.786   0.675   7.241 -0.0070  0.3692 -1.0075
16895SOL    HW262745   5.639   0.629   7.186 -0.0800  0.9121 -1.2672
16896SOL     OW62746   5.129   5.509   9.038  0.1323  0.1022  0.5393
16896SOL    HW162747   5.098   5.422   9.077 -3.1496  0.9901  0.0631
16896SOL    HW262748   5.122   5.581   9.107 -1.6092  0.8551 -0.3955
16897SOL     OW62749   3.837   7.111   1.400  0.1401  0.1998 -0.1220
16897SOL    HW162750   3.920   7.166   1.410  0.9077 -1.3079  2.2903
16897SOL    HW262751   3.786   7.112   1.486  0.0042 -2.5543 -0.1311
16898SOL     OW62752   2.866   9.473   7.395  0.0037  0.0824 -0.2994
16898SOL    HW162753   2.906   9.550   7.445 -0.2854  0.6517 -0.9425
16898SOL    HW262754   2.910   9.388   7.425 -0.1231  0.4193  0.8841
16899SOL     OW62755   4.970   2.867   0.338 -0.1546  0.0533  0.3260
16899SOL    HW162756   4.930   2.924   0.267 -0.6549 -0.1520  0.4446
16899SOL    HW262757   4.988   2.776   0.300 -2.5697 -0.7745  1.0994
16900SOL     OW62758   8.143   2.328   5.802 -0.4018 -0.1895 -0.1245
16900SOL    HW162759   8.116   2.403   5.862  0.7465 -1.9594  2.6793
16900SOL    HW262760   8.225   2.355   5.751 -1.8042  1.5884 -1.5512
16901SOL     OW62761   9.933   5.495   8.038 -0.0765 -0.1334 -0.0862
16901SOL    HW162762   9.835   5.507   8.021  0.4421  0.1604 -3.1761
16901SOL    HW262763   9.983   5.570   7.995  1.5551 -0.6373  0.9139
16902SOL     OW62764   2.199   3.275   5.525 -0.3308  0.1623  0.6179
16902SOL    HW162765   2.262   3.342   5.564  0.3589  0.1444 -0.4651
16902SOL    HW262766   2.123   3.323   5.481  0.2773  0.2350 -0.3505
16903SOL     OW62767   7.462   0.837   3.526 -0.3038 -0.0225  0.3327
16903SOL    HW162768   7.540   0.879   3.480 -0.9212  0.2071 -0.5048
16903SOL    HW262769   7.395   0.907   3.551  0.0600 -0.1307  1.6636
16904SOL     OW62770   1.683   5.056   2.729  0.6911 -0.2892  0.0798
16904SOL    HW162771   1.674   5.054   2.828  1.9638 -1.1812  0.1948
16904SOL    HW262772   1.606   5.105   2.689 -0.3772 -0.8546  1.4281
16905SOL     OW62773   3.970   3.731   8.454  0.2284 -0.3183  0.0963
16905SOL    HW162774   4.013   3.701   8.540 -0.3160  1.5510  1.0372
16905SOL    HW262775   3.980   3.659   8.386  2.4201 -1.0532  1.1300
16906SOL     OW62776   6.597   8.767   8.767 -0.2320 -0.0105  0.3683
16906SOL    HW162777   6.500   8.744   8.777 -0.0227 -0.6032  1.0591
16906SOL    HW262778   6.648   8.685   8.743  0.4686 -0.2566  2.5410
16907SOL     OW62779   2.046   4.463   0.726  0.4593  0.1650 -0.2116
16907SOL    HW162780   2.109   4.531   0.690  0.3227  0.2869 -0.2202
16907SOL    HW262781   2.021   4.398   0.654 -1.2856  1.5076 -0.8248
16908SOL     OW62782   3.259   3.152   3.440  0.1908  0.7983  0.2944
16908SOL    HW162783   3.349   3.147   3.485  1.6414  2.4822 -2.2761
16908SOL    HW262784   3.201   3.217   3.489  0.2276 -0.5829  2.2002
16909SOL     OW62785   9.113   7.898   8.821  0.4756  0.0980  0.5625
16909SOL    HW162786   9.154   7.905   8.730  1.8419  1.1283  1.2362
16909SOL    HW262787   9.090   7.802   8.840  0.7357 -0.2077 -0.6220
16910SOL     OW62788   6.529   0.057   7.043  0.3672  0.3109  0.5052
16910SOL    HW162789   6.615   0.008   7.062  0.8791  1.2915  0.7435
16910SOL    HW262790   6.488   0.087   7.128  1.1513  2.1332  0.2768
16911SOL     OW62791   3.779   0.380   7.755 -0.1834  0.0137 -0.5847
16911SOL    HW162792   3.866   0.359   7.712  0.0470 -0.6455  0.2061
16911SOL    HW262793   3.784   0.362   7.853 -0.6049  1.8272 -0.2039
16912SOL     OW62794   2.102   7.001   8.566 -0.2919 -0.3018 -0.6850
16912SOL    HW162795   2.180   7.019   8.625  0.2429  2.4079 -2.1326
16912SOL    HW262796   2.126   6.933   8.497  0.1740 -0.9014  0.0763
16913SOL     OW62797   8.334   3.614   5.625 -0.2286 -0.4769 -0.1550
16913SOL    HW162798   8.297   3.571   5.708 -1.9627  1.7244  0.2476
16913SOL    HW262799   8.264   3.612   5.553 -0.3290  1.5891 -0.1396
16914SOL     OW62800   6.819   3.217   9.412  0.1261 -1.1423 -0.5776
16914SOL    HW162801   6.831   3.204   9.511  1.2902  0.6687 -0.4585
16914SOL    HW262802   6.722   3.211   9.390 -0.2621 -0.4306  0.8544
16915SOL     OW62803   3.628   3.147   9.692 -0.2456 -0.3333  0.3059
16915SOL    HW162804   3.619   3.117   9.787 -0.4382 -0.5967  0.2035
16915SOL    HW262805   3.652   3.069   9.634 -0.2926 -0.2052  0.1134
16916SOL     OW62806   6.459   8.213   8.767 -0.1235 -0.4668  0.5950
16916SOL    HW162807   6.435   8.244   8.859 -1.9092  2.2699 -0.7510
16916SOL    HW262808   6.475   8.292   8.708  0.5634 -2.1795 -1.5603
16917SOL     OW62809   5.439   5.719   6.887 -0.0814  0.6104 -0.3420
16917SOL    HW162810   5.423   5.816   6.900 -2.6559  0.1642  0.1606
16917SOL    HW262811   5.351   5.670   6.887  1.0845 -1.5970 -1.4946
16918SOL     OW62812   4.143   1.342   1.189 -0.2727  0.0024  0.4066
16918SOL    HW162813   4.181   1.333   1.097  1.5013  3.2441  0.7199
16918SOL    HW262814   4.070   1.410   1.189 -0.7662 -0.5199  1.2556
16919SOL     OW62815   3.985   1.754   9.870 -0.1008  0.1457  0.3346
16919SOL    HW162816   4.032   1.675   9.831  0.0885 -0.5242  1.9144
16919SOL    HW262817   4.051   1.828   9.886 -0.2736  0.6406 -1.1116
16920SOL     OW62818   4.333   3.236   6.673  0.6183  0.0136 -0.0842
16920SOL    HW162819   4.315   3.187   6.588 -0.6101  0.9440 -0.3758
16920SOL    HW262820   4.284   3.191   6.748  1.1795 -0.4260  0.0224
16921SOL     OW62821   9.213   8.047   2.977  0.1017 -0.2893 -0.2493
16921SOL    HW162822   9.261   7.975   3.027 -0.2498 -1.3985 -1.4360
16921SOL    HW262823   9.119   8.055   3.012  0.6944  0.8653  1.0966
16922SOL     OW62824   0.663   4.944   7.510  0.0395  0.3086  0.3856
16922SOL    HW162825   0.707   5.011   7.451  1.9243 -0.0870  1.2903
16922SOL    HW262826   0.670   4.853   7.469 -1.0901  0.4259 -0.0784
16923SOL     OW62827   5.114   2.663   3.183 -0.7562 -0.0272 -0.0080
16923SOL    HW162828   5.038   2.603   3.159 -0.6368  0.6866 -2.2196
16923SOL    HW262829   5.081   2.755   3.202 -0.3893  0.4266 -1.5409
16924SOL     OW62830   4.492   3.908   3.130  0.1578  0.0004 -0.0271
16924SOL    HW162831   4.403   3.921   3.174  0.6021 -0.8018  1.1357
16924SOL    HW262832   4.496   3.961   3.045 -0.3286  2.4639  1.4367
16925SOL     OW62833   1.232   8.513   3.938  0.2533  0.3068 -0.5421
16925SOL    HW162834   1.307   8.575   3.916  1.1680 -0.8516 -0.7501
16925SOL    HW262835   1.223   8.504   4.037 -1.5083  2.6917 -0.4414
16926SOL     OW62836   1.527   7.402   5.101  0.0195 -0.0484 -0.1848
16926SOL    HW162837   1.558   7.342   5.027  0.4149 -0.2509  0.1465
16926SOL    HW262838   1.549   7.361   5.189  0.0310  0.4466  0.0438
16927SOL     OW62839   2.763   3.128   9.734  0.4344 -0.0272  0.0299
16927SOL    HW162840   2.767   3.168   9.825  0.6613 -0.5012  0.2334
16927SOL    HW262841   2.695   3.055   9.732 -0.2751  0.6504 -0.4522
16928SOL     OW62842   6.378   7.021   0.466 -0.3705 -0.0169 -0.3767
16928SOL    HW162843   6.433   7.000   0.385 -1.2612  0.6392 -1.1631
16928SOL    HW262844   6.412   7.105   0.508  2.0458 -1.9928  1.7282
16929SOL     OW62845   9.423   0.811   7.214  0.2600 -0.1216  0.1305
16929SOL    HW162846   9.363   0.815   7.134 -0.0749  0.5182  0.4127
16929SOL    HW262847   9.482   0.892   7.217  2.0281 -1.3376 -0.8282
16930SOL     OW62848   1.760   7.956   0.383 -0.3884  0.4745  0.2905
16930SOL    HW162849   1.789   7.996   0.296  1.9894  0.4614  1.0362
16930SOL    HW262850   1.753   7.857   0.373  1.0776  0.3530  0.4264
16931SOL     OW62851   0.830   9.221   8.692 -0.1322  0.1857 -0.7335
16931SOL    HW162852   0.816   9.207   8.594 -1.0092 -1.2903 -0.4187
16931SOL    HW262853   0.782   9.149   8.742 -0.9995  1.8345  0.8344
16932SOL     OW62854   1.867   1.519   6.994  0.0112  0.1921 -1.0218
16932SOL    HW162855   1.831   1.599   7.042 -0.3035  1.0061 -2.5635
16932SOL    HW262856   1.959   1.539   6.960  0.3641 -0.4919 -0.4693
16933SOL     OW62857   0.098   2.730   7.825  0.0640  0.1727  0.3138
16933SOL    HW162858   0.174   2.684   7.780  0.7284  1.7765 -0.2153
16933SOL    HW262859   0.024   2.664   7.840  0.8789 -0.9962 -0.7054
16934SOL     OW62860   5.287   1.051   7.266 -0.3800  0.4434  0.1491
16934SOL    HW162861   5.290   0.983   7.339 -2.3001  1.9183  1.6518
16934SOL    HW262862   5.366   1.039   7.206  1.0688 -0.9951  2.2837
16935SOL     OW62863   5.824   0.625   8.267  0.1819 -0.0302  0.0486
16935SOL    HW162864   5.880   0.667   8.339  3.7258  1.0021 -3.1401
16935SOL    HW262865   5.839   0.526   8.267  3.2805  0.3682 -1.6629
16936SOL     OW62866   6.714   0.516   5.593  0.4634 -0.2041 -0.2521
16936SOL    HW162867   6.758   0.543   5.507  0.4219  0.6357 -0.0132
16936SOL    HW262868   6.778   0.530   5.669 -0.1615  0.8702  0.0761
16937SOL     OW62869   3.653   0.154   8.230 -0.1456 -0.7468 -0.1127
16937SOL    HW162870   3.584   0.225   8.216  0.4005 -0.6593 -2.7823
16937SOL    HW262871   3.671   0.143   8.327  0.7037  3.7482  0.3719
16938SOL     OW62872   6.418   7.804   7.489 -0.3162  0.5685  0.0285
16938SOL    HW162873   6.459   7.716   7.465 -0.8190  0.3444 -0.0280
16938SOL    HW262874   6.489   7.869   7.513  0.0936  0.2850 -0.4059
16939SOL     OW62875   5.075   9.109   0.493  0.4561  0.2704 -0.1252
16939SOL    HW162876   5.066   9.027   0.550  1.6479 -1.1170 -1.8624
16939SOL    HW262877   4.999   9.114   0.429 -0.8511  1.7960  1.5187
16940SOL     OW62878   8.237   0.618   1.752  0.2185  0.0523  0.3548
16940SOL    HW162879   8.262   0.673   1.832  0.4691  0.6921 -0.1554
16940SOL    HW262880   8.250   0.521   1.773  0.0633  0.2008  1.1637
16941SOL     OW62881   6.724   3.356   7.045 -0.3111  0.2858 -0.1903
16941SOL    HW162882   6.732   3.383   6.949 -0.1772  1.0701  0.0339
16941SOL    HW262883   6.809   3.315   7.076 -0.6570 -0.8101 -0.6543
16942SOL     OW62884   3.783   8.468   0.171  0.0379  0.1511 -0.5928
16942SOL    HW162885   3.863   8.524   0.150 -0.0941 -0.1847 -2.0166
16942SOL    HW262886   3.710   8.489   0.106 -0.8943  0.1447  0.4287
16943SOL     OW62887   9.491   1.516   6.995  0.4321 -0.2888 -0.1423
16943SOL    HW162888   9.542   1.431   7.007  0.6800 -0.0648  0.4094
16943SOL    HW262889   9.520   1.560   6.910  2.7439  0.9139  1.2204
16944SOL     OW62890   6.694   4.197   6.139 -0.8029  0.3835  0.4447
16944SOL    HW162891   6.733   4.205   6.048 -0.1952  1.7398  0.8166
16944SOL    HW262892   6.683   4.288   6.179 -2.3909 -0.0996  1.1693
16945SOL     OW62893   2.634   4.017   6.293 -0.1234 -0.3351  0.1684
16945SOL    HW162894   2.570   4.091   6.314  1.0811  1.5320 -2.4274
16945SOL    HW262895   2.583   3.936   6.265 -1.3938  0.8980 -1.1433
16946SOL     OW62896   7.587   2.727   9.036 -0.3942  0.5259  0.4844
16946SOL    HW162897   7.600   2.628   9.030 -1.4244  0.3884  0.3910
16946SOL    HW262898   7.665   2.768   9.083  1.3607 -0.0082 -1.8472
16947SOL     OW62899   5.720   8.473   8.785  0.5904 -0.1380 -0.5285
16947SOL    HW162900   5.719   8.375   8.761 -2.5023  0.1107 -1.6242
16947SOL    HW262901   5.634   8.497   8.830  1.1667  2.1640 -0.6039
16948SOL     OW62902   1.437   4.092   9.579  0.0455 -0.3489  0.1747
16948SOL    HW162903   1.462   4.016   9.519  0.6454 -0.1229  0.1357
16948SOL    HW262904   1.518   4.125   9.627  0.1651  1.5479 -1.2855
16949SOL     OW62905   4.720   9.021   2.156 -0.1359 -0.3446  0.2206
16949SOL    HW162906   4.622   9.029   2.172 -0.2871 -3.1327  0.9233
16949SOL    HW262907   4.767   9.102   2.192 -1.9923  0.2231  1.4130
16950SOL     OW62908   5.809   9.581   9.140 -0.6189 -0.2796 -0.3141
16950SOL    HW162909   5.853   9.524   9.070 -0.0684  2.2446 -2.0791
16950SOL    HW262910   5.750   9.648   9.096  0.4680  1.9780  1.5793
16951SOL     OW62911   1.799   8.764   7.950  0.5745 -0.3673 -0.7456
16951SOL    HW162912   1.869   8.726   7.889  2.3597  0.6716  0.5934
16951SOL    HW262913   1.768   8.851   7.913  0.5043 -0.4901 -0.9787
16952SOL     OW62914   6.485   0.398   9.052 -0.1518 -0.0856 -0.0004
16952SOL    HW162915   6.414   0.457   9.016 -1.1983 -1.4858 -0.2916
16952SOL    HW262916   6.562   0.394   8.987 -0.1554  0.8048 -0.0530
16953SOL     OW62917   6.477   9.384   6.321  0.3861 -0.0720  0.5371
16953SOL    HW162918   6.432   9.397   6.409  0.0503 -1.0499  0.5210
16953SOL    HW262919   6.567   9.344   6.336 -0.1844 -1.4532  0.3787
16954SOL     OW62920   7.026   5.662   0.720  0.0903  0.2903 -0.4258
16954SOL    HW162921   7.027   5.562   0.709 -1.3480  0.3502 -1.1049
16954SOL    HW262922   6.999   5.705   0.634 -0.7756  1.2039  0.2948
16955SOL     OW62923   9.503   8.876   3.231  0.1709  0.1521  0.4532
16955SOL    HW162924   9.539   8.789   3.266 -0.1264 -0.2596 -0.2496
16955SOL    HW262925   9.406   8.866   3.212 -0.3486  1.2972  2.4398
16956SOL     OW62926   7.472   9.962   7.419  0.1937 -0.4716 -0.2726
16956SOL    HW162927   7.509  10.037   7.474  0.5837 -0.4537 -0.5601
16956SOL    HW262928   7.546   9.914   7.372 -0.1566 -0.3175 -0.9974
16957SOL     OW62929   8.305   9.637   7.623 -0.0673 -0.0814  0.1447
16957SOL    HW162930   8.292   9.623   7.525  1.2629  1.1187 -0.2158
16957SOL    HW262931   8.216   9.648   7.667 -0.6486 -0.1732 -0.9845
16958SOL     OW62932   8.321   7.293   5.223 -0.3289  0.0955  0.7369
16958SOL    HW162933   8.385   7.370   5.219  1.1286 -1.0664  1.2315
16958SOL    HW262934   8.236   7.318   5.177  0.1469  1.9781  0.8318
16959SOL     OW62935   6.141   5.109   7.801  0.0927 -0.2073 -0.1826
16959SOL    HW162936   6.077   5.163   7.746  2.1517  0.3328 -2.1421
16959SOL    HW262937   6.185   5.041   7.743  0.5324 -1.2695  1.3655
16960SOL     OW62938   4.519   0.679   9.345 -0.5846  0.3558  0.4636
16960SOL    HW162939   4.610   0.643   9.327 -1.2410 -0.4215 -1.4545
16960SOL    HW262940   4.494   0.745   9.274 -1.7149  0.1791  0.6775
16961SOL     OW62941   8.185   9.894   7.155  0.0461  0.9022 -0.3755
16961SOL    HW162942   8.258   9.826   7.161  0.4809  1.2072 -1.8710
16961SOL    HW262943   8.123   9.869   7.080 -0.7713  1.2258  0.1888
16962SOL     OW62944   8.201   7.912   6.814 -0.1600  0.5247 -0.1337
16962SOL    HW162945   8.248   7.897   6.727  0.0502  1.5076 -0.1922
16962SOL    HW262946   8.154   8.000   6.812 -1.1755  0.0052  0.2993
16963SOL     OW62947   0.234   3.206   1.927  0.7036  0.5064 -0.5490
16963SOL    HW162948   0.290   3.261   1.865  1.1835  0.9630  0.2932
16963SOL    HW262949   0.291   3.139   1.974  0.3757  0.3287 -0.4002
16964SOL     OW62950   1.319   9.088   8.027 -0.1541  0.6050  0.0146
16964SOL    HW162951   1.402   9.056   8.073  0.1618 -1.1737 -1.7390
16964SOL    HW262952   1.327   9.185   8.006  1.3301  0.5119  0.1440
16965SOL     OW62953   8.580   3.215   9.170 -0.5925  0.0880 -0.5956
16965SOL    HW162954   8.621   3.272   9.099  0.3335  0.2684  0.0771
16965SOL    HW262955   8.483   3.235   9.177 -0.6018  0.3952 -1.5042
16966SOL     OW62956   5.089   6.923   0.290 -0.3988  0.1637 -0.2576
16966SOL    HW162957   5.097   6.949   0.193  1.6034  0.1704 -0.1219
16966SOL    HW262958   5.130   6.833   0.303  0.9659  0.9240  0.8883
16967SOL     OW62959   5.571   0.404   5.902 -0.3670 -0.5660  0.1176
16967SOL    HW162960   5.574   0.456   5.816 -2.0979  2.4859  1.8008
16967SOL    HW262961   5.646   0.433   5.961 -1.3853  0.1301  1.0954
16968SOL     OW62962   1.793   9.643   6.463 -0.3773  0.4061 -0.2379
16968SOL    HW162963   1.811   9.736   6.497 -0.5500  0.1569  0.5381
16968SOL    HW262964   1.736   9.594   6.529 -0.9543  0.0057 -1.0198
16969SOL     OW62965   0.307   0.367   2.268  0.3460  0.2862 -0.1951
16969SOL    HW162966   0.213   0.357   2.298  0.0154  1.7911 -0.6844
16969SOL    HW262967   0.341   0.458   2.294  1.4662 -0.0215 -0.5464
16970SOL     OW62968   4.544   1.005   2.032  0.6872 -0.6623  0.0253
16970SOL    HW162969   4.540   0.905   2.032  2.1583 -0.7326 -0.1268
16970SOL    HW262970   4.633   1.035   2.066  0.1261  0.6075  0.4115
16971SOL     OW62971   4.223   1.691   6.092  0.0504 -1.2287  1.0513
16971SOL    HW162972   4.249   1.596   6.111 -0.7093 -1.6624 -0.0748
16971SOL    HW262973   4.301   1.740   6.054  0.0580 -1.7578  0.3810
16972SOL     OW62974   8.316   1.514   9.713  0.6101 -0.1010 -0.2692
16972SOL    HW162975   8.321   1.462   9.628  0.1240 -0.3793 -0.1317
16972SOL    HW262976   8.228   1.560   9.719  1.2400  1.1715 -0.6329
16973SOL     OW62977   4.805   6.900   0.079 -0.1781 -0.0706  0.4279
16973SOL    HW162978   4.723   6.958   0.073  0.3645  0.8370  1.5144
16973SOL    HW262979   4.886   6.958   0.071  0.3671 -0.7430  1.1199
16974SOL     OW62980   6.476   6.230   9.557  0.4654 -0.2602 -0.4986
16974SOL    HW162981   6.540   6.296   9.598 -1.2728  0.5707  0.9398
16974SOL    HW262982   6.500   6.138   9.586  0.6450  0.1054  0.5210
16975SOL     OW62983   4.780   2.758   8.113  0.2147  0.0798  0.7480
16975SOL    HW162984   4.773   2.832   8.181  1.9674  0.1973  0.8149
16975SOL    HW262985   4.811   2.675   8.158 -0.5176 -0.3713  0.4300
16976SOL     OW62986   3.475   5.009   8.240  0.4807  0.5507  0.0312
16976SOL    HW162987   3.571   5.019   8.213  0.5783  0.7958  0.4590
16976SOL    HW262988   3.446   5.091   8.291  0.1747  0.2876  0.2823
16977SOL     OW62989   7.901   2.688   3.900 -0.4752  0.0426  0.4057
16977SOL    HW162990   7.893   2.649   3.809  1.8030  1.9973 -0.6772
16977SOL    HW262991   7.914   2.787   3.894 -1.3925  0.3720  2.8983
16978SOL     OW62992   6.591   0.057   9.751  0.5813  0.4614 -0.5514
16978SOL    HW162993   6.667   0.117   9.725 -0.3009  1.8552 -0.0172
16978SOL    HW262994   6.546   0.094   9.833 -0.3646 -0.5961 -0.5780
16979SOL     OW62995   6.875   8.359   8.810 -0.1530 -0.2304 -0.6488
16979SOL    HW162996   6.828   8.274   8.835  0.0471 -0.4693 -1.0800
16979SOL    HW262997   6.959   8.337   8.761  0.7797  0.1696  0.7187
16980SOL     OW62998   3.061   3.684   6.931 -0.3467 -0.3059 -0.2729
16980SOL    HW162999   3.067   3.590   6.896  0.4105  0.3994 -2.0660
16980SOL    HW263000   3.059   3.748   6.855 -2.2691  1.0850  0.9073
16981SOL     OW63001   4.882   6.558   8.680  0.0575  0.0661 -1.0527
16981SOL    HW163002   4.845   6.636   8.731 -0.9531 -0.4730 -0.9478
16981SOL    HW263003   4.948   6.509   8.737 -1.7779 -1.1042  0.1244
16982SOL     OW63004   1.833   5.543   5.548 -0.0857 -0.2101  0.2647
16982SOL    HW163005   1.829   5.596   5.463 -0.7883 -0.8342 -0.0954
16982SOL    HW263006   1.786   5.456   5.535 -0.5202 -0.1465  1.4120
16983SOL     OW63007   5.421   5.641   0.899 -0.4258  0.5736 -0.6756
16983SOL    HW163008   5.335   5.604   0.865 -0.8249  2.4095 -1.7739
16983SOL    HW263009   5.407   5.679   0.991 -1.0348  1.6870 -1.2158
16984SOL     OW63010   1.378   2.781   8.774  0.1599 -0.0272  0.1049
16984SOL    HW163011   1.476   2.765   8.784  0.4061  1.5997  0.4906
16984SOL    HW263012   1.361   2.837   8.693 -0.5120 -0.7910 -0.2940
16985SOL     OW63013   3.740   5.998   6.008 -0.0525 -0.2834 -0.5352
16985SOL    HW163014   3.680   5.964   6.081 -0.1813  0.7061 -0.1671
16985SOL    HW263015   3.735   5.937   5.929  0.5687 -1.7313  0.5101
16986SOL     OW63016   0.855   5.444   1.007 -0.3551  0.1793 -0.1029
16986SOL    HW163017   0.822   5.458   1.100  0.7436  1.8959  0.0427
16986SOL    HW263018   0.824   5.519   0.949  0.0295 -0.2245 -0.8357
16987SOL     OW63019   6.791   5.924   1.837  0.1990 -1.0747 -0.3890
16987SOL    HW163020   6.713   5.901   1.896 -0.8407  2.3531 -0.3433
16987SOL    HW263021   6.838   5.840   1.811 -1.2365 -2.9337  2.6971
16988SOL     OW63022   2.695   1.013   8.211 -0.2229  0.3116  0.6490
16988SOL    HW163023   2.711   0.936   8.274 -1.7799 -0.5276  0.0500
16988SOL    HW263024   2.781   1.037   8.166  0.2693 -1.1434  0.7717
16989SOL     OW63025   6.889   6.754   7.204  0.3622 -0.1091 -1.0921
16989SOL    HW163026   6.929   6.746   7.295 -0.4916  0.1598 -0.6926
16989SOL    HW263027   6.790   6.763   7.211  0.4829  2.3748 -1.9096
16990SOL     OW63028   6.985   3.300   6.372  0.1035 -0.4818  0.5811
16990SOL    HW163029   7.077   3.265   6.388  0.1257 -1.1304 -0.8617
16990SOL    HW263030   6.979   3.394   6.405  0.7210 -1.0680  2.3795
16991SOL     OW63031   3.122   0.779   7.842 -0.0300  0.7965 -0.1333
16991SOL    HW163032   3.082   0.869   7.857  0.2965  1.0651 -0.8447
16991SOL    HW263033   3.132   0.763   7.744 -1.5702 -0.6843 -0.0724
16992SOL     OW63034   7.067   6.895   5.702 -0.2834 -0.3695 -0.0526
16992SOL    HW163035   7.155   6.906   5.747 -0.3393  1.0369 -0.2706
16992SOL    HW263036   7.052   6.971   5.639 -2.0131 -0.1686  0.5763
16993SOL     OW63037   4.399   2.720   8.596 -0.7946 -0.1200  0.3797
16993SOL    HW163038   4.301   2.709   8.581 -0.6110 -1.0524 -0.1505
16993SOL    HW263039   4.449   2.686   8.516 -0.0658  1.0765  0.3041
16994SOL     OW63040   0.891   7.506   1.494 -0.0758  0.8440 -1.0037
16994SOL    HW163041   0.828   7.580   1.516 -2.3072 -1.6320  1.3514
16994SOL    HW263042   0.852   7.450   1.421 -0.1574 -0.1159 -0.2341
16995SOL     OW63043   2.583   4.370   9.777  0.3335  0.1535 -0.1684
16995SOL    HW163044   2.610   4.332   9.866 -1.6809 -0.5965  0.1608
16995SOL    HW263045   2.546   4.462   9.790 -2.2840 -0.9015  0.1480
16996SOL     OW63046   4.996   6.412   0.153 -0.3050  0.0102 -0.1481
16996SOL    HW163047   4.975   6.403   0.251  1.0479 -0.9145  0.0693
16996SOL    HW263048   4.964   6.501   0.121 -3.5448 -0.8671  0.4064
16997SOL     OW63049   6.049   0.619   2.189 -0.3271  0.5313 -0.2263
16997SOL    HW163050   6.119   0.565   2.143  0.6414  1.4042  0.1987
16997SOL    HW263051   6.087   0.707   2.216 -1.8952  1.4496 -0.9365
16998SOL     OW63052   9.838   9.162   0.022  0.1420 -0.0354 -0.2511
16998SOL    HW163053   9.870   9.202  -0.064 -0.9762  2.0646  0.3089
16998SOL    HW263054   9.841   9.062   0.015 -0.9439  0.1028 -3.1075
16999SOL     OW63055   3.038   0.495   1.434 -0.0231 -0.0539 -0.0464
16999SOL    HW163056   2.992   0.478   1.521  2.1363 -1.0850  0.9392
16999SOL    HW263057   3.065   0.591   1.428  0.5179 -0.1472  0.7916
17000SOL     OW63058   7.892   8.329   9.288  0.1089 -0.2972 -0.1388
17000SOL    HW163059   7.863   8.304   9.380 -1.5029 -1.8058 -1.0194
17000SOL    HW263060   7.991   8.319   9.280  0.2484 -0.2614  1.3903
17001SOL     OW63061   4.135   3.210   8.832 -0.1128  1.1906 -0.0148
17001SOL    HW163062   4.104   3.173   8.920  1.1730 -1.0088 -0.4575
17001SOL    HW263063   4.055   3.226   8.773 -0.8070  0.5673  0.7401
17002SOL     OW63064   4.361   2.022   8.981 -0.2152 -0.4315 -0.4332
17002SOL    HW163065   4.438   2.081   8.956 -0.0894 -0.3441  0.1487
17002SOL    HW263066   4.387   1.927   8.967  0.1033 -0.4164  0.0397
17003SOL     OW63067   5.403   4.138   1.249 -0.0459 -0.5452  0.3373
17003SOL    HW163068   5.378   4.049   1.287  1.0462 -0.8706  0.3218
17003SOL    HW263069   5.502   4.152   1.259 -0.3121  0.9758  0.9759
17004SOL     OW63070   2.631   1.451   1.820  0.0117  0.0565  0.2387
17004SOL    HW163071   2.569   1.499   1.758 -0.6843  5.2119  4.5454
17004SOL    HW263072   2.579   1.387   1.876 -0.3097 -0.4133 -0.5957
17005SOL     OW63073   8.308   7.893   3.329  0.0101  0.7007 -0.0091
17005SOL    HW163074   8.315   7.829   3.405 -0.7980 -1.3182 -1.5633
17005SOL    HW263075   8.219   7.939   3.333 -0.6268 -0.4593 -0.5016
17006SOL     OW63076   1.974   1.230   3.518 -0.2092  0.0654 -0.2125
17006SOL    HW163077   1.894   1.251   3.462 -1.1300 -0.2145  0.9600
17006SOL    HW263078   2.016   1.316   3.548  0.9660  0.2231 -2.2356
17007SOL     OW63079   6.899   6.106   3.425 -0.7750  0.5067  0.7505
17007SOL    HW163080   6.933   6.200   3.433 -1.7511  0.9476 -0.0866
17007SOL    HW263081   6.860   6.077   3.511 -1.3784  1.2369  0.7277
17008SOL     OW63082   3.786   6.002   9.773 -0.5760 -0.3550 -0.3634
17008SOL    HW163083   3.808   6.071   9.704  3.5545  0.3043  1.5051
17008SOL    HW263084   3.805   5.911   9.736  0.4888 -0.0800 -0.4931
17009SOL     OW63085   6.669   6.159   8.636 -0.0298 -0.2940  0.3746
17009SOL    HW163086   6.577   6.186   8.611  0.3024  1.6125  1.1457
17009SOL    HW263087   6.732   6.178   8.561  0.3352  1.8899  1.1997
17010SOL     OW63088   9.650   3.252   9.615 -0.3537 -0.4682 -0.3088
17010SOL    HW163089   9.696   3.214   9.535  0.6253  0.7995 -0.3660
17010SOL    HW263090   9.637   3.350   9.603  1.2336  0.0180  1.7372
17011SOL     OW63091   3.234   5.798   3.088 -0.0211  0.2347 -0.6545
17011SOL    HW163092   3.209   5.747   3.006 -0.4816  0.2569 -0.5277
17011SOL    HW263093   3.176   5.880   3.095 -1.0723 -0.5825  0.5372
17012SOL     OW63094   1.609   2.244   7.192 -0.1193  0.0733 -0.5542
17012SOL    HW163095   1.585   2.270   7.098  1.4099  1.2019 -0.6436
17012SOL    HW263096   1.606   2.325   7.250 -2.3705 -0.8511  0.6797
17013SOL     OW63097   6.343   0.786   8.085 -0.9056  0.5889  0.3243
17013SOL    HW163098   6.367   0.836   8.168  0.1417  1.1324 -0.2983
17013SOL    HW263099   6.245   0.766   8.085 -0.9049  0.5653  1.6955
17014SOL     OW63100   4.036   1.768   6.280  0.3845 -0.9036  0.5649
17014SOL    HW163101   4.089   1.725   6.208 -2.6904 -2.1650 -1.0483
17014SOL    HW263102   4.027   1.705   6.357  1.9726 -0.3229  1.2461
17015SOL     OW63103   8.348   2.440   5.058 -0.3699  0.3640  0.0030
17015SOL    HW163104   8.288   2.503   5.009 -0.2885  0.7769  0.4266
17015SOL    HW263105   8.308   2.418   5.147 -0.0111  0.4460  0.1851
17016SOL     OW63106   0.022   1.500   9.795 -0.4695  0.0744  0.1594
17016SOL    HW163107  -0.043   1.446   9.742 -0.8793  0.8610 -0.1504
17016SOL    HW263108   0.074   1.440   9.855 -2.3303 -0.4243  1.3115
17017SOL     OW63109   9.935   8.787   8.203 -0.5210  0.2031  0.0421
17017SOL    HW163110   9.942   8.690   8.183 -1.1400  0.0256  0.6953
17017SOL    HW263111  10.017   8.834   8.169 -0.0195 -0.6104  0.1238
17018SOL     OW63112   7.370   1.764   2.445 -0.0618  0.5756  0.3179
17018SOL    HW163113   7.296   1.831   2.434  0.6501  1.1861 -0.8180
17018SOL    HW263114   7.333   1.672   2.432 -0.5623  0.9012 -0.6158
17019SOL     OW63115   7.936   2.636   0.727 -0.2670  0.2743 -0.4066
17019SOL    HW163116   7.866   2.675   0.787 -0.0353 -2.2293  1.5763
17019SOL    HW263117   7.989   2.567   0.777  1.8692  0.1861 -2.6564
17020SOL     OW63118   3.929   5.096   1.736 -0.6139  0.0904 -0.3256
17020SOL    HW163119   3.889   5.183   1.765  1.7560  1.2269 -0.4019
17020SOL    HW263120   3.939   5.036   1.815  2.5779  1.8691  0.6868
17021SOL     OW63121   7.844   2.035   7.301 -0.3003  0.0376  0.1490
17021SOL    HW163122   7.775   2.050   7.372  0.5831 -0.7921  1.2073
17021SOL    HW263123   7.798   2.012   7.214 -1.3692  0.0898  0.6894
17022SOL     OW63124   1.306   3.686   8.853 -0.2519 -0.2807 -0.1532
17022SOL    HW163125   1.354   3.630   8.920 -0.1569 -1.0394 -0.8504
17022SOL    HW263126   1.356   3.684   8.766  0.6034  2.1282  0.2517
17023SOL     OW63127   3.675   2.011   8.933  0.0320  0.0060 -0.2508
17023SOL    HW163128   3.692   1.923   8.977  0.4440  0.4368  0.4637
17023SOL    HW263129   3.732   2.019   8.851  0.3287 -0.2075 -0.0656
17024SOL     OW63130   3.764   1.011   7.570 -0.0866 -0.5072  0.2322
17024SOL    HW163131   3.811   1.097   7.592  0.5849 -0.7260 -0.3282
17024SOL    HW263132   3.709   0.982   7.648 -1.2573  1.0512  0.0143
17025SOL     OW63133   6.636   3.044   7.564 -0.4955  0.0955 -0.2107
17025SOL    HW163134   6.717   3.096   7.537  0.9746 -1.3117  1.3617
17025SOL    HW263135   6.567   3.106   7.599  0.4765  1.1767 -0.1729
17026SOL     OW63136   7.059   6.229   2.960  0.4357 -0.8052 -0.3476
17026SOL    HW163137   7.064   6.131   2.977  0.4425 -0.3915  2.2632
17026SOL    HW263138   7.151   6.264   2.942  0.6910 -1.0065  0.5192
17027SOL     OW63139   6.998   9.293   0.108  0.3444 -0.1261  0.2031
17027SOL    HW163140   6.992   9.206   0.156 -0.2705  0.1675  0.6594
17027SOL    HW263141   6.923   9.301   0.042  0.4079  0.0563  0.1489
17028SOL     OW63142   6.582   4.502   9.175 -0.0228  0.1982 -0.1087
17028SOL    HW163143   6.593   4.418   9.122  2.2466  0.1325  0.3946
17028SOL    HW263144   6.537   4.571   9.119 -1.1243 -1.0725 -0.8132
17029SOL     OW63145   7.418   5.979   4.477 -0.4153 -0.0137  0.3406
17029SOL    HW163146   7.388   5.906   4.540  0.9717  0.1262  1.1713
17029SOL    HW263147   7.517   5.974   4.464 -0.3618  1.4870  0.0869
17030SOL     OW63148   1.043   0.678   0.552 -0.1381 -0.1787 -0.2085
17030SOL    HW163149   0.985   0.719   0.622  1.9003  1.3305  0.6509
17030SOL    HW263150   1.037   0.578   0.559 -1.1089 -0.0432  1.1414
17031SOL     OW63151   9.163   0.816   9.774  0.0014  0.1641  0.3063
17031SOL    HW163152   9.123   0.875   9.844  0.0263 -1.5025  1.7515
17031SOL    HW263153   9.255   0.849   9.752  0.0679  0.5953  1.1989
17032SOL     OW63154   6.744   0.239   8.369 -0.4376 -0.2041 -0.3184
17032SOL    HW163155   6.814   0.170   8.354 -0.1557 -0.0805  0.4203
17032SOL    HW263156   6.654   0.195   8.377 -0.5421 -0.3028 -1.9486
17033SOL     OW63157   1.351   5.165   9.279 -0.1193  0.2563 -0.8538
17033SOL    HW163158   1.406   5.215   9.346  0.4244 -0.1969 -0.9491
17033SOL    HW263159   1.261   5.207   9.271 -0.2502  0.1906  0.2976
17034SOL     OW63160   4.135   9.274   1.888 -0.1021 -0.0879  0.4077
17034SOL    HW163161   4.052   9.299   1.839  0.0254  1.5153  0.9709
17034SOL    HW263162   4.215   9.296   1.832 -0.0039  0.4380  0.7430
17035SOL     OW63163   5.874   0.372   8.799 -0.8636 -0.0152 -0.6058
17035SOL    HW163164   5.903   0.394   8.892 -1.4678  0.9577 -0.6490
17035SOL    HW263165   5.890   0.450   8.739 -1.2266 -0.3566 -1.1530
17036SOL     OW63166   4.217   3.549   6.208  0.1239 -0.7324  0.1848
17036SOL    HW163167   4.304   3.546   6.256 -0.3105  0.2303  1.0455
17036SOL    HW263168   4.230   3.518   6.113  1.3632 -0.7128  0.3435
17037SOL     OW63169   5.159   1.059   8.449 -0.3544  0.3813  0.2116
17037SOL    HW163170   5.177   0.990   8.519  1.2536  1.3954  0.8411
17037SOL    HW263171   5.084   1.029   8.390  0.0292 -1.6752  0.7493
17038SOL     OW63172   4.522   2.042   1.524  0.2431 -0.3102 -0.1652
17038SOL    HW163173   4.589   2.001   1.462  0.6700 -1.1670  0.8451
17038SOL    HW263174   4.489   1.973   1.588  0.1312  0.6575  0.8381
17039SOL     OW63175   5.446   1.056   1.239 -0.2672  0.3895  0.1946
17039SOL    HW163176   5.402   1.134   1.195 -0.6089  0.3716  0.5039
17039SOL    HW263177   5.427   0.973   1.188  1.4208  0.7339 -1.0508
17040SOL     OW63178   5.029   3.643   5.834 -0.1894 -0.0945 -0.1338
17040SOL    HW163179   5.055   3.562   5.781  0.5913 -0.3208  0.5864
17040SOL    HW263180   5.041   3.724   5.777 -0.9366 -0.4761 -0.8450
17041SOL     OW63181   0.179   0.675   6.942  0.0036 -0.0177 -0.0839
17041SOL    HW163182   0.143   0.582   6.949  1.3849 -0.7360 -2.0464
17041SOL    HW263183   0.103   0.739   6.925 -0.8466 -0.9040  0.3250
17042SOL     OW63184   2.145   5.758   0.488 -0.0448  0.2279 -0.4539
17042SOL    HW163185   2.143   5.722   0.394  0.1320 -2.1385  0.4106
17042SOL    HW263186   2.238   5.786   0.511 -0.3876  2.2912 -1.5049
17043SOL     OW63187   1.361   8.858   9.053 -0.3177 -0.7282 -0.1878
17043SOL    HW163188   1.270   8.824   9.029 -1.2496  1.3522  0.3226
17043SOL    HW263189   1.388   8.821   9.142 -1.9433  0.9703  1.0477
17044SOL     OW63190   8.084   3.328   1.779  1.2406 -0.0430  0.1742
17044SOL    HW163191   8.008   3.274   1.742  0.8368 -2.1041  3.6790
17044SOL    HW263192   8.050   3.417   1.808  0.8493  0.2808 -1.2713
17045SOL     OW63193   7.994   3.229   0.090  0.0697  0.0974  0.2712
17045SOL    HW163194   8.019   3.132   0.094 -1.4883 -0.4658 -2.4418
17045SOL    HW263195   7.900   3.241   0.121 -0.8011  0.2514 -2.2824
17046SOL     OW63196   9.465   7.210   5.394 -0.3270  0.4450 -0.0786
17046SOL    HW163197   9.531   7.222   5.320  2.7676 -4.0903  1.7653
17046SOL    HW263198   9.493   7.265   5.473 -0.5037  0.9532 -0.3698
17047SOL     OW63199   5.072   4.258   8.614  0.0726 -0.2645  0.1713
17047SOL    HW163200   5.029   4.232   8.700  1.6617 -0.3014  0.9806
17047SOL    HW263201   5.160   4.303   8.632  0.5493 -0.4977 -1.4223
17048SOL     OW63202   9.325   0.494   8.951 -0.0632 -0.0285 -0.1753
17048SOL    HW163203   9.407   0.547   8.929  0.5171  0.1847  2.3000
17048SOL    HW263204   9.244   0.542   8.919  0.6421  0.8234 -0.7133
17049SOL     OW63205   7.076   7.277   5.827 -0.4841 -0.1686  0.3160
17049SOL    HW163206   7.009   7.261   5.900 -0.4765 -1.1615  0.1113
17049SOL    HW263207   7.110   7.372   5.833 -0.5993 -0.1902  1.5044
17050SOL     OW63208   4.454   6.032   7.005 -0.4528 -0.3086 -0.0503
17050SOL    HW163209   4.453   6.086   7.089 -0.0118 -0.0343 -0.2190
17050SOL    HW263210   4.374   6.054   6.950  0.9190  1.9089 -1.2144
17051SOL     OW63211   4.725   2.196   0.578  0.4348  0.1880 -0.1941
17051SOL    HW163212   4.722   2.288   0.538  0.0706 -0.2826 -1.2757
17051SOL    HW263213   4.642   2.180   0.631  1.6453  1.4123  2.1382
17052SOL     OW63214   2.331   0.039   6.866 -0.2677  0.1178 -0.3431
17052SOL    HW163215   2.385  -0.045   6.874 -3.3358 -1.7914  1.0614
17052SOL    HW263216   2.282   0.038   6.778 -0.7856  0.1527 -0.0541
17053SOL     OW63217   4.182   9.565   9.519 -0.3049 -0.0928 -0.0173
17053SOL    HW163218   4.091   9.522   9.514 -0.2071 -0.4800  1.2426
17053SOL    HW263219   4.219   9.576   9.427 -1.3640 -0.5218 -0.5011
17054SOL     OW63220   7.339   5.074   1.145 -0.4346  0.5517 -0.1605
17054SOL    HW163221   7.326   5.136   1.222  0.6982  0.5960 -0.0047
17054SOL    HW263222   7.433   5.040   1.144 -0.4654  0.4730 -1.4705
17055SOL     OW63223   6.050   2.919   0.346 -0.5881  0.0567  0.6500
17055SOL    HW163224   5.958   2.888   0.369 -1.7045  1.8619 -1.1969
17055SOL    HW263225   6.073   2.891   0.253  0.3445  0.4199  0.7634
17056SOL     OW63226   5.054   0.036   1.737  0.9757 -0.1044 -0.4166
17056SOL    HW163227   5.076   0.100   1.664  0.8238  1.2337  0.7014
17056SOL    HW263228   5.020  -0.050   1.697 -0.2585  1.0474 -1.8809
17057SOL     OW63229   5.370   1.237   8.445 -0.1218  0.0337 -0.2233
17057SOL    HW163230   5.327   1.327   8.456 -1.2492 -0.5366  0.0375
17057SOL    HW263231   5.301   1.165   8.456  1.0513 -0.9161  1.0909
17058SOL     OW63232   9.337   8.965   3.506 -0.5588  0.6038  0.6090
17058SOL    HW163233   9.392   9.020   3.569 -0.6360  0.6654  0.6212
17058SOL    HW263234   9.355   8.868   3.524  0.5037  0.6374 -0.2379
17059SOL     OW63235   5.514   3.182   0.539  0.9799  0.2648  1.0947
17059SOL    HW163236   5.530   3.264   0.483  1.8394  0.4523  1.6056
17059SOL    HW263237   5.469   3.113   0.483 -1.9127  1.9074  1.2931
17060SOL     OW63238   5.472   0.659   8.672 -0.2294 -0.3765  0.1895
17060SOL    HW163239   5.518   0.571   8.655 -0.1142 -0.3581  0.4091
17060SOL    HW263240   5.427   0.689   8.588  0.0195 -0.4800  0.0168
17061SOL     OW63241   5.595   3.635   3.079  0.3647 -0.0647 -0.3042
17061SOL    HW163242   5.583   3.685   3.165  0.1059 -0.7696  0.0711
17061SOL    HW263243   5.586   3.699   3.002 -0.0424  0.4494  0.1673
17062SOL     OW63244   1.112   2.897   9.348  0.2635 -0.5426  0.3662
17062SOL    HW163245   1.059   2.908   9.432  1.6916  1.1979  1.0574
17062SOL    HW263246   1.051   2.908   9.269 -0.9495 -1.5108  1.1537
17063SOL     OW63247   8.567   1.938   1.984 -0.2106  0.3632 -0.1754
17063SOL    HW163248   8.574   2.036   1.963  1.6392  0.0225 -1.2809
17063SOL    HW263249   8.630   1.887   1.926  0.0521 -1.3297  1.5358
17064SOL     OW63250   6.050   3.482   0.006 -0.3383 -0.4121 -1.2497
17064SOL    HW163251   5.968   3.520   0.050  0.8404  1.0385 -0.2307
17064SOL    HW263252   6.084   3.548  -0.062 -0.7591 -1.5877 -2.6247
17065SOL     OW63253   0.607   0.045   6.077  0.0171 -0.1657 -0.2142
17065SOL    HW163254   0.582   0.083   6.166  1.0363 -0.8290  0.3577
17065SOL    HW263255   0.691   0.086   6.044 -1.1389  1.1731 -1.5861
17066SOL     OW63256   2.983   8.858   6.727  0.3208 -0.1364  0.1107
17066SOL    HW163257   3.021   8.949   6.738  0.7632 -0.4518  1.2499
17066SOL    HW263258   3.003   8.824   6.634  3.0165 -0.3753  0.7500
17067SOL     OW63259   6.384   9.970   9.338 -1.2681  0.0882  0.0367
17067SOL    HW163260   6.325   9.905   9.386 -1.4162 -0.0369 -0.3064
17067SOL    HW263261   6.418  10.039   9.401 -1.2196 -0.2484  0.3781
17068SOL     OW63262   2.297   6.568   0.546 -0.2348 -0.0876  0.0454
17068SOL    HW163263   2.320   6.473   0.570  1.1209  0.2296  0.0479
17068SOL    HW263264   2.208   6.592   0.585 -1.4875 -1.9596 -1.5366
17069SOL     OW63265   8.080   8.571   9.547 -0.4202  0.2201  0.2093
17069SOL    HW163266   8.093   8.670   9.556 -2.7660  0.7791 -1.9615
17069SOL    HW263267   7.988   8.553   9.513  0.1133 -2.7143  0.2140
17070SOL     OW63268   2.968   5.845   1.191 -0.0573 -0.0596 -0.1595
17070SOL    HW163269   2.928   5.933   1.166 -1.4082 -0.2914  1.1162
17070SOL    HW263270   2.935   5.818   1.281  1.2885 -1.3143 -0.0244
17071SOL     OW63271   6.288   5.941   2.045  0.1000  0.4893  0.1086
17071SOL    HW163272   6.271   5.899   2.135 -0.9227  0.5294 -0.0636
17071SOL    HW263273   6.247   5.884   1.974  3.5798 -1.2258 -0.6445
17072SOL     OW63274   9.080   4.217   5.297 -0.8663 -0.4525 -0.3228
17072SOL    HW163275   8.997   4.253   5.254 -1.0167 -1.7452 -1.1267
17072SOL    HW263276   9.076   4.117   5.299 -0.0589 -0.4728  1.0961
17073SOL     OW63277   6.818   7.607   0.524 -0.1899  0.0477 -0.3920
17073SOL    HW163278   6.909   7.567   0.510  0.2719  0.2201  1.9162
17073SOL    HW263279   6.770   7.556   0.595 -1.3178  0.8886 -0.5390
17074SOL     OW63280   6.971   6.086   6.074 -0.0031 -0.0324  0.1210
17074SOL    HW163281   6.976   6.181   6.043  0.0591 -0.0559  0.0592
17074SOL    HW263282   6.982   6.083   6.174  2.2969 -0.1699 -0.1019
17075SOL     OW63283   4.782   6.345   7.188 -0.3615 -0.4471 -0.4723
17075SOL    HW163284   4.742   6.274   7.131 -0.4695 -0.5614 -0.2544
17075SOL    HW263285   4.875   6.319   7.214 -0.1352 -0.1673 -1.0037
17076SOL     OW63286   6.442   3.914   7.152  0.1960 -0.0645  0.3952
17076SOL    HW163287   6.538   3.932   7.169  0.0477  0.0920  1.1122
17076SOL    HW263288   6.432   3.826   7.106  0.8908  1.4821 -2.8010
17077SOL     OW63289   7.562   0.616   0.042  0.0813 -0.1555  0.2704
17077SOL    HW163290   7.574   0.715   0.032 -0.9095 -0.0940 -0.4010
17077SOL    HW263291   7.467   0.592   0.026  0.5813 -1.3839 -1.0277
17078SOL     OW63292   7.370   8.053   6.766 -0.0872  0.0031 -0.1611
17078SOL    HW163293   7.342   8.070   6.861 -0.0940 -1.5081  0.1155
17078SOL    HW263294   7.288   8.042   6.709 -0.0813 -0.6841 -0.0416
17079SOL     OW63295   4.641   7.520   1.665  0.1748 -0.3687  0.7214
17079SOL    HW163296   4.644   7.420   1.658 -2.3218 -0.3453 -1.5602
17079SOL    HW263297   4.684   7.560   1.584  1.4282  0.4518  1.7629
17080SOL     OW63298   8.133   5.263   7.825 -0.1626 -0.0669  0.1754
17080SOL    HW163299   8.033   5.268   7.829 -0.2338 -0.8269 -0.5590
17080SOL    HW263300   8.165   5.194   7.890 -0.1730 -0.4070 -0.1783
17081SOL     OW63301   3.142   1.141   6.586  0.1397  0.2304  0.1343
17081SOL    HW163302   3.051   1.115   6.619  0.6358  0.2978  1.6077
17081SOL    HW263303   3.134   1.186   6.497 -1.2350 -0.0407  0.1086
17082SOL     OW63304   4.924   6.930   9.829  0.4074  0.4820  0.3683
17082SOL    HW163305   4.841   6.888   9.867 -0.0799  2.1469  1.2190
17082SOL    HW263306   4.902   6.972   9.741  0.8102 -0.7275 -0.3146
17083SOL     OW63307   4.945   4.145   8.375  0.2158  0.2356 -0.0553
17083SOL    HW163308   4.981   4.053   8.355  0.9866  0.2798  1.1341
17083SOL    HW263309   4.981   4.177   8.462 -1.0209  1.1775  0.1219
17084SOL     OW63310   9.136   4.007   0.054  0.0285  0.0040 -0.7104
17084SOL    HW163311   9.209   3.938   0.051  0.1986  0.1769 -0.5649
17084SOL    HW263312   9.135   4.051   0.144 -0.3400 -0.0868 -0.6717
17085SOL     OW63313   2.989   9.235   7.486 -0.2847 -0.1334  0.2927
17085SOL    HW163314   2.898   9.194   7.489  0.0905 -1.1024 -0.8926
17085SOL    HW263315   3.032   9.213   7.399  1.3289 -0.2236  1.0937
17086SOL     OW63316   5.598   9.301   2.788 -0.6633 -0.1219  0.1047
17086SOL    HW163317   5.512   9.352   2.793 -0.0423  1.0619 -0.9624
17086SOL    HW263318   5.672   9.363   2.763  0.0132 -1.6679 -1.8566
17087SOL     OW63319   4.089   2.060   0.567 -0.1671 -0.1303 -0.3420
17087SOL    HW163320   4.160   2.105   0.512  0.5159 -0.3255  0.3701
17087SOL    HW263321   4.019   2.023   0.506  0.5799 -0.3478 -1.0871
17088SOL     OW63322   7.789   5.045   0.256 -0.5674 -0.2559  0.5014
17088SOL    HW163323   7.735   5.113   0.306  0.9421  0.8950  0.6155
17088SOL    HW263324   7.807   4.967   0.315 -0.4888  0.2099  1.1017
17089SOL     OW63325   2.323   0.537   7.606 -0.0147 -0.0218 -0.5279
17089SOL    HW163326   2.259   0.461   7.615 -1.1705  0.9630 -0.3937
17089SOL    HW263327   2.367   0.554   7.694 -0.1025 -0.2276 -0.4438
17090SOL     OW63328   7.778   5.891   9.283  0.2361 -0.4597 -0.1579
17090SOL    HW163329   7.857   5.839   9.253  0.0885 -0.8016  0.0371
17090SOL    HW263330   7.705   5.828   9.311 -0.2594 -0.1506 -0.7379
17091SOL     OW63331   3.360   4.397   3.834 -0.2407 -0.2601 -0.5149
17091SOL    HW163332   3.422   4.320   3.847 -0.6047 -0.0857  2.7848
17091SOL    HW263333   3.269   4.363   3.812 -0.4945 -0.8326  1.3394
17092SOL     OW63334   0.812   1.963   7.997  0.4655 -0.1050 -0.2264
17092SOL    HW163335   0.814   1.863   7.996 -2.5226 -0.2448  0.8021
17092SOL    HW263336   0.839   1.996   8.087 -0.4561 -0.0914  0.0511
17093SOL     OW63337   9.226   2.801   8.295  0.3299  0.2039  0.5815
17093SOL    HW163338   9.271   2.712   8.305  2.1144  1.1140  0.9408
17093SOL    HW263339   9.145   2.804   8.353  0.6254 -0.9651  1.0747
17094SOL     OW63340   6.539   0.961   6.614 -0.7178 -0.2684  0.0935
17094SOL    HW163341   6.455   0.939   6.565  0.1527 -2.2935 -0.5055
17094SOL    HW263342   6.616   0.961   6.550  0.1131 -0.9135  1.0867
17095SOL     OW63343   9.397   3.465   2.901  0.2543  0.5979 -0.4521
17095SOL    HW163344   9.493   3.493   2.889  0.2836  0.3625 -0.8125
17095SOL    HW263345   9.363   3.429   2.814 -0.0751  0.4207 -0.2474
17096SOL     OW63346   2.177   3.604   7.198  0.0073  0.3606 -0.8533
17096SOL    HW163347   2.126   3.633   7.279 -0.8010  0.9948 -1.5695
17096SOL    HW263348   2.219   3.683   7.155  1.5103 -0.1509 -0.3354
17097SOL     OW63349   6.430   5.623   1.436 -0.2466 -0.1954  0.4172
17097SOL    HW163350   6.467   5.701   1.385 -1.9417  1.3837  1.5122
17097SOL    HW263351   6.361   5.656   1.502 -2.9069 -2.8900 -0.8941
17098SOL     OW63352   8.516   4.515   7.630 -0.1677  0.2456 -0.8407
17098SOL    HW163353   8.460   4.482   7.553 -0.8077  0.0477 -0.2990
17098SOL    HW263354   8.527   4.441   7.697 -2.4644  1.3955  0.8751
17099SOL     OW63355   3.546   3.000   0.019  0.5788  0.2480 -0.4251
17099SOL    HW163356   3.579   3.019   0.112 -0.1530 -0.2617 -0.0478
17099SOL    HW263357   3.488   2.919   0.021 -0.7636  1.1664 -1.0391
17100SOL     OW63358   6.118   0.872   0.196  0.0379 -0.3150 -0.2947
17100SOL    HW163359   6.083   0.778   0.203 -0.7525 -0.0055  0.0149
17100SOL    HW263360   6.085   0.912   0.111 -1.5033  0.4311  0.6264
17101SOL     OW63361   7.924   5.406   9.433 -0.0711  0.1554  0.3438
17101SOL    HW163362   7.930   5.309   9.456  1.2947  0.3655  0.9086
17101SOL    HW263363   7.889   5.458   9.511 -1.8633 -0.0131 -0.3208
17102SOL     OW63364   7.771   5.323   4.392  0.8333 -0.3310 -0.3554
17102SOL    HW163365   7.862   5.346   4.427 -0.2518  1.2999  1.4886
17102SOL    HW263366   7.753   5.375   4.309  1.3268 -0.1332 -0.3394
17103SOL     OW63367   4.014   0.791   8.531  0.1615  0.1168 -0.1293
17103SOL    HW163368   3.965   0.865   8.484  0.1127  1.0280  1.3189
17103SOL    HW263369   3.950   0.741   8.589  0.7411  0.6597  0.9792
17104SOL     OW63370   8.298   4.530   3.489 -0.0721 -0.0322  0.0567
17104SOL    HW163371   8.265   4.524   3.583  0.0777 -0.2445  0.0971
17104SOL    HW263372   8.279   4.443   3.442 -0.4419  0.1882 -0.2065
17105SOL     OW63373   6.434   1.459   1.995 -0.2170 -0.1704  0.6157
17105SOL    HW163374   6.529   1.451   1.962 -0.0900  0.3832  0.8469
17105SOL    HW263375   6.431   1.523   2.072 -0.8758  0.2540  0.2367
17106SOL     OW63376   8.130   3.250   1.327 -0.1625 -0.5432 -0.0545
17106SOL    HW163377   8.165   3.265   1.235  0.0078 -0.3679  0.0385
17106SOL    HW263378   8.187   3.182   1.373 -1.4676 -2.1658 -0.7853
17107SOL     OW63379   6.936   3.171   9.192  0.1911 -0.0575 -0.4539
17107SOL    HW163380   6.995   3.097   9.225  0.2675  0.8608  1.5503
17107SOL    HW263381   6.882   3.207   9.268 -1.2170  0.7142 -1.7870
17108SOL     OW63382   6.208   2.900   0.127  0.0596 -0.3646  0.7219
17108SOL    HW163383   6.291   2.869   0.174 -0.0664 -1.1453  0.4217
17108SOL    HW263384   6.234   2.952   0.045  0.2431 -0.7384  0.5442
17109SOL     OW63385   6.578   8.496   1.072 -0.4240 -0.1634 -0.1223
17109SOL    HW163386   6.644   8.531   1.138 -1.7929  0.5140  0.9126
17109SOL    HW263387   6.624   8.436   1.006  1.0111 -0.5942  1.2613
17110SOL     OW63388   5.797   6.179   7.208  0.3161  0.7113  0.4573
17110SOL    HW163389   5.780   6.264   7.159  0.2627  0.2738 -0.2773
17110SOL    HW263390   5.714   6.123   7.208  1.1442 -0.5581 -1.4522
17111SOL     OW63391   6.887   4.589   1.238  0.1819  0.0093  0.3319
17111SOL    HW163392   6.789   4.572   1.225  0.2748 -0.8768  0.7619
17111SOL    HW263393   6.939   4.528   1.178  0.5160 -1.0668  1.7028
17112SOL     OW63394   7.617   2.394   1.189  0.3225 -0.5920  0.6810
17112SOL    HW163395   7.611   2.329   1.113  1.3578 -2.4385  2.1381
17112SOL    HW263396   7.708   2.390   1.230 -0.9970 -1.5738  3.6911
17113SOL     OW63397   8.540   3.939   3.330  0.5063 -0.0940  0.4934
17113SOL    HW163398   8.588   4.026   3.347  0.5576 -0.5729  3.0071
17113SOL    HW263399   8.607   3.866   3.320  0.4061 -0.2537  0.9569
17114SOL     OW63400   2.854   6.523   4.601 -0.0891  0.7767  0.4217
17114SOL    HW163401   2.778   6.576   4.564 -1.0820 -1.8306 -1.3463
17114SOL    HW263402   2.921   6.506   4.529 -0.4637 -1.5744  0.5908
17115SOL     OW63403   0.366   3.551   1.136 -0.0241 -0.1324  0.4635
17115SOL    HW163404   0.298   3.623   1.145  0.4439  0.2917  0.6201
17115SOL    HW263405   0.333   3.468   1.182 -0.1495  0.2689  1.0915
17116SOL     OW63406   8.962   4.983   0.260 -0.0466  0.3898 -0.8300
17116SOL    HW163407   8.936   4.901   0.311 -0.3686 -0.4296 -2.2709
17116SOL    HW263408   9.052   5.014   0.291  0.5983 -1.1836 -1.0139
17117SOL     OW63409   5.780   4.885   9.662 -0.3256 -0.1233  0.0406
17117SOL    HW163410   5.775   4.928   9.752 -0.9741 -2.3702  1.1189
17117SOL    HW263411   5.772   4.955   9.591  2.5302  1.9706  1.6758
17118SOL     OW63412   8.075   4.918   5.794 -0.3841  0.2138  0.3102
17118SOL    HW163413   8.037   4.879   5.878 -0.9910  0.6952  0.2607
17118SOL    HW263414   8.078   4.848   5.723 -2.0534  0.4055  0.0348
17119SOL     OW63415   1.221   4.938   9.591  0.5043  0.1660 -0.1910
17119SOL    HW163416   1.309   4.967   9.629 -0.3770  0.9316  1.2772
17119SOL    HW263417   1.196   4.849   9.628  0.7038 -0.1089 -0.7041
17120SOL     OW63418   4.000   4.062   1.363  0.5087  0.2616  0.2232
17120SOL    HW163419   3.928   4.006   1.405 -1.5088  2.5239 -0.1238
17120SOL    HW263420   4.029   4.020   1.277 -2.7970  1.0005 -1.3329
17121SOL     OW63421   0.766   3.246   2.130  0.0850 -0.0348  0.3879
17121SOL    HW163422   0.850   3.224   2.179 -0.6616 -2.7385  0.5341
17121SOL    HW263423   0.689   3.247   2.194 -0.5042 -1.0139 -0.2986
17122SOL     OW63424   8.473   1.194   1.869  0.0315  0.1175  0.1261
17122SOL    HW163425   8.490   1.174   1.772 -0.1476 -1.8070  0.4707
17122SOL    HW263426   8.523   1.276   1.895 -1.8996  2.0972 -2.2099
17123SOL     OW63427   6.779   1.400   8.538  0.6671 -0.1293 -0.1603
17123SOL    HW163428   6.720   1.360   8.467  0.3164  2.1946 -1.2053
17123SOL    HW263429   6.811   1.327   8.598 -0.5479 -1.8988 -1.5806
17124SOL     OW63430   7.060   4.177   3.444  0.0739 -0.3362  0.0443
17124SOL    HW163431   7.061   4.141   3.351  0.4385 -0.2562  0.0143
17124SOL    HW263432   7.043   4.103   3.509 -1.3388 -0.1959 -0.1638
17125SOL     OW63433   6.888   0.077   0.949  0.5120 -0.7263 -0.1370
17125SOL    HW163434   6.978   0.032   0.950  0.4579 -0.9072 -1.6411
17125SOL    HW263435   6.899   0.169   0.913 -0.2573 -1.6212 -2.7998
17126SOL     OW63436   8.891   0.047   4.937 -0.1810  0.2706 -0.5234
17126SOL    HW163437   8.974  -0.005   4.918 -0.5794 -0.7922  0.5989
17126SOL    HW263438   8.858   0.025   5.029 -1.0493  1.5717 -0.5183
17127SOL     OW63439   1.091   3.946   0.808  0.7498 -0.3459 -0.0999
17127SOL    HW163440   1.092   3.850   0.837 -1.1963  0.2005  1.9711
17127SOL    HW263441   1.145   4.000   0.872  0.6015  0.1565 -0.4031
17128SOL     OW63442   0.742   0.982   0.543 -0.9769  0.9474 -0.2805
17128SOL    HW163443   0.800   1.056   0.509  0.4669 -0.1451 -0.2773
17128SOL    HW263444   0.649   1.015   0.556 -0.4237  2.6646 -0.5831
17129SOL     OW63445   4.290   3.542   2.576  0.4808 -0.1268 -0.2566
17129SOL    HW163446   4.207   3.587   2.610  0.5698 -0.1025 -0.0748
17129SOL    HW263447   4.267   3.489   2.495  0.3888  0.2880 -0.5023
17130SOL     OW63448   6.445   2.778   3.218 -0.1574  0.3151 -0.0837
17130SOL    HW163449   6.504   2.772   3.298 -0.6961 -1.0651  0.2188
17130SOL    HW263450   6.380   2.702   3.218  0.6392 -0.4201 -2.4681
17131SOL     OW63451   9.893   1.983   5.757  0.5535  0.6058 -0.0275
17131SOL    HW163452   9.816   1.938   5.803 -0.6101 -0.5540 -2.9799
17131SOL    HW263453   9.954   1.913   5.718  0.8551  1.5549 -1.2931
17132SOL     OW63454   4.569   9.477   9.819  0.5066  0.0103 -0.9310
17132SOL    HW163455   4.597   9.550   9.882 -1.7957  0.2768 -0.1757
17132SOL    HW263456   4.589   9.388   9.860  1.8452  0.1831 -1.1728
17133SOL     OW63457   4.734   0.194   2.789 -0.2048  0.0816 -0.4922
17133SOL    HW163458   4.811   0.241   2.745 -0.5997  0.5546 -0.6811
17133SOL    HW263459   4.655   0.254   2.791  0.1616  0.5392  2.0337
17134SOL     OW63460   7.253   5.345   0.972  0.4824  0.4101 -0.0309
17134SOL    HW163461   7.170   5.299   1.005  0.8780 -0.9239 -0.8562
17134SOL    HW263462   7.329   5.324   1.034  0.3661  1.0494  0.3303
17135SOL     OW63463   6.822   6.683   1.851 -0.3844 -0.0401 -0.5503
17135SOL    HW163464   6.827   6.744   1.772 -1.3418  0.7568 -0.0010
17135SOL    HW263465   6.856   6.592   1.826  1.6495  0.8776 -1.2113
17136SOL     OW63466   8.255   3.080   1.524  0.5341  0.3206  0.0137
17136SOL    HW163467   8.286   3.142   1.596 -1.6034  0.5302  0.7615
17136SOL    HW263468   8.218   2.997   1.565  0.5772 -0.1645 -0.9051
17137SOL     OW63469   2.884   0.028   6.686  0.3405  0.3785  0.4238
17137SOL    HW163470   2.977  -0.005   6.669 -0.3501 -0.3302 -2.1193
17137SOL    HW263471   2.867   0.031   6.784  2.7956 -0.2062  0.8874
17138SOL     OW63472   5.625   9.740   8.239  0.1496 -0.2667  0.2108
17138SOL    HW163473   5.696   9.670   8.247 -0.6420 -1.0603  0.2227
17138SOL    HW263474   5.543   9.701   8.198 -0.5504  0.4776  0.8909
17139SOL     OW63475   3.595   3.717   7.647  0.2607 -0.3839  0.1504
17139SOL    HW163476   3.663   3.790   7.656  2.1867 -1.7204 -2.7225
17139SOL    HW263477   3.504   3.757   7.637  0.9989  1.5358  0.9397
17140SOL     OW63478   4.254   0.440   7.205 -0.3483  0.2385 -0.5629
17140SOL    HW163479   4.185   0.438   7.133  0.1797 -0.2428 -1.0641
17140SOL    HW263480   4.215   0.406   7.291 -1.3995  2.2176 -0.2458
17141SOL     OW63481   2.236   6.889   2.190 -0.1657  0.0276 -0.5203
17141SOL    HW163482   2.289   6.844   2.263  0.8382  2.3012  0.1863
17141SOL    HW263483   2.145   6.847   2.186 -0.4879  0.2925  2.5224
17142SOL     OW63484   5.717   2.215   1.265  0.3873  0.2044  0.9137
17142SOL    HW163485   5.760   2.126   1.249 -0.1370 -0.1718  1.5287
17142SOL    HW263486   5.715   2.233   1.364 -0.5329  0.3789  0.8670
17143SOL     OW63487   7.112   9.550   1.516 -0.1351  0.2967 -0.0229
17143SOL    HW163488   7.065   9.613   1.454 -0.9109 -1.3396 -1.1432
17143SOL    HW263489   7.139   9.468   1.465 -0.2076 -0.7906  1.6620
17144SOL     OW63490   4.637   7.391   9.293  0.0451 -0.6576 -0.1541
17144SOL    HW163491   4.549   7.362   9.254  0.2100  0.3559 -1.3287
17144SOL    HW263492   4.711   7.339   9.250  0.0979 -0.7714  0.0735
17145SOL     OW63493   7.115   2.485   2.366 -0.3997 -0.1600 -0.0644
17145SOL    HW163494   7.178   2.413   2.392 -2.3621 -1.9922 -0.2104
17145SOL    HW263495   7.067   2.459   2.282  0.2180  2.1731 -1.1894
17146SOL     OW63496   6.652   2.798   6.880 -0.1124 -0.1315  0.4080
17146SOL    HW163497   6.593   2.756   6.949 -0.5388 -0.3809 -0.1041
17146SOL    HW263498   6.656   2.897   6.895  0.0182 -0.2176  0.9555
17147SOL     OW63499   7.764   6.091   6.197 -0.1383  0.0396  0.4564
17147SOL    HW163500   7.722   6.072   6.286 -1.9985 -1.2693 -0.6597
17147SOL    HW263501   7.838   6.027   6.180 -0.2155 -0.1315  0.7658
17148SOL     OW63502   4.233   2.158   7.172  0.1421 -0.5960  0.3231
17148SOL    HW163503   4.170   2.227   7.137 -1.8715 -3.7643 -2.5420
17148SOL    HW263504   4.195   2.117   7.255 -0.6314 -1.0897 -0.2698
17149SOL     OW63505   4.353   7.438   1.877 -0.1056 -1.1346  0.6837
17149SOL    HW163506   4.416   7.363   1.896  1.0105  0.0989  1.8989
17149SOL    HW263507   4.391   7.524   1.911 -2.8383 -0.4988  2.3636
17150SOL     OW63508   6.188   9.023   5.893 -0.1116  0.3028 -0.1777
17150SOL    HW163509   6.205   9.093   5.962  0.0221 -0.1641  0.2645
17150SOL    HW263510   6.134   9.062   5.819 -2.1717  0.2431  1.2561
17151SOL     OW63511   3.064   2.251   3.466 -0.2812  0.3867  0.1133
17151SOL    HW163512   3.098   2.183   3.401 -2.2004  0.7499 -1.3161
17151SOL    HW263513   3.028   2.204   3.546 -1.2925 -0.2960 -0.7204
17152SOL     OW63514   6.925   4.283   9.452 -0.7562 -0.5038  0.0935
17152SOL    HW163515   6.933   4.381   9.431 -2.0455  0.0940  2.2805
17152SOL    HW263516   7.004   4.235   9.413  0.9303  1.6981  0.6726
17153SOL     OW63517   0.016   0.950   8.281  0.0249  0.2576 -0.2958
17153SOL    HW163518   0.049   0.992   8.197  0.3494 -1.4099 -1.0005
17153SOL    HW263519   0.068   0.987   8.359 -0.7403  2.3115 -0.7178
17154SOL     OW63520   9.365   3.811   0.135  0.5125  0.0975 -0.3908
17154SOL    HW163521   9.412   3.722   0.133  0.5112  0.0785  0.2409
17154SOL    HW263522   9.378   3.853   0.225 -0.9183 -0.0238 -0.1171
17155SOL     OW63523   4.937   9.459   7.758 -0.0557 -0.2632  0.6204
17155SOL    HW163524   4.921   9.542   7.811  2.5548  2.0901 -2.1279
17155SOL    HW263525   5.021   9.414   7.791 -0.0567 -0.4060  0.4325
17156SOL     OW63526   8.316   3.423   7.450 -0.3766 -0.6921  0.0340
17156SOL    HW163527   8.243   3.356   7.467 -1.0375  0.0096 -0.0219
17156SOL    HW263528   8.335   3.473   7.535 -1.3013  0.4556 -0.4316
17157SOL     OW63529   3.536   2.885   3.645 -0.2303 -0.6001  0.3018
17157SOL    HW163530   3.512   2.979   3.622  1.2933 -0.1292  0.6192
17157SOL    HW263531   3.475   2.822   3.596 -1.6177  0.5477  0.5147
17158SOL     OW63532   3.863   2.820   9.685 -0.2644 -0.7360  0.8143
17158SOL    HW163533   3.952   2.774   9.675  0.1170  0.0148  0.6974
17158SOL    HW263534   3.855   2.858   9.777 -0.6316 -1.1524  0.9532
17159SOL     OW63535   9.855   3.644   2.695 -0.2181 -0.2011 -0.7793
17159SOL    HW163536   9.821   3.722   2.749  0.7637 -0.1677 -0.1857
17159SOL    HW263537   9.856   3.668   2.598  0.2691  0.6144 -0.5817
17160SOL     OW63538   7.257   7.904   0.805  0.2682  0.0379 -0.0461
17160SOL    HW163539   7.197   7.975   0.842  0.4434 -0.3240  0.9657
17160SOL    HW263540   7.285   7.843   0.879  1.2490 -0.2572 -0.6546
17161SOL     OW63541   6.465   0.147   1.083  0.4442 -0.2454  0.0139
17161SOL    HW163542   6.505   0.095   1.007  1.1224  1.7645 -1.0447
17161SOL    HW263543   6.534   0.209   1.120 -0.3559 -0.0781  1.2434
17162SOL     OW63544   4.363   5.451   5.681 -0.0467  0.2896  0.3533
17162SOL    HW163545   4.296   5.461   5.608 -0.4573 -0.7413  0.5814
17162SOL    HW263546   4.438   5.393   5.650 -0.5986 -0.7848  0.9867
17163SOL     OW63547   4.198   3.918   5.703  0.3044  0.5423  0.1214
17163SOL    HW163548   4.163   3.885   5.615  1.0824  1.7252 -0.6506
17163SOL    HW263549   4.198   3.844   5.769 -3.5851  0.4450  0.1273
17164SOL     OW63550   5.324   2.026   2.689 -0.3000  0.1012 -0.1572
17164SOL    HW163551   5.298   1.974   2.770  0.1392  0.2268  0.0648
17164SOL    HW263552   5.263   2.002   2.613  1.2041 -2.2943 -0.6581
17165SOL     OW63553   8.335   3.141   5.309  0.4370  0.0856  0.1835
17165SOL    HW163554   8.300   3.158   5.217 -0.1284  0.2313  0.4220
17165SOL    HW263555   8.299   3.210   5.372  1.1732  0.2527  0.4349
17166SOL     OW63556   1.131   4.931   2.331  0.4752  0.1613 -0.8722
17166SOL    HW163557   1.181   5.014   2.304  0.8499  0.0422 -0.5504
17166SOL    HW263558   1.035   4.940   2.303 -0.3701  2.3037  2.3741
17167SOL     OW63559   1.307   2.281   5.070  0.4516 -0.1854  0.0828
17167SOL    HW163560   1.343   2.204   5.017 -2.0358 -0.5114 -1.2496
17167SOL    HW263561   1.292   2.253   5.165  1.8249 -0.5982  0.1858
17168SOL     OW63562   4.324   3.296   7.358 -0.2074 -0.5996 -0.2528
17168SOL    HW163563   4.392   3.243   7.410  0.3741  0.0425 -0.3548
17168SOL    HW263564   4.359   3.388   7.342 -0.0013 -1.0491 -2.5728
17169SOL     OW63565   3.914   5.885   6.692  0.2160  0.4583 -0.3876
17169SOL    HW163566   3.851   5.857   6.764  1.5141  1.3169  1.1108
17169SOL    HW263567   3.864   5.935   6.621 -1.2551 -1.3199 -0.6502
17170SOL     OW63568   4.200   8.585   4.757 -0.3165  0.1354  0.2265
17170SOL    HW163569   4.234   8.620   4.670 -0.8745  1.8141  0.6702
17170SOL    HW263570   4.175   8.488   4.747  2.6071 -0.5775 -0.6330
17171SOL     OW63571   5.705   7.630   6.283  0.3270  0.5231 -0.4035
17171SOL    HW163572   5.722   7.607   6.188 -2.0050 -0.9404 -0.5002
17171SOL    HW263573   5.658   7.718   6.289  0.5985  0.6810 -0.5738
17172SOL     OW63574   7.424   1.456   2.334 -0.5540 -1.0345 -0.2317
17172SOL    HW163575   7.500   1.462   2.399 -0.0587 -1.5666 -0.7512
17172SOL    HW263576   7.443   1.516   2.256 -1.0910 -0.4858  0.0595
17173SOL     OW63577   4.803   0.973   1.875 -0.5645 -0.1658 -0.6361
17173SOL    HW163578   4.775   0.990   1.970  1.7406  0.3603 -0.0334
17173SOL    HW263579   4.855   0.887   1.871 -0.7193 -0.2227 -1.4435
17174SOL     OW63580   9.542   6.030   5.379  0.9044  0.4625  0.6607
17174SOL    HW163581   9.449   6.027   5.417  0.0045  2.5100 -1.2702
17174SOL    HW263582   9.589   5.944   5.398 -1.5610 -0.7865  1.2511
17175SOL     OW63583   6.155   5.456   1.034  0.4759  0.2362  0.3426
17175SOL    HW163584   6.116   5.549   1.032  0.7558  0.3460 -0.3693
17175SOL    HW263585   6.253   5.462   1.052  1.0163  0.2768 -2.3808
17176SOL     OW63586   5.442   1.565   2.560  1.0388  0.0772  0.5577
17176SOL    HW163587   5.468   1.616   2.642  1.4810  1.6474 -0.5376
17176SOL    HW263588   5.482   1.473   2.563  1.4664  0.3021  1.8571
17177SOL     OW63589   8.837   6.030   4.312 -0.0254  0.4766  0.0172
17177SOL    HW163590   8.865   6.002   4.221  0.1929 -2.9972  1.0759
17177SOL    HW263591   8.742   6.061   4.311  0.3488  1.6028 -1.5621
17178SOL     OW63592   5.100   1.551   8.670 -0.0731  0.8244 -0.8736
17178SOL    HW163593   5.017   1.595   8.703 -0.1606  0.1612 -0.2203
17178SOL    HW263594   5.115   1.465   8.718  2.0044  1.8322  0.4041
17179SOL     OW63595   5.572   4.984   1.184  0.0045  0.5665  0.3995
17179SOL    HW163596   5.586   5.052   1.256  0.4598  1.6863 -0.7061
17179SOL    HW263597   5.576   4.892   1.222 -1.2481  1.1734  2.0377
17180SOL     OW63598   9.256   3.422   0.707  0.5236  0.1195 -0.3190
17180SOL    HW163599   9.198   3.502   0.690 -0.8839 -0.9795 -0.7591
17180SOL    HW263600   9.333   3.423   0.643  1.4863  2.0297  0.8097
17181SOL     OW63601   3.887   4.287   1.446 -0.2066  0.1105  0.0510
17181SOL    HW163602   3.888   4.346   1.366 -0.5459 -0.1970 -0.1813
17181SOL    HW263603   3.943   4.206   1.428  1.0852  0.8424  0.7368
17182SOL     OW63604   8.104   3.134   8.821 -0.1189 -0.2088 -0.2221
17182SOL    HW163605   8.089   3.230   8.800 -0.2446 -0.2479 -0.3126
17182SOL    HW263606   8.148   3.089   8.743  0.9409  0.0173  0.2416
17183SOL     OW63607   7.233   1.463   2.761  0.4779  0.4171  0.5509
17183SOL    HW163608   7.192   1.485   2.850 -0.7480 -0.7449  0.2920
17183SOL    HW263609   7.211   1.368   2.737  1.2072  0.5754 -0.7832
17184SOL     OW63610   4.930   3.765   6.072  0.0418 -0.5179 -0.4665
17184SOL    HW163611   4.960   3.718   5.989 -0.1729 -2.1591  0.3622
17184SOL    HW263612   4.831   3.776   6.070  0.0168 -0.7270 -0.3394
17185SOL     OW63613   0.111   4.607   9.884 -0.0928  0.1553  0.6690
17185SOL    HW163614   0.211   4.597   9.890  0.0890  1.0309 -0.7325
17185SOL    HW263615   0.083   4.688   9.934 -0.1937 -0.4942  1.6810
17186SOL     OW63616   2.757   2.650   3.474  0.0380 -0.3693  0.6112
17186SOL    HW163617   2.841   2.606   3.443  0.0126  0.6085 -0.9515
17186SOL    HW263618   2.780   2.728   3.532  0.2001 -0.4520  0.6586
17187SOL     OW63619   8.097   8.593   2.987 -0.2697 -0.2274  0.1424
17187SOL    HW163620   8.104   8.513   2.928 -0.7079  0.6097 -1.0594
17187SOL    HW263621   8.179   8.600   3.043 -1.3233 -2.9784  2.1675
17188SOL     OW63622   7.289   9.458   3.779 -0.5948  0.1030  0.1301
17188SOL    HW163623   7.210   9.519   3.786 -0.1997  0.8022 -1.1887
17188SOL    HW263624   7.365   9.508   3.737 -0.1779 -1.2234 -0.7183
17189SOL     OW63625   3.060   0.042   3.152 -0.1842  0.1773 -0.1090
17189SOL    HW163626   3.086   0.110   3.219 -0.8214  0.1005  0.2259
17189SOL    HW263627   2.981  -0.009   3.186  1.1098 -1.6372  0.2426
17190SOL     OW63628   9.541   4.651   3.527 -0.4867  0.2644 -0.5338
17190SOL    HW163629   9.581   4.665   3.436  0.9391  1.6977  0.2925
17190SOL    HW263630   9.582   4.715   3.592 -2.8034  0.4878  0.7583
17191SOL     OW63631   6.382   2.309   8.536  0.1688  0.3222  0.2570
17191SOL    HW163632   6.330   2.327   8.620  1.0240 -0.3541  0.9509
17191SOL    HW263633   6.430   2.221   8.545 -0.3655 -0.1391 -1.2666
17192SOL     OW63634   5.872   4.786   2.952  0.0833 -0.5094 -0.3318
17192SOL    HW163635   5.881   4.874   2.999  0.8148 -0.8841  0.2377
17192SOL    HW263636   5.930   4.785   2.871 -0.1642 -0.3593 -0.5136
17193SOL     OW63637   3.539   7.419   1.971  0.0412 -0.6153  0.5109
17193SOL    HW163638   3.452   7.456   1.939  0.2667 -0.4397  0.1002
17193SOL    HW263639   3.594   7.391   1.893 -0.3651 -2.3959  0.8254
17194SOL     OW63640   7.781   2.239   5.115  0.1146 -0.0254 -0.2356
17194SOL    HW163641   7.856   2.240   5.181 -0.6350  1.2686  0.5892
17194SOL    HW263642   7.796   2.310   5.047  0.7655 -1.2054 -1.3667
17195SOL     OW63643   7.597   2.415   2.234 -0.2322 -0.1361  0.3295
17195SOL    HW163644   7.649   2.369   2.162 -0.7384  1.9688 -1.4304
17195SOL    HW263645   7.653   2.488   2.273 -0.7970  0.2350  0.4482
17196SOL     OW63646   6.646   3.072   1.645 -0.4115  0.0007 -0.0409
17196SOL    HW163647   6.627   3.129   1.724  0.6421 -0.9871  0.9404
17196SOL    HW263648   6.653   3.129   1.563  1.1011  1.3364  0.9917
17197SOL     OW63649   0.480   0.161   2.178  0.3675 -1.0665  0.4627
17197SOL    HW163650   0.432   0.077   2.152 -0.3192 -0.4037 -0.4374
17197SOL    HW263651   0.416   0.226   2.217  0.3340  0.1610 -1.5414
17198SOL     OW63652   7.314   8.425   4.701  0.0538  0.3567  0.1341
17198SOL    HW163653   7.238   8.407   4.764 -0.0057  1.2773  0.3257
17198SOL    HW263654   7.292   8.389   4.611 -0.7681  0.9515  0.0941
17199SOL     OW63655   3.805   6.623   1.647 -0.0104  0.3617  0.8984
17199SOL    HW163656   3.710   6.592   1.650  0.4234 -0.8964  1.7671
17199SOL    HW263657   3.856   6.569   1.580  0.2342  0.6515  0.8487
17200SOL     OW63658   5.015   2.636   2.521 -0.2414  0.8457 -0.0006
17200SOL    HW163659   5.052   2.593   2.439 -0.9253 -2.4437  1.3584
17200SOL    HW263660   5.005   2.734   2.505 -0.0693  0.3240 -3.7176
17201SOL     OW63661   6.044   4.956   1.531 -0.0452 -0.2282 -0.3971
17201SOL    HW163662   5.988   5.016   1.475 -0.0155  0.0054 -0.1745
17201SOL    HW263663   6.121   4.922   1.476 -1.1205 -1.5877 -1.0975
17202SOL     OW63664   3.207   6.345   4.888 -0.0921 -0.6321 -0.4752
17202SOL    HW163665   3.301   6.369   4.911 -0.3017 -1.5008  1.3307
17202SOL    HW263666   3.204   6.253   4.850 -0.1457 -0.3793 -1.0927
17203SOL     OW63667   4.508   5.598   9.150 -0.1691  0.0372  0.5395
17203SOL    HW163668   4.565   5.548   9.214 -0.4673 -1.4386 -0.3255
17203SOL    HW263669   4.414   5.562   9.154 -0.3952  0.5520 -0.0692
17204SOL     OW63670   2.356   9.069   2.008 -0.1031  0.0455 -0.7005
17204SOL    HW163671   2.412   8.987   2.017  3.7279  2.6374  0.1545
17204SOL    HW263672   2.305   9.084   2.093  0.7001 -0.3711 -0.1411
17205SOL     OW63673   9.921   0.383   3.706  0.4733  0.2591  0.1214
17205SOL    HW163674   9.854   0.457   3.699 -0.2893 -0.3118  1.1763
17205SOL    HW263675   9.957   0.381   3.800  0.0862 -1.0580  0.2387
17206SOL     OW63676   8.699   5.708   6.481 -0.1011 -0.0427  0.0946
17206SOL    HW163677   8.674   5.725   6.577 -1.4511  1.4161 -0.5000
17206SOL    HW263678   8.657   5.622   6.451 -1.8839  0.8216  0.0423
17207SOL     OW63679   5.251   1.525   0.877  0.2187  0.0610 -0.5818
17207SOL    HW163680   5.275   1.459   0.807  0.1579 -0.0772 -0.4745
17207SOL    HW263681   5.152   1.544   0.872  0.1623 -0.1645 -0.3525
17208SOL     OW63682   7.940   3.608   3.473 -0.3257 -0.7006 -0.3821
17208SOL    HW163683   7.922   3.585   3.569  0.7488  0.0129 -0.0052
17208SOL    HW263684   7.942   3.524   3.419 -1.1185 -1.0916  0.1891
17209SOL     OW63685   2.651   2.586   8.315  1.0241  0.5092  0.1458
17209SOL    HW163686   2.655   2.492   8.281  1.7654  0.3904  0.5302
17209SOL    HW263687   2.739   2.631   8.298  2.0765 -0.1361  3.5036
17210SOL     OW63688   8.663   3.730   1.131  0.6353 -0.0494 -0.1603
17210SOL    HW163689   8.652   3.781   1.046 -3.2927  0.3562  0.4705
17210SOL    HW263690   8.657   3.794   1.208  2.0266 -0.6840  0.4821
17211SOL     OW63691   9.115   7.305   3.520 -0.0737 -0.3144 -0.1596
17211SOL    HW163692   9.049   7.274   3.453 -0.3162  0.4964 -0.3041
17211SOL    HW263693   9.092   7.398   3.549  0.9829 -0.0342 -0.1940
17212SOL     OW63694   9.433   3.357   2.397  0.8646  0.0999  0.1357
17212SOL    HW163695   9.498   3.401   2.336  0.2125  0.0355 -0.6128
17212SOL    HW263696   9.436   3.258   2.383  2.1303 -0.1035  1.6191
17213SOL     OW63697   6.579   0.266   2.968  0.7141 -0.0806  0.6751
17213SOL    HW163698   6.588   0.170   2.994  1.5524 -0.2432 -0.1959
17213SOL    HW263699   6.668   0.304   2.946  0.2836  0.6553  0.1574
17214SOL     OW63700   8.328   3.705   4.571 -0.2498 -0.0367 -0.0046
17214SOL    HW163701   8.308   3.619   4.619 -0.8948  0.4769  0.6576
17214SOL    HW263702   8.250   3.730   4.513  1.0988 -1.4236 -2.5110
17215SOL     OW63703   2.195   7.543   3.671  0.4553  0.4643  0.2756
17215SOL    HW163704   2.192   7.555   3.572  1.5489  1.2373  0.3281
17215SOL    HW263705   2.117   7.589   3.713 -0.4994 -0.6188 -0.2918
17216SOL     OW63706   8.591   2.180   4.045 -0.0179 -0.5285  0.3277
17216SOL    HW163707   8.666   2.200   3.982 -0.7822  1.5037  0.0288
17216SOL    HW263708   8.627   2.173   4.138  0.6080 -0.0840  0.1205
17217SOL     OW63709   7.853   4.088   8.116 -0.0760  0.5806  0.1361
17217SOL    HW163710   7.837   4.157   8.045 -1.6189 -0.3900 -0.4818
17217SOL    HW263711   7.818   3.999   8.085  3.0905 -0.8361  0.3360
17218SOL     OW63712   6.164   0.987   1.118  0.1849  0.1717  0.0346
17218SOL    HW163713   6.215   1.062   1.159  1.0275 -0.9808  1.1123
17218SOL    HW263714   6.106   0.944   1.187  0.0648 -0.4729 -0.4631
17219SOL     OW63715   5.874   6.571   3.395 -0.5972 -0.4920  0.0226
17219SOL    HW163716   5.945   6.535   3.335  0.1323  0.0336  0.5552
17219SOL    HW263717   5.787   6.577   3.345  0.2386  0.9513 -1.3141
17220SOL     OW63718   6.949   5.202   0.322  0.2212 -0.6316 -0.4244
17220SOL    HW163719   7.044   5.178   0.343  0.3431 -0.3797 -0.6880
17220SOL    HW263720   6.890   5.124   0.343  0.3741 -0.4823  0.6065
17221SOL     OW63721   5.114   4.322   9.491 -0.8029  0.3600 -0.4867
17221SOL    HW163722   5.071   4.231   9.491 -0.9248  0.4179 -0.5076
17221SOL    HW263723   5.212   4.312   9.509 -0.9968  0.3139  0.6185
17222SOL     OW63724   8.460   5.992   3.938 -0.1812 -0.1132 -0.2624
17222SOL    HW163725   8.472   6.070   3.877  1.1333 -0.0918 -0.0036
17222SOL    HW263726   8.545   5.939   3.941 -0.4191 -0.4421  1.0924
17223SOL     OW63727   7.131   7.385   5.028 -0.8817 -0.1976  0.2268
17223SOL    HW163728   7.045   7.391   4.977 -0.7203 -2.6602 -0.4481
17223SOL    HW263729   7.208   7.405   4.967 -0.8969  0.7738  0.5182
17224SOL     OW63730   8.143   1.055   1.073 -0.1279 -0.3925  0.0054
17224SOL    HW163731   8.100   0.978   1.120 -1.0503 -0.7489 -1.3796
17224SOL    HW263732   8.094   1.072   0.987 -0.3705  2.1820  0.6292
17225SOL     OW63733   5.537   4.257   4.240 -0.2530  0.3688  0.3680
17225SOL    HW163734   5.577   4.348   4.249  1.0365 -0.1317 -0.1389
17225SOL    HW263735   5.609   4.192   4.215 -0.7135 -1.1706  2.8075
17226SOL     OW63736   2.005   7.670   8.802  0.2160 -0.4705  0.6030
17226SOL    HW163737   2.024   7.706   8.893  0.6676 -1.0698  0.7509
17226SOL    HW263738   1.950   7.736   8.751  0.4154  0.1016  1.1194
17227SOL     OW63739   5.580   0.833   7.682 -0.2194 -0.2308  0.2529
17227SOL    HW163740   5.572   0.744   7.637 -2.0063  0.5499 -1.0216
17227SOL    HW263741   5.612   0.901   7.617 -0.6863  0.4449  0.7214
17228SOL     OW63742   1.014   4.724   2.493 -0.0963  0.4864  0.3196
17228SOL    HW163743   1.083   4.663   2.530  1.5063  1.8283 -0.3850
17228SOL    HW263744   1.054   4.779   2.419 -2.0755  0.8665 -0.5016
17229SOL     OW63745   7.856   0.961   3.160 -0.1985  0.7069  0.1065
17229SOL    HW163746   7.909   0.967   3.245 -0.0015  1.0890 -0.0445
17229SOL    HW263747   7.824   0.867   3.148  2.0148  0.0431 -0.7657
17230SOL     OW63748   2.637   2.458   0.788 -0.3084 -0.2630  0.7201
17230SOL    HW163749   2.552   2.423   0.828  0.3215 -2.0643  0.4819
17230SOL    HW263750   2.666   2.400   0.712  0.7588  0.7494  0.3339
17231SOL     OW63751   0.875   7.402   9.887 -0.3479  0.0550 -0.0390
17231SOL    HW163752   0.969   7.378   9.912 -0.1386  0.3878 -0.5217
17231SOL    HW263753   0.861   7.387   9.790 -0.2440  1.8018 -0.3329
17232SOL     OW63754   6.631   8.664   8.110  0.5722  0.0158  0.2248
17232SOL    HW163755   6.682   8.704   8.187  3.0094 -1.3179 -0.6471
17232SOL    HW263756   6.631   8.727   8.033  2.4849 -0.6912 -0.3796
17233SOL     OW63757   6.562   4.071   1.982  0.3678  0.0175  0.6683
17233SOL    HW163758   6.618   4.152   1.996  1.2331 -0.4034 -0.3411
17233SOL    HW263759   6.511   4.079   1.897 -0.3736 -0.0304  1.0985
17234SOL     OW63760   0.530   5.260   2.459  0.2499 -0.1889  0.0794
17234SOL    HW163761   0.614   5.289   2.411  1.2146  1.8201  2.8802
17234SOL    HW263762   0.456   5.325   2.438  0.7035  0.7565  1.3679
17235SOL     OW63763   0.726   0.947   1.655  0.2478 -0.4868 -0.3152
17235SOL    HW163764   0.779   0.863   1.650 -0.7060 -1.1386  0.4349
17235SOL    HW263765   0.654   0.938   1.723 -0.7153  0.4611 -1.1734
17236SOL     OW63766   6.513   5.478   7.174  0.2703 -0.4515 -0.2858
17236SOL    HW163767   6.563   5.423   7.107  3.1231  1.4691  0.1690
17236SOL    HW263768   6.527   5.575   7.154 -1.9027  0.1402  0.9150
17237SOL     OW63769   8.808   6.408   3.601  0.1219 -0.0499  0.2895
17237SOL    HW163770   8.716   6.397   3.565  0.8713 -0.7295 -1.4317
17237SOL    HW263771   8.816   6.498   3.645 -1.0633  0.3982 -0.3963
17238SOL     OW63772   9.660   5.684   1.864  0.3117 -0.6150  0.4843
17238SOL    HW163773   9.692   5.726   1.779  1.0467 -1.2063  0.4692
17238SOL    HW263774   9.729   5.621   1.899  0.0491 -0.3202  1.5654
17239SOL     OW63775   5.882   5.685   4.057 -0.0933  0.2056  0.3160
17239SOL    HW163776   5.951   5.639   4.113 -0.8694  0.3157  1.3846
17239SOL    HW263777   5.805   5.711   4.115 -0.6632  0.8249 -0.7121
17240SOL     OW63778   4.733   3.855   0.491  0.2240 -0.2184  0.1081
17240SOL    HW163779   4.823   3.844   0.450  1.1265  0.3968  1.9012
17240SOL    HW263780   4.679   3.920   0.437  1.4147  0.6413 -0.0583
17241SOL     OW63781   8.560   4.546   2.352  0.1677  0.0190 -0.4766
17241SOL    HW163782   8.551   4.543   2.452  3.6292  0.1127 -0.1319
17241SOL    HW263783   8.548   4.640   2.321  0.3111  0.1874 -0.0260
17242SOL     OW63784   6.210   9.860   4.893 -0.0787 -0.0944 -0.0974
17242SOL    HW163785   6.196   9.936   4.831 -1.4662  0.4929  0.9197
17242SOL    HW263786   6.301   9.820   4.877  1.1219  2.4772  0.1351
17243SOL     OW63787   6.850   1.943   4.184  0.4874  0.3367 -0.0852
17243SOL    HW163788   6.837   2.035   4.222 -1.1173 -0.3358  1.0576
17243SOL    HW263789   6.810   1.940   4.092 -0.3286  0.5283  0.2527
17244SOL     OW63790   8.575   8.822   2.776 -0.7512 -0.3865 -0.4103
17244SOL    HW163791   8.622   8.765   2.843 -1.6112  1.1073  1.4965
17244SOL    HW263792   8.487   8.782   2.753 -0.7991 -0.4845 -0.0533
17245SOL     OW63793   7.398   3.732   9.356 -0.3060 -0.5376 -0.0806
17245SOL    HW163794   7.374   3.646   9.402 -1.4233 -0.0706  0.2077
17245SOL    HW263795   7.319   3.793   9.355  0.2066  0.1165 -1.1471
17246SOL     OW63796   7.525   6.092   1.264  0.6432 -0.1537  0.5603
17246SOL    HW163797   7.459   6.024   1.298  1.9205 -1.5778  0.2549
17246SOL    HW263798   7.499   6.183   1.296 -1.0379 -0.8037  1.0796
17247SOL     OW63799   5.139   3.373   0.693  0.0489 -0.3142 -0.2784
17247SOL    HW163800   5.202   3.300   0.720 -0.6577 -0.6524  0.4620
17247SOL    HW263801   5.192   3.455   0.671  0.6785 -0.2258  1.5200
17248SOL     OW63802   7.594   9.552   5.904 -0.2576 -0.2242 -0.1041
17248SOL    HW163803   7.569   9.590   5.993 -0.7627  0.9529 -0.7424
17248SOL    HW263804   7.594   9.452   5.910 -0.0819 -0.1575  1.2664
17249SOL     OW63805   7.377   8.480   2.133 -0.3605 -0.1832  0.3767
17249SOL    HW163806   7.359   8.387   2.100  0.7527 -0.5759  0.8177
17249SOL    HW263807   7.458   8.516   2.087  1.6838 -1.0394  3.1455
17250SOL     OW63808   4.191   1.039   5.338  0.7339  0.2033  0.3856
17250SOL    HW163809   4.132   1.110   5.375 -1.4151 -0.5944 -1.3735
17250SOL    HW263810   4.137   0.957   5.319  2.2232 -0.2844 -2.0459
17251SOL     OW63811   2.365   6.764   2.407  0.3779  0.0004  0.3788
17251SOL    HW163812   2.320   6.684   2.446  0.0532  0.5146  1.0811
17251SOL    HW263813   2.458   6.771   2.442  1.4945 -1.8131 -2.1069
17252SOL     OW63814   4.965   5.536   2.071  0.7027 -0.5169 -0.3682
17252SOL    HW163815   4.890   5.575   2.124  0.9460  0.1185 -0.4924
17252SOL    HW263816   5.051   5.580   2.096  1.4876 -3.0933  1.7402
17253SOL     OW63817   9.227   3.486   5.793 -0.7074 -0.3990 -0.3756
17253SOL    HW163818   9.143   3.481   5.846 -0.5558 -0.5936 -0.1561
17253SOL    HW263819   9.227   3.414   5.723 -0.6576 -0.4844 -0.2864
17254SOL     OW63820   5.443   6.582   3.476  0.0692 -0.5261 -0.2120
17254SOL    HW163821   5.539   6.575   3.450  0.1852 -0.3675  0.1747
17254SOL    HW263822   5.432   6.656   3.543 -0.4839  0.1804 -1.0742
17255SOL     OW63823   5.199   3.508   0.082 -0.1272 -0.4083  0.6287
17255SOL    HW163824   5.141   3.463   0.013  0.1756 -0.9400  0.7136
17255SOL    HW263825   5.290   3.465   0.082  0.4462  0.7991  0.1043
17256SOL     OW63826   1.694   4.527   2.271 -0.0698  0.1620 -0.1850
17256SOL    HW163827   1.629   4.512   2.197 -0.3414 -0.0696  0.0975
17256SOL    HW263828   1.767   4.587   2.240 -0.0585 -0.1236 -0.7118
17257SOL     OW63829   0.444   2.563   1.642  0.0729 -0.2870  0.7020
17257SOL    HW163830   0.359   2.515   1.621  0.5057 -1.3656  1.3813
17257SOL    HW263831   0.430   2.621   1.723 -0.7404  1.5627 -0.7221
17258SOL     OW63832   9.950   5.234   1.845 -0.4641 -0.2017  0.4627
17258SOL    HW163833   9.940   5.139   1.815 -0.6008 -0.0302 -0.0463
17258SOL    HW263834   9.892   5.250   1.925 -0.6732 -0.4702  0.3676
17259SOL     OW63835   7.267   5.932   2.982  0.2208  0.8880  0.3846
17259SOL    HW163836   7.322   5.869   2.926 -1.1879 -0.6689  0.6889
17259SOL    HW263837   7.184   5.956   2.932 -0.8628 -0.2056  1.6311
17260SOL     OW63838   9.939   0.235   0.055 -0.1611 -0.5558  0.1393
17260SOL    HW163839   9.967   0.308   0.117 -0.0392 -0.8245  0.4012
17260SOL    HW263840   9.894   0.274  -0.025 -0.0792 -0.1929  0.2727
17261SOL     OW63841   7.564   7.490   1.570  0.6937  0.2732  0.1756
17261SOL    HW163842   7.535   7.522   1.480  1.9990 -2.9571 -1.4875
17261SOL    HW263843   7.495   7.429   1.609  2.1573 -2.1825 -0.8791
17262SOL     OW63844   7.766   0.675   5.739  0.1497  0.1835 -0.2341
17262SOL    HW163845   7.809   0.600   5.690 -0.4613  0.1696 -0.7617
17262SOL    HW263846   7.667   0.673   5.723  0.2776  1.9394 -1.4467
17263SOL     OW63847   1.777   1.543   5.785  0.2860 -0.3058  0.1899
17263SOL    HW163848   1.765   1.455   5.740  0.5721  0.4213 -1.3177
17263SOL    HW263849   1.810   1.611   5.719 -3.6738  1.9379  0.3671
17264SOL     OW63850   6.342   2.142   0.856  0.0724 -0.7983  0.5334
17264SOL    HW163851   6.307   2.055   0.891 -0.6939 -0.6459  0.1481
17264SOL    HW263852   6.277   2.215   0.876 -0.6327 -0.7990 -1.6415
17265SOL     OW63853   5.960   4.420   7.414 -0.4093  0.7213  0.1592
17265SOL    HW163854   5.935   4.415   7.318 -1.5202  3.6433  0.2628
17265SOL    HW263855   6.038   4.482   7.425 -1.0676  1.3741  1.2604
17266SOL     OW63856   2.286   1.569   9.854 -0.0647  0.1987 -0.0228
17266SOL    HW163857   2.242   1.545   9.767 -1.0408  1.4525  0.0977
17266SOL    HW263858   2.235   1.528   9.930 -0.3657  0.7139  0.0563
17267SOL     OW63859   7.805   1.048   1.334 -0.2571  0.1423  0.1782
17267SOL    HW163860   7.779   1.053   1.238  0.2441  1.4752  0.0937
17267SOL    HW263861   7.870   0.974   1.348  0.8841  0.9499 -0.8082
17268SOL     OW63862   5.222   9.503   1.486 -0.0788 -0.0255  0.5212
17268SOL    HW163863   5.232   9.410   1.521 -0.3712 -1.0434 -2.0790
17268SOL    HW263864   5.176   9.559   1.555 -0.7611 -2.0171  1.7298
17269SOL     OW63865   6.153   3.354   9.474 -0.3102 -0.2048  0.1892
17269SOL    HW163866   6.220   3.409   9.424  0.2759  0.9211  2.1414
17269SOL    HW263867   6.062   3.394   9.462  0.1190  1.2747  1.6417
17270SOL     OW63868   5.660   4.840   0.437  0.1853 -0.0798  0.1148
17270SOL    HW163869   5.675   4.822   0.534 -0.0077 -0.6821  0.0346
17270SOL    HW263870   5.731   4.794   0.383 -0.8002 -1.3515 -0.1447
17271SOL     OW63871   5.270   0.141   7.643 -0.1684  0.4903 -0.6331
17271SOL    HW163872   5.231   0.102   7.560 -0.7825  1.2249 -0.6942
17271SOL    HW263873   5.198   0.155   7.711  0.4282 -0.6898  0.2578
17272SOL     OW63874   6.802   5.659   0.903 -0.2471 -0.0785  0.2024
17272SOL    HW163875   6.715   5.610   0.911  0.1929 -0.5561  2.4784
17272SOL    HW263876   6.843   5.640   0.814 -1.5200 -1.4261 -0.1161
17273SOL     OW63877   3.949   6.867   1.631  0.4584 -0.1574 -0.5247
17273SOL    HW163878   3.885   6.944   1.630  0.6648  0.0179 -0.3346
17273SOL    HW263879   3.901   6.784   1.661  0.5582  0.1969  0.6296
17274SOL     OW63880   5.773   3.735   3.625 -0.0326  0.0131 -0.3478
17274SOL    HW163881   5.742   3.664   3.561  0.2195  2.0324 -2.7772
17274SOL    HW263882   5.868   3.758   3.604  0.9887 -1.2846  2.6288
17275SOL     OW63883   5.524   8.292   1.314 -0.4197  0.0250 -0.0244
17275SOL    HW163884   5.606   8.324   1.265  1.6988 -1.3471  2.5038
17275SOL    HW263885   5.454   8.265   1.247  0.8066  2.0846 -2.2334
17276SOL     OW63886   6.175   6.231   0.804  0.0388 -0.0924  0.2271
17276SOL    HW163887   6.269   6.197   0.813 -0.2983 -0.9954  0.3367
17276SOL    HW263888   6.146   6.270   0.892  0.5086  0.7118  0.0337
17277SOL     OW63889   3.231   0.858   2.087  0.2965 -0.6531 -0.3627
17277SOL    HW163890   3.238   0.807   2.001 -0.6037 -1.4585  0.0283
17277SOL    HW263891   3.190   0.947   2.069 -1.0413 -1.3043 -0.5943
17278SOL     OW63892   7.158   1.556   4.550 -0.2130  0.0016  0.2398
17278SOL    HW163893   7.134   1.540   4.646  1.7417  0.7714  0.8792
17278SOL    HW263894   7.141   1.652   4.527 -0.2893 -0.0846 -0.0590
17279SOL     OW63895   3.978   8.769   2.982 -0.0656  0.0999  0.3028
17279SOL    HW163896   4.057   8.830   2.989  0.1099  0.1184 -1.4600
17279SOL    HW263897   3.903   8.803   3.038  0.7470  0.7857  0.9749
17280SOL     OW63898   8.196   1.461   1.150  0.0815 -0.0228 -0.4910
17280SOL    HW163899   8.099   1.472   1.129  0.5658  1.7239 -1.8809
17280SOL    HW263900   8.240   1.550   1.156  1.4925 -0.7673  0.7655
17281SOL     OW63901   2.856   8.236   2.883 -0.4390 -0.4109  0.3209
17281SOL    HW163902   2.943   8.261   2.840  0.5680 -1.2045  1.8448
17281SOL    HW263903   2.801   8.183   2.818  1.4508 -2.4052  0.2900
17282SOL     OW63904   3.465   7.619   4.667  0.0440  0.0854 -0.4222
17282SOL    HW163905   3.393   7.553   4.641 -0.3207  1.0082 -1.7744
17282SOL    HW263906   3.429   7.712   4.658 -0.1093  0.4730  3.4191
17283SOL     OW63907   4.894   3.857   3.427  0.0123 -0.2319 -0.2376
17283SOL    HW163908   4.860   3.847   3.334  3.0519 -0.3444 -1.4013
17283SOL    HW263909   4.885   3.952   3.456  0.8785  0.2126 -1.4027
17284SOL     OW63910   6.160   3.272   2.593 -0.1421  0.4846  0.0601
17284SOL    HW163911   6.244   3.218   2.603  0.8057  2.0573  0.7087
17284SOL    HW263912   6.167   3.330   2.512 -0.5593  0.7177  0.1927
17285SOL     OW63913   6.799   7.376   7.999 -0.0622  0.8390 -0.1352
17285SOL    HW163914   6.757   7.340   7.915  0.0611  1.5701 -0.5155
17285SOL    HW263915   6.798   7.476   7.996  1.2771  0.8572  0.0700
17286SOL     OW63916   8.829   5.341   2.930  0.4083  0.0091 -0.0521
17286SOL    HW163917   8.763   5.276   2.969 -0.3102  1.1596  0.6699
17286SOL    HW263918   8.913   5.292   2.905  0.0091 -1.1346  0.8104
17287SOL     OW63919   4.808   6.433   9.863 -0.1445  0.2834 -0.0701
17287SOL    HW163920   4.871   6.452   9.939 -0.2713  1.3250 -0.2193
17287SOL    HW263921   4.809   6.510   9.799 -0.7478 -0.1803 -0.6438
17288SOL     OW63922   8.302   3.910   3.846 -0.0775 -0.5676 -0.3105
17288SOL    HW163923   8.312   3.863   3.933  2.3659 -0.6430 -0.5867
17288SOL    HW263924   8.339   4.003   3.853  1.5574 -1.0707 -1.6136
17289SOL     OW63925   8.418   2.824   3.091 -0.5489  0.1030  0.1516
17289SOL    HW163926   8.387   2.901   3.036 -0.8733  0.3827  0.7285
17289SOL    HW263927   8.345   2.756   3.099  0.0265 -0.6780 -1.0903
17290SOL     OW63928   3.875   3.779   7.923 -0.3714  0.1896  0.6689
17290SOL    HW163929   3.962   3.806   7.965  0.0164  0.1737 -0.1172
17290SOL    HW263930   3.801   3.793   7.989  0.2617 -0.0749  1.4446
17291SOL     OW63931   6.225   4.093   1.374  0.7946 -0.6519 -0.2180
17291SOL    HW163932   6.268   4.176   1.337 -3.5234  1.8267 -0.0568
17291SOL    HW263933   6.161   4.057   1.306 -2.9804  0.6313  2.5008
17292SOL     OW63934   7.147   4.327   3.885 -0.1165 -0.2462  0.0698
17292SOL    HW163935   7.163   4.228   3.888 -1.1798 -0.4066  0.5961
17292SOL    HW263936   7.053   4.346   3.910  0.3693  0.9856  0.9995
17293SOL     OW63937   7.279   5.003   9.831 -0.0041 -0.1790 -1.1317
17293SOL    HW163938   7.311   5.061   9.755 -0.2235 -1.0018 -1.8542
17293SOL    HW263939   7.327   4.915   9.827  1.2767  0.4150  0.7223
17294SOL     OW63940   6.001   0.759   0.800  0.1289  0.1533 -0.2021
17294SOL    HW163941   5.927   0.739   0.865 -0.6328  2.4095 -0.3519
17294SOL    HW263942   6.042   0.673   0.770 -1.2456 -1.0497  1.2537
17295SOL     OW63943   4.344   5.414   4.017 -0.2275 -0.0209  0.2286
17295SOL    HW163944   4.370   5.431   4.112  0.9175  0.8097 -0.2154
17295SOL    HW263945   4.383   5.485   3.959 -1.1740 -0.3526 -0.8286
17296SOL     OW63946   6.466   4.217   2.400  0.2226  0.2343 -0.6828
17296SOL    HW163947   6.448   4.155   2.323 -0.0411  0.7870 -1.0726
17296SOL    HW263948   6.563   4.215   2.422  0.2394 -0.2046 -0.7917
17297SOL     OW63949   4.335   3.738   9.595  0.3464  0.2849 -0.6967
17297SOL    HW163950   4.336   3.788   9.682 -2.9784  0.5123 -0.7466
17297SOL    HW263951   4.356   3.802   9.521  0.4576  0.6626 -0.3487
17298SOL     OW63952   4.208   0.903   2.805 -0.0654  0.2431 -0.0131
17298SOL    HW163953   4.266   0.916   2.725  0.0012 -0.9460 -0.1781
17298SOL    HW263954   4.246   0.830   2.863 -0.8179  0.1761  0.4127
17299SOL     OW63955   4.130   5.728   3.780 -0.3163  0.2746  0.3834
17299SOL    HW163956   4.069   5.687   3.711 -1.4550  0.2476  1.3927
17299SOL    HW263957   4.211   5.671   3.791  0.1984  0.6347 -1.4311
17300SOL     OW63958   5.752   3.611   4.850 -0.3481 -0.1600 -0.3464
17300SOL    HW163959   5.766   3.569   4.940  0.1673  0.0491 -0.3284
17300SOL    HW263960   5.657   3.596   4.821 -0.8323  0.7705  0.7404
17301SOL     OW63961   5.319   6.809   3.601  0.0532 -0.4967  0.1284
17301SOL    HW163962   5.344   6.859   3.518 -0.7735  0.8246  0.6607
17301SOL    HW263963   5.351   6.859   3.681  1.7446 -2.2635  0.6179
17302SOL     OW63964   7.200   4.935   6.180  0.4072 -0.2084 -0.8412
17302SOL    HW163965   7.266   4.923   6.254  0.8171  2.0295 -0.8137
17302SOL    HW263966   7.245   4.978   6.101 -0.7981  0.5540 -1.1270
17303SOL     OW63967   7.082   0.205   4.596  0.0662  0.0173 -0.5490
17303SOL    HW163968   6.993   0.161   4.582 -0.2929  0.8950 -1.1290
17303SOL    HW263969   7.126   0.167   4.677 -0.9849 -0.2093 -0.0692
17304SOL     OW63970   4.743   4.141   3.252  0.1181 -0.2555 -0.5751
17304SOL    HW163971   4.776   4.147   3.346 -1.1327 -1.1131 -0.0755
17304SOL    HW263972   4.742   4.045   3.223  1.7690  0.1108 -1.9311
17305SOL     OW63973   0.847   2.972   4.165 -0.1890  0.3174 -0.2271
17305SOL    HW163974   0.789   2.894   4.187  1.0102 -0.8578 -1.1660
17305SOL    HW263975   0.939   2.957   4.200 -0.3451  2.0482  1.0098
17306SOL     OW63976   5.279   3.985   3.614  0.4145 -0.4020 -0.0303
17306SOL    HW163977   5.261   4.057   3.681  1.4279 -0.4455  0.2961
17306SOL    HW263978   5.376   3.985   3.590  0.0455 -0.3182 -1.5860
17307SOL     OW63979   9.321   3.371   1.413  0.0692  0.5907  0.0281
17307SOL    HW163980   9.312   3.310   1.334 -2.8952  0.9401  0.0568
17307SOL    HW263981   9.335   3.316   1.496  2.5108  0.2026 -0.5999
17308SOL     OW63982   5.745   8.144   5.506 -0.3864  0.1458  0.1905
17308SOL    HW163983   5.764   8.238   5.532 -0.9006 -0.2831  2.2393
17308SOL    HW263984   5.694   8.099   5.579 -0.3927 -1.6417 -0.8791
17309SOL     OW63985   2.677   3.840   4.342 -0.3834 -0.1703  0.0290
17309SOL    HW163986   2.678   3.923   4.397 -0.1963  1.1878 -1.9749
17309SOL    HW263987   2.729   3.855   4.258  0.1310 -2.4992 -0.0966
17310SOL     OW63988   7.209   3.228   3.257  0.4144 -0.3132 -0.1758
17310SOL    HW163989   7.194   3.312   3.204 -0.7679  0.2880  1.1074
17310SOL    HW263990   7.174   3.150   3.206 -0.5544  0.2418 -0.3673
17311SOL     OW63991   6.396   8.620   0.557  0.0602  0.2202  0.2573
17311SOL    HW163992   6.429   8.686   0.490 -0.5941 -0.7276 -1.0121
17311SOL    HW263993   6.473   8.571   0.596  0.6385  2.2877  1.8364
17312SOL     OW63994   9.729   3.991   1.481 -0.9683  0.1188 -0.0966
17312SOL    HW163995   9.706   4.056   1.553  1.4588  0.3735  0.4704
17312SOL    HW263996   9.736   4.040   1.394 -3.4707 -0.1214 -0.4715
17313SOL     OW63997   1.144   5.969   2.024  0.3085  0.2311 -0.2026
17313SOL    HW163998   1.044   5.967   2.031  0.3415 -0.4110  0.0361
17313SOL    HW263999   1.170   5.985   1.928 -0.0136  0.1263 -0.3081
17314SOL     OW64000   8.162   3.353   7.976 -0.1489 -0.1208 -0.3069
17314SOL    HW164001   8.173   3.319   8.069 -0.2066  0.2990 -0.1449
17314SOL    HW264002   8.209   3.441   7.967  1.0391 -0.8071 -1.0513
17315SOL     OW64003   7.908   2.001   4.550  0.3617 -0.5378  0.1404
17315SOL    HW164004   7.928   2.099   4.545 -1.8712  0.0070  1.3067
17315SOL    HW264005   7.914   1.962   4.458  0.2090  0.9081 -0.5123
17316SOL     OW64006   8.209   1.117   3.097  0.2475  0.3664 -0.3597
17316SOL    HW164007   8.237   1.204   3.058  1.2358 -0.2268 -1.0067
17316SOL    HW264008   8.150   1.069   3.032 -1.6728  1.2749  0.6842
17317SOL     OW64009   4.466   0.257   1.301 -0.2781 -0.2906 -0.2239
17317SOL    HW164010   4.387   0.196   1.293  0.4954 -1.4329  0.6815
17317SOL    HW264011   4.477   0.308   1.215 -1.0735 -1.2573 -0.9191
17318SOL     OW64012   7.402   9.547   1.825  0.0044  0.1346  0.4723
17318SOL    HW164013   7.419   9.499   1.739 -1.2799 -0.3652  0.4805
17318SOL    HW264014   7.486   9.548   1.880  1.8804  3.5279 -2.2422
17319SOL     OW64015   2.598   4.214   1.723  0.3188  0.0194 -0.2398
17319SOL    HW164016   2.551   4.138   1.768 -0.1561  0.2997 -0.2550
17319SOL    HW264017   2.683   4.181   1.681  1.0369 -0.1357  1.3144
17320SOL     OW64018   3.289   3.638   1.365 -0.0257 -0.3819 -0.2349
17320SOL    HW164019   3.277   3.550   1.317 -0.5413 -0.6851  0.4491
17320SOL    HW264020   3.296   3.621   1.463 -2.9016  0.5896  0.1642
17321SOL     OW64021   2.013   5.606   4.796 -0.3968 -0.4669 -0.1209
17321SOL    HW164022   1.970   5.520   4.821 -0.8942  0.3316  1.7940
17321SOL    HW264023   2.061   5.644   4.875  1.0285  0.3179 -1.3305
17322SOL     OW64024   7.887   2.903   0.906 -0.1982  0.3442 -0.3019
17322SOL    HW164025   7.845   2.942   0.987 -0.4612  0.6540 -0.5847
17322SOL    HW264026   7.952   2.832   0.933  0.4552  1.1312  0.2255
17323SOL     OW64027   5.344   8.846   6.555 -0.2343 -0.4466 -0.3009
17323SOL    HW164028   5.325   8.749   6.536 -1.1512  0.3946 -4.0910
17323SOL    HW264029   5.259   8.898   6.551  0.6359  0.9394 -1.0416
17324SOL     OW64030   0.356   1.261   1.503 -0.1773 -0.3959 -0.1069
17324SOL    HW164031   0.303   1.276   1.419 -0.9052  0.4556  0.5042
17324SOL    HW264032   0.411   1.342   1.522  0.3182 -0.7584  0.0118
17325SOL     OW64033   9.793   6.211   8.971  0.3209 -0.2327 -0.4634
17325SOL    HW164034   9.785   6.127   9.024  1.6218 -1.1934 -1.7860
17325SOL    HW264035   9.801   6.289   9.034 -1.6887 -0.9917  0.7655
17326SOL     OW64036   0.976   9.500   5.103 -0.2781  0.1997  0.0858
17326SOL    HW164037   0.934   9.509   5.012 -0.4075  3.7375  0.4647
17326SOL    HW264038   0.952   9.578   5.159  1.2800 -1.0842  2.6233
17327SOL     OW64039   0.201   2.668   2.295 -0.9009 -0.7093 -0.2296
17327SOL    HW164040   0.176   2.662   2.199 -2.0855 -0.4664  0.0424
17327SOL    HW264041   0.254   2.752   2.310 -1.5955 -0.2119 -0.4998
17328SOL     OW64042   8.678   8.385   5.589  0.3381 -0.5307  0.3133
17328SOL    HW164043   8.694   8.329   5.507 -0.5413 -0.9308  0.4019
17328SOL    HW264044   8.646   8.326   5.663  0.3496 -0.0468  0.7063
17329SOL     OW64045   5.595   0.322   1.327  0.7498 -0.0786  0.3357
17329SOL    HW164046   5.536   0.386   1.279 -1.1650 -0.4200  2.1774
17329SOL    HW264047   5.689   0.330   1.292 -0.1784  1.1121 -1.9744
17330SOL     OW64048   6.858   1.419   1.138  0.0084  0.1674 -0.2983
17330SOL    HW164049   6.936   1.418   1.201  0.4004 -1.0120 -0.7909
17330SOL    HW264050   6.892   1.435   1.045 -0.4829  1.0219 -0.3359
17331SOL     OW64051   7.625   7.944   1.589  0.2942  0.1131 -0.2665
17331SOL    HW164052   7.682   8.025   1.606  2.5934 -0.7638 -3.3254
17331SOL    HW264053   7.557   7.965   1.519 -0.2232 -0.1382  0.1545
17332SOL     OW64054   5.147   0.367   5.830 -0.0630 -0.0822 -0.1172
17332SOL    HW164055   5.064   0.312   5.824 -1.7567  2.2871  0.7376
17332SOL    HW264056   5.226   0.307   5.843 -1.9866 -2.2410  2.2880
17333SOL     OW64057   1.692   7.627   4.658  0.3968 -0.2349  0.3639
17333SOL    HW164058   1.778   7.588   4.627  0.9097 -0.8761  2.5364
17333SOL    HW264059   1.710   7.696   4.729 -0.6479  2.2753 -1.6996
17334SOL     OW64060   9.358   7.603   5.818 -0.7192  0.1509 -0.3458
17334SOL    HW164061   9.271   7.591   5.769 -0.2785 -0.0656 -1.0830
17334SOL    HW264062   9.396   7.513   5.838 -0.2759  0.2566 -0.7214
17335SOL     OW64063   8.948   3.175   5.443  0.5869 -0.5248 -0.4147
17335SOL    HW164064   9.004   3.132   5.372  0.3423 -0.5225 -0.6104
17335SOL    HW264065   8.888   3.243   5.401  0.5735 -0.3930 -0.1813
17336SOL     OW64066   7.436   9.239   6.693  0.3952  0.6137 -0.0530
17336SOL    HW164067   7.400   9.158   6.646  1.5145  0.7050 -1.0965
17336SOL    HW264068   7.361   9.292   6.731 -0.3483 -0.9947  0.7824
17337SOL     OW64069   2.995   9.478   0.728  0.0152 -0.2091 -0.1637
17337SOL    HW164070   2.903   9.442   0.712  0.1898 -1.3576  1.3220
17337SOL    HW264071   3.061   9.402   0.724  0.7923  0.4672 -0.3111
17338SOL     OW64072   2.526   1.546   4.627 -0.0694 -0.4740  0.3413
17338SOL    HW164073   2.583   1.611   4.677  1.7153 -1.5100 -0.3146
17338SOL    HW264074   2.581   1.466   4.602 -2.3512 -2.5211  1.6502
17339SOL     OW64075   6.919   2.806   2.923 -0.0178  0.0255 -0.5749
17339SOL    HW164076   6.873   2.781   3.009  0.0727  1.4197 -0.1053
17339SOL    HW264077   6.883   2.894   2.891  1.0567  0.2709 -1.1333
17340SOL     OW64078   7.802   4.470   8.471  0.1120  0.6731 -0.4476
17340SOL    HW164079   7.839   4.466   8.378  3.9347  2.2545  0.9553
17340SOL    HW264080   7.786   4.565   8.497 -0.1955  0.2783  0.8264
17341SOL     OW64081   8.037   3.551   9.050 -0.1810 -0.0102 -0.6233
17341SOL    HW164082   8.068   3.489   8.978 -0.4626 -0.8443 -0.0360
17341SOL    HW264083   8.115   3.590   9.098 -0.0031 -0.0420 -0.8916
17342SOL     OW64084   8.182   8.962   4.321  0.3388 -0.7924  0.3807
17342SOL    HW164085   8.270   8.916   4.313  0.6756 -0.1342  0.2636
17342SOL    HW264086   8.139   8.936   4.408  1.0642 -0.4044  0.8683
17343SOL     OW64087   8.121   2.624   0.359 -0.4700  0.4838 -0.0207
17343SOL    HW164088   8.073   2.541   0.330  1.1057 -1.0757  1.7389
17343SOL    HW264089   8.054   2.694   0.385 -1.8475 -1.7605  2.6867
17344SOL     OW64090   5.243   4.441   5.819 -0.2732  0.0599  0.2904
17344SOL    HW164091   5.341   4.427   5.806 -0.1818  0.5886  0.3740
17344SOL    HW264092   5.199   4.456   5.731 -0.0567  1.1632  0.3594
17345SOL     OW64093   8.373   0.815   6.435 -0.6934 -0.0205  0.7460
17345SOL    HW164094   8.443   0.756   6.476  1.2881  1.9306  0.2969
17345SOL    HW264095   8.368   0.901   6.487 -3.2041 -0.3862  1.1247
17346SOL     OW64096   2.234   9.240   3.144 -0.4083  0.3643 -0.3846
17346SOL    HW164097   2.167   9.288   3.201 -0.3659 -0.1532  0.1084
17346SOL    HW264098   2.233   9.278   3.052 -1.7217  0.0465 -0.5098
17347SOL     OW64099   8.912   3.837   4.246 -0.1119 -0.5735 -0.0791
17347SOL    HW164100   8.922   3.833   4.147 -0.1811  2.3519 -0.2456
17347SOL    HW264101   8.998   3.865   4.288 -0.7536  0.6235  0.4678
17348SOL     OW64102   8.949   4.048   2.994  0.4612 -0.1226 -0.0204
17348SOL    HW164103   8.950   3.949   2.980  1.1752 -0.2382  0.8081
17348SOL    HW264104   8.891   4.091   2.924  1.3997 -0.9657 -1.3360
17349SOL     OW64105   9.289   1.313   6.327 -0.0707 -0.1994  0.0081
17349SOL    HW164106   9.304   1.376   6.250 -1.2255 -2.4640 -2.1505
17349SOL    HW264107   9.207   1.340   6.376 -0.1849  0.3810 -0.4939
17350SOL     OW64108   9.418   1.996   2.974 -0.0361 -0.0076 -0.8765
17350SOL    HW164109   9.380   1.914   2.931 -2.0234  0.9547 -1.0072
17350SOL    HW264110   9.387   2.001   3.069  1.4478 -0.2661 -0.3635
17351SOL     OW64111   7.205   0.889   5.297  0.2158  0.2078 -0.4601
17351SOL    HW164112   7.127   0.926   5.348  0.5977  0.3090  0.0571
17351SOL    HW264113   7.285   0.947   5.311  0.2406  0.4353 -1.4723
17352SOL     OW64114   8.573   3.130   4.364 -0.0894 -0.3352  0.1055
17352SOL    HW164115   8.635   3.105   4.290 -0.0697 -2.8682  0.9560
17352SOL    HW264116   8.620   3.191   4.427  0.4554  0.4276 -1.0111
17353SOL     OW64117   0.577   7.908   7.301  0.5758 -0.4137 -0.0611
17353SOL    HW164118   0.531   7.913   7.213  1.0278  0.6208 -0.2545
17353SOL    HW264119   0.668   7.950   7.293 -0.4093  2.1723  1.5254
17354SOL     OW64120   5.524   1.029   9.331  0.1136 -0.1733  0.0292
17354SOL    HW164121   5.534   1.101   9.399 -0.7395 -1.7493  1.8888
17354SOL    HW264122   5.615   0.998   9.301  0.5162 -0.2977  1.3718
17355SOL     OW64123   8.438   1.193   2.468  0.4592  0.1162 -0.6234
17355SOL    HW164124   8.521   1.150   2.503 -0.6345  0.9823  3.2889
17355SOL    HW264125   8.367   1.123   2.455  0.5914 -0.0935 -0.2225
17356SOL     OW64126   8.387   1.528   4.614 -0.3118  0.0842  0.0733
17356SOL    HW164127   8.465   1.467   4.605 -0.0301  0.6418 -1.2993
17356SOL    HW264128   8.314   1.499   4.552 -0.6948  0.3372  0.4031
17357SOL     OW64129   4.353   3.445   1.783  0.1827  0.2733  0.0656
17357SOL    HW164130   4.328   3.386   1.706 -1.3521  0.4553  0.4033
17357SOL    HW264131   4.408   3.393   1.849  0.9579 -0.0642 -0.8336
17358SOL     OW64132   2.096   1.574   0.998  0.4751 -0.1732 -0.9130
17358SOL    HW164133   2.029   1.604   1.065  0.0647  0.6477 -1.6898
17358SOL    HW264134   2.118   1.477   1.014  1.2288  0.3039  1.1020
17359SOL     OW64135   5.552   3.930   3.590 -0.5709 -0.4273 -0.1154
17359SOL    HW164136   5.612   3.853   3.608 -1.5019 -0.7511  1.6502
17359SOL    HW264137   5.575   4.006   3.652 -0.5359  0.2460 -0.9368
17360SOL     OW64138   4.280   3.330   2.803  0.0017  0.0437 -0.6801
17360SOL    HW164139   4.294   3.370   2.712  1.2551 -2.1875 -1.4892
17360SOL    HW264140   4.183   3.305   2.814 -0.1919  0.5037 -1.3171
17361SOL     OW64141   3.909   4.226   9.433 -0.0774 -0.1975  0.5747
17361SOL    HW164142   3.877   4.142   9.390 -2.5256  0.8026  0.3454
17361SOL    HW264143   3.931   4.294   9.362 -1.6880  0.5919  0.7998
17362SOL     OW64144   6.246   2.758   6.355 -0.6543 -0.6585  0.0777
17362SOL    HW164145   6.247   2.800   6.446 -0.0978  1.2318 -0.7655
17362SOL    HW264146   6.294   2.670   6.358  0.8893  0.1997  1.2556
17363SOL     OW64147   7.411   0.148   4.496 -0.2785 -0.0042  0.2832
17363SOL    HW164148   7.349   0.212   4.541  1.4100  1.4904  0.5656
17363SOL    HW264149   7.389   0.055   4.524 -2.4441  0.4713  0.2767
17364SOL     OW64150   7.447   2.362   3.700  0.3705  0.2516  0.0362
17364SOL    HW164151   7.503   2.434   3.741 -0.1259  0.6570 -0.0061
17364SOL    HW264152   7.487   2.334   3.613 -0.5930  1.9465 -0.9762
17365SOL     OW64153   3.520   8.849   4.818  0.1792 -0.9300  0.2382
17365SOL    HW164154   3.441   8.815   4.767 -0.4580 -0.7854  1.1173
17365SOL    HW264155   3.586   8.889   4.755 -1.6086  1.2628 -0.2800
17366SOL     OW64156   1.845   6.673   5.350 -0.2118 -0.0009 -0.3326
17366SOL    HW164157   1.780   6.607   5.387  0.8514  0.1410  1.8969
17366SOL    HW264158   1.818   6.765   5.377 -0.1105  0.2267 -0.9944
17367SOL     OW64159   3.576   3.453   5.204  0.1334 -0.0623 -0.5893
17367SOL    HW164160   3.637   3.381   5.170 -0.2014  0.1265 -1.6056
17367SOL    HW264161   3.523   3.490   5.128 -0.7704  0.2394  0.1820
17368SOL     OW64162   0.443   5.190   3.115  0.0789 -0.1700  0.5793
17368SOL    HW164163   0.388   5.272   3.102  0.3184 -0.0132  0.5545
17368SOL    HW264164   0.503   5.177   3.036  0.2587 -0.2034  0.7220
17369SOL     OW64165   9.924   7.051   2.601 -0.1769  0.0703 -0.0146
17369SOL    HW164166   9.969   7.117   2.540 -0.7882  0.2203 -0.3062
17369SOL    HW264167   9.979   6.968   2.607  1.0651  0.9434  1.0675
17370SOL     OW64168   8.553   3.760   5.512  0.5008  0.2462 -0.6805
17370SOL    HW164169   8.588   3.711   5.432  1.7373 -2.1720  1.2946
17370SOL    HW264170   8.490   3.701   5.562 -0.4930  1.8509  0.0005
17371SOL     OW64171   7.608   2.463   4.644  0.4936  0.4714 -0.2347
17371SOL    HW164172   7.534   2.429   4.701  2.2501 -1.4691  0.9850
17371SOL    HW264173   7.578   2.466   4.548 -0.9103 -1.0137  0.1426
17372SOL     OW64174   2.978   8.468   6.501  0.7116  0.3013 -0.2969
17372SOL    HW164175   3.069   8.468   6.460  0.7198  2.1301 -0.3292
17372SOL    HW264176   2.985   8.488   6.599  0.3847 -0.0840 -0.1931
17373SOL     OW64177   9.187   1.007   7.380  0.1215  0.1827  0.1388
17373SOL    HW164178   9.192   0.909   7.399  3.6163  0.5285  1.3080
17373SOL    HW264179   9.175   1.057   7.465 -0.8638  0.8266 -0.3713
17374SOL     OW64180   7.165   0.087   1.041 -0.6888  0.2106 -0.0417
17374SOL    HW164181   7.260   0.058   1.054 -0.6598  0.0757 -0.5201
17374SOL    HW264182   7.161   0.156   0.969 -0.7373  1.5428  1.2166
17375SOL     OW64183   7.047   2.300   7.979 -0.1384 -0.1063 -0.0620
17375SOL    HW164184   6.992   2.218   7.960  0.9065 -0.9814  0.5991
17375SOL    HW264185   7.047   2.318   8.077  1.9275 -1.0071  0.1504
17376SOL     OW64186   5.521   8.785   6.777  0.0588  0.5084  0.2762
17376SOL    HW164187   5.560   8.859   6.722  2.1397 -0.2657  0.6352
17376SOL    HW264188   5.460   8.729   6.721  1.4289  0.2678 -1.0015
17377SOL     OW64189   8.526   1.093   0.716 -0.0457 -0.3933 -0.5747
17377SOL    HW164190   8.598   1.041   0.669 -1.7776 -1.8293 -1.7004
17377SOL    HW264191   8.447   1.102   0.656 -0.9173  0.9542  0.7511
17378SOL     OW64192   9.386   0.089   2.252 -0.6403  0.0541  0.0829
17378SOL    HW164193   9.436   0.156   2.306  0.0687 -1.4903  1.3845
17378SOL    HW264194   9.434   0.074   2.165 -1.0085  1.4824 -0.3745
17379SOL     OW64195   7.106   8.122   0.396 -0.4280  0.3841 -1.1050
17379SOL    HW164196   7.164   8.049   0.359  1.8211  1.4522  0.2113
17379SOL    HW264197   7.163   8.194   0.435 -2.6431  0.9482  1.2980
17380SOL     OW64198   4.626   6.953   8.716 -0.1242  0.1825 -0.3574
17380SOL    HW164199   4.641   7.051   8.706 -0.6836  0.1541 -1.5668
17380SOL    HW264200   4.649   6.925   8.810 -0.6114  1.5790  0.1910
17381SOL     OW64201   0.252   3.563   3.346  0.1166 -0.1943  0.2569
17381SOL    HW164202   0.190   3.640   3.358  0.4831 -0.0573  1.3547
17381SOL    HW264203   0.207   3.492   3.292  0.0474  1.0858 -1.3879
17382SOL     OW64204   7.565   5.833   0.211 -0.3218  0.2056  0.1023
17382SOL    HW164205   7.508   5.776   0.152 -1.1144 -0.2352  1.2724
17382SOL    HW264206   7.559   5.928   0.181 -2.1459  0.2484  0.5565
17383SOL     OW64207   0.085   0.599   5.377  0.3312 -0.0241 -0.3486
17383SOL    HW164208   0.068   0.501   5.366  0.9276 -0.1950  0.2469
17383SOL    HW264209   0.054   0.647   5.295 -0.8366 -0.5975 -0.2494
17384SOL     OW64210   9.762   2.497   9.809 -0.0105  0.2772  0.7624
17384SOL    HW164211   9.701   2.464   9.736  0.7663  1.2349 -0.3494
17384SOL    HW264212   9.775   2.425   9.876 -0.5913 -0.7068 -0.1521
17385SOL     OW64213   4.186   4.938   7.889 -0.2663  0.0535  0.2746
17385SOL    HW164214   4.129   5.012   7.855 -2.7631 -0.9401  2.0999
17385SOL    HW264215   4.199   4.870   7.817 -2.1574 -0.1340  0.0830
17386SOL     OW64216   1.853   1.929   5.433  0.2547 -0.0832  0.2446
17386SOL    HW164217   1.872   2.002   5.499  0.3085  0.7584 -0.6906
17386SOL    HW264218   1.893   1.953   5.344 -0.4664 -0.8578 -0.2952
17387SOL     OW64219   6.491   9.759   7.224  0.2081  0.4707 -1.1234
17387SOL    HW164220   6.524   9.693   7.157 -0.7512 -1.8713  0.6728
17387SOL    HW264221   6.546   9.754   7.307 -0.6003  1.1213 -0.5353
17388SOL     OW64222   0.673   7.544   6.202  0.0815  0.5733 -0.7473
17388SOL    HW164223   0.654   7.459   6.153  2.1616  0.1089 -0.8155
17388SOL    HW264224   0.735   7.525   6.278 -0.4818  1.8244  0.0322
17389SOL     OW64225   6.133   0.695   1.286 -0.2176 -0.3095 -0.6986
17389SOL    HW164226   6.043   0.675   1.248 -0.6449 -0.3238  0.3024
17389SOL    HW264227   6.203   0.645   1.235 -0.7919 -0.4185 -1.3779
17390SOL     OW64228   5.289   6.658   3.248  0.5176  0.4579  0.3005
17390SOL    HW164229   5.284   6.758   3.256  0.5557  0.4817  0.0203
17390SOL    HW264230   5.368   6.624   3.300  0.9660  0.6467 -0.2596
17391SOL     OW64231   9.557   0.189   3.796  0.0552 -0.2172 -0.0259
17391SOL    HW164232   9.622   0.179   3.871  0.6835  0.8123 -0.4325
17391SOL    HW264233   9.470   0.223   3.833  0.7657  1.5327  0.0660
17392SOL     OW64234   4.849   1.504   8.008  0.2092  1.0573 -0.2137
17392SOL    HW164235   4.876   1.485   7.913 -1.4908  0.1194 -0.5349
17392SOL    HW264236   4.796   1.588   8.011 -1.1481  0.2167 -0.3544
17393SOL     OW64237   2.776   4.352   4.445  0.4210 -0.0956  0.2823
17393SOL    HW164238   2.853   4.374   4.504  0.2363 -0.0802  0.5209
17393SOL    HW264239   2.691   4.382   4.489  0.2117 -0.8015  0.3717
17394SOL     OW64240   7.278   3.795   3.862 -0.3396  0.2211 -0.2689
17394SOL    HW164241   7.181   3.785   3.887 -0.2101  0.4706  0.3545
17394SOL    HW264242   7.285   3.848   3.778 -0.6663  2.0109  0.8019
17395SOL     OW64243   0.979   7.081   2.335  0.1684 -0.5158 -0.0345
17395SOL    HW164244   0.912   7.010   2.312  1.3279 -1.7001  0.2213
17395SOL    HW264245   1.012   7.124   2.251 -0.7839 -0.0318 -0.1705
17396SOL     OW64246   7.572   3.321   4.648  0.2339  0.0970  0.4201
17396SOL    HW164247   7.495   3.314   4.711 -0.0575 -1.9724 -0.1203
17396SOL    HW264248   7.634   3.243   4.663  1.0999  0.5729 -0.6103
17397SOL     OW64249   7.758   7.950   5.133 -0.4232 -0.0189 -0.5584
17397SOL    HW164250   7.670   7.913   5.102 -0.7768 -0.2912  0.7203
17397SOL    HW264251   7.822   7.875   5.147 -0.6257 -0.0060  0.4574
17398SOL     OW64252   7.635   2.417   5.762 -0.0408 -0.0114  0.3497
17398SOL    HW164253   7.726   2.376   5.752  0.7472  1.1979  2.2955
17398SOL    HW264254   7.623   2.487   5.692 -1.3694 -3.3842 -2.9573
17399SOL     OW64255   3.285   9.746   0.986 -0.0060  0.1792 -0.8056
17399SOL    HW164256   3.194   9.788   0.985  0.0586  0.3896 -4.4163
17399SOL    HW264257   3.354   9.817   0.993 -0.0524  0.1397  0.1428
17400SOL     OW64258   8.996   3.243   5.085 -0.3200  0.4375 -0.1764
17400SOL    HW164259   8.971   3.283   4.998 -0.4529 -0.7677 -0.7025
17400SOL    HW264260   8.941   3.161   5.102 -0.3897  0.7301  1.0961
17401SOL     OW64261   7.790   6.144   5.609 -0.5315 -0.2920 -0.0128
17401SOL    HW164262   7.713   6.096   5.569  0.2761 -2.3561  0.8309
17401SOL    HW264263   7.792   6.129   5.708  0.8035 -0.0453  0.0111
17402SOL     OW64264   5.862   9.206   2.462 -0.4811  0.1559 -0.7475
17402SOL    HW164265   5.811   9.122   2.482  1.8482 -1.0955  0.0285
17402SOL    HW264266   5.855   9.227   2.364  0.4329 -1.9540 -1.2860
17403SOL     OW64267   0.948   1.135   6.297 -0.1603  0.3403  0.3827
17403SOL    HW164268   1.003   1.102   6.374 -0.8579 -0.7326  0.4287
17403SOL    HW264269   0.960   1.074   6.219 -1.0363  0.2777  0.2918
17404SOL     OW64270   5.157   8.001   9.136  0.2758 -0.4498 -0.0175
17404SOL    HW164271   5.072   8.001   9.083 -0.1604  1.3463  0.6350
17404SOL    HW264272   5.135   8.003   9.234  1.0520  0.5088  0.1442
17405SOL     OW64273   5.592   4.508   1.302 -0.3347 -0.2318  0.0812
17405SOL    HW164274   5.626   4.601   1.316 -1.3231  0.0689  0.5382
17405SOL    HW264275   5.666   4.450   1.269  0.9335  0.1463  2.1425
17406SOL     OW64276   0.392   5.109   1.525 -0.7217  0.2203  0.2803
17406SOL    HW164277   0.329   5.058   1.467 -0.7241 -0.3611  0.7948
17406SOL    HW264278   0.348   5.194   1.555 -0.5805  0.7058 -0.8751
17407SOL     OW64279   3.674   9.822   3.990 -0.1878  0.3490  0.2103
17407SOL    HW164280   3.673   9.728   4.026 -1.4737 -0.1535 -1.0606
17407SOL    HW264281   3.652   9.886   4.064 -0.1392 -0.4312  0.9124
17408SOL     OW64282   4.850   2.086   7.873  0.1201  0.1735  0.2055
17408SOL    HW164283   4.897   2.118   7.955  0.4923 -0.7191  0.3370
17408SOL    HW264284   4.752   2.076   7.893  0.2726 -0.4569  0.6704
17409SOL     OW64285   1.001   0.467   3.779 -0.2723  0.0768 -0.4345
17409SOL    HW164286   0.934   0.395   3.794 -1.2831  1.0304 -0.3354
17409SOL    HW264287   1.091   0.436   3.809 -0.5254 -1.4757 -1.2568
17410SOL     OW64288   5.796   5.697   1.026 -0.1193  0.3681  0.4368
17410SOL    HW164289   5.894   5.705   1.045  0.0456  2.1597 -0.9733
17410SOL    HW264290   5.757   5.788   1.012 -1.8458 -0.3721  0.2837
17411SOL     OW64291   1.353   4.377   6.062  0.4793 -0.0526  0.0581
17411SOL    HW164292   1.272   4.435   6.061  0.6459  0.1865  0.5407
17411SOL    HW264293   1.364   4.337   6.153 -1.2173 -3.0432 -0.9709
17412SOL     OW64294   2.469   0.285   5.363 -0.8489  0.2383 -0.0761
17412SOL    HW164295   2.398   0.217   5.382 -0.0685 -0.5364  0.0799
17412SOL    HW264296   2.497   0.277   5.268  0.4827 -0.8504  0.3884
17413SOL     OW64297   8.317   3.092   3.008 -0.2296  0.3139  0.0302
17413SOL    HW164298   8.252   3.154   2.965 -1.6271  0.8544  2.8278
17413SOL    HW264299   8.403   3.140   3.027 -0.4007  0.6828 -0.1328
17414SOL     OW64300   6.020   3.679   2.619 -0.4876  0.2316  0.2284
17414SOL    HW164301   5.957   3.741   2.666  0.0801  0.5510  0.5677
17414SOL    HW264302   6.023   3.591   2.667  0.8675  0.8984  1.3932
17415SOL     OW64303   0.189   1.162   4.538 -0.0535  0.0150  0.7412
17415SOL    HW164304   0.226   1.247   4.574 -0.1071  0.7325 -0.8406
17415SOL    HW264305   0.156   1.177   4.445 -1.2500 -1.4239  0.9096
17416SOL     OW64306   8.035   5.203   8.236  0.2453 -0.2349  0.7452
17416SOL    HW164307   7.953   5.240   8.281  0.7819 -0.1091  1.6201
17416SOL    HW264308   8.008   5.156   8.153 -0.3935  2.9432 -0.9538
17417SOL     OW64309   6.842   9.082   1.125 -0.0849 -0.6038  0.5191
17417SOL    HW164310   6.759   9.032   1.149  0.2780 -0.7380  1.5475
17417SOL    HW264311   6.823   9.180   1.123 -0.5104 -0.6976 -0.2965
17418SOL     OW64312   7.934   2.872   7.709  0.2136  0.1531  0.2090
17418SOL    HW164313   7.962   2.802   7.775 -0.5667 -0.9934 -0.6594
17418SOL    HW264314   7.835   2.879   7.708  0.3285  2.3088  1.3331
17419SOL     OW64315   8.284   2.597   5.462 -0.2899  0.0079  0.1637
17419SOL    HW164316   8.203   2.653   5.447 -0.3636 -0.3049 -0.6625
17419SOL    HW264317   8.305   2.592   5.560 -1.6368 -0.4387  0.4279
17420SOL     OW64318   8.366   7.531   4.615 -0.0978  0.4244 -0.0767
17420SOL    HW164319   8.281   7.545   4.565 -0.3101  0.8337  0.4056
17420SOL    HW264320   8.442   7.569   4.562 -0.3287  0.8899 -0.0745
17421SOL     OW64321   5.279   3.645   5.152  0.2769  0.3733 -0.1466
17421SOL    HW164322   5.228   3.679   5.072  1.1587  1.2095 -0.3596
17421SOL    HW264323   5.353   3.585   5.121 -1.2455 -1.7704  0.2233
17422SOL     OW64324   0.064   2.587   5.187  0.0907  0.3073 -0.6228
17422SOL    HW164325   0.056   2.670   5.131  0.7698  1.2851  0.7048
17422SOL    HW264326   0.003   2.594   5.265  0.9322  0.0314  0.0679
17423SOL     OW64327   1.061   5.923   2.999 -0.3606 -0.5150  0.5113
17423SOL    HW164328   1.125   5.884   3.065  0.7321 -0.2537 -0.3723
17423SOL    HW264329   1.062   6.023   3.007 -1.0526 -0.5330  0.8517
17424SOL     OW64330   8.108   1.468   3.196  0.1482 -1.0594 -0.3014
17424SOL    HW164331   8.027   1.525   3.204  0.4134 -0.8619  1.1391
17424SOL    HW264332   8.086   1.374   3.223  0.1456 -1.2536 -0.9576
17425SOL     OW64333   7.413   7.086   5.196 -0.2492 -0.0962 -0.3186
17425SOL    HW164334   7.421   6.986   5.204  0.8375  0.0074 -0.0273
17425SOL    HW264335   7.477   7.130   5.258 -1.0760  0.8009 -0.0830
17426SOL     OW64336   9.609   1.647   3.774  0.0736 -0.0806  0.0235
17426SOL    HW164337   9.676   1.602   3.714 -1.7569 -0.8912 -1.4700
17426SOL    HW264338   9.518   1.642   3.732 -1.0884  0.2340  2.4169
17427SOL     OW64339   3.390   6.400   5.277  0.1447  0.2467  0.3390
17427SOL    HW164340   3.302   6.372   5.239  0.3249  0.3444 -0.1590
17427SOL    HW264341   3.394   6.377   5.374  0.0282 -0.8146  0.0957
17428SOL     OW64342   8.532   2.663   3.807  0.0232  0.2089  0.1448
17428SOL    HW164343   8.453   2.698   3.757 -0.1708  0.4798  0.6350
17428SOL    HW264344   8.504   2.641   3.901  0.4533  0.0059  0.2242
17429SOL     OW64345   2.594   0.239   3.717 -0.0430 -0.7925  0.1708
17429SOL    HW164346   2.533   0.230   3.639 -0.5035  2.4894  0.1029
17429SOL    HW264347   2.562   0.181   3.792 -1.4969 -1.3853 -0.9077
17430SOL     OW64348   7.697   9.348   6.757  0.0395 -0.2596  0.0416
17430SOL    HW164349   7.614   9.300   6.730 -0.1997  1.1096 -1.6835
17430SOL    HW264350   7.681   9.446   6.757  1.8150  0.0490 -0.8513
17431SOL     OW64351   6.128   9.842   4.542 -0.1988  0.3105 -0.6560
17431SOL    HW164352   6.198   9.772   4.526 -0.3227  0.4753 -2.0348
17431SOL    HW264353   6.051   9.801   4.590 -1.1939 -1.0773 -3.2697
17432SOL     OW64354   7.737   7.911   6.035  0.1539  0.3077 -0.1635
17432SOL    HW164355   7.650   7.951   6.006  0.4283  1.0355 -0.0064
17432SOL    HW264356   7.767   7.842   5.969  0.6143  1.7138 -1.4481
17433SOL     OW64357   0.819   3.288   2.542  0.0625  0.5379 -0.1237
17433SOL    HW164358   0.889   3.217   2.534  0.2064  0.7311 -0.6032
17433SOL    HW264359   0.856   3.375   2.510  0.7796  1.4520  3.0307
17434SOL     OW64360   6.988   2.294   0.889  0.2577  0.3485 -0.0200
17434SOL    HW164361   7.073   2.258   0.928  0.8652  1.2567 -0.4843
17434SOL    HW264362   6.982   2.268   0.792 -1.2157 -1.8456  0.6221
17435SOL     OW64363   5.630   5.467   1.147 -0.6213  0.4048  0.2209
17435SOL    HW164364   5.659   5.548   1.095  1.6008 -0.4238  0.1015
17435SOL    HW264365   5.657   5.478   1.243  1.4682 -0.9920 -0.1659
17436SOL     OW64366   2.050   2.092   4.666  0.9701  0.1714  0.2877
17436SOL    HW164367   2.083   2.089   4.572 -0.8848 -0.4868 -0.3718
17436SOL    HW264368   2.100   2.025   4.721 -0.4252 -2.0566 -1.0895
17437SOL     OW64369   8.135   9.828   7.752  0.1879  0.1072  0.0355
17437SOL    HW164370   8.207   9.853   7.818 -0.1973  1.8609 -0.1813
17437SOL    HW264371   8.046   9.852   7.790 -0.0262  1.2612 -1.1774
17438SOL     OW64372   5.187   8.336   4.359  0.9429 -0.5625 -0.1616
17438SOL    HW164373   5.192   8.332   4.459  0.1512  1.3517 -0.0415
17438SOL    HW264374   5.278   8.349   4.321  0.7038  3.7437  0.5777
17439SOL     OW64375   1.774   4.519   4.868  0.7237 -0.3416 -0.0708
17439SOL    HW164376   1.754   4.595   4.931 -2.3406 -0.5516 -0.7142
17439SOL    HW264377   1.788   4.555   4.776 -0.0031 -0.4681 -0.2363
17440SOL     OW64378   6.793   3.773   2.277  0.3055 -0.3762 -0.2883
17440SOL    HW164379   6.781   3.782   2.178  0.3731 -0.1743 -0.2784
17440SOL    HW264380   6.846   3.691   2.297 -0.3317 -0.8178 -0.3792
17441SOL     OW64381   7.027   8.618   5.259 -0.2211 -0.0334 -0.1572
17441SOL    HW164382   7.055   8.680   5.333  0.7162  0.6892 -1.0967
17441SOL    HW264383   6.951   8.658   5.209 -0.6838 -0.4013  0.2492
17442SOL     OW64384   7.353   2.652   2.968  0.9482  0.2983  0.1222
17442SOL    HW164385   7.319   2.558   2.958  1.2731  0.1791  0.1369
17442SOL    HW264386   7.298   2.713   2.912  1.2568 -0.0244 -0.5390
17443SOL     OW64387   8.513   3.143   1.389 -0.2009  0.8020 -0.1343
17443SOL    HW164388   8.588   3.170   1.450  0.6900  2.3594 -1.8523
17443SOL    HW264389   8.426   3.152   1.437  0.5744  0.6027  1.3531
17444SOL     OW64390   6.475   9.999   6.567 -0.0327  0.4514 -0.2683
17444SOL    HW164391   6.437   9.930   6.629  1.3787  0.7708  0.9845
17444SOL    HW264392   6.518   9.954   6.488  0.7551 -0.1119  0.4711
17445SOL     OW64393   9.431   4.351   2.240 -0.1169 -0.0406 -0.2920
17445SOL    HW164394   9.402   4.389   2.328 -0.7304  1.2075 -1.0068
17445SOL    HW264395   9.406   4.415   2.167  0.9800 -0.7521 -1.3068
17446SOL     OW64396   8.272   3.059   4.859 -0.0871 -0.4878  0.2749
17446SOL    HW164397   8.213   3.008   4.797 -1.1064  1.2191 -0.1788
17446SOL    HW264398   8.330   2.995   4.909  0.4446 -1.9183 -2.1018
17447SOL     OW64399   5.238   2.235   3.305 -0.1987 -0.6449 -0.0877
17447SOL    HW164400   5.224   2.328   3.340  0.1658 -0.8095  0.5047
17447SOL    HW264401   5.229   2.170   3.380 -0.6115 -1.1038 -0.5333
17448SOL     OW64402   8.561   7.196   3.585 -0.8775  0.5196 -0.3915
17448SOL    HW164403   8.649   7.152   3.570 -1.0044  0.0362  0.2470
17448SOL    HW264404   8.556   7.281   3.533  0.3437  1.0518  0.3673
17449SOL     OW64405   7.160   9.291   7.851 -0.2581  0.4674 -0.5349
17449SOL    HW164406   7.218   9.371   7.868  1.7834 -1.0616 -0.1601
17449SOL    HW264407   7.105   9.271   7.932  0.1746  0.7238 -0.1791
17450SOL     OW64408   8.157   5.275   1.913  0.4828 -0.2766 -0.3019
17450SOL    HW164409   8.191   5.182   1.901  0.4359 -0.4095  0.5784
17450SOL    HW264410   8.231   5.335   1.943  0.1904 -0.3408  0.5580
17451SOL     OW64411   9.108   9.909   4.212 -0.3358  0.7941  0.0232
17451SOL    HW164412   9.121   9.832   4.274 -2.2243  1.2891  1.0796
17451SOL    HW264413   9.085   9.875   4.121  1.8873  0.0757 -0.3091
17452SOL     OW64414   4.504   3.807   7.995 -0.6723 -0.2805  0.0840
17452SOL    HW164415   4.558   3.890   8.013  0.8681 -1.3102  0.3321
17452SOL    HW264416   4.559   3.726   8.017 -2.6718 -1.3565  1.2758
17453SOL     OW64417   5.326   0.416   0.329  0.2045  0.2694 -0.5008
17453SOL    HW164418   5.265   0.495   0.335 -1.0185 -0.6061 -1.1824
17453SOL    HW264419   5.383   0.411   0.412 -0.9283  0.8657  0.3238
17454SOL     OW64420   9.347   3.062   4.381 -0.0448 -0.0611 -0.4026
17454SOL    HW164421   9.277   3.124   4.346  0.9014  0.0467 -2.1366
17454SOL    HW264422   9.438   3.099   4.361  0.5307 -1.6362 -0.8074
17455SOL     OW64423   6.511   0.716   9.192 -0.1346  0.1950  0.0810
17455SOL    HW164424   6.597   0.724   9.242  0.2253  0.9268 -0.6408
17455SOL    HW264425   6.446   0.662   9.245  0.3997  0.5661  1.1211
17456SOL     OW64426   4.722   4.849   1.076 -0.5113 -0.3762 -0.1401
17456SOL    HW164427   4.737   4.754   1.105 -1.3771  0.4098  3.1906
17456SOL    HW264428   4.808   4.899   1.082 -0.3991 -0.5591 -0.2215
17457SOL     OW64429   3.904   1.588   0.618 -0.8246 -0.4202  0.1032
17457SOL    HW164430   3.875   1.661   0.680  0.6259 -0.3542  0.7081
17457SOL    HW264431   3.866   1.606   0.527  0.6811  1.9060 -0.1284
17458SOL     OW64432   5.208   4.697   5.911  0.3837  0.2304 -0.4911
17458SOL    HW164433   5.167   4.723   5.999  1.3032  0.4095 -0.1079
17458SOL    HW264434   5.196   4.599   5.896  1.4444 -0.0581  0.4943
17459SOL     OW64435   8.010   2.231   4.459  0.1507 -0.2901 -0.1298
17459SOL    HW164436   8.100   2.187   4.463 -0.1118 -0.7934  0.2719
17459SOL    HW264437   8.020   2.329   4.480  0.1951 -0.9299  3.0725
17460SOL     OW64438   4.735   4.513   4.609 -0.6762  0.4619 -0.0390
17460SOL    HW164439   4.827   4.545   4.629  0.3254 -1.1013 -1.9269
17460SOL    HW264440   4.735   4.461   4.523 -2.9956 -0.9595  0.7416
17461SOL     OW64441   4.775   3.508   0.180 -0.1639 -0.0735  0.3407
17461SOL    HW164442   4.756   3.423   0.131  1.2496 -0.6123  0.7076
17461SOL    HW264443   4.689   3.544   0.217 -0.8773 -0.9723 -0.3898
17462SOL     OW64444   2.125   3.551   3.741  0.8159 -0.0214  0.2719
17462SOL    HW164445   2.148   3.648   3.733  0.2240  0.3571  2.8799
17462SOL    HW264446   2.203   3.501   3.779  0.8960 -0.4679 -0.4686
17463SOL     OW64447   7.586   0.552   3.298 -0.3176  0.1006 -0.6203
17463SOL    HW164448   7.654   0.545   3.372 -1.0969 -2.4985 -0.0865
17463SOL    HW264449   7.497   0.575   3.337 -0.9035 -2.0552 -0.5866
17464SOL     OW64450   9.585   5.181   5.718 -0.2554  0.1205 -0.6592
17464SOL    HW164451   9.641   5.148   5.642  0.4665 -1.5477  0.5398
17464SOL    HW264452   9.490   5.151   5.705  0.0802 -1.0882 -0.3815
17465SOL     OW64453   7.670   4.737   1.357 -0.0419 -0.4499 -0.2315
17465SOL    HW164454   7.583   4.691   1.347 -0.6332  0.0964  1.9447
17465SOL    HW264455   7.743   4.670   1.370 -0.0959 -0.9089 -2.2231
17466SOL     OW64456   3.810   0.839   5.486 -0.3884 -0.4050 -0.2941
17466SOL    HW164457   3.852   0.882   5.565  0.7853  0.2411 -1.2607
17466SOL    HW264458   3.879   0.818   5.418 -1.1715 -2.3490 -0.5382
17467SOL     OW64459   5.516   2.510   1.677 -0.4149 -0.3653 -0.5952
17467SOL    HW164460   5.445   2.579   1.663  0.6796  0.9870  0.4206
17467SOL    HW264461   5.529   2.495   1.775  0.7521 -0.5518 -0.7734
17468SOL     OW64462   6.980   1.067   3.868 -0.5567 -0.0791 -0.4098
17468SOL    HW164463   7.039   1.086   3.946  1.3933  0.7042 -2.0311
17468SOL    HW264464   6.894   1.119   3.877  0.1300  0.8974  0.6346
17469SOL     OW64465   8.993   2.543   5.265  0.1966  0.0483 -0.0963
17469SOL    HW164466   8.904   2.587   5.252  0.2374  0.8708  2.3368
17469SOL    HW264467   9.066   2.606   5.237  0.0590 -0.6806 -2.2358
17470SOL     OW64468   9.848   0.930   6.473  0.1149  0.4764 -0.1852
17470SOL    HW164469   9.899   0.992   6.532  2.7274 -1.9021  0.1102
17470SOL    HW264470   9.750   0.950   6.481  0.6476  2.2564  2.5108
17471SOL     OW64471   9.583   1.044   0.576 -0.0141 -0.2512  0.0421
17471SOL    HW164472   9.504   1.105   0.564  0.2961  0.2762  0.6820
17471SOL    HW264473   9.664   1.085   0.534  0.4066  0.2225  1.3002
17472SOL     OW64474   5.777   4.167   3.367  0.3096  0.3766 -0.5099
17472SOL    HW164475   5.811   4.073   3.365  0.6426  0.4898 -0.0946
17472SOL    HW264476   5.729   4.187   3.281 -0.6959 -0.5151 -0.1607
17473SOL     OW64477   8.173   7.687   3.503  0.0264 -0.4567 -0.1979
17473SOL    HW164478   8.135   7.735   3.581  1.2843 -1.2678  0.9502
17473SOL    HW264479   8.110   7.692   3.425 -2.2564 -1.5170  1.5442
17474SOL     OW64480   2.812   9.026   0.439  0.8948  0.1414 -0.7025
17474SOL    HW164481   2.852   8.934   0.440 -0.3305 -0.3897 -0.5416
17474SOL    HW264482   2.853   9.081   0.512  0.7369 -0.6567 -0.0134
17475SOL     OW64483   9.561   6.381   7.136 -0.1341 -0.4320 -0.3421
17475SOL    HW164484   9.569   6.481   7.141  0.3110 -0.4325 -0.9939
17475SOL    HW264485   9.635   6.344   7.080 -0.6159 -1.0848 -0.5568
17476SOL     OW64486   5.413   5.213   9.765 -0.1057  0.1797 -0.5231
17476SOL    HW164487   5.365   5.167   9.690  0.2970 -0.1136 -0.6049
17476SOL    HW264488   5.380   5.176   9.852 -0.0914  0.0395 -0.5758
17477SOL     OW64489   3.906   1.156   2.334  0.0398 -0.1826  0.1446
17477SOL    HW164490   3.961   1.092   2.388  0.9376  0.0688 -0.4576
17477SOL    HW264491   3.966   1.222   2.289 -0.8366  0.7555  0.3181
17478SOL     OW64492   9.812   2.091   3.920 -0.1249 -0.8642  0.0282
17478SOL    HW164493   9.761   2.151   3.981  0.5722  0.6870 -0.8734
17478SOL    HW264494   9.749   2.045   3.857 -0.5675 -0.2201 -0.0018
17479SOL     OW64495   7.144   1.432   4.303 -0.2462  0.0714 -0.2961
17479SOL    HW164496   7.145   1.465   4.398  0.0381  0.2665 -0.3645
17479SOL    HW264497   7.194   1.345   4.298  0.4701  0.4844 -0.4142
17480SOL     OW64498   2.385   7.663   1.303  0.4697 -0.3287 -0.0097
17480SOL    HW164499   2.298   7.660   1.252  0.5749 -0.9836 -0.1484
17480SOL    HW264500   2.416   7.570   1.321  1.0255 -0.0909  0.2510
17481SOL     OW64501   3.018   2.712   2.740  0.2013 -0.3676 -0.2048
17481SOL    HW164502   2.988   2.639   2.678  1.1928  0.5707 -1.8304
17481SOL    HW264503   2.985   2.800   2.705 -0.1655  0.0669  1.2201
17482SOL     OW64504   8.698   2.237   3.789  0.0593  0.0498 -0.2246
17482SOL    HW164505   8.673   2.256   3.695  0.5002  0.8473 -0.1844
17482SOL    HW264506   8.767   2.303   3.820  0.9499 -1.0590  0.2047
17483SOL     OW64507   9.475   3.818   8.631 -0.3098 -0.2675  0.4482
17483SOL    HW164508   9.528   3.882   8.574 -1.2648  0.0639 -0.0917
17483SOL    HW264509   9.405   3.775   8.574 -0.5875 -0.7305  1.1479
17484SOL     OW64510   7.287   3.779   0.236 -0.3840  0.2109  0.3078
17484SOL    HW164511   7.358   3.727   0.283 -1.0214 -0.9575  0.0033
17484SOL    HW264512   7.207   3.788   0.297 -0.3339  0.7077  0.3036
17485SOL     OW64513   9.367   3.661   3.476  0.4175  0.2438  0.0315
17485SOL    HW164514   9.327   3.570   3.465 -2.3982  1.2799  1.2732
17485SOL    HW264515   9.380   3.702   3.386 -2.5057  0.3366 -0.3998
17486SOL     OW64516   2.168   3.870   4.388 -0.0506  0.1151 -0.0163
17486SOL    HW164517   2.068   3.863   4.388 -0.3092  2.5969  2.4994
17486SOL    HW264518   2.207   3.797   4.443 -0.7287  0.9989  1.6810
17487SOL     OW64519   8.058   1.904   6.954  0.0857 -0.7465  0.1840
17487SOL    HW164520   7.987   1.902   7.025  0.5195 -0.0947  0.6481
17487SOL    HW264521   8.083   1.999   6.935  1.7179 -1.0100  0.9255
17488SOL     OW64522   1.621   1.137   5.842 -0.1024  0.3308  0.0124
17488SOL    HW164523   1.691   1.075   5.876  0.3335  0.9992  0.3542
17488SOL    HW264524   1.664   1.210   5.789 -0.4565  1.1842  0.8855
17489SOL     OW64525   3.655   3.738   3.209  0.2981  0.7614  0.2624
17489SOL    HW164526   3.609   3.714   3.124 -0.4316  0.9211  0.6060
17489SOL    HW264527   3.753   3.744   3.194  0.4301 -1.6850  0.0050
17490SOL     OW64528   3.273   3.344   9.030 -0.0499  0.1875 -0.4663
17490SOL    HW164529   3.342   3.272   9.036  1.0271  1.3023  0.9492
17490SOL    HW264530   3.283   3.393   8.943  2.5490  1.8951  0.7507
17491SOL     OW64531   8.181   2.337   4.764  0.2430 -0.1140  0.0435
17491SOL    HW164532   8.151   2.376   4.678 -0.9720  0.5045  0.7368
17491SOL    HW264533   8.279   2.354   4.775  0.4227 -0.2776 -1.2484
17492SOL     OW64534   0.064   4.537   7.731 -0.2005  0.5457 -0.1693
17492SOL    HW164535   0.036   4.554   7.636  0.5075  0.1520 -0.4487
17492SOL    HW264536   0.047   4.441   7.754  1.1843  0.2293 -0.4336
17493SOL     OW64537   7.614   1.489   0.721 -0.1592 -0.0365 -0.0750
17493SOL    HW164538   7.568   1.465   0.806 -2.7794  1.7608 -0.9052
17493SOL    HW264539   7.549   1.481   0.645  1.1625  1.6815 -1.4289
17494SOL     OW64540   9.275   4.242   5.667 -0.4624  0.1113  0.0825
17494SOL    HW164541   9.341   4.200   5.730 -1.2084 -0.8612  0.2181
17494SOL    HW264542   9.232   4.171   5.611 -3.1338  0.4578  1.6427
17495SOL     OW64543   9.532   1.426   0.322  0.0466 -0.3440  0.2018
17495SOL    HW164544   9.597   1.409   0.248 -0.6711 -0.5816 -0.3736
17495SOL    HW264545   9.447   1.376   0.305  0.5638 -1.9793  2.1696
17496SOL     OW64546   2.274   6.884   5.251 -0.0531  0.1357  0.7480
17496SOL    HW164547   2.241   6.959   5.193 -0.4926 -0.9922 -0.4907
17496SOL    HW264548   2.344   6.919   5.313  1.4033  1.1356 -1.3706
17497SOL     OW64549   4.026   4.461   0.915 -0.2656 -0.0437  0.1310
17497SOL    HW164550   4.070   4.481   1.003  2.4957  0.3483 -1.2868
17497SOL    HW264551   4.012   4.547   0.865 -3.5712 -0.0427  0.8948
17498SOL     OW64552   6.015   1.970   2.847 -0.5153  0.0805 -0.6603
17498SOL    HW164553   5.920   1.951   2.873 -0.4996 -0.3443 -0.9075
17498SOL    HW264554   6.026   2.068   2.834 -0.5316  0.3055  0.8935
17499SOL     OW64555   7.750   3.177   9.839 -0.0250  0.4805 -0.4052
17499SOL    HW164556   7.789   3.236   9.769 -0.1130  2.0550  0.8514
17499SOL    HW264557   7.764   3.218   9.929 -0.5659 -1.1556  0.4463
17500SOL     OW64558   5.426   0.376   3.135 -0.1673 -0.9677  0.0570
17500SOL    HW164559   5.449   0.281   3.157  0.8339 -1.0630 -1.3521
17500SOL    HW264560   5.510   0.427   3.115 -0.9460 -0.7045 -2.7806
17501SOL     OW64561   6.875   0.749   3.616  0.5748  0.1837 -0.1978
17501SOL    HW164562   6.943   0.820   3.632  0.9196 -0.0549 -0.6054
17501SOL    HW264563   6.820   0.772   3.537 -0.5622  0.9331  0.8026
17502SOL     OW64564   3.771   1.928   8.066  0.3867  0.7727  0.1617
17502SOL    HW164565   3.677   1.958   8.049 -0.1476 -1.2033 -0.5070
17502SOL    HW264566   3.793   1.851   8.007  1.5012 -0.5378  2.2176
17503SOL     OW64567   9.461   3.078   0.058 -0.0978  0.2488  0.1388
17503SOL    HW164568   9.542   3.114   0.011  0.0350  0.3099  0.4122
17503SOL    HW264569   9.385   3.074  -0.006  0.4688 -1.0654 -0.4734
17504SOL     OW64570   3.383   3.890   1.775  0.4332 -0.5953 -0.0365
17504SOL    HW164571   3.469   3.928   1.809 -0.0863  1.2840 -0.7746
17504SOL    HW264572   3.346   3.949   1.703 -1.8475 -0.9755  0.7643
17505SOL     OW64573   2.798   3.184   4.133 -0.3039  0.0606 -0.0062
17505SOL    HW164574   2.831   3.243   4.207 -0.0985  0.4828 -0.4340
17505SOL    HW264575   2.711   3.219   4.100  0.0344  0.3870 -0.5621
17506SOL     OW64576   7.934   3.964   2.065 -0.1084  0.4152  0.1419
17506SOL    HW164577   7.935   3.974   2.165  0.6109 -0.7115  0.2522
17506SOL    HW264578   7.972   4.047   2.023 -0.9698  1.1433  0.7713
17507SOL     OW64579   4.529   2.949   1.245  0.5207 -1.0597 -0.1240
17507SOL    HW164580   4.625   2.979   1.248 -0.2605  1.5005  0.1400
17507SOL    HW264581   4.500   2.925   1.338  1.3892 -3.5465 -0.4529
17508SOL     OW64582   9.252   0.765   1.754  0.1508  0.2758  0.7867
17508SOL    HW164583   9.213   0.717   1.833 -1.3396 -1.5633 -1.0276
17508SOL    HW264584   9.337   0.720   1.726 -0.4444 -0.3960  0.0355
17509SOL     OW64585   6.884   3.055   2.715 -0.0163  0.0053 -0.3706
17509SOL    HW164586   6.827   2.985   2.670  0.0624 -2.2703  2.9341
17509SOL    HW264587   6.824   3.121   2.761 -0.0616 -1.1509  1.2707
17510SOL     OW64588   4.514   3.627   3.018  0.0385  0.3353  0.1113
17510SOL    HW164589   4.566   3.638   2.933  0.4327 -0.2794  0.2679
17510SOL    HW264590   4.507   3.715   3.065  1.3727  0.3357  0.3317
17511SOL     OW64591   9.835   3.365   6.941 -0.0785  0.2304  0.0450
17511SOL    HW164592   9.747   3.408   6.920 -1.0083 -0.7685  1.8101
17511SOL    HW264593   9.878   3.335   6.856 -1.7497  0.1394 -0.7958
17512SOL     OW64594   2.225   4.827   6.676 -1.0457 -0.2587  0.1063
17512SOL    HW164595   2.257   4.893   6.608  0.8101 -1.1298  0.0907
17512SOL    HW264596   2.175   4.754   6.630 -0.0312 -0.7037 -0.2971
17513SOL     OW64597   7.818   4.791   6.122 -0.4118 -0.0815 -0.0464
17513SOL    HW164598   7.747   4.861   6.133 -0.0988  0.3755 -0.8932
17513SOL    HW264599   7.897   4.830   6.075 -0.8055 -1.3591 -1.8309
17514SOL     OW64600   7.619   2.066   2.584  0.2192 -0.0693 -0.3504
17514SOL    HW164601   7.693   2.129   2.608  1.4996 -1.5895 -0.2118
17514SOL    HW264602   7.627   1.983   2.641 -2.6708  0.5046  0.9726
17515SOL     OW64603   6.657   1.825   0.336 -0.1204  0.3610  0.3343
17515SOL    HW164604   6.631   1.922   0.328 -0.8600  0.1702  0.3555
17515SOL    HW264605   6.741   1.809   0.285 -0.4177  0.8504 -0.3182
17516SOL     OW64606   8.585   2.634   8.167  0.6741  0.3715 -0.3541
17516SOL    HW164607   8.513   2.692   8.128  1.0598  0.9851 -0.1619
17516SOL    HW264608   8.656   2.619   8.098  1.3221  1.3995  0.0737
17517SOL     OW64609   1.103   3.586   8.037  0.0668 -0.2837  0.5592
17517SOL    HW164610   1.057   3.497   8.041 -1.6572  0.5054 -0.9817
17517SOL    HW264611   1.200   3.573   8.018  0.0688 -1.8768  1.5659
17518SOL     OW64612   8.286   3.416   4.612 -0.2475  0.4683 -0.5178
17518SOL    HW164613   8.215   3.371   4.666 -0.1135  0.7657 -0.0936
17518SOL    HW264614   8.376   3.389   4.646 -0.1646  0.9189 -0.3632
17519SOL     OW64615   8.798   7.480   9.818  0.3442 -0.2339  0.1950
17519SOL    HW164616   8.740   7.429   9.754  0.6575  0.8423 -0.9541
17519SOL    HW264617   8.871   7.419   9.852  0.3274 -0.7381 -0.6584
17520SOL     OW64618   4.866   9.675   7.531 -0.0302 -0.4581 -0.6408
17520SOL    HW164619   4.792   9.736   7.559 -0.4835 -0.1192 -2.5279
17520SOL    HW264620   4.833   9.581   7.530 -0.4006 -0.3276 -1.2942
17521SOL     OW64621   1.022   5.451   7.271 -0.1790 -0.0118 -0.7921
17521SOL    HW164622   1.013   5.490   7.363 -0.9399 -1.8047 -0.0714
17521SOL    HW264623   0.940   5.471   7.218 -0.6182 -0.7324 -0.3861
17522SOL     OW64624   8.622   1.013   9.927  0.1515 -0.6036 -0.1136
17522SOL    HW164625   8.681   1.091   9.946 -0.8393 -0.1807  1.2387
17522SOL    HW264626   8.653   0.969   9.842  0.6136  1.3437 -0.9974
17523SOL     OW64627   6.269   4.853   5.743 -0.0206 -0.4311  0.2184
17523SOL    HW164628   6.285   4.760   5.777  0.4302  0.1536  1.6352
17523SOL    HW264629   6.171   4.873   5.745 -0.1404 -0.9616 -0.3184
17524SOL     OW64630   1.213   6.326   9.076 -0.0552 -0.4563 -0.2183
17524SOL    HW164631   1.160   6.246   9.047  1.0801 -1.4416  0.3565
17524SOL    HW264632   1.221   6.326   9.175  0.6305 -0.0809 -0.2727
17525SOL     OW64633   7.113   6.906   8.146  0.1452 -0.4033  0.2995
17525SOL    HW164634   7.019   6.877   8.129 -0.5078  2.4970 -1.3430
17525SOL    HW264635   7.130   6.909   8.245 -1.9704  0.5286  0.6523
17526SOL     OW64636   5.969   7.261   5.964  1.0581  0.2716 -0.2567
17526SOL    HW164637   5.974   7.312   6.050  1.3701  0.1881 -0.2263
17526SOL    HW264638   5.938   7.168   5.982 -0.2741  0.6682 -0.3990
17527SOL     OW64639   9.003   5.207   2.295  0.4268  0.0581 -0.0873
17527SOL    HW164640   9.058   5.166   2.222 -0.1263  0.4106 -0.7055
17527SOL    HW264641   9.052   5.284   2.336  1.3124 -0.9747  0.8300
17528SOL     OW64642   3.611   0.945   9.703 -0.5119  0.3442  0.0389
17528SOL    HW164643   3.554   0.866   9.679 -0.0422 -0.4355  1.4057
17528SOL    HW264644   3.556   1.011   9.753 -0.5245  0.1704  0.2542
17529SOL     OW64645   0.200   0.654   1.227  0.1312  0.1662 -0.1695
17529SOL    HW164646   0.153   0.742   1.224  2.0089  1.1250 -1.5068
17529SOL    HW264647   0.231   0.636   1.320  0.1713  1.1225 -0.0001
17530SOL     OW64648   6.929   9.704   8.179 -0.0872 -0.3369 -0.2854
17530SOL    HW164649   6.856   9.644   8.213 -0.2116  0.6205  1.1730
17530SOL    HW264650   6.888   9.784   8.135  0.0737 -1.5946 -2.8021
17531SOL     OW64651   9.244   0.273   7.268 -0.3227 -0.2599  0.1534
17531SOL    HW164652   9.337   0.269   7.305 -0.4730  1.7798  0.7942
17531SOL    HW264653   9.194   0.190   7.296  1.6994 -2.0361 -1.3768
17532SOL     OW64654   6.712   9.777   7.391  0.5614 -0.1196  0.5083
17532SOL    HW164655   6.671   9.717   7.459 -1.4251  2.0104  1.2349
17532SOL    HW264656   6.810   9.759   7.385 -0.0956 -4.0294  0.0597
17533SOL     OW64657   3.919   0.352   4.808  0.4921 -0.1443  0.3237
17533SOL    HW164658   4.004   0.396   4.835  0.8499  0.9823 -2.4323
17533SOL    HW264659   3.848   0.421   4.796  0.2592 -0.6271 -1.1737
17534SOL     OW64660   8.648   8.380   2.758  0.4728  0.1507  0.7558
17534SOL    HW164661   8.656   8.463   2.813  0.2268  0.9109 -0.3374
17534SOL    HW264662   8.685   8.397   2.666  0.7961 -1.0736  0.6509
17535SOL     OW64663   8.760   1.662   5.448  0.4091  0.0513 -0.1342
17535SOL    HW164664   8.849   1.664   5.402  0.4193  0.4220 -0.1031
17535SOL    HW264665   8.727   1.756   5.460 -0.9047 -0.1652 -1.9137
17536SOL     OW64666   1.406   2.472   2.688  0.1394 -0.0644 -0.4899
17536SOL    HW164667   1.349   2.425   2.621  0.3084 -0.4723 -0.3521
17536SOL    HW264668   1.349   2.520   2.754 -0.0288  0.3047 -0.8989
17537SOL     OW64669   5.718   8.733   5.449 -0.1451 -0.2200  0.1337
17537SOL    HW164670   5.639   8.752   5.508 -2.1079 -0.3295 -2.3855
17537SOL    HW264671   5.756   8.819   5.416  1.1597 -0.1435  1.7413
17538SOL     OW64672   0.571   2.101   7.990 -0.5496  0.0501  0.4691
17538SOL    HW164673   0.556   2.130   8.085  0.1754  1.9432  0.0368
17538SOL    HW264674   0.665   2.070   7.979 -0.4597  0.3890  0.2516
17539SOL     OW64675   8.506   4.860   6.411  0.0694  0.5784 -0.3785
17539SOL    HW164676   8.486   4.891   6.318  1.9816  2.8404 -0.0746
17539SOL    HW264677   8.428   4.878   6.470 -0.2332  1.3816 -1.0226
17540SOL     OW64678   7.490   0.730   9.672 -0.3417 -0.3103 -1.3115
17540SOL    HW164679   7.568   0.671   9.695 -0.6268 -0.6362 -1.1705
17540SOL    HW264680   7.419   0.675   9.626  0.0022  0.2325 -2.4950
17541SOL     OW64681   3.330   9.975   4.044  0.3024 -0.6107 -0.5756
17541SOL    HW164682   3.283   9.946   3.960  1.7126 -0.2993 -1.4829
17541SOL    HW264683   3.281  10.052   4.085 -0.3121 -0.6752 -1.1747
17542SOL     OW64684   9.131   2.748   9.234  0.0851 -0.0786  0.1990
17542SOL    HW164685   9.043   2.712   9.204 -0.7746  1.7167  0.4948
17542SOL    HW264686   9.117   2.811   9.310  1.4985  1.2509 -0.6131
17543SOL     OW64687   0.801   6.929   4.148 -0.2427 -0.4697  0.1500
17543SOL    HW164688   0.856   6.890   4.074  0.4017  0.4118  0.1589
17543SOL    HW264689   0.734   6.992   4.111 -0.5871 -0.7860  0.2323
17544SOL     OW64690   7.309   1.934   9.826 -0.7463 -0.5662 -0.5009
17544SOL    HW164691   7.377   1.866   9.854 -2.0119 -1.9206 -0.6624
17544SOL    HW264692   7.246   1.952   9.902  0.4485  1.5379  0.0274
17545SOL     OW64693   9.579   5.194   1.524 -0.9124  0.3875  0.7179
17545SOL    HW164694   9.488   5.234   1.532 -1.4166 -0.9257  1.6704
17545SOL    HW264695   9.616   5.176   1.615  0.3843  1.0955  0.3387
17546SOL     OW64696   8.786   8.990   6.847  0.4899  0.0379  0.2855
17546SOL    HW164697   8.853   9.059   6.820 -0.3358  0.8034  0.1784
17546SOL    HW264698   8.694   9.030   6.847  0.3616 -0.1265  3.6025
17547SOL     OW64699   8.104   9.033   4.067  0.0047  0.4371  0.6998
17547SOL    HW164700   8.009   9.064   4.075  0.2831  1.5472 -0.1472
17547SOL    HW264701   8.146   9.031   4.157 -0.6203  0.5957  0.9986
17548SOL     OW64702   7.674   8.704   3.620 -0.4788  0.2643 -0.2602
17548SOL    HW164703   7.660   8.738   3.713 -1.2438 -0.3805 -0.1429
17548SOL    HW264704   7.650   8.776   3.554 -0.6121  0.4772  0.0219
17549SOL     OW64705   0.514   0.416   4.711  0.0992 -0.0256  0.4920
17549SOL    HW164706   0.454   0.337   4.698 -1.9892  1.2968  1.8109
17549SOL    HW264707   0.608   0.390   4.689 -0.8411 -2.3037 -1.0484
17550SOL     OW64708   8.273   3.638   7.660  0.1102 -0.1424  0.2853
17550SOL    HW164709   8.338   3.577   7.705 -0.3480 -1.3260 -0.6133
17550SOL    HW264710   8.181   3.618   7.691  0.0472  0.7290  0.6727
17551SOL     OW64711   3.314   3.956   5.635  0.0522 -0.1013  0.5179
17551SOL    HW164712   3.357   4.045   5.623  0.1770 -0.2520 -0.1568
17551SOL    HW264713   3.214   3.968   5.640  0.0205  0.0026 -0.3116
17552SOL     OW64714   0.506   3.835   8.160 -0.6077  0.2336 -0.1416
17552SOL    HW164715   0.511   3.923   8.112 -0.9932 -0.3914 -1.3278
17552SOL    HW264716   0.571   3.771   8.118 -0.5190 -0.1319  0.5537
17553SOL     OW64717   7.476   2.406   9.690  0.1603 -0.3871 -0.0395
17553SOL    HW164718   7.573   2.426   9.676 -0.4095  2.8637  0.1903
17553SOL    HW264719   7.464   2.358   9.777  1.5112 -0.3022  0.2058
17554SOL     OW64720   9.096   0.319   2.254 -0.0986  0.0464 -0.6766
17554SOL    HW164721   9.130   0.283   2.167 -0.3831 -0.9875 -0.3737
17554SOL    HW264722   9.036   0.251   2.296 -1.3252  1.2290 -0.4820
17555SOL     OW64723   6.476   5.400   7.455 -0.7678 -0.1089  0.8118
17555SOL    HW164724   6.493   5.408   7.357 -2.6817  1.3932  0.5686
17555SOL    HW264725   6.488   5.304   7.483 -0.6675 -0.6425 -0.9712
17556SOL     OW64726   7.399   2.537   6.465 -0.1399  0.3036  0.0952
17556SOL    HW164727   7.379   2.501   6.556 -0.4342 -0.3974 -0.2431
17556SOL    HW264728   7.452   2.621   6.474 -1.3944  1.0119  0.9438
17557SOL     OW64729   1.012   2.058   5.925 -0.1201 -0.8376  0.4707
17557SOL    HW164730   0.953   1.984   5.956 -0.1237 -1.8990 -1.9489
17557SOL    HW264731   1.042   2.040   5.831  2.3345  0.7348  0.9080
17558SOL     OW64732   6.149   1.426   4.269  0.3099 -0.1948 -0.1092
17558SOL    HW164733   6.096   1.359   4.322 -0.5948  1.1663  0.7639
17558SOL    HW264734   6.204   1.379   4.200 -0.5583 -1.7970  0.2677
17559SOL     OW64735   8.061   5.586   5.785  0.0240 -0.2574 -0.0357
17559SOL    HW164736   8.003   5.649   5.734 -0.0194 -0.1122  0.1881
17559SOL    HW264737   8.123   5.638   5.843 -0.4070 -0.4250  0.5852
17560SOL     OW64738   4.519   5.055   6.996 -0.3046  0.6123  0.4763
17560SOL    HW164739   4.578   5.031   7.073  0.9286  0.7749 -0.4078
17560SOL    HW264740   4.458   5.130   7.024 -0.6559 -0.0943  1.6382
17561SOL     OW64741   7.025   7.127   5.558  1.1895 -1.2100 -0.3301
17561SOL    HW164742   7.045   7.178   5.641  1.8605  0.4990 -1.5122
17561SOL    HW264743   6.967   7.182   5.498  0.9627 -2.3016 -1.1412
17562SOL     OW64744   7.983   8.098   5.750  0.6408 -0.8141  0.1634
17562SOL    HW164745   8.070   8.067   5.710  1.0488  0.4438  0.0484
17562SOL    HW264746   7.917   8.112   5.677  1.1958  0.8887 -0.0232
17563SOL     OW64747   8.922   4.735   6.038  0.2251 -0.0745 -0.2187
17563SOL    HW164748   9.013   4.734   5.996  0.5212  0.9787  0.3792
17563SOL    HW264749   8.874   4.818   6.009 -0.9469 -1.1399 -1.3635
17564SOL     OW64750   6.408   9.109   3.815  0.1997 -0.0519  0.1585
17564SOL    HW164751   6.357   9.124   3.730  1.1621 -2.9509 -1.0066
17564SOL    HW264752   6.463   9.190   3.835 -1.4447  1.3818 -0.9796
17565SOL     OW64753   6.850   4.148   1.332 -0.3715 -0.1273  0.0714
17565SOL    HW164754   6.805   4.221   1.384 -0.5534 -0.0942 -0.1301
17565SOL    HW264755   6.935   4.122   1.378  0.6095  1.4528 -0.7806
17566SOL     OW64756   0.073   3.975   6.870 -0.0846 -0.6470  0.0127
17566SOL    HW164757   0.109   4.051   6.924  0.4439 -0.5713 -0.4427
17566SOL    HW264758  -0.019   3.996   6.839 -0.6742 -0.9981  1.5081
17567SOL     OW64759   6.731   8.621   4.733  0.4311  0.7934  0.9705
17567SOL    HW164760   6.690   8.662   4.651 -1.3198  0.6497  1.7522
17567SOL    HW264761   6.730   8.688   4.807 -1.4718 -0.2692  1.9468
17568SOL     OW64762   1.461   8.198   6.458 -0.0513 -0.3497  0.0855
17568SOL    HW164763   1.455   8.150   6.546 -4.2045 -1.1365 -0.5085
17568SOL    HW264764   1.415   8.286   6.465 -2.9561 -1.6218 -1.9858
17569SOL     OW64765   7.302   2.055   5.494  0.1285  0.0128 -0.0807
17569SOL    HW164766   7.343   2.139   5.460 -0.0260 -0.4730 -1.4721
17569SOL    HW264767   7.273   1.998   5.418 -0.1786 -1.1105  0.8562
17570SOL     OW64768   7.949   2.158   7.915 -0.6809 -0.2259  0.2443
17570SOL    HW164769   7.999   2.200   7.839 -1.2431 -1.0632 -0.6019
17570SOL    HW264770   7.872   2.216   7.940  0.0372  0.5021  0.7836
17571SOL     OW64771   6.315   9.848   4.100 -0.0065 -0.2061  0.2177
17571SOL    HW164772   6.324   9.923   4.166 -0.7513  2.1128 -2.2076
17571SOL    HW264773   6.399   9.794   4.099  0.4703  0.4634  2.1719
17572SOL     OW64774   6.823   9.728   2.882 -0.2737  0.1032  0.1337
17572SOL    HW164775   6.850   9.638   2.846  1.6849  1.0742 -0.9037
17572SOL    HW264776   6.890   9.758   2.950 -0.7053  0.9590  0.1818
17573SOL     OW64777   1.231   5.554   7.139 -0.2159  0.0031 -0.0434
17573SOL    HW164778   1.153   5.505   7.178 -0.7906  0.2617 -0.8540
17573SOL    HW264779   1.204   5.648   7.119  0.5758  0.3530  0.5255
17574SOL     OW64780   0.020   1.336   5.981 -0.0226  0.0383 -0.1799
17574SOL    HW164781   0.001   1.384   6.068  0.5381  0.2476 -0.1709
17574SOL    HW264782   0.030   1.404   5.908  2.6277  0.0750  0.1725
17575SOL     OW64783   7.764   9.596   6.495  0.6737  0.1161  0.1927
17575SOL    HW164784   7.669   9.610   6.522  0.7249  0.5914  0.1249
17575SOL    HW264785   7.768   9.534   6.416  0.4728 -0.5719  0.7169
17576SOL     OW64786   9.953   6.119   3.807  0.3229 -0.4403 -0.1954
17576SOL    HW164787   9.956   6.158   3.899 -0.4879 -0.0699 -0.3174
17576SOL    HW264788  10.042   6.129   3.763  0.2836  0.7836 -0.0180
17577SOL     OW64789   2.994   3.847   6.738 -0.0305  0.3703  0.1615
17577SOL    HW164790   2.997   3.891   6.648 -0.0536  1.3876  0.6548
17577SOL    HW264791   2.917   3.882   6.790  0.1050 -0.0661  0.6644
17578SOL     OW64792   4.931   4.132   3.025 -0.1272  0.3648 -0.3443
17578SOL    HW164793   4.931   4.039   2.989  0.7880  0.6931 -1.2321
17578SOL    HW264794   4.866   4.139   3.101  0.5443 -1.2561  0.4102
17579SOL     OW64795   6.289   9.425   6.530 -0.2879  0.1797 -0.4902
17579SOL    HW164796   6.259   9.517   6.556 -0.7285 -0.1239  0.0970
17579SOL    HW264797   6.219   9.381   6.475  1.3166  1.4187 -3.6823
17580SOL     OW64798   7.887   7.898   6.327 -0.1336 -0.9665  0.2651
17580SOL    HW164799   7.834   7.888   6.242  2.5973 -1.0699 -1.4676
17580SOL    HW264800   7.903   7.995   6.344  2.4686 -1.0488 -1.4027
17581SOL     OW64801   7.294   7.430   4.799 -0.3399  0.3995 -0.1973
17581SOL    HW164802   7.376   7.488   4.800  0.6756 -0.9846  0.0644
17581SOL    HW264803   7.236   7.454   4.722 -0.9899  3.1541  1.1005
17582SOL     OW64804   5.613   0.138   3.131 -0.1744 -0.0831 -0.4504
17582SOL    HW164805   5.645   0.053   3.088 -2.1157  0.1989 -2.5838
17582SOL    HW264806   5.685   0.207   3.127  0.5764 -0.8845 -0.9251
17583SOL     OW64807   5.889   9.638   5.125 -0.7062 -0.1699  0.4185
17583SOL    HW164808   5.841   9.553   5.146 -0.2929 -0.2006  1.2762
17583SOL    HW264809   5.906   9.688   5.210  0.4638  0.0076  0.0800
17584SOL     OW64810   6.521   1.650   2.998  0.1820 -0.3809  0.5595
17584SOL    HW164811   6.587   1.721   3.022  0.8794 -0.6366 -0.5660
17584SOL    HW264812   6.518   1.640   2.898  1.0526 -2.8255  0.7587
17585SOL     OW64813   5.638   2.522   9.566 -0.3251  0.1613 -0.0689
17585SOL    HW164814   5.578   2.489   9.493  0.2676  3.5318 -2.2045
17585SOL    HW264815   5.733   2.504   9.541 -0.1838  0.0923  0.5220
17586SOL     OW64816   7.379   3.569   5.604  0.1637 -0.5385  0.2766
17586SOL    HW164817   7.408   3.652   5.652 -1.9003  0.1898  0.3127
17586SOL    HW264818   7.283   3.550   5.625  0.8770 -3.5141  1.0666
17587SOL     OW64819   4.297   2.815   9.183 -0.4137 -0.3211  0.1574
17587SOL    HW164820   4.310   2.914   9.190 -0.8449 -0.3167  0.9796
17587SOL    HW264821   4.205   2.791   9.216 -1.0114 -0.7927 -1.7846
17588SOL     OW64822   6.035   6.357   4.139 -0.1661 -0.7240  0.3454
17588SOL    HW164823   6.134   6.354   4.150 -0.2934 -0.6543  1.5855
17588SOL    HW264824   5.999   6.264   4.134  0.1442 -0.7665 -2.0921
17589SOL     OW64825   7.062   3.052   5.104  0.2017 -0.4988 -0.2480
17589SOL    HW164826   7.132   3.104   5.056 -1.7620  1.7213 -0.7914
17589SOL    HW264827   7.054   3.085   5.198  1.4076 -2.2664  0.4997
17590SOL     OW64828   8.821   3.854   5.517  0.1205 -0.0734  0.1993
17590SOL    HW164829   8.724   3.830   5.509 -0.1023  1.2170 -1.3356
17590SOL    HW264830   8.864   3.795   5.584 -1.3066 -1.9894 -0.5061
17591SOL     OW64831   8.227   9.144   5.281 -0.1424  0.1332  0.1151
17591SOL    HW164832   8.210   9.087   5.200 -0.1346  0.1123  0.1287
17591SOL    HW264833   8.158   9.217   5.284  0.1582  0.4315 -0.1812
17592SOL     OW64834   7.583   2.899   6.100  0.1154 -0.5972 -0.2878
17592SOL    HW164835   7.530   2.971   6.056 -0.9144 -1.0843  0.1565
17592SOL    HW264836   7.565   2.812   6.054  0.1986 -0.8415  0.1434
17593SOL     OW64837   7.338   4.020   7.602 -0.1777  0.2795  0.5304
17593SOL    HW164838   7.414   4.065   7.555 -0.5684 -0.2836 -0.6567
17593SOL    HW264839   7.256   4.077   7.595 -0.1945  0.2764  0.6889
17594SOL     OW64840   6.427   9.904   1.394 -0.0556  0.1476  0.1107
17594SOL    HW164841   6.463   9.870   1.308 -1.6838 -0.6704 -0.2551
17594SOL    HW264842   6.372   9.986   1.377  0.4437  0.5689  0.4994
17595SOL     OW64843   9.415   2.257   1.932 -0.0733  0.2842  0.4751
17595SOL    HW164844   9.396   2.248   2.030 -0.0636 -0.4015  0.4213
17595SOL    HW264845   9.421   2.353   1.907  0.6242  0.4511  1.2835
17596SOL     OW64846   7.407   9.536   3.412 -0.1878 -0.6650 -0.4818
17596SOL    HW164847   7.345   9.609   3.441  0.0716 -1.7035  2.8630
17596SOL    HW264848   7.502   9.565   3.425 -0.0791 -1.4368  0.4866
17597SOL     OW64849   6.649   8.567   6.471 -0.3585 -0.2760  0.1175
17597SOL    HW164850   6.686   8.626   6.400  0.3728 -0.8613 -0.0055
17597SOL    HW264851   6.665   8.608   6.561 -0.2592 -0.0720  0.0057
17598SOL     OW64852   6.001   6.538   2.577  0.2610  0.8892 -0.1170
17598SOL    HW164853   5.948   6.460   2.610  1.3078 -0.2734 -1.1092
17598SOL    HW264854   5.946   6.621   2.584 -1.9131 -0.3551 -1.5816
17599SOL     OW64855   8.778   4.414   8.367 -0.1543 -0.2428 -0.5233
17599SOL    HW164856   8.731   4.353   8.303 -2.2716  2.7227 -1.9469
17599SOL    HW264857   8.829   4.483   8.315 -0.0751  0.8556  0.9835
17600SOL     OW64858   8.613   3.497   9.861  0.2083 -0.6712 -0.5978
17600SOL    HW164859   8.565   3.568   9.913  0.3490 -0.5214 -0.6753
17600SOL    HW264860   8.601   3.409   9.908 -0.5587 -0.7235 -0.8806
17601SOL     OW64861   0.832   4.596   1.552 -0.0669 -0.3139 -0.1526
17601SOL    HW164862   0.843   4.514   1.608  1.6105 -0.6046 -0.8522
17601SOL    HW264863   0.911   4.656   1.564 -0.3509  0.2755 -1.1200
17602SOL     OW64864   0.134   0.305   6.278  0.5621  0.1186 -0.4011
17602SOL    HW164865   0.064   0.375   6.264 -1.8197 -2.1339 -0.1230
17602SOL    HW264866   0.119   0.259   6.365  1.1431 -1.7609 -1.2644
17603SOL     OW64867   9.604   7.811   8.103 -0.0017  0.3027  0.1536
17603SOL    HW164868   9.657   7.801   8.019 -0.9026  3.0039 -0.7849
17603SOL    HW264869   9.644   7.883   8.160 -1.6257  1.1580  0.2417
17604SOL     OW64870   6.301   1.211   1.232  0.2370  0.2410 -0.4054
17604SOL    HW164871   6.276   1.293   1.180  1.9190 -0.9192 -3.1574
17604SOL    HW264872   6.385   1.230   1.284 -1.2150  1.2723  1.6152
17605SOL     OW64873   8.647   7.477   6.273  0.3895  0.5660  0.5276
17605SOL    HW164874   8.630   7.387   6.313  0.2417  0.3562  0.0024
17605SOL    HW264875   8.631   7.548   6.342 -0.4636  0.2487  0.6683
17606SOL     OW64876   7.230   3.096   2.372  0.2651 -0.1426  0.1375
17606SOL    HW164877   7.324   3.075   2.347  0.3198 -0.1407  0.3374
17606SOL    HW264878   7.213   3.194   2.361  1.0289  0.2841  2.5011
17607SOL     OW64879   7.054   2.023   9.363  0.0065 -0.2887  0.3321
17607SOL    HW164880   7.070   2.120   9.348  0.0677 -0.1509  1.2146
17607SOL    HW264881   7.112   1.991   9.438 -0.3689 -0.8862  0.3725
17608SOL     OW64882   5.567   3.608   1.990  0.3364  0.4241  0.2803
17608SOL    HW164883   5.657   3.638   2.020 -0.0335  0.4397  1.3872
17608SOL    HW264884   5.500   3.681   2.005  0.3366  0.8369 -1.5979
17609SOL     OW64885   7.601   6.466   8.318  0.3837 -0.1273  0.2295
17609SOL    HW164886   7.683   6.416   8.289  1.5497  1.2838  1.0033
17609SOL    HW264887   7.581   6.443   8.413  0.3289  0.1110  0.2753
17610SOL     OW64888   2.732   4.364   9.112  0.1985  0.1751  0.1336
17610SOL    HW164889   2.767   4.283   9.064 -1.0999 -0.9952  1.1063
17610SOL    HW264890   2.714   4.340   9.207 -0.4416  1.5465  0.3626
17611SOL     OW64891   7.659   2.259   6.874  0.1445  0.0888 -0.7133
17611SOL    HW164892   7.685   2.354   6.861  3.1211 -0.5122  0.4621
17611SOL    HW264893   7.578   2.254   6.931  0.5937  1.8917  0.1140
17612SOL     OW64894   6.239   0.169   7.410  0.0207  0.7156 -0.4222
17612SOL    HW164895   6.206   0.223   7.333 -0.1068 -3.2731 -3.2839
17612SOL    HW264896   6.336   0.151   7.400  0.1929  0.8464  0.8436
17613SOL     OW64897   3.563   0.948   7.811 -0.2904 -0.3496 -0.3124
17613SOL    HW164898   3.527   0.893   7.886 -0.4245  0.3316  0.1229
17613SOL    HW264899   3.488   0.986   7.757 -0.1894 -2.1616 -1.7740
17614SOL     OW64900   7.509   4.191   5.660  0.3893 -0.0983 -0.3382
17614SOL    HW164901   7.517   4.288   5.682  0.3468  0.0203 -0.8589
17614SOL    HW264902   7.556   4.137   5.731 -2.5377  0.1087  1.8914
17615SOL     OW64903   7.976   2.997   6.159  0.0655 -0.8871  0.2355
17615SOL    HW164904   8.043   3.070   6.151 -0.1059 -0.9151 -1.4310
17615SOL    HW264905   7.894   3.031   6.206  0.7346 -0.5388  1.1788
17616SOL     OW64906   8.963   9.548   6.439  0.0042 -0.0690  0.4963
17616SOL    HW164907   8.869   9.569   6.413  0.5926  1.5501 -0.4181
17616SOL    HW264908   9.026   9.600   6.380  1.5135 -3.0832 -0.6312
17617SOL     OW64909   6.767   1.807   4.515  0.3463 -0.3908 -0.4374
17617SOL    HW164910   6.707   1.887   4.506  0.4722 -0.0582  1.4208
17617SOL    HW264911   6.717   1.724   4.490 -0.1636  0.1392 -1.1903
17618SOL     OW64912   3.636   5.390   6.256 -0.2583  0.7906  0.1190
17618SOL    HW164913   3.555   5.379   6.314  2.0227  0.3650  3.3031
17618SOL    HW264914   3.676   5.301   6.238  0.9542  1.2131  0.6984
17619SOL     OW64915   5.445   6.364   6.610  0.0312 -0.2097  0.2534
17619SOL    HW164916   5.500   6.363   6.694  0.7275  0.8192 -0.1767
17619SOL    HW264917   5.451   6.454   6.567  2.1020 -1.5726 -2.4789
17620SOL     OW64918   9.052   5.472   7.125  0.7663 -0.2358  0.1690
17620SOL    HW164919   9.000   5.387   7.130  1.0819 -0.4494 -0.1687
17620SOL    HW264920   9.113   5.479   7.204 -0.6764  0.6149  1.2471
17621SOL     OW64921   7.156   3.770   1.669 -0.3340 -0.4357  0.2878
17621SOL    HW164922   7.255   3.775   1.684 -0.1963  1.0928 -0.9354
17621SOL    HW264923   7.119   3.688   1.712  1.2299 -0.2178  2.0807
17622SOL     OW64924   8.323   3.791   5.147 -0.0547 -0.2690  0.4353
17622SOL    HW164925   8.243   3.811   5.090  0.8893  0.7677 -0.5325
17622SOL    HW264926   8.314   3.698   5.184 -1.2785 -0.4912 -0.3734
17623SOL     OW64927   2.884   6.989   9.053 -0.5265  0.1027 -0.6706
17623SOL    HW164928   2.880   6.998   8.954 -0.3841  0.3785 -0.6527
17623SOL    HW264929   2.850   7.074   9.095  1.7391  0.9406 -0.5000
17624SOL     OW64930   1.045   9.213   3.066  0.4566 -0.2599  0.4649
17624SOL    HW164931   1.084   9.188   3.154  2.2888  0.7789 -0.0256
17624SOL    HW264932   0.996   9.300   3.075  2.4021  0.9130  0.0384
17625SOL     OW64933   7.027   7.998   0.967 -0.1855  0.1519 -0.1308
17625SOL    HW164934   6.955   8.007   0.898 -1.4936  0.3790  1.2468
17625SOL    HW264935   7.017   8.069   1.036  0.5884 -0.6016  0.7739
17626SOL     OW64936   5.461   9.840   6.022  0.1824 -0.1411  0.5024
17626SOL    HW164937   5.373   9.796   6.041 -0.0531  0.2010  0.2192
17626SOL    HW264938   5.487   9.821   5.927  0.9458 -1.1500  0.9093
17627SOL     OW64939   8.338   0.619   9.882 -0.4113 -0.5055  0.1536
17627SOL    HW164940   8.378   0.703   9.920  0.3854 -1.2293  0.9476
17627SOL    HW264941   8.250   0.601   9.927 -0.1253 -0.6115  0.6826
17628SOL     OW64942   7.555   3.392   7.015  0.5254  0.4166 -0.0884
17628SOL    HW164943   7.634   3.370   6.957 -0.0753 -0.6921 -0.5112
17628SOL    HW264944   7.492   3.314   7.016 -1.6768  2.0989 -1.5799
17629SOL     OW64945   1.007   3.025   2.684 -0.2893  0.4383  0.7756
17629SOL    HW164946   1.092   2.972   2.689 -0.5499 -0.4515 -2.6582
17629SOL    HW264947   0.935   2.977   2.732 -0.0229 -1.3766 -0.5701
17630SOL     OW64948   3.571   0.883   8.977  0.2267  0.4839  0.1122
17630SOL    HW164949   3.536   0.920   8.891 -0.6916  0.2101  0.3637
17630SOL    HW264950   3.503   0.895   9.049  0.7846  0.2418  0.6864
17631SOL     OW64951   3.993   6.660   5.643 -0.1464  0.1822  0.0128
17631SOL    HW164952   3.900   6.626   5.649 -0.3719  0.7699 -0.1100
17631SOL    HW264953   4.057   6.584   5.649 -0.6126 -0.1433  0.9241
17632SOL     OW64954   2.697   8.657   3.781  0.2088  0.2945  0.1904
17632SOL    HW164955   2.792   8.624   3.777  0.1471 -0.0661  1.3521
17632SOL    HW264956   2.636   8.586   3.746  0.2270 -0.1723  1.0768
17633SOL     OW64957   8.133   9.574   4.301 -0.1288 -0.5982  0.0481
17633SOL    HW164958   8.047   9.525   4.310 -0.9057  0.4682 -1.4247
17633SOL    HW264959   8.130   9.633   4.221  0.8408  1.7464  1.6733
17634SOL     OW64960   7.644   0.651   6.930 -0.0432 -0.4661  0.0853
17634SOL    HW164961   7.694   0.687   6.851 -0.3370 -0.8490 -0.2751
17634SOL    HW264962   7.614   0.727   6.987  1.8764 -0.2602  0.8861
17635SOL     OW64963   1.576   9.616   4.854 -0.9876 -0.2885 -0.0625
17635SOL    HW164964   1.489   9.638   4.810 -1.3165 -1.4471 -0.0123
17635SOL    HW264965   1.605   9.524   4.826 -1.4094 -1.2212  2.4624
17636SOL     OW64966   9.531   9.597   3.095 -0.0463 -0.0869 -0.7448
17636SOL    HW164967   9.630   9.582   3.094 -0.2238 -1.2985 -0.7538
17636SOL    HW264968   9.487   9.532   3.157 -0.7643  0.9527 -0.1467
17637SOL     OW64969   6.343   8.536   5.025 -0.1519  0.0251  0.2377
17637SOL    HW164970   6.377   8.536   4.931 -0.8673 -0.9610 -0.0315
17637SOL    HW264971   6.245   8.554   5.026 -0.3482 -1.0121  0.7069
17638SOL     OW64972   7.625   2.605   7.803  0.5973  0.3372  1.0582
17638SOL    HW164973   7.655   2.652   7.720  0.3685 -2.1391 -0.4543
17638SOL    HW264974   7.526   2.592   7.800  0.7162 -0.6530  1.2432
17639SOL     OW64975   5.236   1.639   8.973  0.4905  0.3290 -0.4185
17639SOL    HW164976   5.273   1.547   8.957  0.8108  0.5228 -0.7913
17639SOL    HW264977   5.275   1.703   8.907 -1.9834  0.1528 -2.1323
17640SOL     OW64978   5.050   1.569   4.585  0.9299  0.5081  0.7055
17640SOL    HW164979   5.053   1.472   4.608 -0.1789  0.6203  1.3844
17640SOL    HW264980   4.966   1.609   4.623  2.3322  2.1601  2.1152
17641SOL     OW64981   7.178   5.562   9.132  0.3274 -0.3159  0.0670
17641SOL    HW164982   7.239   5.539   9.057  0.2232 -1.7344  0.4072
17641SOL    HW264983   7.096   5.504   9.128 -0.1718  0.3281  0.6569
17642SOL     OW64984   7.870   1.130   4.188  0.4607 -0.0773 -0.1736
17642SOL    HW164985   7.864   1.062   4.262  1.0788  0.3725  0.2999
17642SOL    HW264986   7.931   1.204   4.217  1.1866 -0.1943 -1.3666
17643SOL     OW64987   1.368   2.008   3.930 -0.5451 -0.0760  0.0306
17643SOL    HW164988   1.302   1.953   3.981 -0.7544 -0.7050 -0.8995
17643SOL    HW264989   1.458   1.965   3.936 -0.7115 -0.5485 -0.7086
17644SOL     OW64990   8.941   3.429   1.879 -0.2912  0.0237 -0.5078
17644SOL    HW164991   8.995   3.472   1.952  3.3756 -2.0182 -1.9149
17644SOL    HW264992   8.893   3.349   1.917 -0.9648  0.8423  0.3817
17645SOL     OW64993   9.640   1.723   5.605  0.2466 -0.1657  0.0936
17645SOL    HW164994   9.693   1.748   5.686 -1.5177  0.8506  0.9694
17645SOL    HW264995   9.689   1.750   5.523  1.8228 -0.7362  0.8149
17646SOL     OW64996   8.671   1.920   5.419  0.8734 -0.0403  0.2530
17646SOL    HW164997   8.573   1.939   5.425  0.7074 -0.1366 -1.7337
17646SOL    HW264998   8.722   2.000   5.450  0.1807 -0.0078  1.3493
17647SOL     OW64999   7.007   9.792   3.064 -0.3598 -0.5678 -0.1786
17647SOL    HW165000   7.076   9.864   3.063 -1.5378  0.5754 -0.4791
17647SOL    HW265001   7.019   9.734   3.145 -0.7396  1.2907  1.2304
17648SOL     OW65002   6.574   4.127   3.796  0.5405 -0.4099  0.3873
17648SOL    HW165003   6.610   4.179   3.718  1.1382 -1.4734 -0.0482
17648SOL    HW265004   6.646   4.068   3.833  0.2628  0.0900  1.7546
17649SOL     OW65005   6.201   5.285   8.563  0.0879  0.2275  0.0541
17649SOL    HW165006   6.111   5.293   8.606  0.8874 -0.6751  1.9327
17649SOL    HW265007   6.250   5.371   8.572 -0.9430  1.0483 -1.8532
17650SOL     OW65008   6.466   3.925   2.440  0.4951  0.1040  0.2696
17650SOL    HW165009   6.562   3.943   2.419 -0.0222  3.0104  0.3087
17650SOL    HW265010   6.411   3.932   2.356  0.2608 -1.4123  0.2712
17651SOL     OW65011   6.347   8.967   6.449  0.6419 -0.3184 -0.1149
17651SOL    HW165012   6.441   8.985   6.478  0.7522  0.5987 -0.9926
17651SOL    HW265013   6.348   8.907   6.369  0.5407  0.6658 -0.8605
17652SOL     OW65014   7.816   0.425   5.613 -0.3368 -0.1581 -0.3517
17652SOL    HW165015   7.887   0.384   5.671  0.4288  0.9324 -0.5050
17652SOL    HW265016   7.767   0.352   5.564  0.1722 -0.9683  0.3288
17653SOL     OW65017   8.293   4.213   3.029  0.1014 -0.4163 -0.2648
17653SOL    HW165018   8.251   4.261   3.106 -0.2601 -0.3548 -0.4958
17653SOL    HW265019   8.386   4.246   3.015  0.2099 -0.5107  0.2192
17654SOL     OW65020   9.628   4.751   6.388 -0.1704 -0.2540 -0.0821
17654SOL    HW165021   9.546   4.700   6.414 -0.9132  1.4194  0.9456
17654SOL    HW265022   9.662   4.717   6.300 -2.2827 -0.6117 -0.7915
17655SOL     OW65023   0.274   7.012   5.454  0.2586  0.6024  0.1971
17655SOL    HW165024   0.187   7.016   5.405 -0.2972 -0.8539  1.0234
17655SOL    HW265025   0.294   7.102   5.495 -1.3588  0.6805  0.8406
17656SOL     OW65026   1.812   9.985   0.732  0.1446 -0.1078  0.2670
17656SOL    HW165027   1.833   9.912   0.796  0.1746 -0.5863 -0.2932
17656SOL    HW265028   1.725   9.966   0.686 -0.2818  0.6293  0.7399
17657SOL     OW65029   5.351   2.031   9.610 -0.5382  0.4907 -0.3726
17657SOL    HW165030   5.282   1.999   9.675 -0.0285  1.2251  0.5341
17657SOL    HW265031   5.442   2.021   9.650 -0.1342 -0.1138 -1.4137
17658SOL     OW65032   9.016   9.774   7.671 -0.2772 -0.3161 -0.3047
17658SOL    HW165033   8.928   9.728   7.658 -1.1956  1.0627  0.9158
17658SOL    HW265034   9.035   9.782   7.769 -0.5104  2.5858 -0.4526
17659SOL     OW65035   7.143   3.856   9.319 -0.2025 -0.0678  0.0322
17659SOL    HW165036   7.113   3.772   9.273  1.7510 -0.5891 -0.3248
17659SOL    HW265037   7.100   3.935   9.276 -1.1760 -0.8038 -0.3626
17660SOL     OW65038   5.205   5.668   7.974 -0.6407 -0.3914 -0.2999
17660SOL    HW165039   5.233   5.581   7.934 -0.0710 -0.6752  0.7104
17660SOL    HW265040   5.170   5.653   8.066 -1.2305  0.3634 -0.3875
17661SOL     OW65041   8.672   3.633   5.209  0.1501  0.0233 -0.0782
17661SOL    HW165042   8.717   3.706   5.260  0.1664 -1.4787  2.1437
17661SOL    HW265043   8.722   3.614   5.125  2.5515 -0.2539  1.3677
17662SOL     OW65044   7.913   2.748   1.814  0.4780  0.4324  0.3500
17662SOL    HW165045   7.974   2.815   1.857  1.6929 -0.5715  0.2021
17662SOL    HW265046   7.873   2.689   1.884 -0.3362  1.0926  0.4474
17663SOL     OW65047   0.690   2.738   3.597  0.0362 -0.7130  0.0910
17663SOL    HW165048   0.774   2.728   3.650  0.3618 -0.0525 -0.3054
17663SOL    HW265049   0.638   2.653   3.601  0.6126 -1.0435  0.5290
17664SOL     OW65050   5.021   6.568   1.255  0.2045  0.2098 -0.1358
17664SOL    HW165051   5.068   6.498   1.203  2.1561  0.8951  0.6637
17664SOL    HW265052   4.990   6.640   1.194 -0.8314 -0.7929 -0.8114
17665SOL     OW65053   7.157   0.288   6.077 -0.3111  0.1206  0.3145
17665SOL    HW165054   7.251   0.258   6.056 -0.7318 -0.3026 -1.0125
17665SOL    HW265055   7.133   0.365   6.019 -0.5992  0.6013  1.0587
17666SOL     OW65056   8.090   8.367   4.258 -0.0803 -0.3672 -0.0956
17666SOL    HW165057   8.053   8.300   4.323  0.7347  0.5706  1.3697
17666SOL    HW265058   8.185   8.345   4.238 -0.7180 -1.4447 -2.0759
17667SOL     OW65059   2.012   4.915   3.510  0.2837  0.8269  0.8824
17667SOL    HW165060   1.927   4.896   3.461  1.4681 -1.4094 -0.3808
17667SOL    HW265061   2.067   4.980   3.458 -0.5963  2.2325  1.6731
17668SOL     OW65062   2.856   0.343   4.703  0.2851 -0.1972  0.3213
17668SOL    HW165063   2.814   0.266   4.752  0.1375  0.2696  0.9409
17668SOL    HW265064   2.898   0.310   4.619  0.6927 -1.0406  0.8516
17669SOL     OW65065   9.710   2.864   0.877 -0.5016  0.3346  1.0336
17669SOL    HW165066   9.700   2.963   0.886 -0.0624  0.2911  2.0242
17669SOL    HW265067   9.785   2.844   0.813 -0.3042  0.6350  1.1716
17670SOL     OW65068   7.687   3.981   9.147 -0.1377  0.1065  0.0572
17670SOL    HW165069   7.669   3.888   9.181  0.4602 -0.5183 -1.3167
17670SOL    HW265070   7.713   4.039   9.224 -1.1723 -0.6939  1.0339
17671SOL     OW65071   6.002   7.502   5.448  0.2251 -0.2694 -0.1665
17671SOL    HW165072   6.027   7.563   5.374 -0.3458  1.0338  0.6897
17671SOL    HW265073   5.974   7.413   5.411  3.2778 -0.8111 -1.2834
17672SOL     OW65074   8.367   6.042   8.474  0.4092 -0.5603 -0.2738
17672SOL    HW165075   8.401   5.965   8.419  1.6504  0.1856 -0.5765
17672SOL    HW265076   8.426   6.053   8.554 -0.3294 -0.5072  0.2643
17673SOL     OW65077   1.971   0.158   6.694 -0.1872  0.3861 -0.5636
17673SOL    HW165078   1.962   0.170   6.793 -0.5625  0.1447 -0.5691
17673SOL    HW265079   1.881   0.163   6.651 -0.1317 -0.4407 -0.7860
17674SOL     OW65080   2.429   7.673   9.334  0.7044  0.4659 -0.7214
17674SOL    HW165081   2.488   7.595   9.313  0.8026  0.0849  0.9277
17674SOL    HW265082   2.344   7.666   9.282  0.5158 -0.9939 -0.2225
17675SOL     OW65083   7.286   3.107   5.477  0.1400  0.0894  0.0314
17675SOL    HW165084   7.230   3.164   5.416  1.3250  0.4564 -0.7363
17675SOL    HW265085   7.263   3.128   5.572 -0.4551  0.8199 -0.2662
17676SOL     OW65086   6.084   5.562   8.333 -0.3206  0.2486 -0.0647
17676SOL    HW165087   6.111   5.486   8.274 -0.5166  0.8044 -0.8894
17676SOL    HW265088   6.165   5.615   8.359 -0.2984  0.3208 -0.2835
17677SOL     OW65089   1.881   7.588   5.694  0.1469  0.1147 -0.0853
17677SOL    HW165090   1.948   7.659   5.718 -0.0919  0.0981  0.6573
17677SOL    HW265091   1.844   7.606   5.604  0.3154  0.7671 -0.0254
17678SOL     OW65092   2.634   1.917   5.327 -0.0683 -0.3844  0.1053
17678SOL    HW165093   2.581   1.971   5.261 -0.1555 -1.0247 -0.3485
17678SOL    HW265094   2.581   1.907   5.412  0.4840  1.3525  0.6779
17679SOL     OW65095   1.855   4.137   1.331 -0.3104  0.0429 -0.1340
17679SOL    HW165096   1.932   4.180   1.379 -0.7841 -0.5494  1.1755
17679SOL    HW265097   1.817   4.202   1.265 -0.0276  1.0855  0.7103
17680SOL     OW65098   6.571   3.212   9.325 -0.2815  0.5987 -0.6780
17680SOL    HW165099   6.531   3.230   9.235 -1.1981 -1.6440 -0.7450
17680SOL    HW265100   6.502   3.172   9.385  0.7604  0.5797  0.5326
17681SOL     OW65101   3.013   5.231   8.183 -0.3826 -0.2565 -0.5487
17681SOL    HW165102   3.098   5.184   8.162  0.0734  0.3857 -0.1677
17681SOL    HW265103   2.936   5.181   8.144  0.3532  0.3290 -2.8539
17682SOL     OW65104   0.952   0.509   4.927  0.9871 -0.0640  0.1746
17682SOL    HW165105   0.976   0.436   4.991  0.7783 -0.1837  0.1186
17682SOL    HW265106   1.023   0.579   4.928  1.1758 -0.2542  0.2518
17683SOL     OW65107   5.264   2.754   1.353  0.6481  0.1698 -0.5774
17683SOL    HW165108   5.235   2.672   1.401  4.1948 -0.2206  1.0920
17683SOL    HW265109   5.253   2.742   1.254 -1.0612 -1.3731 -0.2003
17684SOL     OW65110   8.718   5.974   8.308  0.5824 -0.0801  0.6998
17684SOL    HW165111   8.681   5.887   8.340  1.3516 -1.1746 -1.2470
17684SOL    HW265112   8.746   5.965   8.212  0.0093  2.5287  0.2345
17685SOL     OW65113   6.418   2.700   6.675  0.0730 -0.1358  0.3670
17685SOL    HW165114   6.463   2.718   6.763  0.1825  0.0380  0.2762
17685SOL    HW265115   6.339   2.761   6.665  0.7988  0.7162 -0.2045
17686SOL     OW65116   4.267   6.005   5.021 -0.5828  0.7229  0.2051
17686SOL    HW165117   4.189   6.045   5.068  0.2105  2.1551  0.3153
17686SOL    HW265118   4.236   5.930   4.962 -1.9919  1.0971  0.4696
17687SOL     OW65119   4.786   7.626   8.547  0.1605  0.5341 -0.1995
17687SOL    HW165120   4.694   7.602   8.516 -0.0811  2.8106 -1.2757
17687SOL    HW265121   4.830   7.687   8.481  0.8991  2.7701  2.2499
17688SOL     OW65122   6.103   2.686   2.889 -0.0201 -0.2448  0.5324
17688SOL    HW165123   6.072   2.714   2.979  1.8907 -0.9096  1.4246
17688SOL    HW265124   6.055   2.738   2.819  0.3092  2.1109  2.0046
17689SOL     OW65125   6.261   2.827   7.352 -0.6913 -0.1789  0.3268
17689SOL    HW165126   6.323   2.764   7.400  0.2313 -1.2245 -2.1033
17689SOL    HW265127   6.308   2.914   7.336 -0.1696 -0.6159 -0.6117
17690SOL     OW65128   7.248   5.389   9.345 -0.5130 -0.0128 -0.4655
17690SOL    HW165129   7.178   5.319   9.360  0.3479 -0.5395  1.2870
17690SOL    HW265130   7.212   5.460   9.284 -3.7944  1.4336  2.8923
17691SOL     OW65131   8.055   2.070   3.952  0.1578  0.4766 -0.0641
17691SOL    HW165132   8.100   2.066   3.863 -2.2164  2.6361 -1.4298
17691SOL    HW265133   7.980   2.004   3.954 -1.2319  2.0163 -0.5421
17692SOL     OW65134   4.068   3.495   4.541 -0.0537  0.6137 -0.3921
17692SOL    HW165135   4.120   3.459   4.463  0.3276  1.1013 -0.3619
17692SOL    HW265136   4.093   3.590   4.556 -1.2985  0.9914 -0.6703
17693SOL     OW65137   9.417   5.469   7.693 -0.1378 -0.4242  0.2461
17693SOL    HW165138   9.421   5.389   7.633  2.4610 -0.9774  1.0496
17693SOL    HW265139   9.379   5.443   7.781 -0.4173 -0.4954  0.1037
17694SOL     OW65140   6.597   7.378   0.352  0.3915 -0.1887  0.0263
17694SOL    HW165141   6.599   7.357   0.254  0.1616 -3.0677  0.5924
17694SOL    HW265142   6.650   7.461   0.369 -1.1306  1.4212 -2.7521
17695SOL     OW65143   7.579   5.632   5.274  0.4819  0.3329  0.2237
17695SOL    HW165144   7.608   5.564   5.342 -2.1461  0.1492  1.2171
17695SOL    HW265145   7.574   5.722   5.316  0.3390  0.4960 -0.1362
17696SOL     OW65146   7.001   1.820   9.618  0.0236  0.2979 -0.7954
17696SOL    HW165147   7.090   1.864   9.601  0.7449 -0.6746  0.3788
17696SOL    HW265148   6.959   1.862   9.699 -0.2158  0.2032 -0.8716
17697SOL     OW65149   8.475   7.462   8.968 -0.3122 -0.0367 -0.0240
17697SOL    HW165150   8.571   7.462   8.994 -0.3410 -1.8595  0.1375
17697SOL    HW265151   8.429   7.540   9.011  1.3476  1.5857 -1.1453
17698SOL     OW65152   2.413   1.978   6.481  0.1064  0.5354 -0.2852
17698SOL    HW165153   2.368   2.067   6.476 -1.3012 -0.2469 -2.2120
17698SOL    HW265154   2.512   1.991   6.478 -0.0920  2.0018 -1.4696
17699SOL     OW65155   0.476   2.636   9.007 -0.1298 -0.1193 -0.0340
17699SOL    HW165156   0.471   2.698   8.929 -0.7120 -0.4013 -0.2242
17699SOL    HW265157   0.398   2.573   9.005  1.1026 -1.6476 -0.5131
17700SOL     OW65158   5.792   2.151   8.429  0.4260 -0.0737 -0.4691
17700SOL    HW165159   5.766   2.239   8.389 -0.7290 -0.0048  0.4150
17700SOL    HW265160   5.885   2.158   8.465  0.0606  1.0456  0.3113
17701SOL     OW65161   7.054   5.820   6.283 -0.1248  0.3628 -0.0694
17701SOL    HW165162   7.000   5.810   6.367 -1.2968  0.1575 -0.8262
17701SOL    HW265163   7.078   5.916   6.270 -4.2316  1.2268 -2.0476
17702SOL     OW65164   6.197   6.627   6.490 -0.1655 -0.0181 -0.1095
17702SOL    HW165165   6.245   6.552   6.445  0.0528  0.2025 -0.2460
17702SOL    HW265166   6.190   6.705   6.428 -0.1307  0.1781  0.1289
17703SOL     OW65167   4.745   3.036   9.163  0.0871 -0.6330 -0.4039
17703SOL    HW165168   4.652   3.071   9.149  0.1918  0.4552  1.5105
17703SOL    HW265169   4.750   2.942   9.129 -2.1426 -1.2203  0.7760
17704SOL     OW65170   6.232   3.041   0.540  0.0412  0.4532 -0.3346
17704SOL    HW165171   6.170   2.994   0.478  0.2836 -0.1228 -0.1397
17704SOL    HW265172   6.322   3.048   0.498 -0.0657  1.0024 -0.4826
17705SOL     OW65173   9.280   4.327   8.904 -0.2781 -0.3033 -0.2408
17705SOL    HW165174   9.313   4.249   8.957 -2.6019 -1.4537 -0.4251
17705SOL    HW265175   9.203   4.298   8.847 -1.5320  2.2761  0.0991
17706SOL     OW65176   3.217   3.583   7.677 -0.3535 -0.0944  0.0526
17706SOL    HW165177   3.270   3.666   7.659 -0.3434 -0.0272  0.3891
17706SOL    HW265178   3.183   3.585   7.771 -1.7251  0.3035 -0.4319
17707SOL     OW65179   1.058   3.727   7.092  0.3291  0.0089  0.7218
17707SOL    HW165180   0.960   3.718   7.077  0.1584  0.9263  1.2856
17707SOL    HW265181   1.083   3.683   7.178  0.4513 -0.4384  0.4581
17708SOL     OW65182   4.494   7.628   7.936  0.1777  0.5190  0.1344
17708SOL    HW165183   4.438   7.621   8.018  0.8082  0.5735  0.5713
17708SOL    HW265184   4.535   7.719   7.931 -0.9000  0.9631 -0.9186
17709SOL     OW65185   3.679   1.594   6.433  0.0134 -0.2832 -0.3184
17709SOL    HW165186   3.602   1.535   6.456  0.3244 -1.3627 -1.9673
17709SOL    HW265187   3.672   1.622   6.338  1.3501  0.1012 -0.3128
17710SOL     OW65188   6.067   4.068   0.353 -0.1659  0.1769 -0.7986
17710SOL    HW165189   6.045   4.106   0.443  0.4365  0.9444 -0.9689
17710SOL    HW265190   6.140   4.122   0.311  1.6859 -2.0083 -0.4539
17711SOL     OW65191   3.146   2.045   8.725 -0.3464  0.6700  0.5194
17711SOL    HW165192   3.222   2.007   8.672 -1.0411  1.7092 -1.2507
17711SOL    HW265193   3.168   2.138   8.754 -0.8500  0.9075  0.1590
17712SOL     OW65194   9.354   7.287   3.382  0.1382  0.5300  0.0004
17712SOL    HW165195   9.269   7.304   3.432  0.1772  1.8129 -0.3525
17712SOL    HW265196   9.421   7.358   3.406  0.3632  0.7987 -1.3932
17713SOL     OW65197   4.535   1.386   7.825  0.0603 -0.0840  0.2429
17713SOL    HW165198   4.558   1.353   7.917  1.9373 -2.3922 -1.0037
17713SOL    HW265199   4.599   1.457   7.799  1.8978 -2.0359 -0.7031
17714SOL     OW65200   4.176   2.973   4.673 -0.0791 -0.1132  0.3667
17714SOL    HW165201   4.175   3.045   4.741  1.0446 -1.5383  1.9259
17714SOL    HW265202   4.247   2.991   4.606  0.0290  0.3504  0.6063
17715SOL     OW65203   4.443   3.636   8.618  0.5231 -0.2410  0.1581
17715SOL    HW165204   4.439   3.733   8.642  0.5953  0.0837 -1.1001
17715SOL    HW265205   4.526   3.595   8.655  0.2090  0.0333  1.1883
17716SOL     OW65206   4.855   1.875   9.224 -0.1905  0.1073 -0.6212
17716SOL    HW165207   4.882   1.788   9.184  0.0140 -0.3474  0.4847
17716SOL    HW265208   4.803   1.859   9.308  0.0146  1.0474 -0.3041
17717SOL     OW65209   3.421   5.599   5.870  0.3023 -0.0702  0.0999
17717SOL    HW165210   3.444   5.690   5.906 -4.9105  1.7137 -0.7262
17717SOL    HW265211   3.447   5.593   5.774 -2.3942  1.8926 -0.8078
17718SOL     OW65212   6.606   9.610   9.599  0.1598 -0.4302 -0.1709
17718SOL    HW165213   6.638   9.666   9.676 -0.9289  0.8349 -0.6182
17718SOL    HW265214   6.579   9.670   9.524 -2.0294 -1.4977 -0.2742
17719SOL     OW65215   3.623   0.611   7.510  0.2494 -0.0101 -0.2106
17719SOL    HW165216   3.703   0.671   7.511 -0.3485  0.8247 -1.2647
17719SOL    HW265217   3.653   0.515   7.518  1.2196  0.3984  1.3002
17720SOL     OW65218   2.677   1.755   5.072  0.3522 -0.3406  0.4867
17720SOL    HW165219   2.758   1.740   5.128  0.2831  0.6393  0.8563
17720SOL    HW265220   2.611   1.809   5.123 -0.4040 -0.8553  0.0648
17721SOL     OW65221   7.804   8.078   4.314  0.0620 -0.3071 -0.0039
17721SOL    HW165222   7.902   8.058   4.304  0.0775 -0.5380  0.6069
17721SOL    HW265223   7.767   8.027   4.391 -0.7346 -0.8781 -0.7542
17722SOL     OW65224   7.024   2.793   8.719 -1.0729 -0.5950 -0.1629
17722SOL    HW165225   7.120   2.823   8.717 -1.2886  0.0964 -1.7432
17722SOL    HW265226   6.996   2.775   8.813  1.2574 -2.9306  0.1376
17723SOL     OW65227   0.404   8.379   7.984 -0.1337 -0.2271  0.0650
17723SOL    HW165228   0.366   8.471   7.985 -2.6128 -1.2067 -0.4764
17723SOL    HW265229   0.376   8.331   8.068 -1.6112 -1.5259 -1.1330
17724SOL     OW65230   8.686   4.120   2.312  0.2571 -0.1967 -0.0293
17724SOL    HW165231   8.672   4.054   2.387  1.5674  1.2738  1.5548
17724SOL    HW265232   8.759   4.086   2.252 -0.1531 -0.9422 -0.1176
17725SOL     OW65233   6.737   8.074   6.670 -0.2253 -0.1142 -0.3863
17725SOL    HW165234   6.724   8.110   6.578  1.4083 -0.4927 -0.7870
17725SOL    HW265235   6.750   8.150   6.734  0.3285  0.1102 -0.7581
17726SOL     OW65236   3.960   7.838   2.369  0.0533 -0.0232 -0.0833
17726SOL    HW165237   4.046   7.821   2.321 -1.3246 -0.6371 -2.3974
17726SOL    HW265238   3.959   7.786   2.454  2.3369  0.6945  0.4204
17727SOL     OW65239   3.375   3.211   8.738  0.0243  0.2784 -0.2839
17727SOL    HW165240   3.406   3.157   8.816  0.2269  0.0854 -0.4991
17727SOL    HW265241   3.386   3.309   8.759  1.2199  0.2037 -0.5479
17728SOL     OW65242   8.709   1.339   6.816  0.0013  0.3592 -0.2736
17728SOL    HW165243   8.675   1.391   6.738 -0.5464  0.4970  0.0519
17728SOL    HW265244   8.632   1.294   6.862  0.1616  1.2377  0.8821
17729SOL     OW65245   2.980   8.840   9.777  0.4693  0.3479  0.4656
17729SOL    HW165246   3.004   8.776   9.704  2.9836  2.1945 -0.3733
17729SOL    HW265247   3.054   8.846   9.843  0.1965  2.2099  0.6503
17730SOL     OW65248   2.821   9.728   0.382  0.0108 -0.2353  0.6307
17730SOL    HW165249   2.886   9.751   0.455 -0.3527 -2.4371  1.7043
17730SOL    HW265250   2.871   9.692   0.303  0.4892  3.0468 -0.6449
17731SOL     OW65251   4.244   7.162   1.010 -0.0910 -1.2869 -0.1392
17731SOL    HW165252   4.296   7.103   1.072  2.3196 -0.1905 -1.0256
17731SOL    HW265253   4.280   7.255   1.015 -2.4199 -0.3457 -0.3528
17732SOL     OW65254   9.558   5.447   2.419  0.9989  0.4281 -0.0907
17732SOL    HW165255   9.510   5.418   2.337  0.8856 -0.4038  0.2586
17732SOL    HW265256   9.509   5.413   2.500 -0.0132  2.9660  0.3821
17733SOL     OW65257   8.711   5.158   5.779  0.3221 -0.4337 -0.2430
17733SOL    HW165258   8.810   5.169   5.774  0.4629  0.5551  3.3935
17733SOL    HW265259   8.669   5.247   5.799 -1.0632 -1.2741  0.6517
17734SOL     OW65260   5.058   7.744   9.015  0.2291  0.3482 -0.0506
17734SOL    HW165261   5.101   7.705   8.934  1.0865 -1.6328  1.3144
17734SOL    HW265262   5.118   7.733   9.094 -1.1299  1.0792  1.1306
17735SOL     OW65263   3.999   4.526   8.463 -0.3536 -0.2419 -0.2282
17735SOL    HW165264   3.995   4.428   8.446 -0.7096 -0.1712 -0.5523
17735SOL    HW265265   3.991   4.576   8.377  0.4675  0.0591 -0.1356
17736SOL     OW65266   2.115   2.883   2.404  0.3503 -0.5868 -0.1501
17736SOL    HW165267   2.122   2.784   2.402  1.4616 -0.5055 -1.1033
17736SOL    HW265268   2.026   2.912   2.369 -1.0557 -1.3323  2.6870
17737SOL     OW65269   0.778   2.826   7.013  0.0790 -0.4263  0.7276
17737SOL    HW165270   0.862   2.773   7.024 -0.2054 -1.2355 -0.9265
17737SOL    HW265271   0.800   2.916   6.974  0.1955 -0.5368  0.5412
17738SOL     OW65272   4.796   5.148   5.772 -0.6428  0.3115  0.4930
17738SOL    HW165273   4.751   5.099   5.697  0.4763  1.5541 -1.0051
17738SOL    HW265274   4.840   5.082   5.833  0.0106 -0.6075 -0.9563
17739SOL     OW65275   9.071   4.173   7.870 -0.4129  0.1706 -0.3767
17739SOL    HW165276   9.027   4.249   7.918 -0.3335  0.7380 -1.1834
17739SOL    HW265277   9.002   4.105   7.845 -0.6341  0.4317 -0.4816
17740SOL     OW65278   7.359   6.312   4.814 -0.1348  0.4372 -0.1985
17740SOL    HW165279   7.329   6.246   4.882  0.3858 -0.1571 -0.5341
17740SOL    HW265280   7.303   6.395   4.820 -1.9818 -0.7064 -0.9413
17741SOL     OW65281   1.257   9.604   1.540  0.0268  0.1257 -0.6681
17741SOL    HW165282   1.340   9.569   1.584 -0.8372  1.0652  1.7304
17741SOL    HW265283   1.230   9.690   1.582 -3.0346 -0.9030 -0.3915
17742SOL     OW65284   3.025   5.659   8.768 -0.2392  0.6187  0.1318
17742SOL    HW165285   3.095   5.697   8.829 -0.5775  0.9423  0.3176
17742SOL    HW265286   3.026   5.559   8.775  0.1417  0.6248  0.2041
17743SOL     OW65287   5.985   9.945   8.306 -0.3929  0.0877 -0.2597
17743SOL    HW165288   5.921  10.020   8.321 -0.4349 -0.0508  0.2711
17743SOL    HW265289   6.005   9.901   8.393  1.2343  0.7947 -0.2473
17744SOL     OW65290   1.425   6.898   0.671  0.0544  0.0246  0.0154
17744SOL    HW165291   1.415   6.940   0.760  0.7024 -0.1542  0.1781
17744SOL    HW265292   1.513   6.850   0.667  0.2090  0.3720 -0.8529
17745SOL     OW65293   3.188   3.584   9.887  0.3596  0.0682  0.3582
17745SOL    HW165294   3.258   3.558   9.821  1.3595  0.2339  1.3401
17745SOL    HW265295   3.181   3.683   9.891  0.2313  0.0570  0.4270
17746SOL     OW65296   1.132   5.528   5.605 -0.0226  0.2413  0.0479
17746SOL    HW165297   1.074   5.603   5.637 -1.3428  0.1116 -1.9581
17746SOL    HW265298   1.190   5.497   5.680 -1.2073  1.6305  1.5869
17747SOL     OW65299   6.052   3.551   9.152  0.1263  0.0856  0.4871
17747SOL    HW165300   6.093   3.614   9.218  0.4586 -0.4388  0.7851
17747SOL    HW265301   5.953   3.550   9.164 -0.0158  1.6222 -0.4647
17748SOL     OW65302   4.563   4.091   9.291  0.6238  0.3110 -0.4278
17748SOL    HW165303   4.591   4.186   9.272  0.5182  0.3403 -0.4351
17748SOL    HW265304   4.631   4.047   9.350 -0.0574  0.8394  0.7709
17749SOL     OW65305   8.856   1.592   6.203 -0.3016  0.1905 -0.2442
17749SOL    HW165306   8.801   1.674   6.187  0.3632  0.6340 -0.2603
17749SOL    HW265307   8.822   1.517   6.146 -1.6174  0.1376  0.5955
17750SOL     OW65308   6.954   3.095   8.142  0.0475 -0.1283 -0.5970
17750SOL    HW165309   7.017   3.023   8.170 -0.5287 -0.5720 -0.4306
17750SOL    HW265310   6.919   3.076   8.051  0.7855  0.5515 -1.0366
17751SOL     OW65311   0.474   4.116   6.809 -0.9228  0.2197 -0.2110
17751SOL    HW165312   0.441   4.026   6.838  1.6315 -0.9032 -0.6416
17751SOL    HW265313   0.479   4.176   6.889 -0.2975 -0.7855  0.5200
17752SOL     OW65314   1.065   2.840   6.642 -0.3200  0.9534 -0.4186
17752SOL    HW165315   1.116   2.840   6.728  0.2072 -1.8485 -0.6728
17752SOL    HW265316   0.969   2.819   6.661  0.2896 -2.3369 -0.6985
17753SOL     OW65317   6.074   2.428   8.046  0.0525  0.4903  0.3867
17753SOL    HW165318   6.009   2.362   8.008  0.0870  0.3888  0.5069
17753SOL    HW265319   6.140   2.381   8.104  2.6326 -0.0087 -2.8216
17754SOL     OW65320   9.088   9.769   3.917  0.0547 -0.4712 -0.2870
17754SOL    HW165321   9.030   9.767   3.835  0.1928  1.0667 -0.4505
17754SOL    HW265322   9.114   9.676   3.942 -1.2967 -1.0726 -1.0573
17755SOL     OW65323   1.833   3.664   8.654  0.1437 -0.5338  0.5322
17755SOL    HW165324   1.856   3.691   8.747  0.7975 -1.2036  0.5676
17755SOL    HW265325   1.864   3.734   8.590 -1.4441  0.5540  0.8998
17756SOL     OW65326   5.525   7.137   6.458  0.1150 -0.4183  0.5596
17756SOL    HW165327   5.493   7.079   6.383 -2.2562 -0.9585  1.9236
17756SOL    HW265328   5.553   7.226   6.423 -0.9808 -0.6614 -0.9489
17757SOL     OW65329   7.402   3.229   8.517 -0.3148 -0.2287 -0.1764
17757SOL    HW165330   7.451   3.306   8.558 -1.3396  0.4380 -0.1625
17757SOL    HW265331   7.398   3.154   8.583  0.7056 -0.2958 -0.1915
17758SOL     OW65332   6.498   4.242   6.816 -0.1328 -0.1520  0.0403
17758SOL    HW165333   6.458   4.182   6.884  0.6814  0.5598  1.1784
17758SOL    HW265334   6.427   4.274   6.753 -0.8720 -0.9058  0.4823
17759SOL     OW65335   6.515   5.630   6.240 -0.0849  0.6265 -0.1546
17759SOL    HW165336   6.518   5.723   6.277  0.2886  1.7474 -2.8745
17759SOL    HW265337   6.587   5.619   6.172  1.3701 -2.4345  1.7452
17760SOL     OW65338   2.804   6.150   0.780  0.1689 -0.0098 -0.0767
17760SOL    HW165339   2.893   6.194   0.768  1.2877 -1.6297  2.0321
17760SOL    HW265340   2.809   6.055   0.749 -0.6677 -0.2788  0.5791
17761SOL     OW65341   8.484   4.177   7.368  0.0090 -0.1328 -0.0846
17761SOL    HW165342   8.548   4.223   7.307  0.3611 -1.2178 -0.5564
17761SOL    HW265343   8.427   4.244   7.415  1.3823  0.8439  0.2048
17762SOL     OW65344   8.580   2.450   1.604 -0.0713 -0.4490 -0.2325
17762SOL    HW165345   8.497   2.394   1.603  0.5329 -1.3355 -0.9081
17762SOL    HW265346   8.631   2.432   1.688 -1.5114  1.5243  1.1159
17763SOL     OW65347   8.813   1.839   9.242 -0.0730  0.2513  0.1198
17763SOL    HW165348   8.722   1.805   9.219  0.2506  0.5634 -1.7677
17763SOL    HW265349   8.880   1.765   9.236 -0.0224  0.2832  0.2778
17764SOL     OW65350   4.889   1.938   0.187 -0.5023  0.4138 -0.1339
17764SOL    HW165351   4.900   2.028   0.145  3.1072  1.9637  3.8305
17764SOL    HW265352   4.846   1.949   0.277 -0.9511 -1.9745 -0.0361
17765SOL     OW65353   8.909   4.513   1.140  0.1539 -0.1513  0.1564
17765SOL    HW165354   8.823   4.547   1.177  0.5936  0.5461  0.5654
17765SOL    HW265355   8.947   4.443   1.201  0.4557  0.3878  0.5941
17766SOL     OW65356   2.440   9.650   9.676  0.1262 -0.0772  0.5951
17766SOL    HW165357   2.452   9.619   9.770 -0.0744 -0.2066  0.5770
17766SOL    HW265358   2.485   9.587   9.613  1.8268  0.9696  0.7287
17767SOL     OW65359   3.509   6.234   2.574 -0.2448 -0.1328 -0.0034
17767SOL    HW165360   3.479   6.328   2.591  1.6497  0.5787 -0.4954
17767SOL    HW265361   3.459   6.196   2.496  1.4823  1.7315 -2.0813
17768SOL     OW65362   2.363   6.118   0.861  0.2796 -0.3457 -0.2334
17768SOL    HW165363   2.295   6.174   0.908 -0.0889  0.7695 -2.0611
17768SOL    HW265364   2.453   6.160   0.871  0.4834 -1.0664  0.9865
17769SOL     OW65365   3.390   6.611   8.198 -0.0567  0.0315  0.9524
17769SOL    HW165366   3.418   6.706   8.193  1.1194 -0.4059 -1.3041
17769SOL    HW265367   3.290   6.606   8.208 -0.0429  1.4850  1.9434
17770SOL     OW65368   8.037   5.471   5.182 -0.2652  0.0599  0.0956
17770SOL    HW165369   7.949   5.452   5.138 -0.8303  0.3919  1.0715
17770SOL    HW265370   8.098   5.393   5.168 -1.3665 -1.0065  1.0248
17771SOL     OW65371   4.187   9.697   8.033 -0.1618 -0.2991 -0.1478
17771SOL    HW165372   4.265   9.708   8.095 -0.9279 -1.5373  1.0655
17771SOL    HW265373   4.102   9.711   8.084 -0.7567  0.0091 -1.2270
17772SOL     OW65374   9.233   5.605   5.911 -0.1088  0.0373 -0.2499
17772SOL    HW165375   9.144   5.641   5.940 -0.0366  0.7140 -0.8536
17772SOL    HW265376   9.302   5.677   5.917  0.3584 -0.4346  0.0292
17773SOL     OW65377   3.028   2.813   6.308 -0.1652  0.6870  0.4187
17773SOL    HW165378   3.059   2.903   6.339 -0.4920  0.6779  0.7779
17773SOL    HW265379   2.990   2.762   6.385 -0.6878  0.5388  0.0704
17774SOL     OW65380   6.645   9.479   8.670  0.2036 -0.8721  0.1446
17774SOL    HW165381   6.640   9.469   8.770  0.6763 -0.5655  0.2020
17774SOL    HW265382   6.652   9.576   8.647 -0.4829 -0.9065 -0.2162
17775SOL     OW65383   6.792   6.412   5.399  0.1738 -0.3673 -0.5103
17775SOL    HW165384   6.729   6.462   5.458  1.8443  0.6111  0.4955
17775SOL    HW265385   6.816   6.469   5.321  1.4563  0.1253  0.2221
17776SOL     OW65386   7.472   4.464   4.740  0.3817 -0.9063 -0.3059
17776SOL    HW165387   7.521   4.407   4.807 -0.6801 -1.3439  0.1281
17776SOL    HW265388   7.475   4.419   4.651 -1.7557 -2.4620  0.3576
17777SOL     OW65389   3.962   3.182   1.429 -0.3085 -0.2019  0.0033
17777SOL    HW165390   4.035   3.249   1.420 -0.5562 -0.1646 -2.1007
17777SOL    HW265391   3.874   3.229   1.438 -0.3905 -0.2191 -0.6348
17778SOL     OW65392   6.739   2.584   9.296  0.4593  0.6078  0.3487
17778SOL    HW165393   6.715   2.681   9.295  1.0353  0.7970 -2.7928
17778SOL    HW265394   6.669   2.533   9.346 -0.5155  2.4817  0.9528
17779SOL     OW65395   6.778   8.785   5.123 -0.2830  0.3318  0.2058
17779SOL    HW165396   6.818   8.816   5.037  0.8892  0.0970  0.6607
17779SOL    HW265397   6.701   8.844   5.147  0.1513  1.1434 -0.3812
17780SOL     OW65398   5.429   8.595   8.205 -0.7379  0.4688  0.3448
17780SOL    HW165399   5.403   8.682   8.247  0.1898  1.3082 -0.7569
17780SOL    HW265400   5.528   8.594   8.189 -0.9756 -0.0813 -1.2029
17781SOL     OW65401   1.600   9.839   1.217  0.2196  0.2893  0.0841
17781SOL    HW165402   1.501   9.828   1.220  0.1082  1.5895  1.6192
17781SOL    HW265403   1.626   9.888   1.133 -0.4338  0.0561 -0.2565
17782SOL     OW65404   1.566   1.966   5.770  0.0166  0.6966 -0.1059
17782SOL    HW165405   1.567   1.868   5.792  1.4500  0.6871 -0.1491
17782SOL    HW265406   1.475   2.003   5.786 -0.4352 -0.5680  0.2928
17783SOL     OW65407   1.527   9.902   6.745  0.2245 -0.2824 -0.0439
17783SOL    HW165408   1.624   9.881   6.760  0.1932 -0.0089  0.5716
17783SOL    HW265409   1.484   9.923   6.833 -0.1904  0.4452 -0.4151
17784SOL     OW65410   6.107   7.122   0.649 -0.0677 -0.2423  0.8544
17784SOL    HW165411   6.153   7.113   0.561  0.0526 -0.2558  0.9194
17784SOL    HW265412   6.122   7.214   0.685  2.2023 -1.1142  2.1810
17785SOL     OW65413   0.113   5.980   7.351  0.2851  0.2331 -0.0524
17785SOL    HW165414   0.070   5.951   7.266  0.8847  0.2431 -0.3592
17785SOL    HW265415   0.092   5.914   7.423 -1.0908  0.7757  0.0466
17786SOL     OW65416   5.785   2.020   9.538 -0.4820  0.0917  0.0182
17786SOL    HW165417   5.880   2.031   9.567 -1.0279 -0.2895  2.0618
17786SOL    HW265418   5.755   2.102   9.490  1.0524 -0.0363 -1.1914
17787SOL     OW65419   3.238   7.062   1.783 -0.4034  0.4275 -0.2483
17787SOL    HW165420   3.241   7.150   1.830 -2.6161  1.0198 -1.1687
17787SOL    HW265421   3.280   6.992   1.842  3.4287  2.4315 -0.4138
17788SOL     OW65422   7.910   4.135   0.031  0.8698  0.0746 -0.3574
17788SOL    HW165423   8.009   4.146   0.027  0.9373 -0.4065 -0.0229
17788SOL    HW265424   7.877   4.170   0.119  0.6662  0.8142 -0.7233
17789SOL     OW65425   3.438   0.197   8.931  0.0583  0.3189  0.0310
17789SOL    HW165426   3.426   0.205   9.030  1.4555  0.8017  0.1743
17789SOL    HW265427   3.526   0.153   8.911 -0.9150 -1.2026 -0.9817
17790SOL     OW65428   6.092   0.214   8.873  0.1767 -0.0954  0.0205
17790SOL    HW165429   6.175   0.224   8.818 -0.8417 -0.3556 -1.6201
17790SOL    HW265430   6.019   0.271   8.834 -0.7665 -0.8326  0.6822
17791SOL     OW65431   5.510   4.859   7.920  0.5599 -0.0465  0.1061
17791SOL    HW165432   5.528   4.841   8.016  0.8137 -1.1421 -0.1438
17791SOL    HW265433   5.470   4.950   7.910  0.5228  0.0631  1.2440
17792SOL     OW65434   9.613   1.034   4.987  0.6811 -0.4068 -0.0367
17792SOL    HW165435   9.587   1.127   5.011  0.5745 -1.1370  2.8464
17792SOL    HW265436   9.688   1.004   5.045  0.1856 -2.4066 -0.3844
17793SOL     OW65437   4.940   1.973   7.602 -0.2476  0.0471  0.5480
17793SOL    HW165438   4.846   1.939   7.598  0.1559 -1.3179  1.7608
17793SOL    HW265439   4.968   1.982   7.698  1.1707 -0.5408  0.2167
17794SOL     OW65440   5.271   1.024   9.428  0.2318 -0.1372 -0.4832
17794SOL    HW165441   5.354   1.020   9.372  0.9612  1.4512  0.4402
17794SOL    HW265442   5.242   1.119   9.437 -0.9295 -0.5565  0.3171
17795SOL     OW65443   5.661   5.584   6.843 -0.2252  0.4885 -0.3057
17795SOL    HW165444   5.587   5.650   6.838 -1.0726 -0.4717 -0.5203
17795SOL    HW265445   5.668   5.548   6.936 -2.0130 -1.6487 -0.9472
17796SOL     OW65446   4.018   2.887   1.321  0.3816  0.5180  0.0163
17796SOL    HW165447   4.117   2.885   1.333  0.2283 -0.7021  1.1365
17796SOL    HW265448   3.986   2.982   1.324  1.3821  0.8387  0.7701
17797SOL     OW65449   5.901   9.808   0.295 -0.2893 -0.8029  0.2992
17797SOL    HW165450   5.884   9.896   0.251  1.1328 -0.6781 -0.0264
17797SOL    HW265451   5.846   9.737   0.251 -1.0422 -0.1757  0.2211
17798SOL     OW65452   5.602   2.747   0.191 -0.0010  0.5351 -0.1965
17798SOL    HW165453   5.591   2.654   0.229 -1.1180  0.8370  0.2422
17798SOL    HW265454   5.530   2.764   0.124  0.1001  1.1525 -0.1489
17799SOL     OW65455   1.728   0.953   4.483  0.3333 -0.4319 -0.9803
17799SOL    HW165456   1.713   0.930   4.579 -0.1044 -1.1885 -1.2286
17799SOL    HW265457   1.792   1.030   4.477 -0.5327  0.3764 -0.0480
17800SOL     OW65458   8.409   7.082   7.155 -0.0341 -0.2222  0.0789
17800SOL    HW165459   8.456   7.081   7.067  0.7900 -0.1712  0.5163
17800SOL    HW265460   8.361   6.995   7.168 -0.2454 -0.1898 -0.4623
17801SOL     OW65461   9.138   9.011   7.981  0.0648  0.0436 -0.2851
17801SOL    HW165462   9.124   9.108   8.000  0.3220 -0.0328  0.3076
17801SOL    HW265463   9.236   8.990   7.981  0.2035  0.4038 -3.5755
17802SOL     OW65464   2.776   5.191   9.182 -0.3884  0.2375 -0.2880
17802SOL    HW165465   2.730   5.167   9.096  4.0477  2.1287 -3.3631
17802SOL    HW265466   2.783   5.291   9.189  2.0661  0.0174  0.7016
17803SOL     OW65467   2.961   9.807   1.550  0.1766 -0.4200  0.0810
17803SOL    HW165468   2.928   9.865   1.625  1.7467  1.2699 -0.5027
17803SOL    HW265469   3.027   9.742   1.586  1.6052  0.9772  0.0578
17804SOL     OW65470   7.625   2.673   9.865  0.7614 -0.4420 -0.1119
17804SOL    HW165471   7.637   2.684   9.766 -0.1529 -1.2958 -0.3242
17804SOL    HW265472   7.576   2.588   9.883 -0.7402  0.6363  0.9771
17805SOL     OW65473   3.283   8.322   9.007 -0.4114  0.1272  0.0311
17805SOL    HW165474   3.371   8.274   9.004  0.6498  2.0043  0.6414
17805SOL    HW265475   3.213   8.261   9.045  0.3021 -1.8411 -1.6778
17806SOL     OW65476   8.358   8.571   8.727 -0.6036 -0.2449 -0.1884
17806SOL    HW165477   8.378   8.640   8.658  1.6053  1.0282  1.6781
17806SOL    HW265478   8.395   8.483   8.697 -0.0768  0.1957 -0.8450
17807SOL     OW65479   0.995   2.740   2.321 -0.0767  0.2422  0.4462
17807SOL    HW165480   0.911   2.686   2.333 -1.0246  2.0580  2.2607
17807SOL    HW265481   1.065   2.683   2.280 -0.9663 -2.4895  2.5576
17808SOL     OW65482   8.739   0.148   8.627 -0.0269 -0.0235 -0.3194
17808SOL    HW165483   8.755   0.188   8.717 -0.3975 -1.4518  0.3902
17808SOL    HW265484   8.822   0.100   8.597 -0.5188 -1.1884  0.1312
17809SOL     OW65485   4.055   7.005   2.998 -0.1569 -0.2669 -0.2963
17809SOL    HW165486   3.996   7.031   2.921  0.7896  0.5900 -0.7513
17809SOL    HW265487   4.022   7.049   3.082  0.8524  1.6949 -0.8836
17810SOL     OW65488   8.894   6.785   5.278 -0.1019 -0.6925  0.1395
17810SOL    HW165489   8.895   6.771   5.179  0.7544  0.9743 -0.0992
17810SOL    HW265490   8.951   6.716   5.322  1.6301  0.1474 -0.7566
17811SOL     OW65491   7.468   6.699   6.416 -0.7937 -0.2219 -0.1527
17811SOL    HW165492   7.466   6.652   6.327  1.4253  0.9688 -0.8659
17811SOL    HW265493   7.515   6.643   6.483 -0.4735 -0.1427 -0.3138
17812SOL     OW65494   2.576   8.088   8.931 -0.1669 -0.2453  0.4215
17812SOL    HW165495   2.488   8.062   8.891 -0.0624 -1.2306  0.8144
17812SOL    HW265496   2.615   8.009   8.979  1.0997  0.0683 -0.0673
17813SOL     OW65497   6.573   3.588   2.329 -0.1555  0.3199 -0.2345
17813SOL    HW165498   6.486   3.627   2.299  0.4572  1.0416 -1.1000
17813SOL    HW265499   6.639   3.661   2.345  0.1518 -0.1972  0.8878
17814SOL     OW65500   7.315   2.230   8.770 -0.2472 -0.1026 -0.6786
17814SOL    HW165501   7.259   2.312   8.756  0.3312  0.4612  0.2393
17814SOL    HW265502   7.257   2.153   8.797 -0.6797  0.2501 -0.6027
17815SOL     OW65503   2.679   5.091   1.105  0.0510 -0.1210 -0.1761
17815SOL    HW165504   2.633   5.040   1.177 -1.4165 -1.1353 -1.7933
17815SOL    HW265505   2.717   5.176   1.143  0.9650 -1.5195  2.1538
17816SOL     OW65506   2.155   1.487   9.631 -0.2790 -0.6486 -0.0284
17816SOL    HW165507   2.200   1.421   9.572  2.5283  1.5696 -0.4908
17816SOL    HW265508   2.108   1.556   9.575  0.1646 -0.0193  0.3709
17817SOL     OW65509   3.096   2.266   9.205  0.1236 -0.6172 -0.2750
17817SOL    HW165510   3.096   2.222   9.294 -0.9389  0.1595  0.1277
17817SOL    HW265511   3.176   2.237   9.153  1.9682  0.6434  1.7710
17818SOL     OW65512   8.526   3.954   6.892 -0.0215 -0.2055 -0.8186
17818SOL    HW165513   8.525   4.016   6.970 -1.1562 -0.8405 -0.3180
17818SOL    HW265514   8.598   3.982   6.829  0.1207  1.0314 -0.1340
17819SOL     OW65515   5.349   6.896   4.187  0.3202  0.7297 -0.0232
17819SOL    HW165516   5.337   6.832   4.263  0.5929  1.1341  0.3615
17819SOL    HW265517   5.441   6.884   4.148 -0.0747  0.0353 -0.7359
17820SOL     OW65518   3.619   4.217   0.988  0.3034 -0.2821  0.3143
17820SOL    HW165519   3.545   4.231   0.923  1.3928 -0.3606 -0.9803
17820SOL    HW265520   3.585   4.225   1.081 -1.3097 -0.2862 -0.2716
17821SOL     OW65521   6.138   5.016   9.497 -0.2765  0.0537 -0.5450
17821SOL    HW165522   6.142   5.041   9.594  0.2065  1.1656 -0.8393
17821SOL    HW265523   6.080   5.081   9.448 -0.0649 -0.1724 -1.1053
17822SOL     OW65524   8.473   4.454   9.475 -0.0051  0.5139  0.4493
17822SOL    HW165525   8.554   4.474   9.530  0.4198  0.4165 -0.1302
17822SOL    HW265526   8.502   4.430   9.382 -0.5963 -1.0423  0.6527
17823SOL     OW65527   5.455   7.347   2.857 -0.1103 -0.1994 -0.1588
17823SOL    HW165528   5.388   7.316   2.789  1.0094  0.4952 -1.5982
17823SOL    HW265529   5.493   7.435   2.829  1.1937 -0.4389  0.8058
17824SOL     OW65530   0.779   0.622   4.669  0.2457  0.4476  0.0586
17824SOL    HW165531   0.857   0.618   4.731  0.5883 -0.4354 -0.4165
17824SOL    HW265532   0.735   0.711   4.676  1.4208  1.0211  0.1892
17825SOL     OW65533   5.192   8.967   8.140  0.2517 -0.3997  0.2971
17825SOL    HW165534   5.249   8.980   8.059 -1.2003 -0.1393 -0.6969
17825SOL    HW265535   5.170   8.870   8.150  0.1113 -0.3829  0.1511
17826SOL     OW65536   4.550   2.419   8.116 -0.0416 -0.0824 -0.1434
17826SOL    HW165537   4.496   2.336   8.105 -1.1141  0.6555 -0.6072
17826SOL    HW265538   4.488   2.496   8.137  0.7477  0.9322 -1.4940
17827SOL     OW65539   4.118   6.238   8.683 -0.1640  0.1530  0.0269
17827SOL    HW165540   4.040   6.262   8.740 -0.4349  0.9077 -0.6573
17827SOL    HW265541   4.202   6.274   8.724 -0.1724 -0.6533  0.7562
17828SOL     OW65542   2.118   2.825   9.072 -0.0930 -0.1279 -0.5209
17828SOL    HW165543   2.121   2.896   9.002  1.2932  1.6019  1.2373
17828SOL    HW265544   2.050   2.849   9.142 -0.4722 -1.1536 -0.5151
17829SOL     OW65545   7.416   9.605   3.141  0.2859 -0.0324  0.1575
17829SOL    HW165546   7.492   9.554   3.100  1.1173  1.3688 -0.0845
17829SOL    HW265547   7.407   9.580   3.237  0.2431 -1.1365 -0.1285
17830SOL     OW65548   5.083   6.713   8.154 -0.1301 -0.3919 -0.2084
17830SOL    HW165549   5.056   6.675   8.066 -1.8075  2.3577 -0.9355
17830SOL    HW265550   5.133   6.798   8.140 -0.2859  0.0023  1.4892
17831SOL     OW65551   3.457   2.597   0.460 -0.2849  0.5983  0.3092
17831SOL    HW165552   3.382   2.538   0.431  0.6810 -1.4505  1.8988
17831SOL    HW265553   3.543   2.545   0.459  1.0859  2.7867 -1.0893
17832SOL     OW65554   5.182   3.737   1.814 -0.6798  0.3643 -0.1594
17832SOL    HW165555   5.201   3.649   1.770 -0.5806 -0.1664  0.9256
17832SOL    HW265556   5.265   3.769   1.860 -0.7909  0.9056 -0.3372
17833SOL     OW65557   8.248   4.635   6.142  0.1400 -0.4435  0.5465
17833SOL    HW165558   8.329   4.688   6.116  0.2077 -0.3149  1.0191
17833SOL    HW265559   8.260   4.599   6.234 -0.0638 -0.9808  0.3645
17834SOL     OW65560   3.658   5.793   1.677  0.0723 -0.2724  0.0117
17834SOL    HW165561   3.640   5.877   1.625 -1.9051 -1.1535 -0.8121
17834SOL    HW265562   3.597   5.721   1.644  1.8236 -2.0776  0.6272
17835SOL     OW65563   2.931   6.978   0.231  0.9490  0.0951 -0.0066
17835SOL    HW165564   2.915   6.919   0.152  3.2060  1.3205 -1.4243
17835SOL    HW265565   3.019   6.955   0.274  0.3108  0.2513  1.4313
17836SOL     OW65566   6.870   2.899   6.203  0.5265  0.0311  0.1065
17836SOL    HW165567   6.889   2.991   6.239  2.5391 -0.3776  0.1538
17836SOL    HW265568   6.926   2.883   6.122  1.8570 -1.9517  1.3597
17837SOL     OW65569   8.294   4.761   5.156  0.7463 -0.3028  0.3809
17837SOL    HW165570   8.345   4.768   5.070  1.0801 -1.1791  0.5003
17837SOL    HW265571   8.267   4.852   5.186  0.9162  0.0378 -0.4825
17838SOL     OW65572   7.818   2.809   9.375 -0.2326 -0.6684  0.0875
17838SOL    HW165573   7.908   2.836   9.339 -0.3230  0.8167  0.9452
17838SOL    HW265574   7.748   2.870   9.338 -0.3965  0.5361  2.3451
17839SOL     OW65575   5.909   0.007   8.957 -0.0142  0.1390  0.0443
17839SOL    HW165576   5.929  -0.056   9.033 -0.8976  1.0395  1.0342
17839SOL    HW265577   5.994   0.053   8.930  0.6538 -1.4929 -0.7245
17840SOL     OW65578   3.695   4.667   0.926  0.1322  0.2576 -0.0747
17840SOL    HW165579   3.622   4.661   0.994 -1.5243  0.7432 -1.7822
17840SOL    HW265580   3.699   4.581   0.874  0.3161  0.5017 -0.4598
17841SOL     OW65581   2.657   4.461   6.513  0.1152  0.3413 -0.0064
17841SOL    HW165582   2.733   4.417   6.465  1.3255 -0.2196  2.3038
17841SOL    HW265583   2.601   4.513   6.449  0.8821 -1.4687 -2.1955
17842SOL     OW65584   6.623   7.560   5.451 -0.3750  0.1799  0.2300
17842SOL    HW165585   6.615   7.658   5.470 -0.9833 -0.1978  2.0322
17842SOL    HW265586   6.589   7.509   5.529  0.8528 -1.4787 -0.3011
17843SOL     OW65587   6.463   6.849   6.488  0.2866 -0.2787  0.3185
17843SOL    HW165588   6.443   6.765   6.437 -1.4505 -0.0747  0.6335
17843SOL    HW265589   6.548   6.888   6.455  0.4855 -1.5191 -0.6808
17844SOL     OW65590   3.706   8.018   9.628 -0.6909 -0.4030 -0.2521
17844SOL    HW165591   3.714   8.093   9.562 -0.3241 -0.7459 -0.6026
17844SOL    HW265592   3.635   8.040   9.695 -0.1981  0.4930 -0.0248
17845SOL     OW65593   7.594   1.985   9.875 -0.0083 -0.2210  1.0146
17845SOL    HW165594   7.590   2.007   9.778 -1.0043 -0.0785  1.0773
17845SOL    HW265595   7.684   1.947   9.898 -0.2469 -1.5881 -0.2472
17846SOL     OW65596   0.186   8.051   1.749 -0.2558  0.2302 -0.4329
17846SOL    HW165597   0.263   8.071   1.690  0.4579 -0.2126  0.3410
17846SOL    HW265598   0.213   8.061   1.845 -1.8737  2.6968 -0.1792
17847SOL     OW65599   7.211   1.486   8.842  0.0981 -0.1509 -0.3848
17847SOL    HW165600   7.160   1.400   8.832  2.9305 -1.5897 -3.0876
17847SOL    HW265601   7.295   1.469   8.894 -1.0016  1.7652  2.1374
17848SOL     OW65602   9.563   6.474   2.367 -0.3214  0.2337  0.4224
17848SOL    HW165603   9.472   6.447   2.398 -0.2734 -0.5800 -0.1292
17848SOL    HW265604   9.555   6.521   2.278 -0.2998  1.0954  0.8685
17849SOL     OW65605   9.769   2.932   3.994 -0.2800 -0.1490 -0.0781
17849SOL    HW165606   9.797   3.026   4.015  0.5392 -0.4520  0.1922
17849SOL    HW265607   9.792   2.911   3.899 -1.6312  0.3495 -0.5247
17850SOL     OW65608   8.410   2.473   4.250 -0.3146 -0.4166  0.2473
17850SOL    HW165609   8.386   2.391   4.198  0.6457 -0.5429  0.0020
17850SOL    HW265610   8.483   2.452   4.315 -1.3688 -0.2060  1.5209
17851SOL     OW65611   6.678   3.155   7.941 -0.1591 -0.5533  0.3980
17851SOL    HW165612   6.604   3.200   7.890  0.0986 -1.5014 -0.8032
17851SOL    HW265613   6.641   3.076   7.989 -0.0036 -0.7731  0.1504
17852SOL     OW65614   7.999   2.266   9.163 -0.0965 -0.3335  0.0018
17852SOL    HW165615   7.945   2.348   9.182 -0.2961 -0.3577 -0.4415
17852SOL    HW265616   7.993   2.204   9.240  0.2179  0.1576  0.4236
17853SOL     OW65617   2.584   2.884   9.808 -0.6142  0.2668  0.2984
17853SOL    HW165618   2.533   2.936   9.876 -0.2622 -0.8402  1.4142
17853SOL    HW265619   2.521   2.831   9.751 -0.7535 -0.6680  1.3161
17854SOL     OW65620   5.849   6.752   6.935 -0.3041  0.3812  0.7604
17854SOL    HW165621   5.822   6.690   6.862 -0.6797  2.6469 -1.0623
17854SOL    HW265622   5.945   6.734   6.959 -0.9464 -2.1691  1.6213
17855SOL     OW65623   4.806   7.300   9.644 -0.4690  0.5908  0.3364
17855SOL    HW165624   4.710   7.275   9.630 -0.4988  1.0287 -0.2718
17855SOL    HW265625   4.864   7.223   9.620 -0.6374  0.5395  0.0924
17856SOL     OW65626   7.491   8.931   4.566  1.0493 -0.3100 -0.3089
17856SOL    HW165627   7.511   9.028   4.581 -0.5529  0.0992 -0.6918
17856SOL    HW265628   7.549   8.876   4.626 -0.1177  1.0130  2.1562
17857SOL     OW65629   6.302   0.424   8.252  0.3420 -0.4249  0.1877
17857SOL    HW165630   6.243   0.395   8.178  2.0518 -1.7603 -0.6933
17857SOL    HW265631   6.382   0.471   8.215  0.6837 -0.1384  1.2522
17858SOL     OW65632   6.224   5.943   7.970 -0.3989 -0.2056 -0.3978
17858SOL    HW165633   6.303   5.995   8.002 -0.8062 -0.1516  0.5173
17858SOL    HW265634   6.178   5.899   8.048 -1.7848  0.4775 -0.8060
17859SOL     OW65635   5.890   2.131   0.754 -0.6303  0.3590  0.1014
17859SOL    HW165636   5.854   2.214   0.711  0.4894  0.6232 -0.3500
17859SOL    HW265637   5.815   2.079   0.795 -1.2722  1.9239  0.9492
17860SOL     OW65638   2.321   5.118   0.963 -0.4443 -0.2587 -0.0952
17860SOL    HW165639   2.287   5.211   0.976 -2.7436 -1.1402  0.4196
17860SOL    HW265640   2.319   5.070   1.051  0.1572 -0.9813 -0.4735
17861SOL     OW65641   1.081   0.643   3.560  0.2290  0.1237 -0.4926
17861SOL    HW165642   1.003   0.691   3.519 -0.5075 -1.1636 -0.6304
17861SOL    HW265643   1.051   0.596   3.643  1.0032  0.1092 -0.2170
17862SOL     OW65644   5.775   0.364   9.130 -0.0702  0.0498  0.5369
17862SOL    HW165645   5.768   0.450   9.081  0.5444 -0.9171 -1.2680
17862SOL    HW265646   5.787   0.382   9.228 -1.0490  1.9784  0.3086
17863SOL     OW65647   6.176   3.320   2.118  0.1259  0.9003  0.0851
17863SOL    HW165648   6.176   3.417   2.095 -0.8582  0.5407 -1.5229
17863SOL    HW265649   6.082   3.286   2.118  0.4905 -0.1314  0.2994
17864SOL     OW65650   6.301   0.271   2.942  0.2049 -0.2917  0.2965
17864SOL    HW165651   6.276   0.335   2.869  1.1690 -0.8031 -0.4883
17864SOL    HW265652   6.400   0.272   2.955  0.1883 -1.3369  0.5540
17865SOL     OW65653   3.183   4.591   8.284 -0.1585 -0.3974  0.1432
17865SOL    HW165654   3.145   4.648   8.356 -0.7321  1.5837 -1.6917
17865SOL    HW265655   3.261   4.637   8.243 -0.2048 -1.2488 -0.9213
17866SOL     OW65656   4.584   2.759   2.578 -0.1725 -0.0414  0.2550
17866SOL    HW165657   4.623   2.739   2.668  1.6166  0.2491 -0.4496
17866SOL    HW265658   4.625   2.843   2.542 -1.0265 -0.0483 -0.7491
17867SOL     OW65659   2.385   9.921   9.968  0.4432 -0.5854  0.0121
17867SOL    HW165660   2.352  10.014   9.985 -0.4820 -0.5230 -1.9673
17867SOL    HW265661   2.485   9.922   9.961  0.3236  0.5457 -1.6380
17868SOL     OW65662   5.894   6.355   8.043 -0.4719  0.2982  0.0018
17868SOL    HW165663   5.848   6.388   7.961  0.2065 -0.0788 -0.5404
17868SOL    HW265664   5.883   6.256   8.050 -0.1083  0.2605  0.0889
17869SOL     OW65665   4.134   1.736   0.585 -0.3622  0.2264 -0.2346
17869SOL    HW165666   4.108   1.821   0.539 -2.6215  1.6708  3.4224
17869SOL    HW265667   4.063   1.667   0.572  0.0861 -0.1304 -0.7978
17870SOL     OW65668   3.690   1.072   7.322 -0.3380 -0.0309  0.1865
17870SOL    HW165669   3.725   1.039   7.410 -1.0703  1.0561  0.8951
17870SOL    HW265670   3.735   1.158   7.299  0.5371 -0.7863 -0.9693
17871SOL     OW65671   8.286   3.620   9.183  0.3572 -0.3389 -0.3014
17871SOL    HW165672   8.303   3.522   9.167  1.4513 -0.1510 -0.3248
17871SOL    HW265673   8.275   3.635   9.281  1.9210 -0.2266 -0.1355
17872SOL     OW65674   8.050   0.019   5.399  0.1726 -0.1698  0.0938
17872SOL    HW165675   8.005  -0.062   5.438  0.0270 -0.1445 -0.0213
17872SOL    HW265676   8.008   0.041   5.311  0.5930 -0.3081 -0.1425
17873SOL     OW65677   4.112   1.265   8.747 -0.6994 -0.6331 -0.1504
17873SOL    HW165678   4.173   1.287   8.670  0.6856  0.1748  1.1494
17873SOL    HW265679   4.164   1.220   8.819 -1.2045  1.7123  1.7559
17874SOL     OW65680   4.060   7.623   1.438  0.5807 -0.1689  0.3805
17874SOL    HW165681   4.141   7.570   1.413  1.2822 -0.3557  2.9334
17874SOL    HW265682   4.057   7.706   1.381  1.6476 -0.9595 -0.8753
17875SOL     OW65683   4.611   6.801   8.510 -0.0257  0.5341  0.3999
17875SOL    HW165684   4.698   6.757   8.486 -0.3128  0.3491 -0.3310
17875SOL    HW265685   4.622   6.854   8.593  0.6935  0.2043  0.5171
17876SOL     OW65686   3.346   2.706   7.611  0.0726 -0.5191 -0.0206
17876SOL    HW165687   3.341   2.802   7.583 -0.4898 -0.7902 -0.8802
17876SOL    HW265688   3.441   2.678   7.617  0.2136 -0.3503 -1.3236
17877SOL     OW65689   4.161   2.751   6.562 -0.1403 -0.0019 -0.2943
17877SOL    HW165690   4.098   2.828   6.566  0.6797  0.7646 -1.9269
17877SOL    HW265691   4.181   2.719   6.655 -0.7485  1.5181  0.3658
17878SOL     OW65692   6.905   0.097   2.955  0.7244  0.7552  0.1201
17878SOL    HW165693   6.966   0.102   2.876 -0.4095 -0.7877 -0.8821
17878SOL    HW265694   6.958   0.071   3.036  1.6024  0.6723 -0.4674
17879SOL     OW65695   6.743   4.395   9.626  0.0442 -0.1192 -0.2051
17879SOL    HW165696   6.782   4.477   9.668  0.0244 -0.2691  0.1031
17879SOL    HW265697   6.814   4.348   9.574  0.4871 -0.8595  1.0676
17880SOL     OW65698   2.813   2.311   8.134 -0.1845 -0.1251  0.7557
17880SOL    HW165699   2.791   2.366   8.054  2.5475  0.6999  0.5090
17880SOL    HW265700   2.848   2.222   8.105  1.7021  0.5227  0.9634
17881SOL     OW65701   6.224   6.818   8.847  0.0597 -0.1167  0.0643
17881SOL    HW165702   6.183   6.896   8.801 -3.3190 -2.2425 -0.7026
17881SOL    HW265703   6.257   6.753   8.779 -0.1029 -0.8472  0.6743
17882SOL     OW65704   0.635   4.820   7.177 -0.5076  0.0655 -0.2576
17882SOL    HW165705   0.619   4.744   7.241  2.0532 -0.5793 -0.3279
17882SOL    HW265706   0.598   4.796   7.087 -0.1270 -0.9381 -0.1614
17883SOL     OW65707   3.870   0.878   1.410  0.4557  0.2200  0.9748
17883SOL    HW165708   3.771   0.867   1.407  0.4164  0.4085  1.4460
17883SOL    HW265709   3.899   0.943   1.340  0.3083 -0.2615  0.4689
17884SOL     OW65710   8.067   6.364   5.359 -0.1720 -0.5467  0.0235
17884SOL    HW165711   7.990   6.422   5.385  0.1452 -0.0819 -0.0748
17884SOL    HW265712   8.114   6.403   5.281 -0.1016 -1.0669 -0.1995
17885SOL     OW65713   8.214   2.131   1.095 -0.3057 -0.1669  0.2658
17885SOL    HW165714   8.130   2.163   1.051  0.9230  0.0790 -1.9886
17885SOL    HW265715   8.269   2.081   1.028  2.4269  1.7331  1.0127
17886SOL     OW65716   5.378   3.377   3.917 -0.1081  0.3452 -0.4345
17886SOL    HW165717   5.287   3.375   3.960 -0.4741 -0.5072 -1.2571
17886SOL    HW265718   5.443   3.420   3.981 -0.6803 -0.7616  0.9230
17887SOL     OW65719   4.637   3.694   2.770 -0.0130  0.7528  0.4351
17887SOL    HW165720   4.658   3.785   2.735 -0.6767  0.8484  0.2938
17887SOL    HW265721   4.604   3.636   2.695  2.1173 -0.1390  0.1380
17888SOL     OW65722   7.920   4.324   4.718 -0.5870 -0.2799 -0.1442
17888SOL    HW165723   7.822   4.319   4.700 -0.2626 -0.8525 -1.8458
17888SOL    HW265724   7.970   4.280   4.644  0.9519 -0.3156  0.8825
17889SOL     OW65725   1.806   6.899   7.319  0.0850 -0.5278 -0.1223
17889SOL    HW165726   1.793   6.861   7.228 -0.2679 -0.0858 -0.2564
17889SOL    HW265727   1.890   6.862   7.359  0.8514  0.1416 -1.0762
17890SOL     OW65728   7.126   2.230   7.020  0.5207 -0.3070 -0.0417
17890SOL    HW165729   7.164   2.146   6.981  1.4358 -0.0056  0.1993
17890SOL    HW265730   7.080   2.282   6.948  0.5990 -0.6530 -0.3424
17891SOL     OW65731   4.303   6.786   3.228 -0.1387 -0.1680  0.6576
17891SOL    HW165732   4.268   6.692   3.227 -0.6545  0.0340 -0.1148
17891SOL    HW265733   4.379   6.792   3.293  0.2177 -1.2360  0.3444
17892SOL     OW65734   5.100   1.013   1.502 -0.6267  0.2315 -0.3193
17892SOL    HW165735   5.084   1.051   1.593  1.4786  0.9009 -0.1833
17892SOL    HW265736   5.197   1.024   1.479 -0.9760 -0.6950 -2.2948
17893SOL     OW65737   8.790   2.382   9.301 -0.7375  0.0369  0.2582
17893SOL    HW165738   8.795   2.442   9.381  1.3234  0.0634  0.1199
17893SOL    HW265739   8.797   2.287   9.331 -2.8677 -0.1217  0.3618
17894SOL     OW65740   2.443   1.980   2.799  0.1769  0.2033 -0.2950
17894SOL    HW165741   2.399   2.012   2.715 -0.3720 -0.0486 -0.1106
17894SOL    HW265742   2.392   2.014   2.878 -1.0508 -1.9415 -0.1048
17895SOL     OW65743   1.432   5.330   9.051 -0.2165  0.1296  0.0859
17895SOL    HW165744   1.440   5.278   8.966 -1.3045  1.4031 -0.8194
17895SOL    HW265745   1.386   5.273   9.120 -0.1281 -0.6050 -0.4541
17896SOL     OW65746   2.968   2.386   1.501 -0.1596  0.0155 -0.1547
17896SOL    HW165747   2.887   2.424   1.456  1.2962  2.2523 -0.9349
17896SOL    HW265748   2.943   2.355   1.593 -2.1901 -0.5610 -0.8783
17897SOL     OW65749   5.342   4.529   2.695  0.1127  0.2490 -0.3167
17897SOL    HW165750   5.395   4.452   2.661  0.3029 -0.4492  1.5331
17897SOL    HW265751   5.251   4.498   2.722  0.2687  0.6328  0.6569
17898SOL     OW65752   8.855   1.491   5.166 -0.0426 -0.4983  0.0431
17898SOL    HW165753   8.761   1.460   5.163  0.4383 -1.9928  0.2711
17898SOL    HW265754   8.917   1.413   5.172  1.1334  0.5437  2.1878
17899SOL     OW65755   3.158   4.323   0.991  0.1459 -0.8074 -0.0092
17899SOL    HW165756   3.067   4.352   0.962 -0.2266 -0.8346  1.0936
17899SOL    HW265757   3.149   4.251   1.060  0.9904 -0.5817  0.3397
17900SOL     OW65758   2.864   1.260   1.473  0.0018 -0.0464  0.3327
17900SOL    HW165759   2.877   1.162   1.486  0.3588  0.0013  0.3287
17900SOL    HW265760   2.919   1.311   1.539  0.1971  0.1580  0.0127
17901SOL     OW65761   6.731   2.208   7.671  0.0654 -0.0779 -0.0005
17901SOL    HW165762   6.769   2.292   7.632  0.2769 -0.2122 -0.0882
17901SOL    HW265763   6.720   2.140   7.598 -0.2285 -0.0812  0.0473
17902SOL     OW65764   9.743   1.978   7.405 -0.0510  0.1907 -0.2111
17902SOL    HW165765   9.803   1.999   7.327  0.7768  1.4050  0.7261
17902SOL    HW265766   9.780   1.899   7.455  1.0044  1.1651  0.5806
17903SOL     OW65767   0.769   0.320   1.106 -0.2441 -0.1986 -0.4397
17903SOL    HW165768   0.849   0.375   1.130 -0.6528  0.9560 -1.7058
17903SOL    HW265769   0.688   0.356   1.153 -0.1517 -1.0070  0.3708
17904SOL     OW65770   7.852   4.519   6.680  0.0813 -0.3059  0.2093
17904SOL    HW165771   7.944   4.493   6.709  0.0001 -0.2723  0.5015
17904SOL    HW265772   7.794   4.531   6.761 -0.5026 -1.5087 -0.0232
17905SOL     OW65773   5.479   6.670   7.833 -0.6802  0.2046  0.6358
17905SOL    HW165774   5.539   6.743   7.800 -2.4992  0.7220 -1.6657
17905SOL    HW265775   5.410   6.708   7.894 -1.3564  0.3698 -0.2159
17906SOL     OW65776   8.643   5.230   5.480 -0.7379  0.2672 -0.2397
17906SOL    HW165777   8.691   5.190   5.559 -0.4095 -0.3011 -0.7278
17906SOL    HW265778   8.700   5.222   5.399 -1.4908 -0.0367 -0.7432
17907SOL     OW65779   8.392   2.043   9.014 -0.0091  0.3951 -0.2383
17907SOL    HW165780   8.322   2.069   8.947  0.2711 -0.1139 -0.7273
17907SOL    HW265781   8.474   2.012   8.967  0.2024  0.0658  0.3407
17908SOL     OW65782   6.317   5.370   9.569  0.2480  0.2016 -0.1208
17908SOL    HW165783   6.300   5.349   9.665  1.6138  0.3800  0.1688
17908SOL    HW265784   6.361   5.459   9.562  0.2902  0.1212 -0.9049
17909SOL     OW65785   4.926   2.420   0.480  0.2614  0.3257 -0.2102
17909SOL    HW165786   4.993   2.350   0.454 -0.8107 -1.1137  0.8612
17909SOL    HW265787   4.842   2.407   0.428  0.6413  1.9044 -1.2753
17910SOL     OW65788   5.533   4.196   9.966  0.3350 -0.0793 -0.2893
17910SOL    HW165789   5.574   4.257   9.899  0.1498 -1.6404 -1.8426
17910SOL    HW265790   5.601   4.172  10.035  0.4205  1.8288  0.3164
17911SOL     OW65791   6.623   2.504   1.071 -0.1090  0.3324  0.4359
17911SOL    HW165792   6.596   2.492   0.975 -1.1092  2.6916  0.3963
17911SOL    HW265793   6.563   2.571   1.114  3.2036  2.7354  1.4699
17912SOL     OW65794   3.827   2.785   6.476 -0.0559 -0.2356  0.0240
17912SOL    HW165795   3.881   2.844   6.535 -0.7638 -0.4735  0.9056
17912SOL    HW265796   3.785   2.712   6.530 -0.2140 -0.8103 -0.8567
17913SOL     OW65797   4.551   0.725   8.371  0.5905  0.1706  0.2597
17913SOL    HW165798   4.461   0.695   8.341  0.1123  0.0603  1.7427
17913SOL    HW265799   4.610   0.740   8.292 -0.2977 -1.1023 -0.6529
17914SOL     OW65800   9.604   1.512   9.201  0.1803 -1.0457 -0.4950
17914SOL    HW165801   9.587   1.563   9.117 -0.4961 -2.1617 -1.0360
17914SOL    HW265802   9.528   1.449   9.218  0.1382 -0.5799  1.1389
17915SOL     OW65803   4.555   3.594   2.542  0.0162 -0.2634  0.1491
17915SOL    HW165804   4.455   3.600   2.553  0.0509 -1.5719  1.3930
17915SOL    HW265805   4.579   3.606   2.446 -1.3903 -0.4792 -0.2439
17916SOL     OW65806   5.593   6.238   1.347  0.0746  0.5983  0.0597
17916SOL    HW165807   5.634   6.149   1.363  2.8749  2.0471  1.3155
17916SOL    HW265808   5.595   6.259   1.250 -1.3997 -1.0563 -0.3402
17917SOL     OW65809   6.858   9.498   6.529 -0.4078 -0.2825 -0.2911
17917SOL    HW165810   6.798   9.424   6.496  0.7165 -2.2203  1.8716
17917SOL    HW265811   6.950   9.462   6.544  0.1925  1.6020  0.7041
17918SOL     OW65812   5.978   6.507   8.822 -0.0990  0.0726  0.3697
17918SOL    HW165813   6.046   6.450   8.776  1.2084  1.1806  0.9160
17918SOL    HW265814   5.896   6.452   8.840 -0.2618 -0.6723 -2.3269
17919SOL     OW65815   1.022   9.771   0.030 -0.0098 -0.4384 -0.2546
17919SOL    HW165816   1.109   9.721   0.027 -0.0983 -0.5882 -0.3323
17919SOL    HW265817   0.983   9.775  -0.062  0.1862  0.1095 -0.3154
17920SOL     OW65818   4.612   3.210   4.743 -0.2543  0.4253 -0.1327
17920SOL    HW165819   4.701   3.188   4.783  0.2391  2.7845  0.1844
17920SOL    HW265820   4.584   3.138   4.680  1.9992 -0.2375 -0.4121
17921SOL     OW65821   3.904   0.671   7.756  0.3395  0.4587 -1.1361
17921SOL    HW165822   3.914   0.688   7.854  2.3025 -1.8382 -0.8849
17921SOL    HW265823   3.818   0.623   7.739  0.4187  0.0580 -0.4170
17922SOL     OW65824   6.075   6.984   4.109  0.8297 -0.0005  0.3251
17922SOL    HW165825   6.163   7.012   4.148 -0.0793  1.1429  1.6070
17922SOL    HW265826   6.063   6.886   4.124  1.9387 -0.1970  0.0166
17923SOL     OW65827   4.483   4.647   1.345  0.2730  0.2510  0.3880
17923SOL    HW165828   4.468   4.611   1.438 -2.2957 -0.9033 -0.4087
17923SOL    HW265829   4.409   4.710   1.322 -0.7219 -1.6996 -1.9197
17924SOL     OW65830   6.935   6.960   8.639 -0.2060  0.2629  0.5459
17924SOL    HW165831   7.013   6.913   8.680 -0.7533 -2.3478 -1.2344
17924SOL    HW265832   6.964   7.047   8.600  1.7122 -0.4618  0.3348
17925SOL     OW65833   8.850   0.859   0.169  0.5279  0.8904 -0.3186
17925SOL    HW165834   8.772   0.861   0.231  1.7688  0.0513  1.3120
17925SOL    HW265835   8.854   0.769   0.124  1.1310  0.5814  0.3536
17926SOL     OW65836   0.215   1.899   6.359  0.0880 -0.1268 -0.0224
17926SOL    HW165837   0.152   1.975   6.374  0.8203  0.5406 -0.2580
17926SOL    HW265838   0.183   1.843   6.282 -0.5948 -0.2125  0.3233
17927SOL     OW65839   3.753   5.736   8.712  0.4415  0.5329  0.2922
17927SOL    HW165840   3.726   5.642   8.736  1.9180  0.2380  0.8685
17927SOL    HW265841   3.804   5.776   8.789  2.4985  0.6972 -1.1040
17928SOL     OW65842   7.228   1.223   9.782  0.1091 -0.0438  0.1966
17928SOL    HW165843   7.263   1.131   9.764  0.1017  0.1532 -0.8789
17928SOL    HW265844   7.134   1.230   9.749 -0.1614  0.1180  0.9890
17929SOL     OW65845   5.958   4.432   0.114 -0.3012 -0.5485  0.5078
17929SOL    HW165846   5.938   4.461   0.020 -1.5184 -1.6081  0.4205
17929SOL    HW265847   6.013   4.502   0.160 -0.9032  0.6362 -0.5427
17930SOL     OW65848   6.094   2.835   1.791 -0.4076  0.3326  0.7047
17930SOL    HW165849   6.161   2.779   1.842  0.8854 -0.1648 -1.4830
17930SOL    HW265850   6.134   2.924   1.770 -0.7562  0.3569  0.1419
17931SOL     OW65851   6.282   4.516   0.765 -0.4102 -0.0329 -0.3042
17931SOL    HW165852   6.191   4.553   0.784  0.2389  0.9722  0.8734
17931SOL    HW265853   6.344   4.589   0.737  0.3969 -0.4931  0.2409
17932SOL     OW65854   7.189   9.420   0.787 -0.7088 -0.1381 -0.1678
17932SOL    HW165855   7.107   9.416   0.730 -2.0431 -0.9533  1.7966
17932SOL    HW265856   7.202   9.514   0.820 -2.8371 -0.6985  2.3631
17933SOL     OW65857   4.643   7.757   5.373 -0.0565  0.3704  0.2380
17933SOL    HW165858   4.578   7.810   5.318  1.2399  0.3750 -1.3280
17933SOL    HW265859   4.713   7.718   5.313  2.0523  1.2931  2.0276
17934SOL     OW65860   6.935   3.821   0.036  0.3421 -0.6555 -0.0893
17934SOL    HW165861   6.999   3.880  -0.013  0.6868 -1.6769 -0.8758
17934SOL    HW265862   6.889   3.760  -0.029 -2.3290  0.8751  0.2703
17935SOL     OW65863   3.136   7.739   6.374 -0.7036 -0.1988  0.7348
17935SOL    HW165864   3.095   7.799   6.306 -1.6152  0.5316  1.8904
17935SOL    HW265865   3.202   7.790   6.429 -0.1879 -0.6991  0.5768
17936SOL     OW65866   1.465   3.869   3.487 -0.1953  0.3061 -0.8077
17936SOL    HW165867   1.387   3.822   3.447 -0.4075  0.1919 -0.2599
17936SOL    HW265868   1.498   3.940   3.423 -0.5403  0.1369 -1.1711
17937SOL     OW65869   7.655   8.330   0.185 -0.6473  0.2900 -0.2739
17937SOL    HW165870   7.579   8.266   0.198  0.7981 -1.4784 -0.2391
17937SOL    HW265871   7.731   8.282   0.140  1.0320  1.5780  1.1193
17938SOL     OW65872   7.002   6.396   9.748  0.4231  0.1739  0.5186
17938SOL    HW165873   7.087   6.348   9.771  0.9747  0.3777 -1.0325
17938SOL    HW265874   7.019   6.460   9.673 -0.4606  2.3472  2.1232
17939SOL     OW65875   8.401   6.776   4.667 -0.2113 -0.6914 -0.2762
17939SOL    HW165876   8.408   6.706   4.595 -1.0487 -0.4372 -0.6166
17939SOL    HW265877   8.480   6.837   4.661 -0.6119 -0.2640 -1.4274
17940SOL     OW65878   6.643   0.714   2.404 -0.1583 -0.4234 -0.0224
17940SOL    HW165879   6.675   0.797   2.449 -2.4414  0.6331 -0.2534
17940SOL    HW265880   6.684   0.634   2.448  2.9843  0.8328 -0.5500
17941SOL     OW65881   9.207   3.638   3.045 -0.6932  0.0768 -0.0326
17941SOL    HW165882   9.264   3.556   3.039 -0.9580 -0.1214  0.1444
17941SOL    HW265883   9.128   3.619   3.104 -0.4828  0.6152  0.4276
17942SOL     OW65884   7.355   5.986   2.236 -0.1440  0.3509 -0.0763
17942SOL    HW165885   7.364   6.062   2.172  1.7528  0.7433  0.6287
17942SOL    HW265886   7.340   6.021   2.328  0.6650 -0.1160  0.2403
17943SOL     OW65887   6.811   4.457   7.997 -0.2447  0.0669  0.3845
17943SOL    HW165888   6.802   4.366   7.955 -1.5816  0.9090 -1.1950
17943SOL    HW265889   6.907   4.483   7.998 -0.1243 -0.1950 -1.7407
17944SOL     OW65890   7.522   9.565   2.671 -0.0265 -0.2720 -0.0855
17944SOL    HW165891   7.459   9.584   2.746  0.7985  0.6216  0.3937
17944SOL    HW265892   7.530   9.645   2.612  0.5642 -0.4163 -0.2088
17945SOL     OW65893   2.760   5.869   2.732  0.5337 -0.3827 -0.2053
17945SOL    HW165894   2.807   5.908   2.653  0.8943 -0.4990 -0.0468
17945SOL    HW265895   2.694   5.936   2.768  0.8204 -0.0923 -0.2198
17946SOL     OW65896   7.618   5.621   2.534 -0.1505 -0.4954 -0.0714
17946SOL    HW165897   7.660   5.704   2.497 -2.8603  0.3329 -1.3920
17946SOL    HW265898   7.609   5.552   2.461  1.4662 -1.7314  0.8607
17947SOL     OW65899   4.472   2.170   0.040 -0.3736  0.3283  0.1195
17947SOL    HW165900   4.502   2.141   0.131  0.3237  1.0758  0.1348
17947SOL    HW265901   4.526   2.121  -0.029 -1.0914 -0.4431  0.0956
17948SOL     OW65902   2.572   4.779   0.721  0.5114 -0.3440 -0.3785
17948SOL    HW165903   2.666   4.748   0.715  0.7510  0.5911 -1.6441
17948SOL    HW265904   2.569   4.870   0.762  0.3018  0.2602 -1.7184
17949SOL     OW65905   5.997   5.424   4.392  0.5386  0.4613 -0.1600
17949SOL    HW165906   6.012   5.385   4.301 -1.1648  1.8954 -1.0894
17949SOL    HW265907   5.920   5.378   4.436  1.6674 -0.5611  0.7778
17950SOL     OW65908   6.432   7.513   3.465  0.3806  0.4937 -0.5868
17950SOL    HW165909   6.346   7.464   3.477  0.7490  0.1093  0.5816
17950SOL    HW265910   6.500   7.476   3.528  1.0824  1.5318 -0.7193
17951SOL     OW65911   4.529   5.641   9.590  0.5715  0.2687  0.1693
17951SOL    HW165912   4.527   5.699   9.508  1.9300 -1.0084 -0.7968
17951SOL    HW265913   4.603   5.670   9.649 -0.1840  0.9613  0.7859
17952SOL     OW65914   7.109   1.095   0.445  0.3590  0.2327  0.4187
17952SOL    HW165915   7.119   1.070   0.541 -0.6129  1.3829  0.8397
17952SOL    HW265916   7.026   1.150   0.434  1.1311  1.1643 -0.8601
17953SOL     OW65917   6.787   4.166   7.026  0.0467  0.0701  0.3242
17953SOL    HW165918   6.883   4.192   7.022 -0.2828  0.8803 -4.0446
17953SOL    HW265919   6.731   4.248   7.037 -0.2911 -0.2356  0.9535
17954SOL     OW65920   7.965   8.144   7.578 -0.1026 -0.0304  0.1441
17954SOL    HW165921   7.945   8.084   7.500  0.8899  0.9257 -0.8785
17954SOL    HW265922   7.996   8.089   7.655 -0.7890 -0.9682 -0.2377
17955SOL     OW65923   3.662   4.878   3.442 -0.0822  0.4814 -0.0272
17955SOL    HW165924   3.720   4.799   3.421 -1.6773 -0.3877 -1.3497
17955SOL    HW265925   3.582   4.847   3.495  1.3720  1.8879  3.1453
17956SOL     OW65926   1.763   9.704   4.163 -0.1595 -0.2157  0.4621
17956SOL    HW165927   1.736   9.798   4.146  0.2699 -0.2812 -0.6959
17956SOL    HW265928   1.775   9.689   4.261 -1.5702  0.5554  0.7605
17957SOL     OW65929   6.731   2.671   1.793 -0.4260 -0.5141  0.1792
17957SOL    HW165930   6.807   2.702   1.851 -0.2142 -0.0125 -0.3546
17957SOL    HW265931   6.761   2.669   1.698 -1.3442  0.5670 -0.1489
17958SOL     OW65932   5.509   5.938   7.448 -0.3247 -0.5291 -0.2683
17958SOL    HW165933   5.565   5.886   7.512  0.5854 -1.0894 -1.5134
17958SOL    HW265934   5.546   5.929   7.355 -1.2717  0.7728 -0.7895
17959SOL     OW65935   6.159   7.077   1.832 -0.5102  0.3187  0.2895
17959SOL    HW165936   6.152   6.995   1.775  0.5732 -0.7339  1.6435
17959SOL    HW265937   6.180   7.051   1.926 -1.5442  2.0808  1.0353
17960SOL     OW65938   5.725   3.405   2.691  0.2736  0.0273 -0.0988
17960SOL    HW165939   5.717   3.395   2.790 -0.1247 -1.4174 -0.2658
17960SOL    HW265940   5.670   3.335   2.645  0.8320  0.3753 -1.3402
17961SOL     OW65941   8.399   2.658   8.493  0.8571 -0.1142  0.9591
17961SOL    HW165942   8.488   2.695   8.468  0.8872 -1.5466 -1.1335
17961SOL    HW265943   8.411   2.586   8.562  1.2961 -0.1350  0.8652
17962SOL     OW65944   6.181   0.417   0.070 -0.5012 -0.5653  0.4585
17962SOL    HW165945   6.143   0.329   0.041 -1.5780 -0.1673  0.6644
17962SOL    HW265946   6.151   0.489   0.008  0.7503 -0.3989  0.0229
17963SOL     OW65947   6.923   4.049   0.770 -0.0770  0.3350 -0.0454
17963SOL    HW165948   6.989   4.011   0.706 -0.7219  2.2437 -1.8794
17963SOL    HW265949   6.845   3.987   0.778 -0.3178  0.4321 -1.6489
17964SOL     OW65950   7.070   7.545   0.510  0.3350  0.8019  0.3798
17964SOL    HW165951   7.157   7.530   0.557  0.5342  1.8236  0.3574
17964SOL    HW265952   7.054   7.471   0.445  1.7775  1.2173 -0.4791
17965SOL     OW65953   0.207   4.484   0.789  0.1482  0.1085 -0.2662
17965SOL    HW165954   0.305   4.500   0.776  0.0921  1.3792  0.7837
17965SOL    HW265955   0.154   4.552   0.739 -0.2084 -0.5023 -0.7357
17966SOL     OW65956   5.079   3.874   2.774  0.4229 -0.1272 -0.4392
17966SOL    HW165957   5.172   3.893   2.804  0.3589  3.0141 -1.9889
17966SOL    HW265958   5.050   3.944   2.708 -3.9142  0.4587  1.8658
17967SOL     OW65959   0.614   8.211   4.349  0.4539 -0.4223  0.6940
17967SOL    HW165960   0.697   8.265   4.333 -0.7610  0.9820 -1.0779
17967SOL    HW265961   0.629   8.117   4.319  1.5498 -0.3093  0.8509
17968SOL     OW65962   3.767   4.264   3.250  0.1949 -0.0928 -0.3400
17968SOL    HW165963   3.710   4.344   3.233  0.5870  0.4156  0.7531
17968SOL    HW265964   3.709   4.183   3.261 -0.2089  0.0742 -1.1994
17969SOL     OW65965   2.958   3.847   1.892 -0.4799 -0.3811  0.2293
17969SOL    HW165966   2.888   3.914   1.916  1.3332  0.9250  2.1216
17969SOL    HW265967   2.937   3.759   1.935 -0.0180  0.5184  2.3740
17970SOL     OW65968   8.708   6.742   9.014 -0.4876  0.1443 -0.2227
17970SOL    HW165969   8.669   6.653   9.034 -1.6101  0.5012 -0.7905
17970SOL    HW265970   8.724   6.792   9.099 -1.7541  0.1909 -0.0088
17971SOL     OW65971   3.870   7.401   0.469 -0.1066  0.0061  0.4626
17971SOL    HW165972   3.914   7.313   0.455 -1.1814 -0.6466  1.1614
17971SOL    HW265973   3.929   7.474   0.434  1.3217 -0.8884  0.9896
17972SOL     OW65974   4.795   6.211   3.899 -0.4582  0.1794  0.4855
17972SOL    HW165975   4.737   6.293   3.904 -1.2895 -0.4423  1.3854
17972SOL    HW265976   4.869   6.218   3.966  1.2340  1.4961 -1.4591
17973SOL     OW65977   6.048   0.296   5.581 -0.0003  0.1291 -0.2795
17973SOL    HW165978   6.141   0.299   5.617 -0.0536  1.3273 -0.2160
17973SOL    HW265979   6.042   0.353   5.499 -0.8163  0.5031  0.0375
17974SOL     OW65980   6.863   6.326   7.638  0.4754  0.7998  0.4308
17974SOL    HW165981   6.812   6.332   7.724  0.7296 -2.8006  0.9095
17974SOL    HW265982   6.842   6.405   7.581 -2.6719  1.3234  2.1986
17975SOL     OW65983   7.364   5.025   5.602  0.9597 -0.4747 -0.0035
17975SOL    HW165984   7.307   5.082   5.544  2.2087  1.9389  1.0509
17975SOL    HW265985   7.315   5.003   5.686  0.5193 -0.8476 -0.3593
17976SOL     OW65986   0.106   9.683   4.650 -0.3043  0.5990 -0.4848
17976SOL    HW165987   0.097   9.671   4.748  0.2813  2.0752 -0.2389
17976SOL    HW265988   0.025   9.731   4.615 -0.8508 -0.5807 -0.8357
17977SOL     OW65989   4.769   3.922   2.914  0.1676  0.2329  0.2513
17977SOL    HW165990   4.794   3.925   2.817 -0.5407 -1.8039 -0.0209
17977SOL    HW265991   4.674   3.952   2.925 -0.7992 -2.5827 -0.1142
17978SOL     OW65992   5.102   6.469   0.826  0.5347  0.3244 -0.6281
17978SOL    HW165993   5.194   6.497   0.853  0.1184  2.1098 -1.0125
17978SOL    HW265994   5.040   6.547   0.833 -0.8210 -0.7020 -1.0044
17979SOL     OW65995   2.302   7.881   3.212 -0.3338 -0.3395 -0.6062
17979SOL    HW165996   2.238   7.864   3.137 -0.2400 -2.0318 -0.3149
17979SOL    HW265997   2.383   7.824   3.201  0.9212  1.4221 -0.6942
17980SOL     OW65998   4.381   1.025   1.810  1.0975 -0.1686  0.9186
17980SOL    HW165999   4.462   1.037   1.867  0.0239 -1.2013  2.7194
17980SOL    HW266000   4.307   1.084   1.843  0.6515 -0.3372  0.2324
17981SOL     OW66001   1.633   1.924   7.898  0.2033  0.5513 -0.0177
17981SOL    HW166002   1.657   1.831   7.870 -1.0854  0.6585 -1.5750
17981SOL    HW266003   1.551   1.921   7.955 -0.8198  0.8476 -1.4428
17982SOL     OW66004   1.371   0.306   3.593  0.7958 -0.0445 -0.0458
17982SOL    HW166005   1.311   0.227   3.580  1.4611 -0.5377 -0.1477
17982SOL    HW266006   1.410   0.333   3.505 -0.9313  1.6108 -0.3291
17983SOL     OW66007   7.356   0.431   1.277 -0.3779  0.3249  0.3238
17983SOL    HW166008   7.287   0.365   1.303 -0.4349  1.5907  3.5387
17983SOL    HW266009   7.447   0.393   1.293 -0.3749  0.1378 -0.1290
17984SOL     OW66010   3.407   4.358   9.757  0.6340 -0.8910  0.5076
17984SOL    HW166011   3.370   4.265   9.763  3.4898 -2.2391 -1.6497
17984SOL    HW266012   3.363   4.407   9.681  1.0171 -1.4018 -0.0452
17985SOL     OW66013   1.073   4.012   2.392 -0.5201  0.5316  0.5109
17985SOL    HW166014   1.055   3.926   2.439 -2.9745  1.0062  0.5188
17985SOL    HW266015   1.070   4.088   2.458 -0.8467  0.8689  0.1170
17986SOL     OW66016   7.016   7.313   0.383  0.4588  0.1337  0.1969
17986SOL    HW166017   7.001   7.275   0.291 -0.2743  2.4697 -0.6831
17986SOL    HW266018   6.949   7.274   0.446  0.0522 -0.4222 -0.5691
17987SOL     OW66019   3.937   8.172   4.309  0.1173  0.0800 -0.0397
17987SOL    HW166020   3.973   8.109   4.240 -1.4958  0.4499 -1.2479
17987SOL    HW266021   4.005   8.243   4.328  0.7705 -0.3058 -0.8968
17988SOL     OW66022   7.833   1.505   1.918  0.0362 -0.0539 -0.0530
17988SOL    HW166023   7.884   1.422   1.898  0.9717  0.2620  0.9674
17988SOL    HW266024   7.872   1.582   1.867  2.9886  0.9342  3.4609
17989SOL     OW66025   3.861   5.256   8.511  0.9952  0.3377 -1.0733
17989SOL    HW166026   3.953   5.293   8.504  0.5549  1.8855  0.7287
17989SOL    HW266027   3.794   5.329   8.498  0.0374 -0.5871 -1.4620
17990SOL     OW66028   5.976   0.878   9.622  0.6340 -0.1979 -0.1601
17990SOL    HW166029   5.969   0.903   9.525 -0.6471  2.3526  0.5252
17990SOL    HW266030   6.072   0.864   9.646  0.9753 -0.7521 -1.7579
17991SOL     OW66031   5.033   5.610   5.507 -0.5174 -0.3706 -0.4464
17991SOL    HW166032   4.933   5.608   5.514 -0.5025 -1.1415 -0.3381
17991SOL    HW266033   5.070   5.524   5.543  0.1685 -0.1969 -0.7297
17992SOL     OW66034   8.735   1.916   6.532 -0.1135 -0.0432  0.5493
17992SOL    HW166035   8.699   1.990   6.476  1.4746  0.3473  0.0380
17992SOL    HW266036   8.816   1.947   6.581 -0.5431 -0.8729  1.8086
17993SOL     OW66037   5.738   1.509   0.288  0.0704  0.3776  0.5392
17993SOL    HW166038   5.727   1.603   0.255  0.3204  0.2257  0.0209
17993SOL    HW266039   5.750   1.448   0.210 -0.4367 -0.1341  0.8548
17994SOL     OW66040   6.791   6.469   8.468 -0.2887 -0.1085  0.1029
17994SOL    HW166041   6.876   6.504   8.507 -0.1320 -1.0782  0.6642
17994SOL    HW266042   6.714   6.521   8.504  0.0279  0.4775 -0.0520
17995SOL     OW66043   7.566   1.965   1.835  0.1361  0.0261 -0.0695
17995SOL    HW166044   7.622   1.945   1.755  0.8321  1.2298  0.1075
17995SOL    HW266045   7.541   2.061   1.835  0.3392  0.0848  1.2823
17996SOL     OW66046   4.294   3.486   2.133  0.3277  0.1415 -0.0963
17996SOL    HW166047   4.266   3.464   2.227 -1.4740  0.9491 -0.4365
17996SOL    HW266048   4.372   3.428   2.108  0.3492 -0.6194  1.6278
17997SOL     OW66049   2.567   1.550   6.718 -0.2014 -0.3445  0.0251
17997SOL    HW166050   2.667   1.549   6.719 -0.1902  0.7173  0.3647
17997SOL    HW266051   2.536   1.572   6.626 -0.1112  0.4382  0.1830
17998SOL     OW66052   3.294   3.914   7.400 -0.4633 -0.0697 -0.1335
17998SOL    HW166053   3.334   4.005   7.389  0.6991 -0.3709  1.4276
17998SOL    HW266054   3.217   3.904   7.337  1.3529  0.8312 -2.5730
17999SOL     OW66055   4.233   4.494   8.801 -0.3792  0.5313  0.1832
17999SOL    HW166056   4.238   4.443   8.886 -1.2949  0.4433  0.1848
17999SOL    HW266057   4.316   4.479   8.748 -1.2261 -2.0820 -0.4649
18000SOL     OW66058   7.871   5.446   8.017 -0.1420  0.5246 -0.5576
18000SOL    HW166059   7.943   5.502   8.057  0.6118  1.3010 -2.9283
18000SOL    HW266060   7.898   5.349   8.022  0.0635  0.6309  0.5204
18001SOL     OW66061   5.436   5.789   1.620  0.3567 -0.0057  0.2239
18001SOL    HW166062   5.452   5.820   1.713  1.6590 -1.8621  0.6321
18001SOL    HW266063   5.374   5.711   1.621  0.5256 -0.1535 -0.4421
18002SOL     OW66064   3.051   7.405   9.134 -0.3119 -0.2654 -0.1564
18002SOL    HW166065   3.067   7.470   9.209 -1.6366  0.1731 -0.2248
18002SOL    HW266066   3.037   7.456   9.049  0.1670 -0.7143 -0.5057
18003SOL     OW66067   9.709   5.218   7.434 -0.2923  0.2655  0.5114
18003SOL    HW166068   9.795   5.166   7.440 -0.3080  0.3004  1.0375
18003SOL    HW266069   9.721   5.293   7.368 -0.1626 -0.1959  0.0085
18004SOL     OW66070   6.586   3.568   8.066  0.2838 -0.6328 -0.0590
18004SOL    HW166071   6.535   3.612   8.139  1.7322  1.3231 -0.1966
18004SOL    HW266072   6.640   3.492   8.103  0.3739 -0.1671  0.7666
18005SOL     OW66073   7.652   2.555   2.905 -0.2558 -0.2493 -0.3889
18005SOL    HW166074   7.565   2.589   2.869 -1.2445 -0.8640  1.3625
18005SOL    HW266075   7.706   2.633   2.939 -0.1195  0.1359 -1.4880
18006SOL     OW66076   3.707   6.313   8.881 -0.1197 -0.2698  0.3379
18006SOL    HW166077   3.627   6.267   8.845  1.2966 -1.2436 -1.6789
18006SOL    HW266078   3.738   6.383   8.816 -1.0919  2.2438  2.4641
18007SOL     OW66079   1.823   4.066   7.716  0.3557 -0.2316  0.2329
18007SOL    HW166080   1.791   3.997   7.781  0.4129 -0.3272  0.1583
18007SOL    HW266081   1.744   4.109   7.672  0.2626  0.7951  1.3687
18008SOL     OW66082   0.021   5.810   3.582  0.4418  0.2913 -0.2354
18008SOL    HW166083   0.092   5.744   3.603  1.6120  1.4949 -0.3033
18008SOL    HW266084  -0.032   5.830   3.665 -0.2321 -1.0712 -0.3272
18009SOL     OW66085   8.727   0.037   9.856  0.1294 -0.5554  0.0444
18009SOL    HW166086   8.662   0.105   9.890  1.0121 -0.4109  1.5081
18009SOL    HW266087   8.694  -0.001   9.770 -0.9067  0.9383 -0.2315
18010SOL     OW66088   6.429   9.376   2.990  0.0123  0.1779  0.2813
18010SOL    HW166089   6.433   9.278   2.968 -1.9853 -0.5625  3.0117
18010SOL    HW266090   6.364   9.421   2.930 -0.4514 -0.5326  0.2508
18011SOL     OW66091   8.043   0.476   2.806  0.0431 -0.1359 -0.0890
18011SOL    HW166092   8.063   0.489   2.903 -2.6592  3.4344  0.0947
18011SOL    HW266093   7.964   0.416   2.796  0.1977 -0.3409 -0.0989
18012SOL     OW66094   6.522   4.967   1.208  0.4554 -0.7544 -0.4234
18012SOL    HW166095   6.619   4.957   1.187  1.1135  0.1565  2.0468
18012SOL    HW266096   6.497   5.063   1.209 -0.4356 -0.9701 -0.8242
18013SOL     OW66097   4.121   2.435   9.850 -0.0526 -0.8846  0.2481
18013SOL    HW166098   4.086   2.405   9.938  0.0388 -1.4556  0.0927
18013SOL    HW266099   4.166   2.358   9.804  0.2851 -0.4819 -0.1029
18014SOL     OW66100   9.765   2.392   0.625  0.5699 -0.1158 -0.1680
18014SOL    HW166101   9.753   2.448   0.707  0.2472  0.7843 -0.8230
18014SOL    HW266102   9.839   2.327   0.640  0.0795 -0.4027  1.0738
18015SOL     OW66103   4.881   4.995   0.801  0.1700  0.3303  0.2832
18015SOL    HW166104   4.972   5.007   0.761 -0.1246 -0.4728 -0.6591
18015SOL    HW266105   4.811   5.023   0.735 -0.3041 -0.1844  0.5582
18016SOL     OW66106   4.215   7.585   9.630 -1.0351  0.1195  0.2217
18016SOL    HW166107   4.279   7.547   9.563 -1.3186 -0.2991  0.1906
18016SOL    HW266108   4.262   7.655   9.684 -1.2513  1.5965 -1.4721
18017SOL     OW66109   7.567   5.618   1.825  0.7147 -0.2352  0.1282
18017SOL    HW166110   7.564   5.668   1.738  0.0466 -0.4676  0.0099
18017SOL    HW266111   7.534   5.677   1.898 -1.3645 -0.9221 -0.2294
18018SOL     OW66112   4.542   5.088   8.303 -0.5712  0.3312 -0.2941
18018SOL    HW166113   4.595   5.172   8.320 -0.5941  0.1856  0.5172
18018SOL    HW266114   4.447   5.104   8.328 -0.4193 -0.1851  0.6223
18019SOL     OW66115   2.915   7.567   2.617  0.9705  0.0964  0.4631
18019SOL    HW166116   2.938   7.538   2.710 -0.3494 -1.0979  0.4186
18019SOL    HW266117   2.892   7.664   2.618 -0.1489 -0.1698  1.5750
18020SOL     OW66118   8.376   1.614   2.347  0.5926 -0.1708 -0.1236
18020SOL    HW166119   8.402   1.677   2.274 -0.9301  2.5674  1.6198
18020SOL    HW266120   8.279   1.592   2.339  0.8438 -1.3538  0.0001
18021SOL     OW66121   6.554   7.643   1.090 -0.1685 -0.0505  0.0358
18021SOL    HW166122   6.638   7.597   1.116 -0.4712  0.3670  1.8219
18021SOL    HW266123   6.529   7.710   1.160 -1.3206  0.7309 -1.0765
18022SOL     OW66124   4.145   0.382   1.429  0.1136 -0.1322 -0.0031
18022SOL    HW166125   4.206   0.433   1.368 -0.3721 -1.4202 -1.5797
18022SOL    HW266126   4.051   0.388   1.396 -0.3315  0.1160  1.2686
18023SOL     OW66127   5.510   4.718   2.362 -0.1541  0.1100  0.6140
18023SOL    HW166128   5.483   4.678   2.274  1.3359 -2.8158  1.4475
18023SOL    HW266129   5.561   4.802   2.345 -1.0345  0.3001 -1.2748
18024SOL     OW66130   6.805   2.449   6.410  0.4828  0.2093 -0.3443
18024SOL    HW166131   6.874   2.501   6.360 -0.4474  2.2056  0.3621
18024SOL    HW266132   6.732   2.511   6.438  0.5013 -1.0332  2.6123
18025SOL     OW66133   6.983   5.691   9.921 -0.4456 -0.3763  0.2739
18025SOL    HW166134   7.009   5.648  10.008  1.9836 -0.7325 -0.5727
18025SOL    HW266135   6.997   5.625   9.847 -0.0438  0.7445 -0.6511
18026SOL     OW66136   3.883   3.246   9.833  0.3150 -0.2146 -0.4198
18026SOL    HW166137   3.879   3.321   9.898 -2.6010 -0.2164 -0.5442
18026SOL    HW266138   3.802   3.249   9.774  1.0256 -2.4395 -1.5487
18027SOL     OW66139   5.118   7.983   1.384  0.2551 -0.1655 -0.0729
18027SOL    HW166140   5.050   8.044   1.427 -0.7169 -1.1783 -0.1481
18027SOL    HW266141   5.208   8.002   1.423 -0.4319 -0.3560  1.6801
18028SOL     OW66142   0.120   1.220   4.224  0.1310 -0.7728 -0.5230
18028SOL    HW166143   0.205   1.271   4.238 -0.2262 -0.3772  0.2561
18028SOL    HW266144   0.045   1.285   4.208 -0.1982 -1.0885 -0.2588
18029SOL     OW66145   5.425   1.832   9.997  0.1532  0.4071 -0.3304
18029SOL    HW166146   5.469   1.805   9.912 -0.9362 -2.4015 -0.0688
18029SOL    HW266147   5.352   1.898   9.977  0.4829  0.4419 -1.4543
18030SOL     OW66148   7.338   4.607   3.390  0.2285  0.4085  0.0613
18030SOL    HW166149   7.372   4.514   3.377 -1.4266 -0.2962  0.6410
18030SOL    HW266150   7.252   4.604   3.441  0.7194  2.3386  1.0520
18031SOL     OW66151   8.754   3.956   9.890 -0.2128 -0.0344 -0.4603
18031SOL    HW166152   8.825   4.009   9.845 -0.4357  0.8818  0.2646
18031SOL    HW266153   8.690   4.017   9.937  0.0457 -0.9557  1.1407
18032SOL     OW66154   5.752   8.430   0.068  0.1120  0.5170  0.1718
18032SOL    HW166155   5.724   8.499   0.134 -0.6674  0.9334 -0.5917
18032SOL    HW266156   5.779   8.347   0.117 -1.1608  0.5674  0.9844
18033SOL     OW66157   1.898   1.324   1.874  0.0635  0.6888 -0.7108
18033SOL    HW166158   1.836   1.386   1.827 -1.4600 -0.2253  0.0664
18033SOL    HW266159   1.873   1.229   1.853 -1.3988  0.2333  2.8484
18034SOL     OW66160   4.057   5.792   7.461 -0.1689  0.2591  0.7148
18034SOL    HW166161   4.076   5.694   7.451  0.3955  0.6392 -2.3314
18034SOL    HW266162   4.114   5.829   7.535  1.4754 -1.2383  0.2433
18035SOL     OW66163   6.121   9.427   1.019 -0.3829 -0.5982 -0.1971
18035SOL    HW166164   6.114   9.514   1.068 -1.9965 -0.9529  0.2316
18035SOL    HW266165   6.213   9.390   1.029  0.9057  1.9462 -1.9180
18036SOL     OW66166   9.262   9.784   4.538  0.6384 -0.0709  0.1593
18036SOL    HW166167   9.203   9.752   4.464  0.6508  0.1116  0.0689
18036SOL    HW266168   9.354   9.747   4.526 -0.0525 -2.3401  1.6367
18037SOL     OW66169   9.570   4.371   7.685 -0.2150 -0.2863  0.3904
18037SOL    HW166170   9.618   4.284   7.698  0.9794  0.3531  0.4143
18037SOL    HW266171   9.496   4.360   7.619  1.0347 -0.9349 -0.9331
18038SOL     OW66172   5.977   6.056   7.549 -0.1406  0.5936  0.1763
18038SOL    HW166173   6.026   6.086   7.630 -0.1945  0.4008  0.2811
18038SOL    HW266174   6.004   5.962   7.526 -0.2289  0.5971  0.0545
18039SOL     OW66175   0.143   0.122   6.928  0.3847  0.2721 -0.2413
18039SOL    HW166176   0.068   0.104   6.864  0.4212  0.6817 -0.4066
18039SOL    HW266177   0.202   0.042   6.935 -1.0882 -0.6913  1.2889
18040SOL     OW66178   5.046   8.637   9.341  0.4842 -0.0354  0.2989
18040SOL    HW166179   4.960   8.594   9.370  1.0592 -0.9140  0.7318
18040SOL    HW266180   5.123   8.584   9.377  1.2083  0.9263  0.1847
18041SOL     OW66181   4.257   1.518   6.911  0.6503  0.2033  0.5530
18041SOL    HW166182   4.277   1.613   6.888  2.2810  0.1955  1.8629
18041SOL    HW266183   4.336   1.461   6.891 -0.4445 -0.9613 -0.5610
18042SOL     OW66184   0.483   3.117   2.746  0.4521  0.4549 -0.3700
18042SOL    HW166185   0.405   3.061   2.717 -0.3612  0.8116  1.0783
18042SOL    HW266186   0.481   3.204   2.696  0.1269  0.3221 -0.5956
18043SOL     OW66187   4.466   4.595   7.176  0.6510  0.6834 -0.3038
18043SOL    HW166188   4.512   4.550   7.100  0.5860 -1.1164  0.6954
18043SOL    HW266189   4.371   4.615   7.151 -0.5218 -3.3402  0.5434
18044SOL     OW66190   4.014   4.524   9.286  0.1377  0.5073  0.8010
18044SOL    HW166191   4.018   4.597   9.218  0.6055  0.0387  0.3189
18044SOL    HW266192   4.003   4.436   9.239 -2.6267  0.4723  1.4797
18045SOL     OW66193   2.656   1.960   2.033 -0.0601 -0.0871  0.0670
18045SOL    HW166194   2.559   1.952   2.055 -0.2498  0.9929 -0.3410
18045SOL    HW266195   2.673   1.922   1.941  0.1687 -1.6042  0.7144
18046SOL     OW66196   9.670   2.431   1.968  0.1697 -0.2988 -0.0250
18046SOL    HW166197   9.675   2.530   1.980 -1.0288 -0.4235  1.5867
18046SOL    HW266198   9.744   2.401   1.909  0.3763  1.5971 -0.7591
18047SOL     OW66199   9.828   6.530   0.499  0.0949 -0.5775 -0.1242
18047SOL    HW166200   9.855   6.599   0.432  0.2315 -0.4021  0.1116
18047SOL    HW266201   9.874   6.444   0.479 -0.8360 -0.8681 -1.0045
18048SOL     OW66202   6.403   4.280   0.589  0.3609  0.1634 -0.6360
18048SOL    HW166203   6.393   4.374   0.622  2.4888 -0.6101  2.4520
18048SOL    HW266204   6.348   4.219   0.646  3.7970 -1.1714  1.3402
18049SOL     OW66205   4.474   8.816   9.864 -0.1429  0.4955 -0.0636
18049SOL    HW166206   4.503   8.831   9.958  0.7683 -0.6457 -0.1515
18049SOL    HW266207   4.544   8.849   9.801  0.4438 -1.1516 -0.2958
18050SOL     OW66208   3.608   1.701   0.257  0.0885 -0.3151 -0.5989
18050SOL    HW166209   3.632   1.666   0.167 -0.4172  0.7366 -1.1594
18050SOL    HW266210   3.613   1.801   0.256 -0.7082 -0.2567  0.3075
18051SOL     OW66211   6.383   5.566   5.845 -0.7683 -0.1813 -0.3349
18051SOL    HW166212   6.466   5.556   5.790 -0.5422  0.1740 -0.0582
18051SOL    HW266213   6.365   5.481   5.894 -0.7173 -0.3467 -0.5974
18052SOL     OW66214   8.456   7.029   3.398  0.0962  0.0477 -0.0493
18052SOL    HW166215   8.502   7.078   3.472 -0.6109 -0.4127  0.6987
18052SOL    HW266216   8.385   6.970   3.436 -1.0697  0.6901 -1.1822
18053SOL     OW66217   9.085   4.622   0.942  0.0864 -0.4166  0.3448
18053SOL    HW166218   9.098   4.721   0.932 -0.6406 -0.3745 -0.2165
18053SOL    HW266219   9.033   4.604   1.025  0.7364 -0.3723  0.7683
18054SOL     OW66220   7.028   4.088   9.210  0.3892 -0.5063 -0.3297
18054SOL    HW166221   6.934   4.093   9.177  0.0448  0.5073  0.7831
18054SOL    HW266222   7.091   4.085   9.132 -0.4954  0.2528 -1.0846
18055SOL     OW66223   4.653   6.993   2.112 -0.2701 -0.2025  0.0904
18055SOL    HW166224   4.621   6.957   2.025 -2.1764  1.9904 -0.1603
18055SOL    HW266225   4.749   6.966   2.126 -0.6085 -2.4328 -1.6043
18056SOL     OW66226   4.417   4.744   5.580 -0.0695 -0.0210  0.7440
18056SOL    HW166227   4.411   4.813   5.507  1.4644  0.3309  0.9327
18056SOL    HW266228   4.474   4.668   5.548  0.9044  0.3015  1.7050
18057SOL     OW66229   4.776   3.881   3.169 -0.2697  0.1363 -0.0453
18057SOL    HW166230   4.677   3.874   3.158 -0.3436  0.5046  0.3775
18057SOL    HW266231   4.821   3.854   3.083 -0.7632  0.6991 -0.4881
18058SOL     OW66232   8.092   6.214   2.705 -0.0909  0.1995 -0.0444
18058SOL    HW166233   8.110   6.153   2.781  0.8239  1.7104  0.9787
18058SOL    HW266234   8.179   6.246   2.666 -0.5480 -0.0764 -1.3295
18059SOL     OW66235   5.202   1.459   8.416  0.0429  0.0923 -0.6879
18059SOL    HW166236   5.137   1.483   8.488 -0.9646 -2.5495 -0.6555
18059SOL    HW266237   5.165   1.486   8.328 -0.8381 -0.8479 -0.6137
18060SOL     OW66238   8.581   3.365   2.064 -0.4279  0.2294 -0.3627
18060SOL    HW166239   8.619   3.370   1.971  0.5447  1.8211  0.1102
18060SOL    HW266240   8.656   3.348   2.129 -0.9208  0.5374  0.2857
18061SOL     OW66241   5.006   3.368   1.333 -0.3306  0.6621  0.0273
18061SOL    HW166242   5.006   3.341   1.236  0.6561 -1.0100  0.4703
18061SOL    HW266243   5.046   3.459   1.342 -0.3978  0.8164 -1.1417
18062SOL     OW66244   4.218   6.777   4.730  0.3346 -0.8173 -0.0409
18062SOL    HW166245   4.269   6.705   4.777  0.0477 -0.2645  1.1471
18062SOL    HW266246   4.125   6.781   4.767  0.0023 -0.5924 -0.8994
18063SOL     OW66247   6.943   5.847   1.075 -0.3606  0.1253 -0.1492
18063SOL    HW166248   6.949   5.815   0.981 -0.9620 -0.0207 -0.1412
18063SOL    HW266249   6.910   5.942   1.076 -1.1264 -0.1369 -0.0533
18064SOL     OW66250   3.893   5.122   8.271  0.5566  0.3602  0.9491
18064SOL    HW166251   3.919   5.190   8.202 -2.8357  1.0087  0.2025
18064SOL    HW266252   3.886   5.165   8.360  2.4777  0.0709  1.2459
18065SOL     OW66253   5.534   3.697   8.619 -0.2761 -0.5707 -0.0821
18065SOL    HW166254   5.615   3.698   8.560  0.7463 -0.5639  1.3055
18065SOL    HW266255   5.551   3.753   8.700 -1.2676 -1.4492  0.7493
18066SOL     OW66256   3.378   6.969   4.486  0.1520  0.1535 -0.0508
18066SOL    HW166257   3.406   6.994   4.394  1.2316  1.1973  0.5521
18066SOL    HW266258   3.448   6.912   4.529  0.0008  0.2861  0.3813
18067SOL     OW66259   6.749   8.562   8.656  0.1666  0.1187  0.0439
18067SOL    HW166260   6.811   8.625   8.610 -0.3840 -0.6743 -1.8238
18067SOL    HW266261   6.801   8.497   8.712  0.9728 -0.1735 -1.0501
18068SOL     OW66262   8.491   1.738   9.818 -0.0352  0.2177  0.5061
18068SOL    HW166263   8.458   1.646   9.798  1.5860 -0.6131  1.4811
18068SOL    HW266264   8.506   1.787   9.733  0.8342 -1.0688 -0.1043
18069SOL     OW66265   3.712   5.367   7.479 -1.0223  0.4088  0.1378
18069SOL    HW166266   3.660   5.330   7.555  1.1389 -1.5297  0.7314
18069SOL    HW266267   3.779   5.433   7.513 -0.4513 -0.0222 -0.1441
18070SOL     OW66268   5.280   4.497   0.194 -0.0798  0.0871  0.6415
18070SOL    HW166269   5.216   4.561   0.238  0.8294  0.4960  1.3763
18070SOL    HW266270   5.287   4.519   0.097 -0.1846  0.7577  0.7841
18071SOL     OW66271   3.743   8.787   3.148 -0.1293 -0.1404 -0.6562
18071SOL    HW166272   3.685   8.773   3.068 -1.0986 -1.5992  0.2831
18071SOL    HW266273   3.700   8.747   3.228  1.0104  0.9812  0.5441
18072SOL     OW66274   4.679   4.108   6.071  0.6016  0.1365 -0.4901
18072SOL    HW166275   4.609   4.139   6.008 -0.2750 -0.6937  0.0650
18072SOL    HW266276   4.667   4.153   6.160  1.4092  0.7848 -0.7096
18073SOL     OW66277   6.879   6.609   9.899  0.3646  0.1348  0.4914
18073SOL    HW166278   6.932   6.548   9.839  0.0228 -0.0908  0.4128
18073SOL    HW266279   6.886   6.578   9.993 -0.0614 -0.2122  0.4094
18074SOL     OW66280   1.162   2.930   8.412  0.0593 -0.4947 -0.4968
18074SOL    HW166281   1.238   2.926   8.347 -0.9749 -2.5481 -1.6553
18074SOL    HW266282   1.076   2.912   8.364 -0.9658  0.0843  1.0808
18075SOL     OW66283   6.646   3.094   6.926 -1.0521 -0.2229  0.4613
18075SOL    HW166284   6.678   3.165   6.989  0.0148  1.1463 -1.5862
18075SOL    HW266285   6.631   3.133   6.836 -2.9565 -2.0904 -0.0612
18076SOL     OW66286   1.290   8.816   5.709  0.5381  0.0005  0.5440
18076SOL    HW166287   1.294   8.718   5.728 -0.7178 -0.0419  0.6550
18076SOL    HW266288   1.195   8.845   5.705  0.8825  1.0063 -0.6303
18077SOL     OW66289   9.635   4.575   5.384  0.3490 -0.0728 -0.1331
18077SOL    HW166290   9.543   4.535   5.391  0.7426 -0.9430  0.1332
18077SOL    HW266291   9.698   4.507   5.348  0.4510  1.2123 -2.4751
18078SOL     OW66292   5.007   5.077   9.660 -0.1116  0.6660 -0.1807
18078SOL    HW166293   5.001   5.119   9.570  1.5794  1.7725  0.1994
18078SOL    HW266294   4.978   5.143   9.730  0.9386  0.6585  0.2764
18079SOL     OW66295   3.025   1.788   8.779 -0.2975  0.1609 -0.1226
18079SOL    HW166296   3.047   1.881   8.747  1.7366  1.0077  3.4500
18079SOL    HW266297   2.984   1.793   8.870 -0.8380 -2.4230 -0.1933
18080SOL     OW66298   1.727   2.819   0.367  0.7968 -0.2292 -0.1275
18080SOL    HW166299   1.673   2.736   0.351  0.4131 -0.2872  1.3766
18080SOL    HW266300   1.786   2.836   0.288 -0.3283 -1.0060 -1.1535
18081SOL     OW66301   5.156   3.338   2.164 -0.1429  0.0552 -0.0735
18081SOL    HW166302   5.248   3.348   2.127  0.4677  0.9250  1.5957
18081SOL    HW266303   5.145   3.401   2.242 -2.1430 -0.0340 -0.2648
18082SOL     OW66304   3.768   4.716   8.712  0.2455  0.0612  0.2562
18082SOL    HW166305   3.793   4.711   8.615  1.0861  3.2200  0.2404
18082SOL    HW266306   3.843   4.680   8.768 -0.0739 -1.3911 -0.2477
18083SOL     OW66307   6.756   4.723   3.427 -0.0586  0.4013  0.3755
18083SOL    HW166308   6.726   4.812   3.392  1.3663  0.8254  0.2028
18083SOL    HW266309   6.684   4.684   3.485 -1.8544  0.3578 -1.8348
18084SOL     OW66310   5.725   0.464   3.659  0.0317  0.1593 -0.2456
18084SOL    HW166311   5.704   0.508   3.572 -0.1107  1.9161  0.6558
18084SOL    HW266312   5.788   0.522   3.711 -0.6796 -0.3825  1.2438
18085SOL     OW66313   9.270   5.620   4.853 -0.4171 -0.3226 -0.0406
18085SOL    HW166314   9.258   5.719   4.845  0.4572 -0.1397  0.8633
18085SOL    HW266315   9.304   5.584   4.766  0.0022  0.2819 -0.1307
18086SOL     OW66316   5.714   9.182   0.500 -0.3168  0.3216 -0.1468
18086SOL    HW166317   5.757   9.216   0.416 -0.4630 -1.9809 -1.1845
18086SOL    HW266318   5.784   9.145   0.561 -0.4832 -0.5099 -0.4529
18087SOL     OW66319   6.880   1.265   0.342 -0.4391  0.3462 -0.2977
18087SOL    HW166320   6.795   1.316   0.356  0.1029  1.7242 -1.8561
18087SOL    HW266321   6.911   1.277   0.248  2.4894  1.4661  0.7398
18088SOL     OW66322   4.793   0.945   2.918  0.2241  0.1064  0.3062
18088SOL    HW166323   4.831   0.882   2.850  0.3149 -0.9171  1.2823
18088SOL    HW266324   4.863   0.968   2.985 -0.1468  0.2917  0.6336
18089SOL     OW66325   7.021   6.366   9.236  0.3545 -0.0135 -0.5011
18089SOL    HW166326   7.096   6.432   9.232  1.1597 -0.9137 -0.4818
18089SOL    HW266327   7.051   6.279   9.197 -0.5189 -0.5371 -0.0232
18090SOL     OW66328   9.188   8.293   3.863  0.1788 -0.0947  0.2069
18090SOL    HW166329   9.252   8.359   3.903 -0.2616  0.4910 -0.0528
18090SOL    HW266330   9.104   8.290   3.917 -0.4755  0.8049 -0.7389
18091SOL     OW66331   4.140   7.098   3.781 -0.3292  0.8012 -0.2610
18091SOL    HW166332   4.143   6.998   3.781  0.3023  0.8007 -1.8412
18091SOL    HW266333   4.214   7.134   3.836  0.2794  0.4004 -0.8072
18092SOL     OW66334   8.645   4.298   0.264 -0.3025  0.6060 -0.1051
18092SOL    HW166335   8.623   4.231   0.335 -1.9748  0.2201 -0.9647
18092SOL    HW266336   8.584   4.376   0.271  1.3146  1.8380  0.5668
18093SOL     OW66337   7.736   2.193   4.719 -0.4121 -0.7307  0.4247
18093SOL    HW166338   7.730   2.132   4.641  0.2267 -0.3381  0.0693
18093SOL    HW266339   7.709   2.285   4.692 -0.2967 -0.6151  0.6955
18094SOL     OW66340   6.156   1.631   1.211  0.0952  0.1382  0.0012
18094SOL    HW166341   6.070   1.624   1.159 -2.0205  1.4510  3.1878
18094SOL    HW266342   6.200   1.541   1.215 -1.0794 -0.5387 -1.7347
18095SOL     OW66343   7.908   3.969   2.342  0.4459 -0.0743  0.4000
18095SOL    HW166344   7.830   3.923   2.383 -0.3180 -1.2338 -2.2577
18095SOL    HW266345   7.900   4.068   2.357  0.5358 -0.4880  3.4981
18096SOL     OW66346   7.028   6.789   0.740 -0.2560 -0.8231  0.2150
18096SOL    HW166347   7.101   6.836   0.690 -1.6207 -1.4389 -2.4447
18096SOL    HW266348   6.971   6.856   0.787  1.6166 -0.2929  1.7873
18097SOL     OW66349   5.545   2.454   0.859 -0.6753 -0.5510  0.2225
18097SOL    HW166350   5.470   2.392   0.880 -0.3804 -1.7761 -2.1018
18097SOL    HW266351   5.629   2.421   0.901 -0.7234 -1.2095 -0.1889
18098SOL     OW66352   6.951   5.245   7.032  0.3710  0.4338 -0.0484
18098SOL    HW166353   6.981   5.215   6.941 -2.1240  0.4441 -0.9126
18098SOL    HW266354   7.017   5.311   7.068  0.5148  1.7621 -2.6258
18099SOL     OW66355   4.508   5.353   3.507 -0.0174  0.0492  0.1253
18099SOL    HW166356   4.438   5.290   3.540  0.0791 -0.6899 -1.0430
18099SOL    HW266357   4.557   5.311   3.430  1.3207  0.7860  0.5506
18100SOL     OW66358   4.072   8.004   1.005  0.2465  0.5666  0.9125
18100SOL    HW166359   4.130   7.936   1.050  2.1699  0.6496 -1.3764
18100SOL    HW266360   4.013   7.959   0.939  1.0305  1.0225 -0.1082
18101SOL     OW66361   8.926   4.184   4.498 -0.3502 -0.7113 -0.0363
18101SOL    HW166362   8.965   4.192   4.407  1.0183 -0.2802  0.5660
18101SOL    HW266363   8.850   4.248   4.508 -2.0203 -2.4026 -1.6185
18102SOL     OW66364   4.181   3.579   1.095  0.1739 -0.8056  0.0160
18102SOL    HW166365   4.163   3.635   1.176  1.5856  2.7812 -2.0411
18102SOL    HW266366   4.278   3.552   1.094  0.3670 -0.0962 -0.9066
18103SOL     OW66367   0.508   6.899   3.690  0.0219 -0.2171  0.1135
18103SOL    HW166368   0.443   6.829   3.661 -0.1523 -0.1436  0.3240
18103SOL    HW266369   0.566   6.925   3.613 -1.3754  1.0215 -0.5480
18104SOL     OW66370   4.280   2.690   0.594 -0.0048 -0.0390  0.4520
18104SOL    HW166371   4.306   2.776   0.551  0.7472 -0.4270  0.1077
18104SOL    HW266372   4.187   2.665   0.568 -0.5680  1.1382  1.3106
18105SOL     OW66373   7.951   3.562   6.946 -0.5184  0.0321 -0.0073
18105SOL    HW166374   7.963   3.648   6.896 -1.4644  0.8985  1.2319
18105SOL    HW266375   7.872   3.513   6.910 -0.3694  0.0004 -0.2873
18106SOL     OW66376   1.789   7.927   2.377  0.2497 -0.1411 -0.0409
18106SOL    HW166377   1.872   7.948   2.326 -0.5907 -1.1268 -1.8602
18106SOL    HW266378   1.788   7.829   2.399 -1.2985 -0.5053 -1.6618
18107SOL     OW66379   3.583   3.711   9.955 -0.2707  0.0566  0.1489
18107SOL    HW166380   3.511   3.685  10.019 -0.8556  2.6690  0.6328
18107SOL    HW266381   3.617   3.630   9.907 -2.8382 -1.3451  0.6204
18108SOL     OW66382   2.304   4.767   5.493  0.2017  0.1367 -0.6064
18108SOL    HW166383   2.342   4.715   5.570  0.1906 -0.6263 -1.1073
18108SOL    HW266384   2.204   4.763   5.495  0.1981  0.3170 -0.5150
18109SOL     OW66385   6.656   1.369   0.422  0.0571 -0.1122 -0.1785
18109SOL    HW166386   6.590   1.302   0.455 -1.2419  0.4346 -1.6057
18109SOL    HW266387   6.611   1.434   0.361  1.6961  0.9205 -0.3431
18110SOL     OW66388   3.817   7.304   2.273  0.9091 -0.6362  0.7669
18110SOL    HW166389   3.856   7.212   2.263  2.0126 -0.2703  1.5387
18110SOL    HW266390   3.727   7.307   2.230  1.4220 -1.7142 -0.4140
18111SOL     OW66391   7.201   8.910   0.778 -0.0196 -0.2289  0.8860
18111SOL    HW166392   7.233   8.833   0.723 -0.4329 -0.6779  1.2699
18111SOL    HW266393   7.146   8.876   0.855 -0.3597  0.4562  0.9502
18112SOL     OW66394   7.502   5.114   5.340 -0.3386  0.5056 -0.2961
18112SOL    HW166395   7.580   5.051   5.340 -2.1383 -1.8323 -0.6349
18112SOL    HW266396   7.451   5.102   5.425  1.0594  3.8844  1.0810
18113SOL     OW66397   8.199   1.903   5.735 -0.2049  0.1195 -0.3906
18113SOL    HW166398   8.170   1.901   5.639  0.8399 -0.4206 -0.6969
18113SOL    HW266399   8.122   1.931   5.792 -0.8622  0.3427 -1.3739
18114SOL     OW66400   7.085   2.860   4.223  0.4631 -0.1831  0.9011
18114SOL    HW166401   7.095   2.761   4.236 -0.2102 -0.7510 -2.3799
18114SOL    HW266402   7.175   2.903   4.221  0.8240 -0.9361  1.0373
18115SOL     OW66403   5.719   4.981   4.586  0.1328  0.4416  0.0664
18115SOL    HW166404   5.691   4.972   4.682 -2.1237  0.6721 -0.5258
18115SOL    HW266405   5.815   5.006   4.581  0.7937 -1.4916  2.2210
18116SOL     OW66406   7.495   3.205   4.418  0.0905  0.3463 -0.8293
18116SOL    HW166407   7.581   3.224   4.370 -0.6965  1.0101 -1.9959
18116SOL    HW266408   7.506   3.227   4.515  0.7614  1.9891 -1.2510
18117SOL     OW66409   2.312   1.543   3.788  0.2777 -0.3290 -0.2766
18117SOL    HW166410   2.265   1.611   3.844 -1.0619 -1.3699 -0.1302
18117SOL    HW266411   2.384   1.499   3.842 -0.0147 -0.2610  0.1743
18118SOL     OW66412   4.927   3.903   5.265  0.2560 -0.0979  0.3685
18118SOL    HW166413   4.909   3.869   5.357  0.3519 -1.7127 -0.1807
18118SOL    HW266414   5.025   3.898   5.246  0.3067  0.7981  0.3956
18119SOL     OW66415   7.862   5.807   3.928  0.1291  0.7967  0.1860
18119SOL    HW166416   7.835   5.896   3.966 -0.7794  0.3346  0.6481
18119SOL    HW266417   7.945   5.775   3.973 -0.0412  1.0052  0.6600
18120SOL     OW66418   3.352   4.035   2.170 -0.1538  0.9547 -0.7130
18120SOL    HW166419   3.294   3.957   2.146  0.7559  0.2934 -0.7809
18120SOL    HW266420   3.320   4.116   2.120 -2.2240  1.0695  0.7205
18121SOL     OW66421   2.547   5.709   7.459 -0.0806  0.2032 -0.3130
18121SOL    HW166422   2.551   5.767   7.541 -1.5349 -0.8043  0.4913
18121SOL    HW266423   2.547   5.767   7.377  0.9704  1.2401  0.3997
18122SOL     OW66424   8.862   5.130   1.331 -0.1181 -0.1740 -0.0461
18122SOL    HW166425   8.846   5.121   1.233 -0.7940 -0.0179  0.0467
18122SOL    HW266426   8.944   5.185   1.346 -1.6799  2.3657 -0.5170
18123SOL     OW66427   7.832   4.561   3.909 -0.2734  0.6462 -0.3702
18123SOL    HW166428   7.748   4.515   3.937 -0.5932  0.3554 -1.7851
18123SOL    HW266429   7.817   4.660   3.909 -0.2302  0.6656  0.5630
18124SOL     OW66430   5.192   1.975   3.122 -0.7125  0.5444 -0.6045
18124SOL    HW166431   5.277   1.931   3.150 -1.6329 -2.4197 -2.1436
18124SOL    HW266432   5.191   2.070   3.151  2.8271  0.4409 -0.0025
18125SOL     OW66433   0.489   0.768   1.324 -0.9974 -0.0239 -0.0736
18125SOL    HW166434   0.409   0.724   1.364 -0.3391 -2.1854 -1.0292
18125SOL    HW266435   0.571   0.741   1.375 -0.4732 -0.7033 -1.2380
18126SOL     OW66436   9.931   8.589   3.437  0.5874 -0.2302  0.5093
18126SOL    HW166437   9.968   8.661   3.378  1.4895 -1.4765 -0.4755
18126SOL    HW266438   9.875   8.527   3.383 -0.8018  0.1495  1.5020
18127SOL     OW66439   7.604   5.500   8.150 -0.0188 -0.3717 -0.0821
18127SOL    HW166440   7.532   5.550   8.102  2.5343  2.9370 -0.7102
18127SOL    HW266441   7.673   5.469   8.084  0.4299 -1.1923  0.7647
18128SOL     OW66442   6.720   5.525   8.935 -0.5697  0.4522  0.1721
18128SOL    HW166443   6.718   5.573   8.847 -0.1910 -0.5465 -0.3856
18128SOL    HW266444   6.626   5.511   8.967 -0.7165  0.5446 -0.2166
18129SOL     OW66445   7.261   4.642   0.049  0.1706 -0.2551  0.1424
18129SOL    HW166446   7.165   4.666   0.063 -0.3909 -0.8865 -2.2787
18129SOL    HW266447   7.273   4.543   0.056  0.7723 -0.1215  1.0829
18130SOL     OW66448   0.094   8.201   4.911 -0.0985  0.2755  0.4492
18130SOL    HW166449   0.035   8.245   4.979  0.0571 -0.4672  1.0685
18130SOL    HW266450   0.038   8.164   4.837 -0.4979 -1.1483  1.4415
18131SOL     OW66451   6.789   4.996   0.382  0.1564  0.0652  0.0052
18131SOL    HW166452   6.830   4.943   0.456 -1.6884 -1.8372 -0.2770
18131SOL    HW266453   6.695   5.019   0.406 -0.7163 -1.2057 -1.9947
18132SOL     OW66454   6.529   9.037   5.529 -0.2350 -0.5172  0.0128
18132SOL    HW166455   6.488   8.971   5.466 -0.7776  0.6142 -0.8556
18132SOL    HW266456   6.601   9.087   5.481 -2.1204  1.8893 -0.4411
18133SOL     OW66457   6.749   2.324   0.108 -0.2826 -0.0680 -0.3538
18133SOL    HW166458   6.673   2.259   0.105  0.4268 -0.8524 -1.7921
18133SOL    HW266459   6.812   2.305   0.033  0.9975  0.9997  0.4320
18134SOL     OW66460   4.277   1.174   2.591  0.0643 -0.0866  0.2380
18134SOL    HW166461   4.295   1.248   2.657 -0.9113 -0.7433  1.2676
18134SOL    HW266462   4.261   1.214   2.501  0.6817  0.8860  0.5405
18135SOL     OW66463   6.631   7.791   4.563  0.1919  0.0023  0.2599
18135SOL    HW166464   6.551   7.801   4.504  1.8285 -0.9603 -2.1885
18135SOL    HW266465   6.640   7.696   4.592  0.3873  0.1388  0.6680
18136SOL     OW66466   8.764   4.026   8.469  0.2704 -0.2804  0.1321
18136SOL    HW166467   8.707   3.947   8.448  1.2870 -0.9493 -0.1802
18136SOL    HW266468   8.717   4.110   8.444 -1.5739 -0.6892  2.1440
18137SOL     OW66469   7.911   7.900   8.605 -0.2589 -0.4261  0.7646
18137SOL    HW166470   7.898   7.861   8.514 -0.7637  1.9539 -0.2282
18137SOL    HW266471   7.969   7.840   8.660 -1.1794 -2.6237 -0.6162
18138SOL     OW66472   5.703   3.534   5.173 -0.2664  0.5832  0.7520
18138SOL    HW166473   5.663   3.458   5.123  0.8929  0.8475 -0.5848
18138SOL    HW266474   5.652   3.618   5.152  1.5384  1.1018 -1.7101
18139SOL     OW66475   4.418   6.290   0.886 -0.8942 -0.4867 -0.4011
18139SOL    HW166476   4.349   6.329   0.824 -0.4743 -2.4672 -2.1650
18139SOL    HW266477   4.509   6.299   0.844 -0.3734 -0.1268  0.8008
18140SOL     OW66478   4.125   3.794   1.331 -0.0468  0.6339 -0.0485
18140SOL    HW166479   4.199   3.844   1.285  0.3730 -1.4193 -1.6582
18140SOL    HW266480   4.165   3.730   1.397 -0.4757  0.5634  0.1442
18141SOL     OW66481   0.086   4.093   4.208 -0.4228  0.4952 -0.2902
18141SOL    HW166482  -0.004   4.059   4.181  1.1879 -3.0274 -1.4861
18141SOL    HW266483   0.102   4.073   4.305 -2.0631  3.8710  0.7597
18142SOL     OW66484   6.468   4.150   3.092  0.5944  0.2339 -0.0940
18142SOL    HW166485   6.538   4.198   3.145 -0.2531  2.3922 -0.8879
18142SOL    HW266486   6.489   4.156   2.995 -0.2688  0.2509 -0.2901
18143SOL     OW66487   0.333   5.473   4.713  0.0458 -0.0523  0.0512
18143SOL    HW166488   0.277   5.529   4.774  0.7871  0.3648  0.3445
18143SOL    HW266489   0.352   5.385   4.756  1.3980  0.6160  0.8468
18144SOL     OW66490   2.024   3.543   5.860  0.1522 -0.4876 -0.0776
18144SOL    HW166491   2.042   3.452   5.898 -1.7076 -0.3737  1.1635
18144SOL    HW266492   1.930   3.569   5.882  0.7581  1.8449 -0.2154
18145SOL     OW66493   4.700   4.674   2.770 -0.1983  0.0318  0.4864
18145SOL    HW166494   4.630   4.608   2.798 -0.5048  1.5720  3.4954
18145SOL    HW266495   4.658   4.746   2.715 -0.5432 -0.2692  0.3515
18146SOL     OW66496   6.509   1.184   2.211 -0.4761  0.7323  0.5781
18146SOL    HW166497   6.495   1.269   2.161 -1.2037  2.0736  2.9648
18146SOL    HW266498   6.560   1.120   2.154 -0.8470  2.3560 -1.6603
18147SOL     OW66499   3.489   6.256   4.485  0.3741 -0.3961  0.0080
18147SOL    HW166500   3.533   6.200   4.555  0.2526  1.9730  2.0442
18147SOL    HW266501   3.392   6.267   4.507 -0.0601 -1.0047 -1.4780
18148SOL     OW66502   9.791   6.638   8.438 -0.0713 -0.0114  0.7396
18148SOL    HW166503   9.719   6.693   8.480 -0.0243 -1.1014  2.2532
18148SOL    HW266504   9.850   6.697   8.383 -1.9117  0.9513 -0.2627
18149SOL     OW66505   5.883   1.790   0.998  0.9553 -0.6594  0.4240
18149SOL    HW166506   5.914   1.854   0.928 -1.7592 -1.1941 -1.3260
18149SOL    HW266507   5.915   1.698   0.976 -0.3670 -0.9213 -0.4416
18150SOL     OW66508   2.650   2.572   4.136 -0.1280 -0.0900 -0.0057
18150SOL    HW166509   2.677   2.513   4.212  0.7984  1.4409  0.8850
18150SOL    HW266510   2.731   2.595   4.081 -0.6941 -0.6890 -1.1090
18151SOL     OW66511   5.707   3.459   1.433  0.4017  0.6610 -0.2336
18151SOL    HW166512   5.711   3.508   1.346  0.9968 -0.1968 -0.6965
18151SOL    HW266513   5.618   3.413   1.441  0.1539  1.1484 -0.1588
18152SOL     OW66514   6.888   2.452   6.087  0.0643 -0.0802  0.3216
18152SOL    HW166515   6.883   2.462   5.987 -1.1209  1.3957  0.5038
18152SOL    HW266516   6.910   2.358   6.110  0.6368 -0.3754 -1.3478
18153SOL     OW66517   5.046   8.871   0.648 -0.0073  0.5077 -0.0007
18153SOL    HW166518   5.115   8.878   0.721  0.2460 -0.1187 -0.1680
18153SOL    HW266519   4.977   8.803   0.674  0.6400 -0.4623 -0.7725
18154SOL     OW66520   6.446   3.662   7.044  0.6747 -0.0991 -0.7220
18154SOL    HW166521   6.464   3.585   7.105 -3.2006 -0.4876  0.0671
18154SOL    HW266522   6.405   3.628   6.959 -0.9403  1.0591 -0.4225
18155SOL     OW66523   1.691   7.741   5.894 -0.0197  0.6046 -0.4598
18155SOL    HW166524   1.595   7.732   5.867  1.0356 -1.7758 -3.8556
18155SOL    HW266525   1.714   7.837   5.903 -2.3983  1.2635 -1.0166
18156SOL     OW66526   5.012   6.093   2.700  0.1961 -0.5897 -0.0462
18156SOL    HW166527   4.973   6.168   2.753 -1.7870 -0.3421 -1.7589
18156SOL    HW266528   4.976   6.097   2.606  3.9255 -0.7488 -1.5410
18157SOL     OW66529   2.121   0.259   7.615  0.1625 -0.3034  0.1946
18157SOL    HW166530   2.137   0.237   7.519 -0.2782 -3.0578  0.7122
18157SOL    HW266531   2.034   0.307   7.625  0.7704  1.0550 -0.8942
18158SOL     OW66532   6.240   2.121   3.462  0.2257 -0.5578 -0.0261
18158SOL    HW166533   6.213   2.161   3.374 -0.2400 -1.9801 -0.5635
18158SOL    HW266534   6.291   2.036   3.445  0.4812 -0.6334  1.0780
18159SOL     OW66535   6.850   3.081   3.219  0.5008 -0.0300  0.3743
18159SOL    HW166536   6.947   3.074   3.242  0.3624 -1.5147  0.5405
18159SOL    HW266537   6.840   3.123   3.129  1.2838  0.4480  0.5083
18160SOL     OW66538   7.128   6.517   8.247 -0.0738 -0.0012  0.0547
18160SOL    HW166539   7.211   6.570   8.233 -0.1573  0.3562  0.8806
18160SOL    HW266540   7.089   6.539   8.336 -1.0441 -0.1799 -0.3143
18161SOL     OW66541   4.670   5.942   9.532  0.1598 -0.1973  0.2048
18161SOL    HW166542   4.589   5.923   9.476 -0.0274  0.8347  0.1195
18161SOL    HW266543   4.751   5.949   9.473  0.1582 -0.3043  0.1923
18162SOL     OW66544   6.147   0.014   6.349 -0.5239  0.4520 -0.0954
18162SOL    HW166545   6.230   0.067   6.328 -0.2015  0.4008  1.0385
18162SOL    HW266546   6.088   0.068   6.408  0.5870 -1.0975  2.4930
18163SOL     OW66547   8.573   6.022   8.673 -0.0326 -0.1979 -0.2654
18163SOL    HW166548   8.536   6.076   8.749  0.3483  0.6997 -0.7080
18163SOL    HW266549   8.641   6.077   8.624 -1.6386 -0.0854 -2.4178
18164SOL     OW66550   2.399   2.301   2.846  0.1525 -0.0779  0.3547
18164SOL    HW166551   2.479   2.241   2.850  0.3684  0.2467  0.9532
18164SOL    HW266552   2.351   2.300   2.934 -2.0628 -2.3673 -0.8012
18165SOL     OW66553   4.139   7.087   2.357 -0.5289  0.6779 -0.8464
18165SOL    HW166554   4.179   7.172   2.324  1.1064  0.2208 -0.1163
18165SOL    HW266555   4.195   7.050   2.431 -1.7587 -0.5252 -0.4792
18166SOL     OW66556   8.724   1.830   6.102 -0.0609 -0.0756  0.3040
18166SOL    HW166557   8.752   1.922   6.130 -0.6051  0.0982  0.2811
18166SOL    HW266558   8.669   1.836   6.019  1.3677 -0.5685 -0.7017
18167SOL     OW66559   9.292   2.964   4.805  0.2504  0.0386 -0.0122
18167SOL    HW166560   9.332   3.029   4.869 -2.6301  1.2999  0.6227
18167SOL    HW266561   9.297   2.872   4.843  0.7897  0.4389  0.8927
18168SOL     OW66562   4.933   4.784   7.624  0.0264 -0.1415 -0.3503
18168SOL    HW166563   4.971   4.831   7.544  0.2057  1.1763  0.4812
18168SOL    HW266564   4.839   4.814   7.639  0.5618  0.9736  0.9465
18169SOL     OW66565   6.059   2.634   2.116  0.2103 -0.6088 -0.2695
18169SOL    HW166566   6.152   2.625   2.153  0.3690 -0.7469 -0.7042
18169SOL    HW266567   6.047   2.725   2.077 -0.3436 -0.0403  1.1850
18170SOL     OW66568   5.520   4.735   9.795  0.3935 -0.0712 -0.0874
18170SOL    HW166569   5.586   4.662   9.780  0.6673  0.1734 -0.0647
18170SOL    HW266570   5.562   4.809   9.848  0.5288  0.7285 -1.2927
18171SOL     OW66571   7.846   4.832   3.855 -0.5637 -0.3059  0.3201
18171SOL    HW166572   7.945   4.838   3.844 -0.5359 -0.7374  0.3091
18171SOL    HW266573   7.804   4.814   3.766 -0.8186  1.7477 -0.0093
18172SOL     OW66574   4.609   2.389   2.685  0.1079  0.1758  0.1372
18172SOL    HW166575   4.702   2.426   2.677  0.3139 -0.3639 -0.0178
18172SOL    HW266576   4.544   2.457   2.651  0.5464  0.0847 -0.9270
18173SOL     OW66577   6.655   4.918   1.777 -0.4484 -0.5299  0.1842
18173SOL    HW166578   6.713   4.864   1.838  2.7664  0.7094 -1.6324
18173SOL    HW266579   6.629   5.004   1.822  0.2907 -0.4785  0.5205
18174SOL     OW66580   4.666   4.704   2.133 -0.2914  0.3915 -0.2001
18174SOL    HW166581   4.714   4.773   2.078 -0.1972  0.4777 -0.0108
18174SOL    HW266582   4.618   4.749   2.208 -1.4547  0.4014 -0.9387
18175SOL     OW66583   4.970   4.811   2.693  0.3145 -0.4187  0.1891
18175SOL    HW166584   4.902   4.746   2.727  0.5122 -0.5775  0.2797
18175SOL    HW266585   4.998   4.872   2.767  0.6323 -0.6663  0.2679
18176SOL     OW66586   9.229   0.860   1.316  0.5563 -0.3776  0.3701
18176SOL    HW166587   9.244   0.779   1.259  0.3268  1.2671 -2.1092
18176SOL    HW266588   9.144   0.905   1.288  0.4942  0.5325  1.9656
18177SOL     OW66589   7.377   2.425   4.782  0.9742  0.5834  0.4652
18177SOL    HW166590   7.414   2.427   4.875  0.2033  1.8445  0.7445
18177SOL    HW266591   7.295   2.481   4.777  0.3341 -0.4333 -0.7027
18178SOL     OW66592   6.407   9.189   8.276 -0.2977  0.5711 -0.0903
18178SOL    HW166593   6.430   9.198   8.179  1.8318  0.6089  0.3804
18178SOL    HW266594   6.491   9.189   8.330 -1.4612  0.6569  1.7756
18179SOL     OW66595   4.614   9.313   9.012 -0.2290 -0.3417 -0.3913
18179SOL    HW166596   4.541   9.283   9.074  0.8376 -2.0482  0.0974
18179SOL    HW266597   4.644   9.235   8.957  1.1472  0.3666 -0.6507
18180SOL     OW66598   2.619   6.450   8.184 -0.6433  0.2822 -0.1038
18180SOL    HW166599   2.691   6.502   8.138  0.5325 -1.3125 -0.1083
18180SOL    HW266600   2.632   6.456   8.283 -0.6593  0.1913 -0.0974
18181SOL     OW66601   9.083   2.852   0.235 -0.0758 -0.5957  0.1107
18181SOL    HW166602   9.122   2.937   0.268  1.4327 -0.4839 -1.8419
18181SOL    HW266603   9.090   2.849   0.135  0.3509 -3.2045  0.1831
18182SOL     OW66604   6.695   6.573   2.596 -0.2388 -0.0645 -0.6295
18182SOL    HW166605   6.661   6.510   2.667  0.3171 -0.3860 -0.6408
18182SOL    HW266606   6.627   6.583   2.525 -0.0564 -1.2219 -0.9781
18183SOL     OW66607   7.966   4.699   6.326  0.0262 -0.4899 -0.3422
18183SOL    HW166608   7.913   4.740   6.251  0.5905 -0.6342 -0.8233
18183SOL    HW266609   7.974   4.600   6.311  0.7668 -0.4112 -0.4839
18184SOL     OW66610   6.122   4.992   2.918 -0.2468  0.2922 -0.4619
18184SOL    HW166611   6.153   4.902   2.952  0.3347  0.9637  0.8546
18184SOL    HW266612   6.025   5.002   2.936  0.1924  0.9180  1.7219
18185SOL     OW66613   6.998   5.856   2.060  0.4688  0.3856  0.1674
18185SOL    HW166614   6.936   5.933   2.078  0.2024  0.0670  0.6091
18185SOL    HW266615   7.032   5.862   1.966  1.8278  2.0364  0.7417
18186SOL     OW66616   7.735   4.214   1.822  0.7167  0.4875  0.2062
18186SOL    HW166617   7.693   4.301   1.845 -0.1224 -0.4396  2.3310
18186SOL    HW266618   7.664   4.145   1.807  1.4126 -0.4922  1.3273
18187SOL     OW66619   4.150   4.085   1.614  0.4132 -0.0852  0.4880
18187SOL    HW166620   4.098   4.073   1.529 -1.1052  1.3529  1.1789
18187SOL    HW266621   4.201   4.001   1.634 -0.2188 -0.8916 -1.1558
18188SOL     OW66622   7.814   5.316   7.295 -0.5385  0.4251  0.1393
18188SOL    HW166623   7.914   5.321   7.293 -0.5563  0.2415 -1.8553
18188SOL    HW266624   7.780   5.297   7.203 -2.4283  0.7171  0.7711
18189SOL     OW66625   3.791   0.496   2.524 -0.5871  0.0799 -0.0643
18189SOL    HW166626   3.800   0.594   2.507  0.4024 -0.1661 -1.0306
18189SOL    HW266627   3.820   0.445   2.443  0.4957 -1.0429  0.9984
18190SOL     OW66628   9.460   9.297   9.472 -0.0534 -0.5081  0.2571
18190SOL    HW166629   9.526   9.288   9.547  0.2155 -1.2045 -0.0704
18190SOL    HW266630   9.393   9.223   9.477  0.0160 -0.6068 -0.2475
18191SOL     OW66631   2.528   0.650   3.251 -0.2124  0.0145 -0.2870
18191SOL    HW166632   2.440   0.685   3.222 -0.2695 -0.0177 -0.1526
18191SOL    HW266633   2.585   0.633   3.171 -0.4413 -0.2592 -0.3922
18192SOL     OW66634   5.256   6.494   4.974 -0.3341  0.5805 -0.0434
18192SOL    HW166635   5.206   6.581   4.974  2.1397  2.0733 -1.3225
18192SOL    HW266636   5.265   6.461   4.880 -1.4273 -1.1908  0.4551
18193SOL     OW66637   2.997   4.371   8.325 -0.4160 -0.0241 -0.0960
18193SOL    HW166638   2.946   4.355   8.240 -1.4304  1.9847  0.0926
18193SOL    HW266639   3.073   4.433   8.306  0.3017 -0.8070  0.1804
18194SOL     OW66640   9.472   7.952   3.158  0.6923  0.1928  0.0938
18194SOL    HW166641   9.480   7.874   3.095 -0.0278 -0.9711  1.4083
18194SOL    HW266642   9.523   8.030   3.121  0.5286 -0.5547 -1.7779
18195SOL     OW66643   6.060   4.635   0.584  0.4658 -0.2304  0.3145
18195SOL    HW166644   5.981   4.605   0.638 -1.1741  1.4419 -1.1201
18195SOL    HW266645   6.105   4.555   0.544 -1.4240 -1.1057 -0.1040
18196SOL     OW66646   7.195   2.346   1.911  0.1513  0.5367  0.1063
18196SOL    HW166647   7.245   2.382   1.989 -0.3131  0.9739  0.2021
18196SOL    HW266648   7.201   2.410   1.835  1.7111 -0.4800 -0.6638
18197SOL     OW66649   4.653   5.489   1.019 -0.2686  0.7534  0.0470
18197SOL    HW166650   4.650   5.397   0.980 -0.7470  1.5045 -1.7799
18197SOL    HW266651   4.562   5.515   1.050 -0.0140  0.4000  1.1139
18198SOL     OW66652   5.553   9.316   1.402  0.2483 -0.6141 -0.1460
18198SOL    HW166653   5.646   9.353   1.404  0.7868 -1.9686  0.4179
18198SOL    HW266654   5.526   9.296   1.308  1.5492 -2.7342 -0.0833
18199SOL     OW66655   7.222   4.288   2.262 -0.1791 -0.1032  0.1235
18199SOL    HW166656   7.254   4.204   2.217  1.4230  0.3063  0.4985
18199SOL    HW266657   7.270   4.300   2.348  0.1947  1.6530 -0.3248
18200SOL     OW66658   5.794   4.441   5.966  0.2414  0.0100  0.3641
18200SOL    HW166659   5.747   4.366   5.920  2.9625 -1.6641  0.2146
18200SOL    HW266660   5.837   4.407   6.050  2.4351  1.1179 -0.2737
18201SOL     OW66661   6.813   5.721   2.641  0.4373  0.7133 -0.1443
18201SOL    HW166662   6.813   5.622   2.649 -0.3522  0.7440  0.2705
18201SOL    HW266663   6.902   5.757   2.669  0.0460  0.2771  1.6584
18202SOL     OW66664   6.823   7.237   5.395  0.7588  0.1868  0.3242
18202SOL    HW166665   6.733   7.197   5.380 -0.2791  1.1163  3.5377
18202SOL    HW266666   6.832   7.321   5.341 -0.4234  0.2223  0.1639
18203SOL     OW66667   1.169   9.638   9.494  0.0346 -0.4593 -0.0543
18203SOL    HW166668   1.197   9.717   9.440 -1.1582 -0.3807 -0.5938
18203SOL    HW266669   1.185   9.554   9.441 -0.0227 -0.4670 -0.0593
18204SOL     OW66670   9.724   4.176   9.745  0.6542  0.1091  0.0394
18204SOL    HW166671   9.753   4.080   9.740 -2.9762 -1.1581  1.5704
18204SOL    HW266672   9.642   4.189   9.689  0.2376  1.9720  1.0374
18205SOL     OW66673   5.568   3.403   9.041 -0.5452 -0.6253 -0.6091
18205SOL    HW166674   5.559   3.503   9.047  1.4686 -0.3321 -2.0258
18205SOL    HW266675   5.479   3.364   9.015 -1.1784  0.8525 -0.7570
18206SOL     OW66676   1.473   8.070   2.954  0.0428 -0.3440 -0.0366
18206SOL    HW166677   1.492   8.156   3.003 -0.7635  0.6344 -1.4028
18206SOL    HW266678   1.555   8.041   2.906  0.7862 -1.2074  1.7095
18207SOL     OW66679   3.301   2.836   9.109 -0.1472  0.1057 -0.0502
18207SOL    HW166680   3.397   2.822   9.087  0.2173  1.6581  0.4860
18207SOL    HW266681   3.287   2.828   9.207 -0.1712  1.9391  0.1169
18208SOL     OW66682   8.843   9.216   3.565 -0.2856 -0.1810 -0.1246
18208SOL    HW166683   8.816   9.185   3.474 -1.7591  0.4526  0.0737
18208SOL    HW266684   8.871   9.312   3.561 -0.8874  0.0094  0.1803
18209SOL     OW66685   0.106   4.311   2.605 -0.1092 -1.0126  0.3310
18209SOL    HW166686   0.201   4.344   2.600 -0.7170  1.4606  3.3783
18209SOL    HW266687   0.102   4.230   2.663 -0.1512  0.2317  2.0921
18210SOL     OW66688   3.969   6.547   1.939  0.2171 -0.3576 -0.2153
18210SOL    HW166689   3.913   6.536   1.857  0.2264 -1.2590 -0.1039
18210SOL    HW266690   3.966   6.463   1.994  1.8357 -0.4915 -0.3117
18211SOL     OW66691   3.584   7.338   2.469  0.3636 -0.0807 -0.7310
18211SOL    HW166692   3.583   7.367   2.374  0.6132  0.5011 -0.5585
18211SOL    HW266693   3.492   7.344   2.507  0.5124  1.0390 -0.5317
18212SOL     OW66694   0.776   3.676   8.268 -0.0699 -0.1228 -0.2102
18212SOL    HW166695   0.712   3.722   8.330  0.0816 -1.1449  0.7199
18212SOL    HW266696   0.825   3.745   8.214 -0.9261  0.7318  0.0860
18213SOL     OW66697   5.842   0.270   2.848  0.0397  0.1480 -0.1457
18213SOL    HW166698   5.816   0.279   2.945  1.8144  1.3727  0.2356
18213SOL    HW266699   5.833   0.175   2.820  0.5063 -0.3944  1.5118
18214SOL     OW66700   0.730   7.193   3.822  0.1342 -0.1780 -0.5786
18214SOL    HW166701   0.666   7.226   3.752  0.2258  1.0291 -0.1137
18214SOL    HW266702   0.681   7.182   3.908  0.2499 -0.6386 -0.5722
18215SOL     OW66703   6.071   7.459   0.456  0.2303  0.2157 -0.1991
18215SOL    HW166704   6.099   7.555   0.459  0.2393  0.2634 -1.7967
18215SOL    HW266705   5.976   7.453   0.425 -0.0006 -0.2614  0.5707
18216SOL     OW66706   9.376   4.273   3.743  0.2988  0.3194 -0.4284
18216SOL    HW166707   9.438   4.307   3.672 -0.0704  1.2707 -0.3074
18216SOL    HW266708   9.404   4.310   3.831 -2.3997  3.5268 -0.8214
18217SOL     OW66709   3.552   2.273   7.185  0.4022 -0.3175  0.1017
18217SOL    HW166710   3.650   2.273   7.167 -0.2339 -0.9627 -3.6107
18217SOL    HW266711   3.514   2.362   7.163 -0.3098 -0.9581 -1.3181
18218SOL     OW66712   8.907   3.717   1.370  0.3557 -0.3793 -0.2629
18218SOL    HW166713   8.968   3.773   1.313  0.9366 -0.9600 -0.2182
18218SOL    HW266714   8.938   3.622   1.368 -0.8074 -0.7624 -0.5886
18219SOL     OW66715   3.692   3.133   3.121 -0.4409  0.1352 -0.6201
18219SOL    HW166716   3.617   3.172   3.173 -0.5532  0.9977 -1.4195
18219SOL    HW266717   3.771   3.120   3.181  0.0018  2.7281 -0.5947
18220SOL     OW66718   8.292   8.167   2.323 -0.2909 -0.6316  0.2556
18220SOL    HW166719   8.325   8.100   2.388 -0.6584 -1.7360 -0.6829
18220SOL    HW266720   8.218   8.127   2.268 -1.4505  0.9638  0.6102
18221SOL     OW66721   4.523   1.120   5.777  0.4858 -0.1108  0.3521
18221SOL    HW166722   4.455   1.150   5.844  0.3475 -0.5304  0.4057
18221SOL    HW266723   4.522   1.020   5.773 -0.6357 -0.0433 -1.4389
18222SOL     OW66724   8.004   7.665   9.915  0.8047  0.1160 -0.7410
18222SOL    HW166725   7.958   7.744   9.873  0.4157 -0.3192 -1.1480
18222SOL    HW266726   8.007   7.590   9.849 -1.8248 -1.3628  0.7566
18223SOL     OW66727   4.460   3.703   1.821 -0.9628  0.5242  0.7449
18223SOL    HW166728   4.449   3.732   1.916 -2.6348 -0.7146  0.9457
18223SOL    HW266729   4.389   3.637   1.798 -0.3619  0.5604 -1.2765
18224SOL     OW66730   4.716   1.768   0.628  0.1813 -0.8667 -0.0094
18224SOL    HW166731   4.707   1.831   0.705  0.4806  1.3478 -1.7082
18224SOL    HW266732   4.682   1.678   0.654 -1.6973  0.3701  2.0449
18225SOL     OW66733   1.941   4.123   4.735  0.4899  0.1422  0.2293
18225SOL    HW166734   1.857   4.175   4.748 -0.1706 -0.5644 -1.1739
18225SOL    HW266735   1.959   4.069   4.817  0.2658  1.2633  1.0282
18226SOL     OW66736   6.171   9.114   0.164  0.1471 -0.0391 -0.1587
18226SOL    HW166737   6.229   9.175   0.109 -0.4453  0.9414  0.2826
18226SOL    HW266738   6.218   9.028   0.179 -0.4928 -1.2005 -4.0545
18227SOL     OW66739   9.356   6.610   4.868  0.0815  0.4820 -0.2237
18227SOL    HW166740   9.425   6.559   4.816 -1.7928  0.5853 -2.9030
18227SOL    HW266741   9.265   6.577   4.844 -0.9281  1.5300  1.9859
18228SOL     OW66742   2.229   9.530   2.138  0.0550 -0.1464 -0.1696
18228SOL    HW166743   2.268   9.582   2.214  0.1519 -1.0257  0.3908
18228SOL    HW266744   2.273   9.558   2.053 -0.8303  1.6367 -0.0628
18229SOL     OW66745   7.753   9.465   7.692  0.1598 -0.5098  0.3335
18229SOL    HW166746   7.828   9.430   7.636 -0.3808 -0.3019 -0.5454
18229SOL    HW266747   7.734   9.401   7.767 -0.4942 -1.8898 -0.9746
18230SOL     OW66748   8.721   3.399   3.562 -0.1391  0.0098  0.4094
18230SOL    HW166749   8.622   3.390   3.547 -0.1351  0.7030 -0.0433
18230SOL    HW266750   8.738   3.425   3.657 -0.2269 -3.2119  1.3690
18231SOL     OW66751   4.647   1.927   0.841  0.7493 -0.1421  0.8344
18231SOL    HW166752   4.622   2.024   0.839  1.6528  0.0933  0.8050
18231SOL    HW266753   4.623   1.887   0.929  0.5816  0.1593  0.9242
18232SOL     OW66754   8.622   2.930   3.801 -0.4720  0.1906  0.2515
18232SOL    HW166755   8.595   2.849   3.852 -1.8623 -0.2134 -1.0928
18232SOL    HW266756   8.565   2.939   3.719  0.8339  1.5473 -0.5431
18233SOL     OW66757   6.254   3.403   0.614  0.4425 -0.2304  0.0444
18233SOL    HW166758   6.235   3.312   0.653 -1.3049 -0.1579 -0.5896
18233SOL    HW266759   6.187   3.423   0.542  0.7380  1.6162  0.2634
18234SOL     OW66760   6.233   3.152   3.679 -0.5577 -0.1609  0.0338
18234SOL    HW166761   6.329   3.179   3.672 -0.0899 -1.4561  1.2576
18234SOL    HW266762   6.194   3.188   3.764 -1.3251  0.8290 -0.7209
18235SOL     OW66763   4.728   3.245   8.827 -0.6483  0.5037  0.2318
18235SOL    HW166764   4.767   3.309   8.893  1.5736 -1.2776  0.7468
18235SOL    HW266765   4.736   3.282   8.735  0.0813  1.2230  0.5805
18236SOL     OW66766   1.528   6.672   7.237 -0.1941 -0.1212 -0.1930
18236SOL    HW166767   1.621   6.635   7.237 -0.2252 -0.2396  2.0147
18236SOL    HW266768   1.518   6.735   7.160  1.3091 -1.0732 -1.2048
18237SOL     OW66769   6.931   1.170   4.996  0.4275  0.3469 -0.1438
18237SOL    HW166770   7.025   1.146   5.017 -0.0085 -0.7701  0.5547
18237SOL    HW266771   6.924   1.270   4.985  1.7218  0.4141 -0.4421
18238SOL     OW66772   1.915   4.324   2.667 -0.3112  0.3890 -0.1958
18238SOL    HW166773   1.978   4.272   2.610  1.5976  1.8155  0.5792
18238SOL    HW266774   1.832   4.343   2.616 -0.2989 -1.8266 -1.1070
18239SOL     OW66775   6.417   2.289   1.767  0.3515 -0.0081  0.0079
18239SOL    HW166776   6.341   2.273   1.703 -0.4088 -0.8431  1.0881
18239SOL    HW266777   6.430   2.388   1.779  0.1464  0.1515 -1.0065
18240SOL     OW66778   5.003   2.282   8.816 -0.2906  0.4551 -0.2264
18240SOL    HW166779   4.993   2.351   8.744 -1.4816  1.2012  0.6369
18240SOL    HW266780   4.913   2.258   8.853  0.2450 -0.4522  0.5208
18241SOL     OW66781   7.474   3.650   4.320 -0.2956  0.1535 -0.3933
18241SOL    HW166782   7.477   3.601   4.233  1.1507 -2.3537  1.0100
18241SOL    HW266783   7.460   3.585   4.394 -0.6429  2.1582  1.3635
18242SOL     OW66784   4.379   3.917   0.473 -0.1538 -0.1846  0.1173
18242SOL    HW166785   4.456   3.962   0.428 -1.6490  2.1613 -0.1587
18242SOL    HW266786   4.411   3.834   0.518  2.6082  0.9577  0.3630
18243SOL     OW66787   9.952   5.657   8.343  0.1066  0.1183 -0.1386
18243SOL    HW166788  10.014   5.657   8.421 -0.7522  0.4341  0.5563
18243SOL    HW266789   9.941   5.564   8.308 -1.0788 -0.3447  1.4004
18244SOL     OW66790   9.041   8.861   4.386 -0.2749  0.2870 -0.3996
18244SOL    HW166791   8.961   8.909   4.352 -0.3886  1.4581  1.4303
18244SOL    HW266792   9.036   8.854   4.486  0.1058 -2.9134 -0.5434
18245SOL     OW66793   2.127   5.598   0.246  0.6508  0.2580  0.1838
18245SOL    HW166794   2.049   5.635   0.196 -0.8008  0.0899  2.3002
18245SOL    HW266795   2.108   5.504   0.273  1.8798 -0.0262  0.0814
18246SOL     OW66796   7.045   5.949   9.923  0.0817 -0.0564  0.5343
18246SOL    HW166797   7.127   5.964   9.868 -0.3904 -0.4378 -0.2764
18246SOL    HW266798   7.017   5.854   9.916 -1.5575  0.4840 -0.7889
18247SOL     OW66799   6.087   4.484   6.545 -0.0550 -0.5326 -0.1848
18247SOL    HW166800   6.168   4.518   6.592 -0.3412 -0.7425  0.4624
18247SOL    HW266801   6.024   4.561   6.527 -0.3384 -0.5904  0.5548
18248SOL     OW66802   7.352   7.629   3.540 -0.0368 -0.5064  0.4555
18248SOL    HW166803   7.259   7.624   3.502  0.2590  0.2930 -0.4014
18248SOL    HW266804   7.419   7.618   3.467  0.5543 -1.3464  1.1109
18249SOL     OW66805   1.571   5.530   2.204 -0.1445 -0.3766 -0.4008
18249SOL    HW166806   1.667   5.504   2.200 -0.2888 -1.0957  0.5372
18249SOL    HW266807   1.563   5.630   2.208  0.5495 -0.3108 -0.6378
18250SOL     OW66808   7.833   1.026   3.580  0.0316  0.6001 -0.5528
18250SOL    HW166809   7.760   1.062   3.523  0.6964  2.2683 -0.3831
18250SOL    HW266810   7.847   1.086   3.658 -0.0711 -1.0314  0.7466
18251SOL     OW66811   6.997   6.110   6.635  0.7206 -0.2125 -0.0815
18251SOL    HW166812   6.925   6.144   6.696  2.8817  2.2386  1.1778
18251SOL    HW266813   6.966   6.118   6.540 -0.0433  2.3903  0.3537
18252SOL     OW66814   7.543   2.719   3.157 -0.4534  0.0565 -0.5372
18252SOL    HW166815   7.576   2.808   3.126  0.7597  0.2206  1.1276
18252SOL    HW266816   7.467   2.689   3.100 -0.1826  1.6746 -1.7671
18253SOL     OW66817   6.980   9.843   6.967  0.1831 -0.1405 -0.0460
18253SOL    HW166818   7.022   9.902   6.898  0.8670 -2.2384 -1.4784
18253SOL    HW266819   7.052   9.797   7.020 -0.3363  1.0242  1.7415
18254SOL     OW66820   7.417   3.870   3.333 -0.1988  0.8574  0.1018
18254SOL    HW166821   7.455   3.952   3.376 -1.9364  2.2470 -0.9412
18254SOL    HW266822   7.318   3.881   3.324 -0.4612 -1.4162  0.0349
18255SOL     OW66823   6.873   9.481   3.457 -0.3798 -0.9841 -0.2604
18255SOL    HW166824   6.806   9.407   3.453 -0.4469 -0.9085 -0.5816
18255SOL    HW266825   6.961   9.446   3.487 -0.3184 -1.2614 -0.7629
18256SOL     OW66826   5.585   2.460   9.279  0.0239  0.0096 -0.6522
18256SOL    HW166827   5.605   2.556   9.261 -1.3332  0.1628 -1.4307
18256SOL    HW266828   5.574   2.411   9.192 -1.3520 -0.3914 -0.2673
18257SOL     OW66829   0.061   7.467   3.266  0.6882 -0.7689  0.2126
18257SOL    HW166830   0.153   7.445   3.299  1.1579  1.3512  0.4091
18257SOL    HW266831   0.016   7.527   3.331 -0.2626 -0.5637 -0.6188
18258SOL     OW66832   2.493   6.740   1.292  0.3220  0.0418 -0.1287
18258SOL    HW166833   2.442   6.817   1.252  1.1338  1.2205  1.0729
18258SOL    HW266834   2.587   6.769   1.310  0.2446 -0.7850  1.6776
18259SOL     OW66835   8.473   0.625   3.563  0.1108  0.1393  0.4649
18259SOL    HW166836   8.545   0.692   3.580  0.7211 -0.3546 -0.1601
18259SOL    HW266837   8.426   0.647   3.477  1.4808 -1.2452 -0.6483
18260SOL     OW66838   7.874   9.903   7.857 -0.1279 -0.5561 -0.4191
18260SOL    HW166839   7.816   9.973   7.814 -0.0558 -1.6696 -2.4413
18260SOL    HW266840   7.819   9.822   7.875  0.5371 -1.2268 -1.3383
18261SOL     OW66841   2.284   6.924   1.126 -0.7378 -0.2476 -0.0798
18261SOL    HW166842   2.190   6.953   1.144 -0.6083 -1.6847  3.1789
18261SOL    HW266843   2.283   6.846   1.064 -1.6275  0.1848 -0.6337
18262SOL     OW66844   6.466   2.696   4.205  0.4884 -0.2597 -1.3817
18262SOL    HW166845   6.510   2.623   4.153 -0.7731 -2.4854  0.6186
18262SOL    HW266846   6.519   2.715   4.288 -0.1326 -0.1290 -1.0103
18263SOL     OW66847   3.932   5.115   2.344  0.2309  0.2572 -0.1197
18263SOL    HW166848   3.904   5.182   2.412 -0.1582 -0.6902  0.6641
18263SOL    HW266849   4.031   5.114   2.336  0.4392 -1.4570  2.3287
18264SOL     OW66850   4.902   1.464   0.612 -0.0415 -0.1391  0.9749
18264SOL    HW166851   4.870   1.497   0.524  2.1095  0.3763  0.3608
18264SOL    HW266852   4.933   1.541   0.668  1.3285 -0.7142  1.0382
18265SOL     OW66853   1.264   4.507   0.953 -0.1851  0.3494 -0.0945
18265SOL    HW166854   1.276   4.414   0.990 -0.8077  0.0092 -0.7379
18265SOL    HW266855   1.173   4.540   0.977 -1.1222 -0.4056 -2.4431
18266SOL     OW66856   5.357   5.043   0.834 -0.1395  0.0505 -0.0597
18266SOL    HW166857   5.454   5.066   0.835  0.5169 -2.5078 -0.5828
18266SOL    HW266858   5.319   5.052   0.927  0.5156  1.3301  0.0899
18267SOL     OW66859   0.495   4.501   3.316  0.3620  0.2017 -0.0978
18267SOL    HW166860   0.512   4.404   3.299 -1.9258 -0.1533 -0.6417
18267SOL    HW266861   0.403   4.525   3.282  1.7466  3.0784 -2.0731
18268SOL     OW66862   1.961   3.072   1.301 -0.2076 -0.1011 -0.4900
18268SOL    HW166863   1.986   3.164   1.330 -0.1497  0.1493 -1.3331
18268SOL    HW266864   1.911   3.027   1.375  2.6410 -0.6005  1.2269
18269SOL     OW66865   0.811   7.753   8.225  0.4080  0.1873  0.1914
18269SOL    HW166866   0.840   7.709   8.310 -1.7870 -0.5287  0.6005
18269SOL    HW266867   0.733   7.703   8.186  1.6464  0.2452 -2.4820
18270SOL     OW66868   5.730   5.942   4.772  0.2670  0.1790  0.0678
18270SOL    HW166869   5.739   5.856   4.722 -0.0204  0.3774 -0.3238
18270SOL    HW266870   5.660   5.932   4.842 -1.2114  0.7129 -1.3093
18271SOL     OW66871   5.480   5.533   6.371  0.6746 -0.0971 -0.7470
18271SOL    HW166872   5.423   5.545   6.453  0.2701 -2.1086 -0.7122
18271SOL    HW266873   5.576   5.532   6.398  0.5342 -1.0085 -0.2445
18272SOL     OW66874   0.199   5.218   8.804 -0.0506  0.0967  0.0985
18272SOL    HW166875   0.275   5.157   8.782  1.0019  0.8251  1.6775
18272SOL    HW266876   0.116   5.163   8.815  0.9480 -1.1143  1.7979
18273SOL     OW66877   5.355   5.018   2.091  0.1075 -0.2304  0.3745
18273SOL    HW166878   5.309   5.051   2.174  0.4069 -1.1194  0.9047
18273SOL    HW266879   5.375   4.920   2.101 -0.0160 -0.3876 -0.8240
18274SOL     OW66880   1.072   0.674   0.263 -0.3667  0.3066  0.0728
18274SOL    HW166881   1.049   0.680   0.360 -1.5400  1.0943 -0.2323
18274SOL    HW266882   0.988   0.665   0.209  0.4720 -4.4723 -0.6169
18275SOL     OW66883   3.424   6.023   3.740  0.1494  0.5900  0.2576
18275SOL    HW166884   3.510   6.023   3.688  0.0361  0.4579  0.0714
18275SOL    HW266885   3.443   6.047   3.835  0.7034 -1.7487  0.7545
18276SOL     OW66886   9.230   4.809   4.630  0.3768  0.0620  0.6729
18276SOL    HW166887   9.180   4.815   4.716  0.2934 -1.8724  0.7699
18276SOL    HW266888   9.286   4.726   4.629  0.7155  0.2855 -0.9546
18277SOL     OW66889   5.606   7.915   7.459 -0.6856  0.0557  0.0253
18277SOL    HW166890   5.706   7.922   7.467 -0.5555 -0.5762 -0.8964
18277SOL    HW266891   5.574   7.978   7.389 -1.0746  1.0528  1.0831
18278SOL     OW66892   6.746   1.913   5.313 -1.0312  0.2132 -0.2428
18278SOL    HW166893   6.718   1.939   5.220 -0.1955  0.8548 -0.3279
18278SOL    HW266894   6.760   1.815   5.317 -0.9386  0.1973 -0.8353
18279SOL     OW66895   5.464   4.782   2.723  0.2039 -0.8724  0.2493
18279SOL    HW166896   5.482   4.818   2.631  0.7616  0.2712  0.7971
18279SOL    HW266897   5.404   4.702   2.716  0.1435 -0.7266 -1.0977
18280SOL     OW66898   1.008   4.549   7.157 -0.2584 -0.1750  0.3492
18280SOL    HW166899   0.996   4.527   7.061 -1.2928  1.5581  0.0523
18280SOL    HW266900   0.974   4.642   7.174  1.3602  0.1308  2.0650
18281SOL     OW66901   7.358   3.587   3.449  0.2954 -0.1344 -0.0577
18281SOL    HW166902   7.261   3.609   3.459  0.5625  0.4884  1.1126
18281SOL    HW266903   7.402   3.655   3.390 -0.0895 -0.7324 -1.0508
18282SOL     OW66904   7.110   3.006   3.134 -0.5973  0.3521  0.1407
18282SOL    HW166905   7.101   2.909   3.159 -0.7433  0.1413 -0.7321
18282SOL    HW266906   7.048   3.027   3.059 -0.1307  0.9798 -0.0708
18283SOL     OW66907   5.421   6.326   2.566  0.2262  0.2023 -0.1438
18283SOL    HW166908   5.440   6.342   2.469  0.5990 -0.5115 -0.1870
18283SOL    HW266909   5.350   6.257   2.575 -1.4632  1.9142  0.0467
18284SOL     OW66910   7.523   3.238   5.423  0.1714  0.3994 -0.3632
18284SOL    HW166911   7.435   3.202   5.453 -0.1675  1.0225 -0.6212
18284SOL    HW266912   7.531   3.229   5.324  0.4709  0.1886 -0.3231
18285SOL     OW66913   8.063   3.922   4.147 -0.1575  0.3775  0.4096
18285SOL    HW166914   8.056   3.829   4.110 -0.1974 -0.1844  1.8132
18285SOL    HW266915   7.988   3.977   4.110 -0.2221 -0.1813 -0.3191
18286SOL     OW66916   3.940   2.326   0.979  0.2117 -0.0291 -0.0028
18286SOL    HW166917   3.933   2.285   0.888  0.1312  0.7539 -0.3511
18286SOL    HW266918   4.002   2.271   1.035  0.2518 -0.5226 -0.5250
18287SOL     OW66919   3.623   1.300   0.123 -0.0064 -0.1641  0.5485
18287SOL    HW166920   3.700   1.323   0.183 -1.1500  2.3137  1.1220
18287SOL    HW266921   3.637   1.344   0.034 -0.9602  0.6573  0.8000
18288SOL     OW66922   9.692   8.867   2.895  0.2197  0.9839 -0.3014
18288SOL    HW166923   9.630   8.808   2.946 -1.1393  1.2837 -1.5874
18288SOL    HW266924   9.672   8.963   2.916 -0.1997  1.1018 -1.2120
18289SOL     OW66925   3.576   6.207   4.944  0.4374 -0.2417  0.0530
18289SOL    HW166926   3.553   6.294   4.987  0.2117 -0.5958  0.6497
18289SOL    HW266927   3.658   6.170   4.987  0.6771 -0.2105 -0.3680
18290SOL     OW66928   5.098   9.724   1.157 -0.0572  0.6952  0.1146
18290SOL    HW166929   4.998   9.723   1.161 -0.3255 -1.3167 -4.1367
18290SOL    HW266930   5.131   9.817   1.139 -1.3927  0.8588 -1.6017
18291SOL     OW66931   3.354   3.168   5.291  0.0664  0.7044 -0.0278
18291SOL    HW166932   3.385   3.210   5.376  1.0148 -0.3049  0.1396
18291SOL    HW266933   3.259   3.138   5.302  0.5467 -0.4605  1.0764
18292SOL     OW66934   9.406   5.315   6.749 -0.0772 -0.1544  0.5498
18292SOL    HW166935   9.469   5.330   6.673 -1.2554 -3.1251 -1.0648
18292SOL    HW266936   9.454   5.272   6.825  0.6355  0.9802  0.7574
18293SOL     OW66937   5.789   3.018   3.316  0.5583  0.2659 -0.1439
18293SOL    HW166938   5.852   2.960   3.368  0.4156  0.5311  0.3246
18293SOL    HW266939   5.762   2.971   3.232  0.0899 -0.5339  0.4521
18294SOL     OW66940   8.139   9.478   8.136 -0.2061  0.4110  0.3132
18294SOL    HW166941   8.140   9.384   8.170 -0.9098  0.2353 -0.1465
18294SOL    HW266942   8.055   9.524   8.165 -0.2466  0.6383 -0.1524
18295SOL     OW66943   6.514   4.043   4.159  0.7783 -0.0670 -0.1462
18295SOL    HW166944   6.517   4.133   4.115  1.5158  0.4165  0.8666
18295SOL    HW266945   6.462   4.049   4.244  1.3157 -0.4705  0.2130
18296SOL     OW66946   9.387   4.742   0.919  0.0438  0.1099 -0.4611
18296SOL    HW166947   9.423   4.674   0.856 -0.6999 -1.4514  0.7379
18296SOL    HW266948   9.383   4.703   1.011 -3.0503  0.8041 -0.2471
18297SOL     OW66949   0.277   6.089   9.719  0.2808  0.4704  0.4887
18297SOL    HW166950   0.198   6.030   9.706  0.1658  1.0250 -1.5435
18297SOL    HW266951   0.310   6.081   9.813 -0.2770 -2.1374  0.5032
18298SOL     OW66952   4.849   4.325   2.840  0.4398  0.5901 -0.2327
18298SOL    HW166953   4.903   4.252   2.880 -0.3351 -0.1016 -0.4324
18298SOL    HW266954   4.872   4.335   2.743  0.5291  0.5998 -0.2102
18299SOL     OW66955   7.008   8.954   5.685  0.1276  0.4048  0.1563
18299SOL    HW166956   6.958   8.933   5.769 -0.8465 -0.3055 -0.5999
18299SOL    HW266957   7.105   8.934   5.698 -0.3117 -1.5264  0.4945
18300SOL     OW66958   6.110   7.771   1.790 -0.5323 -0.1641  0.3435
18300SOL    HW166959   6.021   7.753   1.833 -0.8102  0.7257  0.1606
18300SOL    HW266960   6.097   7.778   1.691 -0.2703  0.0599  0.3265
18301SOL     OW66961   5.358   8.287   3.813 -0.4346  0.0428 -0.4369
18301SOL    HW166962   5.454   8.306   3.832 -0.2145 -1.4461  0.0143
18301SOL    HW266963   5.317   8.242   3.893 -2.0361  2.4718  0.1478
18302SOL     OW66964   9.250   8.921   4.231 -0.0369 -0.3566  0.3434
18302SOL    HW166965   9.343   8.891   4.255 -0.0937 -0.0100  1.0085
18302SOL    HW266966   9.185   8.886   4.298 -0.0712  1.4606  1.3057
18303SOL     OW66967   9.701   3.547   8.917 -0.2638 -0.6237  0.6059
18303SOL    HW166968   9.635   3.565   8.844  1.3352  0.6500 -0.5687
18303SOL    HW266969   9.765   3.624   8.923  0.0271 -1.0339  2.9127
18304SOL     OW66970   4.795   3.265   2.870  0.1653 -0.2585 -0.1840
18304SOL    HW166971   4.878   3.269   2.924 -1.2365 -3.9755  2.4130
18304SOL    HW266972   4.717   3.294   2.926 -0.9981 -2.0161 -0.8512
18305SOL     OW66973   5.799   1.131   4.884 -0.1712  0.0546  0.3911
18305SOL    HW166974   5.784   1.145   4.982 -0.2906  0.8905  0.2512
18305SOL    HW266975   5.745   1.196   4.831 -1.5201 -1.5564 -0.2911
18306SOL     OW66976   2.911   9.806   7.089 -0.2765  0.1466 -0.1793
18306SOL    HW166977   2.865   9.732   7.041 -0.9679 -0.8669  1.9938
18306SOL    HW266978   3.000   9.774   7.122 -0.3417  0.4619  0.3003
18307SOL     OW66979   6.656   3.539   3.006 -0.0349  0.2761  0.0031
18307SOL    HW166980   6.562   3.508   3.022 -0.2488  0.8548 -0.1063
18307SOL    HW266981   6.670   3.552   2.908  0.2147  0.0275  0.0041
18308SOL     OW66982   3.510   4.972   6.415 -0.0827  0.4979 -0.4374
18308SOL    HW166983   3.509   4.979   6.514  0.1645  1.0602 -0.4692
18308SOL    HW266984   3.432   4.917   6.384  0.2554 -0.2793  0.1054
18309SOL     OW66985   9.424   3.152   4.974  0.2405 -0.1566  1.1213
18309SOL    HW166986   9.365   3.193   5.043  0.5347  1.4536  0.4514
18309SOL    HW266987   9.468   3.225   4.921 -0.4084 -1.3494 -1.1223
18310SOL     OW66988   2.353   3.075   2.235 -0.0874  0.4282 -0.2702
18310SOL    HW166989   2.389   3.151   2.181  0.9553 -0.6781 -1.1848
18310SOL    HW266990   2.253   3.077   2.233 -0.0704  0.8437 -1.6692
18311SOL     OW66991   8.042   5.930   6.703  0.3645 -0.6328 -0.3008
18311SOL    HW166992   8.040   6.012   6.761 -1.4886 -1.2045  0.4839
18311SOL    HW266993   7.949   5.898   6.688  1.0319 -2.2386 -1.1418
18312SOL     OW66994   6.154   2.640   3.565  0.3153  0.4405 -0.0791
18312SOL    HW166995   6.223   2.693   3.615  0.9797 -0.2364 -0.2749
18312SOL    HW266996   6.181   2.544   3.562  0.0195  0.3872 -1.2923
18313SOL     OW66997   5.806   2.445   2.081 -0.4680  0.4322  0.2528
18313SOL    HW166998   5.891   2.488   2.111  0.5298 -0.6243 -0.9997
18313SOL    HW266999   5.809   2.347   2.099 -1.3428  0.3545  0.0133
18314SOL     OW67000   5.262   8.508   5.175 -0.3293  0.4254  0.3313
18314SOL    HW167001   5.268   8.500   5.075  2.9683  1.7289  0.3535
18314SOL    HW267002   5.345   8.470   5.216 -0.9129  1.4235  2.4659
18315SOL     OW67003   3.050   7.999   3.121 -0.2715  0.2710 -0.1804
18315SOL    HW167004   3.009   8.090   3.133  0.7312  0.5363  1.3407
18315SOL    HW267005   2.998   7.949   3.051 -0.2020  2.3854 -1.8246
18316SOL     OW67006   1.467   6.980   4.432  0.1483  0.6011  0.3790
18316SOL    HW167007   1.374   7.015   4.445  0.2438  0.6156  1.0156
18316SOL    HW267008   1.464   6.900   4.372 -0.2482  0.7255  0.2284
18317SOL     OW67009   4.131   5.872   5.381  0.1555  0.4218  0.0339
18317SOL    HW167010   4.199   5.818   5.430 -0.1411  0.9449  1.0406
18317SOL    HW267011   4.094   5.818   5.305 -1.6273 -1.5821  2.2452
18318SOL     OW67012   9.308   1.429   8.035  0.3047  0.0198  0.1327
18318SOL    HW167013   9.233   1.388   8.087 -1.4106  1.1540 -1.4291
18318SOL    HW267014   9.302   1.529   8.041  0.5281  0.1459 -1.6220
18319SOL     OW67015   6.967   0.638   9.974 -0.1269 -0.4943  0.6521
18319SOL    HW167016   6.872   0.654   9.948 -0.8478 -2.0167  2.2216
18319SOL    HW267017   7.003   0.717  10.024 -0.2750  0.4250 -0.6677
18320SOL     OW67018   6.538   9.797   4.407  0.6775 -0.3311  0.3609
18320SOL    HW167019   6.554   9.892   4.380 -0.3393  0.0236  0.9874
18320SOL    HW267020   6.623   9.745   4.399  1.2524  0.6546  0.0862
18321SOL     OW67021   4.996   1.580   8.247  0.0560 -0.5265  0.0867
18321SOL    HW167022   5.043   1.660   8.209  0.4726 -1.0243 -0.4695
18321SOL    HW267023   4.959   1.525   8.172  2.5586 -2.5494  0.2587
18322SOL     OW67024   4.716   5.599   8.501 -0.4053  0.1555  0.0214
18322SOL    HW167025   4.723   5.532   8.575 -1.7869  0.5352  0.5100
18322SOL    HW267026   4.716   5.691   8.540  0.6806  0.4103 -0.5904
18323SOL     OW67027   8.195   1.375   5.028  0.0381  0.4384  0.1041
18323SOL    HW167028   8.178   1.296   5.087 -1.3138  0.9460  0.4135
18323SOL    HW267029   8.109   1.401   4.983  0.0700  2.8284  1.3865
18324SOL     OW67030   5.189   5.938   6.500  0.3241 -0.0852  0.2088
18324SOL    HW167031   5.262   5.897   6.555 -0.3961  0.1372  1.3419
18324SOL    HW267032   5.138   5.865   6.453 -0.3365 -0.4536  1.4521
18325SOL     OW67033   0.682   9.665   1.595  0.1308  1.0583  0.3416
18325SOL    HW167034   0.585   9.669   1.618  0.3347 -0.3703  1.4969
18325SOL    HW267035   0.712   9.570   1.590  1.3927  1.4788 -0.3701
18326SOL     OW67036   6.029   4.181   3.993  0.0237  0.2976 -0.4653
18326SOL    HW167037   6.096   4.252   3.973 -1.5907  2.1396  0.5070
18326SOL    HW267038   5.997   4.140   3.908  0.2450  1.4224 -1.0986
18327SOL     OW67039   7.617   5.664   0.970  0.1221 -0.0817 -0.0086
18327SOL    HW167040   7.622   5.631   0.876 -3.7707  0.7731 -0.6092
18327SOL    HW267041   7.629   5.763   0.972  0.9921 -0.1843  0.5277
18328SOL     OW67042   6.210   3.857   0.589  0.2205 -0.2559 -0.0933
18328SOL    HW167043   6.164   3.810   0.514  1.4604  0.2224 -1.1614
18328SOL    HW267044   6.188   3.811   0.675 -0.1415 -1.6019 -0.8883
18329SOL     OW67045   7.609   0.582   6.138 -0.1096  0.3666  0.0351
18329SOL    HW167046   7.539   0.653   6.139  1.1114  1.6036  2.6501
18329SOL    HW267047   7.574   0.499   6.181 -0.6273  0.3269 -0.4704
18330SOL     OW67048   6.937   6.538   2.091  0.4284  0.3459 -0.7777
18330SOL    HW167049   6.906   6.611   2.030  0.7132 -0.6884 -2.1934
18330SOL    HW267050   6.959   6.576   2.180  0.9867  2.0565 -1.6225
18331SOL     OW67051   6.589   6.480   6.048 -0.5292  0.1977  0.4104
18331SOL    HW167052   6.678   6.526   6.056  0.0421 -0.5545 -1.3646
18331SOL    HW267053   6.569   6.463   5.951 -1.0132 -2.7487  1.0029
18332SOL     OW67054   4.978   0.656   6.125  0.4008  0.1247 -0.1839
18332SOL    HW167055   5.024   0.637   6.038  1.5404 -0.5703  0.5665
18332SOL    HW267056   4.915   0.733   6.113  0.4415 -0.0499 -1.6565
18333SOL     OW67057   1.218   6.475   2.982 -0.1352  0.0882  0.1247
18333SOL    HW167058   1.147   6.465   3.051 -0.9426 -0.6751 -0.8039
18333SOL    HW267059   1.237   6.573   2.968  0.0366  0.2504  1.3971
18334SOL     OW67060   1.380   0.049   6.435 -0.4589 -0.3717 -0.1765
18334SOL    HW167061   1.348   0.117   6.501 -1.8549 -1.6601  0.5159
18334SOL    HW267062   1.381  -0.041   6.478  1.2816 -0.8188 -1.1128
18335SOL     OW67063   3.839   3.374   7.062  0.5444 -0.0787  0.3166
18335SOL    HW167064   3.920   3.359   7.119  0.5762 -2.3013 -0.2490
18335SOL    HW267065   3.863   3.363   6.966 -0.0488  1.1215  0.0229
18336SOL     OW67066   4.104   1.546   9.006  0.2702 -0.2216  0.0889
18336SOL    HW167067   4.058   1.465   9.043 -1.8304  0.6238 -0.5532
18336SOL    HW267068   4.053   1.628   9.032 -0.0949  0.5595 -2.8428
18337SOL     OW67069   2.650   6.252   4.795 -0.1239  0.5567  0.4997
18337SOL    HW167070   2.740   6.229   4.831  0.9069  0.5719 -1.9906
18337SOL    HW267071   2.619   6.338   4.836  1.5618  1.2226  0.4232
18338SOL     OW67072   4.566   4.486   2.390  0.0352 -0.7262 -0.2939
18338SOL    HW167073   4.646   4.535   2.425  0.1270 -1.9671  1.3242
18338SOL    HW267074   4.583   4.459   2.295  0.9768  0.2159 -0.4041
18339SOL     OW67075   3.920   2.433   4.357 -0.5219  0.1606 -0.4710
18339SOL    HW167076   3.921   2.531   4.378  1.5060 -0.0681  0.6230
18339SOL    HW267077   3.920   2.381   4.442  3.7078 -0.7820 -0.9749
18340SOL     OW67078   6.894   1.159   8.659 -0.6338 -0.4282 -0.1579
18340SOL    HW167079   6.856   1.084   8.713 -1.6682  0.1287 -0.1014
18340SOL    HW267080   6.911   1.127   8.566  0.8085 -1.2857  0.3745
18341SOL     OW67081   1.322   2.589   4.609 -0.7193  0.9409  0.3450
18341SOL    HW167082   1.354   2.495   4.618 -0.8024  0.9787  1.0964
18341SOL    HW267083   1.395   2.652   4.634 -0.1840  1.1169 -1.6173
18342SOL     OW67084   5.344   2.439   1.237  0.4259  0.7410 -0.2518
18342SOL    HW167085   5.437   2.456   1.270  0.9552 -1.1958 -0.7045
18342SOL    HW267086   5.346   2.426   1.138 -0.1641 -0.4444 -0.1085
18343SOL     OW67087   9.797   5.645   6.247  0.4433  0.0424 -0.1684
18343SOL    HW167088   9.752   5.559   6.270 -0.6535  0.4633 -0.6883
18343SOL    HW267089   9.738   5.698   6.187  1.0615  1.2122  0.2384
18344SOL     OW67090   8.618   1.793   3.900 -0.1872  0.4976 -0.0762
18344SOL    HW167091   8.523   1.778   3.871  0.4085  1.1515 -2.3970
18344SOL    HW267092   8.618   1.850   3.982 -1.7994  0.5877 -0.1185
18345SOL     OW67093   4.804   3.030   1.292 -0.3382  0.1840  0.2571
18345SOL    HW167094   4.842   3.043   1.200  1.8913 -0.5784  1.0462
18345SOL    HW267095   4.838   3.102   1.353 -2.7779  1.4085  0.2371
18346SOL     OW67096   7.318   6.505   5.437  0.2954 -0.5996 -0.7338
18346SOL    HW167097   7.386   6.527   5.367  0.1903  0.7484 -0.4154
18346SOL    HW267098   7.250   6.578   5.442  0.8614 -0.2050  1.4755
18347SOL     OW67099   8.506   2.922   2.791  0.2743 -0.9054  0.1601
18347SOL    HW167100   8.598   2.934   2.755 -0.5831  0.3640 -1.6493
18347SOL    HW267101   8.469   3.010   2.818 -2.1079 -0.6822 -3.4475
18348SOL     OW67102   0.643   1.477   6.102  0.2093  0.3195  0.0300
18348SOL    HW167103   0.620   1.442   6.193 -0.0281 -1.2165 -0.6100
18348SOL    HW267104   0.712   1.549   6.110 -0.3283  0.6843  1.4759
18349SOL     OW67105   8.964   3.536   4.663 -0.8644  0.0412 -0.1061
18349SOL    HW167106   8.956   3.527   4.563 -0.4787  2.3267 -0.3791
18349SOL    HW267107   8.964   3.633   4.687 -0.8199 -0.4934  2.1255
18350SOL     OW67108   4.897   4.721   1.534  0.2844  0.1318 -0.1843
18350SOL    HW167109   4.840   4.641   1.517 -1.0780  1.0864 -0.1651
18350SOL    HW267110   4.937   4.753   1.448  0.7404 -0.4919 -0.2077
18351SOL     OW67111   3.801   3.573   1.115  0.2677 -0.3631  0.4889
18351SOL    HW167112   3.794   3.586   1.016 -1.2645 -0.2305  0.6140
18351SOL    HW267113   3.830   3.480   1.134  0.7744 -0.3286 -0.0876
18352SOL     OW67114   7.753   3.977   2.669  0.1327  0.4193  0.1830
18352SOL    HW167115   7.705   3.922   2.601 -0.2847  0.0745  0.7462
18352SOL    HW267116   7.759   4.072   2.638 -1.6174  0.6420  0.4429
18353SOL     OW67117   9.610   5.874   8.556 -0.4005  0.3639  0.2082
18353SOL    HW167118   9.542   5.844   8.623 -2.3762  1.9432 -1.0229
18353SOL    HW267119   9.672   5.940   8.599 -0.8170  0.3485  0.8386
18354SOL     OW67120   5.284   4.311   3.377 -0.5230  0.3597  0.2652
18354SOL    HW167121   5.203   4.296   3.434 -0.6948 -0.1144 -0.1021
18354SOL    HW267122   5.256   4.339   3.286 -0.2507  0.9048  0.3455
18355SOL     OW67123   3.061   7.172   3.706 -0.2578 -0.3243 -0.5553
18355SOL    HW167124   3.128   7.129   3.767 -0.9304  0.0335  0.4501
18355SOL    HW267125   3.050   7.268   3.731 -0.6604 -0.2137 -1.1475
18356SOL     OW67126   2.121   7.382   0.597  0.1185 -0.2722  0.3323
18356SOL    HW167127   2.184   7.440   0.648 -1.5753 -1.6932  4.2312
18356SOL    HW267128   2.148   7.287   0.608 -1.2112 -0.7025 -0.1207
18357SOL     OW67129   2.836   1.040   2.836 -0.2005  0.4787 -0.4949
18357SOL    HW167130   2.919   0.992   2.807  0.5070  1.3734  0.0050
18357SOL    HW267131   2.761   0.975   2.846  1.8693 -1.3833  4.7035
18358SOL     OW67132   7.063   8.082   3.328  0.0558  0.0361 -0.0808
18358SOL    HW167133   7.005   8.019   3.379  0.3353 -1.0432 -1.0645
18358SOL    HW267134   7.109   8.032   3.254  0.1118  1.4306 -1.0085
18359SOL     OW67135   0.338   9.291   5.775 -0.0612  0.6159 -0.3314
18359SOL    HW167136   0.392   9.214   5.809 -1.3765 -0.5952 -0.9168
18359SOL    HW267137   0.265   9.256   5.716 -1.3918  2.2267  0.3478
18360SOL     OW67138   5.898   1.774   9.894 -0.1481  0.0261 -0.1945
18360SOL    HW167139   5.912   1.873   9.884  0.0411 -0.0997 -1.1565
18360SOL    HW267140   5.804   1.757   9.925  0.1156  0.5565  0.9508
18361SOL     OW67141   4.905   3.737   6.355  0.0488  0.2882  0.0227
18361SOL    HW167142   4.819   3.786   6.371  0.5712  1.6254 -1.1918
18361SOL    HW267143   4.929   3.742   6.259  0.4265 -1.8917 -0.0339
18362SOL     OW67144   4.867   5.009   9.080 -0.2765 -0.1378 -0.0282
18362SOL    HW167145   4.802   4.966   9.017 -1.3127 -1.9206  2.2050
18362SOL    HW267146   4.914   4.938   9.133  3.4452  1.1141 -1.4765
18363SOL     OW67147   3.803   3.281   2.336 -0.0533  0.7986 -0.4194
18363SOL    HW167148   3.895   3.278   2.374  0.2056 -0.5989 -1.1439
18363SOL    HW267149   3.765   3.373   2.349  2.4825  2.2153 -2.6009
18364SOL     OW67150   2.945   3.856   3.486  0.2400 -0.9307  0.3857
18364SOL    HW167151   2.997   3.771   3.482  1.6675 -0.0107 -1.5042
18364SOL    HW267152   2.999   3.925   3.535 -0.9849 -1.1261  2.0734
18365SOL     OW67153   8.217   1.194   1.969  0.2856  0.2398 -0.5346
18365SOL    HW167154   8.316   1.188   1.961  0.0102 -4.9053 -1.2830
18365SOL    HW267155   8.193   1.239   2.056  3.2133  1.6918 -0.4372
18366SOL     OW67156   5.137   6.358   1.122  0.3573 -0.0956 -0.6013
18366SOL    HW167157   5.140   6.259   1.125  0.4708 -0.0497  0.7364
18366SOL    HW267158   5.188   6.391   1.042  3.1803 -0.9554  0.8080
18367SOL     OW67159   5.145   5.981   4.820  0.1726 -0.4727  0.0272
18367SOL    HW167160   5.060   6.021   4.784 -0.4871 -1.3571  0.5865
18367SOL    HW267161   5.139   5.975   4.919  0.6311 -1.1211  0.0141
18368SOL     OW67162   4.517   5.263   0.893 -0.2023  0.3006 -0.0758
18368SOL    HW167163   4.507   5.243   0.795 -1.6861  0.7436 -0.0234
18368SOL    HW267164   4.471   5.193   0.946 -1.7654  1.5452  0.2258
18369SOL     OW67165   6.221   3.615   4.884  0.4323  0.2633  0.4007
18369SOL    HW167166   6.135   3.661   4.905 -0.2569 -0.4253 -0.8357
18369SOL    HW267167   6.274   3.669   4.820  0.2392 -0.0215 -0.0004
18370SOL     OW67168   0.493   4.044   9.660  0.6290  0.0369 -0.2950
18370SOL    HW167169   0.513   4.015   9.754 -3.4367 -0.9994  0.3579
18370SOL    HW267170   0.499   4.143   9.654  1.8749  0.0495  0.8079
18371SOL     OW67171   9.573   5.309   2.881 -0.3822  0.9204 -0.1597
18371SOL    HW167172   9.668   5.310   2.915 -0.5065 -2.5875  0.5436
18371SOL    HW267173   9.510   5.305   2.959 -0.9238 -0.8926 -0.6763
18372SOL     OW67174   5.491   0.692   2.000 -0.1766 -0.3124 -0.3752
18372SOL    HW167175   5.565   0.712   1.937  1.0283 -1.4385  0.6607
18372SOL    HW267176   5.421   0.763   1.992  2.9448  3.1908  1.6617
18373SOL     OW67177   5.386   3.833   2.013  0.0201  0.7435  0.4550
18373SOL    HW167178   5.311   3.820   2.077 -0.8294  0.2578 -0.6334
18373SOL    HW267179   5.419   3.928   2.019 -0.9045  1.0535  0.6842
18374SOL     OW67180   5.951   4.250   4.269 -0.9637  0.1132  0.0261
18374SOL    HW167181   5.856   4.217   4.277 -1.2840  0.5278 -1.8166
18374SOL    HW267182   6.003   4.185   4.214  0.6668 -1.7388  3.6384
18375SOL     OW67183   0.312   6.044   5.464 -0.6729 -0.2520  0.2063
18375SOL    HW167184   0.399   6.076   5.427 -0.7210 -0.7099 -0.3153
18375SOL    HW267185   0.280   6.107   5.534  0.4892 -0.4982  0.9893
18376SOL     OW67186   8.151   2.403   3.205  0.2077 -0.2903  0.0258
18376SOL    HW167187   8.172   2.335   3.275  0.1524  0.0528  0.3821
18376SOL    HW267188   8.091   2.364   3.136 -1.1568 -0.1333  1.0948
18377SOL     OW67189   4.622   5.927   1.094  0.1892 -0.0100 -0.1521
18377SOL    HW167190   4.594   5.996   1.161 -0.8902 -1.3861  0.8276
18377SOL    HW267191   4.559   5.929   1.017 -1.4404 -1.7045  1.1076
18378SOL     OW67192   4.277   8.175   5.119  0.3153 -0.6890  0.1944
18378SOL    HW167193   4.279   8.156   5.217  0.2479 -0.8451  0.1663
18378SOL    HW267194   4.334   8.108   5.072  0.0629 -0.8295  0.0902
18379SOL     OW67195   3.866   4.424   1.223  0.2222  0.0446 -0.5017
18379SOL    HW167196   3.833   4.516   1.245 -0.0641  0.2835 -1.8666
18379SOL    HW267197   3.879   4.417   1.124  1.0721 -1.1134 -0.3113
18380SOL     OW67198   4.385   6.603   2.411 -0.3200 -0.3451  0.1008
18380SOL    HW167199   4.465   6.613   2.351  0.8229 -0.4076  1.5627
18380SOL    HW267200   4.397   6.660   2.492 -0.0886 -2.9572  2.0054
18381SOL     OW67201   4.371   8.270   1.048  0.3433  0.2616 -0.3612
18381SOL    HW167202   4.471   8.272   1.059  0.3519  0.1213 -0.4148
18381SOL    HW267203   4.347   8.307   0.958  0.2745  1.4057  0.1187
18382SOL     OW67204   5.251   0.848   2.715 -0.2401 -0.8720  0.8358
18382SOL    HW167205   5.245   0.783   2.791 -0.7887 -1.6997  0.0983
18382SOL    HW267206   5.176   0.830   2.651 -0.2670  0.3598  0.5240
18383SOL     OW67207   2.996   3.064   8.418  0.2348  0.0360  0.0315
18383SOL    HW167208   3.013   3.071   8.517  0.6977  0.4246 -0.0756
18383SOL    HW267209   2.995   3.155   8.378  0.9682 -0.1771 -0.4742
18384SOL     OW67210   5.021   8.070   3.317 -0.2262 -0.8034  0.1271
18384SOL    HW167211   4.965   7.992   3.344  0.8120 -1.0023  1.7291
18384SOL    HW267212   4.985   8.154   3.358 -1.0921 -0.4817 -1.2526
18385SOL     OW67213   0.787   7.528   5.694  0.3046 -0.3192 -0.2282
18385SOL    HW167214   0.875   7.487   5.719 -0.6652 -1.2102  1.8510
18385SOL    HW267215   0.802   7.608   5.636  2.4402 -0.9241 -0.5348
18386SOL     OW67216   2.432   3.828   4.911 -0.0008  0.4866 -0.1033
18386SOL    HW167217   2.368   3.767   4.865 -0.0118  0.8413 -0.5627
18386SOL    HW267218   2.516   3.778   4.934 -0.7316 -0.1797  1.1930
18387SOL     OW67219   2.757   4.905   0.298 -0.2821  0.4387 -0.4098
18387SOL    HW167220   2.767   5.000   0.270  0.9797  0.6033  0.6100
18387SOL    HW267221   2.843   4.871   0.336 -1.8405  0.1297  3.0327
18388SOL     OW67222   8.602   2.618   4.591  0.1674  0.1778  0.4967
18388SOL    HW167223   8.665   2.689   4.562 -0.5225  0.8360  0.5908
18388SOL    HW267224   8.508   2.649   4.578 -0.1502 -1.1223 -0.4605
18389SOL     OW67225   7.887   5.641   7.825 -0.5674 -1.0906 -0.1455
18389SOL    HW167226   7.897   5.572   7.897 -1.0011 -0.7397  0.2557
18389SOL    HW267227   7.961   5.630   7.758  1.8803  0.7542  2.1528
18390SOL     OW67228   5.733   4.702   7.259 -0.5004  0.4202  0.2287
18390SOL    HW167229   5.789   4.624   7.229 -0.7154 -0.0527  1.0322
18390SOL    HW267230   5.791   4.783   7.268 -0.1354  0.1756  0.1019
18391SOL     OW67231   6.405   5.032   0.081 -0.4362 -0.7269  0.2358
18391SOL    HW167232   6.418   5.051  -0.016  1.4363  0.2902  0.6497
18391SOL    HW267233   6.369   5.114   0.126  1.3273 -0.2744  0.8640
18392SOL     OW67234   6.673   2.520   3.640  0.1356 -0.7044  0.6907
18392SOL    HW167235   6.587   2.544   3.685  0.9860  0.3775  1.7861
18392SOL    HW267236   6.732   2.472   3.705 -0.1793 -2.7409 -0.4799
18393SOL     OW67237   5.913   7.486   3.331  0.2262  0.6220  0.0014
18393SOL    HW167238   5.918   7.386   3.329  2.7592  0.6559  1.8599
18393SOL    HW267239   5.823   7.514   3.363 -0.8642 -1.0431 -1.5459
18394SOL     OW67240   1.194   2.112   8.297 -0.2911 -0.2039 -0.3205
18394SOL    HW167241   1.219   2.035   8.356  2.3525  1.1837  0.4255
18394SOL    HW267242   1.199   2.197   8.349 -3.7784  0.4846 -0.9775
18395SOL     OW67243   9.859   5.390   3.790  0.4165 -0.9168  0.6778
18395SOL    HW167244   9.801   5.424   3.716  1.5823  0.6074  0.4125
18395SOL    HW267245   9.805   5.375   3.872 -0.4168  0.0950  0.3204
18396SOL     OW67246   1.389   8.331   3.776  0.5988 -0.1026 -0.1538
18396SOL    HW167247   1.345   8.378   3.852 -2.7065 -0.8351 -1.5148
18396SOL    HW267248   1.446   8.395   3.725 -0.4026  1.3720  0.5435
18397SOL     OW67249   5.587   0.505   2.661 -0.1022  0.4252  0.2860
18397SOL    HW167250   5.587   0.565   2.741  4.2595  2.2874 -0.9681
18397SOL    HW267251   5.549   0.554   2.583 -0.5980  0.0246  0.2761
18398SOL     OW67252   6.050   2.289   2.017 -1.0860  0.0650 -0.0177
18398SOL    HW167253   6.003   2.249   2.096 -1.8848  0.5950 -0.2194
18398SOL    HW267254   6.148   2.289   2.033 -1.1633 -0.8575  0.5050
18399SOL     OW67255   8.962   1.400   3.121 -0.3603 -0.1810  0.3797
18399SOL    HW167256   8.971   1.403   3.021 -0.2465  0.0284  0.3960
18399SOL    HW267257   9.010   1.320   3.156 -1.1033 -0.7196  0.1918
18400SOL     OW67258   7.589   4.391   6.068  0.3002  0.2806  0.2442
18400SOL    HW167259   7.561   4.427   6.157 -1.3627  0.3662 -0.3080
18400SOL    HW267260   7.577   4.292   6.066  3.4029 -0.1869  1.2136
18401SOL     OW67261   6.347   3.982   2.661  0.1401 -0.3863 -0.7630
18401SOL    HW167262   6.254   4.005   2.634  0.5830  2.2230 -0.1918
18401SOL    HW267263   6.399   3.956   2.579 -0.1149  1.7199 -1.6217
18402SOL     OW67264   7.766   9.158   0.143  0.0845 -0.5003 -0.0350
18402SOL    HW167265   7.819   9.074   0.154 -1.0239 -1.1804  0.2227
18402SOL    HW267266   7.799   9.209   0.064  1.0241 -0.9790  0.0429
18403SOL     OW67267   8.051   2.945   1.947 -0.1831  0.1742  0.3923
18403SOL    HW167268   7.956   2.954   1.977 -0.1354 -1.0555  0.9300
18403SOL    HW267269   8.112   2.956   2.026 -0.0652 -3.3512  0.8581
18404SOL     OW67270   1.668   1.155   5.428  0.3298  0.2011 -0.0420
18404SOL    HW167271   1.639   1.139   5.334 -0.2290  1.5245 -0.1227
18404SOL    HW267272   1.750   1.102   5.448  2.6665  2.7178 -2.4576
18405SOL     OW67273   9.182   3.448   2.357  0.2785  0.6754  0.1202
18405SOL    HW167274   9.255   3.380   2.353  0.4209  0.8663 -0.5394
18405SOL    HW267275   9.221   3.538   2.380  0.2118  0.7144  0.0826
18406SOL     OW67276   3.860   0.068   2.685 -0.4272  0.4423  0.6642
18406SOL    HW167277   3.776   0.062   2.739 -0.9053 -1.3756 -0.2420
18406SOL    HW267278   3.859  -0.001   2.613  0.5782  2.2553 -1.1693
18407SOL     OW67279   2.837   6.834   5.429  0.2492 -0.3136 -0.0188
18407SOL    HW167280   2.776   6.784   5.369 -0.5578  2.8585 -1.9730
18407SOL    HW267281   2.783   6.883   5.498  0.8852 -0.5427  0.6567
18408SOL     OW67282   3.135   5.862   0.483 -0.1878  0.0637 -0.0149
18408SOL    HW167283   3.142   5.762   0.482  0.1236  0.0787  0.8719
18408SOL    HW267284   3.162   5.897   0.572 -0.6955  0.9169 -0.1872
18409SOL     OW67285   3.865   2.149   6.726 -0.7052 -0.2260  0.3997
18409SOL    HW167286   3.837   2.098   6.645 -1.6351  1.2692 -0.2440
18409SOL    HW267287   3.863   2.089   6.806  1.2423 -1.9901 -0.8341
18410SOL     OW67288   2.473   7.311   2.262 -0.0714  0.0739  0.5560
18410SOL    HW167289   2.470   7.323   2.163  1.3879 -0.5102  0.4212
18410SOL    HW267290   2.546   7.367   2.301  1.4288 -2.0504  0.8955
18411SOL     OW67291   8.073   1.878   5.470 -0.2144 -0.6210  0.4540
18411SOL    HW167292   8.001   1.813   5.447  1.7915 -2.2838 -1.3086
18411SOL    HW267293   8.163   1.837   5.454  1.1258  2.6239 -0.9988
18412SOL     OW67294   3.874   4.008   1.928 -0.1811 -0.3412 -0.7032
18412SOL    HW167295   3.905   4.050   2.013  1.1777 -1.9461 -0.3734
18412SOL    HW267296   3.856   4.079   1.860 -2.0139  1.0233  1.1271
18413SOL     OW67297   4.413   6.006   3.442  0.1674 -0.1871 -0.3354
18413SOL    HW167298   4.472   5.929   3.469  1.2714  0.4171 -0.9877
18413SOL    HW267299   4.362   5.981   3.360 -3.2221 -2.0424  2.2034
18414SOL     OW67300   4.624   2.019   9.879  0.1466 -0.0776  0.0444
18414SOL    HW167301   4.595   1.925   9.897  2.3576 -0.8588 -0.2169
18414SOL    HW267302   4.719   2.018   9.847 -0.4183  2.1023 -1.8169
18415SOL     OW67303   2.358   1.726   4.940  0.2338 -0.4204 -0.5910
18415SOL    HW167304   2.454   1.702   4.923  0.1455 -0.3634 -1.1811
18415SOL    HW267305   2.305   1.643   4.956  0.2838 -0.4845 -0.7630
18416SOL     OW67306   8.657   2.070   3.138  0.1478 -0.1729  0.0356
18416SOL    HW167307   8.584   2.134   3.161 -0.9520 -1.2261 -0.4418
18416SOL    HW267308   8.740   2.121   3.114 -0.3690  1.0310  0.7495
18417SOL     OW67309   6.618   0.993   2.039 -1.0090 -0.2353  0.3773
18417SOL    HW167310   6.602   1.042   1.953 -1.7483  0.2677  0.7950
18417SOL    HW267311   6.706   0.947   2.035 -1.2807 -0.6677 -0.8733
18418SOL     OW67312   5.907   3.749   0.694  0.0332 -0.2157  0.0517
18418SOL    HW167313   5.980   3.691   0.730  0.4186 -1.8251 -3.0967
18418SOL    HW267314   5.838   3.763   0.765 -0.2060 -4.8052  0.9209
18419SOL     OW67315   0.210   8.952   4.033  0.0536 -0.1338  0.0211
18419SOL    HW167316   0.142   8.958   3.961 -0.0184 -0.0930  0.0927
18419SOL    HW267317   0.188   8.875   4.094  0.7227 -0.8570 -0.6329
18420SOL     OW67318   6.077   2.056   9.189  0.6474  0.7509  0.4407
18420SOL    HW167319   6.133   2.011   9.119  0.4554  2.7028 -1.0015
18420SOL    HW267320   5.986   2.015   9.190  0.3528  1.3417 -1.1296
18421SOL     OW67321   0.980   0.977   5.532 -0.6722 -0.5098 -0.2593
18421SOL    HW167322   0.885   0.969   5.501 -1.0733  0.9911  0.5497
18421SOL    HW267323   1.008   1.073   5.527  1.0086 -1.0307 -1.0624
18422SOL     OW67324   0.544   4.166   4.075 -0.3749  0.3215  0.5378
18422SOL    HW167325   0.578   4.076   4.099  0.3947  0.7165  0.9303
18422SOL    HW267326   0.457   4.157   4.027  0.3903 -0.6889 -0.6675
18423SOL     OW67327   7.014   1.675   9.196  0.5993  1.0708  0.3237
18423SOL    HW167328   7.093   1.731   9.220 -0.0509  1.5178  1.4920
18423SOL    HW267329   6.947   1.679   9.271  0.7031 -1.5568  0.6146
18424SOL     OW67330   7.766   1.312   1.009  0.0523 -0.0880 -0.5039
18424SOL    HW167331   7.846   1.357   1.047 -0.7042  1.0184 -0.1969
18424SOL    HW267332   7.687   1.373   1.014 -1.5366 -2.2180  1.9960
18425SOL     OW67333   5.970   5.068   4.001  0.1109 -0.2425 -0.4142
18425SOL    HW167334   6.052   5.064   3.944  0.2371  0.0323 -0.2503
18425SOL    HW267335   5.891   5.095   3.945  0.5756  1.8458 -0.0855
18426SOL     OW67336   4.936   4.541   7.464 -0.1101 -0.2966  0.0397
18426SOL    HW167337   4.890   4.569   7.379  1.0440 -0.0048 -0.4888
18426SOL    HW267338   4.939   4.618   7.527 -0.3082 -0.3090  0.0656
18427SOL     OW67339   2.135   8.989   3.889  0.3886  0.5695  0.2908
18427SOL    HW167340   2.221   8.941   3.867 -0.4474 -1.4844  1.3333
18427SOL    HW267341   2.058   8.934   3.858 -0.6012  1.4568  1.1608
18428SOL     OW67342   4.246   6.961   8.284  0.4523  0.4849 -0.3210
18428SOL    HW167343   4.176   6.933   8.219  2.3408 -1.7617 -1.4848
18428SOL    HW267344   4.290   6.880   8.323  1.2760  1.8325  1.6483
18429SOL     OW67345   7.018   6.935   1.257  0.2765  0.1497 -0.2216
18429SOL    HW167346   7.062   6.990   1.186  0.5689  1.6488  1.1087
18429SOL    HW267347   7.022   6.983   1.345 -1.3252 -1.0529  0.5426
18430SOL     OW67348   0.575   7.626   3.297  0.1784 -0.1953 -0.1755
18430SOL    HW167349   0.548   7.722   3.308  1.8217  0.0704  1.8860
18430SOL    HW267350   0.593   7.587   3.387  1.0683 -1.9912 -1.1155
18431SOL     OW67351   9.520   6.296   6.848 -0.1344  0.6188 -0.5263
18431SOL    HW167352   9.580   6.236   6.900  0.6058  1.0954 -0.8309
18431SOL    HW267353   9.436   6.247   6.824  0.7408 -0.4998 -1.3176
18432SOL     OW67354   6.772   5.371   5.233 -0.3012 -0.2770 -0.1211
18432SOL    HW167355   6.772   5.272   5.249 -2.4161 -0.6580 -2.2538
18432SOL    HW267356   6.693   5.412   5.279  0.7088  0.4903  0.9687
18433SOL     OW67357   6.814   7.534   1.122  0.6601  0.4372  0.0139
18433SOL    HW167358   6.801   7.457   1.185  2.3725  0.1874  0.0827
18433SOL    HW267359   6.862   7.503   1.041  0.8308  1.3232 -0.2306
18434SOL     OW67360   0.993   6.626   7.299  0.1947  0.1427  0.0521
18434SOL    HW167361   1.017   6.626   7.396  0.9493  1.1590 -0.1154
18434SOL    HW267362   0.895   6.642   7.289 -0.0434 -0.8975  0.6717
18435SOL     OW67363   8.967   3.693   9.054  0.3963 -0.9504 -0.2976
18435SOL    HW167364   8.906   3.769   9.030 -0.0683 -1.0329  0.5708
18435SOL    HW267365   8.912   3.611   9.072  0.4262 -0.2317  3.6652
18436SOL     OW67366   1.198   2.570   5.726  0.0618 -0.7344  0.2596
18436SOL    HW167367   1.119   2.594   5.670 -0.9895 -2.1808  1.0782
18436SOL    HW267368   1.188   2.608   5.818  0.8107 -0.0657  0.0708
18437SOL     OW67369   3.175   9.204   4.861  0.0790 -0.0681 -0.2659
18437SOL    HW167370   3.080   9.234   4.874 -0.7833 -2.0559 -1.6858
18437SOL    HW267371   3.235   9.259   4.918 -1.8199  1.9180 -0.1090
18438SOL     OW67372   8.810   6.354   8.862 -0.0350 -0.3057 -0.0255
18438SOL    HW167373   8.774   6.394   8.777 -0.4526 -2.6011 -0.9583
18438SOL    HW267374   8.815   6.255   8.852 -1.4552 -0.7329  3.1508
18439SOL     OW67375   9.922   0.523   4.196  0.3654  0.0430 -0.2926
18439SOL    HW167376   9.983   0.558   4.267 -1.9956  0.4111  1.6143
18439SOL    HW267377   9.924   0.585   4.117  3.1303 -0.4604 -0.6488
18440SOL     OW67378   1.123   2.412   0.342  0.4847  0.1210  0.1007
18440SOL    HW167379   1.133   2.355   0.424 -0.5343  2.0334  1.5991
18440SOL    HW267380   1.185   2.379   0.271  0.3491 -2.4745  1.1176
18441SOL     OW67381   9.908   2.099   1.257  0.7945 -0.1255  0.4890
18441SOL    HW167382   9.835   2.117   1.190  2.3752  1.7147 -0.7908
18441SOL    HW267383   9.947   2.009   1.241 -0.7792 -0.8803  0.8060
18442SOL     OW67384   7.952   8.098   4.771 -0.2564 -0.8913 -0.2110
18442SOL    HW167385   7.871   8.117   4.826 -0.5420  0.0837 -0.9630
18442SOL    HW267386   8.034   8.130   4.821 -0.4603 -0.5697 -0.0798
18443SOL     OW67387   6.536   2.873   8.594  0.3922  0.9081 -0.4232
18443SOL    HW167388   6.635   2.878   8.600  0.3289 -0.1783  1.6775
18443SOL    HW267389   6.495   2.949   8.645  0.1116  0.2231  0.3764
18444SOL     OW67390   9.901   8.104   2.356  0.4780 -0.5321  0.2267
18444SOL    HW167391   9.819   8.158   2.335  1.3458  0.8435  0.3201
18444SOL    HW267392   9.874   8.009   2.375 -1.1087 -0.0644  0.4345
18445SOL     OW67393   8.266   4.264   4.292  0.5669  0.1611 -0.1042
18445SOL    HW167394   8.204   4.305   4.359 -0.0596 -0.0955 -0.5133
18445SOL    HW267395   8.360   4.268   4.326 -0.0609 -2.6244  2.1175
18446SOL     OW67396   1.358   6.400   8.740 -0.9725 -0.3760  0.8635
18446SOL    HW167397   1.302   6.476   8.708 -1.6519 -0.8062  1.0129
18446SOL    HW267398   1.303   6.316   8.741 -0.1528 -0.9234  0.4245
18447SOL     OW67399   4.801   5.472   8.269  0.1688  0.0105  0.3616
18447SOL    HW167400   4.747   5.390   8.290  1.9397 -1.5007 -0.7336
18447SOL    HW267401   4.820   5.522   8.353 -1.6087 -0.2650  0.9468
18448SOL     OW67402   9.988   7.296   7.103 -0.2894 -0.5427  0.2796
18448SOL    HW167403   9.914   7.363   7.097 -0.6874 -1.0569 -0.5847
18448SOL    HW267404   9.968   7.217   7.045  1.7472  0.0962 -1.3888
18449SOL     OW67405   1.469   8.651   3.855  0.0489 -0.3798 -0.0894
18449SOL    HW167406   1.514   8.611   3.775 -0.0564  0.1837 -0.4312
18449SOL    HW267407   1.435   8.742   3.833 -2.3246 -1.2587 -0.2090
18450SOL     OW67408   8.414   4.155   8.017  0.3456  0.4826  0.5984
18450SOL    HW167409   8.377   4.102   8.093 -2.2586  1.3193 -0.0272
18450SOL    HW267410   8.450   4.093   7.947  1.1486 -0.3227  1.7111
18451SOL     OW67411   9.250   2.889   1.332 -0.1201  0.2018  0.0487
18451SOL    HW167412   9.158   2.858   1.354  0.4174 -0.6277  1.2510
18451SOL    HW267413   9.312   2.810   1.331  0.6347  0.7921 -0.3658
18452SOL     OW67414   1.152   8.689   6.850 -0.5002  0.0987 -0.5544
18452SOL    HW167415   1.182   8.722   6.940  2.0738 -0.9953 -0.9776
18452SOL    HW267416   1.067   8.637   6.862  0.9035 -1.8230  1.6153
18453SOL     OW67417   2.094   8.721   7.391 -0.2357 -0.0178  0.1518
18453SOL    HW167418   2.033   8.773   7.332 -1.2264 -0.3657  0.8536
18453SOL    HW267419   2.158   8.669   7.336 -0.4940  0.4415 -0.5899
18454SOL     OW67420   0.413   9.753   5.484  0.1497  0.0047  0.3099
18454SOL    HW167421   0.379   9.755   5.578  0.2969  0.0865  0.3613
18454SOL    HW267422   0.398   9.842   5.441 -1.9648 -0.7230 -0.4739
18455SOL     OW67423   7.962   3.820   9.472  0.1564 -0.0176 -0.0095
18455SOL    HW167424   7.942   3.808   9.375 -0.4325  1.4346 -0.0905
18455SOL    HW267425   7.877   3.817   9.525  0.1794  1.6446  0.1617
18456SOL     OW67426   8.841   3.921   5.167 -0.3433 -0.4891 -0.6333
18456SOL    HW167427   8.841   4.000   5.107  1.4140  0.2807  0.3541
18456SOL    HW267428   8.878   3.842   5.118 -0.5474 -0.3039 -1.0915
18457SOL     OW67429   9.159   5.104   0.632  0.0500 -0.0333  0.0686
18457SOL    HW167430   9.148   5.018   0.683  1.0506  0.1059  0.5338
18457SOL    HW267431   9.072   5.129   0.590  0.0998 -2.0668 -1.3182
18458SOL     OW67432   4.149   4.289   0.246  0.1179 -0.1736 -0.0764
18458SOL    HW167433   4.216   4.340   0.301 -2.5774  2.3510  1.0008
18458SOL    HW267434   4.190   4.265   0.158  2.1452  2.2142  0.1378
18459SOL     OW67435   0.189   3.958   8.067  0.6764  0.0581  0.9471
18459SOL    HW167436   0.253   3.907   8.009  1.1932  0.2415  1.3497
18459SOL    HW267437   0.226   4.049   8.085 -0.0357  0.4260  0.5992
18460SOL     OW67438   1.214   8.681   7.205  0.6441 -0.5337 -0.0527
18460SOL    HW167439   1.254   8.765   7.169  0.6452 -0.0722  0.9864
18460SOL    HW267440   1.116   8.680   7.185  0.9466 -1.0839 -1.5256
18461SOL     OW67441   1.073   8.128   6.203  0.1767 -0.0560  0.2754
18461SOL    HW167442   0.986   8.119   6.154  0.4082 -0.1456 -0.1165
18461SOL    HW267443   1.132   8.050   6.183  0.5930  0.3139  0.0453
18462SOL     OW67444   7.914   1.469   4.482 -0.1547  0.1824  0.2773
18462SOL    HW167445   7.889   1.373   4.497 -0.1859  0.3740  1.4418
18462SOL    HW267446   7.986   1.495   4.546 -1.6313  1.5520  1.4131
18463SOL     OW67447   8.102   5.132   7.499  0.4986  0.7913 -0.1933
18463SOL    HW167448   8.171   5.060   7.511  0.8849  1.0658 -0.7283
18463SOL    HW267449   8.128   5.212   7.552  1.0037  1.1753 -1.0105
18464SOL     OW67450   8.240   2.590   0.003 -0.4753  0.2886  0.2920
18464SOL    HW167451   8.264   2.496  -0.021  0.9877  0.8572 -0.4771
18464SOL    HW267452   8.149   2.591   0.045 -0.5401 -1.4534  0.2211
18465SOL     OW67453   8.768   8.679   7.452  0.0642  0.0717  0.5545
18465SOL    HW167454   8.679   8.716   7.479 -0.5058 -0.9676  0.1506
18465SOL    HW267455   8.816   8.745   7.395 -0.8809  0.2372 -0.0609
18466SOL     OW67456   6.636   9.998   4.921  0.3636 -0.5820  0.6892
18466SOL    HW167457   6.562  10.047   4.966 -1.4787 -1.0318 -1.7306
18466SOL    HW267458   6.615   9.988   4.823  2.4102 -2.9565  0.4310
18467SOL     OW67459   4.819   5.737   0.980 -0.4899  0.5467  0.4859
18467SOL    HW167460   4.764   5.815   1.009 -2.9425 -0.3973 -1.4687
18467SOL    HW267461   4.763   5.655   0.980  1.7645 -1.0367  1.4224
18468SOL     OW67462   5.854   2.631   7.202 -0.0909  0.1799 -0.2599
18468SOL    HW167463   5.774   2.606   7.256 -0.2388  0.1768 -0.4818
18468SOL    HW267464   5.914   2.690   7.257 -0.5000  0.6070 -0.2751
18469SOL     OW67465   4.729   6.368   3.092 -0.1484 -0.4395 -0.0217
18469SOL    HW167466   4.809   6.317   3.060  1.1566  1.1490  0.6201
18469SOL    HW267467   4.735   6.382   3.191 -1.4732 -0.7343  0.1084
18470SOL     OW67468   6.452   3.550   1.804  0.0855  0.0299 -0.3690
18470SOL    HW167469   6.461   3.454   1.832  0.0140  0.2514  0.4289
18470SOL    HW267470   6.506   3.608   1.865 -0.2158  0.5377 -0.5828
18471SOL     OW67471   4.553   3.167   7.216  0.0164 -0.1994 -0.1784
18471SOL    HW167472   4.616   3.235   7.252  0.0566 -0.4359  0.1983
18471SOL    HW267473   4.472   3.162   7.275  0.4767 -1.2087  0.3661
18472SOL     OW67474   6.254   5.252   7.018  0.7432  0.0029  0.3836
18472SOL    HW167475   6.351   5.239   6.998  0.7813 -1.0021  1.1952
18472SOL    HW267476   6.199   5.226   6.938  1.2018  2.1476 -0.6830
18473SOL     OW67477   7.483   6.007   5.563  0.4299 -0.1283  0.2136
18473SOL    HW167478   7.421   5.936   5.529  2.8568 -2.0122 -0.3507
18473SOL    HW267479   7.454   6.096   5.527 -1.3217 -1.1006 -0.8719
18474SOL     OW67480   9.720   2.707   5.775 -0.0627 -0.8608 -0.0574
18474SOL    HW167481   9.622   2.726   5.776 -0.1337 -1.1160 -1.3125
18474SOL    HW267482   9.759   2.727   5.864 -1.1146  0.0219  0.2081
18475SOL     OW67483   5.599   5.523   4.101  0.7418  0.5731 -0.2009
18475SOL    HW167484   5.503   5.499   4.090  0.5855  1.3139 -0.5117
18475SOL    HW267485   5.606   5.614   4.143  1.2703  1.4334 -2.0647
18476SOL     OW67486   9.103   2.907   9.457 -0.4068  0.0936 -0.0816
18476SOL    HW167487   9.124   2.850   9.537  1.8850  1.8631  0.6207
18476SOL    HW267488   9.007   2.937   9.462 -0.4130 -0.1663  1.7838
18477SOL     OW67489   5.598   5.937   6.202 -0.5499 -0.3184 -0.5987
18477SOL    HW167490   5.683   5.930   6.149 -0.3360 -2.5789 -0.0207
18477SOL    HW267491   5.541   5.857   6.183 -1.2769 -0.2402  1.1835
18478SOL     OW67492   0.039   5.159   6.505 -0.0089  0.7088  0.1189
18478SOL    HW167493   0.020   5.139   6.602 -0.3990  0.0273 -0.0968
18478SOL    HW267494   0.137   5.176   6.493  0.0404  0.8009  0.6366
18479SOL     OW67495   7.284   6.751   6.775 -0.5073  0.6091  0.2152
18479SOL    HW167496   7.374   6.760   6.733 -0.9819 -0.2040 -1.0361
18479SOL    HW267497   7.282   6.668   6.831 -0.3054  0.9319  0.7012
18480SOL     OW67498   7.457   6.219   6.990 -0.5057 -0.0230 -0.3301
18480SOL    HW167499   7.417   6.173   6.911  0.3635 -3.1393  0.9865
18480SOL    HW267500   7.423   6.177   7.074  0.9641  1.2045  0.9141
18481SOL     OW67501   8.781   6.124   7.903  0.6302 -0.3365 -0.2304
18481SOL    HW167502   8.794   6.058   7.829  0.7318 -0.5957  0.0184
18481SOL    HW267503   8.790   6.078   7.991  1.4506  0.1592 -0.0516
18482SOL     OW67504   9.756   2.994   3.534 -0.0026 -0.1076 -0.0639
18482SOL    HW167505   9.724   3.089   3.528  0.3684 -0.0296 -0.8576
18482SOL    HW267506   9.687   2.939   3.581 -0.2255  0.5515  0.4034
18483SOL     OW67507   7.843   6.101   2.817 -0.0402  0.1611  0.0866
18483SOL    HW167508   7.919   6.129   2.758  0.5536  0.6000  1.0380
18483SOL    HW267509   7.768   6.166   2.807  1.0818  1.7945  1.7946
18484SOL     OW67510   9.091   7.178   7.203  0.2336 -0.8999  0.4318
18484SOL    HW167511   9.046   7.122   7.134  0.1495  1.4391 -1.4956
18484SOL    HW267512   9.114   7.122   7.282 -2.5842 -2.9757 -0.1400
18485SOL     OW67513   5.303   8.006   4.455  0.0894 -0.0304  0.0708
18485SOL    HW167514   5.277   8.017   4.359 -1.6002 -3.3029  0.1050
18485SOL    HW267515   5.225   8.024   4.514  0.5989  0.0352  0.7349
18486SOL     OW67516   7.229   9.648   6.321  0.7605 -0.3115 -0.6384
18486SOL    HW167517   7.220   9.608   6.230  1.6227  0.4847 -1.0777
18486SOL    HW267518   7.157   9.716   6.335 -1.0153 -2.3013  0.2929
18487SOL     OW67519   6.840   3.628   7.751 -0.3433 -0.0627 -0.1274
18487SOL    HW167520   6.910   3.595   7.814 -0.2809 -1.4856 -0.9188
18487SOL    HW267521   6.761   3.660   7.802  0.3425  0.2903  0.7240
18488SOL     OW67522   5.388   2.883   2.355  0.1423 -0.1566 -0.3728
18488SOL    HW167523   5.378   2.974   2.396 -2.6969 -1.5307  2.1389
18488SOL    HW267524   5.305   2.861   2.303  0.4208 -1.7003 -0.1791
18489SOL     OW67525   8.854   6.915   9.709 -0.1964 -0.3069 -0.3974
18489SOL    HW167526   8.918   6.844   9.678 -0.1467  0.1053 -1.2590
18489SOL    HW267527   8.898   7.005   9.699 -0.0286 -0.1923  1.2673
18490SOL     OW67528   3.485   4.867   0.348  0.1953  0.2351 -0.0189
18490SOL    HW167529   3.448   4.784   0.307 -0.2024  0.6287 -0.4645
18490SOL    HW267530   3.416   4.910   0.405  1.0623 -0.8283  1.8607
18491SOL     OW67531   3.990   2.771   5.454  0.8618 -0.0130 -0.2324
18491SOL    HW167532   3.918   2.836   5.431  0.9698  0.3469  0.4365
18491SOL    HW267533   4.078   2.818   5.462  1.2097 -0.4874 -1.2577
18492SOL     OW67534   3.441   7.314   4.148  0.8873  0.3325 -0.0343
18492SOL    HW167535   3.455   7.215   4.147  0.3474  0.2513 -0.0422
18492SOL    HW267536   3.527   7.361   4.130  0.7359 -0.1768 -2.3226
18493SOL     OW67537   0.664   4.576   5.232 -0.0376 -0.3088 -0.3598
18493SOL    HW167538   0.710   4.488   5.247 -0.3239 -0.2458  0.9283
18493SOL    HW267539   0.582   4.581   5.289 -0.0610  0.7772 -0.4780
18494SOL     OW67540   6.204   6.173   5.826  0.4258 -0.0084  0.5607
18494SOL    HW167541   6.136   6.136   5.888  0.7821 -0.1899  0.8443
18494SOL    HW267542   6.273   6.224   5.878  1.0652 -0.6807  0.3855
18495SOL     OW67543   0.012   4.708   8.256  0.1571 -0.0830  0.4119
18495SOL    HW167544  -0.075   4.715   8.208  1.0998 -0.0673 -1.3306
18495SOL    HW267545   0.022   4.615   8.293 -0.6789 -0.0282  0.7757
18496SOL     OW67546   9.022   8.639   4.235  0.2444  0.0009  0.1966
18496SOL    HW167547   8.942   8.631   4.176 -0.3154  1.2473  0.7768
18496SOL    HW267548   9.015   8.722   4.290  1.4788 -0.3727  0.9385
18497SOL     OW67549   0.418   5.204   7.175 -0.2648  0.2909 -0.2065
18497SOL    HW167550   0.319   5.202   7.192 -0.3658 -0.0047 -0.8001
18497SOL    HW267551   0.464   5.149   7.244 -0.4990  0.6036  0.1982
18498SOL     OW67552   7.054   8.690   8.094  0.3406 -0.2900  0.2005
18498SOL    HW167553   7.019   8.765   8.037 -0.8534 -1.5011 -0.6823
18498SOL    HW267554   7.142   8.659   8.057 -0.1210 -0.6448 -0.6119
18499SOL     OW67555   4.589   1.545   6.773  0.1156  0.3653  0.0832
18499SOL    HW167556   4.544   1.634   6.772  1.4603  1.1172  2.3413
18499SOL    HW267557   4.520   1.472   6.774 -1.0060  1.4160 -0.2753
18500SOL     OW67558   3.088   6.263   8.256 -0.0454  0.5996  0.0591
18500SOL    HW167559   3.045   6.311   8.179  0.9343  0.9945 -0.2568
18500SOL    HW267560   3.018   6.223   8.314 -0.8014  0.1431 -1.1479
18501SOL     OW67561   7.568   7.628   8.181 -0.0613 -0.8548 -0.2895
18501SOL    HW167562   7.560   7.529   8.171 -0.8238 -1.0781  2.0853
18501SOL    HW267563   7.653   7.650   8.229 -0.3910 -0.4232  0.0983
18502SOL     OW67564   8.133   9.899   7.497  0.1438 -0.3211  0.2727
18502SOL    HW167565   8.088   9.827   7.444  2.0389 -0.3906 -1.3235
18502SOL    HW267566   8.146   9.867   7.591  1.4133 -2.3391 -0.5285
18503SOL     OW67567   8.569   6.975   4.624  0.2049  0.6374 -0.2291
18503SOL    HW167568   8.509   7.035   4.676 -0.9259 -0.9027  0.2847
18503SOL    HW267569   8.587   7.015   4.534 -0.7277  1.6196  0.0168
18504SOL     OW67570   7.423   3.250   8.241 -0.0191  0.3587 -0.6299
18504SOL    HW167571   7.520   3.270   8.228 -0.4431  2.3245 -0.8719
18504SOL    HW267572   7.402   3.245   8.338  0.6236 -1.6375 -0.5764
18505SOL     OW67573   2.900   4.876   6.827  0.1951  0.2913 -0.2566
18505SOL    HW167574   2.856   4.881   6.917 -0.3179  0.5302 -0.5192
18505SOL    HW267575   2.949   4.789   6.818  2.4569  1.3386  1.2765
18506SOL     OW67576   7.403   5.345   6.158  0.1443  0.6463 -0.5052
18506SOL    HW167577   7.418   5.364   6.255 -0.2162  1.7270 -0.6481
18506SOL    HW267578   7.351   5.421   6.117 -1.0300 -0.5039 -1.1906
18507SOL     OW67579   9.655   7.477   5.401 -0.5452 -0.1100 -0.4171
18507SOL    HW167580   9.703   7.497   5.316  0.1631  0.6985  0.1586
18507SOL    HW267581   9.559   7.458   5.381 -0.1219 -1.1679 -1.5175
18508SOL     OW67582   6.706   1.639   3.668 -0.3384  0.7201 -0.2340
18508SOL    HW167583   6.684   1.719   3.611 -0.2477  1.3625  0.6254
18508SOL    HW267584   6.804   1.621   3.662 -0.2050  1.2522  0.3132
18509SOL     OW67585   7.127   0.723   6.593  0.0906  0.5032 -0.3598
18509SOL    HW167586   7.222   0.727   6.623 -0.2894  0.3180  0.9386
18509SOL    HW267587   7.122   0.734   6.494  1.5254 -0.2962 -0.5301
18510SOL     OW67588   8.059   3.487   6.475 -0.7951  0.1038 -0.0833
18510SOL    HW167589   8.000   3.516   6.399 -0.6186 -0.3073 -0.3739
18510SOL    HW267590   8.116   3.565   6.504 -0.1957  0.0099 -0.9833
18511SOL     OW67591   7.267   3.043   5.843 -0.4106  1.1532  0.2572
18511SOL    HW167592   7.365   3.034   5.825 -0.2998  1.1482  0.8540
18511SOL    HW267593   7.250   3.028   5.940 -1.1175  0.1568 -0.0066
18512SOL     OW67594   7.051   3.494   7.874  0.4152  0.4995  0.6281
18512SOL    HW167595   7.146   3.472   7.892  0.4112 -1.6675 -1.7677
18512SOL    HW267596   6.994   3.414   7.889 -0.1193 -0.2296 -4.3720
18513SOL     OW67597   8.625   4.533   5.260 -0.5229 -0.1049 -0.3783
18513SOL    HW167598   8.552   4.590   5.297 -1.1487 -0.9908 -0.2348
18513SOL    HW267599   8.709   4.586   5.255 -0.4836  0.1079  2.0835
18514SOL     OW67600   5.061   6.715   4.118  0.0099  0.2148 -0.3101
18514SOL    HW167601   5.038   6.710   4.021 -3.3474  4.2483  0.1247
18514SOL    HW267602   5.142   6.773   4.130 -0.6236  1.1673 -0.6033
18515SOL     OW67603   9.043   1.515   4.132 -0.2015  0.2345  0.0344
18515SOL    HW167604   9.095   1.436   4.102 -1.2098 -0.0767 -0.9160
18515SOL    HW267605   9.077   1.545   4.221  0.2071 -1.2515  0.3986
18516SOL     OW67606   6.585   5.072   3.029  0.0745  0.2902  0.1303
18516SOL    HW167607   6.502   5.127   3.036 -0.2828 -0.1521 -0.5176
18516SOL    HW267608   6.647   5.113   2.962  1.0796  1.4880  1.7584
18517SOL     OW67609   8.460   4.688   4.876 -0.1865 -0.0477  0.3044
18517SOL    HW167610   8.378   4.668   4.822 -0.0620  0.6113 -0.1400
18517SOL    HW267611   8.461   4.785   4.899  0.4626 -0.0551  0.3114
18518SOL     OW67612   2.680   3.340   5.170 -0.0283 -0.2498  1.4630
18518SOL    HW167613   2.594   3.289   5.166  0.3566 -0.9607  2.0554
18518SOL    HW267614   2.715   3.355   5.078 -1.4434  1.1634  1.1510
18519SOL     OW67615   2.347   2.831   6.987  0.3331 -0.2021  0.2511
18519SOL    HW167616   2.287   2.757   6.957  0.3007 -0.5451  1.1330
18519SOL    HW267617   2.325   2.915   6.938  1.2499 -1.0885 -1.7253
18520SOL     OW67618   8.498   5.913   6.362  0.1897 -0.5002  0.2294
18520SOL    HW167619   8.586   5.937   6.403 -0.0473  0.5278  0.1562
18520SOL    HW267620   8.510   5.837   6.298  0.6640 -1.7070  1.7497
18521SOL     OW67621   9.530   4.598   5.873  0.1214  0.7258  0.2393
18521SOL    HW167622   9.557   4.526   5.936 -0.9857  0.4197  0.3676
18521SOL    HW267623   9.529   4.686   5.921  0.3031  0.6496  0.3822
18522SOL     OW67624   6.954   8.994   0.517  0.3576  0.2434 -0.2848
18522SOL    HW167625   7.035   9.036   0.558 -0.3572  0.6132  0.7668
18522SOL    HW267626   6.943   8.902   0.553  0.2361  0.2400 -0.3327
18523SOL     OW67627   9.438   9.309   7.777 -0.1268 -0.8093  0.0299
18523SOL    HW167628   9.399   9.352   7.859 -1.6521 -0.2702 -0.9552
18523SOL    HW267629   9.417   9.365   7.697 -0.7590 -2.5697 -1.0716
18524SOL     OW67630   4.945   7.515   9.217 -0.6719 -0.3608  0.2749
18524SOL    HW167631   4.907   7.423   9.229 -1.6659 -0.0100 -0.0457
18524SOL    HW267632   4.923   7.547   9.124  2.2246 -0.9548 -0.6543
18525SOL     OW67633   4.358   9.934   6.598 -0.4216  0.0751  0.5135
18525SOL    HW167634   4.344   9.914   6.695 -0.5114  0.4159  0.5702
18525SOL    HW267635   4.398   9.854   6.553 -1.4021 -0.4802  0.6088
18526SOL     OW67636   0.723   5.372   6.616  0.3852  0.0056 -0.1742
18526SOL    HW167637   0.711   5.459   6.568  0.7110 -0.7752 -1.6945
18526SOL    HW267638   0.808   5.329   6.585  1.2974  0.1063  2.0883
18527SOL     OW67639   7.395   9.591   5.489 -0.0621  0.1153  0.5068
18527SOL    HW167640   7.419   9.618   5.582  0.4414  0.8195  0.1754
18527SOL    HW267641   7.477   9.589   5.432 -0.2350 -1.2150  0.2966
18528SOL     OW67642   8.533   0.698   4.881  0.0105  0.3214  0.2855
18528SOL    HW167643   8.599   0.659   4.945 -0.6824  2.7668  2.5784
18528SOL    HW267644   8.476   0.625   4.843  1.3080 -1.3192  1.4552
18529SOL     OW67645   4.651   5.346   5.896 -0.4247 -0.0917  0.6220
18529SOL    HW167646   4.558   5.330   5.929 -0.9302  0.0485 -0.7047
18529SOL    HW267647   4.696   5.258   5.877 -1.4731 -0.1126 -1.9360
18530SOL     OW67648   8.029   7.640   5.743  0.7354 -0.3738  0.0761
18530SOL    HW167649   8.099   7.639   5.815  0.0493 -0.5310  0.7524
18530SOL    HW267650   7.987   7.549   5.737 -0.1872  0.0179  0.4538
18531SOL     OW67651   9.986   5.221   4.259 -0.0514 -0.3798 -0.5904
18531SOL    HW167652  10.029   5.148   4.312  0.3695 -0.1450 -0.6043
18531SOL    HW267653   9.944   5.183   4.177  0.8923 -0.5062 -1.0314
18532SOL     OW67654   6.776   4.487   7.160  0.4533  0.2308  0.0413
18532SOL    HW167655   6.780   4.581   7.126  0.3633  0.0695 -0.4217
18532SOL    HW267656   6.856   4.437   7.128  0.1163 -0.0598 -0.3570
18533SOL     OW67657   6.335   6.130   6.891  0.1066 -0.0741 -0.2289
18533SOL    HW167658   6.236   6.140   6.905 -0.1984  0.4980 -2.5453
18533SOL    HW267659   6.358   6.033   6.884  0.2226 -0.3945  3.4278
18534SOL     OW67660   7.150   9.436   3.536 -0.1236  0.0072 -0.7730
18534SOL    HW167661   7.202   9.410   3.454 -0.1213 -1.5167 -0.2996
18534SOL    HW267662   7.189   9.390   3.616  0.1063  1.7635  0.1692
18535SOL     OW67663   5.546   3.335   3.711  0.3586 -0.2674  0.0299
18535SOL    HW167664   5.473   3.353   3.777  0.2721 -1.3899  0.2347
18535SOL    HW267665   5.506   3.308   3.623  0.5110 -0.0921 -0.0949
18536SOL     OW67666   6.838   3.540   1.868  0.0753 -0.0495 -0.5050
18536SOL    HW167667   6.805   3.489   1.788  0.1511 -0.1139 -0.4948
18536SOL    HW267668   6.789   3.627   1.874  0.6672  0.3279 -1.1065
18537SOL     OW67669   5.428   9.934   7.471 -0.7061 -0.6722 -0.5184
18537SOL    HW167670   5.331   9.955   7.465 -0.4979  0.4707 -0.0800
18537SOL    HW267671   5.462   9.960   7.561  0.6487  1.7883 -1.6781
18538SOL     OW67672   4.974   0.818   9.255  0.1126  0.4784 -0.6525
18538SOL    HW167673   5.002   0.766   9.336 -0.3239  2.3127  0.7147
18538SOL    HW267674   4.882   0.854   9.268  0.5165  1.8565 -1.4284
18539SOL     OW67675   0.930   9.872   5.908 -0.0273  0.0448  0.3166
18539SOL    HW167676   0.981   9.890   5.825  1.6332 -0.7907  1.1296
18539SOL    HW267677   0.954   9.782   5.943 -1.3458  0.0373  1.2453
18540SOL     OW67678   3.697   2.407   6.827  0.6748 -0.4638  0.3402
18540SOL    HW167679   3.777   2.364   6.786  1.2949 -0.9178  1.9801
18540SOL    HW267680   3.621   2.342   6.831  0.0585  0.1194 -1.6694
18541SOL     OW67681   8.742   7.566   0.092 -0.0906  0.1501 -0.1952
18541SOL    HW167682   8.772   7.532   0.003 -1.0644 -0.1436 -0.4128
18541SOL    HW267683   8.647   7.597   0.086 -0.8915 -1.9161  1.2759
18542SOL     OW67684   7.220   0.421   9.059 -0.0268 -0.0544  0.7715
18542SOL    HW167685   7.238   0.398   9.155 -1.3906  0.2423  1.1134
18542SOL    HW267686   7.153   0.357   9.021  1.3614 -0.8729 -0.3344
18543SOL     OW67687   9.534   5.382   4.769 -0.6510 -0.1576 -0.2475
18543SOL    HW167688   9.446   5.337   4.754  0.0707 -1.5115 -0.5074
18543SOL    HW267689   9.558   5.436   4.689 -1.5539  0.7578  0.0892
18544SOL     OW67690   8.217   9.567   7.381  0.0772 -0.3433  0.1084
18544SOL    HW167691   8.228   9.469   7.400 -1.2100 -0.2704  1.3006
18544SOL    HW267692   8.121   9.592   7.390  0.6008  1.3251  1.3141
18545SOL     OW67693   4.895   2.865   4.266  0.4598 -0.3132  0.1520
18545SOL    HW167694   4.901   2.964   4.262 -0.1724 -0.2885 -0.1867
18545SOL    HW267695   4.874   2.836   4.359  0.5162 -0.1224  0.2224
18546SOL     OW67696   5.405   7.044   5.182  0.0134  0.2151  0.6652
18546SOL    HW167697   5.343   6.998   5.119 -1.6983 -1.3475  3.3737
18546SOL    HW267698   5.488   6.989   5.194 -0.0476  0.0738  0.4378
18547SOL     OW67699   3.750   6.408   4.141  0.2014  0.3731  0.4212
18547SOL    HW167700   3.749   6.328   4.082 -0.1653  1.2128 -0.7235
18547SOL    HW267701   3.780   6.381   4.233  0.7322 -0.9433 -0.1239
18548SOL     OW67702   7.203   6.564   3.051  0.1004 -0.0711 -0.0038
18548SOL    HW167703   7.224   6.636   2.985 -0.7020  1.0415  0.9424
18548SOL    HW267704   7.251   6.480   3.025 -0.5222  0.2299 -2.2249
18549SOL     OW67705   2.580   2.710   1.111 -0.0956  0.2250 -0.0465
18549SOL    HW167706   2.623   2.787   1.063  1.2324 -0.6873 -0.3512
18549SOL    HW267707   2.642   2.631   1.110 -1.6059 -0.9833 -0.0918
18550SOL     OW67708   0.991   5.998   6.056 -0.1893 -0.1868 -0.0942
18550SOL    HW167709   1.028   6.063   6.122  0.8989 -1.1180  0.2193
18550SOL    HW267710   1.036   6.011   5.967  1.7659 -2.0962  0.5866
18551SOL     OW67711   1.449   2.847   6.759 -0.1191  0.6036 -0.1235
18551SOL    HW167712   1.422   2.909   6.686 -1.2493 -0.8814 -0.9769
18551SOL    HW267713   1.380   2.848   6.831 -0.2831  0.1415 -0.2698
18552SOL     OW67714   5.777   5.900   5.513  0.2449 -0.2405 -0.2451
18552SOL    HW167715   5.827   5.846   5.445  1.4464  0.4096  0.1056
18552SOL    HW267716   5.687   5.923   5.477  0.7219 -0.2438 -1.4797
18553SOL     OW67717   4.776   4.038   0.689 -0.1309  0.6630  0.2241
18553SOL    HW167718   4.761   3.943   0.662  1.0880  0.0436  1.6546
18553SOL    HW267719   4.700   4.068   0.747 -0.0900  0.2897  0.4709
18554SOL     OW67720   7.537   5.793   4.074 -0.3266 -0.2857  0.0838
18554SOL    HW167721   7.535   5.786   3.974 -1.3178  2.5449 -0.1312
18554SOL    HW267722   7.575   5.882   4.101 -1.7415 -0.2863  2.1931
18555SOL     OW67723   6.416   4.902   6.946  0.3253  0.4753 -0.0686
18555SOL    HW167724   6.403   4.839   7.022 -0.7656  1.3057  0.4410
18555SOL    HW267725   6.332   4.910   6.894  0.9660  0.1889 -1.1596
18556SOL     OW67726   9.186   6.728   0.866 -0.1060  0.4068 -0.9924
18556SOL    HW167727   9.099   6.695   0.828 -0.8423  2.7657 -1.4474
18556SOL    HW267728   9.249   6.750   0.792  0.8900 -1.2371 -0.6629
18557SOL     OW67729   5.968   5.113   4.519 -0.4026 -0.1497 -0.8925
18557SOL    HW167730   5.883   5.158   4.491 -0.5381  0.0613 -0.1368
18557SOL    HW267731   6.020   5.088   4.437 -1.3578 -0.6048 -1.3608
18558SOL     OW67732   9.620   5.920   6.394  0.8329 -0.5012  0.2245
18558SOL    HW167733   9.639   5.900   6.297 -0.6466  1.0939 -0.4107
18558SOL    HW267734   9.551   5.857   6.428 -0.5035  0.5613 -0.4898
18559SOL     OW67735   4.735   3.921   9.459  0.4807 -0.5036 -0.6505
18559SOL    HW167736   4.719   3.853   9.531 -1.8887 -0.0042 -0.6777
18559SOL    HW267737   4.819   3.897   9.409  2.0128 -1.0343  2.0528
18560SOL     OW67738   5.992   5.977   7.140 -0.3209  0.3283 -0.5036
18560SOL    HW167739   5.947   5.902   7.091 -1.2985 -1.2617  2.6284
18560SOL    HW267740   5.924   6.028   7.192  1.0271 -0.1236  1.7940
18561SOL     OW67741   1.137   8.208   4.138  0.0075 -0.3685  0.6731
18561SOL    HW167742   1.166   8.295   4.179 -1.7051  0.6003 -0.1444
18561SOL    HW267743   1.117   8.142   4.211  0.8545  0.0496  1.3012
18562SOL     OW67744   7.335   5.364   7.811 -0.4964  0.1567  0.6665
18562SOL    HW167745   7.368   5.314   7.891 -1.0617 -0.8479  0.2785
18562SOL    HW267746   7.235   5.358   7.806 -0.3075 -1.8239 -1.4370
18563SOL     OW67747   5.240   1.844   2.876 -0.0182 -0.1099 -0.3190
18563SOL    HW167748   5.224   1.885   2.965  1.3465 -0.9355  0.3253
18563SOL    HW267749   5.175   1.769   2.862  1.2099 -1.4487  0.9627
18564SOL     OW67750   2.207   1.330   2.340  0.3347  0.5301 -0.0042
18564SOL    HW167751   2.149   1.342   2.260  0.6898  0.5611 -0.2531
18564SOL    HW267752   2.285   1.392   2.336  1.2661 -0.6632 -0.4745
18565SOL     OW67753   7.190   3.316   7.263 -0.2111  0.4655  0.3757
18565SOL    HW167754   7.147   3.268   7.339  0.5716  0.4064  0.7933
18565SOL    HW267755   7.210   3.410   7.290  0.1774  0.4093  0.2922
18566SOL     OW67756   7.278   5.313   2.123  0.2358 -0.2761 -0.1198
18566SOL    HW167757   7.291   5.237   2.187 -1.2401  0.5214  1.1512
18566SOL    HW267758   7.366   5.354   2.102  0.7933 -0.9010  0.9545
18567SOL     OW67759   6.438   7.122   5.538 -0.1935 -0.5818 -0.3047
18567SOL    HW167760   6.508   7.053   5.520  0.3557  0.5666 -2.7461
18567SOL    HW267761   6.478   7.196   5.592 -0.1947 -1.0621  0.3733
18568SOL     OW67762   5.123   6.426   3.957 -0.1019 -0.8164  0.1079
18568SOL    HW167763   5.051   6.460   3.898 -1.3946 -3.4633  0.0707
18568SOL    HW267764   5.083   6.374   4.032  1.7178 -1.6990  0.5095
18569SOL     OW67765   8.536   1.886   9.519  0.4858  0.0428 -0.5587
18569SOL    HW167766   8.559   1.979   9.492 -2.4968  0.6258 -1.2717
18569SOL    HW267767   8.522   1.830   9.437 -1.0797 -0.1279 -0.2040
18570SOL     OW67768   5.020   6.890   7.617  0.0682  0.1445  0.3329
18570SOL    HW167769   5.047   6.910   7.711  1.3548  2.3631 -0.4726
18570SOL    HW267770   5.101   6.891   7.558 -1.1596  2.5202 -1.3894
18571SOL     OW67771   9.866   3.615   7.311  0.5094 -0.0970 -0.2265
18571SOL    HW167772   9.905   3.706   7.311  0.9956 -0.3043 -0.9111
18571SOL    HW267773   9.770   3.620   7.285  0.6779  0.1575 -0.7949
18572SOL     OW67774   6.811   3.313   5.618 -0.1367  0.3240 -0.6913
18572SOL    HW167775   6.813   3.353   5.526  0.8052  1.0522 -0.3637
18572SOL    HW267776   6.725   3.264   5.631 -0.8837  1.3933 -1.4741
18573SOL     OW67777   4.289   3.397   4.342  0.2298 -0.4927  0.1818
18573SOL    HW167778   4.331   3.326   4.399 -0.7009 -0.3833  1.0161
18573SOL    HW267779   4.361   3.454   4.303  0.8544  0.6500  2.8376
18574SOL     OW67780   8.666   7.709   9.138 -0.3383  0.6162 -0.5154
18574SOL    HW167781   8.662   7.726   9.237  0.1783 -2.4135  0.0631
18574SOL    HW267782   8.600   7.768   9.092 -1.0947  1.5646  1.6988
18575SOL     OW67783   4.230   7.660   7.776 -0.0757  0.2241  0.5616
18575SOL    HW167784   4.323   7.665   7.814 -0.1778  2.1518  0.6258
18575SOL    HW267785   4.228   7.708   7.689 -0.9755  0.0233  0.4761
18576SOL     OW67786   5.745   5.497   8.584  0.4282  0.0307  0.3294
18576SOL    HW167787   5.661   5.450   8.556 -0.3902  1.7752 -0.2092
18576SOL    HW267788   5.792   5.442   8.653 -1.3639 -0.7922  0.9452
18577SOL     OW67789   7.570   4.339   4.511  0.9053  0.2092 -0.6704
18577SOL    HW167790   7.607   4.247   4.526 -0.3069 -0.3560 -1.0982
18577SOL    HW267791   7.598   4.372   4.421  1.4812  0.3326 -0.4486
18578SOL     OW67792   4.604   6.100   1.535  0.4455 -0.3044 -0.2597
18578SOL    HW167793   4.654   6.018   1.564  1.9696  1.1752  1.3902
18578SOL    HW267794   4.634   6.127   1.443  2.3131  0.2418  0.4875
18579SOL     OW67795   7.890   5.623   9.271 -0.2192  0.5399 -0.0234
18579SOL    HW167796   7.979   5.618   9.224  0.1118 -0.7171  0.7049
18579SOL    HW267797   7.873   5.536   9.319 -1.9013  0.7296 -0.2602
18580SOL     OW67798   7.498   4.985   1.986 -0.2196 -0.2416  0.4218
18580SOL    HW167799   7.588   5.005   1.947 -0.4284 -0.1092  0.0161
18580SOL    HW267800   7.487   5.036   2.071  0.5253 -1.0916  1.0438
18581SOL     OW67801   8.123   2.035   8.100  0.3067  0.4764 -0.8488
18581SOL    HW167802   8.078   2.057   8.187  2.7296  3.2800 -0.2281
18581SOL    HW267803   8.071   2.072   8.024 -1.1030 -0.8022 -0.5390
18582SOL     OW67804   9.390   9.696   2.000  0.5128 -0.3662 -0.1022
18582SOL    HW167805   9.302   9.657   2.028  0.9452 -0.8086  0.6845
18582SOL    HW267806   9.442   9.627   1.949  0.0306  0.1982 -1.3797
18583SOL     OW67807   9.575   6.687   6.206 -0.1568 -0.1217 -0.0841
18583SOL    HW167808   9.659   6.673   6.258  2.3618 -1.2596 -4.2414
18583SOL    HW267809   9.583   6.772   6.153 -0.8991 -1.1461 -1.8646
18584SOL     OW67810   6.374   3.538   4.041  0.4634 -0.3206  0.3143
18584SOL    HW167811   6.385   3.636   4.023 -1.2473 -0.6150 -2.5892
18584SOL    HW267812   6.291   3.523   4.095  0.4175 -0.2099  0.2752
18585SOL     OW67813   9.519   8.742   3.622 -0.3492  0.0232  0.2690
18585SOL    HW167814   9.529   8.718   3.526  2.3561 -0.4833  0.6463
18585SOL    HW267815   9.603   8.786   3.655 -0.8461 -0.7101  2.6372
18586SOL     OW67816   2.183   7.470   9.292  0.5464 -0.7708  0.0386
18586SOL    HW167817   2.125   7.509   9.364  0.8557  0.0767 -0.1689
18586SOL    HW267818   2.277   7.465   9.325  0.9509  0.9212 -0.7855
18587SOL     OW67819   6.751   3.347   7.406 -0.7549  0.7575  0.2607
18587SOL    HW167820   6.810   3.421   7.374 -0.2619  1.1991  2.1543
18587SOL    HW267821   6.662   3.383   7.434 -0.7968  0.5295  0.4327
18588SOL     OW67822   1.417   4.431   9.845  0.2238 -0.0851  0.4804
18588SOL    HW167823   1.438   4.525   9.817 -0.4242  0.1026  0.6289
18588SOL    HW267824   1.323   4.408   9.819  0.4741 -0.7959  0.1771
18589SOL     OW67825   9.023   6.245   7.824  0.3509  0.0515  0.5158
18589SOL    HW167826   9.047   6.198   7.740 -0.4006  0.1472  0.2376
18589SOL    HW267827   8.944   6.200   7.866 -0.5037  1.1632  0.1437
18590SOL     OW67828   1.463   7.542   9.808 -0.4055  0.1793  0.6903
18590SOL    HW167829   1.434   7.555   9.713 -0.8074  1.3637  0.9692
18590SOL    HW267830   1.492   7.447   9.821 -1.8305 -0.4047 -0.2227
18591SOL     OW67831   7.101   6.725   6.122  0.0355 -0.4234  0.3514
18591SOL    HW167832   7.079   6.670   6.041  0.4919 -0.3545  0.1815
18591SOL    HW267833   7.200   6.738   6.128 -0.0648  0.3010  0.4441
18592SOL     OW67834   0.748   3.658   5.672  0.1509  0.1036  0.3197
18592SOL    HW167835   0.698   3.736   5.709  1.2473  0.1096  1.8374
18592SOL    HW267836   0.700   3.573   5.696 -1.2627  0.2982 -1.6830
18593SOL     OW67837   9.026   0.873   7.872  0.0793 -0.6317 -0.4589
18593SOL    HW167838   9.069   0.808   7.810  1.6093 -0.5109  0.4528
18593SOL    HW267839   9.082   0.956   7.878 -1.1148  0.1966 -0.5089
18594SOL     OW67840   5.458   6.242   7.372  0.6707  0.3643  0.2973
18594SOL    HW167841   5.548   6.220   7.409  0.4361 -1.7750 -0.3203
18594SOL    HW267842   5.463   6.247   7.272 -0.0381 -0.6553  0.1968
18595SOL     OW67843   7.183   2.269   0.157  0.7005  0.5473  0.0621
18595SOL    HW167844   7.222   2.330   0.226 -0.5562  0.2857  1.0313
18595SOL    HW267845   7.170   2.319   0.072 -0.5203  1.7297  0.9083
18596SOL     OW67846   4.593   9.462   6.764 -0.4180 -0.4468 -0.0476
18596SOL    HW167847   4.507   9.471   6.813  0.1173 -0.2122  0.8578
18596SOL    HW267848   4.575   9.460   6.666 -1.3051  1.6864  0.0298
18597SOL     OW67849   1.979   1.505   7.603 -0.0303  0.2276  0.5018
18597SOL    HW167850   2.012   1.523   7.510  2.2161 -2.9079  0.5871
18597SOL    HW267851   1.993   1.586   7.659  0.2079  1.5997 -1.4803
18598SOL     OW67852   5.696   7.086   3.916 -0.2780 -0.2703 -0.1604
18598SOL    HW167853   5.783   7.096   3.868  0.1454  0.4230  0.7577
18598SOL    HW267854   5.692   7.149   3.993 -1.1897 -0.9820  0.3905
18599SOL     OW67855   4.396   8.894   2.812  0.3490 -0.4219 -0.4368
18599SOL    HW167856   4.312   8.919   2.764 -0.7557 -1.3856  0.9455
18599SOL    HW267857   4.460   8.971   2.811 -0.9590  0.6687 -0.6326
18600SOL     OW67858   1.928   1.843   1.837 -0.4967 -0.4592  0.3797
18600SOL    HW167859   1.992   1.776   1.799 -1.2931 -0.0198 -1.8133
18600SOL    HW267860   1.979   1.921   1.873  0.2507 -0.6209 -0.3150
18601SOL     OW67861   8.472   9.898   8.319 -0.7076  0.1910  0.8874
18601SOL    HW167862   8.504   9.984   8.279 -0.2994  1.5976  4.1098
18601SOL    HW267863   8.408   9.855   8.256  0.3746  1.9949 -1.5426
18602SOL     OW67864   0.167   5.223   7.131  0.1122 -0.6743 -0.0583
18602SOL    HW167865   0.162   5.211   7.032  2.8292  1.4286 -0.5193
18602SOL    HW267866   0.107   5.299   7.158  0.0962 -0.6329 -0.2079
18603SOL     OW67867   9.158   1.424   5.801  0.1159  0.0413  0.5919
18603SOL    HW167868   9.225   1.378   5.743 -2.4424 -1.7492 -1.1047
18603SOL    HW267869   9.133   1.363   5.877  0.7320  0.8786  1.4729
18604SOL     OW67870   8.077   5.083   0.372  0.8542 -0.8279  0.2445
18604SOL    HW167871   7.995   5.105   0.319  1.8677 -2.3687 -1.9999
18604SOL    HW267872   8.057   5.096   0.469 -1.8042 -0.4351 -0.3058
18605SOL     OW67873   7.020   7.253   6.521  0.1647  0.0140  0.1146
18605SOL    HW167874   7.116   7.225   6.508  0.0464  0.3935 -1.8370
18605SOL    HW267875   7.017   7.350   6.544  0.2907 -0.2022  1.0496
18606SOL     OW67876   8.341   8.615   4.444  0.2223 -0.0394  0.1306
18606SOL    HW167877   8.350   8.517   4.462 -0.8912 -0.3072 -0.7073
18606SOL    HW267878   8.281   8.629   4.365 -0.0118  1.3367  0.5386
18607SOL     OW67879   2.801   1.022   5.380 -0.4102  0.4053  0.4423
18607SOL    HW167880   2.792   1.064   5.471 -0.9961  0.4937  0.3422
18607SOL    HW267881   2.787   0.923   5.387 -1.8050  0.5831  0.2357
18608SOL     OW67882   8.201   5.108   6.491  0.0212 -0.2335  0.1187
18608SOL    HW167883   8.259   5.187   6.509 -0.1275 -0.0811 -0.0749
18608SOL    HW267884   8.235   5.029   6.543  0.4974 -0.1889 -0.1232
18609SOL     OW67885   3.001   7.229   5.325 -0.7056 -0.6479  0.1616
18609SOL    HW167886   3.025   7.288   5.402  1.5677 -2.4308  0.9061
18609SOL    HW267887   3.035   7.269   5.240 -1.5472  0.4032  0.3127
18610SOL     OW67888   5.979   4.846   3.289 -0.5506  0.0561  0.2534
18610SOL    HW167889   5.888   4.846   3.330  0.2031  0.0581  1.9425
18610SOL    HW267890   6.033   4.770   3.326 -0.1537 -0.5205 -1.4277
18611SOL     OW67891   2.620   6.495   6.877  0.3376 -0.4617  0.9346
18611SOL    HW167892   2.620   6.425   6.805  2.5774  1.0664 -0.6625
18611SOL    HW267893   2.650   6.454   6.963 -1.4877 -2.1340  0.8066
18612SOL     OW67894   5.861   5.531   7.691  0.3773 -0.5776 -0.0154
18612SOL    HW167895   5.901   5.622   7.690  0.0268 -0.4255 -0.0966
18612SOL    HW267896   5.890   5.482   7.774  0.1893 -0.2278  0.2553
18613SOL     OW67897   4.924   5.561   9.915  0.2914  0.4909 -0.2220
18613SOL    HW167898   4.984   5.560   9.995 -0.0350 -0.1466  0.0222
18613SOL    HW267899   4.829   5.568   9.946  0.1656  0.2546 -0.5588
18614SOL     OW67900   8.694   5.057   4.833  0.1829 -0.4127 -0.5452
18614SOL    HW167901   8.758   5.130   4.809  0.3606 -0.7546 -1.1105
18614SOL    HW267902   8.639   5.032   4.754 -0.1100 -0.6634 -0.2681
18615SOL     OW67903   2.996   7.268   0.139 -0.1580  0.1693 -0.1960
18615SOL    HW167904   3.088   7.305   0.132 -0.3140  0.2910 -2.0109
18615SOL    HW267905   3.000   7.172   0.165  0.5335 -0.0224 -0.9920
18616SOL     OW67906   6.868   0.163   7.247 -0.2412  0.0279 -0.2573
18616SOL    HW167907   6.959   0.175   7.206 -0.7534 -0.0526 -1.4150
18616SOL    HW267908   6.825   0.081   7.210 -1.1122  0.4972 -0.2863
18617SOL     OW67909   5.499   9.461   5.640 -0.9485 -0.1283  0.1608
18617SOL    HW167910   5.472   9.369   5.609 -2.0736 -0.4910  2.1620
18617SOL    HW267911   5.418   9.519   5.649 -0.5245  0.2962  1.3332
18618SOL     OW67912   8.150   4.372   3.677  0.3656 -0.4430  0.1018
18618SOL    HW167913   8.080   4.432   3.639  0.6674 -0.0469  0.1578
18618SOL    HW267914   8.179   4.306   3.607  0.5820 -0.0239 -0.2080
18619SOL     OW67915   0.272   6.695   7.081 -0.0658 -0.2430  0.0563
18619SOL    HW167916   0.193   6.754   7.065 -0.2268 -0.3030  0.6099
18619SOL    HW267917   0.277   6.672   7.179  0.3921 -0.5799 -0.0454
18620SOL     OW67918   4.262   9.510   5.176  0.1705 -0.7275 -0.1287
18620SOL    HW167919   4.354   9.523   5.213  0.4355 -2.5955 -0.1115
18620SOL    HW267920   4.197   9.564   5.230  1.4392  1.9265 -1.1400
18621SOL     OW67921   7.002   3.245   0.533 -0.4527 -0.4363 -0.5435
18621SOL    HW167922   7.025   3.148   0.530  0.0213 -0.3144 -0.8976
18621SOL    HW267923   6.999   3.276   0.629  0.6721 -0.4983 -0.4856
18622SOL     OW67924   9.235   8.488   9.250 -0.1048 -0.3908 -0.2142
18622SOL    HW167925   9.187   8.540   9.179 -0.3152 -0.8668 -0.4216
18622SOL    HW267926   9.222   8.390   9.235  1.2251 -0.5352 -0.4549
18623SOL     OW67927   7.483   4.430   6.308  0.4540 -0.0834 -0.0148
18623SOL    HW167928   7.568   4.416   6.360 -0.3593  0.0238  1.3788
18623SOL    HW267929   7.425   4.349   6.315  0.2751 -0.0142 -0.6501
18624SOL     OW67930   6.932   1.906   8.078  0.3575 -0.6072  0.2556
18624SOL    HW167931   6.973   1.949   7.998 -0.2324 -0.3879  0.0750
18624SOL    HW267932   6.842   1.945   8.095  1.2787  0.8032  2.2045
18625SOL     OW67933   7.551   8.073   2.260 -0.6619  0.5539  0.1651
18625SOL    HW167934   7.468   8.110   2.303 -1.8608 -0.6400 -1.0683
18625SOL    HW267935   7.602   8.147   2.217 -0.4881  1.4717  1.9066
18626SOL     OW67936   4.593   6.230   9.927 -1.0315 -0.5113  0.7115
18626SOL    HW167937   4.686   6.240   9.961 -0.5551 -1.3167 -0.3265
18626SOL    HW267938   4.529   6.278   9.988 -0.1085 -1.1819  2.2276
18627SOL     OW67939   9.131   7.776   4.830  0.1612 -0.1200 -0.6274
18627SOL    HW167940   9.045   7.813   4.863  0.4371  1.3929 -1.5487
18627SOL    HW267941   9.168   7.711   4.896  0.1389  1.9779  1.4930
18628SOL     OW67942   8.837   7.623   8.185  0.0346  0.0757 -0.0321
18628SOL    HW167943   8.814   7.529   8.213 -0.1693  0.4946  1.2726
18628SOL    HW267944   8.756   7.668   8.149 -0.1039  0.0613  0.2585
18629SOL     OW67945   7.499   3.412   5.973 -0.0329 -0.3311  0.5380
18629SOL    HW167946   7.420   3.441   6.027 -0.0361  0.4182  0.1485
18629SOL    HW267947   7.469   3.386   5.881  0.2371  0.5465  0.1918
18630SOL     OW67948   5.162   8.153   4.882  0.1959  0.2804 -0.0053
18630SOL    HW167949   5.218   8.156   4.965  0.1470  1.7587 -0.0229
18630SOL    HW267950   5.189   8.073   4.827  1.8609  0.6077  0.2970
18631SOL     OW67951   3.852   0.200   0.237 -0.2733 -0.1820  0.8778
18631SOL    HW167952   3.911   0.136   0.187  0.2928  1.5649 -0.7411
18631SOL    HW267953   3.761   0.200   0.195  0.1639  1.1853 -0.0996
18632SOL     OW67954   6.737   5.137   2.828 -0.0548 -0.5158 -0.0314
18632SOL    HW167955   6.818   5.116   2.884 -0.1127  0.3668  0.3888
18632SOL    HW267956   6.752   5.102   2.735  0.9064 -0.1573 -0.0220
18633SOL     OW67957   6.179   4.897   6.775 -0.1364 -0.3784  0.0915
18633SOL    HW167958   6.087   4.861   6.791  0.0483 -1.6561 -1.5747
18633SOL    HW267959   6.177   4.996   6.771 -1.6629 -0.4534 -1.2452
18634SOL     OW67960   2.832   3.190   9.961 -0.4430 -0.1618 -0.0082
18634SOL    HW167961   2.889   3.108   9.968 -0.9419 -0.4371  0.8533
18634SOL    HW267962   2.797   3.214  10.051 -1.5592  0.1181 -0.5131
18635SOL     OW67963   7.489   1.555   8.687  0.4440 -0.3271 -0.1173
18635SOL    HW167964   7.524   1.627   8.627 -1.4881  1.2785  0.6036
18635SOL    HW267965   7.405   1.517   8.649  0.8925 -1.4894  0.0291
18636SOL     OW67966   8.785   7.182   5.406  0.0793 -0.1658 -0.0922
18636SOL    HW167967   8.865   7.137   5.446  0.0825  0.1220  0.2373
18636SOL    HW267968   8.729   7.221   5.480 -0.2426 -0.1638 -0.3351
18637SOL     OW67969   9.242   7.212   6.419  0.1652  0.0650  0.0397
18637SOL    HW167970   9.186   7.211   6.502  0.0014  0.1537 -0.0696
18637SOL    HW267971   9.208   7.143   6.355  1.5173 -1.3787  0.8440
18638SOL     OW67972   5.202   6.387   1.397 -0.4489 -0.1473 -0.8232
18638SOL    HW167973   5.145   6.314   1.360  0.8600 -0.7120 -1.7438
18638SOL    HW267974   5.191   6.470   1.342 -0.6143 -0.1589 -0.8086
18639SOL     OW67975   3.021   4.493   7.921 -0.0155  0.5120  0.3205
18639SOL    HW167976   3.087   4.548   7.972 -0.8505  1.5601  0.2958
18639SOL    HW267977   3.032   4.509   7.823  0.6930 -0.4655  0.2416
18640SOL     OW67978   9.778   3.370   4.320 -0.1903  0.0611  0.5095
18640SOL    HW167979   9.803   3.390   4.225  0.6539  2.6162  1.2229
18640SOL    HW267980   9.856   3.389   4.380 -1.0852 -0.3729  1.8463
18641SOL     OW67981   7.502   3.757   6.646 -0.2106  0.3652 -0.2132
18641SOL    HW167982   7.441   3.783   6.571  0.0217  2.6988  0.3896
18641SOL    HW267983   7.474   3.804   6.730  0.6765 -0.7776  0.7481
18642SOL     OW67984   5.504   5.052   8.573  0.3758  0.2014  0.3655
18642SOL    HW167985   5.466   5.036   8.481  0.3523  0.3220  0.3536
18642SOL    HW267986   5.493   4.969   8.628  0.8046 -0.0232  0.1137
18643SOL     OW67987   6.443   8.514   7.816 -0.0769 -0.1302  0.0588
18643SOL    HW167988   6.508   8.459   7.868 -0.7492  0.2479  1.3220
18643SOL    HW267989   6.383   8.563   7.879  0.1616  1.6417 -1.0459
18644SOL     OW67990   5.085   5.693   9.214 -0.5475 -0.0199  0.8488
18644SOL    HW167991   5.106   5.698   9.312 -1.6843  2.5192  1.0177
18644SOL    HW267992   4.986   5.685   9.202 -0.5646  1.4164 -0.0998
18645SOL     OW67993   7.348   7.541   0.651  0.3258  0.5138 -0.2809
18645SOL    HW167994   7.364   7.444   0.633 -1.5975  0.4665 -1.7899
18645SOL    HW267995   7.330   7.554   0.748  0.0308 -0.7086 -0.1662
18646SOL     OW67996   6.184   5.428   7.525  0.8209 -0.5554 -0.1988
18646SOL    HW167997   6.197   5.418   7.624  0.2684 -3.2785 -0.3574
18646SOL    HW267998   6.272   5.443   7.481  0.8478  2.8189  0.8851
18647SOL     OW67999   7.440   6.551   1.680 -0.2455 -0.5701 -0.0144
18647SOL    HW168000   7.453   6.508   1.769 -0.2889 -0.2933  0.1274
18647SOL    HW268001   7.364   6.507   1.632 -0.8262 -0.1037  0.4749
18648SOL     OW68002   0.841   9.333   0.499  0.3209  0.2446 -0.0746
18648SOL    HW168003   0.895   9.325   0.415  0.9194  0.9373  0.2329
18648SOL    HW268004   0.895   9.381   0.569  0.1016 -0.9731  0.9503
18649SOL     OW68005   4.073   9.139   6.429  0.6092 -0.6547  0.5089
18649SOL    HW168006   4.148   9.154   6.365 -0.4615 -1.7655 -1.0127
18649SOL    HW268007   4.089   9.194   6.512  1.7165  1.2073 -0.9036
18650SOL     OW68008   8.538   6.916   7.899  0.1138 -0.2556  0.2351
18650SOL    HW168009   8.548   6.913   7.800 -0.9169 -0.2276  0.1176
18650SOL    HW268010   8.618   6.875   7.942  0.6049 -0.1923 -0.6030
18651SOL     OW68011   6.885   7.285   4.918 -0.2263  0.1066 -0.3686
18651SOL    HW168012   6.917   7.191   4.911  1.5639  0.5538  1.2331
18651SOL    HW268013   6.816   7.291   4.991 -0.0123  0.1225 -0.1684
18652SOL     OW68014   5.331   1.673   1.562 -0.5162 -0.3816 -0.0548
18652SOL    HW168015   5.333   1.608   1.486 -1.9825 -0.0602 -0.3943
18652SOL    HW268016   5.374   1.758   1.534 -2.0409  0.1273 -0.9297
18653SOL     OW68017   8.595   7.522   3.806  0.1634 -0.5153  0.5698
18653SOL    HW168018   8.530   7.589   3.772  1.5920 -0.3279 -1.8824
18653SOL    HW268019   8.546   7.445   3.845 -1.4995  0.8264  1.2109
18654SOL     OW68020   7.175   2.495   7.377  0.7482  0.9076 -0.1385
18654SOL    HW168021   7.269   2.468   7.398  0.6028  1.3965  1.2393
18654SOL    HW268022   7.151   2.576   7.432  0.0901  1.8229 -1.7416
18655SOL     OW68023   6.579   4.487   7.826 -0.0409 -0.0125  0.0572
18655SOL    HW168024   6.601   4.457   7.919  2.0381  1.4199  0.0634
18655SOL    HW268025   6.628   4.572   7.806 -0.9435  0.0273 -2.1343
18656SOL     OW68026   5.038   1.362   7.795 -0.4677 -0.0192 -0.1310
18656SOL    HW168027   4.970   1.393   7.728 -1.4143 -1.6335  0.0629
18656SOL    HW268028   5.122   1.336   7.747 -0.0992  1.5924 -0.4088
18657SOL     OW68029   4.439   2.182   4.771 -0.2572 -0.0676  0.0934
18657SOL    HW168030   4.534   2.199   4.744 -0.3300  0.0057 -0.1194
18657SOL    HW268031   4.433   2.097   4.823  0.1277  0.6128  1.2562
18658SOL     OW68032   2.122   8.521   6.953 -0.0554  0.0409 -0.2049
18658SOL    HW168033   2.023   8.529   6.963  0.1286  0.5812  1.3745
18658SOL    HW268034   2.144   8.429   6.919 -1.0673 -0.2357 -0.1466
18659SOL     OW68035   7.700   1.550   0.238 -0.4019  0.3274  0.1859
18659SOL    HW168036   7.683   1.610   0.160 -0.8900  0.3544  0.3100
18659SOL    HW268037   7.722   1.458   0.206  1.8393  0.9252 -0.0452
18660SOL     OW68038   1.258   6.122   2.912 -0.0475 -0.8804 -0.3484
18660SOL    HW168039   1.222   6.176   2.988  1.6883 -1.1135  0.6652
18660SOL    HW268040   1.189   6.114   2.840 -1.6210 -0.4600  1.1059
18661SOL     OW68041   0.912   7.549   7.851  0.4336 -0.0037 -0.4465
18661SOL    HW168042   0.909   7.562   7.752  2.0085 -0.9613 -0.6251
18661SOL    HW268043   0.943   7.634   7.895 -0.6259  0.5416 -0.7307
18662SOL     OW68044   7.924   2.316   4.877  0.3869 -0.3855  0.2805
18662SOL    HW168045   7.863   2.273   4.811  0.2575 -0.2817  0.3315
18662SOL    HW268046   8.018   2.313   4.843  0.3176 -0.3123  0.0831
18663SOL     OW68047   3.162   4.098   1.149 -0.3874  0.3479  0.2840
18663SOL    HW168048   3.210   4.063   1.230 -1.2256  0.1530  0.6967
18663SOL    HW268049   3.076   4.050   1.137 -1.2797  1.8447  0.5176
18664SOL     OW68050   6.596   5.610   5.115 -0.4185 -0.1141 -0.2011
18664SOL    HW168051   6.594   5.556   5.032 -0.0549  1.2065 -1.0856
18664SOL    HW268052   6.641   5.698   5.097  1.0606 -0.4275  1.7373
18665SOL     OW68053   0.481   8.601   8.240  0.1675 -0.3242 -0.7856
18665SOL    HW168054   0.413   8.527   8.236 -0.6738  0.3897  0.1877
18665SOL    HW268055   0.458   8.670   8.171 -0.9366  0.6094  0.4831
18666SOL     OW68056   3.144   3.222   7.126  0.1191  0.1011 -0.1697
18666SOL    HW168057   3.075   3.187   7.063 -0.6880  0.1525  0.6686
18666SOL    HW268058   3.159   3.155   7.199  0.7823  0.1934 -0.2237
18667SOL     OW68059   0.176   3.303   2.381 -0.2824  0.2273  0.0222
18667SOL    HW168060   0.202   3.393   2.415 -0.5316  0.5512 -0.6226
18667SOL    HW268061   0.162   3.308   2.282  0.9822 -0.8249 -0.2175
18668SOL     OW68062   5.085   0.433   7.078  0.4311 -0.2702  0.4462
18668SOL    HW168063   5.091   0.483   7.164  1.4712  0.5285 -0.0732
18668SOL    HW268064   5.070   0.336   7.097 -1.8721  0.2680  1.4441
18669SOL     OW68065   7.709   4.060   9.815 -0.0514  0.4246 -0.5498
18669SOL    HW168066   7.804   4.079   9.840  0.0052  0.5994 -0.8945
18669SOL    HW268067   7.647   4.110   9.876  0.0648 -0.5938  0.3997
18670SOL     OW68068   9.849   0.830   0.275 -0.0826 -0.3360  0.1201
18670SOL    HW168069   9.843   0.731   0.291 -1.4731 -0.5800 -1.6813
18670SOL    HW268070   9.758   0.870   0.282  0.2205  0.5349 -0.8098
18671SOL     OW68071   7.480   5.279   6.989 -0.0996 -0.2905 -0.6105
18671SOL    HW168072   7.407   5.307   6.927  0.5790 -0.8387 -1.6692
18671SOL    HW268073   7.448   5.204   7.047 -0.4809 -0.3265 -0.8688
18672SOL     OW68074   6.813   4.913   9.029  0.0338  0.2155  0.7538
18672SOL    HW168075   6.733   4.889   8.974 -1.4303  0.6363  2.6614
18672SOL    HW268076   6.852   4.830   9.070 -0.2707  0.1692  0.9515
18673SOL     OW68077   9.333   4.254   7.080 -0.2969  0.2236  0.8287
18673SOL    HW168078   9.330   4.154   7.071  0.8701  0.2684 -0.1470
18673SOL    HW268079   9.326   4.279   7.177  0.0823 -0.8297  1.1343
18674SOL     OW68080   6.974   4.239   8.971 -0.2773 -0.0542 -0.1587
18674SOL    HW168081   6.915   4.180   9.025  1.1431 -0.9196  0.4924
18674SOL    HW268082   7.008   4.189   8.892  0.1428  0.2105 -0.1493
18675SOL     OW68083   4.004   1.552   9.664  0.3134  0.1661  0.8290
18675SOL    HW168084   3.905   1.562   9.671 -0.0561 -0.9542 -1.9924
18675SOL    HW268085   4.026   1.485   9.593  3.1239  2.0488 -0.1949
18676SOL     OW68086   0.034   9.585   8.225 -0.2346  0.1587 -0.6329
18676SOL    HW168087   0.020   9.680   8.194  0.4453  0.2088 -0.7948
18676SOL    HW268088  -0.047   9.554   8.275  0.4257  1.5907  1.3794
18677SOL     OW68089   5.532   6.065   8.765 -0.1658 -0.4079  0.6277
18677SOL    HW168090   5.492   6.121   8.837 -1.4842 -2.3220  1.4445
18677SOL    HW268091   5.618   6.024   8.799  0.7996  1.0767  0.0273
18678SOL     OW68092   7.097   6.900   3.708  0.6832  0.1508 -0.0502
18678SOL    HW168093   6.998   6.903   3.697  0.5676  0.0208  0.8858
18678SOL    HW268094   7.130   6.988   3.742  0.8649  0.1472 -0.2166
18679SOL     OW68095   4.969   4.842   9.274 -0.3708  0.0006  0.1743
18679SOL    HW168096   4.918   4.757   9.259 -0.3067 -0.0272  0.1140
18679SOL    HW268097   5.011   4.840   9.364 -1.5647  0.5882  0.7546
18680SOL     OW68098   2.188   7.444   6.707 -0.4349 -0.6271  0.1976
18680SOL    HW168099   2.254   7.378   6.742  1.3287  0.9871 -0.0212
18680SOL    HW268100   2.153   7.412   6.619 -0.0887 -1.5675  0.3882
18681SOL     OW68101   8.110   3.621   5.458 -0.0399  0.0512  0.3808
18681SOL    HW168102   8.151   3.571   5.381 -3.9497 -0.4702 -1.4625
18681SOL    HW268103   8.090   3.715   5.430 -2.7417 -0.5257  0.2661
18682SOL     OW68104   4.851   4.384   2.579  0.3374 -0.2831  0.0145
18682SOL    HW168105   4.808   4.471   2.555  0.7072  0.4046  1.7722
18682SOL    HW268106   4.937   4.375   2.530 -0.7926 -0.7214 -1.9318
18683SOL     OW68107   0.938   8.987   6.982  0.4957 -0.0017 -0.3117
18683SOL    HW168108   0.964   8.914   7.044  1.6442 -0.1307 -0.9443
18683SOL    HW268109   0.928   8.951   6.889 -0.3589  0.3625 -0.3750
18684SOL     OW68110   3.420   5.177   7.228 -0.0190  0.8653  0.9482
18684SOL    HW168111   3.406   5.229   7.143 -1.7913  0.8921  1.2436
18684SOL    HW268112   3.476   5.096   7.208 -1.3616  0.2638 -0.4759
18685SOL     OW68113   5.992   0.164   5.813  0.0635  0.2256  0.2485
18685SOL    HW168114   5.988   0.068   5.784  0.3104  0.0982  0.6257
18685SOL    HW268115   6.010   0.222   5.734 -1.2125  0.0710 -0.1592
18686SOL     OW68116   5.715   7.386   4.491  0.1047 -0.7136  0.4902
18686SOL    HW168117   5.628   7.347   4.460  1.7410 -2.9726 -1.4841
18686SOL    HW268118   5.725   7.478   4.454 -1.5270 -0.3480  0.9143
18687SOL     OW68119   3.952   6.484   1.444 -0.4099 -0.8096 -0.6001
18687SOL    HW168120   3.947   6.384   1.441  1.5894 -0.9230 -0.9805
18687SOL    HW268121   3.934   6.521   1.352  0.6322 -0.9337 -0.8629
18688SOL     OW68122   7.938   2.206   6.940 -0.0348 -0.2071 -0.4163
18688SOL    HW168123   7.985   2.221   6.853  0.4873 -2.9566 -0.6532
18688SOL    HW268124   7.839   2.201   6.924  0.0167 -0.1546 -0.7564
18689SOL     OW68125   5.146   6.822   8.549 -0.9971 -0.7854  0.1121
18689SOL    HW168126   5.086   6.891   8.591 -0.6892  1.2521 -2.6135
18689SOL    HW268127   5.159   6.746   8.612 -0.8594  1.9306  3.5146
18690SOL     OW68128   4.745   3.415   9.228 -0.3879 -0.8736 -0.0989
18690SOL    HW168129   4.813   3.345   9.251  0.2491 -0.3572 -0.3887
18690SOL    HW268130   4.734   3.478   9.305 -1.0672 -1.3736  0.2170
18691SOL     OW68131   6.673   2.765   7.547  0.2781  0.1028 -0.6050
18691SOL    HW168132   6.581   2.729   7.561  0.2952  0.2132 -0.1968
18691SOL    HW268133   6.673   2.864   7.560 -0.0304  0.4494 -3.0085
18692SOL     OW68134   7.082   5.784   8.235  0.5521 -0.0615  0.1534
18692SOL    HW168135   7.174   5.748   8.244  0.7104  0.5611  1.0952
18692SOL    HW268136   7.017   5.719   8.274  0.7840  0.4075  1.3301
18693SOL     OW68137   8.107   5.571   9.115 -0.1013 -0.6017 -0.0966
18693SOL    HW168138   8.133   5.536   9.025 -2.3096 -1.0126 -0.6123
18693SOL    HW268139   8.178   5.547   9.181  0.9440 -1.4337 -1.4731
18694SOL     OW68140   4.659   5.947   9.962  0.2946 -0.1102 -0.4095
18694SOL    HW168141   4.692   5.929  10.055 -1.2524  0.1803  0.2146
18694SOL    HW268142   4.615   6.036   9.958 -0.5253 -0.5372 -1.1852
18695SOL     OW68143   6.030   8.777   1.656 -0.2611 -0.1259  0.2791
18695SOL    HW168144   5.944   8.787   1.706 -0.8637  0.0458 -0.7940
18695SOL    HW268145   6.103   8.753   1.721 -1.0985 -0.2293  1.1962
18696SOL     OW68146   3.130   4.899   3.745  0.5090 -0.0867  0.0945
18696SOL    HW168147   3.220   4.941   3.730  1.0087 -1.7863 -1.9488
18696SOL    HW268148   3.140   4.800   3.750 -1.1753 -0.2526  0.4701
18697SOL     OW68149   6.334   7.752   1.964 -0.3045  0.6531 -0.4565
18697SOL    HW168150   6.271   7.729   2.038 -0.2893  1.5890 -0.1463
18697SOL    HW268151   6.282   7.764   1.879 -0.1275 -2.3081 -1.0567
18698SOL     OW68152   2.194   2.547   0.371  0.4466 -0.1339  0.5110
18698SOL    HW168153   2.250   2.475   0.412  1.0067 -0.1762 -0.3076
18698SOL    HW268154   2.193   2.535   0.272 -0.5650  0.1998  0.4790
18699SOL     OW68155   1.211   4.171   9.047  0.2341  0.4404  0.0406
18699SOL    HW168156   1.293   4.184   9.103 -0.1720  0.0250  0.7507
18699SOL    HW268157   1.220   4.088   8.993  0.1883  0.2805  0.2809
18700SOL     OW68158   7.612   5.188   0.407  0.0549  0.2330 -0.1087
18700SOL    HW168159   7.641   5.217   0.499 -0.5788 -0.6798  0.3893
18700SOL    HW268160   7.553   5.108   0.415  0.6241 -0.3254 -1.3644
18701SOL     OW68161   7.082   3.502   5.572  0.9463  0.4660  0.5812
18701SOL    HW168162   7.094   3.434   5.644  1.3484 -0.1916 -0.0888
18701SOL    HW268163   7.012   3.568   5.599  0.1463 -0.5396  1.0025
18702SOL     OW68164   9.597   4.621   7.007  0.5594  0.2607  0.5152
18702SOL    HW168165   9.542   4.548   6.968  0.8807  0.1150  0.3271
18702SOL    HW268166   9.544   4.672   7.074  1.1013 -1.7451  2.5357
18703SOL     OW68167   6.782   3.533   6.489 -0.0298 -0.1598  0.4065
18703SOL    HW168168   6.727   3.455   6.460  1.3393 -0.4257 -1.5397
18703SOL    HW268169   6.837   3.507   6.568 -1.3486 -0.4062  1.2757
18704SOL     OW68170   9.621   7.607   8.381  0.0533  0.1792 -0.1263
18704SOL    HW168171   9.631   7.513   8.415 -1.0706 -0.3218 -1.1662
18704SOL    HW268172   9.556   7.656   8.439  0.3908  0.2252  0.2180
18705SOL     OW68173   6.653   5.435   0.489  0.2699 -0.0592  0.4533
18705SOL    HW168174   6.747   5.433   0.454  0.1633  1.3153  0.0652
18705SOL    HW268175   6.635   5.523   0.532 -0.4401 -0.7947  1.6943
18706SOL     OW68176   5.692   6.208   7.515  0.0856 -0.1127  0.1651
18706SOL    HW168177   5.634   6.178   7.591  0.6697 -0.1734  0.5943
18706SOL    HW268178   5.776   6.154   7.514  0.0620 -0.1478 -0.5617
18707SOL     OW68179   7.049   4.902   2.838  0.1690  0.7258 -0.0331
18707SOL    HW168180   7.148   4.914   2.840  0.1105  2.0145 -2.6312
18707SOL    HW268181   7.005   4.985   2.872 -0.0224 -0.1433  1.8677
18708SOL     OW68182   8.394   7.144   9.639  0.1315 -0.1577  0.3511
18708SOL    HW168183   8.387   7.123   9.737  1.0847 -1.1150  0.2246
18708SOL    HW268184   8.394   7.059   9.587 -1.8888  0.3933 -0.6011
18709SOL     OW68185   1.331   3.236   8.184 -0.6025 -0.5044 -0.2220
18709SOL    HW168186   1.402   3.303   8.162 -1.4494  0.1629 -0.9666
18709SOL    HW268187   1.371   3.160   8.235  0.1173  1.2215  1.8472
18710SOL     OW68188   4.727   5.931   3.677  0.2663  0.8738  0.3502
18710SOL    HW168189   4.701   6.023   3.650 -1.1514  0.1996 -0.6425
18710SOL    HW268190   4.713   5.868   3.600 -1.2997 -0.6299  1.8247
18711SOL     OW68191   7.699   7.506   7.959 -0.4738  0.3777 -0.2401
18711SOL    HW168192   7.781   7.526   8.012 -0.7742 -2.9192  1.5988
18711SOL    HW268193   7.725   7.460   7.874 -0.2802  1.2290 -0.6383
18712SOL     OW68194   7.000   2.741   8.013  0.2969 -0.0479  0.1142
18712SOL    HW168195   6.917   2.692   7.988 -0.3491  1.0617  0.0333
18712SOL    HW268196   7.080   2.684   7.995 -0.5418 -1.9205  2.1263
18713SOL     OW68197   3.925   5.107   3.046 -0.5014 -0.0387 -0.2794
18713SOL    HW168198   3.954   5.199   3.017 -2.2931  0.7228  0.2486
18713SOL    HW268199   3.960   5.089   3.137 -0.4055  0.2676 -0.2537
18714SOL     OW68200   3.384   2.571   3.619 -0.0853  0.3357  0.1458
18714SOL    HW168201   3.415   2.480   3.649  1.3725 -0.2568 -2.9169
18714SOL    HW268202   3.370   2.629   3.699  2.6084 -1.4281  2.0163
18715SOL     OW68203   4.697   3.397   6.779 -0.1088  0.3659 -0.0275
18715SOL    HW168204   4.627   3.362   6.841 -0.9272 -2.0256 -2.2117
18715SOL    HW268205   4.770   3.328   6.770  0.4546  1.0833 -1.0163
18716SOL     OW68206   6.702   9.784   0.353 -0.1131  0.2295  0.0947
18716SOL    HW168207   6.607   9.792   0.324 -0.3267 -0.9446  0.4615
18716SOL    HW268208   6.706   9.775   0.453  0.3346 -0.4482  0.0168
18717SOL     OW68209   0.655   3.546   9.749  0.4783 -0.6197 -0.4909
18717SOL    HW168210   0.710   3.485   9.692 -0.5393 -0.5107 -1.6136
18717SOL    HW268211   0.597   3.603   9.690  0.9642  0.9892  0.5700
18718SOL     OW68212   8.346   4.902   2.825  0.0523 -0.1172  0.2416
18718SOL    HW168213   8.414   4.974   2.814  2.6041 -2.4447  0.0116
18718SOL    HW268214   8.347   4.869   2.920 -2.9499  1.8491  1.0228
18719SOL     OW68215   8.044   7.039   5.959 -0.3133  0.3638 -0.9615
18719SOL    HW168216   8.130   7.083   5.933  1.1174 -1.0660  1.2393
18719SOL    HW268217   8.035   6.952   5.909  0.3121 -0.2576 -0.0099
18720SOL     OW68218   8.471   6.077   8.078 -0.2233 -0.2231 -0.3621
18720SOL    HW168219   8.514   6.070   8.168 -0.7429 -0.6284 -0.1379
18720SOL    HW268220   8.388   6.022   8.077  1.4205 -2.8041 -2.0750
18721SOL     OW68221   8.539   5.726   8.672 -0.1220 -0.5418  0.3477
18721SOL    HW168222   8.586   5.716   8.584 -1.1095 -1.1387 -0.1230
18721SOL    HW268223   8.577   5.804   8.722  1.6327 -1.2456  0.1560
18722SOL     OW68224   6.133   7.565   5.852 -0.1444 -0.0338  1.0874
18722SOL    HW168225   6.197   7.590   5.780 -0.9332  0.3601  0.5138
18722SOL    HW268226   6.175   7.498   5.912  0.0960 -1.2915 -0.4479
18723SOL     OW68227   5.505   5.607   2.298 -0.0119  0.4309  0.6076
18723SOL    HW168228   5.478   5.601   2.202  0.0322  1.6241  0.5053
18723SOL    HW268229   5.590   5.556   2.312  0.8284  1.5433 -0.3374
18724SOL     OW68230   6.288   3.656   6.817  0.5667 -0.1747  0.1998
18724SOL    HW168231   6.218   3.635   6.748  0.5467  0.4972  0.0112
18724SOL    HW268232   6.300   3.755   6.823 -0.8219 -0.0852  2.5264
18725SOL     OW68233   3.929   4.705   8.263  0.2094 -0.5446 -0.6499
18725SOL    HW168234   3.929   4.663   8.173 -0.0338 -3.1887  0.5377
18725SOL    HW268235   3.837   4.701   8.302  0.4157  0.1222 -0.0785
18726SOL     OW68236   7.891   5.736   2.956 -0.3667  0.2208 -0.0446
18726SOL    HW168237   7.920   5.815   3.010 -1.9988 -0.7044  2.2855
18726SOL    HW268238   7.857   5.767   2.868 -1.2943  2.1853  0.9599
18727SOL     OW68239   4.087   2.889   9.861 -0.5638  0.0857  0.7584
18727SOL    HW168240   4.104   2.962   9.795 -3.0049 -0.5891 -0.6974
18727SOL    HW268241   4.073   2.929   9.952  1.1106  1.1546  0.5773
18728SOL     OW68242   6.083   7.252   5.664  0.1465 -0.3367  0.3661
18728SOL    HW168243   6.088   7.171   5.723 -2.2558 -0.5927  0.2556
18728SOL    HW268244   6.040   7.327   5.713  0.6754  0.3051 -0.1443
18729SOL     OW68245   5.683   8.254   3.708  0.3093  0.2653 -0.3762
18729SOL    HW168246   5.676   8.164   3.752  1.0931  0.1213 -0.5303
18729SOL    HW268247   5.660   8.245   3.611 -3.3620  0.9454  0.3596
18730SOL     OW68248   8.407   3.278   4.189  0.1572  0.1848  0.3985
18730SOL    HW168249   8.376   3.242   4.101  1.4148 -0.4010  0.1851
18730SOL    HW268250   8.461   3.209   4.237 -0.8341  0.3648  1.8163
18731SOL     OW68251   5.755   5.383   3.926 -0.1049  0.0433 -0.8613
18731SOL    HW168252   5.850   5.417   3.924 -0.7292  1.9409  0.1816
18731SOL    HW268253   5.699   5.447   3.979 -1.5586 -2.1330  0.2760
18732SOL     OW68254   1.829   0.945   5.444  0.0891  0.0797  0.6656
18732SOL    HW168255   1.874   0.923   5.531  0.1730 -2.0101  0.1184
18732SOL    HW268256   1.896   0.942   5.370  0.2654  3.0182  0.6348
18733SOL     OW68257   8.621   3.084   7.882 -0.2164  0.0395  0.3463
18733SOL    HW168258   8.611   3.170   7.931 -0.7682 -0.0253  0.3530
18733SOL    HW268259   8.561   3.084   7.802  0.8119  0.2192 -0.4330
18734SOL     OW68260   4.788   3.532   8.998  0.1223 -0.2032  0.2574
18734SOL    HW168261   4.765   3.484   9.082 -0.3496  0.7742  0.6883
18734SOL    HW268262   4.742   3.621   8.995 -0.8337 -0.7263 -1.5951
18735SOL     OW68263   8.467   2.893   9.567 -0.3951 -0.1205  0.0501
18735SOL    HW168264   8.423   2.943   9.642  0.6334 -0.3160  0.7951
18735SOL    HW268265   8.554   2.856   9.599 -0.8899 -1.9394 -0.6505
18736SOL     OW68266   8.010   5.652   5.355 -0.0663 -0.4224  0.0303
18736SOL    HW168267   8.005   5.619   5.450 -2.9998 -0.0497  0.0268
18736SOL    HW268268   8.019   5.573   5.294 -1.3743 -0.8899  0.4170
18737SOL     OW68269   5.963   6.493   4.710 -0.1856  0.1303  0.3747
18737SOL    HW168270   5.959   6.445   4.798  0.8631  0.1320  0.4271
18737SOL    HW268271   5.882   6.551   4.701 -0.5271 -0.2104  1.1374
18738SOL     OW68272   8.318   0.591   6.648  0.3078  0.0133  0.5038
18738SOL    HW168273   8.244   0.541   6.692  0.3656  0.2473  0.8742
18738SOL    HW268274   8.327   0.681   6.691 -1.1771  1.1789 -1.5135
18739SOL     OW68275   6.287   6.093   0.213  0.4979  0.2817 -0.0884
18739SOL    HW168276   6.301   6.168   0.277  0.6998  0.9835 -0.9524
18739SOL    HW268277   6.325   6.009   0.252  1.6081  0.9282  0.2234
18740SOL     OW68278   0.147   7.310   7.491  0.3791 -0.0729  0.0204
18740SOL    HW168279   0.066   7.314   7.548 -0.6356 -0.2805 -1.3827
18740SOL    HW268280   0.145   7.227   7.435  1.6687 -0.1988  0.1277
18741SOL     OW68281   4.609   1.215   6.449 -0.1283  0.2127  0.1190
18741SOL    HW168282   4.650   1.281   6.512 -0.8602  0.4079  0.4027
18741SOL    HW268283   4.639   1.123   6.472  0.0220  0.3373  0.4212
18742SOL     OW68284   8.106   6.228   8.713  0.5588 -0.1212 -0.1635
18742SOL    HW168285   8.106   6.135   8.678 -0.8669 -0.5080  0.8385
18742SOL    HW268286   8.137   6.291   8.641  2.6544 -1.4740 -0.4915
18743SOL     OW68287   1.725   8.151   9.214  0.1060  0.1631  0.0994
18743SOL    HW168288   1.637   8.189   9.186  0.1539  0.1074 -0.1330
18743SOL    HW268289   1.715   8.099   9.298 -0.1406 -0.1012 -0.0950
18744SOL     OW68290   8.173   0.682   0.323  0.1050 -0.4075 -0.5906
18744SOL    HW168291   8.178   0.653   0.418 -0.8214  0.2764 -0.3216
18744SOL    HW268292   8.265   0.683   0.284  0.6990  0.8582  0.7761
18745SOL     OW68293   4.744   3.244   0.005  0.0435 -0.0997 -0.1794
18745SOL    HW168294   4.713   3.318  -0.055 -1.2249  0.0256  0.6048
18745SOL    HW268295   4.666   3.210   0.058  0.9241 -0.9807  0.5593
18746SOL     OW68296   7.472   2.496   1.767  0.0796 -0.2471 -0.2408
18746SOL    HW168297   7.374   2.474   1.760 -0.4576  2.3451 -1.6652
18746SOL    HW268298   7.499   2.501   1.863 -1.4415 -0.0252  0.1874
18747SOL     OW68299   0.900   5.815   7.489  0.1590 -0.9494  0.0013
18747SOL    HW168300   0.836   5.870   7.436 -0.3940 -1.7478 -0.1632
18747SOL    HW268301   0.883   5.718   7.472  2.8740 -1.1837 -1.8356
18748SOL     OW68302   3.426   2.938   7.474  0.2847 -0.1293 -0.0063
18748SOL    HW168303   3.487   2.916   7.398  0.9679 -0.9453  0.7705
18748SOL    HW268304   3.480   2.974   7.551 -0.4743  1.3497 -0.1501
18749SOL     OW68305   8.855   3.933   6.077  0.0440  0.0771  0.0147
18749SOL    HW168306   8.757   3.942   6.057  0.3262  3.4448 -0.0468
18749SOL    HW268307   8.908   3.950   5.995  0.7346 -0.4725  0.3417
18750SOL     OW68308   8.166   2.366   4.002  0.0201  0.2765  0.2772
18750SOL    HW168309   8.140   2.366   3.906  0.2567  0.6024  0.2124
18750SOL    HW268310   8.239   2.299   4.017  0.4860  0.7465  0.0935
18751SOL     OW68311   1.221   5.544   9.038 -0.3086  0.1500  0.0539
18751SOL    HW168312   1.235   5.623   9.098 -2.3532  0.4691  0.1615
18751SOL    HW268313   1.306   5.491   9.031  0.1306  0.3932  2.8311
18752SOL     OW68314   5.039   2.535   1.652 -0.2564 -0.5855 -0.0949
18752SOL    HW168315   5.046   2.503   1.558 -0.2162 -0.8046 -0.0175
18752SOL    HW268316   5.026   2.457   1.713  1.4823 -0.6060  0.2706
18753SOL     OW68317   7.749   3.156   7.630  0.0160  0.1554  0.0763
18753SOL    HW168318   7.688   3.081   7.653  1.1741 -0.7349  0.2541
18753SOL    HW268319   7.838   3.142   7.673  0.3986  1.3675 -0.2941
18754SOL     OW68320   2.360   7.197   8.136 -0.2820 -0.1804 -0.4680
18754SOL    HW168321   2.457   7.217   8.150 -0.1587 -1.4371  0.5562
18754SOL    HW268322   2.350   7.105   8.096 -1.0650 -0.2113 -0.2114
18755SOL     OW68323   6.438   2.662   6.996  0.0964  0.1405  0.1655
18755SOL    HW168324   6.464   2.574   7.037 -0.3570 -0.1851 -0.2422
18755SOL    HW268325   6.339   2.675   7.004 -0.1582 -0.4325 -1.7857
18756SOL     OW68326   9.960   6.846   0.049  0.1519  0.1970  0.1784
18756SOL    HW168327   9.884   6.908   0.073  1.1928  1.5409  0.0383
18756SOL    HW268328  10.032   6.898   0.003  1.0492 -1.1289  0.0720
18757SOL     OW68329   2.117   8.644   9.933 -0.1941 -0.3455  0.1329
18757SOL    HW168330   2.182   8.688   9.996  0.0461  1.8806 -1.6016
18757SOL    HW268331   2.025   8.681   9.950 -0.4946 -1.2508  0.5225
18758SOL     OW68332   5.134   5.314   1.536  0.0017 -0.4822 -0.4185
18758SOL    HW168333   5.057   5.253   1.556  0.9931 -1.1615  1.4602
18758SOL    HW268334   5.143   5.382   1.608  0.9548 -0.1899 -0.7955
18759SOL     OW68335   1.254   6.304   8.037  0.9286  0.3358 -0.6100
18759SOL    HW168336   1.225   6.247   8.114 -1.5596 -0.0220 -1.7805
18759SOL    HW268337   1.211   6.394   8.043 -1.0923 -0.4433 -2.7402
18760SOL     OW68338   6.868   1.126   1.719  0.1043 -0.8406  0.3752
18760SOL    HW168339   6.913   1.213   1.737  1.4656 -1.5183  0.3531
18760SOL    HW268340   6.932   1.051   1.737 -0.7531 -1.7973 -0.4723
18761SOL     OW68341   5.578   4.930   9.077 -0.5454  0.5020  0.5053
18761SOL    HW168342   5.630   4.930   8.991  0.1720  1.9174  0.9329
18761SOL    HW268343   5.614   4.860   9.138  0.5205  1.1100  0.5850
18762SOL     OW68344   9.289   3.682   2.452 -0.2845  0.5795  0.4558
18762SOL    HW168345   9.229   3.761   2.459  0.0134  0.7504  1.1600
18762SOL    HW268346   9.354   3.683   2.528  1.6427  1.2552 -1.1670
18763SOL     OW68347   8.586   9.947   7.519  0.5567  0.0119  0.5127
18763SOL    HW168348   8.623   9.889   7.447 -0.0637  0.4540 -0.1713
18763SOL    HW268349   8.493   9.975   7.494 -0.5027 -1.5962  2.4625
18764SOL     OW68350   8.180   6.342   6.468  0.2179  0.0557 -0.0134
18764SOL    HW168351   8.143   6.303   6.384 -1.8298 -0.4888  1.1054
18764SOL    HW268352   8.149   6.436   6.477  0.8628  0.2798 -0.1217
18765SOL     OW68353   6.130   7.357   7.038  0.6304  0.3314 -0.4577
18765SOL    HW168354   6.105   7.424   6.968 -1.0681 -1.0829 -1.2554
18765SOL    HW268355   6.188   7.287   6.998  0.5449  0.1078 -0.1967
18766SOL     OW68356   1.539   7.267   7.873  0.1039 -0.1277  0.3714
18766SOL    HW168357   1.583   7.177   7.863  0.1282 -0.1158  0.3753
18766SOL    HW268358   1.440   7.257   7.861 -0.3181 -0.7487  3.9548
18767SOL     OW68359   4.297   7.521   9.045 -0.0276  0.0891 -0.5331
18767SOL    HW168360   4.286   7.599   8.984  0.0350  0.5196 -0.0010
18767SOL    HW268361   4.307   7.554   9.139  1.4181 -0.4942 -0.4751
18768SOL     OW68362   3.859   1.757   4.531  0.5020 -0.6544  0.7783
18768SOL    HW168363   3.924   1.814   4.581  0.9424  0.2469 -0.8008
18768SOL    HW268364   3.773   1.752   4.582  0.0896  2.2672  0.4512
18769SOL     OW68365   4.565   2.749   9.473 -0.4951 -0.6190 -0.2434
18769SOL    HW168366   4.654   2.731   9.432 -0.1172 -0.0693  0.3394
18769SOL    HW268367   4.543   2.846   9.464 -0.0361 -0.3361  1.6159
18770SOL     OW68368   8.171   2.302   7.818  0.6103  0.2588  0.6602
18770SOL    HW168369   8.242   2.237   7.844 -0.1560 -0.5175  0.8374
18770SOL    HW268370   8.173   2.317   7.720 -0.0448 -1.0277  0.4442
18771SOL     OW68371   8.586   8.865   9.729 -0.9731 -0.6451 -0.1989
18771SOL    HW168372   8.682   8.835   9.721 -0.4127  1.5295 -2.0955
18771SOL    HW268373   8.561   8.869   9.826  1.2950  0.0812  0.3946
18772SOL     OW68374   2.674   8.494   0.153 -0.0214  0.1641  0.3950
18772SOL    HW168375   2.755   8.460   0.105 -0.3372 -1.2642  0.8488
18772SOL    HW268376   2.697   8.507   0.250 -0.0186  0.8569  0.3020
18773SOL     OW68377   6.676   5.896   0.463  0.6880 -0.2937  0.1988
18773SOL    HW168378   6.706   5.865   0.373  3.3314 -0.6536  1.1451
18773SOL    HW268379   6.678   5.995   0.467  2.0673 -0.3167  0.3150
18774SOL     OW68380   4.670   0.986   7.223 -0.0263 -0.7479 -0.2073
18774SOL    HW168381   4.615   1.066   7.249 -2.3059 -2.4156  0.2312
18774SOL    HW268382   4.756   1.017   7.183  1.4437  1.9728  4.6018
18775SOL     OW68383   4.373   2.416   6.866  0.3034  0.1531  0.2309
18775SOL    HW168384   4.472   2.401   6.867  0.3227  0.2787  0.2290
18775SOL    HW268385   4.333   2.376   6.784  0.5456  1.3134 -0.4557
18776SOL     OW68386   2.231   6.652   1.652 -0.5909  0.1120 -0.3430
18776SOL    HW168387   2.330   6.643   1.664 -0.8417 -2.5236  0.1700
18776SOL    HW268388   2.195   6.571   1.605 -2.7153  0.2556  0.9360
18777SOL     OW68389   5.641   8.588   6.280 -0.4437 -0.0181  0.0762
18777SOL    HW168390   5.644   8.684   6.306 -3.2025  0.9270 -2.8005
18777SOL    HW268391   5.735   8.556   6.262  0.4572  2.3044  0.4509
18778SOL     OW68392   5.526   7.354   5.513 -0.1994 -0.2549 -0.2000
18778SOL    HW168393   5.619   7.317   5.503 -0.1114  0.2817 -1.5899
18778SOL    HW268394   5.460   7.285   5.484 -0.3673 -1.3759  2.7432
18779SOL     OW68395   6.768   8.206   2.696  0.1104  0.3486  0.5225
18779SOL    HW168396   6.845   8.265   2.672 -0.2506  1.0006  0.9511
18779SOL    HW268397   6.715   8.186   2.614  0.2307  0.6237  0.3787
18780SOL     OW68398   6.220   3.548   8.925 -0.5584 -0.2303  0.2603
18780SOL    HW168399   6.142   3.581   8.977 -1.4470 -2.3004  0.2870
18780SOL    HW268400   6.241   3.613   8.852 -1.0384  1.3174  1.4699
18781SOL     OW68401   0.746   4.884   6.466  0.3221  0.1245 -0.2863
18781SOL    HW168402   0.760   4.785   6.469 -0.0963  0.0713 -0.0656
18781SOL    HW268403   0.653   4.906   6.497  0.5639  0.6214  0.0928
18782SOL     OW68404   9.790   9.533   8.326  0.2874  0.1200  0.2917
18782SOL    HW168405   9.749   9.458   8.273 -2.6111  2.1515 -0.4893
18782SOL    HW268406   9.723   9.607   8.336  1.2437  0.4551  5.6105
18783SOL     OW68407   4.935   0.229   5.836 -0.2799 -0.3044  0.0464
18783SOL    HW168408   4.858   0.229   5.900 -0.1157 -1.7668  0.2798
18783SOL    HW268409   4.907   0.188   5.750 -0.0373  0.1013 -0.2268
18784SOL     OW68410   8.540   4.741   6.840 -0.3827  0.0596 -0.3264
18784SOL    HW168411   8.510   4.833   6.816 -0.6075  0.0454 -0.1045
18784SOL    HW268412   8.477   4.702   6.907 -0.7312 -0.5583 -1.0089
18785SOL     OW68413   6.210   4.841   6.332  0.3064 -0.2409  0.2856
18785SOL    HW168414   6.116   4.846   6.298 -0.1967  0.3912  1.7109
18785SOL    HW268415   6.272   4.887   6.269 -0.3939 -0.3720 -0.4934
18786SOL     OW68416   9.497   8.164   7.487 -0.3290 -0.0513 -0.3708
18786SOL    HW168417   9.519   8.222   7.408  0.0432 -0.4248 -0.5401
18786SOL    HW268418   9.566   8.178   7.558  0.0961 -0.7388 -0.6476
18787SOL     OW68419   2.599   9.515   9.462  0.5392 -0.1860 -0.0647
18787SOL    HW168420   2.601   9.548   9.368 -1.4922  0.0490 -0.0450
18787SOL    HW268421   2.684   9.466   9.482  1.4718  0.7425 -1.6477
18788SOL     OW68422   9.478   6.551   7.607  0.7537  0.2870 -0.2141
18788SOL    HW168423   9.429   6.473   7.568 -0.2767  0.4690  0.6794
18788SOL    HW268424   9.413   6.624   7.627  1.4855  0.7609  0.4451
18789SOL     OW68425   4.059   6.155   6.460  0.0225 -0.1211 -0.0957
18789SOL    HW168426   4.024   6.212   6.535 -1.1315 -0.6379 -0.2248
18789SOL    HW268427   4.144   6.194   6.425  1.0571 -0.3419  2.0696
18790SOL     OW68428   4.284   4.459   0.433  0.3380  0.2669 -0.6066
18790SOL    HW168429   4.372   4.432   0.472  0.4817 -1.0161 -1.7956
18790SOL    HW268430   4.236   4.517   0.499  1.1950 -0.6827  0.9054
18791SOL     OW68431   0.028   2.822   8.295 -0.7710 -0.4010 -0.0096
18791SOL    HW168432  -0.010   2.747   8.349 -0.3562 -0.3553  0.3474
18791SOL    HW268433  -0.023   2.831   8.209 -0.4958 -1.4163 -0.2822
18792SOL     OW68434   7.196   5.686   8.718  0.2550  0.1629  0.4336
18792SOL    HW168435   7.218   5.655   8.625  1.5525  1.4990  0.2816
18792SOL    HW268436   7.124   5.756   8.712 -2.4728 -2.5144  0.7555
18793SOL     OW68437   6.835   3.481   3.429  0.1986  0.0288  0.8090
18793SOL    HW168438   6.923   3.440   3.406 -0.1170 -0.4704  0.4820
18793SOL    HW268439   6.787   3.421   3.493 -0.5961 -0.4963 -0.2657
18794SOL     OW68440   6.807   4.690   7.733 -0.4405  0.0539 -0.0744
18794SOL    HW168441   6.756   4.758   7.786 -0.0558  0.5195 -0.2929
18794SOL    HW268442   6.791   4.706   7.635  0.2448  0.2999 -0.1472
18795SOL     OW68443   3.826   2.074   5.462 -0.0100  0.2675  0.6097
18795SOL    HW168444   3.840   2.065   5.561  0.7304  0.6350  0.5424
18795SOL    HW268445   3.733   2.105   5.445 -0.7336 -1.5766  1.0951
18796SOL     OW68446   7.091   8.139   9.424 -0.1578 -0.7855 -0.1217
18796SOL    HW168447   7.020   8.070   9.434  0.0509 -1.1577 -1.1585
18796SOL    HW268448   7.155   8.111   9.352  1.7166 -1.0499  1.6002
18797SOL     OW68449   0.580   4.156   8.385  0.0795  0.4434  0.2838
18797SOL    HW168450   0.673   4.147   8.349  0.7758 -0.6287  2.2598
18797SOL    HW268451   0.557   4.253   8.395  0.0004  0.7689 -2.5979
18798SOL     OW68452   5.592   1.071   8.408 -0.1223  0.4225  0.1374
18798SOL    HW168453   5.610   1.047   8.313  0.3641 -3.3252  1.1287
18798SOL    HW268454   5.515   1.135   8.412 -3.0338 -2.7295 -2.5217
18799SOL     OW68455   9.117   8.432   0.195 -0.0554  0.1175 -0.1279
18799SOL    HW168456   9.188   8.362   0.194  0.7472  0.9126 -0.4126
18799SOL    HW268457   9.155   8.516   0.234 -1.2093  0.1845  0.8794
18800SOL     OW68458   8.425   5.100   0.143  0.2110 -0.2392  0.1207
18800SOL    HW168459   8.367   5.020   0.159  1.0428 -0.7200  0.8085
18800SOL    HW268460   8.516   5.070   0.113  0.5337  0.4363  0.4053
18801SOL     OW68461   0.345   8.207   2.844 -0.1887 -0.0622 -0.0963
18801SOL    HW168462   0.281   8.220   2.768 -0.5912  0.3018  0.3035
18801SOL    HW268463   0.303   8.150   2.914  0.1153 -0.2487 -0.0683
18802SOL     OW68464   9.797   5.497   0.840  0.3747 -0.1421 -0.1408
18802SOL    HW168465   9.855   5.556   0.784 -0.0541 -0.8016 -1.3233
18802SOL    HW268466   9.703   5.531   0.838  0.4802  0.2015  0.7187
18803SOL     OW68467   5.174   2.566   8.948  0.1299 -0.3781 -0.1987
18803SOL    HW168468   5.101   2.505   8.916 -1.2594  1.3869 -0.5125
18803SOL    HW268469   5.229   2.596   8.870 -1.1766  1.2745 -0.5056
18804SOL     OW68470   7.015   5.349   1.875 -0.6076 -0.5068  0.3755
18804SOL    HW168471   7.098   5.404   1.886 -0.4198 -1.2010  2.7510
18804SOL    HW268472   7.030   5.279   1.806  0.6707 -0.4027  0.5317
18805SOL     OW68473   8.715   0.530   1.444 -0.9871  0.0054 -0.3532
18805SOL    HW168474   8.790   0.554   1.383  1.3505 -2.9413  1.1892
18805SOL    HW268475   8.707   0.598   1.517  1.7205 -0.7524  0.7196
18806SOL     OW68476   8.525   2.596   9.655 -0.3418  0.2477  0.2792
18806SOL    HW168477   8.440   2.632   9.694 -0.0837  0.3554  0.7408
18806SOL    HW268478   8.602   2.622   9.713  0.1158  0.9172 -0.6117
18807SOL     OW68479   5.381   2.762   0.023  0.5269 -0.5155  0.3603
18807SOL    HW168480   5.392   2.687  -0.042  4.2380  0.4557 -0.2055
18807SOL    HW268481   5.336   2.839  -0.022 -1.0508 -1.4692  0.2677
18808SOL     OW68482   5.905   8.231   0.253 -0.9051  0.1274  0.3138
18808SOL    HW168483   5.832   8.271   0.310  0.1695  0.8416  1.2116
18808SOL    HW268484   5.968   8.303   0.225 -0.1129 -0.6139  0.1910
18809SOL     OW68485   4.751   3.549   7.768 -0.6229  0.0552 -0.2148
18809SOL    HW168486   4.827   3.515   7.823 -1.4686 -1.0490  0.2882
18809SOL    HW268487   4.672   3.566   7.827 -1.3048 -0.4530 -0.9671
18810SOL     OW68488   3.246   2.791   1.336 -0.5846 -0.0840  0.3347
18810SOL    HW168489   3.270   2.706   1.290 -0.6499 -0.0666  0.2681
18810SOL    HW268490   3.205   2.770   1.425  2.7567 -0.0526  1.9540
18811SOL     OW68491   2.735   3.413   5.441 -0.0167  0.3456 -0.1667
18811SOL    HW168492   2.703   3.372   5.355  2.4567 -1.2422 -0.3721
18811SOL    HW268493   2.739   3.512   5.431 -0.8792  0.2601 -1.4963
18812SOL     OW68494   4.553   4.684   4.723  0.0749 -0.4682 -0.2462
18812SOL    HW168495   4.614   4.614   4.686  1.9319  0.6097  0.7060
18812SOL    HW268496   4.548   4.761   4.660  0.2268 -0.2751 -0.0253
18813SOL     OW68497   8.261   6.289   9.153  0.6623 -0.0453  0.2232
18813SOL    HW168498   8.233   6.218   9.088  1.5524 -0.5549  0.3902
18813SOL    HW268499   8.225   6.267   9.244 -1.7761  1.3966 -0.3438
18814SOL     OW68500   7.778   3.938   3.467 -0.2218 -0.3295  0.1058
18814SOL    HW168501   7.781   3.908   3.371 -2.7418  1.0211 -0.4568
18814SOL    HW268502   7.755   3.861   3.526 -0.5290 -0.7783 -0.5966
18815SOL     OW68503   4.988   3.898   6.569  0.3538  0.0169  0.1173
18815SOL    HW168504   4.897   3.937   6.579  0.2857  0.0864 -0.7413
18815SOL    HW268505   4.990   3.836   6.490  1.6820  1.8818 -1.3581
18816SOL     OW68506   1.754   2.452   0.968  0.3011 -0.2787  0.0482
18816SOL    HW168507   1.814   2.400   0.907 -1.4746  0.1704 -2.1287
18816SOL    HW268508   1.797   2.540   0.989  1.3710 -0.8373  0.2726
18817SOL     OW68509   2.337   6.973   8.002 -0.0683 -0.7221 -0.2877
18817SOL    HW168510   2.280   6.928   7.934  0.6499 -0.6881 -0.9302
18817SOL    HW268511   2.360   6.909   8.075  1.2474 -1.5110 -1.3823
18818SOL     OW68512   5.820   5.012   5.209  0.3783  0.1114  0.2508
18818SOL    HW168513   5.864   5.032   5.122 -2.9600 -1.7560 -1.9520
18818SOL    HW268514   5.739   5.068   5.220 -1.1641 -2.0888  0.5084
18819SOL     OW68515   6.271   0.367   8.700 -0.0246  0.0926  0.0667
18819SOL    HW168516   6.238   0.458   8.725  1.3420  1.0172 -1.4150
18819SOL    HW268517   6.347   0.375   8.636 -1.2427 -2.1524 -1.7489
18820SOL     OW68518   0.537   2.846   1.590 -0.5377 -0.1405  0.1264
18820SOL    HW168519   0.574   2.875   1.678  1.7563 -1.6730 -0.2970
18820SOL    HW268520   0.527   2.746   1.590  1.5743 -0.3859 -2.1002
18821SOL     OW68521   3.981   3.641   5.325 -0.7207 -0.2327 -0.2105
18821SOL    HW168522   4.055   3.579   5.301 -0.5199 -0.3351  0.6579
18821SOL    HW268523   3.908   3.634   5.257 -1.5491 -2.8331  0.8581
18822SOL     OW68524   4.888   6.053   4.714  0.2968 -0.1231 -0.5388
18822SOL    HW168525   4.810   5.993   4.724  0.8208 -0.9492 -1.3700
18822SOL    HW268526   4.863   6.132   4.657 -0.4686  0.6035  0.7902
18823SOL     OW68527   5.768   0.437   9.697  0.4143  0.1211  0.2998
18823SOL    HW168528   5.699   0.387   9.644  0.2145 -2.1534  2.5812
18823SOL    HW268529   5.859   0.409   9.667  0.3476  1.5750 -1.3044
18824SOL     OW68530   5.473   5.692   2.588 -0.1039 -0.4869 -0.1753
18824SOL    HW168531   5.553   5.703   2.647 -0.1500 -2.3968  0.2686
18824SOL    HW268532   5.477   5.758   2.514  1.1126  0.4313  0.6889
18825SOL     OW68533   7.413   5.568   9.494  0.0220  0.3859  0.5795
18825SOL    HW168534   7.358   5.509   9.435 -2.0933  0.8752  1.9834
18825SOL    HW268535   7.406   5.537   9.589  0.5533  1.6586  1.0556
18826SOL     OW68536   5.825   3.279   9.284  0.2374  0.7303 -0.3540
18826SOL    HW168537   5.849   3.192   9.327  0.8017  0.1541 -1.8272
18826SOL    HW268538   5.875   3.354   9.329  2.5729 -0.1186 -1.4491
18827SOL     OW68539   9.849   6.053   8.228 -0.3163 -0.9155 -0.1760
18827SOL    HW168540   9.806   6.073   8.140 -0.4114  0.2353  0.1259
18827SOL    HW268541   9.935   6.005   8.213  2.5815  4.2823 -1.1980
18828SOL     OW68542   4.025   5.476   8.568  0.8382  0.0312  0.6859
18828SOL    HW168543   3.953   5.482   8.637 -1.5338  0.9763 -1.8074
18828SOL    HW268544   4.104   5.531   8.597 -0.7994  1.8174  1.8386
18829SOL     OW68545   8.465   2.353   4.745  0.2351  0.0311 -0.3708
18829SOL    HW168546   8.468   2.280   4.677  2.2466  0.3327 -0.6213
18829SOL    HW268547   8.518   2.431   4.713  0.4814  0.5073  1.1666
18830SOL     OW68548   7.891   6.567   8.517 -0.2619  0.0922  0.0272
18830SOL    HW168549   7.987   6.554   8.542 -0.4648 -1.7672 -0.1015
18830SOL    HW268550   7.873   6.526   8.428 -1.0744  0.8163 -0.1497
18831SOL     OW68551   4.545   6.288   0.346  0.2249  0.6040  0.4450
18831SOL    HW168552   4.598   6.238   0.414  0.9059 -0.2034 -0.6620
18831SOL    HW268553   4.580   6.381   0.339  0.9429  0.3361  0.3560
18832SOL     OW68554   8.426   2.268   9.473  0.2012  0.0312 -0.5485
18832SOL    HW168555   8.434   2.355   9.424  0.9465 -0.6720 -1.6976
18832SOL    HW268556   8.501   2.260   9.539  1.9704 -1.0685 -2.6104
18833SOL     OW68557   5.210   5.701   1.965  0.5649  0.8441 -0.3676
18833SOL    HW168558   5.174   5.676   1.875 -0.1300 -0.8799  0.3604
18833SOL    HW268559   5.145   5.759   2.013 -0.3987 -0.6776  0.1820
18834SOL     OW68560   4.331   6.977   0.094  0.2151 -0.4127 -0.0574
18834SOL    HW168561   4.355   6.880   0.086  1.5893 -0.0240 -0.7390
18834SOL    HW268562   4.238   6.991   0.062 -0.2616 -1.6318  0.7491
18835SOL     OW68563   6.823   3.935   7.989  0.2543  0.2399  0.0727
18835SOL    HW168564   6.741   3.921   8.045  0.4762  1.0078  0.5899
18835SOL    HW268565   6.865   3.846   7.968  0.7522  0.0185  1.9721
18836SOL     OW68566   3.400   7.690   7.216  0.3284 -0.1177 -0.1729
18836SOL    HW168567   3.308   7.728   7.219  0.9362  1.3585  0.1742
18836SOL    HW268568   3.461   7.754   7.168  1.2036 -1.0104 -0.2756
18837SOL     OW68569   6.405   9.695   0.371 -0.5306 -0.5768  0.4563
18837SOL    HW168570   6.323   9.736   0.412  1.2100  2.4597  1.0962
18837SOL    HW268571   6.431   9.614   0.423 -1.4830  0.0977  2.0373
18838SOL     OW68572   3.231   0.927   0.995  0.0271  0.5465  0.6133
18838SOL    HW168573   3.209   0.836   0.961 -2.4133  1.5239 -0.5967
18838SOL    HW268574   3.321   0.955   0.961  0.5253 -1.1619  0.5089
18839SOL     OW68575   7.738   1.279   0.142 -0.3671 -0.0648  0.9750
18839SOL    HW168576   7.714   1.274   0.045  0.1045 -3.1142  0.9460
18839SOL    HW268577   7.677   1.218   0.194  2.0429 -1.6881  1.9791
18840SOL     OW68578   2.295   5.834   7.621 -0.2488  0.3968  0.5878
18840SOL    HW168579   2.308   5.736   7.629  1.0384  0.6835  2.2720
18840SOL    HW268580   2.198   5.854   7.609 -0.5014 -1.0761  0.0593
18841SOL     OW68581   1.529   5.182   4.092  0.6992  0.0995 -0.0723
18841SOL    HW168582   1.504   5.230   4.007 -0.3590 -0.0853  0.1265
18841SOL    HW268583   1.524   5.084   4.077 -0.5420  0.0661  0.4996
18842SOL     OW68584   3.475   8.724   9.042  0.1284 -0.4885 -0.2236
18842SOL    HW168585   3.525   8.810   9.033  2.5491 -1.8188  0.2234
18842SOL    HW268586   3.451   8.690   8.951  0.6904 -0.2089 -0.4765
18843SOL     OW68587   9.188   4.203   7.346  0.0174  0.1722 -0.2758
18843SOL    HW168588   9.132   4.187   7.427  0.3082  0.7626  0.0409
18843SOL    HW268589   9.130   4.239   7.272  0.4366  3.3857  0.8974
18844SOL     OW68590   3.662   7.107   7.117  0.4890  0.5727 -0.0413
18844SOL    HW168591   3.643   7.107   7.019 -0.9305  0.0974  0.2285
18844SOL    HW268592   3.668   7.201   7.150  0.3809  0.7257 -0.4606
18845SOL     OW68593   9.014   4.935   5.113 -0.3979  0.5245  0.2993
18845SOL    HW168594   9.060   5.006   5.062  1.2193 -0.2399  0.6729
18845SOL    HW268595   9.057   4.924   5.202 -1.7012  0.2317  0.9140
18846SOL     OW68596   1.855   5.650   8.441 -0.2243  0.5937  0.1690
18846SOL    HW168597   1.838   5.574   8.505 -0.6838  1.4229  1.0463
18846SOL    HW268598   1.931   5.625   8.380 -0.2523 -0.4993  0.5622
18847SOL     OW68599   7.345   4.090   3.909  0.4007  0.1025  0.0710
18847SOL    HW168600   7.301   4.030   3.977 -0.1971 -1.5092 -1.6830
18847SOL    HW268601   7.439   4.060   3.894  0.4661  0.3209  0.0529
18848SOL     OW68602   5.404   6.143   9.198  0.1721 -0.7060  0.0473
18848SOL    HW168603   5.395   6.179   9.105  2.3145 -1.6790 -0.5876
18848SOL    HW268604   5.346   6.195   9.260 -1.2261  0.0266 -1.8081
18849SOL     OW68605   0.008   0.932   3.131 -0.5089  0.1874 -0.2360
18849SOL    HW168606   0.063   0.871   3.189  1.3946  1.8222 -0.2943
18849SOL    HW268607   0.030   0.915   3.035 -0.6357  0.3520 -0.2940
18850SOL     OW68608   8.502   2.155   0.280 -0.6917 -0.5425  0.4276
18850SOL    HW168609   8.430   2.095   0.248  1.0349 -2.2029 -0.4254
18850SOL    HW268610   8.468   2.249   0.282 -2.8723 -1.2928  0.1014
18851SOL     OW68611   5.147   9.027   6.846  0.1644 -0.0264 -0.5961
18851SOL    HW168612   5.089   9.101   6.880  0.9285 -0.5008  1.8295
18851SOL    HW268613   5.232   9.066   6.808  0.3269  0.3831  0.1784
18852SOL     OW68614   6.135   1.612   8.650  0.0055 -0.1669 -0.6493
18852SOL    HW168615   6.150   1.559   8.566  0.1152  3.7950 -3.2533
18852SOL    HW268616   6.219   1.616   8.703  0.4739 -1.0684 -1.3091
18853SOL     OW68617   4.384   3.313   5.650  0.3023  0.7584  0.5898
18853SOL    HW168618   4.321   3.293   5.724 -1.5520 -0.0365 -1.1656
18853SOL    HW268619   4.333   3.337   5.567  2.2876  0.5370 -0.7479
18854SOL     OW68620   6.621   1.271   9.396  0.5453 -0.2718 -0.0716
18854SOL    HW168621   6.702   1.288   9.339  0.3655 -0.4064 -0.3639
18854SOL    HW268622   6.638   1.306   9.488  0.4359  0.9190 -0.4928
18855SOL     OW68623   4.071   3.749   6.108 -0.2601  0.2117 -0.0816
18855SOL    HW168624   4.122   3.667   6.136 -1.3778 -0.1732  0.8528
18855SOL    HW268625   3.977   3.723   6.087 -0.1746  0.9847 -1.4391
18856SOL     OW68626   6.934   5.954   0.177  0.1115 -0.5617  0.4183
18856SOL    HW168627   6.979   5.941   0.089 -2.5072  0.9660 -1.2322
18856SOL    HW268628   6.965   6.040   0.218 -0.1560 -0.2783  0.0266
18857SOL     OW68629   3.613   1.073   6.728  0.4439 -0.3031  0.2093
18857SOL    HW168630   3.603   1.106   6.822 -0.4072  0.0028  0.0174
18857SOL    HW268631   3.603   1.150   6.664  0.9101 -0.5265 -0.1425
18858SOL     OW68632   5.839   4.560   0.728  0.3668  0.1493 -0.9674
18858SOL    HW168633   5.834   4.490   0.800 -0.3240  0.8673 -0.3055
18858SOL    HW268634   5.750   4.570   0.684  0.8242 -0.3818 -2.0296
18859SOL     OW68635   4.255   3.673   8.980  0.2044 -0.0188  0.8028
18859SOL    HW168636   4.160   3.681   9.013  0.1785  1.7505  0.3193
18859SOL    HW268637   4.273   3.577   8.958 -1.2103 -0.5224  1.6723
18860SOL     OW68638   6.046   5.649   0.752  0.0928 -0.0399 -0.1630
18860SOL    HW168639   6.111   5.576   0.769  0.2795  0.5046  1.5856
18860SOL    HW268640   5.988   5.625   0.674  0.0247 -2.1278  0.4996
18861SOL     OW68641   4.419   4.840   8.623 -0.0201  0.5651  0.4968
18861SOL    HW168642   4.342   4.875   8.677  0.5819 -0.3848  2.0170
18861SOL    HW268643   4.501   4.892   8.645  0.1468  0.4268  0.1939
18862SOL     OW68644   7.090   3.313   8.574 -0.0157 -0.1703 -0.1126
18862SOL    HW168645   7.186   3.290   8.555  0.0078 -0.4007  0.2930
18862SOL    HW268646   7.080   3.413   8.578 -0.9180  0.1899 -6.3214
18863SOL     OW68647   2.223   5.938   6.553  0.1221  0.0089  0.7694
18863SOL    HW168648   2.153   5.888   6.502 -1.4538  0.6524  2.2350
18863SOL    HW268649   2.218   5.912   6.649  2.8199 -0.9291  0.6829
18864SOL     OW68650   0.371   9.086   6.235  0.1217  0.5552  0.0283
18864SOL    HW168651   0.348   9.154   6.305  1.1930 -0.4322  1.3583
18864SOL    HW268652   0.373   8.995   6.277 -0.7530 -0.2456 -1.6198
18865SOL     OW68653   1.588   3.779   0.736  0.2195  0.1739  0.6084
18865SOL    HW168654   1.645   3.843   0.685  0.7509  0.6662  1.8016
18865SOL    HW268655   1.525   3.734   0.673  1.1932  0.4003 -0.5605
18866SOL     OW68656   3.624   4.074   2.262 -0.2585 -0.6449 -0.0528
18866SOL    HW168657   3.526   4.058   2.275 -0.6046  2.0883  1.1533
18866SOL    HW268658   3.668   4.089   2.351  0.5497  1.6392 -0.7958
18867SOL     OW68659   4.078   7.657   1.987  0.0178  0.3158 -0.0649
18867SOL    HW168660   4.028   7.575   2.016 -1.1918  1.5110  1.2570
18867SOL    HW268661   4.174   7.648   2.015  0.5607 -1.9058 -2.4747
18868SOL     OW68662   3.466   5.214   8.796  0.2816 -0.6024  0.4192
18868SOL    HW168663   3.436   5.253   8.883  3.6242  0.7975  1.0130
18868SOL    HW268664   3.563   5.189   8.802 -0.0318 -2.7105 -2.1624
18869SOL     OW68665   6.070   8.824   1.213 -0.2708 -0.1191  0.6983
18869SOL    HW168666   6.069   8.757   1.287 -1.7937 -0.9051 -0.0024
18869SOL    HW268667   6.021   8.907   1.242 -1.2235 -0.5860  0.4398
18870SOL     OW68668   7.253   9.155   1.209  0.4660  0.4691 -0.1284
18870SOL    HW168669   7.256   9.142   1.110 -1.4394  0.0067 -0.1493
18870SOL    HW268670   7.191   9.088   1.249  1.8552  0.1314  1.4837
18871SOL     OW68671   4.633   9.730   1.381  0.3348 -0.0380  0.3204
18871SOL    HW168672   4.596   9.811   1.336 -2.5984 -1.5838 -0.1188
18871SOL    HW268673   4.658   9.753   1.475 -1.2847  1.1529  0.4767
18872SOL     OW68674   6.802   9.482   0.333 -0.0907  0.0775 -0.0473
18872SOL    HW168675   6.898   9.454   0.334 -0.4390 -1.4699 -3.3019
18872SOL    HW268676   6.780   9.529   0.419  3.2029 -0.6802  1.2918
18873SOL     OW68677   7.722   5.192   0.682 -0.0488 -0.5749  0.5300
18873SOL    HW168678   7.679   5.129   0.747  0.2554 -0.8503  0.4675
18873SOL    HW268679   7.710   5.286   0.713 -1.0311 -0.6251  0.3200
18874SOL     OW68680   6.339   1.666   0.758  0.0967 -0.2226  0.3647
18874SOL    HW168681   6.394   1.721   0.695  0.3298 -0.4162  0.4001
18874SOL    HW268682   6.287   1.727   0.818 -1.1200 -0.0335 -0.8700
18875SOL     OW68683   4.599   4.430   9.087 -0.1282  0.2788  0.5213
18875SOL    HW168684   4.584   4.362   9.016 -1.2812  0.6919  0.3688
18875SOL    HW268685   4.656   4.504   9.051  0.6036 -0.2834  0.5042
18876SOL     OW68686   9.052   9.822   6.028  0.3765 -0.2562  0.4420
18876SOL    HW168687   8.987   9.746   6.024  1.1718 -0.9648  0.8286
18876SOL    HW268688   9.092   9.837   5.938  0.6356 -0.6657  0.4878
18877SOL     OW68689   7.587   4.000   3.844 -0.0858 -0.5498 -0.1623
18877SOL    HW168690   7.568   3.911   3.885  1.2109 -0.4845  0.6089
18877SOL    HW268691   7.679   3.999   3.803  0.3622  0.7431  0.7656
18878SOL     OW68692   0.625   3.504   1.508 -0.5402 -0.4857 -0.3987
18878SOL    HW168693   0.712   3.454   1.511  0.1718  0.6965 -0.7293
18878SOL    HW268694   0.553   3.445   1.472  0.4801 -0.9725 -1.6837
18879SOL     OW68695   7.769   7.654   5.372 -0.8586  0.6464  0.2967
18879SOL    HW168696   7.802   7.650   5.278  1.0236  1.2695  0.9125
18879SOL    HW268697   7.683   7.602   5.380  0.2658 -1.4974 -1.2175
18880SOL     OW68698   7.224   2.202   4.150  0.7689  0.2175  0.3052
18880SOL    HW168699   7.134   2.186   4.109  0.4299  2.5849  0.0973
18880SOL    HW268700   7.222   2.170   4.245 -0.0714 -0.3982  0.0912
18881SOL     OW68701   9.218   7.032   9.711  0.1929  0.0627  0.0906
18881SOL    HW168702   9.184   7.072   9.626  0.2790  2.3697  1.1148
18881SOL    HW268703   9.268   6.948   9.691 -0.6991  0.0136 -2.0167
18882SOL     OW68704   6.973   5.431   2.843  0.2924 -0.3456  0.4027
18882SOL    HW168705   7.052   5.437   2.782  1.1538 -0.9390  1.4488
18882SOL    HW268706   6.889   5.430   2.788  1.0324 -0.5003 -0.7535
18883SOL     OW68707   4.978   5.602   4.424 -0.6129 -0.5752  0.0843
18883SOL    HW168708   4.964   5.564   4.516 -0.1391 -1.2847 -0.1311
18883SOL    HW268709   4.912   5.560   4.361  1.1522 -2.4930 -0.5436
18884SOL     OW68710   6.016   5.382   0.408  0.3696  0.3166  0.1050
18884SOL    HW168711   6.092   5.412   0.466  0.5921  0.8280 -0.4543
18884SOL    HW268712   6.022   5.283   0.395  0.7755  0.3138  0.3037
18885SOL     OW68713   2.156   8.243   7.876  0.6742  0.4192  0.2855
18885SOL    HW168714   2.149   8.229   7.975  1.2828  1.1708  0.4435
18885SOL    HW268715   2.205   8.167   7.835  0.9550  0.4021  0.6517
18886SOL     OW68716   7.944   8.614   5.520  0.0241  0.3689 -0.5539
18886SOL    HW168717   8.013   8.542   5.516  0.1152  0.4056  0.2351
18886SOL    HW268718   7.987   8.702   5.502  0.3110  0.4648  0.5509
18887SOL     OW68719   4.049   6.631   5.051  0.0684  0.5375 -0.0394
18887SOL    HW168720   4.089   6.689   5.122 -0.8757 -0.2719  1.1614
18887SOL    HW268721   4.101   6.545   5.046  0.2088  0.6406 -0.4346
18888SOL     OW68722   2.143   3.731   5.722 -0.0048  0.1732 -0.1822
18888SOL    HW168723   2.076   3.677   5.773 -0.6002  1.6125  0.5978
18888SOL    HW268724   2.233   3.720   5.764 -0.1671 -0.0425  0.1149
18889SOL     OW68725   5.627   7.228   1.421 -0.4547  0.4728 -0.0662
18889SOL    HW168726   5.543   7.175   1.424 -0.3973  0.4404  1.0141
18889SOL    HW268727   5.614   7.314   1.470  0.2981  0.2343  0.5590
18890SOL     OW68728   6.519   7.410   4.501  0.0862  0.6645  0.4301
18890SOL    HW168729   6.612   7.381   4.525  0.3766  1.4938  0.3377
18890SOL    HW268730   6.524   7.484   4.434 -0.6802 -0.7017 -1.1798
18891SOL     OW68731   6.867   9.685   3.624 -0.1362  0.2813 -0.2041
18891SOL    HW168732   6.852   9.615   3.554  3.2620  1.2839 -2.0097
18891SOL    HW268733   6.842   9.775   3.588  0.3781  0.6467  0.3424
18892SOL     OW68734   0.172   4.967   1.448  0.1920  0.5573 -0.0575
18892SOL    HW168735   0.082   4.996   1.415 -0.0516 -0.3005 -0.1501
18892SOL    HW268736   0.208   4.896   1.389 -0.8977 -2.0507  2.2894
18893SOL     OW68737   3.704   5.868   9.173  0.4764 -0.0858 -0.7999
18893SOL    HW168738   3.705   5.852   9.272 -0.5217  2.2940 -0.3786
18893SOL    HW268739   3.718   5.781   9.125 -0.4239 -1.4765  1.3947
18894SOL     OW68740   7.017   5.398   0.752  0.6263  0.1170 -0.5723
18894SOL    HW168741   6.963   5.314   0.741 -0.5140  0.8989 -1.0297
18894SOL    HW268742   7.052   5.403   0.846 -2.9665  1.2460  0.8039
18895SOL     OW68743   6.315   7.721   6.487  0.6596 -0.1190  0.4626
18895SOL    HW168744   6.365   7.750   6.405 -0.8676 -1.3568 -0.9419
18895SOL    HW268745   6.326   7.789   6.559  0.8727  1.6823 -1.2399
18896SOL     OW68746   7.182   3.632   2.516  0.0760 -0.0797  0.0734
18896SOL    HW168747   7.243   3.643   2.595 -0.9287 -0.1720  0.8667
18896SOL    HW268748   7.099   3.685   2.531  0.2847  0.6579 -1.3561
18897SOL     OW68749   4.626   2.431   0.489 -0.0479 -0.2452  0.2135
18897SOL    HW168750   4.624   2.483   0.403  2.2703  1.5282  1.1951
18897SOL    HW268751   4.533   2.423   0.525 -0.6190  2.0396 -0.6882
18898SOL     OW68752   8.068   1.819   2.536 -0.1890  0.2556  0.0892
18898SOL    HW168753   7.975   1.814   2.570  0.1192 -0.9714  0.7813
18898SOL    HW268754   8.078   1.762   2.454  0.3627 -0.9630  0.9957
18899SOL     OW68755   6.100   3.733   0.321  0.4611 -0.7281 -0.8446
18899SOL    HW168756   6.022   3.783   0.283 -0.2572 -0.3209  1.1176
18899SOL    HW268757   6.071   3.641   0.345  0.9508 -1.0253 -1.3776
18900SOL     OW68758   2.530   5.465   6.181 -0.4558  0.3804  0.0398
18900SOL    HW168759   2.626   5.477   6.207 -0.5630  2.2281 -0.3408
18900SOL    HW268760   2.507   5.529   6.107 -1.9353 -0.1822 -0.0160
18901SOL     OW68761   4.323   5.115   5.232 -0.1808  0.1813  0.3607
18901SOL    HW168762   4.228   5.105   5.201  0.9890 -0.4853 -3.2077
18901SOL    HW268763   4.331   5.199   5.286 -2.7268  0.4236  0.4299
18902SOL     OW68764   1.008   1.901   9.149  0.3987 -0.4373 -0.2422
18902SOL    HW168765   1.052   1.974   9.200 -1.3755  1.4158 -1.2658
18902SOL    HW268766   1.073   1.862   9.083  1.2787  0.3975  0.1266
18903SOL     OW68767   6.988   0.624   8.279 -0.6050 -0.2838  0.0077
18903SOL    HW168768   7.074   0.633   8.229 -0.5838 -0.2537  0.0489
18903SOL    HW268769   6.923   0.571   8.225 -0.7532  0.1707 -0.2668
18904SOL     OW68770   5.801   7.259   1.193  0.4755  0.3926 -0.0254
18904SOL    HW168771   5.729   7.234   1.258  0.7296  0.1518  0.1652
18904SOL    HW268772   5.764   7.255   1.100 -0.2093  1.8580  0.1659
18905SOL     OW68773   4.046   6.638   3.431  0.5985  0.3934  0.1279
18905SOL    HW168774   4.032   6.734   3.405  2.4195  0.6422 -0.0229
18905SOL    HW268775   4.096   6.591   3.358  0.5391 -0.4401  0.6176
18906SOL     OW68776   1.583   4.973   1.146  0.0626 -0.1036 -0.0126
18906SOL    HW168777   1.512   5.025   1.099  1.1009  0.5993 -0.8261
18906SOL    HW268778   1.630   5.032   1.212 -1.0560 -0.9538  1.5840
18907SOL     OW68779   9.140   4.203   3.113  0.1279  0.1319 -0.2240
18907SOL    HW168780   9.056   4.162   3.078  0.0163 -0.3591  0.6020
18907SOL    HW268781   9.202   4.131   3.143  0.4815  0.5227 -0.0163
18908SOL     OW68782   1.821   5.707   8.777  0.3531  0.1275 -0.3719
18908SOL    HW168783   1.792   5.800   8.756  0.5186  0.4728  0.8637
18908SOL    HW268784   1.920   5.705   8.789  0.4773 -0.4229 -1.4339
18909SOL     OW68785   6.783   8.690   2.295 -0.4800 -0.1442 -0.1090
18909SOL    HW168786   6.777   8.777   2.244  0.7046 -0.4653 -0.8166
18909SOL    HW268787   6.775   8.708   2.393  2.0879  1.0544 -0.0775
18910SOL     OW68788   3.944   8.085   2.642 -0.7463  0.2202 -0.5908
18910SOL    HW168789   3.987   8.153   2.702 -1.5448  0.6404 -0.4897
18910SOL    HW268790   3.912   8.130   2.558 -0.3338 -0.2266 -0.9966
18911SOL     OW68791   2.162   4.998   7.801  0.3219  0.1466 -0.0062
18911SOL    HW168792   2.127   5.037   7.716  1.2958 -1.4609 -1.1777
18911SOL    HW268793   2.170   4.899   7.791  2.7620  0.1985  1.1247
18912SOL     OW68794   6.170   6.404   1.454 -0.4030  0.4458 -0.0385
18912SOL    HW168795   6.154   6.489   1.404 -3.0402 -0.1582 -0.2908
18912SOL    HW268796   6.194   6.425   1.549 -2.4012  1.4721  0.2686
18913SOL     OW68797   0.411   8.431   9.437  0.4419 -0.5297  0.4108
18913SOL    HW168798   0.446   8.338   9.449  1.4968 -0.0143  1.3739
18913SOL    HW268799   0.318   8.436   9.473  0.2280 -1.3033 -0.0063
18914SOL     OW68800   6.390   5.485   8.554  0.4017 -0.1168 -0.0718
18914SOL    HW168801   6.450   5.539   8.495 -1.2234  0.0526 -1.5942
18914SOL    HW268802   6.386   5.527   8.645  1.7353  0.4634 -0.2719
18915SOL     OW68803   5.262   7.748   1.266  0.4091  0.1838  0.6215
18915SOL    HW168804   5.312   7.805   1.201 -0.2694 -1.7758 -1.7145
18915SOL    HW268805   5.210   7.806   1.328  2.0200  2.1421  0.2085
18916SOL     OW68806   6.541   8.891   7.283  0.1265 -0.1959  0.2012
18916SOL    HW168807   6.599   8.809   7.284  0.0233 -0.2654  0.5333
18916SOL    HW268808   6.445   8.864   7.284  0.0870 -0.0771 -0.2276
18917SOL     OW68809   3.436   9.006   5.899 -0.1074  0.2268 -0.3783
18917SOL    HW168810   3.436   9.045   5.806 -0.5212 -1.8733 -1.2803
18917SOL    HW268811   3.456   8.908   5.894  0.0198  0.1281  1.7798
18918SOL     OW68812   3.003   7.437   0.874  0.6297  0.0853  0.0165
18918SOL    HW168813   3.076   7.428   0.807 -0.7092 -0.6961 -1.3934
18918SOL    HW268814   3.038   7.480   0.957  2.7417 -0.5633 -0.5050
18919SOL     OW68815   0.227   4.758   0.284  0.6159 -0.3711  0.0596
18919SOL    HW168816   0.226   4.791   0.378  0.9430 -1.3067  0.3981
18919SOL    HW268817   0.294   4.685   0.275 -0.8121 -1.6628 -0.4092
18920SOL     OW68818   5.341   5.484   1.606  0.4833 -0.0762 -0.2870
18920SOL    HW168819   5.369   5.457   1.513  0.5666 -0.1205 -0.2485
18920SOL    HW268820   5.383   5.423   1.673 -1.7308 -1.7702 -0.3732
18921SOL     OW68821   6.522   8.929   8.188 -0.2386  0.3074  1.1970
18921SOL    HW168822   6.461   9.001   8.220 -0.9539  0.0843  0.3588
18921SOL    HW268823   6.469   8.848   8.162  0.4444 -0.0527  0.8914
18922SOL     OW68824   3.752   3.452   8.907 -0.1446 -0.0642 -0.0098
18922SOL    HW168825   3.838   3.457   8.958  0.8132 -0.5320 -1.5573
18922SOL    HW268826   3.728   3.356   8.891  0.7061  0.0901 -2.3195
18923SOL     OW68827   4.305   4.326   7.201  0.1686 -0.2985 -0.2366
18923SOL    HW168828   4.338   4.233   7.217  0.3725 -0.0624  0.7674
18923SOL    HW268829   4.366   4.391   7.247  0.2150  0.3522 -1.2122
18924SOL     OW68830   4.697   7.224   9.033  0.3716 -0.1855  0.2715
18924SOL    HW168831   4.710   7.235   8.934  2.3025 -1.8388  0.3100
18924SOL    HW268832   4.601   7.236   9.056 -0.2353 -0.6808 -1.9324
18925SOL     OW68833   2.775   8.671   2.995 -0.1275  0.3085  0.0806
18925SOL    HW168834   2.849   8.604   3.000  0.4607  1.0672  2.3950
18925SOL    HW268835   2.739   8.675   2.902  3.2487  0.4732 -1.2749
18926SOL     OW68836   9.615   5.125   1.793 -0.1553 -0.3647 -0.3207
18926SOL    HW168837   9.557   5.045   1.805 -0.1929 -0.7354 -2.7530
18926SOL    HW268838   9.711   5.099   1.801 -0.2241 -0.2730  0.8669
18927SOL     OW68839   1.026   5.975   0.536 -0.3224  0.3183  0.3830
18927SOL    HW168840   1.070   5.900   0.486 -0.2286  0.1821  0.6653
18927SOL    HW268841   1.089   6.053   0.541  0.0237 -0.0074  1.0960
18928SOL     OW68842   0.154   9.856   0.582 -0.0268 -0.0480 -0.0762
18928SOL    HW168843   0.248   9.868   0.611  0.3304 -0.9439 -0.8395
18928SOL    HW268844   0.133   9.759   0.576 -0.6398  0.1351 -1.0472
18929SOL     OW68845   5.206   7.067   2.256  0.1415 -0.1191 -0.5781
18929SOL    HW168846   5.113   7.030   2.260  1.1371 -2.6232 -0.2290
18929SOL    HW268847   5.215   7.141   2.323 -1.2784 -0.5650  0.1215
18930SOL     OW68848   8.374   8.269   8.301  0.1720 -0.0494 -0.2652
18930SOL    HW168849   8.288   8.219   8.310  0.3343 -0.0296  1.4932
18930SOL    HW268850   8.356   8.358   8.258 -0.7504  0.0816  0.3679
18931SOL     OW68851   5.876   5.487   5.916 -0.2566  0.3731 -0.2000
18931SOL    HW168852   5.839   5.507   5.825 -1.5354 -1.1206 -0.0432
18931SOL    HW268853   5.806   5.502   5.985  0.4157  0.5668  0.4512
18932SOL     OW68854   4.131   6.420   1.152 -0.1718 -0.3948 -0.0666
18932SOL    HW168855   4.184   6.346   1.192 -2.4014 -2.0260 -0.0278
18932SOL    HW268856   4.034   6.396   1.153 -0.8447  2.0915 -1.0098
18933SOL     OW68857   9.943   5.605   3.985  0.4744  0.6093  0.1382
18933SOL    HW168858   9.884   5.543   3.933  1.5253 -1.5420  1.4395
18933SOL    HW268859  10.018   5.552   4.027  2.2590  2.9992  0.0387
18934SOL     OW68860   6.385   6.294   5.221 -0.4074 -0.2880  0.0801
18934SOL    HW168861   6.303   6.236   5.212 -0.6930  0.2384 -0.7764
18934SOL    HW268862   6.395   6.322   5.317 -2.4149  1.3183 -0.1280
18935SOL     OW68863   6.684   0.221   2.049 -0.1343  0.5533 -0.1879
18935SOL    HW168864   6.590   0.253   2.056 -0.0090  0.6379  1.3126
18935SOL    HW268865   6.693   0.134   2.098  0.4837  0.3446 -0.6612
18936SOL     OW68866   6.692   8.301   3.043 -0.3809  0.7156 -0.2332
18936SOL    HW168867   6.679   8.203   3.038  0.9301  0.5854 -1.5713
18936SOL    HW268868   6.749   8.323   3.123  0.2739  0.2700 -0.5693
18937SOL     OW68869   1.247   3.950   8.870  0.1790 -0.4008  0.1516
18937SOL    HW168870   1.282   4.004   8.793  0.4386 -0.6168  0.1149
18937SOL    HW268871   1.272   3.854   8.856  2.2176 -0.1256  1.6101
18938SOL     OW68872   2.946   9.280   2.275 -0.4185  0.3259 -0.0167
18938SOL    HW168873   2.940   9.378   2.254 -1.2654  0.4803  0.9105
18938SOL    HW268874   2.859   9.236   2.255 -0.0386 -0.2408 -0.4247
18939SOL     OW68875   4.503   1.152   8.773  0.0031 -0.0749  0.4138
18939SOL    HW168876   4.527   1.077   8.711 -0.0392 -0.2555  0.6118
18939SOL    HW268877   4.503   1.238   8.723 -0.4999 -0.2816  0.0563
18940SOL     OW68878   9.047   2.862   0.791 -0.0885 -0.1419 -0.3531
18940SOL    HW168879   9.028   2.778   0.740 -0.3764 -0.0035 -0.4750
18940SOL    HW268880   8.974   2.878   0.857 -0.4600  0.4605 -0.9110
18941SOL     OW68881   8.123   0.137   7.238  0.2146  0.2796  0.0582
18941SOL    HW168882   8.027   0.123   7.262  0.1442  0.5426 -0.0555
18941SOL    HW268883   8.163   0.051   7.206 -0.1771  0.3150 -0.5517
18942SOL     OW68884   9.653   8.627   4.435  0.3208 -0.5586 -0.5604
18942SOL    HW168885   9.636   8.702   4.372 -1.4607  2.1121  2.9340
18942SOL    HW268886   9.570   8.572   4.445  1.4417 -2.7435 -2.6460
18943SOL     OW68887   0.169   1.601   8.020 -0.6121 -0.2981 -0.4102
18943SOL    HW168888   0.098   1.547   8.066 -0.8867 -0.3593 -0.9083
18943SOL    HW268889   0.189   1.562   7.930 -0.0319 -0.2110 -0.3221
18944SOL     OW68890   6.857   0.157   1.210  0.2891 -0.1087 -0.0541
18944SOL    HW168891   6.814   0.246   1.193  1.4683  0.5012  0.1498
18944SOL    HW268892   6.860   0.106   1.124  0.7460  0.5500 -0.4334
18945SOL     OW68893   6.785   4.720   7.042 -0.5483 -0.2230  0.2195
18945SOL    HW168894   6.803   4.813   7.071 -0.0564 -0.3336  0.2748
18945SOL    HW268895   6.723   4.721   6.963 -2.1553  0.0591  1.4634
18946SOL     OW68896   8.538   3.525   4.154 -0.1500 -0.2651 -0.1319
18946SOL    HW168897   8.500   3.587   4.222 -0.1344 -1.3842  0.9064
18946SOL    HW268898   8.489   3.439   4.156  0.2255 -0.5057 -1.1475
18947SOL     OW68899   6.175   4.153   1.699  0.5685  0.3751  0.2618
18947SOL    HW168900   6.157   4.179   1.604  0.5442 -0.6254 -0.0070
18947SOL    HW268901   6.115   4.078   1.725  2.1256 -0.8576  0.3625
18948SOL     OW68902   8.459   6.199   2.982 -0.9335  0.1781 -0.3434
18948SOL    HW168903   8.436   6.218   2.886  0.2934  0.0984 -0.6614
18948SOL    HW268904   8.439   6.103   3.002 -0.8340  0.0972 -0.6267
18949SOL     OW68905   0.942   4.508   1.841 -0.0460  0.0719  0.3328
18949SOL    HW168906   0.847   4.528   1.865  0.1259  1.4208 -0.0558
18949SOL    HW268907   0.986   4.462   1.918 -0.2516  1.9280  1.5957
18950SOL     OW68908   1.317   7.603   4.445  0.3591  0.0848 -0.1352
18950SOL    HW168909   1.384   7.675   4.461  0.7572 -0.6147  1.4129
18950SOL    HW268910   1.340   7.523   4.500 -1.0686 -0.5985 -0.5088
18951SOL     OW68911   0.275   5.359   1.616 -0.1171  0.0344  0.0477
18951SOL    HW168912   0.270   5.453   1.581  0.1131  0.1688  0.3712
18951SOL    HW268913   0.183   5.319   1.617 -0.0461 -0.1562 -1.2124
18952SOL     OW68914   3.897   0.361   1.802  0.3738 -0.2890 -0.7289
18952SOL    HW168915   3.994   0.362   1.776  0.4195 -0.0784 -0.5489
18952SOL    HW268916   3.879   0.280   1.858  0.5141 -0.1603 -0.4977
18953SOL     OW68917   5.906   8.916   0.968 -0.4157  0.2552  0.8690
18953SOL    HW168918   5.887   8.865   1.052 -0.9134  0.4824  0.8939
18953SOL    HW268919   5.932   8.852   0.895  0.4305  0.0887  1.3010
18954SOL     OW68920   8.884   5.428   0.760 -0.3687  0.1871  0.4151
18954SOL    HW168921   8.870   5.469   0.850 -0.3459 -2.5456  1.7052
18954SOL    HW268922   8.958   5.477   0.712  0.9326  0.4577  2.6463
18955SOL     OW68923   4.939   9.754   9.258 -0.1018 -0.3864 -0.3784
18955SOL    HW168924   4.969   9.813   9.333 -0.7697 -1.6922  0.9458
18955SOL    HW268925   4.889   9.676   9.295  0.1336 -1.4052 -2.1538
18956SOL     OW68926   0.971   5.375   1.589  0.1974  0.2575 -0.0469
18956SOL    HW168927   0.880   5.416   1.601  0.3178  0.9301 -1.2930
18956SOL    HW268928   0.962   5.277   1.575 -0.4603  0.4836 -1.3454
18957SOL     OW68929   9.584   2.204   5.607 -0.4559  0.1963 -0.2012
18957SOL    HW168930   9.667   2.230   5.654 -0.7930  0.1433  0.4278
18957SOL    HW268931   9.534   2.287   5.578 -1.4272  0.2720  1.6189
18958SOL     OW68932   2.732   2.668   1.512  0.0874  0.1492 -0.5396
18958SOL    HW168933   2.758   2.625   1.426 -1.9221  1.7213 -1.9971
18958SOL    HW268934   2.745   2.604   1.587 -0.9998 -2.3180 -2.3880
18959SOL     OW68935   9.702   6.705   9.391  0.1322  0.5244  0.4283
18959SOL    HW168936   9.699   6.756   9.477  1.8499  2.1253 -0.4313
18959SOL    HW268937   9.779   6.642   9.392 -1.8231 -1.9585  1.3764
18960SOL     OW68938   2.823   2.048   1.500  0.1662 -0.3734 -0.4985
18960SOL    HW168939   2.916   2.016   1.520  0.3123 -1.2540 -2.4504
18960SOL    HW268940   2.824   2.099   1.413 -0.6736  2.0874  0.8973
18961SOL     OW68941   6.219   9.703   7.282  0.2112  0.3614  0.1046
18961SOL    HW168942   6.304   9.731   7.239 -1.3566  2.8324 -1.5003
18961SOL    HW268943   6.186   9.775   7.343 -0.5655 -0.7170  0.9866
18962SOL     OW68944   5.872   5.796   5.290  0.2131  0.4418  0.0074
18962SOL    HW168945   5.964   5.757   5.296 -0.4361 -0.8503  2.1518
18962SOL    HW268946   5.815   5.739   5.232  0.5832  0.8894 -0.8009
18963SOL     OW68947   2.180   3.194   0.167 -0.2098  0.5900  0.0036
18963SOL    HW168948   2.250   3.198   0.095  0.4354 -2.1862  0.4447
18963SOL    HW268949   2.220   3.224   0.253 -0.4047  1.8300 -0.3142
18964SOL     OW68950   0.264   0.325   1.530 -0.1381 -0.2195 -0.4329
18964SOL    HW168951   0.268   0.275   1.617 -0.5361  1.4540  0.5691
18964SOL    HW268952   0.306   0.270   1.458  1.4082 -1.0605  1.0850
18965SOL     OW68953   6.711   3.707   0.253 -0.0925 -0.5592  0.0790
18965SOL    HW168954   6.627   3.711   0.198  1.6698 -0.8865 -2.7511
18965SOL    HW268955   6.755   3.619   0.239  2.1360  0.6364 -0.7027
18966SOL     OW68956   4.084   9.066   9.205  0.7313 -0.3226  0.2928
18966SOL    HW168957   4.172   9.023   9.184  0.1891 -1.3818  0.1277
18966SOL    HW268958   4.048   9.028   9.291  0.3281 -0.0687  0.2366
18967SOL     OW68959   0.008   8.454   9.935 -0.0527 -0.1459  0.6755
18967SOL    HW168960  -0.043   8.368   9.932 -0.9698  0.4201 -0.4732
18967SOL    HW268961   0.063   8.463   9.852  0.6767 -0.0011  1.1719
18968SOL     OW68962   4.110   5.329   1.716 -0.0251 -0.0192  0.1039
18968SOL    HW168963   4.067   5.316   1.805  0.0744 -2.7233 -0.2233
18968SOL    HW268964   4.087   5.253   1.656 -0.9901  2.3155 -2.5746
18969SOL     OW68965   5.841   6.139   8.651  0.1026 -0.0077  0.0433
18969SOL    HW168966   5.796   6.193   8.722 -1.1259 -0.9675  0.0158
18969SOL    HW268967   5.801   6.160   8.562  1.1159  0.6265 -0.2784
18970SOL     OW68968   5.293   4.664   9.923  0.1162 -0.3477 -0.3514
18970SOL    HW168969   5.245   4.751   9.938  0.0348 -0.8139  2.3641
18970SOL    HW268970   5.375   4.681   9.869  2.0720  2.1056  3.1525
18971SOL     OW68971   9.006   4.244   7.149  0.1491  0.4535  0.1158
18971SOL    HW168972   9.035   4.247   7.054 -3.2877  2.5088 -0.9587
18971SOL    HW268973   8.929   4.181   7.159  0.1251  0.6699  1.4108
18972SOL     OW68974   4.437   8.644   7.043 -0.0323 -0.1968 -0.5916
18972SOL    HW168975   4.374   8.566   7.052  0.2464 -0.4356 -0.7325
18972SOL    HW268976   4.397   8.723   7.089  0.7115 -1.0190  1.5097
18973SOL     OW68977   2.904   6.566   9.265 -0.0882 -0.8852 -0.3740
18973SOL    HW168978   2.959   6.546   9.346 -0.3418  0.8993  0.2422
18973SOL    HW268979   2.817   6.517   9.272 -0.0983 -0.7649  0.4079
18974SOL     OW68980   6.081   5.805   7.333  0.0538 -0.2355 -0.3698
18974SOL    HW168981   6.169   5.809   7.380 -0.6613 -0.8814  1.0714
18974SOL    HW268982   6.079   5.873   7.260  1.2580  0.7049  0.4441
18975SOL     OW68983   8.541   7.701   3.314 -0.2919 -0.3104 -0.3465
18975SOL    HW168984   8.470   7.751   3.265  0.5878  0.4483 -0.8579
18975SOL    HW268985   8.600   7.765   3.361 -1.3285 -1.0439  2.0261
18976SOL     OW68986   5.558   3.578   2.464  0.0322 -0.1638  0.4986
18976SOL    HW168987   5.626   3.529   2.410  1.3477 -0.4997  2.3904
18976SOL    HW268988   5.478   3.599   2.407  1.0696 -1.1042 -1.3473
18977SOL     OW68989   2.722   1.005   2.057  0.5147 -0.4670 -0.0519
18977SOL    HW168990   2.794   1.014   1.989  0.4806 -0.0967 -0.0420
18977SOL    HW268991   2.749   1.052   2.141 -0.1503  0.5399 -0.3843
18978SOL     OW68992   2.661   5.996   1.243  0.3672  0.4071 -0.1604
18978SOL    HW168993   2.623   5.903   1.244  1.3654 -0.0147 -0.5549
18978SOL    HW268994   2.588   6.062   1.262 -0.4597 -0.4211 -0.3932
18979SOL     OW68995   1.925   4.889   3.118  0.3719 -0.4005  0.6297
18979SOL    HW168996   1.917   4.913   3.021  1.7720 -0.6021  0.4570
18979SOL    HW268997   1.885   4.799   3.133  1.6663 -1.1000 -0.0782
18980SOL     OW68998   8.926   9.143   3.185  0.1026  0.3959 -0.0575
18980SOL    HW168999   8.839   9.167   3.228 -0.3539  0.3234 -0.9327
18980SOL    HW269000   8.919   9.051   3.147  0.4714  0.4996 -0.3699
18981SOL     OW69001   9.471   8.278   2.441 -0.5910  0.4261 -0.3711
18981SOL    HW169002   9.429   8.330   2.515 -1.4296  0.7701 -1.0835
18981SOL    HW269003   9.415   8.198   2.419  0.2739 -0.3500  0.1653
18982SOL     OW69004   3.954   3.454   2.789  0.2445  0.5475 -0.5404
18982SOL    HW169005   3.957   3.510   2.871 -1.1676  1.7943 -1.3366
18982SOL    HW269006   3.904   3.369   2.808  0.0150  0.7846 -0.0989
18983SOL     OW69007   0.542   1.497   4.670 -0.0348 -0.2371  0.0404
18983SOL    HW169008   0.604   1.526   4.598 -0.0561 -0.7602 -0.1901
18983SOL    HW269009   0.551   1.398   4.684 -1.0850 -0.3838 -0.2529
18984SOL     OW69010   4.327   4.486   6.710 -0.4874 -1.0959  0.1785
18984SOL    HW169011   4.385   4.435   6.774 -0.1447 -0.7218  0.1720
18984SOL    HW269012   4.232   4.480   6.738 -0.2687 -0.3929  1.1070
18985SOL     OW69013   8.288   2.330   9.934  0.0910 -0.5829  0.4514
18985SOL    HW169014   8.388   2.331   9.937  0.0565  0.5243  1.3810
18985SOL    HW269015   8.255   2.252   9.988  0.4527 -1.0068  0.0664
18986SOL     OW69016   5.308   4.385   6.329  0.2187 -0.1186 -0.1059
18986SOL    HW169017   5.301   4.362   6.426 -2.2235  0.5682 -0.0836
18986SOL    HW269018   5.339   4.305   6.278 -1.0638 -1.2940  0.9135
18987SOL     OW69019   6.083   6.955   0.877  0.0761  0.2448  0.2827
18987SOL    HW169020   5.999   6.997   0.910  0.2430  1.3991 -0.7266
18987SOL    HW269021   6.121   7.011   0.803  0.7204 -1.2853 -0.5475
18988SOL     OW69022   5.608   3.784   2.812  0.3122  0.3913 -0.3698
18988SOL    HW169023   5.554   3.868   2.811 -1.0596 -0.4613  0.1454
18988SOL    HW269024   5.705   3.806   2.813 -0.0433  1.9715 -0.0401
18989SOL     OW69025   5.253   7.735   9.231 -0.2764 -0.3552 -0.2193
18989SOL    HW169026   5.302   7.772   9.310  0.3739 -1.8419  0.0978
18989SOL    HW269027   5.314   7.731   9.152 -0.9049  1.0581 -0.8047
18990SOL     OW69028   5.564   6.720   5.462  0.2713  0.1077  0.0891
18990SOL    HW169029   5.609   6.765   5.539 -1.8263 -0.2272  1.5601
18990SOL    HW269030   5.532   6.630   5.490 -0.4991 -0.0249 -1.1876
18991SOL     OW69031   0.762   1.263   1.389  0.4808 -0.0621  0.1237
18991SOL    HW169032   0.676   1.311   1.376  0.3827 -0.1673  0.3699
18991SOL    HW269033   0.750   1.166   1.366  0.6234 -0.0075 -0.1755
18992SOL     OW69034   6.954   8.878   7.916  0.4299 -0.1280 -0.0099
18992SOL    HW169035   6.882   8.924   7.966 -1.0367 -0.3681 -1.8471
18992SOL    HW269036   6.915   8.807   7.857  2.1441 -0.2583 -1.0524
18993SOL     OW69037   5.057   6.446   7.605  0.2383  0.1254 -0.5939
18993SOL    HW169038   5.058   6.414   7.700 -1.6801 -1.1949 -0.9966
18993SOL    HW269039   4.995   6.525   7.598 -0.7295 -0.6550 -0.9970
18994SOL     OW69040   7.180   9.315   9.492  0.0036  0.2356  0.2742
18994SOL    HW169041   7.187   9.362   9.580 -0.3390 -1.4750  1.2358
18994SOL    HW269042   7.256   9.251   9.482  0.2752  0.7321 -0.8589
18995SOL     OW69043   1.556   2.552   0.346 -0.5023 -0.0254 -0.4501
18995SOL    HW169044   1.540   2.533   0.249 -0.3687 -2.9921  0.0805
18995SOL    HW269045   1.468   2.568   0.391 -0.8265 -1.7050 -0.4623
18996SOL     OW69046   6.526   4.250   9.024  0.3031  0.2777  0.1188
18996SOL    HW169047   6.578   4.256   8.939 -1.5350 -1.1256 -1.1537
18996SOL    HW269048   6.479   4.162   9.028 -0.2342  0.6334  2.2513
18997SOL     OW69049   2.791   0.870   9.611  0.0598 -0.1182 -0.1349
18997SOL    HW169050   2.831   0.862   9.703  3.0311 -0.2055 -1.3966
18997SOL    HW269051   2.776   0.779   9.573 -0.4111 -0.0663 -0.0847
18998SOL     OW69052   3.867   4.395   1.997 -0.0274 -0.0407 -0.8146
18998SOL    HW169053   3.889   4.445   1.913  0.7409 -1.4208 -1.4642
18998SOL    HW269054   3.948   4.345   2.028 -0.4476  0.0748  0.4818
18999SOL     OW69055   0.707   4.573   0.582  0.6621 -0.5398 -0.2451
18999SOL    HW169056   0.776   4.590   0.512  2.2433 -0.4871  1.2647
18999SOL    HW269057   0.748   4.521   0.657 -1.0868 -0.9450  0.4598
19000SOL     OW69058   0.065   9.948   8.896  0.1623  0.0016  0.0573
19000SOL    HW169059   0.071  10.047   8.907 -1.8948  0.3200 -1.4190
19000SOL    HW269060  -0.018   9.915   8.942 -0.0188 -0.8174 -0.8525
19001SOL     OW69061   4.168   5.740   1.972 -0.5827 -0.3464  0.0975
19001SOL    HW169062   4.107   5.812   1.937  0.8503  0.9841  0.2603
19001SOL    HW269063   4.188   5.757   2.068  2.5315  1.0533 -0.7378
19002SOL     OW69064   3.544   3.609   8.793  0.0640 -0.3274 -0.2486
19002SOL    HW169065   3.596   3.575   8.871 -0.3418 -0.1049  0.1199
19002SOL    HW269066   3.598   3.597   8.709 -0.6455 -3.2354 -0.3383
19003SOL     OW69067   7.299   6.082   9.842 -0.4617  0.3132 -0.4081
19003SOL    HW169068   7.325   5.988   9.867 -1.3349  0.3504  0.6579
19003SOL    HW269069   7.265   6.083   9.748  1.9888  0.0163 -1.3300
19004SOL     OW69070   5.223   4.215   3.795 -1.1389  0.0191 -0.0962
19004SOL    HW169071   5.207   4.290   3.859 -0.5060  0.5026 -0.5028
19004SOL    HW269072   5.304   4.235   3.740 -0.5892 -1.2630  0.2361
19005SOL     OW69073   7.540   5.932   8.864 -0.1912  0.3829 -0.3401
19005SOL    HW169074   7.523   5.884   8.950 -0.5742 -0.8948 -1.1064
19005SOL    HW269075   7.496   5.882   8.789 -1.2922  2.3848 -1.0698
19006SOL     OW69076   5.794   9.167   8.840  0.2373  0.4654 -0.2886
19006SOL    HW169077   5.865   9.157   8.910 -0.1098 -1.9456 -0.2593
19006SOL    HW269078   5.819   9.115   8.759 -0.8595  0.6999 -0.7819
19007SOL     OW69079   9.567   5.382   1.884 -0.2863 -0.3972 -0.8041
19007SOL    HW169080   9.566   5.282   1.880 -0.0185 -0.3850 -1.3054
19007SOL    HW269081   9.648   5.416   1.836 -0.3731  0.0571 -0.6287
19008SOL     OW69082   2.231   5.934   3.385  0.7326 -0.2396 -0.2406
19008SOL    HW169083   2.289   5.920   3.466 -0.8058 -1.9422  0.6046
19008SOL    HW269084   2.243   6.027   3.351  3.5657 -0.3774  0.2201
19009SOL     OW69085   4.510   8.241   8.740  0.6146  0.5127  0.0753
19009SOL    HW169086   4.470   8.152   8.758  0.1610  0.8226  0.6217
19009SOL    HW269087   4.543   8.244   8.645 -0.2754  0.1062 -0.2578
19010SOL     OW69088   6.731   7.085   0.299  0.1640  0.1633 -0.1986
19010SOL    HW169089   6.645   7.040   0.277  1.0088 -0.2845 -2.7285
19010SOL    HW269090   6.730   7.179   0.266  0.2185  0.5399  0.8328
19011SOL     OW69091   3.439   5.628   2.414  0.0683 -0.6234 -0.3575
19011SOL    HW169092   3.526   5.611   2.461  0.2419 -0.2286 -0.5334
19011SOL    HW269093   3.457   5.654   2.319 -0.0949  2.0386  0.2866
19012SOL     OW69094   6.940   0.296   2.401  0.0860  0.1166  0.5650
19012SOL    HW169095   6.845   0.319   2.381  0.6711  1.4534 -0.7373
19012SOL    HW269096   6.996   0.378   2.398  1.2910 -0.6505  1.4048
19013SOL     OW69097   4.141   7.464   1.099  0.7068  0.5876  0.2828
19013SOL    HW169098   4.082   7.384   1.114 -0.3314  1.0072 -1.4876
19013SOL    HW269099   4.190   7.485   1.184 -1.2039 -0.1558  1.6026
19014SOL     OW69100   5.959   9.295   2.239 -0.1625  0.4812 -0.2660
19014SOL    HW169101   6.023   9.347   2.296  3.0957 -0.3347 -3.0466
19014SOL    HW269102   5.914   9.357   2.174 -1.0594  0.8076  0.6582
19015SOL     OW69103   3.725   9.525   0.178 -0.3428 -0.0098  0.5419
19015SOL    HW169104   3.779   9.545   0.260 -0.8054 -0.1261  0.8799
19015SOL    HW269105   3.630   9.507   0.205 -0.4940 -0.0503 -0.0211
19016SOL     OW69106   2.686   8.385   2.070 -0.3483 -0.0601  0.0924
19016SOL    HW169107   2.595   8.346   2.084 -0.6054 -0.1129 -1.5503
19016SOL    HW269108   2.702   8.396   1.972  1.4427 -0.0975  0.3674
19017SOL     OW69109   7.346   4.594   9.667  0.0290 -0.1303 -0.1656
19017SOL    HW169110   7.438   4.560   9.644  0.4897  1.2416 -0.3910
19017SOL    HW269111   7.355   4.676   9.724 -1.0161  1.4011 -2.1510
19018SOL     OW69112   1.566   9.093   9.631 -0.1907 -0.3930 -0.4772
19018SOL    HW169113   1.571   9.135   9.541 -0.9027  1.3353  0.2754
19018SOL    HW269114   1.473   9.098   9.666 -0.5283 -3.5705 -0.8041
19019SOL     OW69115   4.172   4.478   1.143 -0.5721 -0.5223  0.3840
19019SOL    HW169116   4.125   4.422   1.211 -0.6933 -2.5033 -1.2650
19019SOL    HW269117   4.229   4.420   1.086  0.7272  1.3195 -0.2310
19020SOL     OW69118   3.811   8.956   1.830 -0.1001 -0.2305 -0.2133
19020SOL    HW169119   3.795   8.996   1.921  0.4032  0.6967 -0.5257
19020SOL    HW269120   3.864   8.872   1.840  0.5690  0.2440  0.3032
19021SOL     OW69121   4.939   7.184   1.925 -0.1688  1.1250 -0.6835
19021SOL    HW169122   4.929   7.283   1.936 -3.8525  0.6663  0.9419
19021SOL    HW269123   4.913   7.138   2.010  1.8373 -1.2810 -1.2814
19022SOL     OW69124   7.617   0.714   2.912 -0.5008 -0.2370  0.2655
19022SOL    HW169125   7.616   0.803   2.866  1.8830 -0.1515  0.3274
19022SOL    HW269126   7.593   0.643   2.846 -0.0324  0.2116 -0.4037
19023SOL     OW69127   5.910   5.705   2.144 -0.1027 -0.1641 -0.2538
19023SOL    HW169128   5.994   5.692   2.090 -0.7274 -2.2784 -0.7330
19023SOL    HW269129   5.932   5.697   2.241  0.3416 -0.2243 -0.3554
19024SOL     OW69130   4.465   5.600   4.765 -0.0113 -0.0311 -0.0393
19024SOL    HW169131   4.526   5.615   4.843  1.3372  0.3359 -1.1550
19024SOL    HW269132   4.415   5.684   4.745 -0.6132 -0.2212  0.6270
19025SOL     OW69133   7.613   7.279   7.180  0.4743 -0.0327 -0.0904
19025SOL    HW169134   7.517   7.309   7.185  0.5343 -0.0223  0.9814
19025SOL    HW269135   7.624   7.220   7.099  0.2939  2.4999 -2.0208
19026SOL     OW69136   0.921   0.875   9.522  0.4955  1.0520  0.4675
19026SOL    HW169137   0.841   0.859   9.464  0.7269  1.3627  0.0640
19026SOL    HW269138   0.914   0.818   9.604  0.8270 -0.3821 -0.4863
19027SOL     OW69139   8.249   8.495   3.390 -0.2008 -0.0956 -0.9269
19027SOL    HW169140   8.181   8.568   3.378  0.2676  0.4763 -0.1826
19027SOL    HW269141   8.272   8.487   3.487  1.6089  0.4720 -1.2835
19028SOL     OW69142   3.439   8.520   3.867  0.7153  0.1945  0.0577
19028SOL    HW169143   3.417   8.467   3.785  2.0801 -0.6412  0.2228
19028SOL    HW269144   3.365   8.510   3.934 -0.4288  0.9151 -1.0606
19029SOL     OW69145   0.952   4.556   1.030  0.5805 -0.2633 -0.0963
19029SOL    HW169146   0.938   4.459   1.051 -1.5576 -0.0974 -0.6203
19029SOL    HW269147   0.933   4.611   1.111 -1.8422 -0.0561 -0.7444
19030SOL     OW69148   3.556   8.360   7.111  0.1464 -0.5798  0.0432
19030SOL    HW169149   3.560   8.460   7.116 -1.4383 -0.4354 -1.1792
19030SOL    HW269150   3.530   8.323   7.200  0.9764  0.0758  0.5675
19031SOL     OW69151   3.646   4.290   2.067 -0.1900  0.0077  0.0211
19031SOL    HW169152   3.740   4.322   2.062 -0.0863  0.0916  2.0329
19031SOL    HW269153   3.642   4.207   2.123 -1.1393 -0.7194 -1.1031
19032SOL     OW69154   1.449   6.832   4.192 -0.4637 -0.1906 -0.0449
19032SOL    HW169155   1.421   6.927   4.178 -1.1681 -0.2562  0.8780
19032SOL    HW269156   1.517   6.807   4.123 -2.0373  0.2430 -1.8056
19033SOL     OW69157   8.671   7.267   7.587  0.1394  0.0203  0.6997
19033SOL    HW169158   8.646   7.252   7.683  1.3395 -0.3561  0.9678
19033SOL    HW269159   8.593   7.247   7.528 -0.5065 -0.0671  1.5787
19034SOL     OW69160   4.041   5.918   1.604  0.1582  0.1093  0.0917
19034SOL    HW169161   4.138   5.893   1.610  0.0280 -0.3428  0.3364
19034SOL    HW269162   4.029   6.012   1.636  0.6686  0.5301 -0.9470
19035SOL     OW69163   6.164   1.352   2.151  0.3539  0.0859  0.2278
19035SOL    HW169164   6.163   1.323   2.247 -0.1438 -0.0750  0.1739
19035SOL    HW269165   6.207   1.443   2.144  2.4413 -0.8554  0.3281
19036SOL     OW69166   0.231   9.719   4.012  0.0306 -0.3488  0.1593
19036SOL    HW169167   0.225   9.815   4.041 -1.3711 -0.6168  0.8311
19036SOL    HW269168   0.236   9.714   3.912  0.2165  0.4329  0.1297
19037SOL     OW69169   5.076   6.635   9.018 -0.0424  0.6107  0.9120
19037SOL    HW169170   5.149   6.672   9.075  1.0268  0.1178 -0.1168
19037SOL    HW269171   5.017   6.577   9.073 -0.5616  2.2414  2.0902
19038SOL     OW69172   3.553   4.097   1.634  0.0439  0.2514 -0.3366
19038SOL    HW169173   3.584   4.116   1.727  1.4142  0.1045 -0.7504
19038SOL    HW269174   3.577   4.003   1.609 -1.5167 -0.1444 -0.3671
19039SOL     OW69175   1.962   6.919   9.106 -0.5021 -0.2591  0.2272
19039SOL    HW169176   2.057   6.941   9.085 -0.6878  0.3120 -0.0138
19039SOL    HW269177   1.936   6.834   9.060 -0.0972 -0.4410  0.3318
19040SOL     OW69178   2.332   2.900   4.183 -0.5477 -0.7685  0.1412
19040SOL    HW169179   2.355   2.803   4.175 -0.2798 -0.6527 -0.5343
19040SOL    HW269180   2.377   2.938   4.264  0.7359 -0.8182 -0.5209
19041SOL     OW69181   7.453   3.574   4.857  0.1104 -0.3850 -0.0589
19041SOL    HW169182   7.364   3.542   4.891  0.2472 -0.1742  0.5035
19041SOL    HW269183   7.497   3.631   4.926  0.8332 -0.7553 -0.2066
19042SOL     OW69184   5.802   0.725   2.533 -0.5297  0.3607 -0.0534
19042SOL    HW169185   5.834   0.651   2.474  0.0899  0.3746  0.2567
19042SOL    HW269186   5.706   0.711   2.555 -0.1388 -0.9854  0.9140
19043SOL     OW69187   5.906   3.227   3.577  0.0998  0.1336 -0.4674
19043SOL    HW169188   5.814   3.191   3.563 -1.2210  2.9453  0.6421
19043SOL    HW269189   5.912   3.270   3.667  2.1793  0.9615 -0.9723
19044SOL     OW69190   9.291   4.778   2.450  0.2979 -0.3964 -0.2657
19044SOL    HW169191   9.206   4.803   2.404  0.1648  1.9952  1.2349
19044SOL    HW269192   9.291   4.680   2.469 -2.3327 -0.3361  0.1563
19045SOL     OW69193   6.863   3.451   3.147 -0.3907 -0.7876 -0.7998
19045SOL    HW169194   6.783   3.483   3.096 -0.2678 -0.7295 -0.9571
19045SOL    HW269195   6.855   3.477   3.243 -0.1922 -0.1020 -0.9682
19046SOL     OW69196   6.153   7.326   5.192 -0.3919 -0.1038  0.1452
19046SOL    HW169197   6.178   7.276   5.274 -0.9351  0.4911  0.6859
19046SOL    HW269198   6.053   7.336   5.188 -0.4642 -1.3132 -1.2908
19047SOL     OW69199   5.787   9.489   0.539 -0.2087 -0.6241 -0.2809
19047SOL    HW169200   5.810   9.392   0.542 -0.2087 -0.6120  0.1952
19047SOL    HW269201   5.833   9.533   0.462  1.2778 -0.6133  0.5954
19048SOL     OW69202   9.347   8.023   5.443  0.2109  0.0478  0.7435
19048SOL    HW169203   9.339   7.939   5.497  0.3165 -0.5165 -0.0994
19048SOL    HW269204   9.423   8.078   5.476 -0.7831  0.5400  2.2675
19049SOL     OW69205   7.987   2.282   5.278 -0.6295  0.4397 -0.5204
19049SOL    HW169206   7.981   2.219   5.356 -0.0808  0.8568 -0.1361
19049SOL    HW269207   8.079   2.322   5.275  0.0127 -1.1005 -2.5704
19050SOL     OW69208   9.953   1.896   1.664 -0.6297 -0.3139 -0.0308
19050SOL    HW169209  10.038   1.911   1.613 -1.9591  1.3425 -1.8467
19050SOL    HW269210   9.951   1.956   1.744 -0.8163  0.9237 -0.9405
19051SOL     OW69211   8.589   8.137   4.148 -0.1958  0.1966  0.1636
19051SOL    HW169212   8.616   8.225   4.109 -0.1774  0.0065 -0.2587
19051SOL    HW269213   8.652   8.112   4.221  0.5746 -0.0868 -0.5929
19052SOL     OW69214   5.805   7.053   0.978 -0.3714 -0.1976  0.5259
19052SOL    HW169215   5.792   7.111   0.898 -0.9144 -0.6179  0.3074
19052SOL    HW269216   5.725   7.060   1.038 -0.6434 -1.0698  0.2732
19053SOL     OW69217   0.228   5.642   2.173 -0.2298 -0.1441 -0.1245
19053SOL    HW169218   0.222   5.582   2.093 -1.1464 -1.4514  0.9068
19053SOL    HW269219   0.312   5.622   2.224 -0.0568  0.1236 -0.3011
19054SOL     OW69220   1.273   4.806   6.288  0.4332 -0.0486 -0.1580
19054SOL    HW169221   1.362   4.776   6.320  1.8753  1.8814 -2.2333
19054SOL    HW269222   1.210   4.812   6.365  1.3899 -3.7355  0.9748
19055SOL     OW69223   5.526   6.210   2.827  0.3765 -0.4052 -0.0613
19055SOL    HW169224   5.483   6.264   2.755  0.3158 -1.1071 -0.5540
19055SOL    HW269225   5.508   6.253   2.916 -0.1955  0.0458 -0.3926
19056SOL     OW69226   7.424   7.541   0.373 -0.7260  0.4028  0.3032
19056SOL    HW169227   7.512   7.577   0.342 -0.5310 -0.7927 -0.5851
19056SOL    HW269228   7.403   7.578   0.463  1.1590 -0.0469  0.9497
19057SOL     OW69229   2.851   0.442   7.639 -0.3152  0.3910  0.4106
19057SOL    HW169230   2.772   0.448   7.577  0.0647 -0.1915 -0.1359
19057SOL    HW269231   2.853   0.352   7.683  0.7475 -0.0647 -0.5411
19058SOL     OW69232   3.389   5.153   6.067  0.3346  0.3056  0.7483
19058SOL    HW169233   3.345   5.071   6.032 -0.5929  0.8219  0.6900
19058SOL    HW269234   3.429   5.205   5.991 -2.1344  1.6975  0.3383
19059SOL     OW69235   8.414   3.674   6.380 -0.0824  0.2104  0.2402
19059SOL    HW169236   8.389   3.593   6.433  2.7540 -0.6614  0.3012
19059SOL    HW269237   8.504   3.706   6.408  0.1574  1.5496 -1.9363
19060SOL     OW69238   5.563   5.889   2.436 -0.4636 -0.2644 -0.2233
19060SOL    HW169239   5.640   5.889   2.372  0.7336 -2.5639  1.1593
19060SOL    HW269240   5.478   5.896   2.385  0.5017 -1.2781 -2.0323
19061SOL     OW69241   5.843   7.109   1.553 -0.2526  0.7635 -0.3498
19061SOL    HW169242   5.924   7.156   1.519 -0.2391  0.9967  0.0031
19061SOL    HW269243   5.760   7.154   1.518 -0.2256 -0.4116 -1.9762
19062SOL     OW69244   4.934   6.865   5.499 -0.1640 -0.0982 -0.0453
19062SOL    HW169245   5.008   6.916   5.543 -0.1743 -0.5389  0.4967
19062SOL    HW269246   4.884   6.814   5.568 -0.3529 -0.5887 -0.5400
19063SOL     OW69247   6.683   9.433   8.973  0.4570 -0.7635  0.1098
19063SOL    HW169248   6.588   9.417   9.000  0.6483 -0.2292  1.0831
19063SOL    HW269249   6.740   9.356   9.002  0.4601 -0.7272  0.1949
19064SOL     OW69250   9.965   7.538   4.331 -0.3264 -0.2023 -0.0698
19064SOL    HW169251  10.058   7.544   4.367  0.0118 -0.2917 -0.8938
19064SOL    HW269252   9.907   7.607   4.374  0.1742 -0.0148  0.3025
19065SOL     OW69253   8.347   3.458   5.856 -0.3278  0.1760  0.1770
19065SOL    HW169254   8.430   3.407   5.832 -0.0900 -0.2329  1.8122
19065SOL    HW269255   8.371   3.533   5.917 -1.0892  0.4336  0.1574
19066SOL     OW69256   6.889   4.800   8.617 -0.7226 -0.1853  0.0747
19066SOL    HW169257   6.959   4.848   8.565  0.3337  0.5213  2.1034
19066SOL    HW269258   6.811   4.861   8.631 -1.0307 -0.3933 -0.6902
19067SOL     OW69259   8.251   2.370   5.296 -0.3022 -0.5719 -0.2689
19067SOL    HW169260   8.250   2.461   5.336 -0.5273 -0.6857 -0.0117
19067SOL    HW269261   8.318   2.313   5.344  1.0413 -0.0571 -1.5216
19068SOL     OW69262   4.242   6.148   3.990 -0.1948  0.1998 -0.5030
19068SOL    HW169263   4.148   6.137   3.957 -0.3443 -0.5780  0.1753
19068SOL    HW269264   4.244   6.139   4.090  0.1428  3.2058 -0.1680
19069SOL     OW69265   4.965   7.890   3.030 -0.0738  0.5253 -0.5649
19069SOL    HW169266   4.976   7.968   2.969 -0.9119  0.1986 -1.1456
19069SOL    HW269267   5.055   7.855   3.056  0.3376  2.5444  0.8458
19070SOL     OW69268   7.403   0.066   5.433  0.1580 -0.1089  0.3180
19070SOL    HW169269   7.441   0.138   5.491  0.9894 -1.7914  1.9045
19070SOL    HW269270   7.325   0.024   5.479  1.4822 -2.1834  0.7239
19071SOL     OW69271   5.572   6.322   1.884 -0.2892  0.3019 -0.2044
19071SOL    HW169272   5.623   6.237   1.870  0.8538  0.9648 -0.1348
19071SOL    HW269273   5.517   6.342   1.803  1.3318  0.7695 -1.2072
19072SOL     OW69274   8.660   6.791   8.157  0.5056  0.2720  0.0549
19072SOL    HW169275   8.637   6.888   8.161 -0.4900  0.0473 -0.2967
19072SOL    HW269276   8.606   6.740   8.224 -0.3398 -0.3158 -1.0593
19073SOL     OW69277   0.022   4.021   8.831 -0.0834 -0.1284  0.1853
19073SOL    HW169278   0.106   3.974   8.805 -0.6414 -1.1597  0.2330
19073SOL    HW269279   0.009   4.013   8.930  1.0745  2.2081  0.5619
19074SOL     OW69280   3.475   8.285   4.112  0.1186  0.0558  0.0775
19074SOL    HW169281   3.563   8.264   4.155  0.1210  0.5661  0.3199
19074SOL    HW269282   3.476   8.251   4.017  1.6093  2.4697 -0.8314
19075SOL     OW69283   9.059   3.486   1.404  0.1564 -0.3195 -0.3880
19075SOL    HW169284   9.008   3.482   1.490 -1.6755  0.4266 -1.4167
19075SOL    HW269285   9.155   3.467   1.422 -0.1159  0.2767  1.8975
19076SOL     OW69286   3.038   0.126   2.433 -0.4693  0.5051 -0.0761
19076SOL    HW169287   3.059   0.223   2.433 -0.1495  0.4436  0.5811
19076SOL    HW269288   3.037   0.091   2.340  1.7603  0.6351 -0.1700
19077SOL     OW69289   9.434   4.286   2.990  0.8336 -0.2703 -0.0033
19077SOL    HW169290   9.482   4.360   3.036 -0.5866 -0.4893  1.9470
19077SOL    HW269291   9.449   4.291   2.891  2.6707  1.1846  0.3361
19078SOL     OW69292   7.733   8.443   3.616 -0.6422 -0.0564  0.0542
19078SOL    HW169293   7.672   8.406   3.686 -0.6190  1.1404  0.7212
19078SOL    HW269294   7.711   8.540   3.601 -0.0577 -0.0802 -0.9507
19079SOL     OW69295   7.004   4.830   7.285  0.0885 -0.1343  0.1938
19079SOL    HW169296   6.956   4.877   7.211  1.8875 -1.2459 -1.7342
19079SOL    HW269297   6.938   4.798   7.353 -1.5280  1.4366 -0.5954
19080SOL     OW69298   8.430   2.399   5.670  0.1999 -0.0901  0.0295
19080SOL    HW169299   8.475   2.355   5.592  0.5306  0.1818  0.0667
19080SOL    HW269300   8.485   2.477   5.701  1.4122 -1.7462  2.1650
19081SOL     OW69301   5.162   5.397   3.145 -0.6510  0.3823  0.0126
19081SOL    HW169302   5.233   5.392   3.074  0.4832  2.4978  0.9818
19081SOL    HW269303   5.091   5.461   3.117 -0.7047  0.4763  0.3637
19082SOL     OW69304   4.915   5.304   6.048 -0.2298 -0.5602 -0.1384
19082SOL    HW169305   5.010   5.313   6.019  0.0295  1.1439  1.1345
19082SOL    HW269306   4.855   5.320   5.969  0.5216 -0.7795 -0.7646
19083SOL     OW69307   3.438   1.258   4.753 -0.3512 -0.1016  0.0078
19083SOL    HW169308   3.425   1.319   4.674  1.8827 -1.9148 -1.8477
19083SOL    HW269309   3.367   1.187   4.752 -1.3713  0.8972  0.6516
19084SOL     OW69310   7.704   6.037   2.542  0.6254  0.1144 -0.1371
19084SOL    HW169311   7.767   6.114   2.551 -0.1541  0.7730 -0.2925
19084SOL    HW269312   7.680   6.024   2.446  0.4274 -0.0473 -0.0672
19085SOL     OW69313   4.173   7.944   8.214 -0.5978 -0.7564  0.7543
19085SOL    HW169314   4.244   7.974   8.150 -1.2048 -1.4216 -0.2455
19085SOL    HW269315   4.195   7.853   8.248 -1.1841 -1.1477  0.1040
19086SOL     OW69316   7.267   1.211   3.160 -0.1438  0.4908 -0.4949
19086SOL    HW169317   7.193   1.206   3.092 -0.0869 -0.6479 -0.4753
19086SOL    HW269318   7.307   1.121   3.172 -0.1052  0.6983  1.0003
19087SOL     OW69319   1.988   3.944   5.998  0.2331  0.2035  0.0271
19087SOL    HW169320   1.916   3.984   6.055 -0.2897 -0.0542 -0.4502
19087SOL    HW269321   1.946   3.884   5.929  0.9450 -0.4828  0.1855
19088SOL     OW69322   1.039   4.074   1.835 -0.0082  0.0044 -0.4943
19088SOL    HW169323   0.991   3.992   1.866 -1.5542  0.8152 -0.7029
19088SOL    HW269324   1.007   4.153   1.888 -0.3761  0.8796 -1.9977
19089SOL     OW69325   6.298   4.757   2.670  0.0830 -0.4664  0.6961
19089SOL    HW169326   6.337   4.665   2.664 -0.5461 -0.8313  2.0078
19089SOL    HW269327   6.336   4.805   2.749 -0.6825 -0.1353  0.8778
19090SOL     OW69328   3.216   5.916   2.524  0.7203 -0.6212 -0.0447
19090SOL    HW169329   3.210   5.982   2.598  0.7739  1.6288 -1.9830
19090SOL    HW269330   3.208   5.823   2.561  1.2899  0.4090  2.7974
19091SOL     OW69331   6.697   7.784   2.642  0.8520  0.4645 -0.1292
19091SOL    HW169332   6.792   7.790   2.673  0.7178  2.5657 -0.0375
19091SOL    HW269333   6.636   7.772   2.721  0.9958 -0.4602 -0.1526
19092SOL     OW69334   4.149   9.359   9.020  0.2517  0.1713  0.2453
19092SOL    HW169335   4.097   9.273   9.026  0.0357  0.3208  0.5248
19092SOL    HW269336   4.107   9.417   8.951  1.0850 -0.4166 -0.7692
19093SOL     OW69337   6.369   4.007   2.191 -0.0884 -0.4911 -0.3466
19093SOL    HW169338   6.434   4.023   2.116  1.2398 -1.1806  0.6327
19093SOL    HW269339   6.277   3.994   2.153  0.2713  0.8178 -1.7343
19094SOL     OW69340   5.344   4.526   3.818  0.1886 -0.4100 -0.2030
19094SOL    HW169341   5.302   4.613   3.792  0.4956 -0.3435 -0.4901
19094SOL    HW269342   5.303   4.492   3.902  0.5898  0.3978  0.3244
19095SOL     OW69343   9.135   6.522   4.689 -0.5996  0.3205 -0.2130
19095SOL    HW169344   9.158   6.427   4.668  2.5749  1.0629 -0.3325
19095SOL    HW269345   9.091   6.526   4.779 -0.2092 -1.1964  0.0617
19096SOL     OW69346   2.139   6.183   4.371  0.2351  0.3481 -0.5766
19096SOL    HW169347   2.173   6.098   4.412 -0.1121  0.7267  0.4897
19096SOL    HW269348   2.214   6.229   4.323  0.9264  0.5074  0.6413
19097SOL     OW69349   4.468   7.275   4.448  0.3331 -0.4097 -0.0291
19097SOL    HW169350   4.522   7.358   4.460 -0.1828  0.0220 -0.6633
19097SOL    HW269351   4.467   7.223   4.533  1.3573 -0.1847  0.1163
19098SOL     OW69352   7.117   9.196   3.731 -0.2606  0.8362 -0.5533
19098SOL    HW169353   7.169   9.221   3.813  0.6749  1.5952 -1.3764
19098SOL    HW269354   7.025   9.167   3.758  0.0710  0.9961  0.7767
19099SOL     OW69355   2.770   5.830   1.894 -0.0526  0.2701 -0.0079
19099SOL    HW169356   2.804   5.737   1.907  1.4550  0.9014  0.6838
19099SOL    HW269357   2.814   5.871   1.814 -0.0123  0.7003  0.2296
19100SOL     OW69358   6.707   8.411   3.623  0.2034  0.1232  0.5689
19100SOL    HW169359   6.740   8.503   3.600 -0.6410  0.3474  0.2239
19100SOL    HW269360   6.764   8.343   3.577 -1.6471  0.5737 -2.5799
19101SOL     OW69361   1.492   6.964   6.366 -0.1329  0.2789 -0.2710
19101SOL    HW169362   1.478   6.867   6.344 -2.1185  0.1417  1.4903
19101SOL    HW269363   1.408   7.015   6.346 -0.4137  0.9506  2.5146
19102SOL     OW69364   5.403   5.613   2.865 -0.5391  0.3879  0.4229
19102SOL    HW169365   5.439   5.611   2.772 -0.9533  1.9910  0.2258
19102SOL    HW269366   5.466   5.564   2.925  0.9042  1.3209 -0.2928
19103SOL     OW69367   9.357   4.763   2.723  0.5479 -0.2521 -0.6633
19103SOL    HW169368   9.324   4.790   2.632  0.8215 -0.2078 -0.7506
19103SOL    HW269369   9.456   4.750   2.719  0.3510 -1.8329 -0.7686
19104SOL     OW69370   9.106   8.109   5.359 -0.1898 -0.2589 -0.5279
19104SOL    HW169371   9.060   8.126   5.446 -1.4105 -2.4096 -0.7183
19104SOL    HW269372   9.199   8.075   5.377 -0.1395  0.0863 -0.0979
19105SOL     OW69373   7.344   9.018   6.551 -0.4498  0.1780 -0.3108
19105SOL    HW169374   7.271   8.985   6.611 -0.1426 -0.0682 -0.0754
19105SOL    HW269375   7.311   9.016   6.456 -0.2915 -1.2129 -0.3429
19106SOL     OW69376   4.811   3.456   5.762 -0.3243 -0.6773 -0.9755
19106SOL    HW169377   4.815   3.538   5.819  0.7327 -1.4117  0.0416
19106SOL    HW269378   4.723   3.410   5.777 -1.3931  0.8493 -2.4043
19107SOL     OW69379   3.681   9.442   4.365  0.6168  0.1579 -0.7747
19107SOL    HW169380   3.777   9.467   4.379  1.0141 -1.6064 -0.2153
19107SOL    HW269381   3.639   9.420   4.453 -0.0921  0.2019 -1.1039
19108SOL     OW69382   0.697   0.175   0.295  0.4386 -0.2082 -0.3593
19108SOL    HW169383   0.672   0.270   0.316 -0.4562 -0.4539 -0.2966
19108SOL    HW269384   0.779   0.151   0.346  0.1562  0.2546  0.3303
19109SOL     OW69385   6.267   7.448   3.042 -0.3395 -0.0835 -0.0214
19109SOL    HW169386   6.347   7.481   3.091  0.1417  0.1782 -0.9637
19109SOL    HW269387   6.204   7.523   3.025 -0.9318 -0.3456  0.9802
19110SOL     OW69388   0.539   3.190   4.293  0.5038 -0.2203  0.1818
19110SOL    HW169389   0.550   3.160   4.387  0.0812  0.0633  0.3216
19110SOL    HW269390   0.555   3.114   4.231  0.1142 -0.5646  0.5061
19111SOL     OW69391   2.452   6.448   1.783  0.4437  0.2120 -0.8910
19111SOL    HW169392   2.479   6.543   1.767  1.9689 -0.1931 -0.7894
19111SOL    HW269393   2.489   6.390   1.711  1.2674 -0.5939  0.1684
19112SOL     OW69394   0.947   5.657   2.047  0.2735  0.1299  0.1555
19112SOL    HW169395   0.927   5.560   2.063 -1.0730  0.6036  1.5864
19112SOL    HW269396   1.036   5.680   2.086  0.8356 -0.6363 -0.6578
19113SOL     OW69397   0.273   5.661   1.571 -0.3263  0.0920 -0.4695
19113SOL    HW169398   0.366   5.685   1.598  0.0681  0.0439 -1.7366
19113SOL    HW269399   0.240   5.727   1.504 -0.6615 -0.7078 -1.1075
19114SOL     OW69400   7.306   9.048   3.575 -0.1784  1.1710  0.0988
19114SOL    HW169401   7.285   9.040   3.477  0.2487  1.4350 -0.0172
19114SOL    HW269402   7.241   9.109   3.619 -2.2424 -1.2921  0.5868
19115SOL     OW69403   6.828   1.573   3.005  0.0769  0.2890  0.9826
19115SOL    HW169404   6.882   1.509   3.059  0.5452 -2.0852 -2.1818
19115SOL    HW269405   6.887   1.648   2.975  0.1881  0.7660  2.3316
19116SOL     OW69406   5.877   6.190   1.149 -0.1340 -0.2411  0.6702
19116SOL    HW169407   5.792   6.231   1.116  0.1974 -0.9393 -1.1160
19116SOL    HW269408   5.907   6.237   1.232 -1.4913  0.9418  0.5055
19117SOL     OW69409   7.070   2.505   7.778 -0.0780 -0.4969  0.3082
19117SOL    HW169410   7.032   2.597   7.790  2.9579  0.7826  0.5136
19117SOL    HW269411   7.072   2.458   7.866  0.8528  0.2651  0.6983
19118SOL     OW69412   6.136   8.078   5.590  0.8012 -0.6532  0.2073
19118SOL    HW169413   6.080   8.011   5.638 -0.7641  0.2479 -0.3042
19118SOL    HW269414   6.174   8.143   5.656  1.5165 -1.4494  0.5918
19119SOL     OW69415   5.685   2.518   2.620 -0.1349 -0.6633  0.2389
19119SOL    HW169416   5.690   2.554   2.527 -0.5471  0.2185  0.5587
19119SOL    HW269417   5.614   2.567   2.671 -0.4002 -1.6218  0.8044
19120SOL     OW69418   9.646   5.747   2.322  0.1394  0.6980 -0.9663
19120SOL    HW169419   9.604   5.660   2.298  0.0849  0.9115 -1.6683
19120SOL    HW269420   9.670   5.747   2.419 -1.8493  0.7322 -0.4557
19121SOL     OW69421   7.486   5.318   9.726  0.3001 -0.2363 -0.1340
19121SOL    HW169422   7.512   5.269   9.809 -0.9441  0.1216  0.4745
19121SOL    HW269423   7.449   5.254   9.659  2.1788 -0.6711 -0.7997
19122SOL     OW69424   1.171   7.989   4.402  0.0824  0.4140  0.1192
19122SOL    HW169425   1.205   8.041   4.481 -0.2957  0.8294  0.0106
19122SOL    HW269426   1.159   7.893   4.428  0.7099  0.3936  0.3450
19123SOL     OW69427   7.495   2.544   0.135  0.5152 -0.3922  0.0524
19123SOL    HW169428   7.562   2.608   0.173 -0.1887 -1.3613  3.1131
19123SOL    HW269429   7.411   2.593   0.111  0.9388  0.2352 -0.1355
19124SOL     OW69430   7.802   9.111   3.351 -0.1056  0.3149 -0.8490
19124SOL    HW169431   7.879   9.118   3.415  0.9052  1.5497 -2.1500
19124SOL    HW269432   7.717   9.137   3.397 -0.1804 -3.5012  1.3257
19125SOL     OW69433   5.915   4.528   4.555 -0.7665 -0.1923  0.1260
19125SOL    HW169434   5.891   4.441   4.598 -0.5710 -0.1642  0.2948
19125SOL    HW269435   5.979   4.511   4.479  0.1592 -0.1031  0.8673
19126SOL     OW69436   4.767   6.699   4.587 -0.0144 -0.3764 -0.4672
19126SOL    HW169437   4.777   6.784   4.535 -2.8836 -0.3212 -0.9843
19126SOL    HW269438   4.742   6.720   4.681 -1.6025 -0.6451 -0.8166
19127SOL     OW69439   3.205   1.216   4.339 -0.0625 -0.6566 -0.1940
19127SOL    HW169440   3.171   1.195   4.431 -0.7775 -1.0799 -0.5550
19127SOL    HW269441   3.282   1.156   4.318 -1.5672 -2.4047 -0.8920
19128SOL     OW69442   2.271   8.351   5.915 -0.2016  0.0212  0.1659
19128SOL    HW169443   2.224   8.438   5.933  1.2069  1.0682 -0.9908
19128SOL    HW269444   2.356   8.348   5.968 -1.5780 -1.9158  2.3527
19129SOL     OW69445   7.539   8.392   7.291  0.4194  0.7261 -0.2365
19129SOL    HW169446   7.491   8.309   7.262  0.4951  0.6713 -0.2067
19129SOL    HW269447   7.526   8.463   7.221 -0.8333  1.1475  0.4186
19130SOL     OW69448   9.619   1.491   7.953  0.0995 -1.2068 -0.4326
19130SOL    HW169449   9.661   1.520   7.867 -2.0561 -2.4580 -1.9789
19130SOL    HW269450   9.563   1.565   7.990  2.0322 -0.2325  0.5743
19131SOL     OW69451   1.298   7.148   6.275  0.0582  0.2581  0.7536
19131SOL    HW169452   1.325   7.235   6.317 -0.5363  1.7331 -1.7559
19131SOL    HW269453   1.218   7.163   6.216  0.6048 -1.7684 -0.5751
19132SOL     OW69454   3.646   9.708   2.645  0.2658  0.1663  0.4441
19132SOL    HW169455   3.694   9.634   2.597  0.4100  0.4180  0.1999
19132SOL    HW269456   3.614   9.675   2.734  2.1435  0.4287  1.2354
19133SOL     OW69457   5.748   8.875   4.856 -0.9773 -0.2144  1.1456
19133SOL    HW169458   5.837   8.863   4.812 -0.9556 -1.3813  1.4909
19133SOL    HW269459   5.675   8.860   4.788 -0.9329 -0.9757  1.2685
19134SOL     OW69460   5.280   8.577   6.374  0.4225 -0.1012  0.1098
19134SOL    HW169461   5.317   8.583   6.281  0.3708  0.6147  0.1276
19134SOL    HW269462   5.180   8.582   6.371  0.3872 -0.7395  0.1582
19135SOL     OW69463   5.881   6.994   1.865 -0.1112  0.2693 -0.1185
19135SOL    HW169464   5.975   7.027   1.873  0.2376 -0.8981  0.6498
19135SOL    HW269465   5.835   7.042   1.790  0.4823  2.2575  0.7471
19136SOL     OW69466   5.445   5.964   2.926  0.1572 -0.3358  0.3148
19136SOL    HW169467   5.430   5.902   2.850  0.5323 -0.3365  0.2394
19136SOL    HW269468   5.477   6.052   2.891 -1.2499  0.2025  0.3544
19137SOL     OW69469   3.846   6.727   3.016  0.3052  0.8259  0.3709
19137SOL    HW169470   3.851   6.676   2.930  0.4001 -2.4301  2.2225
19137SOL    HW269471   3.929   6.782   3.028  0.9026  0.2285 -0.9810
19138SOL     OW69472   3.555   4.907   5.633 -0.1175 -0.4458  0.1080
19138SOL    HW169473   3.635   4.876   5.684 -1.0049 -1.0313  1.1603
19138SOL    HW269474   3.577   4.994   5.587  1.3666 -1.0022 -0.2875
19139SOL     OW69475   5.589   7.322   3.786 -0.4999 -0.3518 -0.3380
19139SOL    HW169476   5.591   7.224   3.805  0.4574 -1.1726 -4.1629
19139SOL    HW269477   5.681   7.353   3.761 -0.9675  1.3168 -0.0292
19140SOL     OW69478   6.581   3.814   1.869  0.4412 -0.1048  0.4079
19140SOL    HW169479   6.522   3.879   1.916  0.9444 -0.2501  1.2438
19140SOL    HW269480   6.579   3.832   1.771 -1.5536 -0.5483  0.3442
19141SOL     OW69481   1.390   7.380   4.585  0.1488  0.8713  0.2758
19141SOL    HW169482   1.353   7.293   4.553 -1.6967  1.7504 -0.0662
19141SOL    HW269483   1.468   7.363   4.645 -0.5390 -1.0334  0.6758
19142SOL     OW69484   6.514   1.617   0.249 -0.7507  0.2774  0.4028
19142SOL    HW169485   6.574   1.697   0.254 -0.8241  0.5271 -2.1057
19142SOL    HW269486   6.432   1.633   0.304 -0.1063  1.3346  1.0731
19143SOL     OW69487   7.768   5.696   0.332  0.0149  0.9229 -0.2293
19143SOL    HW169488   7.694   5.753   0.295  0.7932  0.9307 -1.8555
19143SOL    HW269489   7.806   5.640   0.258  1.2151  0.4629  0.7307
19144SOL     OW69490   5.858   6.408   3.645  0.4190  0.1199 -0.3790
19144SOL    HW169491   5.759   6.421   3.645  0.2716 -0.9439 -1.3519
19144SOL    HW269492   5.899   6.462   3.571  0.3270 -1.0294 -1.2950
19145SOL     OW69493   7.565   0.520   2.717  0.0219 -0.2938 -0.1568
19145SOL    HW169494   7.638   0.452   2.730  1.8909  1.7314  0.2529
19145SOL    HW269495   7.541   0.525   2.620  1.6431  0.2200 -0.5453
19146SOL     OW69496   0.490   5.148   4.769 -0.2191  0.2876 -0.6784
19146SOL    HW169497   0.390   5.143   4.766 -0.1682 -1.1424 -0.3647
19146SOL    HW269498   0.523   5.113   4.857  0.6340 -0.7956 -1.4039
19147SOL     OW69499   6.332   7.235   6.920  0.2234 -0.0720 -0.0236
19147SOL    HW169500   6.310   7.302   6.849  0.5635 -0.1055 -0.1614
19147SOL    HW269501   6.425   7.200   6.905  0.2200 -0.2289  0.3194
19148SOL     OW69502   5.665   2.250   9.046 -0.0483 -0.1679  0.2288
19148SOL    HW169503   5.727   2.172   9.039 -0.3143 -0.3431 -0.1587
19148SOL    HW269504   5.594   2.229   9.113 -1.1485 -0.9586 -1.1684
19149SOL     OW69505   2.210   5.285   9.941 -0.0600 -0.3648  0.1288
19149SOL    HW169506   2.116   5.296   9.970  0.3879  2.7823  0.5841
19149SOL    HW269507   2.216   5.301   9.842 -0.1795 -1.7721 -0.1090
19150SOL     OW69508   6.933   5.520   1.094 -0.0109  0.8034 -0.0351
19150SOL    HW169509   6.874   5.576   1.035 -1.9537  0.4486  1.5046
19150SOL    HW269510   7.000   5.578   1.140 -0.1030  1.4330 -0.6819
19151SOL     OW69511   2.469   5.997   7.504  0.8483  0.7420  0.2530
19151SOL    HW169512   2.433   5.967   7.416 -1.4899  1.1445  1.0275
19151SOL    HW269513   2.399   5.985   7.575  2.0595  2.0671  1.7246
19152SOL     OW69514   5.873   7.709   3.156  0.1623  0.4745 -0.0770
19152SOL    HW169515   5.892   7.632   3.218 -1.0441 -0.1013 -0.3952
19152SOL    HW269516   5.936   7.784   3.175  0.4989 -0.1002  1.1342
19153SOL     OW69517   4.955   3.798   0.885 -0.3716 -0.1442 -0.8020
19153SOL    HW169518   4.979   3.835   0.796  2.0964 -1.7153 -0.8478
19153SOL    HW269519   4.984   3.702   0.890  0.6576  0.2765  2.1202
19154SOL     OW69520   9.943   8.932   4.247 -0.1139 -0.5356  0.3779
19154SOL    HW169521   9.990   8.962   4.330 -0.7414  0.8940  0.2305
19154SOL    HW269522   9.993   8.966   4.167 -0.5591 -0.2705  0.2074
19155SOL     OW69523   5.369   4.634   7.691  0.6086 -0.0952 -0.7582
19155SOL    HW169524   5.356   4.574   7.612  0.4981  0.3996 -1.1145
19155SOL    HW269525   5.464   4.629   7.721 -0.3098 -3.7961  1.9093
19156SOL     OW69526   1.591   2.370   7.844 -0.1658 -0.0964  0.4848
19156SOL    HW169527   1.643   2.444   7.802  2.9788 -1.2690  2.2039
19156SOL    HW269528   1.592   2.290   7.784  0.1793 -0.1697  0.5868
19157SOL     OW69529   1.163   5.626   6.460  0.2965  0.1443  0.1850
19157SOL    HW169530   1.218   5.580   6.530  1.5391  0.3729 -0.6350
19157SOL    HW269531   1.090   5.678   6.505  0.8928  0.0415  1.3023
19158SOL     OW69532   9.418   7.920   3.807  0.0059  0.9291 -0.1237
19158SOL    HW169533   9.477   7.979   3.752 -0.3750  1.9232  0.5090
19158SOL    HW269534   9.450   7.920   3.902 -0.6353  1.0020  0.1012
19159SOL     OW69535   6.751   0.196   1.791  0.1651  0.5088  0.1449
19159SOL    HW169536   6.677   0.153   1.739  0.1216  0.8066 -0.0423
19159SOL    HW269537   6.722   0.209   1.885 -0.7168  2.2959 -0.3449
19160SOL     OW69538   2.779   3.546   7.395  0.2382  0.0014 -0.3390
19160SOL    HW169539   2.848   3.578   7.460  0.2143  1.5852 -1.0718
19160SOL    HW269540   2.821   3.535   7.305  0.3127 -2.3671 -0.0392
19161SOL     OW69541   6.552   9.511   3.197  0.0420 -0.0457 -0.3472
19161SOL    HW169542   6.489   9.466   3.261 -2.5028  0.9698 -2.0584
19161SOL    HW269543   6.543   9.469   3.107  0.9588  0.9018 -0.8837
19162SOL     OW69544   7.966   2.161   9.421  0.0213 -0.1003  0.2854
19162SOL    HW169545   7.997   2.240   9.472  0.7886  0.0553 -0.4158
19162SOL    HW269546   7.931   2.092   9.484 -0.8882  0.8920  0.8784
19163SOL     OW69547   5.454   6.655   2.271  0.4689  0.0138  0.0157
19163SOL    HW169548   5.471   6.565   2.311 -0.1414 -0.0081  0.2355
19163SOL    HW269549   5.355   6.670   2.264  0.5700  0.4975 -0.4003
19164SOL     OW69550   8.141   4.784   3.732 -0.1855  0.6279 -0.3303
19164SOL    HW169551   8.132   4.689   3.700  1.8748  0.1712  0.4189
19164SOL    HW269552   8.174   4.841   3.657 -0.0434  0.4847 -0.3783
19165SOL     OW69553   4.053   9.146   3.410 -0.1866 -0.4363 -0.4610
19165SOL    HW169554   4.002   9.184   3.488  1.3534  0.3185  0.1876
19165SOL    HW269555   4.008   9.173   3.325 -0.4792  0.7980  0.0759
19166SOL     OW69556   7.125   5.414   7.148 -0.9234  0.1532  0.3080
19166SOL    HW169557   7.160   5.447   7.236  0.3378 -1.1568  0.3285
19166SOL    HW269558   7.128   5.488   7.081 -2.5622  1.3593  1.5376
19167SOL     OW69559   5.457   7.197   5.823 -0.1518 -0.8854  0.4797
19167SOL    HW169560   5.498   7.251   5.750  1.5411 -0.7687  1.5010
19167SOL    HW269561   5.465   7.246   5.909 -0.4436 -1.8516  1.0609
19168SOL     OW69562   6.017   6.207   9.024  0.0915 -0.0396 -0.0713
19168SOL    HW169563   6.094   6.251   9.071  2.3452 -1.4679 -2.3185
19168SOL    HW269564   6.001   6.117   9.064 -0.1218  0.0744  0.1008
19169SOL     OW69565   4.445   4.379   6.413 -0.1791  0.3485 -0.3399
19169SOL    HW169566   4.456   4.415   6.506  1.8026 -0.6617 -0.1651
19169SOL    HW269567   4.374   4.309   6.412  1.7149 -1.6375  1.0091
19170SOL     OW69568   9.013   2.943   5.246  0.1130 -0.2617  0.0757
19170SOL    HW169569   8.941   2.896   5.297  0.1166 -1.7748 -1.2798
19170SOL    HW269570   9.030   2.895   5.160  2.2671  0.4802  0.0677
19171SOL     OW69571   0.161   5.862   1.414  0.2275 -0.0330  0.6479
19171SOL    HW169572   0.120   5.874   1.324 -0.0377  1.0821  0.9082
19171SOL    HW269573   0.089   5.862   1.484  0.5953  1.2106  1.0387
19172SOL     OW69574   4.112   4.914   1.194 -0.3341  0.7115 -0.2245
19172SOL    HW169575   4.136   4.862   1.112  0.9502 -0.2032  0.7044
19172SOL    HW269576   4.013   4.921   1.201 -0.5662 -1.9866 -0.1704
19173SOL     OW69577   1.382   9.073   7.302 -0.2930 -0.3354  0.7420
19173SOL    HW169578   1.285   9.098   7.306 -0.2441 -0.2332  1.3197
19173SOL    HW269579   1.405   9.015   7.380  0.2008 -0.0391  0.8199
19174SOL     OW69580   4.628   7.808   9.877  0.4218 -0.1365  0.3969
19174SOL    HW169581   4.683   7.752   9.939 -0.4295 -0.2660  1.0503
19174SOL    HW269582   4.575   7.748   9.817 -1.4416 -0.0933  1.9311
19175SOL     OW69583   3.283   6.756   5.118  0.2329 -0.8987  0.1842
19175SOL    HW169584   3.206   6.814   5.092  1.3346  0.7537  0.5385
19175SOL    HW269585   3.347   6.748   5.041  0.6230 -0.7574  0.4914
19176SOL     OW69586   4.115   5.879   4.830  0.1847 -0.6177 -0.0561
19176SOL    HW169587   4.032   5.829   4.857  0.1905 -0.7248 -0.2371
19176SOL    HW269588   4.089   5.962   4.781  0.1553 -0.0076  0.9820
19177SOL     OW69589   5.720   5.963   0.994 -0.5452  0.0641 -0.2454
19177SOL    HW169590   5.739   6.001   0.903  1.8862 -0.1558  0.1285
19177SOL    HW269591   5.722   6.036   1.062 -2.2016  0.2026 -0.3296
19178SOL     OW69592   9.906   6.849   4.115  0.5314  0.6206 -0.0126
19178SOL    HW169593   9.960   6.768   4.140  0.1253  0.5550  0.6595
19178SOL    HW269594   9.888   6.903   4.197  1.2106  1.6512 -0.5316
19179SOL     OW69595   2.487   9.294   9.652  0.3336  0.3207 -0.0691
19179SOL    HW169596   2.485   9.259   9.558  1.0235  0.6860 -0.2221
19179SOL    HW269597   2.559   9.364   9.660  1.7394 -1.2453  1.2828
19180SOL     OW69598   7.600   4.918   1.130  0.2202 -0.2896  0.5578
19180SOL    HW169599   7.627   4.908   1.226 -0.0966  2.0443  0.9348
19180SOL    HW269600   7.569   4.830   1.094  0.1137 -1.1430  2.6702
19181SOL     OW69601   6.167   8.654   2.235 -0.0586 -0.5239  0.2461
19181SOL    HW169602   6.154   8.681   2.331  1.0645  0.9812 -0.0000
19181SOL    HW269603   6.105   8.707   2.177  0.5936 -0.0456 -0.0273
19182SOL     OW69604   8.930   0.326   3.939 -0.2693 -0.0757 -0.2916
19182SOL    HW169605   8.974   0.406   3.979  0.3363 -1.3321  1.6626
19182SOL    HW269606   8.867   0.286   4.006 -0.6536 -1.1707 -1.2839
19183SOL     OW69607   3.808   6.930   1.975 -0.1092  0.0933 -0.0589
19183SOL    HW169608   3.819   7.007   1.912 -1.8276 -1.0405 -1.7995
19183SOL    HW269609   3.898   6.892   1.996  0.5476  0.8564 -1.3915
19184SOL     OW69610   5.629   5.199   1.946 -0.2330 -0.1798  0.5633
19184SOL    HW169611   5.683   5.244   1.875  0.1029 -0.7095  0.4775
19184SOL    HW269612   5.631   5.100   1.932 -2.4617 -0.1322 -0.3067
19185SOL     OW69613   7.901   4.172   3.580  0.1329  0.3448  0.2722
19185SOL    HW169614   7.987   4.166   3.631 -0.8061 -1.6662  1.7167
19185SOL    HW269615   7.884   4.084   3.534 -1.5614  0.4469  0.6805
19186SOL     OW69616   7.923   4.030   3.203  0.1267  0.0034 -0.0518
19186SOL    HW169617   7.925   4.120   3.247 -0.1961  0.2027 -0.4398
19186SOL    HW269618   7.984   3.968   3.252 -0.7160  0.0419  1.0665
19187SOL     OW69619   5.422   6.089   0.962 -0.5589  0.1624  0.0587
19187SOL    HW169620   5.426   6.043   0.873 -0.9104 -1.2249  0.7503
19187SOL    HW269621   5.328   6.091   0.994 -0.1309 -1.4101  1.4620
19188SOL     OW69622   2.514   8.025   4.471  0.0215  0.3542 -1.0065
19188SOL    HW169623   2.566   8.110   4.459 -0.1965  0.3062 -2.4286
19188SOL    HW269624   2.558   7.951   4.420  0.0415 -0.3159 -0.0213
19189SOL     OW69625   0.214   2.363   5.801 -0.3887 -0.2203 -0.3749
19189SOL    HW169626   0.310   2.336   5.811 -0.6276 -0.3427  2.0374
19189SOL    HW269627   0.155   2.291   5.838 -1.3129  0.6427 -0.1334
19190SOL     OW69628   4.060   3.665   0.438 -0.5391 -0.1568 -0.1791
19190SOL    HW169629   4.075   3.755   0.397 -0.9255 -0.5848 -1.2773
19190SOL    HW269630   4.068   3.672   0.537  3.0397  0.4133 -0.4214
19191SOL     OW69631   0.523   8.094   3.204  0.5477  0.6700 -0.3033
19191SOL    HW169632   0.442   8.150   3.221 -0.3204 -1.0486  1.4204
19191SOL    HW269633   0.602   8.132   3.253  0.8306  2.3496 -1.9906
19192SOL     OW69634   5.104   5.621   4.939  0.3218 -0.0752 -0.1957
19192SOL    HW169635   5.122   5.546   5.003  1.7231 -0.3964 -0.9252
19192SOL    HW269636   5.032   5.680   4.975 -0.2187 -1.3107  0.7807
19193SOL     OW69637   7.612   9.904   3.541 -0.3379 -0.1320  0.4102
19193SOL    HW169638   7.708   9.880   3.559 -0.5528 -2.8015 -1.6213
19193SOL    HW269639   7.605  10.003   3.525  2.2253  0.0065 -0.1276
19194SOL     OW69640   4.511   7.265   2.584  0.5938 -0.5575 -0.5146
19194SOL    HW169641   4.588   7.326   2.565  1.1409 -0.4556  1.9135
19194SOL    HW269642   4.433   7.291   2.527  0.8775  2.2808  0.3426
19195SOL     OW69643   5.955   6.936   4.711 -0.0102  0.7416 -0.5404
19195SOL    HW169644   5.948   6.935   4.612  1.2440 -0.7828 -0.6384
19195SOL    HW269645   5.994   7.022   4.741  0.8589  0.6765 -1.4714
19196SOL     OW69646   8.347   7.639   5.383  0.4659  0.5988  0.1207
19196SOL    HW169647   8.395   7.724   5.403  3.8168 -1.9243  3.7011
19196SOL    HW269648   8.401   7.585   5.318 -0.0093 -0.1363  0.3302
19197SOL     OW69649   5.843   7.980   0.392 -0.2972  0.1263  0.0652
19197SOL    HW169650   5.751   7.966   0.356 -0.8608  0.3333  1.3756
19197SOL    HW269651   5.878   8.069   0.364  0.0887 -0.5252 -1.6112
19198SOL     OW69652   7.963   7.094   2.674  0.2569 -0.0414 -0.0418
19198SOL    HW169653   7.982   7.179   2.625  1.2972 -0.4520 -0.3444
19198SOL    HW269654   7.900   7.114   2.749  0.6957  1.0515  0.0545
19199SOL     OW69655   5.948   6.966   2.370  0.5043 -0.4654  0.1122
19199SOL    HW169656   5.877   6.934   2.433  0.9937 -1.3119  0.2427
19199SOL    HW269657   5.945   6.911   2.287 -1.3307  1.8111 -1.3972
19200SOL     OW69658   6.877   7.981   9.496  0.4913  0.3132 -0.4034
19200SOL    HW169659   6.889   7.956   9.592  1.0038 -0.4939 -0.6721
19200SOL    HW269660   6.783   7.962   9.468  0.3996  0.3532 -0.1245
19201SOL     OW69661   4.136   3.886   0.040  0.0710  0.1443 -0.4262
19201SOL    HW169662   4.046   3.847   0.023  0.3002  0.2658 -1.9238
19201SOL    HW269663   4.156   3.881   0.138 -2.1670  1.4343  0.1323
19202SOL     OW69664   1.289   3.404   8.465 -0.3892 -0.5079 -0.2984
19202SOL    HW169665   1.276   3.311   8.501  1.0796 -1.0703 -1.1757
19202SOL    HW269666   1.340   3.399   8.379  0.4683  1.1697  0.0969
19203SOL     OW69667   1.665   7.625   1.216  0.0469 -0.4730 -0.0773
19203SOL    HW169668   1.572   7.645   1.187 -0.1464 -0.4710  0.5593
19203SOL    HW269669   1.669   7.533   1.255  0.2526 -0.3641  0.1622
19204SOL     OW69670   5.985   7.810   0.005  0.1089 -0.4291  0.2600
19204SOL    HW169671   5.933   7.895   0.011 -0.3765 -0.6977 -0.1033
19204SOL    HW269672   6.082   7.830   0.016 -0.0894  0.0458  1.1335
19205SOL     OW69673   4.515   9.632   9.569  0.0175 -0.5822  0.7387
19205SOL    HW169674   4.510   9.554   9.507  0.0110 -0.3835  0.4891
19205SOL    HW269675   4.544   9.601   9.660  0.6214 -0.7854  0.4791
19206SOL     OW69676   6.674   0.297   8.833  0.0603  0.0791  0.2188
19206SOL    HW169677   6.602   0.253   8.779  1.3868 -0.7487 -0.9231
19206SOL    HW269678   6.735   0.227   8.870 -0.4492  0.6961  2.2461
19207SOL     OW69679   9.149   2.195   8.949 -0.1238 -0.9231  0.3074
19207SOL    HW169680   9.115   2.116   9.000 -1.2959  0.1751  1.2655
19207SOL    HW269681   9.085   2.218   8.876 -1.5793  1.1871  2.1589
19208SOL     OW69682   6.026   3.526   4.538 -0.4199 -0.0216 -0.2508
19208SOL    HW169683   6.015   3.599   4.606 -3.8651  0.1983 -0.9539
19208SOL    HW269684   6.075   3.449   4.579  1.5606  1.8878  1.0825
19209SOL     OW69685   5.611   0.910   1.777  0.3600 -0.0469 -0.4590
19209SOL    HW169686   5.540   0.883   1.712 -0.1803 -0.9994  0.5099
19209SOL    HW269687   5.701   0.899   1.735  0.0886 -2.2038 -0.5335
19210SOL     OW69688   5.324   4.042   7.412  0.4670  0.4318  0.3795
19210SOL    HW169689   5.357   4.017   7.322 -2.3962 -2.6419  0.0924
19210SOL    HW269690   5.377   3.994   7.482  1.2327  1.0899  0.2584
19211SOL     OW69691   3.573   0.268   1.739  0.2304  0.3072  0.6103
19211SOL    HW169692   3.656   0.247   1.791  0.1483 -0.0613  0.5922
19211SOL    HW269693   3.597   0.328   1.662  0.7749 -1.2165 -0.4187
19212SOL     OW69694   7.714   2.807   5.802 -0.0199  1.1085 -0.4485
19212SOL    HW169695   7.797   2.805   5.858 -0.2143 -0.3999 -0.1932
19212SOL    HW269696   7.635   2.785   5.859 -0.0106 -2.2788 -1.6290
19213SOL     OW69697   4.424   9.694   3.023  0.4414 -0.0400 -0.1328
19213SOL    HW169698   4.441   9.603   3.060  0.0059 -1.0640 -2.4273
19213SOL    HW269699   4.507   9.730   2.982 -0.1500 -0.6667 -1.9107
19214SOL     OW69700   4.369   6.533   4.969 -0.1645 -0.0381 -0.2926
19214SOL    HW169701   4.311   6.505   5.045 -1.0125  0.9751 -0.5503
19214SOL    HW269702   4.453   6.480   4.970  0.1611  0.4550  1.7898
19215SOL     OW69703   2.437   5.826   0.484  0.2595 -0.1171 -0.0986
19215SOL    HW169704   2.440   5.762   0.407  0.9662 -0.5935  0.3147
19215SOL    HW269705   2.461   5.918   0.452 -0.8814 -0.0209 -0.7185
19216SOL     OW69706   0.465   4.046   9.389  0.3613  0.2469  0.0233
19216SOL    HW169707   0.468   4.067   9.487  0.7285  0.1971  0.0242
19216SOL    HW269708   0.412   3.962   9.375  1.0021 -0.1983  0.2587
19217SOL     OW69709   8.631   5.574   3.107 -0.1914 -0.1704 -0.6311
19217SOL    HW169710   8.675   5.657   3.142  0.2731 -0.5487 -0.3178
19217SOL    HW269711   8.685   5.494   3.134 -1.0235 -0.6313 -0.3224
19218SOL     OW69712   6.935   6.356   5.021  0.5430  0.6838 -0.5848
19218SOL    HW169713   6.945   6.394   4.929  0.4994  1.7125 -0.1733
19218SOL    HW269714   6.838   6.339   5.039  0.6723 -0.9445 -1.2746
19219SOL     OW69715   5.874   5.881   0.576 -0.0255 -0.2748  0.0209
19219SOL    HW169716   5.968   5.892   0.608  0.5125 -1.8438 -0.9947
19219SOL    HW269717   5.859   5.786   0.547 -1.1905  0.5719 -2.2062
19220SOL     OW69718   3.084   6.459   0.491 -0.1709  0.4799  0.1344
19220SOL    HW169719   3.079   6.551   0.530  0.7420  1.4398 -1.9645
19220SOL    HW269720   3.101   6.465   0.393 -0.5523 -1.9330 -0.1013
19221SOL     OW69721   5.058   5.884   7.100 -0.1945  0.1775 -0.2807
19221SOL    HW169722   5.124   5.913   7.170 -1.4210  0.9054  0.5967
19221SOL    HW269723   5.080   5.928   7.013  0.0875  0.9406  0.1701
19222SOL     OW69724   0.751   6.759   9.994 -0.5591 -0.2747 -0.4660
19222SOL    HW169725   0.679   6.694  10.017 -1.0356  0.9818  1.7406
19222SOL    HW269726   0.825   6.712   9.947 -0.7226 -2.4835  1.4078
19223SOL     OW69727   6.630   8.181   2.430 -0.5757 -0.1180 -0.0466
19223SOL    HW169728   6.668   8.140   2.347 -1.7702 -1.2118 -0.0521
19223SOL    HW269729   6.575   8.114   2.479 -0.9094  0.8944  0.9928
19224SOL     OW69730   4.111   7.277   5.069  0.1675 -0.1672  0.2175
19224SOL    HW169731   4.046   7.336   5.020 -0.4500 -0.4886  0.6376
19224SOL    HW269732   4.201   7.319   5.069 -0.5611  1.4432  1.6774
19225SOL     OW69733   3.318   4.306   8.230  0.2122 -0.3115 -0.1831
19225SOL    HW169734   3.398   4.362   8.210  0.7910 -1.1367 -0.2020
19225SOL    HW269735   3.256   4.357   8.290  0.6258  0.4264 -0.3703
19226SOL     OW69736   0.324   1.723   3.478 -0.6486  0.0136  0.3866
19226SOL    HW169737   0.290   1.727   3.384  0.0591 -0.9631  0.0832
19226SOL    HW269738   0.415   1.766   3.482 -0.9720  0.6581  0.7553
19227SOL     OW69739   5.423   6.302   8.612 -0.2101  0.0701  0.2138
19227SOL    HW169740   5.386   6.257   8.531 -0.2798 -0.4157  0.5165
19227SOL    HW269741   5.440   6.235   8.684  2.9545 -0.0098 -0.5201
19228SOL     OW69742   6.051   6.564   1.976 -0.5837 -0.6752 -0.1843
19228SOL    HW169743   6.051   6.635   2.046  0.2006 -1.5683  0.7247
19228SOL    HW269744   5.956   6.543   1.950 -0.8107  0.9328 -0.7165
19229SOL     OW69745   7.285   8.257   8.871  0.1445 -0.3519 -0.0518
19229SOL    HW169746   7.279   8.170   8.822  1.7089 -1.7005  2.0415
19229SOL    HW269747   7.209   8.263   8.937  0.9000 -0.8653  0.8843
19230SOL     OW69748   7.419   2.830   7.016  0.1223  0.2422  0.6751
19230SOL    HW169749   7.439   2.858   6.922 -0.2628  0.7076  0.7302
19230SOL    HW269750   7.462   2.741   7.034  0.2395  0.1737  0.0755
19231SOL     OW69751   0.957   2.245   4.626  0.4196 -0.3910 -0.4462
19231SOL    HW169752   0.890   2.181   4.588 -0.3508 -0.0532  0.3155
19231SOL    HW269753   1.011   2.197   4.696  0.3241 -0.4113 -0.3844
19232SOL     OW69754   6.638   0.692   9.717 -0.1406  0.0715  0.2868
19232SOL    HW169755   6.696   0.769   9.690  0.8563 -0.5968  0.4729
19232SOL    HW269756   6.668   0.610   9.670 -1.2688 -0.1911  0.0050
19233SOL     OW69757   7.543   6.512   7.686 -0.6505  0.0208 -0.2764
19233SOL    HW169758   7.632   6.512   7.732 -0.0370 -1.5609 -1.4331
19233SOL    HW269759   7.487   6.437   7.721 -1.2898  0.6091 -0.0235
19234SOL     OW69760   0.289   4.893   3.041 -0.1033 -0.2284  0.3386
19234SOL    HW169761   0.366   4.838   3.071 -0.5868 -1.2882 -0.3375
19234SOL    HW269762   0.299   4.987   3.075  1.0368 -0.5758  0.9643
19235SOL     OW69763   7.614   2.916   2.485 -0.2111  0.3875  0.3336
19235SOL    HW169764   7.530   2.912   2.539 -0.3433 -0.4887  0.0681
19235SOL    HW269765   7.688   2.870   2.535 -0.6122 -1.4372 -0.7216
19236SOL     OW69766   8.992   8.389   6.637  0.5876  0.2066 -0.3358
19236SOL    HW169767   8.924   8.343   6.694 -0.2058 -0.4633 -1.7677
19236SOL    HW269768   9.006   8.482   6.669  1.1961 -0.5942  1.7722
19237SOL     OW69769   2.334   4.608   4.415 -0.1502 -0.0145  0.1513
19237SOL    HW169770   2.317   4.524   4.465 -2.4041 -1.9214 -3.5871
19237SOL    HW269771   2.402   4.591   4.344  1.2824  2.0295  0.9829
19238SOL     OW69772   2.351   3.511   3.446 -0.1164  0.1402  0.4004
19238SOL    HW169773   2.349   3.606   3.415 -1.3234  0.4134  1.2587
19238SOL    HW269774   2.336   3.450   3.369  3.4890  0.4719 -0.6926
19239SOL     OW69775   5.681   6.824   7.143  0.5212 -0.1680 -0.0030
19239SOL    HW169776   5.753   6.799   7.079  1.3135  0.6402  0.5553
19239SOL    HW269777   5.661   6.922   7.135  0.2815 -0.1591  0.6355
19240SOL     OW69778   5.627   6.615   3.251 -0.5461 -0.0872 -0.2480
19240SOL    HW169779   5.567   6.539   3.227 -0.8788  0.2458 -0.4663
19240SOL    HW269780   5.593   6.699   3.210 -1.4121  0.5860  1.8008
19241SOL     OW69781   7.533   5.186   5.074 -0.1765 -0.0410 -0.0305
19241SOL    HW169782   7.532   5.181   5.174  0.7766  1.9591  0.0990
19241SOL    HW269783   7.483   5.108   5.036 -2.0430  0.1079  2.0355
19242SOL     OW69784   5.681   7.886   4.596 -0.1927  0.5765  0.1847
19242SOL    HW169785   5.603   7.836   4.561  1.6679 -0.9818 -1.8940
19242SOL    HW269786   5.764   7.858   4.547  1.9432  1.0455  3.3149
19243SOL     OW69787   6.081   0.114   3.833 -0.0839 -0.2980 -0.9392
19243SOL    HW169788   6.066   0.138   3.928 -0.8648 -0.0947 -1.1116
19243SOL    HW269789   5.993   0.110   3.785  0.1510 -1.9920 -1.2644
19244SOL     OW69790   7.730   8.270   4.128  0.2384 -0.2746 -0.0270
19244SOL    HW169791   7.812   8.274   4.070 -0.2326 -1.1202 -0.7484
19244SOL    HW269792   7.741   8.198   4.197  2.5201  3.3040  3.6042
19245SOL     OW69793   3.841   7.263   9.282 -0.1345 -0.4206 -0.0142
19245SOL    HW169794   3.854   7.174   9.239  0.6994 -0.8863  1.1977
19245SOL    HW269795   3.804   7.327   9.214 -0.3218 -1.5580 -1.0033
19246SOL     OW69796   4.967   7.924   5.258  0.1584  0.4784 -0.3366
19246SOL    HW169797   5.044   7.953   5.316 -0.1230  1.2476 -0.3445
19246SOL    HW269798   4.924   8.005   5.217  0.2348 -0.0496 -1.4716
19247SOL     OW69799   4.957   4.537   6.782  0.4588  0.0043  0.2164
19247SOL    HW169800   5.003   4.531   6.694 -0.1720 -2.1946  0.0139
19247SOL    HW269801   4.860   4.560   6.768  0.4620  0.1169  0.3732
19248SOL     OW69802   2.925   1.744   7.148  0.0647 -0.4268 -0.0308
19248SOL    HW169803   2.990   1.804   7.102 -0.2042 -0.5120 -0.5261
19248SOL    HW269804   2.839   1.793   7.161 -0.5653 -1.0862 -1.5348
19249SOL     OW69805   4.404   1.815   1.668 -0.0970  0.6203  0.2096
19249SOL    HW169806   4.475   1.744   1.674  1.4533  2.1051 -0.1159
19249SOL    HW269807   4.332   1.796   1.735  0.8883 -0.6227  0.9473
19250SOL     OW69808   8.760   5.209   5.226 -0.3730 -0.6531  0.1351
19250SOL    HW169809   8.810   5.242   5.145  2.5484 -2.1618  1.2503
19250SOL    HW269810   8.689   5.145   5.197  0.9668 -1.5499 -1.2283
19251SOL     OW69811   7.996   7.974   3.933 -0.1142  0.1256  0.0436
19251SOL    HW169812   7.931   8.043   3.902  1.0009  1.1010 -0.1858
19251SOL    HW269813   7.949   7.905   3.986 -1.4746  0.3544 -0.8407
19252SOL     OW69814   6.801   2.458   4.597 -0.7049  0.3139 -0.0113
19252SOL    HW169815   6.832   2.365   4.578 -0.6363  0.5458 -1.0385
19252SOL    HW269816   6.841   2.490   4.683  1.8240  0.5712 -1.2636
19253SOL     OW69817   4.468   6.269   3.422  0.0738  0.4124  0.2471
19253SOL    HW169818   4.457   6.171   3.442  0.3962  0.4907  0.8267
19253SOL    HW269819   4.454   6.285   3.325 -0.5928 -0.1255  0.2462
19254SOL     OW69820   0.900   6.337   3.256 -0.0937  0.1748  0.8296
19254SOL    HW169821   0.920   6.427   3.219  1.5765 -0.8834 -0.9524
19254SOL    HW269822   0.877   6.345   3.353 -1.9674  2.7032  0.2095
19255SOL     OW69823   5.085   4.270   3.558 -0.2124  0.2193 -0.4253
19255SOL    HW169824   5.108   4.237   3.650  0.2622 -0.0943 -0.6487
19255SOL    HW269825   5.039   4.358   3.564  1.1085  0.8892  0.0447
19256SOL     OW69826   9.052   6.326   6.632 -0.1602 -0.0098  0.2343
19256SOL    HW169827   9.121   6.254   6.618  1.0199  0.9101  1.1354
19256SOL    HW269828   8.976   6.288   6.684  1.1972 -0.2584  2.1325
19257SOL     OW69829   9.379   0.870   2.795  0.6947 -0.6202 -0.2626
19257SOL    HW169830   9.403   0.805   2.724 -1.7431  1.1934 -2.8248
19257SOL    HW269831   9.292   0.844   2.836 -0.6824  1.4133 -1.8446
19258SOL     OW69832   5.876   4.135   1.486  0.3503  0.2756  0.0958
19258SOL    HW169833   5.931   4.197   1.430 -0.3929  0.9356  0.0934
19258SOL    HW269834   5.927   4.050   1.501  1.2432  0.7602 -0.1646
19259SOL     OW69835   6.077   6.971   3.471  0.3008 -0.2489 -0.3050
19259SOL    HW169836   5.996   7.015   3.510  1.1765  0.5979  0.5934
19259SOL    HW269837   6.062   6.956   3.373 -0.7736  0.2837 -0.2374
19260SOL     OW69838   6.334   3.023   2.921  0.0917 -0.0350 -0.3753
19260SOL    HW169839   6.306   3.038   3.016  2.3826  1.8660  0.0521
19260SOL    HW269840   6.419   2.970   2.920 -0.0447 -0.2312 -1.3661
19261SOL     OW69841   3.771   0.863   1.707  0.1478  0.2631 -0.1378
19261SOL    HW169842   3.704   0.932   1.734 -1.8148 -1.5064 -0.3372
19261SOL    HW269843   3.789   0.871   1.609  1.2076  1.5513  0.1509
19262SOL     OW69844   6.880   5.028   1.301  0.1441  0.5706  0.0078
19262SOL    HW169845   6.967   5.004   1.259 -0.4766 -0.2863 -0.8203
19262SOL    HW269846   6.860   4.965   1.376 -1.3678 -1.4331 -2.0076
19263SOL     OW69847   6.167   8.069   6.211 -0.1206  0.1446  0.2658
19263SOL    HW169848   6.176   8.160   6.251 -1.6545  0.1859  0.5415
19263SOL    HW269849   6.077   8.060   6.168  0.6723 -0.6542 -1.2707
19264SOL     OW69850   0.508   5.095   6.904 -0.2060 -0.2719  0.0373
19264SOL    HW169851   0.470   5.162   6.968  2.2041 -0.4809  1.7887
19264SOL    HW269852   0.486   5.121   6.811  0.2929  2.7227  0.7182
19265SOL     OW69853   6.803   7.943   8.298 -0.5791  0.1665 -0.1176
19265SOL    HW169854   6.864   7.984   8.230  0.6442  0.2213  0.9812
19265SOL    HW269855   6.810   7.994   8.384 -1.9730 -0.0020  0.0988
19266SOL     OW69856   9.149   6.057   7.364  0.6246  0.0244 -0.3543
19266SOL    HW169857   9.249   6.053   7.359  0.5919  0.8324 -2.1227
19266SOL    HW269858   9.109   5.992   7.299  0.0294  1.1952 -1.1905
19267SOL     OW69859   6.672   2.121   7.918 -0.1358  0.0572 -0.3806
19267SOL    HW169860   6.583   2.106   7.962 -1.2852  2.7893 -1.6041
19267SOL    HW269861   6.657   2.154   7.825  2.0452  3.6955  0.4431
19268SOL     OW69862   8.932   5.785   7.864 -0.4062  0.7978 -0.2575
19268SOL    HW169863   8.918   5.865   7.922  0.8758  0.8446  0.0021
19268SOL    HW269864   8.872   5.711   7.893 -1.0276  1.4067  0.0034
19269SOL     OW69865   0.125   6.132   6.793  0.6213 -0.2599 -0.1145
19269SOL    HW169866   0.161   6.225   6.783  1.5556 -0.6519 -0.4898
19269SOL    HW269867   0.033   6.128   6.755  0.4751  0.5758  0.1367
19270SOL     OW69868   6.115   9.493   2.375  0.1659 -0.6217  0.2063
19270SOL    HW169869   6.182   9.520   2.444  3.2357  0.4052 -3.0717
19270SOL    HW269870   6.117   9.558   2.299 -2.9048 -1.9040 -1.0625
19271SOL     OW69871   1.647   3.111   3.838  0.4489  0.3273  0.2020
19271SOL    HW169872   1.622   3.015   3.848 -1.5329  0.7044 -0.7961
19271SOL    HW269873   1.638   3.157   3.926 -2.5852  0.4555 -0.1207
19272SOL     OW69874   5.404   7.571   5.056 -0.0097 -0.2710  0.2411
19272SOL    HW169875   5.445   7.567   5.147  1.1382 -0.0555 -0.2617
19272SOL    HW269876   5.398   7.479   5.018  0.6237 -0.2388  0.0524
19273SOL     OW69877   3.834   7.348   5.603 -0.3404  0.1024  0.0159
19273SOL    HW169878   3.832   7.313   5.696 -0.6880 -0.8891 -0.3491
19273SOL    HW269879   3.773   7.426   5.595 -1.4453 -0.7198  0.2776
19274SOL     OW69880   8.670   3.771   6.460 -0.3044 -0.5750  0.0718
19274SOL    HW169881   8.751   3.742   6.409 -1.0143 -0.9681 -0.8517
19274SOL    HW269882   8.670   3.870   6.471  0.9189 -0.6750  1.1501
19275SOL     OW69883   9.911   9.104   2.813 -0.2777 -0.1477  0.9829
19275SOL    HW169884   9.832   9.135   2.866 -0.5973 -2.0446  1.6467
19275SOL    HW269885   9.978   9.062   2.875 -0.2624 -1.5796  0.0115
19276SOL     OW69886   3.893   5.688   1.731 -0.0345  0.9046 -0.1597
19276SOL    HW169887   3.973   5.748   1.719  1.3107 -0.9929 -0.8457
19276SOL    HW269888   3.811   5.735   1.697  1.2304  1.7735 -2.0805
19277SOL     OW69889   8.901   9.356   3.041 -0.2083  0.1948  0.1776
19277SOL    HW169890   8.918   9.270   3.089  2.3212 -0.9163 -2.5405
19277SOL    HW269891   8.970   9.423   3.067  0.3541  0.0194 -0.8018
19278SOL     OW69892   0.016   5.697   8.951  0.0165 -0.2891  0.2507
19278SOL    HW169893   0.062   5.614   8.982  1.0721  0.4252  0.6370
19278SOL    HW269894   0.084   5.762   8.917 -0.9048 -0.0803 -1.2718
19279SOL     OW69895   4.479   8.692   9.438  0.4980  0.6450 -0.1375
19279SOL    HW169896   4.444   8.608   9.479  1.2709  0.6596  0.5525
19279SOL    HW269897   4.545   8.669   9.367  2.0926  0.7051  1.3141
19280SOL     OW69898   6.247   8.982   1.643 -0.5127 -0.1674 -0.2516
19280SOL    HW169899   6.169   8.945   1.694  1.2001 -3.3417  0.1687
19280SOL    HW269900   6.246   8.947   1.550  1.6595 -2.2255  0.4266
19281SOL     OW69901   6.420   6.264   5.966  0.1579  0.0858 -0.0471
19281SOL    HW169902   6.483   6.330   6.008 -0.2937  1.3023 -1.2390
19281SOL    HW269903   6.463   6.173   5.965  2.1231  0.9910 -1.2945
19282SOL     OW69904   1.206   2.226   4.504 -0.0667  0.0716  0.6696
19282SOL    HW169905   1.123   2.245   4.556 -1.2678 -0.9552 -0.8107
19282SOL    HW269906   1.202   2.134   4.467  1.5850  0.1388  0.2698
19283SOL     OW69907   1.841   7.200   5.563 -0.2225 -0.2999  0.2075
19283SOL    HW169908   1.911   7.208   5.634 -1.0012 -1.1747  1.0825
19283SOL    HW269909   1.851   7.275   5.497 -0.0786  1.0486  1.7459
19284SOL     OW69910   2.900   7.431   5.714  1.0201 -0.2387 -0.4657
19284SOL    HW169911   2.961   7.389   5.782  0.5678 -0.9353 -0.4888
19284SOL    HW269912   2.829   7.483   5.761  3.0654  2.6669 -0.4559
19285SOL     OW69913   6.573   6.960   6.134  0.6652  0.3222 -0.1699
19285SOL    HW169914   6.478   6.993   6.135  0.8228  0.7509  0.7177
19285SOL    HW269915   6.606   6.950   6.228  1.2681 -0.5042 -0.4613
19286SOL     OW69916   7.330   7.343   4.172 -0.0580  0.9039  0.7064
19286SOL    HW169917   7.318   7.435   4.134  0.7785 -0.0067 -1.8713
19286SOL    HW269918   7.426   7.317   4.164 -0.7093 -1.1146 -0.8026
19287SOL     OW69919   9.332   3.623   2.030 -0.2277 -0.1923 -0.2930
19287SOL    HW169920   9.373   3.609   2.120 -1.3766 -0.0271  0.2618
19287SOL    HW269921   9.384   3.692   1.981  0.4229 -0.3022  0.2362
19288SOL     OW69922   5.750   9.307   8.448 -0.1786  0.2887  0.0840
19288SOL    HW169923   5.702   9.223   8.476  0.5114  0.6032  2.3181
19288SOL    HW269924   5.848   9.296   8.464  0.0525  1.0851 -0.7570
19289SOL     OW69925   8.187   7.729   4.908  0.3790  0.0660  0.5440
19289SOL    HW169926   8.154   7.651   4.854 -0.3181  1.2421 -0.7754
19289SOL    HW269927   8.285   7.739   4.895  0.5219 -0.7794  0.9614
19290SOL     OW69928   5.055   6.343   7.878  0.2808 -0.0580  0.5032
19290SOL    HW169929   4.968   6.348   7.928 -0.2082 -1.8943 -0.1591
19290SOL    HW269930   5.130   6.348   7.944 -0.3116  0.8180  1.1394
19291SOL     OW69931   1.816   6.663   0.964 -0.1424  0.4105 -0.2448
19291SOL    HW169932   1.792   6.609   1.044 -0.9895 -1.0844 -1.4862
19291SOL    HW269933   1.916   6.661   0.952 -0.0668  0.1047  0.3998
19292SOL     OW69934   9.392   6.437   2.098  0.4649 -0.3662  0.3525
19292SOL    HW169935   9.326   6.498   2.141 -1.6614 -1.3707 -1.3935
19292SOL    HW269936   9.402   6.354   2.153 -1.1760 -1.0334 -0.3362
19293SOL     OW69937   6.228   6.695   3.025  0.2559  0.2097  0.2133
19293SOL    HW169938   6.160   6.631   2.988  0.3557 -0.6089  1.4218
19293SOL    HW269939   6.270   6.746   2.950 -1.2176  0.2491 -0.6057
19294SOL     OW69940   6.380   0.937   0.978  0.3989  0.2639  0.3037
19294SOL    HW169941   6.427   1.025   0.986  0.1841  0.2403  1.9228
19294SOL    HW269942   6.288   0.945   1.017 -0.2706 -0.2052 -1.1387
19295SOL     OW69943   9.327   2.926   5.554 -0.1988 -0.4672  0.4487
19295SOL    HW169944   9.229   2.922   5.537 -0.1832 -1.9043  0.6601
19295SOL    HW269945   9.364   2.833   5.558  1.2682  0.0686 -0.2276
19296SOL     OW69946   8.432   7.863   2.220  0.4011 -0.1630 -0.4756
19296SOL    HW169947   8.428   7.876   2.319 -0.8259  1.5843 -0.7204
19296SOL    HW269948   8.496   7.790   2.198 -0.2336 -1.4100  1.6789
19297SOL     OW69949   0.466   7.671   9.933 -0.5339 -0.0017  0.0844
19297SOL    HW169950   0.545   7.709   9.981 -1.4972  2.4760 -0.1922
19297SOL    HW269951   0.388   7.666   9.995 -0.5978 -0.9660 -0.0646
19298SOL     OW69952   5.317   6.199   4.278  0.6585 -0.4667 -0.1803
19298SOL    HW169953   5.409   6.214   4.242  0.7474  0.3066  0.3499
19298SOL    HW269954   5.298   6.101   4.283  2.1260 -0.6794  1.4038
19299SOL     OW69955   5.332   6.900   8.776  0.0333  0.0933 -0.1872
19299SOL    HW169956   5.405   6.960   8.744 -0.9836  1.0467 -0.8080
19299SOL    HW269957   5.243   6.942   8.753 -0.6961 -1.1387  0.3468
19300SOL     OW69958   4.957   8.445   4.235  0.5473 -0.3781  0.2430
19300SOL    HW169959   4.978   8.463   4.139  0.4026 -0.1047  0.2609
19300SOL    HW269960   5.030   8.390   4.275 -0.3855 -2.2461 -0.5571
19301SOL     OW69961   2.817   3.910   4.798  0.2366 -0.0665  0.0106
19301SOL    HW169962   2.915   3.921   4.815  0.2899  0.6729 -0.7558
19301SOL    HW269963   2.776   3.999   4.781 -0.3628 -0.4948 -0.8022
19302SOL     OW69964   6.766   7.947   5.279  0.0558 -0.9433 -0.0469
19302SOL    HW169965   6.757   8.046   5.272  1.6326 -0.8499 -0.9826
19302SOL    HW269966   6.705   7.913   5.351 -2.1594  0.4215 -1.2155
19303SOL     OW69967   0.904   9.876   7.753  0.3342 -0.5993  0.2024
19303SOL    HW169968   0.943   9.882   7.845  0.0110  1.2153  0.2434
19303SOL    HW269969   0.811   9.838   7.759  0.0872  0.0712  0.7092
19304SOL     OW69970   2.271   7.844   4.406 -0.5183 -0.6516 -0.6115
19304SOL    HW169971   2.311   7.897   4.331 -0.2517  0.5458  0.3550
19304SOL    HW269972   2.221   7.905   4.467  3.1889 -0.7729  2.7695
19305SOL     OW69973   6.589   7.754   2.228 -0.0580  0.1444  0.0829
19305SOL    HW169974   6.582   7.820   2.153  0.1356 -1.3352 -1.2548
19305SOL    HW269975   6.497   7.728   2.257 -0.2031 -2.2287 -2.3049
19306SOL     OW69976   4.167   8.611   3.400 -0.2038  0.2291 -0.3878
19306SOL    HW169977   4.124   8.566   3.322 -1.6356 -1.0289  1.0922
19306SOL    HW269978   4.162   8.710   3.388 -2.3265  0.0758 -0.8843
19307SOL     OW69979   7.765   7.060   5.341 -0.2405  0.2602  0.0747
19307SOL    HW169980   7.770   7.117   5.423 -0.5141  0.5498 -0.1077
19307SOL    HW269981   7.781   7.117   5.260 -2.9941  0.6045 -0.2921
19308SOL     OW69982   7.934   1.684   0.517  0.0983 -0.0107 -0.2296
19308SOL    HW169983   7.860   1.751   0.523  2.0238  2.2142 -1.0626
19308SOL    HW269984   7.902   1.597   0.557 -2.9961  0.8325 -0.7041
19309SOL     OW69985   6.812   7.206   3.778  0.2317 -0.4270 -0.2012
19309SOL    HW169986   6.784   7.293   3.818  0.3075  0.2455 -1.5898
19309SOL    HW269987   6.912   7.199   3.781  0.1385 -1.3081  1.6128
19310SOL     OW69988   0.676   2.877   7.264  0.7267 -0.2880  0.0013
19310SOL    HW169989   0.590   2.926   7.258  0.8259 -0.0949  0.1367
19310SOL    HW269990   0.716   2.868   7.173  1.1935  0.7555  0.0888
19311SOL     OW69991   7.283   5.183   6.414 -0.4770  0.5103  0.5254
19311SOL    HW169992   7.352   5.111   6.404 -0.2942  0.3823  2.5097
19311SOL    HW269993   7.210   5.168   6.347 -0.9253 -2.1016  1.5052
19312SOL     OW69994   2.974   4.148   8.809 -0.1640  0.3701 -0.2113
19312SOL    HW169995   2.960   4.212   8.734  0.0702  0.5061 -0.1400
19312SOL    HW269996   3.039   4.187   8.875 -1.3880  0.8361  0.7508
19313SOL     OW69997   5.729   6.374   5.535  0.1604  0.2962  0.1273
19313SOL    HW169998   5.763   6.466   5.519 -1.1574  0.4891 -1.5838
19313SOL    HW269999   5.640   6.362   5.493  0.5223 -1.9205 -0.1097
19314SOL     OW70000   0.607   5.769   3.290  0.6548 -0.1945  0.1682
19314SOL    HW170001   0.609   5.688   3.230 -0.4530  0.2816 -0.5320
19314SOL    HW270002   0.633   5.850   3.237  0.0213  0.1736  0.4106
19315SOL     OW70003   7.165   6.539   2.708  0.5156  0.5519  0.3136
19315SOL    HW170004   7.090   6.503   2.765  1.2535  0.0970  1.0186
19315SOL    HW270005   7.207   6.617   2.755  0.3950  0.8937 -0.1471
19316SOL     OW70006   8.464   8.646   5.681  0.3071 -0.2110  0.5238
19316SOL    HW170007   8.512   8.648   5.769 -0.8683  0.9760  1.1562
19316SOL    HW270008   8.512   8.705   5.615  1.2355 -1.1681  0.3334
19317SOL     OW70009   5.914   4.763   8.652 -0.5074 -0.3274 -0.1973
19317SOL    HW170010   5.997   4.800   8.694 -0.6005  0.1370 -0.4169
19317SOL    HW270011   5.938   4.703   8.576 -0.3840  0.1228 -0.5135
19318SOL     OW70012   8.008   5.823   9.047 -0.3841  0.1348  0.2175
19318SOL    HW170013   8.041   5.738   9.089 -0.9273  0.2550  0.9069
19318SOL    HW270014   8.051   5.835   8.958 -0.9291 -1.2972 -0.2569
19319SOL     OW70015   1.405   9.062   5.820 -0.2449  0.0020  1.0167
19319SOL    HW170016   1.496   9.050   5.860 -0.2855 -0.7393  0.8825
19319SOL    HW270017   1.378   8.978   5.773  0.1399  1.1081 -1.2580
19320SOL     OW70018   6.494   7.934   0.127  0.2392 -0.2588  0.1666
19320SOL    HW170019   6.551   8.005   0.086 -0.2699  1.0451  1.6775
19320SOL    HW270020   6.550   7.877   0.187  0.2053  0.2408  0.6741
19321SOL     OW70021   6.324   9.941   2.339 -0.4477  0.1277  0.2508
19321SOL    HW170022   6.375  10.024   2.364 -1.1177  0.8572 -0.7523
19321SOL    HW270023   6.230   9.966   2.318 -0.7543 -0.9586  0.3135
19322SOL     OW70024   9.808   4.251   2.887  0.4709  0.1796 -0.5935
19322SOL    HW170025   9.826   4.268   2.984  0.4715 -2.1754 -0.1664
19322SOL    HW270026   9.883   4.199   2.848  0.6662  1.4737 -1.9910
19323SOL     OW70027   7.907   6.558   6.620 -0.0165 -0.1857  0.1315
19323SOL    HW170028   7.897   6.460   6.638  0.0889 -0.5708 -1.7152
19323SOL    HW270029   7.894   6.609   6.704 -1.5026 -1.6951  0.8579
19324SOL     OW70030   8.062   5.997   4.921  0.3744 -0.2611  0.3828
19324SOL    HW170031   7.977   5.977   4.872 -0.2329  2.0643  0.4278
19324SOL    HW270032   8.041   6.047   5.004  1.7549 -0.3131  0.7704
19325SOL     OW70033   4.890   8.370   6.044  0.1744  0.2495 -0.3116
19325SOL    HW170034   4.885   8.465   6.075  1.1215  0.1161  0.2567
19325SOL    HW270035   4.954   8.362   5.968  1.7663 -0.2872  1.0523
19326SOL     OW70036   6.744   0.228   4.762  0.1582 -0.0521 -0.2524
19326SOL    HW170037   6.776   0.146   4.715  1.0781  0.8448 -1.2160
19326SOL    HW270038   6.772   0.224   4.858  0.8150 -0.5363 -0.4594
19327SOL     OW70039   9.756   8.241   7.906 -0.0122 -0.0491  0.3215
19327SOL    HW170040   9.684   8.188   7.953 -0.7333 -1.0207 -1.8191
19327SOL    HW270041   9.725   8.335   7.895 -0.9168 -0.4305 -0.4685
19328SOL     OW70042   4.448   7.057   1.123 -0.2903  0.4054 -0.3779
19328SOL    HW170043   4.496   6.971   1.106 -1.2357  0.0413 -1.2813
19328SOL    HW270044   4.511   7.134   1.109  0.1463 -0.0807 -1.1312
19329SOL     OW70045   1.205   6.792   3.032  0.0758 -0.4487 -0.4573
19329SOL    HW170046   1.291   6.810   2.983 -1.7372  0.1698 -3.5363
19329SOL    HW270047   1.156   6.878   3.045 -2.0789 -1.3204 -2.6105
19330SOL     OW70048   2.848   4.995   9.617 -0.1140  0.3651 -0.1278
19330SOL    HW170049   2.832   5.081   9.568 -0.7228 -0.5539 -1.5933
19330SOL    HW270050   2.928   4.950   9.578  0.3493  0.3787  0.8009
19331SOL     OW70051   7.752   8.126   1.712  0.1957 -0.3529 -0.6926
19331SOL    HW170052   7.833   8.104   1.767 -0.1866 -0.8358 -0.3099
19331SOL    HW270053   7.713   8.212   1.743  0.3261 -0.3246 -0.6047
19332SOL     OW70054   0.964   4.620   5.357 -0.1388 -0.0648  0.1207
19332SOL    HW170055   0.987   4.574   5.270 -0.7778  1.2858 -0.7729
19332SOL    HW270056   0.896   4.691   5.340 -1.0772 -0.5198  1.9235
19333SOL     OW70057   7.361   2.734   9.868 -0.6888 -0.4322 -0.0013
19333SOL    HW170058   7.379   2.636   9.881  0.6436 -0.4999 -2.0171
19333SOL    HW270059   7.367   2.756   9.771 -3.3936  1.2247  0.1653
19334SOL     OW70060   5.143   3.817   4.909  0.4920  0.0952 -0.1978
19334SOL    HW170061   5.058   3.869   4.903  0.0466 -0.6997 -0.7811
19334SOL    HW270062   5.166   3.780   4.819  0.6797 -0.9199  0.2641
19335SOL     OW70063   2.536   8.862   2.084 -0.5325  0.0561 -0.2673
19335SOL    HW170064   2.601   8.937   2.101 -0.7731 -0.0863  1.3907
19335SOL    HW270065   2.574   8.777   2.118 -1.1654 -0.2063 -0.2077
19336SOL     OW70066   3.225   9.051   9.465  0.5322  0.3511  0.6265
19336SOL    HW170067   3.178   8.966   9.441  2.3909 -0.0436 -1.8075
19336SOL    HW270068   3.174   9.098   9.538 -1.3696 -2.0402  0.9045
19337SOL     OW70069   9.059   5.103   6.136  0.2775  0.0800  0.1952
19337SOL    HW170070   8.970   5.086   6.095  1.2065 -0.6673 -1.5771
19337SOL    HW270071   9.097   5.018   6.172  0.3148  0.3766  0.8658
19338SOL     OW70072   4.301   4.724   2.564 -0.1725 -0.2856  0.1672
19338SOL    HW170073   4.226   4.697   2.624 -1.4518  2.6633 -0.0352
19338SOL    HW270074   4.382   4.744   2.619 -0.2066 -1.2557  0.5802
19339SOL     OW70075   4.036   4.347   2.640 -0.1489  0.2660  0.7350
19339SOL    HW170076   4.013   4.369   2.735  3.5668  0.6420  1.6539
19339SOL    HW270077   4.021   4.427   2.582 -2.7057 -0.0542  0.8981
19340SOL     OW70078   3.366   9.685   5.751 -0.4458 -0.1850 -0.0291
19340SOL    HW170079   3.367   9.704   5.653  1.6930 -0.5922 -0.0882
19340SOL    HW270080   3.389   9.589   5.767 -0.5534 -0.0574  0.8886
19341SOL     OW70081   3.339   2.794   0.090  0.4070  0.0802  0.2647
19341SOL    HW170082   3.402   2.723   0.122 -0.1199 -0.1634  0.7730
19341SOL    HW270083   3.246   2.757   0.087 -0.3057  1.5595  3.1715
19342SOL     OW70084   5.600   1.113   3.928 -0.0400 -0.3468  0.1656
19342SOL    HW170085   5.693   1.077   3.933  0.3060  0.4392 -0.5513
19342SOL    HW270086   5.596   1.185   3.860 -0.6884  1.1170  1.7152
19343SOL     OW70087   6.347   5.809   5.686  0.8841  0.3785 -0.2174
19343SOL    HW170088   6.334   5.897   5.733 -0.0479  0.5184 -0.7409
19343SOL    HW270089   6.357   5.736   5.754 -0.6704  0.5462  0.2015
19344SOL     OW70090   7.088   5.738   4.795 -0.5252 -0.1333  0.3109
19344SOL    HW170091   7.136   5.740   4.883 -0.2495  0.3118  0.1571
19344SOL    HW270092   7.155   5.750   4.721 -0.6023 -1.7452 -0.0258
19345SOL     OW70093   2.647   2.596   5.016 -0.2393 -0.2834 -0.0694
19345SOL    HW170094   2.584   2.519   5.007 -0.2792 -0.1074 -1.5043
19345SOL    HW270095   2.686   2.617   4.926 -2.9748  3.6998 -0.4403
19346SOL     OW70096   6.610   4.872   7.841  0.6160  0.7977  0.5506
19346SOL    HW170097   6.520   4.876   7.883  0.4503  0.3815  0.2295
19346SOL    HW270098   6.636   4.964   7.811 -0.0886  0.7702 -0.1728
19347SOL     OW70099   5.591   7.720   4.123 -0.0281  0.6852  0.0302
19347SOL    HW170100   5.588   7.688   4.028  3.1370  0.4521 -0.0279
19347SOL    HW270101   5.564   7.645   4.183 -1.6369  0.7067 -0.6365
19348SOL     OW70102   5.907   8.467   4.844  0.0982 -0.3303 -0.8731
19348SOL    HW170103   5.907   8.449   4.746  1.1015  1.1184 -1.1398
19348SOL    HW270104   5.820   8.509   4.870  0.2061  0.1522 -1.2964
19349SOL     OW70105   8.124   3.905   4.966 -0.6313  0.1749  0.3653
19349SOL    HW170106   8.200   3.909   4.901  0.5515 -0.5942  1.6806
19349SOL    HW270107   8.079   3.995   4.971  1.2772  1.1226  0.8339
19350SOL     OW70108   4.676   4.591   1.148 -0.2113  0.2908 -0.8391
19350SOL    HW170109   4.618   4.614   1.225  2.6628  1.0059  1.2011
19350SOL    HW270110   4.646   4.505   1.107 -3.1999  1.1052 -0.4349
19351SOL     OW70111   3.888   5.666   2.888  0.1290  0.3661 -0.2884
19351SOL    HW170112   3.806   5.685   2.943  0.9981  0.6400  0.9220
19351SOL    HW270113   3.925   5.577   2.914  2.2591  1.7966  1.7307
19352SOL     OW70114   4.410   8.521   2.169 -0.3233  0.3638 -0.0186
19352SOL    HW170115   4.327   8.464   2.174  0.8667 -1.4222 -0.2807
19352SOL    HW270116   4.463   8.509   2.253  0.3938  0.3879 -0.4735
19353SOL     OW70117   2.973   7.833   2.889 -0.1418 -1.3404  0.2094
19353SOL    HW170118   3.058   7.781   2.873  1.0724  0.4128  0.7930
19353SOL    HW270119   2.924   7.843   2.802  0.6055 -1.7714 -0.2753
19354SOL     OW70120   7.874   5.245   1.827 -0.2296 -0.6424  0.2753
19354SOL    HW170121   7.833   5.327   1.787 -0.9599 -0.7097  0.8693
19354SOL    HW270122   7.974   5.254   1.828 -0.3537  0.6960  1.3054
19355SOL     OW70123   4.223   5.571   1.779  0.3090 -0.0628 -0.0233
19355SOL    HW170124   4.163   5.491   1.771 -0.9733  0.9197 -0.4257
19355SOL    HW270125   4.191   5.629   1.854 -0.4915  1.4939 -1.5347
19356SOL     OW70126   4.824   5.971   4.030 -0.1354  0.0975  0.1592
19356SOL    HW170127   4.777   6.042   3.977 -1.9641 -0.3796  1.0965
19356SOL    HW270128   4.821   5.994   4.127  0.2448 -0.7033  0.3690
19357SOL     OW70129   0.238   6.446   5.687 -0.1053  0.5929  0.0137
19357SOL    HW170130   0.209   6.481   5.776  2.5295  1.8554  0.4225
19357SOL    HW270131   0.307   6.375   5.700 -0.7291 -0.2037 -0.9958
19358SOL     OW70132   4.076   3.149   2.271 -0.3434  0.0560  0.0159
19358SOL    HW170133   4.057   3.094   2.190 -0.3527  0.2411 -0.1058
19358SOL    HW270134   4.090   3.088   2.349 -1.2260 -0.0890  0.0662
19359SOL     OW70135   5.164   5.380   7.003  0.0088 -0.0077 -0.5379
19359SOL    HW170136   5.088   5.324   6.973  0.7992 -0.2847 -2.0717
19359SOL    HW270137   5.223   5.327   7.065 -0.6106 -0.0461  0.0177
19360SOL     OW70138   2.449   3.513   3.711  0.4501 -0.1624  0.2483
19360SOL    HW170139   2.534   3.460   3.718 -1.1007 -2.6221  1.2750
19360SOL    HW270140   2.410   3.502   3.620  0.0199 -0.9955  0.5266
19361SOL     OW70141   8.878   2.267   3.270 -0.5429 -0.3090  0.1840
19361SOL    HW170142   8.871   2.198   3.342  0.5619 -0.8923 -0.2558
19361SOL    HW270143   8.957   2.325   3.287 -1.4415  0.8236  0.5219
19362SOL     OW70144   9.213   3.481   4.349 -0.4565  0.0036  0.3757
19362SOL    HW170145   9.280   3.464   4.277 -0.7222 -0.3832  0.2154
19362SOL    HW270146   9.131   3.426   4.331 -1.4099  1.5982 -0.2507
19363SOL     OW70147   0.138   6.437   2.673 -0.4712 -0.1587 -0.1383
19363SOL    HW170148   0.107   6.532   2.666  0.7873  0.2348 -0.6153
19363SOL    HW270149   0.122   6.391   2.586  0.1691  0.0168 -0.3532
19364SOL     OW70150   7.242   8.555   5.413  0.2079 -0.3385 -0.1156
19364SOL    HW170151   7.190   8.545   5.329  2.8194 -1.2309 -1.6975
19364SOL    HW270152   7.250   8.652   5.436  1.5262  0.1043 -2.2762
19365SOL     OW70153   6.942   9.647   0.930  0.5440  0.3521  0.4716
19365SOL    HW170154   6.871   9.578   0.915  1.8171 -0.5402 -1.7452
19365SOL    HW270155   6.930   9.722   0.866  1.2290  0.4958  0.5072
19366SOL     OW70156   6.421   8.722   2.630 -0.1665 -0.6086  0.1267
19366SOL    HW170157   6.506   8.703   2.678  0.3913  1.0826 -0.1346
19366SOL    HW270158   6.439   8.783   2.553 -1.2733 -2.0957 -1.3421
19367SOL     OW70159   4.714   7.018   0.798  0.0445 -0.2995 -0.4609
19367SOL    HW170160   4.667   7.106   0.793  2.9791  1.2715 -1.9282
19367SOL    HW270161   4.658   6.948   0.753 -2.6363  0.6011  1.3260
19368SOL     OW70162   3.507   3.235   0.642  0.0342 -0.3652 -0.2590
19368SOL    HW170163   3.590   3.267   0.596  0.4914 -1.1119  0.0239
19368SOL    HW270164   3.530   3.206   0.735 -0.1622 -2.4009 -0.8176
19369SOL     OW70165   1.477   5.384   3.534 -0.4737  0.6590 -0.2159
19369SOL    HW170166   1.461   5.449   3.608 -1.7292  0.7334 -0.5411
19369SOL    HW270167   1.575   5.381   3.512 -0.2013  1.2283  0.8935
19370SOL     OW70168   2.241   8.574   5.499 -0.1994  0.2835  0.1511
19370SOL    HW170169   2.242   8.499   5.433  0.9942  0.0012  0.4827
19370SOL    HW270170   2.282   8.655   5.458  0.3557  0.1673  0.4778
19371SOL     OW70171   5.232   6.190   3.000  0.1429  0.3131 -0.0598
19371SOL    HW170172   5.216   6.261   2.931 -0.6300  0.6095  0.4151
19371SOL    HW270173   5.213   6.227   3.090 -2.0251 -1.0185  0.0630
19372SOL     OW70174   9.602   8.565   0.414  0.2084 -0.2380 -0.5658
19372SOL    HW170175   9.526   8.625   0.390 -0.0076 -1.3767 -2.8428
19372SOL    HW270176   9.597   8.542   0.511 -1.6707  0.6390 -0.4445
19373SOL     OW70177   0.325   8.220   0.350  0.1227  0.0176 -0.0877
19373SOL    HW170178   0.317   8.272   0.435 -1.1267 -0.5466  0.1530
19373SOL    HW270179   0.284   8.271   0.275  2.2932  1.0497 -0.6063
19374SOL     OW70180   7.640   3.907   6.131  0.1315 -0.0662 -0.1022
19374SOL    HW170181   7.726   3.857   6.145 -0.2213 -0.4321  0.7373
19374SOL    HW270182   7.565   3.859   6.176 -0.3952  0.6444 -0.2171
19375SOL     OW70183   0.134   2.855   1.755 -0.7575 -0.4720 -0.5730
19375SOL    HW170184   0.173   2.914   1.684  0.3945  1.6042  1.6765
19375SOL    HW270185   0.071   2.790   1.714  1.9246 -1.1516 -3.8322
19376SOL     OW70186   6.861   8.617   5.888  0.0567  0.2399 -0.2993
19376SOL    HW170187   6.765   8.643   5.878  0.2441  0.6365 -1.0500
19376SOL    HW270188   6.872   8.521   5.863 -0.0752  0.2981 -0.5809
19377SOL     OW70189   7.954   9.720   3.820 -0.5233 -0.1820  0.1667
19377SOL    HW170190   7.897   9.702   3.900 -1.7594  0.6033 -0.5153
19377SOL    HW270191   7.972   9.818   3.813  0.5496 -0.3710  0.1169
19378SOL     OW70192   8.772   9.893   5.623  0.5169 -0.1493  0.3457
19378SOL    HW170193   8.740   9.843   5.704 -0.1597 -0.3145 -0.0198
19378SOL    HW270194   8.847   9.953   5.649 -1.1853  1.5274  1.5796
19379SOL     OW70195   1.931   2.135   6.975  0.0743  0.2641  0.3270
19379SOL    HW170196   2.001   2.128   6.905 -1.8104 -0.0308 -1.6010
19379SOL    HW270197   1.938   2.223   7.022  1.3101  0.4912 -0.2836
19380SOL     OW70198   0.159   9.366   8.594  0.6941  0.1980  0.4414
19380SOL    HW170199   0.197   9.416   8.516  0.5597 -0.8607 -0.3002
19380SOL    HW270200   0.191   9.409   8.679  1.2556  1.0375 -0.1845
19381SOL     OW70201   5.283   8.202   7.363 -0.3372 -0.1978  0.0790
19381SOL    HW170202   5.353   8.177   7.429  0.9606  0.6520 -0.9506
19381SOL    HW270203   5.320   8.269   7.299 -1.8983 -0.2157 -0.8673
19382SOL     OW70204   7.229   9.253   2.618 -0.6764  0.3920 -0.1148
19382SOL    HW170205   7.231   9.291   2.711 -1.6654  0.2908 -0.0437
19382SOL    HW270206   7.236   9.328   2.552 -1.4609  0.6161  0.0394
19383SOL     OW70207   5.628   9.021   8.002 -0.0569  0.3981 -0.1466
19383SOL    HW170208   5.662   9.029   7.909 -0.5452  1.3695 -0.2485
19383SOL    HW270209   5.663   9.096   8.058 -1.7363  1.2385 -0.1746
19384SOL     OW70210   9.080   4.019   5.908 -0.1377 -0.0824 -0.6834
19384SOL    HW170211   9.082   4.087   5.982  1.4093  0.3361 -1.1009
19384SOL    HW270212   9.060   4.064   5.821 -0.0569 -0.2996 -0.8163
19385SOL     OW70213   9.258   7.518   9.973 -0.3561  0.7357 -0.7705
19385SOL    HW170214   9.285   7.590   9.909 -1.9683  1.0614 -1.0943
19385SOL    HW270215   9.176   7.472   9.940  0.5587 -1.1453 -0.4624
19386SOL     OW70216   6.626   6.594   2.891  0.1587 -0.1166  0.5191
19386SOL    HW170217   6.614   6.496   2.909 -0.1723 -0.4543 -1.3925
19386SOL    HW270218   6.718   6.621   2.918 -1.0871  0.0501  5.0660
19387SOL     OW70219   7.204   9.233   6.319 -0.1649 -0.5660 -0.2700
19387SOL    HW170220   7.252   9.156   6.279 -0.2837 -0.3971 -0.7399
19387SOL    HW270221   7.219   9.315   6.264 -1.8359 -0.7363 -1.0262
19388SOL     OW70222   1.057   1.556   4.910  0.1020 -0.3616 -0.6500
19388SOL    HW170223   1.037   1.554   5.008  0.2852  1.3976 -0.5711
19388SOL    HW270224   1.100   1.470   4.884  1.0493 -0.4233  1.0358
19389SOL     OW70225   6.383   1.301   2.859 -0.3507  0.5242 -1.0660
19389SOL    HW170226   6.478   1.315   2.887 -0.3364  0.4371 -1.0736
19389SOL    HW270227   6.377   1.225   2.795 -0.7196 -0.9143  0.6366
19390SOL     OW70228   4.468   7.517   9.543  0.0661  0.3927  0.3569
19390SOL    HW170229   4.505   7.527   9.636  2.0926 -0.4041 -0.3323
19390SOL    HW270230   4.540   7.535   9.477 -0.8728 -0.9218 -1.0487
19391SOL     OW70231   7.475   8.614   4.603 -0.3904 -0.2019  0.3404
19391SOL    HW170232   7.418   8.689   4.569  0.1728 -0.6596 -1.6366
19391SOL    HW270233   7.417   8.541   4.639 -0.9768  0.3701  0.5612
19392SOL     OW70234   2.567   5.888   6.848 -0.0324  0.4686  0.5914
19392SOL    HW170235   2.578   5.836   6.763  3.8781  0.9928  0.6429
19392SOL    HW270236   2.550   5.826   6.924  2.7154 -0.6767  0.3505
19393SOL     OW70237   7.726   4.904   5.209 -0.4214  0.1148  0.0593
19393SOL    HW170238   7.803   4.840   5.212 -0.7498 -0.2868 -0.0894
19393SOL    HW270239   7.757   4.991   5.170 -0.0803 -0.0938 -0.1425
19394SOL     OW70240   6.702   8.657   3.137  0.2079  0.5981  0.4097
19394SOL    HW170241   6.736   8.671   3.044  1.8353 -0.0225  0.9034
19394SOL    HW270242   6.646   8.735   3.163  0.2502  1.0736 -0.8601
19395SOL     OW70243   4.387   4.150   7.410  0.5338 -0.2734  0.1093
19395SOL    HW170244   4.434   4.067   7.381  0.8209 -0.1230  0.1329
19395SOL    HW270245   4.442   4.196   7.480 -0.9472 -1.4865  2.0823
19396SOL     OW70246   9.646   8.285   7.260  0.2342  0.5904  0.0990
19396SOL    HW170247   9.701   8.367   7.246  2.4463 -0.9960 -0.9331
19396SOL    HW270248   9.592   8.267   7.178 -0.2145  0.9819  0.3070
19397SOL     OW70249   0.316   1.896   4.988 -0.4464  0.4222 -0.0665
19397SOL    HW170250   0.381   1.923   4.917 -1.2301  1.0691 -0.5515
19397SOL    HW270251   0.258   1.822   4.954 -0.2302  0.1196  0.2220
19398SOL     OW70252   6.680   6.402   6.409  0.0298 -0.0839 -0.4099
19398SOL    HW170253   6.730   6.487   6.427  1.7944 -0.7653 -1.8842
19398SOL    HW270254   6.613   6.387   6.482  1.8718  0.9396  1.5679
19399SOL     OW70255   3.365   1.876   9.503  0.4028 -0.2845 -0.0691
19399SOL    HW170256   3.319   1.901   9.418 -0.0449  4.4601  1.4394
19399SOL    HW270257   3.464   1.891   9.493  0.7346 -2.6887 -0.6871
19400SOL     OW70258   6.365   1.004   6.914 -0.0356 -0.7444 -0.4059
19400SOL    HW170259   6.358   0.987   6.816  0.2097 -0.2381 -0.5117
19400SOL    HW270260   6.363   0.916   6.963 -0.2110 -0.9941 -0.8557
19401SOL     OW70261   6.511   5.740   8.534  0.1363 -1.0161  0.2183
19401SOL    HW170262   6.525   5.798   8.454 -0.4613 -2.0488 -0.6328
19401SOL    HW270263   6.444   5.783   8.595 -0.0309 -0.6369 -0.2293
19402SOL     OW70264   4.030   6.360   9.385  0.6928 -0.3097 -0.0235
19402SOL    HW170265   3.999   6.381   9.293  0.1834 -0.9595 -0.0067
19402SOL    HW270266   4.056   6.263   9.390 -0.2283 -0.5199  0.7684
19403SOL     OW70267   8.017   8.915   5.769 -0.1311 -0.2708 -0.3643
19403SOL    HW170268   8.117   8.912   5.779  0.1029 -0.2107 -2.4919
19403SOL    HW270269   7.978   8.829   5.802  0.5214  0.0816  1.3852
19404SOL     OW70270   8.125   8.767   5.137 -0.2059 -0.1451 -0.4519
19404SOL    HW170271   8.110   8.823   5.056  0.3720 -1.0210 -1.1771
19404SOL    HW270272   8.085   8.677   5.123 -0.0281 -0.3284  0.2029
19405SOL     OW70273   1.154   9.472   5.323 -0.3456 -0.1841  0.2413
19405SOL    HW170274   1.141   9.385   5.370 -1.7993 -0.2591 -0.2677
19405SOL    HW270275   1.092   9.477   5.245  0.3334  0.9544 -0.2377
19406SOL     OW70276   8.306   3.594   8.010  0.1459  0.1884 -0.2190
19406SOL    HW170277   8.335   3.613   8.104 -0.7888 -0.2311  0.1686
19406SOL    HW270278   8.310   3.678   7.956  1.1697  0.3243  0.0619
19407SOL     OW70279   9.259   5.839   6.129  0.4269 -0.0614  0.1112
19407SOL    HW170280   9.259   5.853   6.228  0.0857 -1.7041  0.3503
19407SOL    HW270281   9.286   5.924   6.084 -0.9316  1.1659  1.5490
19408SOL     OW70282   5.273   5.037   7.333 -0.0921 -0.0191 -0.0567
19408SOL    HW170283   5.217   4.991   7.264 -1.8572  0.3099  1.1407
19408SOL    HW270284   5.281   4.979   7.414 -1.3728  1.2524  1.0057
19409SOL     OW70285   3.277   5.189   0.846  0.3646  0.6913 -0.4133
19409SOL    HW170286   3.185   5.149   0.849  1.2723 -1.6811 -2.1658
19409SOL    HW270287   3.271   5.284   0.815 -1.7534  1.6436  2.6552
19410SOL     OW70288   6.499   9.172   2.603 -0.1584  0.5790  0.1249
19410SOL    HW170289   6.469   9.188   2.697  0.0202  1.0295  0.1079
19410SOL    HW270290   6.576   9.108   2.603 -0.9851 -0.4118  0.1847
19411SOL     OW70291   4.382   7.154   1.834 -0.0390  0.1765  0.1444
19411SOL    HW170292   4.306   7.111   1.785  0.3248 -0.0959 -0.1922
19411SOL    HW270293   4.455   7.086   1.846  0.6477  0.7721 -0.6184
19412SOL     OW70294   9.926   1.413   4.201  0.3629 -0.6399  0.4100
19412SOL    HW170295   9.832   1.384   4.184 -0.0277 -0.1354  1.6410
19412SOL    HW270296   9.926   1.495   4.258  1.5412 -0.4409  0.1333
19413SOL     OW70297   9.070   8.800   5.059  0.0455  0.3733 -0.3351
19413SOL    HW170298   9.137   8.761   4.997  0.0410 -0.9271  0.4608
19413SOL    HW270299   9.114   8.823   5.146  0.0611  2.2192 -0.7993
19414SOL     OW70300   8.327   7.299   4.312 -0.0933  0.1363  0.0986
19414SOL    HW170301   8.385   7.226   4.346 -2.0656 -1.1482  0.7958
19414SOL    HW270302   8.231   7.269   4.312 -0.8233  2.3217 -0.6431
19415SOL     OW70303   1.967   4.296   0.535  0.0304  0.5427  0.3979
19415SOL    HW170304   1.988   4.341   0.448 -1.2819  1.7913  0.6975
19415SOL    HW270305   1.870   4.274   0.539  0.3396 -0.7755  0.9891
19416SOL     OW70306   8.199   0.263   5.634  0.7408 -0.1048  0.1220
19416SOL    HW170307   8.160   0.196   5.570  0.6941 -0.6306  0.6933
19416SOL    HW270308   8.297   0.272   5.617  1.1134 -1.7294  1.2613
19417SOL     OW70309   8.544   5.043   5.225  0.1890 -0.2075 -0.3486
19417SOL    HW170310   8.494   5.118   5.268 -1.2303 -0.3098 -1.7410
19417SOL    HW270311   8.544   4.963   5.285 -0.9724 -0.0600 -0.1315
19418SOL     OW70312   6.791   5.937   5.918 -0.0330 -0.4875  0.6537
19418SOL    HW170313   6.842   5.907   5.837 -0.1906 -2.2067  1.1735
19418SOL    HW270314   6.852   5.989   5.978  0.0879  0.8046 -0.5556
19419SOL     OW70315   8.293   6.655   9.517  0.2993  0.2015  0.4648
19419SOL    HW170316   8.200   6.629   9.491  0.6627 -0.0553 -0.6077
19419SOL    HW270317   8.358   6.598   9.467  1.0190 -1.0970  2.8075
19420SOL     OW70318   7.816   4.212   6.340  0.2346 -0.6159  0.3607
19420SOL    HW170319   7.833   4.138   6.275  0.4458 -1.3126  1.1974
19420SOL    HW270320   7.884   4.283   6.328  0.6896 -1.0634  0.2810
19421SOL     OW70321   7.322   0.457   1.004 -0.0024  0.8617  0.4937
19421SOL    HW170322   7.319   0.553   0.976  1.6400  0.8376  0.1490
19421SOL    HW270323   7.342   0.451   1.102  1.2267  0.8753  0.2563
19422SOL     OW70324   6.784   8.579   1.207 -0.5555 -0.3989 -0.5996
19422SOL    HW170325   6.848   8.609   1.136  0.1969 -1.6239 -0.4648
19422SOL    HW270326   6.748   8.659   1.256 -0.0685  0.3721 -1.4823
19423SOL     OW70327   1.164   5.804   7.158 -0.9893 -0.1999  0.3321
19423SOL    HW170328   1.220   5.878   7.122  0.9381 -2.1010 -0.7359
19423SOL    HW270329   1.171   5.801   7.258 -0.2295  0.3862  0.2934
19424SOL     OW70330   4.727   7.973   4.929 -0.0581 -0.1862 -0.2156
19424SOL    HW170331   4.733   7.911   4.850 -1.4584  0.4161 -0.8157
19424SOL    HW270332   4.755   8.065   4.901 -0.4998  0.0169  0.0053
19425SOL     OW70333   9.638   9.860   0.201  0.0536  0.0439 -0.6305
19425SOL    HW170334   9.559   9.922   0.199  0.3293  0.4798  1.2750
19425SOL    HW270335   9.714   9.902   0.151 -0.4312  0.2752 -1.1948
19426SOL     OW70336   0.768   8.637   5.915  0.2443  0.9530  0.0192
19426SOL    HW170337   0.734   8.551   5.953  3.3472 -0.0389  0.6926
19426SOL    HW270338   0.726   8.714   5.962 -1.4706 -0.1995  0.4113
19427SOL     OW70339   7.289   5.351   4.849 -0.9586 -0.2272  0.0710
19427SOL    HW170340   7.220   5.296   4.895 -0.6737 -0.8419 -0.2320
19427SOL    HW270341   7.335   5.410   4.915  0.3535 -2.0546  0.8084
19428SOL     OW70342   1.226   3.515   3.744 -0.2668 -0.0829 -0.1060
19428SOL    HW170343   1.265   3.599   3.780 -2.6812  0.7115  0.7667
19428SOL    HW270344   1.253   3.438   3.801  0.9551  0.2845 -0.1933
19429SOL     OW70345   1.352   5.398   7.638  0.0790 -0.2941 -0.3446
19429SOL    HW170346   1.381   5.468   7.573  0.0029 -0.9851 -1.1351
19429SOL    HW270347   1.269   5.355   7.605 -0.6567  0.2047  0.8455
19430SOL     OW70348   4.984   5.164   7.725  0.3319 -0.6130 -0.3119
19430SOL    HW170349   4.996   5.245   7.782  1.5455 -1.3691  0.5430
19430SOL    HW270350   4.914   5.105   7.767  1.0404 -1.0477  0.2680
19431SOL     OW70351   7.817   4.255   2.371  0.4167  0.2967 -0.8676
19431SOL    HW170352   7.781   4.260   2.465  0.0608  2.1162 -1.0878
19431SOL    HW270353   7.887   4.325   2.359  1.5885 -0.9729 -1.4977
19432SOL     OW70354   1.183   8.264   6.943  0.1001  0.0548  0.1081
19432SOL    HW170355   1.165   8.216   7.028  2.2663 -1.4687 -0.2446
19432SOL    HW270356   1.187   8.198   6.867 -0.9133  1.2755 -1.0319
19433SOL     OW70357   9.008   9.215   3.801 -0.2725  0.2437 -0.5822
19433SOL    HW170358   8.973   9.182   3.713  0.6504  1.6261 -1.4881
19433SOL    HW270359   9.075   9.287   3.785  1.2658 -0.7414  1.1917
19434SOL     OW70360   6.214   6.923   5.311  0.0233 -0.5553  0.3352
19434SOL    HW170361   6.149   6.910   5.236  0.5006  0.1182 -0.1914
19434SOL    HW270362   6.226   7.021   5.329 -1.0063 -0.7173  2.0944
19435SOL     OW70363   5.539   9.847   5.764 -0.2872 -0.0412 -0.0859
19435SOL    HW170364   5.551   9.785   5.686 -1.5498  1.1168 -1.2282
19435SOL    HW270365   5.566   9.940   5.737 -0.2106  0.2678  1.0279
19436SOL     OW70366   8.824   7.231   8.011  0.3251 -0.2585 -0.4324
19436SOL    HW170367   8.860   7.315   7.969  1.5897 -0.6589 -0.1710
19436SOL    HW270368   8.883   7.154   7.988 -0.1379 -0.8593  0.3495
19437SOL     OW70369   3.997   4.582   7.051  0.3592  0.4064  0.1305
19437SOL    HW170370   3.970   4.510   7.114 -1.5761 -1.2562 -2.4734
19437SOL    HW270371   3.919   4.642   7.033  0.5588  0.2067 -1.4916
19438SOL     OW70372   2.454   4.880   5.935  0.5416 -0.8637 -0.3702
19438SOL    HW170373   2.513   4.820   5.881  0.0459 -1.0101 -0.7619
19438SOL    HW270374   2.410   4.946   5.875 -1.5890 -2.3247 -0.4984
19439SOL     OW70375   5.453   7.787   4.921  0.2021  0.8867  0.0479
19439SOL    HW170376   5.409   7.713   4.971 -0.5285  2.2469  1.4276
19439SOL    HW270377   5.552   7.781   4.932  0.1863 -0.3095 -0.4463
19440SOL     OW70378   3.732   0.669   1.039 -0.0854  0.2794 -0.1613
19440SOL    HW170379   3.707   0.602   1.110 -0.6338 -0.2433 -0.8406
19440SOL    HW270380   3.823   0.705   1.059 -0.0541 -0.1819  0.5771
19441SOL     OW70381   8.488   1.117   3.743 -0.4921  0.7490 -0.1511
19441SOL    HW170382   8.454   1.103   3.836 -1.7060 -2.3156 -0.9869
19441SOL    HW270383   8.547   1.041   3.717 -3.2417 -0.4656 -3.1879
19442SOL     OW70384   6.199   5.412   9.858  0.0860 -0.4273  0.6598
19442SOL    HW170385   6.155   5.502   9.850  0.9918  0.1138  1.7393
19442SOL    HW270386   6.130   5.343   9.874 -1.0816 -0.5042 -3.9584
19443SOL     OW70387   5.472   6.354   3.140  0.1343  0.5725 -0.5511
19443SOL    HW170388   5.434   6.287   3.204  0.8924  0.5182 -0.1544
19443SOL    HW270389   5.398   6.410   3.103 -0.2909  0.8354  0.6441
19444SOL     OW70390   7.083   6.547   6.336  0.0695  0.3418 -0.0045
19444SOL    HW170391   7.086   6.595   6.424 -0.6381 -0.1048  0.2685
19444SOL    HW270392   7.057   6.612   6.265  2.4534  1.1281 -0.2028
19445SOL     OW70393   6.144   5.553   6.445  0.1993  0.2009 -0.1496
19445SOL    HW170394   6.068   5.490   6.432  0.4049  0.0842 -0.7835
19445SOL    HW270395   6.126   5.611   6.525  0.3503 -1.1512  0.8749
19446SOL     OW70396   7.176   1.140   2.423 -0.2316 -0.3106  0.8307
19446SOL    HW170397   7.239   1.086   2.368 -0.3643  0.1233  0.2438
19446SOL    HW270398   7.095   1.164   2.368  0.0218  0.8318  0.9434
19447SOL     OW70399   5.297   5.854   2.301 -0.0242  0.0140  0.5223
19447SOL    HW170400   5.318   5.762   2.270  2.3193  0.2287  1.3644
19447SOL    HW270401   5.251   5.851   2.389  0.9518 -0.3436  1.0281
19448SOL     OW70402   4.766   8.093   8.707 -0.1674  0.0123  0.0157
19448SOL    HW170403   4.707   8.097   8.788 -2.1953 -0.8224 -1.3649
19448SOL    HW270404   4.862   8.102   8.735 -0.9513  1.7868  2.2801
19449SOL     OW70405   8.281   7.175   5.906  0.0854 -0.3289  0.8735
19449SOL    HW170406   8.312   7.267   5.879 -0.2072  0.0733  1.8795
19449SOL    HW270407   8.299   7.162   6.003  1.0013 -1.7042  0.5335
19450SOL     OW70408   7.638   8.542   2.019  0.1218 -0.2469  0.2722
19450SOL    HW170409   7.710   8.608   1.995  1.3806 -1.9319 -0.7491
19450SOL    HW270410   7.617   8.485   1.939 -1.3312 -0.7185  0.9790
19451SOL     OW70411   9.224   3.652   4.756 -0.4665  0.2001  0.1059
19451SOL    HW170412   9.137   3.703   4.758 -0.3362  0.3936  0.9555
19451SOL    HW270413   9.213   3.571   4.698 -0.7445  1.0628 -1.0858
19452SOL     OW70414   5.257   5.927   7.276  0.0621 -0.2122  0.0303
19452SOL    HW170415   5.322   5.853   7.291  0.1757 -0.0267  0.4504
19452SOL    HW270416   5.283   6.006   7.331 -0.7374 -0.2697  0.5020
19453SOL     OW70417   5.448   8.812   1.264 -0.6498  0.5256  0.0146
19453SOL    HW170418   5.410   8.787   1.175  0.4937  1.7310 -0.8222
19453SOL    HW270419   5.418   8.904   1.289 -2.1729 -0.3769  1.5701
19454SOL     OW70420   7.187   0.407   7.320 -0.4253  0.3679  0.3897
19454SOL    HW170421   7.197   0.321   7.370 -0.3094  0.7640  1.0611
19454SOL    HW270422   7.265   0.466   7.339  0.6334 -0.2475 -1.8419
19455SOL     OW70423   7.044   6.174   8.715  0.5902 -0.3900  0.1182
19455SOL    HW170424   6.953   6.215   8.714  0.8640  0.1888 -1.9273
19455SOL    HW270425   7.073   6.161   8.810 -0.4487  2.0306  0.8099
19456SOL     OW70426   2.446   3.755   9.161 -0.3019  0.2333 -0.2251
19456SOL    HW170427   2.376   3.826   9.153 -0.1695  0.3264 -0.5532
19456SOL    HW270428   2.478   3.729   9.070  0.3521  0.4535 -0.0653
19457SOL     OW70429   7.515   8.186   6.332  0.4899 -0.2086  0.4039
19457SOL    HW170430   7.450   8.253   6.367  0.1694 -0.1013 -0.3852
19457SOL    HW270431   7.551   8.132   6.408  0.4894  0.6236  1.0011
19458SOL     OW70432   5.003   6.233   6.791 -0.3009 -0.2624 -0.0554
19458SOL    HW170433   5.055   6.287   6.724 -0.4200  1.0056  0.8620
19458SOL    HW270434   4.928   6.288   6.827  0.4095 -0.5424  1.9134
19459SOL     OW70435   7.360   2.284   3.260 -0.1405 -0.1336 -0.7190
19459SOL    HW170436   7.374   2.191   3.226  0.4710 -0.9214  1.5493
19459SOL    HW270437   7.440   2.339   3.241 -0.4700 -0.0891 -1.9990
19460SOL     OW70438   0.583   6.406   8.302 -0.1925 -0.0155  0.2856
19460SOL    HW170439   0.585   6.498   8.262 -0.0575  0.3049  1.0148
19460SOL    HW270440   0.660   6.395   8.364 -0.5171 -0.4301  0.6212
19461SOL     OW70441   7.253   7.538   0.165 -0.5980  0.0995  0.0626
19461SOL    HW170442   7.313   7.518   0.242  0.2452 -1.0695 -0.8732
19461SOL    HW270443   7.281   7.623   0.122 -0.2827  0.1096  0.2860
19462SOL     OW70444   5.630   4.457   8.106  0.1389  0.5412 -0.0361
19462SOL    HW170445   5.543   4.469   8.060  0.2160 -3.0892 -1.3453
19462SOL    HW270446   5.702   4.442   8.038  1.1948  0.3854  1.0961
19463SOL     OW70447   8.305   5.449   6.925  0.9582 -0.0350 -0.0875
19463SOL    HW170448   8.388   5.472   6.875  1.4396 -4.1160 -1.3276
19463SOL    HW270449   8.226   5.461   6.865  0.9947  0.4051 -0.0491
19464SOL     OW70450   5.881   3.896   0.265 -0.1303  0.2577  0.0280
19464SOL    HW170451   5.951   3.963   0.289 -0.2620 -0.0846  1.4129
19464SOL    HW270452   5.820   3.882   0.343 -1.6068  0.3678 -1.0819
19465SOL     OW70453   6.582   5.045   2.382 -0.1381  0.4809 -0.8898
19465SOL    HW170454   6.598   4.963   2.327  1.1697 -0.6031  1.0603
19465SOL    HW270455   6.485   5.048   2.409 -0.0616 -0.8009 -0.4104
19466SOL     OW70456   5.267   1.924   8.867 -0.3599  0.2539 -0.0510
19466SOL    HW170457   5.295   1.887   8.779 -0.5236  0.1348 -0.0536
19466SOL    HW270458   5.258   2.024   8.860  1.1647  0.4177  0.2517
19467SOL     OW70459   8.499   9.227   2.669 -0.4343  0.3433  0.2916
19467SOL    HW170460   8.481   9.174   2.586 -0.1737 -0.5666  0.8130
19467SOL    HW270461   8.592   9.208   2.701 -0.7852  0.1379  1.1927
19468SOL     OW70462   4.682   3.576   7.122 -0.2211 -0.2653  0.0967
19468SOL    HW170463   4.700   3.660   7.173 -1.4654 -0.0458  0.2064
19468SOL    HW270464   4.622   3.597   7.045  1.7031 -0.5844 -1.5169
19469SOL     OW70465   6.844   6.154   5.462 -0.1263  0.1062 -0.0209
19469SOL    HW170466   6.820   6.246   5.433  1.8036  0.4346 -0.6653
19469SOL    HW270467   6.796   6.087   5.406 -0.1859  0.7353 -0.7213
19470SOL     OW70468   8.351   2.735   4.721 -0.1961  0.3026  0.3199
19470SOL    HW170469   8.304   2.664   4.774  0.3251  0.4808  1.0283
19470SOL    HW270470   8.326   2.726   4.624 -1.0406 -0.1151  0.5693
19471SOL     OW70471   8.598   3.558   8.605 -0.2060 -0.3531  0.3334
19471SOL    HW170472   8.694   3.587   8.601 -0.6275  1.1985  1.0198
19471SOL    HW270473   8.591   3.462   8.581  1.4717 -0.3515 -0.2096
19472SOL     OW70474   0.103   2.566   4.390  0.0766 -0.0810 -0.6610
19472SOL    HW170475   0.199   2.569   4.419 -0.0671  0.3078 -0.2314
19472SOL    HW270476   0.085   2.641   4.327  0.0307 -0.1123 -0.6855
19473SOL     OW70477   0.020   7.068   5.366  0.0242 -0.2819  0.3484
19473SOL    HW170478   0.002   7.050   5.270 -1.8765  1.3181  0.3644
19473SOL    HW270479  -0.065   7.092   5.412  0.9931 -0.5259  2.3208
19474SOL     OW70480   7.361   9.162   8.154  0.8370  0.2389  0.5114
19474SOL    HW170481   7.339   9.078   8.105  0.3504  0.1392  0.8919
19474SOL    HW270482   7.419   9.140   8.232  0.5466  0.2206  0.7270
19475SOL     OW70483   7.681   8.603   9.210 -0.2809  0.0289 -0.4556
19475SOL    HW170484   7.633   8.516   9.210 -0.1148 -0.0683  0.4970
19475SOL    HW270485   7.779   8.587   9.196 -0.2458  0.0567 -0.2466
19476SOL     OW70486   6.528   3.359   5.058  0.1134 -0.1528 -0.2653
19476SOL    HW170487   6.434   3.350   5.090  0.4096  0.2358  0.7159
19476SOL    HW270488   6.533   3.330   4.962 -0.5290 -2.6551  0.4124
19477SOL     OW70489   9.959   9.214   0.258  0.1662  0.0995  0.3628
19477SOL    HW170490   9.907   9.212   0.173 -0.6612  0.2375  0.8641
19477SOL    HW270491  10.041   9.270   0.246  0.1181  0.0032 -0.3839
19478SOL     OW70492   2.656   1.075   0.490  0.2366  0.2480 -0.1313
19478SOL    HW170493   2.606   0.992   0.466  1.4770 -0.1111 -1.5453
19478SOL    HW270494   2.658   1.086   0.589 -2.6850  0.3086 -0.0480
19479SOL     OW70495   9.633   4.310   5.649 -0.4698  0.3457  0.3561
19479SOL    HW170496   9.718   4.292   5.697 -0.4494  0.2316  0.2749
19479SOL    HW270497   9.616   4.409   5.647 -1.3665  0.2509  2.1528
19480SOL     OW70498   9.019   1.660   5.377  0.9379 -0.3450  0.3462
19480SOL    HW170499   9.028   1.619   5.286 -3.0605  0.4716 -0.5066
19480SOL    HW270500   9.068   1.604   5.444  3.4292 -1.2938 -2.1881
19481SOL     OW70501   5.942   6.210   3.388  0.2796 -0.5974 -0.3323
19481SOL    HW170502   6.015   6.181   3.450  0.1958  0.7013  0.3907
19481SOL    HW270503   5.973   6.287   3.332 -0.6483  0.2112  0.2469
19482SOL     OW70504   8.873   5.287   4.724 -0.0315 -0.6724  0.3650
19482SOL    HW170505   8.969   5.275   4.697 -0.7361 -1.8510 -1.7386
19482SOL    HW270506   8.841   5.376   4.694 -0.5757 -1.6556 -2.1190
19483SOL     OW70507   5.861   5.083   7.510 -0.2501  0.2591 -0.5211
19483SOL    HW170508   5.894   5.177   7.519 -1.4856  0.6128  0.4943
19483SOL    HW270509   5.772   5.074   7.556 -0.7262 -1.1053 -1.6562
19484SOL     OW70510   6.600   8.982   6.886 -0.1721 -0.0432 -0.0287
19484SOL    HW170511   6.539   9.027   6.821  0.2904 -0.4770 -0.7774
19484SOL    HW270512   6.690   8.969   6.843  0.0241 -0.6744  0.5681
19485SOL     OW70513   6.754   5.580   7.587  0.1610 -0.1561  0.0744
19485SOL    HW170514   6.778   5.671   7.552 -0.8870 -0.1137 -0.5618
19485SOL    HW270515   6.654   5.571   7.591  0.2434 -1.5043 -0.4900
19486SOL     OW70516   6.110   8.886   5.046 -0.1000 -0.1839 -0.4480
19486SOL    HW170517   6.023   8.935   5.054 -0.3217 -0.9588  2.4682
19486SOL    HW270518   6.092   8.788   5.031  0.3031 -0.2512 -0.5054
19487SOL     OW70519   2.945   8.151   4.843 -0.3728  0.2000 -0.3282
19487SOL    HW170520   3.005   8.217   4.799  1.4435 -2.0582 -1.3780
19487SOL    HW270521   2.994   8.106   4.919 -0.4738 -2.0711 -1.5551
19488SOL     OW70522   6.700   0.411   4.429 -0.7260 -0.4328  0.0492
19488SOL    HW170523   6.648   0.394   4.344 -3.0120 -1.2474  1.5610
19488SOL    HW270524   6.666   0.494   4.473  1.5594  0.8911 -0.6219
19489SOL     OW70525   2.113   7.970   4.605  0.0038  0.1604 -0.3880
19489SOL    HW170526   2.014   7.981   4.600  0.1710  1.6184 -0.7066
19489SOL    HW270527   2.155   8.058   4.623  1.0561 -0.9243  2.8056
19490SOL     OW70528   8.100   8.482   4.999  0.0883 -0.4369  0.2174
19490SOL    HW170529   8.049   8.509   4.917  1.1710  0.6888 -0.1028
19490SOL    HW270530   8.192   8.522   4.995  0.5348 -1.3382  1.4274
19491SOL     OW70531   8.754   7.428   7.368  0.5257  0.2349 -0.2689
19491SOL    HW170532   8.702   7.513   7.377  0.3043  0.0858 -0.1254
19491SOL    HW270533   8.746   7.376   7.453  1.9623  0.7996  0.2139
19492SOL     OW70534   5.721   2.280   0.994 -0.4586  0.3330  0.4615
19492SOL    HW170535   5.699   2.191   0.954  2.3425 -0.0816 -0.2545
19492SOL    HW270536   5.739   2.268   1.092  0.0177  0.1056  0.3450
19493SOL     OW70537   3.942   9.496   4.860  0.5651  0.2474  0.0813
19493SOL    HW170538   3.936   9.585   4.905  0.7534 -0.0701  0.7236
19493SOL    HW270539   4.029   9.453   4.882  0.8797  0.3153 -0.9972
19494SOL     OW70540   1.990   5.031   0.961 -0.1693  0.5298  0.2831
19494SOL    HW170541   1.977   4.979   1.045  0.4986 -0.9435 -0.5041
19494SOL    HW270542   2.011   4.969   0.886 -0.2453  1.8674 -0.8778
19495SOL     OW70543   5.543   8.582   7.186 -0.4069 -0.4915 -0.2202
19495SOL    HW170544   5.503   8.672   7.197 -0.0095 -0.6089  2.3760
19495SOL    HW270545   5.631   8.590   7.138  0.2403  0.6680  1.1208
19496SOL     OW70546   9.321   6.072   6.005 -0.1348 -0.6718 -0.1140
19496SOL    HW170547   9.226   6.077   5.972 -0.0443 -1.5670 -0.5017
19496SOL    HW270548   9.383   6.097   5.931 -0.0564 -0.2316  0.0984
19497SOL     OW70549   9.686   6.878   5.384 -0.5797 -0.3216  0.0165
19497SOL    HW170550   9.602   6.917   5.345 -1.5359 -1.8702  0.5101
19497SOL    HW270551   9.717   6.802   5.327  1.3640  1.1894 -1.0145
19498SOL     OW70552   9.158   4.120   3.514 -0.9497 -0.1714  0.2224
19498SOL    HW170553   9.213   4.075   3.584 -1.2934 -2.4456 -0.9137
19498SOL    HW270554   9.063   4.125   3.544 -1.1204 -1.2608 -0.0928
19499SOL     OW70555   5.965   9.334   5.859 -0.3652  0.7267  0.5978
19499SOL    HW170556   6.062   9.336   5.836 -0.0576 -1.3446  1.6493
19499SOL    HW270557   5.919   9.410   5.813  1.3731  0.5000 -1.5973
19500SOL     OW70558   8.185   4.777   7.448 -0.0225 -0.0367  0.2098
19500SOL    HW170559   8.240   4.857   7.471 -0.8311  0.3709  0.7298
19500SOL    HW270560   8.135   4.746   7.529 -0.2855 -0.6237 -0.1709
19501SOL     OW70561   8.398   4.633   5.377  0.6598 -0.2287  0.2636
19501SOL    HW170562   8.325   4.602   5.437  0.8431 -2.5058 -0.6464
19501SOL    HW270563   8.360   4.666   5.291  0.4784  1.9757  1.1600
19502SOL     OW70564   9.714   5.039   4.605  0.0794 -0.1879  0.2774
19502SOL    HW170565   9.716   4.998   4.514 -0.5212 -0.8423  0.5552
19502SOL    HW270566   9.625   5.022   4.647 -0.8319  2.8949 -0.2810
19503SOL     OW70567   9.864   6.404   7.379  0.0780  0.3360  0.0575
19503SOL    HW170568   9.885   6.498   7.352 -0.0360  0.2514 -0.3331
19503SOL    HW270569   9.822   6.404   7.469  2.4901  0.4394  1.2072
19504SOL     OW70570   6.628   4.457   6.239 -0.2551 -0.0091  0.0894
19504SOL    HW170571   6.637   4.409   6.326 -0.4170  0.7064  0.5023
19504SOL    HW270572   6.538   4.499   6.233 -0.5252 -0.6982 -0.7533
19505SOL     OW70573   7.999   3.633   7.690 -0.4274  0.1112  0.1262
19505SOL    HW170574   7.943   3.590   7.619 -0.2658 -0.2862  0.2366
19505SOL    HW270575   7.976   3.594   7.779  1.1809 -1.2637 -0.0324
19506SOL     OW70576   5.320   6.693   6.970 -0.0238 -0.4979 -0.5266
19506SOL    HW170577   5.225   6.662   6.974 -0.2858  0.2965 -0.4535
19506SOL    HW270578   5.322   6.791   6.951  0.6226  0.5171  4.1547
19507SOL     OW70579   7.452   5.274   1.778 -0.1505 -0.1010 -0.6288
19507SOL    HW170580   7.375   5.212   1.789  0.0964 -0.2612  0.2420
19507SOL    HW270581   7.463   5.329   1.860  1.4023 -0.9359 -0.2327
19508SOL     OW70582   8.064   8.485   6.871  0.2351  0.3864  0.1173
19508SOL    HW170583   7.966   8.481   6.892  0.1751 -1.4191 -0.3928
19508SOL    HW270584   8.077   8.501   6.773  0.4629  1.4966  0.3238
19509SOL     OW70585   8.885   4.877   4.595  0.1487 -0.5255  0.0955
19509SOL    HW170586   8.917   4.959   4.547  1.3109 -2.2363 -2.0994
19509SOL    HW270587   8.924   4.875   4.687 -1.4382  2.3585  0.8987
19510SOL     OW70588   2.174   9.982   6.654 -0.1229  0.1681 -0.4365
19510SOL    HW170589   2.254  10.015   6.604 -0.0480  0.1555 -0.3256
19510SOL    HW270590   2.102  10.050   6.651  0.5882  1.0092  1.1277
19511SOL     OW70591   3.504   9.185   7.428  0.3205  0.3996  0.6395
19511SOL    HW170592   3.445   9.211   7.352 -0.2284 -0.0470  0.9025
19511SOL    HW270593   3.451   9.131   7.494  0.9911  0.1123  0.9482
19512SOL     OW70594   5.926   6.917   5.545 -0.5324  0.1172  0.0362
19512SOL    HW170595   6.015   6.947   5.580 -0.8017  1.9655 -0.7805
19512SOL    HW270596   5.937   6.883   5.451 -0.7426  0.8676 -0.2718
19513SOL     OW70597   7.855   4.460   7.689 -0.0028 -0.0552  0.5054
19513SOL    HW170598   7.875   4.432   7.595 -1.1548  0.5223  0.0725
19513SOL    HW270599   7.757   4.478   7.698  0.0117 -0.6487  1.9755
19514SOL     OW70600   8.369   6.829   4.976  0.2708 -0.3207  0.1124
19514SOL    HW170601   8.361   6.849   4.878  3.3255 -1.5794 -0.4823
19514SOL    HW270602   8.377   6.915   5.027 -0.5869  0.3248 -0.8184
19515SOL     OW70603   5.476   1.861   1.447 -0.4439 -0.3441 -0.0667
19515SOL    HW170604   5.446   1.935   1.388  0.1477  1.3685  1.7195
19515SOL    HW270605   5.540   1.802   1.398 -0.8531  0.3700 -1.4757
19516SOL     OW70606   7.021   4.766   1.013  0.3885  0.3861 -0.5708
19516SOL    HW170607   6.971   4.689   1.054 -0.1005  0.4490 -1.0546
19516SOL    HW270608   7.078   4.809   1.083  2.1524 -1.6178 -0.7181
19517SOL     OW70609   6.079   9.724   5.837 -0.0701  0.2698 -0.1819
19517SOL    HW170610   6.096   9.726   5.936 -0.1964 -0.8453 -0.1310
19517SOL    HW270611   6.141   9.788   5.792  0.4640  0.2912  0.5601
19518SOL     OW70612   1.349   8.722   4.149 -0.2463 -0.2664 -0.6311
19518SOL    HW170613   1.351   8.818   4.174 -0.0038 -0.3242 -0.4241
19518SOL    HW270614   1.442   8.691   4.129 -0.3320 -0.4379 -0.7675
19519SOL     OW70615   6.935   8.034   4.965  0.5234  0.0906 -0.2180
19519SOL    HW170616   6.893   7.947   4.989  2.3527 -1.1720 -1.3883
19519SOL    HW270617   7.025   8.041   5.008 -0.1278  1.9760  0.8900
19520SOL     OW70618   3.088   8.599   1.393 -0.0871 -0.7873 -0.4594
19520SOL    HW170619   3.148   8.578   1.471 -1.2929 -0.2627  0.6358
19520SOL    HW270620   3.046   8.514   1.361  0.1387 -0.9580 -0.3194
19521SOL     OW70621   7.933   7.670   6.203 -0.4216 -0.2520  0.5652
19521SOL    HW170622   7.953   7.587   6.254  3.2645 -0.3076 -0.8728
19521SOL    HW270623   7.950   7.750   6.260 -0.9631 -0.3956  0.9351
19522SOL     OW70624   9.517   8.926   8.794 -0.1311  0.0893 -0.3905
19522SOL    HW170625   9.507   8.829   8.820 -0.5314  0.3759  0.5567
19522SOL    HW270626   9.428   8.971   8.799  0.2175  0.7377  0.1536
19523SOL     OW70627   3.879   9.781   4.294  0.9356 -0.5266 -0.2248
19523SOL    HW170628   3.798   9.769   4.351  1.4009 -0.7819  0.3907
19523SOL    HW270629   3.937   9.854   4.332 -0.1147  1.2543 -1.9377
19524SOL     OW70630   0.020   4.909   8.771 -0.4173 -0.0097  0.0493
19524SOL    HW170631  -0.010   4.970   8.698  0.5249 -0.2748 -0.5656
19524SOL    HW270632   0.119   4.913   8.780 -0.4994 -0.1899  1.1298
19525SOL     OW70633   5.665   7.394   7.265  0.5441  0.7678 -0.6677
19525SOL    HW170634   5.763   7.375   7.255  0.9443  2.1063  0.6535
19525SOL    HW270635   5.619   7.379   7.177  1.7015 -1.1283 -0.9917
19526SOL     OW70636   5.824   5.581   1.662  0.2508 -0.3114 -0.6383
19526SOL    HW170637   5.759   5.587   1.738  2.6448 -0.3961  1.4980
19526SOL    HW270638   5.915   5.563   1.698  1.4244 -0.5315 -3.5885
19527SOL     OW70639   7.675   8.020   4.816  0.1979 -0.3025 -0.2154
19527SOL    HW170640   7.627   8.073   4.886 -0.3885 -1.1866  0.0619
19527SOL    HW270641   7.713   7.937   4.857  1.6015  0.1737 -0.5285
19528SOL     OW70642   7.961   9.960   4.601  0.4155  0.4719  0.6381
19528SOL    HW170643   8.036  10.013   4.640  1.3441 -0.8097  0.6558
19528SOL    HW270644   7.999   9.889   4.541 -0.8603  0.7593 -0.5271
19529SOL     OW70645   6.133   9.616   9.498  0.1172  0.0386  0.1079
19529SOL    HW170646   6.105   9.569   9.582 -1.0308 -0.9557 -0.8178
19529SOL    HW270647   6.052   9.648   9.449  0.8413  1.9153  0.0991
19530SOL     OW70648   4.641   5.880   8.271 -0.1395 -0.3033 -0.1603
19530SOL    HW170649   4.610   5.793   8.233  0.2331 -0.6829  0.4094
19530SOL    HW270650   4.740   5.879   8.282 -0.3145 -0.5040  1.5674
19531SOL     OW70651   6.302   7.688   5.663 -0.1197  0.1384  0.0816
19531SOL    HW170652   6.248   7.675   5.579  0.5745  0.3332 -0.4019
19531SOL    HW270653   6.328   7.785   5.670  1.7525 -0.2888 -0.6763
19532SOL     OW70654   8.102   9.204   6.429  0.0727  0.4460 -0.2901
19532SOL    HW170655   8.027   9.209   6.496 -0.8464  1.2572 -1.3481
19532SOL    HW270656   8.122   9.108   6.409  0.2198  0.2015  0.9976
19533SOL     OW70657   1.526   6.859   5.038  0.2839  0.0931 -0.0574
19533SOL    HW170658   1.500   6.936   4.981 -1.1252 -0.2751  0.0698
19533SOL    HW270659   1.488   6.775   5.001  0.2926 -0.3038  0.8047
19534SOL     OW70660   3.851   7.364   8.645  0.2746 -0.5144 -0.4608
19534SOL    HW170661   3.798   7.338   8.726  1.2429 -2.7546 -0.5010
19534SOL    HW270662   3.888   7.456   8.657  0.8543 -1.0247  1.8900
19535SOL     OW70663   6.734   9.068   3.350  0.0222 -0.6904 -0.4126
19535SOL    HW170664   6.726   9.031   3.442  1.8885  1.1749  0.5229
19535SOL    HW270665   6.824   9.047   3.313  0.2277  0.8333 -0.7945
19536SOL     OW70666   0.323   9.056   6.559 -0.4625 -0.1762 -0.0451
19536SOL    HW170667   0.284   8.995   6.490 -0.5967  0.4092 -0.4898
19536SOL    HW270668   0.360   9.137   6.514  1.0007 -0.5763  0.3965
19537SOL     OW70669   8.091   9.868   2.441 -0.1865 -0.0546  0.2306
19537SOL    HW170670   8.163   9.800   2.451 -0.0782  0.3266  2.3101
19537SOL    HW270671   8.004   9.821   2.422  0.3239 -0.5958 -0.8606
19538SOL     OW70672   3.118   5.729   8.182 -0.2607  0.1054 -0.2262
19538SOL    HW170673   3.152   5.818   8.210 -0.5237  0.6795 -1.7064
19538SOL    HW270674   3.136   5.715   8.084 -1.3574 -0.9204 -0.2945
19539SOL     OW70675   3.905   6.205   0.420 -0.5431  0.1597 -0.5069
19539SOL    HW170676   3.808   6.191   0.441 -0.3915  1.8494  1.5328
19539SOL    HW270677   3.928   6.302   0.431  1.1189 -0.0236 -2.1548
19540SOL     OW70678   6.334   7.736   6.189 -0.1724  0.3905  0.1548
19540SOL    HW170679   6.419   7.787   6.201  0.1160 -0.3262  1.1418
19540SOL    HW270680   6.272   7.789   6.130  0.8414  1.0295 -0.3535
19541SOL     OW70681   7.841   0.335   6.775  0.3149 -0.3966 -0.5538
19541SOL    HW170682   7.795   0.329   6.864  1.2658 -4.7539 -0.2687
19541SOL    HW270683   7.781   0.298   6.705  1.3891 -1.2916 -1.0008
19542SOL     OW70684   7.955   3.995   6.157  0.0777 -0.5307  0.0800
19542SOL    HW170685   7.959   4.005   6.058  0.5400  0.2450  0.1729
19542SOL    HW270686   8.029   4.048   6.199  0.3042 -1.3997  0.7971
19543SOL     OW70687   6.846   6.896   4.527 -1.1031 -0.5032 -0.3664
19543SOL    HW170688   6.756   6.911   4.486 -1.9226 -1.0007  1.1857
19543SOL    HW270689   6.848   6.806   4.572  1.2522 -1.9052 -3.1211
19544SOL     OW70690   0.689   4.577   7.683  0.1294  0.6924  0.6989
19544SOL    HW170691   0.631   4.645   7.728 -0.0788  0.0682  1.3886
19544SOL    HW270692   0.772   4.563   7.736 -0.2645 -0.2874  1.0734
19545SOL     OW70693   6.432   8.341   4.066  0.0529 -0.0964 -0.5392
19545SOL    HW170694   6.480   8.276   4.124 -0.8694 -0.5831 -0.3155
19545SOL    HW270695   6.496   8.377   3.997  0.6325 -1.0612 -0.5241
19546SOL     OW70696   3.754   4.917   6.034 -0.0580  0.0137 -0.2494
19546SOL    HW170697   3.737   5.010   6.068 -2.5354 -0.1866 -0.9058
19546SOL    HW270698   3.717   4.851   6.099  0.1614 -0.4981 -0.6494
19547SOL     OW70699   6.793   2.339   3.411  0.0425  0.1348  0.2145
19547SOL    HW170700   6.825   2.257   3.362 -0.8305  0.2877 -0.6148
19547SOL    HW270701   6.866   2.372   3.471  0.8871 -0.4546 -0.4756
19548SOL     OW70702   7.572   3.201   5.156  0.5431 -0.1385 -0.1877
19548SOL    HW170703   7.612   3.286   5.121 -0.3703  0.6463  0.6256
19548SOL    HW270704   7.630   3.124   5.130  2.0187  0.8539  0.0844
19549SOL     OW70705   1.645   0.886   7.294  0.4785  0.4735  0.1110
19549SOL    HW170706   1.613   0.804   7.247 -1.0379  0.3620  1.3105
19549SOL    HW270707   1.692   0.945   7.229 -1.2464  0.1427 -1.4654
19550SOL     OW70708   0.263   5.783   8.717 -0.0551 -0.3155 -0.1939
19550SOL    HW170709   0.252   5.834   8.802  1.7061  0.7062 -0.5444
19550SOL    HW270710   0.322   5.704   8.732  0.9819  0.3622 -0.6395
19551SOL     OW70711   5.998   4.591   8.473  0.2347 -0.3302  0.1697
19551SOL    HW170712   5.915   4.553   8.433  0.1028 -0.0901  0.2152
19551SOL    HW270713   6.078   4.547   8.432  0.1067  0.2252 -0.6683
19552SOL     OW70714   9.396   7.633   5.173  0.3022  0.4255 -0.0703
19552SOL    HW170715   9.344   7.632   5.258 -1.1943  0.7698 -0.9733
19552SOL    HW270716   9.435   7.542   5.156  1.3112  0.5651  1.3886
19553SOL     OW70717   7.282   8.731   8.601 -0.0921 -0.0692  0.1090
19553SOL    HW170718   7.361   8.722   8.662  1.1261 -0.9948 -1.5608
19553SOL    HW270719   7.211   8.667   8.628  0.0846  0.1384  1.0815
19554SOL     OW70720   4.370   9.265   9.154 -0.3585  0.1526 -0.0222
19554SOL    HW170721   4.375   9.316   9.240 -0.0734 -1.5937  1.0235
19554SOL    HW270722   4.280   9.278   9.113 -0.1246  1.8895 -0.0471
19555SOL     OW70723   0.006   9.764   6.628 -0.2442  0.9649  0.0615
19555SOL    HW170724   0.019   9.803   6.536 -0.9699 -0.5696 -0.7168
19555SOL    HW270725  -0.071   9.809   6.673 -0.4167  1.1476 -0.4129
19556SOL     OW70726   7.290   5.968   7.462 -0.0502  0.0585  0.2483
19556SOL    HW170727   7.355   5.918   7.405 -0.4117 -1.4102  1.1020
19556SOL    HW270728   7.210   5.911   7.479 -0.5596  1.0063  1.0626
19557SOL     OW70729   0.199   7.830   5.496 -0.4614  0.1824  0.1084
19557SOL    HW170730   0.231   7.735   5.494 -0.4289  0.2197 -3.6406
19557SOL    HW270731   0.272   7.887   5.534  0.8319 -0.8397 -0.7650
19558SOL     OW70732   4.684   4.986   7.200  0.1497 -0.1648 -0.0542
19558SOL    HW170733   4.641   4.940   7.278  0.3639 -1.2740 -0.5817
19558SOL    HW270734   4.752   5.051   7.234  0.4255 -0.8257  0.6903
19559SOL     OW70735   4.849   8.480   4.486 -0.1280  0.5339 -0.1565
19559SOL    HW170736   4.793   8.397   4.487  0.4646  0.1511  1.4543
19559SOL    HW270737   4.892   8.489   4.396  0.1149 -1.1167 -0.2184
19560SOL     OW70738   9.666   6.506   9.963 -0.0265  0.3935 -0.2279
19560SOL    HW170739   9.704   6.583  10.014  1.2485  0.7999 -1.7559
19560SOL    HW270740   9.700   6.508   9.868 -1.7884 -0.7434 -0.9083
19561SOL     OW70741   5.161   4.614   6.196 -0.2300  0.7849 -0.6654
19561SOL    HW170742   5.071   4.573   6.182 -0.2215  0.1912  0.9049
19561SOL    HW270743   5.223   4.546   6.236  0.3263  1.7721  0.1951
19562SOL     OW70744   4.025   4.650   5.238  0.1103  0.2426 -0.0408
19562SOL    HW170745   3.977   4.564   5.256  0.4626  0.1060  0.2479
19562SOL    HW270746   3.982   4.724   5.290 -0.6732  0.3893 -0.8824
19563SOL     OW70747   7.465   6.542   4.387 -0.4495 -0.2230 -0.4569
19563SOL    HW170748   7.519   6.506   4.464 -1.5855  0.5868  0.7495
19563SOL    HW270749   7.472   6.641   4.385 -0.5447 -0.2366 -1.3165
19564SOL     OW70750   2.554   6.453   8.483  0.3871 -0.2411  0.0061
19564SOL    HW170751   2.459   6.437   8.454  0.5596  1.6490 -1.7312
19564SOL    HW270752   2.586   6.374   8.536 -3.0569  0.2871  3.0722
19565SOL     OW70753   8.803   8.083   7.137 -0.2404 -0.3601 -0.0255
19565SOL    HW170754   8.807   8.182   7.147  0.3597 -0.6272  2.7175
19565SOL    HW270755   8.712   8.051   7.161 -0.0748 -0.6045  0.2701
19566SOL     OW70756   2.214   6.504   6.943  0.9243  0.2905  0.6376
19566SOL    HW170757   2.180   6.585   6.895  0.9657  0.3807  0.7598
19566SOL    HW270758   2.303   6.525   6.983  1.3902 -0.1153 -0.1579
19567SOL     OW70759   4.807   5.086   4.058  0.0957  0.0053 -0.8395
19567SOL    HW170760   4.900   5.121   4.057  0.0203  0.2135 -0.6242
19567SOL    HW270761   4.748   5.147   4.004  0.4742 -1.2129 -2.6753
19568SOL     OW70762   1.796   5.448   1.375  0.0656 -0.6815  0.5351
19568SOL    HW170763   1.725   5.517   1.361 -0.7575 -1.7892 -0.9431
19568SOL    HW270764   1.866   5.458   1.305  0.2033 -1.0319  0.6213
19569SOL     OW70765   4.707   5.309   0.410 -0.7026  0.3753 -0.3380
19569SOL    HW170766   4.658   5.391   0.440 -1.0541  0.1339 -0.2591
19569SOL    HW270767   4.670   5.229   0.456  0.6110  0.3398  0.7115
19570SOL     OW70768   3.690   9.305   9.726  0.0089 -0.0623 -0.2499
19570SOL    HW170769   3.775   9.267   9.764 -1.2436 -1.2339  1.4748
19570SOL    HW270770   3.696   9.404   9.724  1.0358 -0.0888  0.8354
19571SOL     OW70771   8.250   6.025   6.300 -0.0127 -0.0545 -0.2255
19571SOL    HW170772   8.202   6.055   6.382 -0.3716  0.4275 -0.6047
19571SOL    HW270773   8.337   5.984   6.325  0.1571  0.6452  0.3585
19572SOL     OW70774   5.145   6.479   5.578 -0.2090 -0.1058 -0.1664
19572SOL    HW170775   5.066   6.420   5.595 -0.2023  0.0242  0.3244
19572SOL    HW270776   5.130   6.532   5.494  1.2507 -3.2585 -2.4964
19573SOL     OW70777   6.195   3.328   8.495 -0.2414 -0.5416 -0.2198
19573SOL    HW170778   6.237   3.371   8.415 -0.3052  0.3098  0.1978
19573SOL    HW270779   6.261   3.324   8.570 -1.4344  2.5845  1.0801
19574SOL     OW70780   4.323   5.468   0.854 -0.0820  0.3181  0.3210
19574SOL    HW170781   4.369   5.555   0.840  0.0340  0.1483 -0.3850
19574SOL    HW270782   4.385   5.403   0.897  0.8993 -0.4431 -2.1913
19575SOL     OW70783   7.075   6.224   7.382 -0.1607  0.1342  0.1323
19575SOL    HW170784   7.050   6.317   7.408  0.3711  0.8812 -1.9356
19575SOL    HW270785   7.175   6.215   7.382 -0.1957 -0.2905 -0.1544
19576SOL     OW70786   6.951   3.527   7.260  0.0366  0.2141 -0.2416
19576SOL    HW170787   6.945   3.432   7.231  0.0419  0.2694 -0.4206
19576SOL    HW270788   7.038   3.566   7.231 -0.6990  0.7949 -1.7044
19577SOL     OW70789   7.496   9.814   1.987  0.4445 -0.1939 -0.2201
19577SOL    HW170790   7.476   9.869   1.906  0.2980  1.3549  0.8470
19577SOL    HW270791   7.531   9.873   2.060  0.2844 -1.5169  0.9552
19578SOL     OW70792   4.902   4.391   5.862 -0.0662  0.1849  0.5282
19578SOL    HW170793   4.826   4.328   5.845  0.0734 -0.3053  1.6934
19578SOL    HW270794   4.987   4.340   5.869 -0.2793  0.1697  3.9628
19579SOL     OW70795   9.605   5.768   4.846 -0.3955 -0.4478 -0.0644
19579SOL    HW170796   9.574   5.742   4.937 -0.6726 -0.7208 -0.2361
19579SOL    HW270797   9.656   5.853   4.851  0.6265 -1.0887  0.5214
19580SOL     OW70798   4.899   4.551   9.159 -0.0157  0.1322  0.5507
19580SOL    HW170799   4.867   4.604   9.081 -0.7393 -0.8341  0.1793
19580SOL    HW270800   4.918   4.457   9.130  0.2278 -0.0885  1.4166
19581SOL     OW70801   5.216   6.560   2.549 -0.0100  0.0358 -0.4893
19581SOL    HW170802   5.204   6.554   2.450 -0.9976 -0.5051 -0.3455
19581SOL    HW270803   5.299   6.511   2.575  0.3223  0.2891 -1.0645
19582SOL     OW70804   6.452   1.241   8.592  0.4976 -0.1455  0.2294
19582SOL    HW170805   6.472   1.202   8.682 -0.0042  0.2672  0.5241
19582SOL    HW270806   6.477   1.338   8.592 -1.9882  0.5366  0.7916
19583SOL     OW70807   7.152   7.191   1.703  0.1124 -0.2154  0.5080
19583SOL    HW170808   7.229   7.255   1.714 -0.5913  0.6464  0.4775
19583SOL    HW270809   7.067   7.237   1.729 -0.4602 -0.9945  0.0147
19584SOL     OW70810   7.638   7.459   7.440  0.5451 -0.2532 -1.1874
19584SOL    HW170811   7.589   7.544   7.419 -1.5784 -1.1291  0.1124
19584SOL    HW270812   7.619   7.391   7.369  0.3476 -0.4023 -0.9922
19585SOL     OW70813   5.730   1.390   8.536 -0.2592  0.4888  0.1324
19585SOL    HW170814   5.649   1.411   8.590 -1.2175  0.2441 -1.1990
19585SOL    HW270815   5.807   1.370   8.597 -1.3635  0.0674  1.3922
19586SOL     OW70816   3.322   6.058   7.932 -0.0782  0.0475 -0.4514
19586SOL    HW170817   3.326   5.968   7.889 -0.1326 -0.2877  0.2230
19586SOL    HW270818   3.372   6.124   7.877 -0.8679 -0.1885 -1.4473
19587SOL     OW70819   4.770   6.179   0.531  0.4965  0.1929  0.5041
19587SOL    HW170820   4.852   6.220   0.570  1.3653  0.6074 -1.6612
19587SOL    HW270821   4.795   6.124   0.451 -1.3015  0.2156 -0.1000
19588SOL     OW70822   3.047   9.194   6.537  0.2098 -0.3890 -0.4026
19588SOL    HW170823   3.081   9.273   6.485  2.1427 -0.5470  0.5908
19588SOL    HW270824   3.097   9.112   6.510  0.9983 -0.5328  1.4344
19589SOL     OW70825   3.996   5.642   3.544 -0.0619  0.7040 -0.3089
19589SOL    HW170826   3.943   5.562   3.570 -1.0420  1.2152 -0.7348
19589SOL    HW270827   4.048   5.622   3.461 -0.1107  0.4303 -0.2736
19590SOL     OW70828   6.220   6.517   1.754 -0.1308 -0.1886  0.2662
19590SOL    HW170829   6.166   6.511   1.838  0.2893 -2.5125  0.4254
19590SOL    HW270830   6.258   6.427   1.733  0.7531  0.6258 -1.7800
19591SOL     OW70831   2.541   4.664   6.366  0.6263  0.4436  0.1343
19591SOL    HW170832   2.620   4.688   6.309 -0.0138  0.2156 -0.8391
19591SOL    HW270833   2.479   4.742   6.371 -0.0885 -0.0659 -0.7602
19592SOL     OW70834   5.756   2.995   2.164 -0.2665 -0.0427  0.0029
19592SOL    HW170835   5.840   2.981   2.216 -0.4951 -0.2526  0.3134
19592SOL    HW270836   5.779   3.024   2.071  0.1806 -1.4890 -0.3460
19593SOL     OW70837   0.936   6.788   6.727 -0.1612  0.9191 -0.1826
19593SOL    HW170838   0.961   6.831   6.813  0.5668  0.1614 -0.0086
19593SOL    HW270839   1.016   6.781   6.668  0.2248 -2.0330  0.5921
19594SOL     OW70840   7.097   5.007   0.846  0.2259 -0.2369  0.2266
19594SOL    HW170841   7.123   5.064   0.924  3.2054 -2.3355  0.8725
19594SOL    HW270842   7.049   4.926   0.878 -1.6631  0.5973 -0.4520
19595SOL     OW70843   7.442   2.685   7.430 -0.3123 -0.1005 -0.2944
19595SOL    HW170844   7.485   2.615   7.373 -0.8986 -0.2622 -0.5435
19595SOL    HW270845   7.369   2.730   7.378 -0.0667  0.5589 -0.0677
19596SOL     OW70846   6.913   5.946   6.946  0.8690 -0.0741  0.5985
19596SOL    HW170847   6.857   5.874   6.989 -0.3130  0.7156  0.4173
19596SOL    HW270848   6.854   6.005   6.891  1.8541  0.9261  0.5974
19597SOL     OW70849   4.700   9.545   1.857 -0.2203  0.5182  0.6130
19597SOL    HW170850   4.751   9.482   1.915 -0.0524  0.2981  0.2264
19597SOL    HW270851   4.625   9.586   1.910 -0.4986 -0.2158  0.7867
19598SOL     OW70852   7.503   5.620   0.048 -0.1790 -0.0439  0.5316
19598SOL    HW170853   7.450   5.569  -0.019  0.4183  1.3534 -1.0440
19598SOL    HW270854   7.507   5.568   0.133 -1.8711 -1.3482 -0.1444
19599SOL     OW70855   4.729   6.854   7.122  0.0785 -0.1261  0.6034
19599SOL    HW170856   4.651   6.905   7.158  1.3226  1.3757  1.2596
19599SOL    HW270857   4.794   6.918   7.080  0.8210 -1.3765 -0.1887
19600SOL     OW70858   3.384   5.391   6.363 -0.0013  0.2569  0.1481
19600SOL    HW170859   3.303   5.372   6.307 -0.0947 -1.2305  0.7661
19600SOL    HW270860   3.362   5.375   6.459  0.7294  0.8771  0.4228
19601SOL     OW70861   6.568   6.903   4.191  0.2886 -0.0619  0.0403
19601SOL    HW170862   6.581   6.934   4.097 -1.3298  0.1973 -0.1067
19601SOL    HW270863   6.503   6.827   4.193 -0.7062  0.8015  1.0880
19602SOL     OW70864   0.237   4.472   7.129  0.5140  0.7042 -0.2213
19602SOL    HW170865   0.196   4.432   7.210 -0.5657 -0.1493 -1.1857
19602SOL    HW270866   0.323   4.424   7.108 -0.7264 -1.0728 -1.3218
19603SOL     OW70867   5.080   8.276   9.384  0.6135 -0.8139  0.8018
19603SOL    HW170868   5.131   8.229   9.456 -1.5100 -1.6564  1.8083
19603SOL    HW270869   5.112   8.370   9.376  1.2323 -0.8540  2.5041
19604SOL     OW70870   3.767   7.105   1.661 -1.0004  0.6625  0.5465
19604SOL    HW170871   3.677   7.062   1.673 -1.4131  1.1922 -0.5994
19604SOL    HW270872   3.767   7.195   1.705 -1.1391  0.8077  0.2481
19605SOL     OW70873   4.575   8.408   9.332 -0.5818 -0.1277  0.2273
19605SOL    HW170874   4.527   8.334   9.285  1.7663 -0.9043 -1.0286
19605SOL    HW270875   4.605   8.476   9.265  0.1244  0.3169  0.9837
19606SOL     OW70876   7.143   9.499   5.419 -0.6311  0.4011 -0.5392
19606SOL    HW170877   7.060   9.530   5.464  0.1181  1.3698  0.1833
19606SOL    HW270878   7.222   9.550   5.454 -0.0432  1.2104 -2.9482
19607SOL     OW70879   3.488   8.642   7.127 -0.2914 -0.1065  0.0801
19607SOL    HW170880   3.404   8.631   7.180 -0.2242  1.1221  0.4678
19607SOL    HW270881   3.491   8.734   7.089  1.5900  0.3747  1.3223
19608SOL     OW70882   9.830   6.063   8.595 -0.4460 -0.5663 -0.0082
19608SOL    HW170883   9.868   6.155   8.606  0.4099 -1.0918  1.7766
19608SOL    HW270884   9.854   6.027   8.505  2.3887 -0.4348  0.6439
19609SOL     OW70885   9.609   3.826   4.803 -0.2359  0.7097 -0.3429
19609SOL    HW170886   9.597   3.783   4.714  1.3164 -1.4593  0.4393
19609SOL    HW270887   9.520   3.844   4.844 -0.9339 -0.5575 -1.2718
19610SOL     OW70888   3.681   6.152   7.831  0.7331  0.0876  0.2199
19610SOL    HW170889   3.687   6.052   7.824  1.9608 -0.0547  2.7796
19610SOL    HW270890   3.763   6.193   7.790  2.2411 -0.1882  2.8523
19611SOL     OW70891   3.667   3.594   9.178 -0.2845  0.5260  0.4175
19611SOL    HW170892   3.756   3.600   9.133 -0.9798  1.3899 -0.8685
19611SOL    HW270893   3.668   3.649   9.261  0.1661  1.0961  0.0369
19612SOL     OW70894   0.438   0.118   6.780  0.1074 -0.3667 -0.2013
19612SOL    HW170895   0.537   0.109   6.768  0.2913 -1.4625  1.9254
19612SOL    HW270896   0.391   0.055   6.719  0.7341 -0.0754 -0.9882
19613SOL     OW70897   7.679   3.954   2.026  0.3174  0.1152  0.1475
19613SOL    HW170898   7.648   3.952   1.931 -1.8309 -0.8111  0.8401
19613SOL    HW270899   7.778   3.938   2.029  0.3905  0.0827 -1.9129
19614SOL     OW70900   5.927   3.618   1.027  0.5713 -0.3961  0.8905
19614SOL    HW170901   6.023   3.646   1.028  0.4875 -0.0934  0.5054
19614SOL    HW270902   5.912   3.553   0.953 -0.1305  1.7328 -0.8901
19615SOL     OW70903   8.978   6.284   6.921  0.2605  0.2260  0.3411
19615SOL    HW170904   8.935   6.281   7.011  0.5670 -0.8758  0.4585
19615SOL    HW270905   8.984   6.379   6.890 -0.5260  0.5476  1.1484
19616SOL     OW70906   8.945   1.006   7.169  0.0141 -0.3138  0.7742
19616SOL    HW170907   8.942   1.094   7.122 -1.1126 -0.4051  0.6557
19616SOL    HW270908   9.032   0.996   7.217  0.1703  0.8433  0.7324
19617SOL     OW70909   6.076   4.774   7.141  0.0474 -0.1781  0.6910
19617SOL    HW170910   6.032   4.863   7.151 -0.9667 -0.7007  0.9341
19617SOL    HW270911   6.175   4.786   7.140 -0.0992  1.0299 -0.0865
19618SOL     OW70912   7.843   5.086   7.461 -0.0537 -0.0005  0.0518
19618SOL    HW170913   7.826   5.174   7.417 -1.1111  0.6324  1.6742
19618SOL    HW270914   7.939   5.082   7.490  0.0232  0.5762 -0.0988
19619SOL     OW70915   0.219   8.219   7.841  0.2980  0.1049  0.2559
19619SOL    HW170916   0.292   8.287   7.849 -0.5952  1.0592  0.4893
19619SOL    HW270917   0.197   8.183   7.932  1.2951 -1.0741  0.0404
19620SOL     OW70918   4.469   7.350   2.858 -0.0533  0.2015  0.0900
19620SOL    HW170919   4.374   7.328   2.879 -0.4591  0.8801 -1.0355
19620SOL    HW270920   4.495   7.307   2.771  0.6562  0.0663  0.3613
19621SOL     OW70921   6.993   8.968   4.091  0.1320 -0.1885 -0.4979
19621SOL    HW170922   6.896   8.947   4.098 -0.1772  0.8224 -1.7639
19621SOL    HW270923   7.046   8.883   4.097 -0.7938 -0.7067  0.5168
19622SOL     OW70924   4.587   9.102   6.122 -0.3837  0.3584  0.3077
19622SOL    HW170925   4.535   9.046   6.187  0.2163 -0.9427 -0.3226
19622SOL    HW270926   4.562   9.076   6.029  0.2042  0.8622  0.0089
19623SOL     OW70927   2.258   3.143   8.514 -0.0499 -0.8001 -0.0038
19623SOL    HW170928   2.278   3.053   8.476  0.9851 -0.0345 -1.3299
19623SOL    HW270929   2.280   3.214   8.446  4.4076  0.7921  2.8399
19624SOL     OW70930   3.514   7.450   9.467 -0.3545 -0.2973  0.0422
19624SOL    HW170931   3.576   7.390   9.518 -0.7089 -0.1748  0.6194
19624SOL    HW270932   3.423   7.409   9.463 -0.4011 -0.1692 -0.2450
19625SOL     OW70933   4.917   5.771   5.053 -0.0119  0.0720 -0.0157
19625SOL    HW170934   4.914   5.742   5.149 -0.3494  1.2778  0.3545
19625SOL    HW270935   4.876   5.862   5.045  0.9867  0.4277 -1.1428
19626SOL     OW70936   9.248   9.101   9.699  0.0036 -0.2124  0.4913
19626SOL    HW170937   9.246   9.096   9.600 -2.0001 -2.7160  0.6304
19626SOL    HW270938   9.331   9.056   9.733  0.8194  0.8697 -0.0114
19627SOL     OW70939   8.042   7.682   8.726 -0.4837 -0.3179  0.2813
19627SOL    HW170940   8.032   7.709   8.821  1.2106 -0.6835  0.5830
19627SOL    HW270941   8.133   7.710   8.693 -0.3933 -1.7190 -0.7015
19628SOL     OW70942   1.393   9.650   1.914 -0.0033  0.0549  0.4384
19628SOL    HW170943   1.439   9.739   1.909 -1.3109  0.6340 -1.6046
19628SOL    HW270944   1.457   9.578   1.888  0.6705  0.5220  0.7795
19629SOL     OW70945   8.281   3.883   5.670 -0.4258 -0.2723  0.7888
19629SOL    HW170946   8.363   3.938   5.686  0.2291 -1.5706  2.0548
19629SOL    HW270947   8.302   3.787   5.688 -1.8384 -0.8093 -0.3353
19630SOL     OW70948   4.335   6.318   8.807  0.4811 -0.2159 -0.0197
19630SOL    HW170949   4.353   6.319   8.906 -1.7778  2.3855  0.4319
19630SOL    HW270950   4.399   6.379   8.761 -0.0195  0.4332  0.1469
19631SOL     OW70951   7.025   2.853   5.977 -0.4134 -0.1028 -0.0738
19631SOL    HW170952   6.980   2.925   5.924  2.3427  1.7862 -0.0030
19631SOL    HW270953   7.078   2.794   5.915  1.5576  1.1640  0.3501
19632SOL     OW70954   7.535   6.658   2.625 -0.3472  0.1442  0.3705
19632SOL    HW170955   7.618   6.687   2.577 -0.7282 -0.7028 -0.8330
19632SOL    HW270956   7.536   6.695   2.718 -0.2871  3.0916 -0.7204
19633SOL     OW70957   8.560   5.760   6.716  0.4584  0.0997  0.0142
19633SOL    HW170958   8.473   5.745   6.667  0.4377 -0.4701  0.2100
19633SOL    HW270959   8.541   5.777   6.812  0.6483 -2.1658  0.4941
19634SOL     OW70960   2.447   7.895   6.862  0.0415  0.2524 -0.2321
19634SOL    HW170961   2.424   7.798   6.855  1.6556 -0.1470 -0.3116
19634SOL    HW270962   2.535   7.911   6.817 -0.2005  1.7540 -0.1944
19635SOL     OW70963   1.375   6.397   9.992  0.0401 -0.6114  0.3536
19635SOL    HW170964   1.277   6.388  10.010  0.2337 -0.2188  1.6727
19635SOL    HW270965   1.390   6.469   9.923 -0.6297 -1.1080 -0.3173
19636SOL     OW70966   7.446   9.318   1.313 -0.3407  0.3497 -0.3054
19636SOL    HW170967   7.385   9.251   1.270  0.1128 -0.6602  0.6192
19636SOL    HW270968   7.451   9.400   1.255 -1.2851 -0.2116 -1.1964
19637SOL     OW70969   5.893   7.794   1.279 -0.0765 -0.5678  0.3090
19637SOL    HW170970   5.804   7.797   1.232  0.3223 -1.4576 -0.5373
19637SOL    HW270971   5.964   7.825   1.216  0.3985 -1.2872  0.4853
19638SOL     OW70972   0.979   3.751   4.600  0.2949 -0.0290 -0.1140
19638SOL    HW170973   0.901   3.801   4.638 -0.5274 -1.6306  0.3606
19638SOL    HW270974   0.980   3.760   4.501  0.8581  1.9038  0.0420
19639SOL     OW70975   5.347   1.694   8.661 -0.1401 -0.2638 -0.6148
19639SOL    HW170976   5.312   1.772   8.607  0.1076  0.1584 -0.1689
19639SOL    HW270977   5.275   1.626   8.671  0.1354 -0.8584 -2.4215
19640SOL     OW70978   6.807   2.452   9.015  0.1916  0.3448 -0.1143
19640SOL    HW170979   6.829   2.539   9.059 -0.4223  0.0625  0.7706
19640SOL    HW270980   6.882   2.388   9.030 -0.4591 -0.0844  1.4496
19641SOL     OW70981   4.547   8.757   2.325 -0.3425 -0.1435 -0.3384
19641SOL    HW170982   4.642   8.738   2.300 -0.7085 -2.9203  0.1605
19641SOL    HW270983   4.491   8.761   2.243  0.0722  0.7408 -0.5828
19642SOL     OW70984   4.997   3.465   7.879  0.4465 -0.0462  0.5392
19642SOL    HW170985   5.030   3.410   7.802  1.3105  1.7699 -0.4142
19642SOL    HW270986   5.074   3.497   7.934  0.0846  1.4991  0.1781
19643SOL     OW70987   2.844   1.837   5.629  0.1748 -0.3239  0.3386
19643SOL    HW170988   2.796   1.925   5.628  0.5855 -0.1129 -0.7751
19643SOL    HW270989   2.798   1.775   5.694 -2.2281 -0.4579 -1.4391
19644SOL     OW70990   2.483   6.504   5.154 -0.1275 -0.8096  0.5778
19644SOL    HW170991   2.389   6.474   5.140 -0.3222 -0.3771  0.9536
19644SOL    HW270992   2.545   6.437   5.113 -0.6402 -0.3778 -0.9404
19645SOL     OW70993   5.540   8.282   4.925 -0.0157  0.0402  0.5465
19645SOL    HW170994   5.553   8.248   5.018  1.1373  2.3159  1.2705
19645SOL    HW270995   5.446   8.315   4.914  0.1639  0.8119  1.2767
19646SOL     OW70996   9.591   7.896   8.695  0.3047  0.1292  0.6806
19646SOL    HW170997   9.532   7.852   8.627  2.9145  0.2319 -1.7004
19646SOL    HW270998   9.663   7.833   8.723  0.6324  0.9145  1.6187
19647SOL     OW70999   4.975   1.844   1.096  0.3219  0.0365 -0.5404
19647SOL    HW171000   5.067   1.854   1.135  0.6579  2.5124 -1.8550
19647SOL    HW271001   4.907   1.849   1.169  1.1935 -1.3253  0.3901
19648SOL     OW71002   5.475   7.007   7.694 -0.1465  0.5637 -0.4299
19648SOL    HW171003   5.494   7.102   7.668  0.6142  0.1923 -1.2595
19648SOL    HW271004   5.550   6.948   7.663 -1.8570 -0.6997 -2.2841
19649SOL     OW71005   4.122   0.185   5.461  0.0385 -0.3127  0.6729
19649SOL    HW171006   4.069   0.131   5.395 -0.6161  0.5905  0.4556
19649SOL    HW271007   4.219   0.158   5.455  0.0053 -0.1780 -0.7219
19650SOL     OW71008   9.133   6.306   4.468  0.9307  0.1885 -0.4834
19650SOL    HW171009   9.156   6.221   4.515  0.5411  0.5329  0.3565
19650SOL    HW271010   9.215   6.346   4.428  1.4594  0.3848  0.7727
19651SOL     OW71011   5.477   4.999   1.563 -0.1039 -0.5668  0.4221
19651SOL    HW171012   5.400   5.013   1.626 -1.4115 -1.5861 -0.9075
19651SOL    HW271013   5.467   4.910   1.518  1.9134 -0.7521  0.2806
19652SOL     OW71014   7.501   7.463   4.517  0.2366  0.1813 -0.4191
19652SOL    HW171015   7.555   7.459   4.433  0.6103 -2.4654 -0.0960
19652SOL    HW271016   7.415   7.414   4.504 -0.7693  1.7682  0.0452
19653SOL     OW71017   6.606   9.848   9.138 -0.3173 -0.1800  0.5945
19653SOL    HW171018   6.531   9.894   9.185 -1.1604 -1.5314  0.5812
19653SOL    HW271019   6.591   9.851   9.039  0.5905  1.1538  0.4804
19654SOL     OW71020   3.116   6.745   3.579 -0.2042 -0.0837  0.0789
19654SOL    HW171021   3.102   6.699   3.667  1.6316  0.0951  0.4917
19654SOL    HW271022   3.082   6.839   3.585  0.6191  0.1806  0.8711
19655SOL     OW71023   8.161   6.645   6.435  0.6370 -0.2515 -0.0209
19655SOL    HW171024   8.257   6.667   6.415  0.5714  0.2045  0.1726
19655SOL    HW271025   8.138   6.675   6.527 -0.5590  2.4095 -1.1407
19656SOL     OW71026   1.060   2.124   6.191 -0.0656 -0.3716 -0.2969
19656SOL    HW171027   1.013   2.073   6.264  0.2506 -0.4830 -0.1691
19656SOL    HW271028   1.030   2.089   6.102 -0.6116 -0.0909 -0.2247
19657SOL     OW71029   5.109   3.829   9.371  0.1247  0.1420 -0.4024
19657SOL    HW171030   5.017   3.808   9.338  0.4630 -0.0487 -1.2291
19657SOL    HW271031   5.136   3.761   9.440 -0.1209 -0.1440 -0.5861
19658SOL     OW71032   7.673   9.589   4.712 -0.3128 -0.4273  0.5042
19658SOL    HW171033   7.576   9.579   4.691 -0.1971  1.8934 -1.3238
19658SOL    HW271034   7.685   9.657   4.785 -0.0975 -1.1412  1.1359
19659SOL     OW71035   2.879   3.350   4.903 -0.1338 -0.6494 -0.2678
19659SOL    HW171036   2.929   3.435   4.887 -1.2219  0.0379 -0.0114
19659SOL    HW271037   2.940   3.284   4.948  0.2500  0.5223  0.9429
19660SOL     OW71038   7.377   2.147   0.533  0.1471  0.2889  0.0807
19660SOL    HW171039   7.470   2.156   0.569 -0.1326  0.2142  0.8350
19660SOL    HW271040   7.312   2.147   0.609 -0.4794  0.4798 -0.4524
19661SOL     OW71041   5.044   7.257   8.821  0.0216  0.0162  0.2330
19661SOL    HW171042   5.005   7.349   8.820 -0.8933 -0.3670  0.6367
19661SOL    HW271043   5.122   7.253   8.758  1.1799  1.5372  1.5475
19662SOL     OW71044   8.181   5.075   4.412  0.3578 -0.0528 -0.3506
19662SOL    HW171045   8.083   5.058   4.403  0.0596  1.3815  0.0057
19662SOL    HW271046   8.229   4.988   4.429 -1.0879 -0.5423  1.4666
19663SOL     OW71047   5.685   1.178   8.773  0.0394  0.3359 -0.4863
19663SOL    HW171048   5.646   1.263   8.810 -0.8583 -0.4398  0.3987
19663SOL    HW271049   5.614   1.127   8.725 -0.0349 -1.0068  0.9737
19664SOL     OW71050   6.581   7.141   6.871 -0.0690  0.1618  0.8121
19664SOL    HW171051   6.575   7.072   6.799  1.5867 -1.4473  2.1485
19664SOL    HW271052   6.651   7.208   6.848  0.0204  0.0063  0.6292
19665SOL     OW71053   5.059   4.715   0.261  0.0485  0.2204 -0.3117
19665SOL    HW171054   5.012   4.665   0.334  1.9514  0.0071  0.8043
19665SOL    HW271055   5.045   4.667   0.174 -1.9675  0.3000 -0.0678
19666SOL     OW71056   7.468   4.773   8.397 -0.3220  0.1755  0.2658
19666SOL    HW171057   7.401   4.759   8.325  0.0802 -2.0654  0.2783
19666SOL    HW271058   7.444   4.718   8.477  0.8049  0.3672  0.7566
19667SOL     OW71059   9.385   7.750   6.100  0.3778 -0.2319 -0.0881
19667SOL    HW171060   9.338   7.683   6.157  0.7919 -0.4714 -0.0257
19667SOL    HW271061   9.370   7.729   6.004  1.7544 -1.3082 -0.0794
19668SOL     OW71062   8.426   7.623   7.282  0.1815  0.4672  0.0787
19668SOL    HW171063   8.518   7.631   7.321  0.8755 -1.9350 -0.9797
19668SOL    HW271064   8.432   7.581   7.191 -2.0425 -0.9590  0.5618
19669SOL     OW71065   9.785   8.596   2.598 -0.3082  0.0282  0.0196
19669SOL    HW171066   9.872   8.555   2.572 -0.6078 -0.0054 -0.9295
19669SOL    HW271067   9.749   8.651   2.522 -1.5929 -0.7569  0.0491
19670SOL     OW71068   6.594   7.270   5.993 -0.6782 -0.1912  0.2462
19670SOL    HW171069   6.626   7.259   6.087  2.8415  2.7909 -0.5250
19670SOL    HW271070   6.632   7.197   5.936  0.5955  0.4012  0.3356
19671SOL     OW71071   9.851   9.294   5.931  0.3790 -0.2467  0.1323
19671SOL    HW171072   9.794   9.331   6.005 -0.0967 -0.1611 -0.2717
19671SOL    HW271073   9.944   9.280   5.964  0.3701  0.5865  0.5042
19672SOL     OW71074   2.399   4.495   0.242 -0.1380 -0.6107  0.7067
19672SOL    HW171075   2.418   4.549   0.324 -2.1519  0.3299  0.5871
19672SOL    HW271076   2.407   4.553   0.161 -0.0155 -1.0779  0.3793
19673SOL     OW71077   3.214   5.002   9.362 -0.2029 -0.1269  0.6655
19673SOL    HW171078   3.301   4.952   9.354  0.0599  0.5885 -1.3819
19673SOL    HW271079   3.153   4.972   9.289 -1.0944  0.5042  1.1525
19674SOL     OW71080   4.235   8.895   5.016  0.5483 -0.7857 -0.5530
19674SOL    HW171081   4.304   8.937   5.075  0.6912 -0.9793 -0.5824
19674SOL    HW271082   4.274   8.816   4.969 -0.0389 -1.6584  0.3919
19675SOL     OW71083   7.837   8.881   6.746  0.0753 -0.0355  0.3796
19675SOL    HW171084   7.849   8.962   6.804 -1.3879  0.3553  0.1534
19675SOL    HW271085   7.747   8.884   6.703  0.7734 -0.8149 -1.1663
19676SOL     OW71086   6.001   9.500   7.381  0.6819 -0.0031  0.2814
19676SOL    HW171087   6.081   9.556   7.359  2.1162 -2.5613 -1.2979
19676SOL    HW271088   5.942   9.494   7.300 -0.3743  0.6607  0.9935
19677SOL     OW71089   3.427   1.655   0.479 -0.0733  0.4704 -0.3082
19677SOL    HW171090   3.468   1.690   0.563 -0.5131 -0.6083  0.3531
19677SOL    HW271091   3.489   1.672   0.402  0.6761  0.7463  0.3563
19678SOL     OW71092   6.513   8.125   6.132  0.1044  0.3526  1.0297
19678SOL    HW171093   6.458   8.078   6.063  0.8102  1.6373 -0.4573
19678SOL    HW271094   6.472   8.113   6.222 -3.0256  1.8695 -0.1083
19679SOL     OW71095   0.089   7.645   9.973  0.1456 -0.3731 -0.4496
19679SOL    HW171096   0.086   7.727   9.915  1.4456 -0.4126 -0.5842
19679SOL    HW271097   0.096   7.564   9.915 -1.1207 -0.5908 -0.3143
19680SOL     OW71098   6.385   6.707   0.233  0.6913  0.4715 -0.3790
19680SOL    HW171099   6.333   6.763   0.298  0.4771  1.6855 -1.5743
19680SOL    HW271100   6.323   6.643   0.187  0.4871  1.0139 -0.8575
19681SOL     OW71101   3.983   8.174   9.597 -0.0006  0.3274  0.0792
19681SOL    HW171102   3.930   8.214   9.671  0.2938  0.6941  0.0949
19681SOL    HW271103   3.988   8.075   9.609 -0.0520  0.3735  0.4829
19682SOL     OW71104   7.288   6.591   4.884  0.1129  0.2811  0.4328
19682SOL    HW171105   7.285   6.691   4.875 -1.1144  0.1206 -1.1428
19682SOL    HW271106   7.221   6.562   4.952  0.8017  0.5564  1.2406
19683SOL     OW71107   0.464   2.574   6.349 -0.8873 -0.0328  0.0823
19683SOL    HW171108   0.475   2.561   6.447 -2.1375 -0.4951  0.1681
19683SOL    HW271109   0.528   2.514   6.300 -0.7735 -0.3334  0.5962
19684SOL     OW71110   7.227   7.076   6.040 -0.2578 -0.2744  0.2380
19684SOL    HW171111   7.136   7.050   6.009 -0.3477 -1.5529  1.4733
19684SOL    HW271112   7.292   7.003   6.018  0.0346 -0.3418  1.2579
19685SOL     OW71113   4.142   3.925   8.429 -0.3661 -0.3455 -0.3937
19685SOL    HW171114   4.199   3.853   8.388 -0.8792  0.2004 -2.0828
19685SOL    HW271115   4.047   3.896   8.428 -0.6016  0.4343 -1.2736
19686SOL     OW71116   6.860   9.079   3.802  0.6587 -0.0680  0.1143
19686SOL    HW171117   6.829   9.054   3.894 -1.2070 -0.6340 -0.6370
19686SOL    HW271118   6.869   8.997   3.746  3.3076  0.1119  0.2060
19687SOL     OW71119   6.603   3.141   8.320 -0.2412  0.0082 -0.2181
19687SOL    HW171120   6.608   3.211   8.248  2.3448  0.2335  0.1506
19687SOL    HW271121   6.633   3.054   8.283  0.1266 -0.0942  0.3173
19688SOL     OW71122   1.227   8.639   5.950  0.3434 -0.5775  0.8694
19688SOL    HW171123   1.163   8.713   5.970  1.0928 -0.0086  1.1957
19688SOL    HW271124   1.267   8.605   6.035  1.5616  0.0655  0.5740
19689SOL     OW71125   7.570   6.771   7.517 -0.2842  0.6202 -0.9433
19689SOL    HW171126   7.584   6.680   7.558 -2.1130  0.7731  0.0608
19689SOL    HW271127   7.485   6.771   7.465  0.9199  1.0790 -2.9510
19690SOL     OW71128   2.285   5.746   5.799  0.3351 -0.2168 -0.1586
19690SOL    HW171129   2.200   5.790   5.768  1.6291  2.1171 -0.5395
19690SOL    HW271130   2.342   5.726   5.720  0.5440 -0.9309  0.1727
19691SOL     OW71131   6.960   3.810   1.487 -0.5217 -0.2717 -0.3522
19691SOL    HW171132   6.878   3.764   1.520 -0.5562 -0.5557 -0.8325
19691SOL    HW271133   7.028   3.814   1.560 -0.9685 -0.0138  0.0561
19692SOL     OW71134   4.671   7.810   9.520  0.4096 -0.1335 -0.1390
19692SOL    HW171135   4.572   7.822   9.507  0.1382 -0.8499  1.1567
19692SOL    HW271136   4.704   7.877   9.587  0.6909 -0.2859 -0.1272
19693SOL     OW71137   6.671   8.686   2.778  0.5018  0.1124 -0.1615
19693SOL    HW171138   6.755   8.703   2.829  1.0892 -2.7231 -0.0713
19693SOL    HW271139   6.653   8.587   2.775 -2.9583  0.6445  0.0366
19694SOL     OW71140   6.855   6.729   4.166 -0.2719 -0.1275  0.2469
19694SOL    HW171141   6.866   6.685   4.255 -0.5650 -0.6976  0.0074
19694SOL    HW271142   6.768   6.779   4.165 -0.4780 -0.4851  0.1318
19695SOL     OW71143   8.211   0.210   2.760 -0.2073  0.5400 -0.4875
19695SOL    HW171144   8.270   0.226   2.840  2.9138 -0.3480 -2.5220
19695SOL    HW271145   8.148   0.288   2.750  0.2021  1.2730  2.0630
19696SOL     OW71146   4.570   9.495   8.843 -0.0545 -0.0184  0.0595
19696SOL    HW171147   4.581   9.415   8.902  1.6199 -0.6192 -1.0554
19696SOL    HW271148   4.543   9.466   8.751 -2.7581  0.9269  0.5090
19697SOL     OW71149   9.699   4.744   7.381 -0.1220  0.2538 -0.3484
19697SOL    HW171150   9.704   4.774   7.476  0.7443  0.0616 -0.3247
19697SOL    HW271151   9.772   4.787   7.328 -0.3133 -0.0003 -0.8278
19698SOL     OW71152   8.334   9.502   4.804 -0.1151  0.0245  0.0460
19698SOL    HW171153   8.431   9.486   4.784  0.1284  1.7847 -0.2312
19698SOL    HW271154   8.325   9.542   4.895 -0.6244 -0.5231  0.2391
19699SOL     OW71155   0.536   6.168   6.620  0.2572 -0.4068 -0.6583
19699SOL    HW171156   0.505   6.257   6.588  0.3449 -0.3168 -0.4913
19699SOL    HW271157   0.490   6.096   6.568 -0.2474 -0.2756 -0.3982
19700SOL     OW71158   8.786   4.595   7.609  0.5556  0.4235 -0.3263
19700SOL    HW171159   8.813   4.530   7.537  0.5488  0.0607 -0.0028
19700SOL    HW271160   8.686   4.603   7.609  0.6412  1.7394 -1.4975
19701SOL     OW71161   7.919   6.210   6.800  0.9653  0.4970  0.7484
19701SOL    HW171162   7.986   6.269   6.754  1.0422  0.7619  1.2036
19701SOL    HW271163   7.935   6.210   6.898 -0.0643  1.0424  0.9328
19702SOL     OW71164   5.614   6.242   4.152  0.8483  0.0840  0.3431
19702SOL    HW171165   5.668   6.262   4.234  0.9988  0.6810  0.1015
19702SOL    HW271166   5.583   6.328   4.111  0.5435 -0.2239 -0.0746
19703SOL     OW71167   6.980   4.767   6.079 -0.1090 -0.0888  0.1769
19703SOL    HW171168   7.052   4.830   6.106 -0.8206  1.9915 -2.5131
19703SOL    HW271169   7.019   4.676   6.064  1.5195  0.4575  0.9954
19704SOL     OW71170   5.322   0.764   8.419 -0.0007 -0.9149 -0.2060
19704SOL    HW171171   5.265   0.785   8.340 -0.4450 -3.3608 -0.5667
19704SOL    HW271172   5.410   0.728   8.388  0.0423 -1.3456  0.3960
19705SOL     OW71173   5.216   8.424   6.095 -0.4165  0.1998  0.8499
19705SOL    HW171174   5.271   8.347   6.129 -0.0383  0.3480  0.5802
19705SOL    HW271175   5.227   8.430   5.995 -0.2775  0.7359  0.8986
19706SOL     OW71176   4.885   5.690   8.855 -0.3404  0.1167 -0.1860
19706SOL    HW171177   4.891   5.789   8.869  0.3215  0.0164  0.2390
19706SOL    HW271178   4.938   5.643   8.925 -0.0673 -0.5115 -0.8107
19707SOL     OW71179   1.210   8.344   0.002  0.7239 -0.1368  0.5086
19707SOL    HW171180   1.203   8.245   0.010 -2.5501 -0.2036 -1.9364
19707SOL    HW271181   1.170   8.387   0.083  0.1157 -0.8152  0.5746
19708SOL     OW71182   9.742   7.056   8.809  0.2309 -0.4536 -0.2297
19708SOL    HW171183   9.767   6.973   8.858  1.8236 -0.4081 -0.9406
19708SOL    HW271184   9.815   7.081   8.745  0.0544  1.8004  0.3806
19709SOL     OW71185   7.558   9.687  10.000  0.2870  0.7505 -0.5734
19709SOL    HW171186   7.578   9.598  10.041 -2.9013  0.8163  1.3326
19709SOL    HW271187   7.536   9.675   9.903  3.6956  0.0311 -1.3134
19710SOL     OW71188   6.834   0.171   4.425  0.6500 -0.2480  0.2259
19710SOL    HW171189   6.896   0.196   4.351  0.4980  0.2749  0.2712
19710SOL    HW271190   6.780   0.252   4.452  0.0805 -0.6489  0.3057
19711SOL     OW71191   6.235   5.456   7.787 -0.5309  0.1839 -0.1763
19711SOL    HW171192   6.322   5.507   7.785 -1.7444  2.2898 -1.6319
19711SOL    HW271193   6.239   5.388   7.860  2.9184 -0.8493 -1.1934
19712SOL     OW71194   5.961   6.026   1.648 -0.1292 -0.1329  0.1052
19712SOL    HW171195   5.923   6.025   1.556  2.4087 -0.9319 -0.9750
19712SOL    HW271196   5.910   5.962   1.706 -1.2835 -0.1581 -0.9257
19713SOL     OW71197   4.903   0.012   3.199  0.0971 -0.4011  0.3992
19713SOL    HW171198   4.865   0.071   3.270 -0.6784  0.9929 -1.1534
19713SOL    HW271199   4.846  -0.070   3.190 -0.9838  0.3812 -0.0062
19714SOL     OW71200   6.123   0.482   9.747 -0.3873 -0.4204  0.1889
19714SOL    HW171201   6.074   0.438   9.672  0.2088 -0.1319 -0.3753
19714SOL    HW271202   6.212   0.438   9.759 -0.6149 -0.6817  0.9453
19715SOL     OW71203   7.984   8.032   6.007 -0.1670  0.5078  0.1927
19715SOL    HW171204   7.894   8.006   6.042  0.6699 -2.8483  0.0518
19715SOL    HW271205   7.980   8.040   5.907  0.0189 -1.2261  0.0302
19716SOL     OW71206   3.823   1.429   4.069  0.0146 -0.1939  0.7044
19716SOL    HW171207   3.725   1.426   4.086 -0.1356  0.2475 -0.0532
19716SOL    HW271208   3.840   1.425   3.970  0.8380 -2.1591  0.9043
19717SOL     OW71209   6.686   1.661   1.777  0.4398  0.0177 -0.4263
19717SOL    HW171210   6.681   1.716   1.860 -2.3751  0.7748 -1.0379
19717SOL    HW271211   6.710   1.567   1.800  3.8834  1.1188  0.7755
19718SOL     OW71212   3.568   4.998   1.152 -0.2343  0.1164  0.4696
19718SOL    HW171213   3.529   5.073   1.206 -1.2597  0.3972 -0.6362
19718SOL    HW271214   3.573   5.025   1.056  1.6428 -0.3564  0.4227
19719SOL     OW71215   3.086   6.292   9.981 -0.0367 -0.6282  0.2898
19719SOL    HW171216   3.152   6.311  10.053  0.5386  0.0628 -0.4028
19719SOL    HW271217   3.096   6.359   9.907 -2.3372  0.2531  0.7187
19720SOL     OW71218   7.190   8.976   7.056 -0.3383 -0.4316  0.1296
19720SOL    HW171219   7.161   8.885   7.027  0.2144 -1.0424  1.4743
19720SOL    HW271220   7.109   9.034   7.069 -0.7149 -0.8584 -0.2945
19721SOL     OW71221   4.269   4.539   5.134  0.3339 -0.2057  0.5858
19721SOL    HW171222   4.213   4.502   5.060  1.3762 -1.0895  0.2161
19721SOL    HW271223   4.215   4.601   5.190 -0.8913 -0.7369 -0.0000
19722SOL     OW71224   2.635   5.088   5.624 -0.1161 -0.6089  0.6800
19722SOL    HW171225   2.589   5.041   5.548 -1.6713  1.2614  0.4171
19722SOL    HW271226   2.725   5.048   5.638  0.1221 -1.1443 -2.0287
19723SOL     OW71227   8.050   5.595   6.145  0.5037 -0.3381 -0.2636
19723SOL    HW171228   8.036   5.498   6.163 -1.0602 -0.1657 -0.4791
19723SOL    HW271229   8.095   5.637   6.224 -0.4507 -0.8835  0.5885
19724SOL     OW71230   5.785   7.041   6.977 -0.8427 -0.0309 -0.0954
19724SOL    HW171231   5.839   6.959   6.962  0.5153  0.8000  0.1472
19724SOL    HW271232   5.810   7.082   7.065 -0.5283  1.3596 -0.8070
19725SOL     OW71233   2.656   9.043   6.732  0.8572 -0.0494  0.0976
19725SOL    HW171234   2.670   9.083   6.823 -2.1259 -0.4741  0.7776
19725SOL    HW271235   2.571   8.991   6.730  1.1171 -0.4764 -2.8178
19726SOL     OW71236   8.967   6.098   8.765 -0.4071 -0.1364 -0.3203
19726SOL    HW171237   8.942   6.009   8.805 -0.4139  0.4589  1.0340
19726SOL    HW271238   9.055   6.090   8.718 -1.1107 -1.2204 -1.4914
19727SOL     OW71239   8.858   7.860   0.016  0.1501 -0.1273  0.5759
19727SOL    HW171240   8.784   7.927   0.012 -0.0920 -0.3875  0.7256
19727SOL    HW271241   8.820   7.769   0.030  0.4707 -0.3203  0.1877
19728SOL     OW71242   2.771   9.037   3.321 -0.4075  0.3743  0.0005
19728SOL    HW171243   2.677   9.009   3.303 -0.5576  0.8427  0.0452
19728SOL    HW271244   2.784   9.131   3.290  0.4310 -0.1523 -1.2595
19729SOL     OW71245   8.857   8.980   6.143  0.1097  0.6026 -0.0993
19729SOL    HW171246   8.867   8.939   6.233 -0.1172  0.3180 -0.2046
19729SOL    HW271247   8.764   8.966   6.110  1.0960 -2.2580 -1.8354
19730SOL     OW71248   3.709   8.464   4.676  0.6123 -0.3932  0.0989
19730SOL    HW171249   3.750   8.546   4.636 -0.6361  0.2113  0.0477
19730SOL    HW271250   3.610   8.476   4.685  0.7056 -0.9946  2.2589
19731SOL     OW71251   5.132   5.618   1.714 -0.2370  0.1156 -0.2968
19731SOL    HW171252   5.201   5.574   1.656  0.7228  0.4860  0.5630
19731SOL    HW271253   5.076   5.548   1.758  1.8142 -0.3203  1.7242
19732SOL     OW71254   5.564   8.531   6.017 -0.4634 -0.2959 -0.5223
19732SOL    HW171255   5.563   8.575   6.107 -2.0653  2.2894 -1.7565
19732SOL    HW271256   5.634   8.573   5.960 -2.6382  1.4376 -2.0215
19733SOL     OW71257   3.399   5.814   7.786 -0.2975  0.3627 -0.5617
19733SOL    HW171258   3.352   5.826   7.698  0.4137 -0.1848 -1.0291
19733SOL    HW271259   3.467   5.742   7.777 -0.6988 -0.1828  0.6431
19734SOL     OW71260   2.663   1.217   1.298 -0.2557  0.0066  0.4302
19734SOL    HW171261   2.597   1.292   1.300 -0.2031  0.0941 -0.7609
19734SOL    HW271262   2.725   1.225   1.376 -0.2939  1.1482  0.3470
19735SOL     OW71263   6.416   5.238   7.772  0.3233  0.3147 -0.0250
19735SOL    HW171264   6.337   5.188   7.808 -0.2620 -0.2709 -2.0300
19735SOL    HW271265   6.442   5.310   7.836 -1.6970  0.3591  0.7808
19736SOL     OW71266   9.124   0.893   5.439  0.1175 -0.0173 -0.2341
19736SOL    HW171267   9.222   0.900   5.419  0.2169  0.7716  0.5370
19736SOL    HW271268   9.109   0.901   5.537 -0.9250  2.2386 -0.5512
19737SOL     OW71269   3.105   5.900   6.419 -0.3846  0.1578  0.5541
19737SOL    HW171270   3.035   5.907   6.490 -1.2470  2.2240 -0.4428
19737SOL    HW271271   3.091   5.816   6.367 -1.5029  0.0317  1.0290
19738SOL     OW71272   4.634   3.811   6.348 -0.3953  0.2205  0.4280
19738SOL    HW171273   4.595   3.720   6.335  1.4527 -0.5220 -0.1322
19738SOL    HW271274   4.573   3.867   6.403 -2.2519 -0.8773 -0.4907
19739SOL     OW71275   8.697   9.148   8.896  0.0981  0.3425 -0.0822
19739SOL    HW171276   8.660   9.197   8.975  0.5265 -1.0059  0.9744
19739SOL    HW271277   8.630   9.081   8.864 -0.3934  1.4405 -1.3760
19740SOL     OW71278   8.614   7.464   8.157 -0.1913  0.0353 -0.2910
19740SOL    HW171279   8.581   7.376   8.194 -2.8353  1.1853  0.2102
19740SOL    HW271280   8.625   7.456   8.058 -2.3982 -0.3008 -0.5350
19741SOL     OW71281   5.721   5.959   6.799 -0.0373  0.1621  0.1574
19741SOL    HW171282   5.789   5.911   6.856  0.9912  1.7696  0.3261
19741SOL    HW271283   5.760   5.977   6.709 -0.5713  0.2823 -0.0505
19742SOL     OW71284   3.477   7.954   9.131 -0.1133  0.0598  0.2658
19742SOL    HW171285   3.424   8.001   9.201 -0.4420 -0.9873  0.7262
19742SOL    HW271286   3.573   7.952   9.158  0.2239  2.1119 -0.6518
19743SOL     OW71287   9.767   6.433   3.696 -0.2652 -0.3498 -0.4598
19743SOL    HW171288   9.847   6.449   3.753 -0.2482  0.2168 -0.6401
19743SOL    HW271289   9.770   6.340   3.660  1.2558  0.2643 -1.9459
19744SOL     OW71290   7.366   4.194   9.642 -0.5562 -0.1990 -0.4063
19744SOL    HW171291   7.461   4.168   9.626 -0.4176 -2.1053  2.9505
19744SOL    HW271292   7.359   4.244   9.728 -2.7304 -1.2249  0.0659
19745SOL     OW71293   7.573   4.421   9.730 -0.1480  0.2436 -0.2543
19745SOL    HW171294   7.481   4.406   9.764  0.1374 -0.5569  0.1709
19745SOL    HW271295   7.637   4.425   9.807  0.3674 -0.6477 -0.6263
19746SOL     OW71296   3.319   5.077   9.960  0.0554  0.1420 -0.8426
19746SOL    HW171297   3.269   5.151  10.006  1.2588  0.8843 -0.7079
19746SOL    HW271298   3.389   5.041  10.022  0.4020 -0.1681 -1.4157
19747SOL     OW71299   3.816   4.716   7.306 -0.8008 -0.6632  0.3256
19747SOL    HW171300   3.819   4.715   7.206  0.3773  1.3833  0.3177
19747SOL    HW271301   3.762   4.794   7.337 -0.8229 -1.0563  1.3078
19748SOL     OW71302   7.641   0.287   6.125 -0.2114 -0.1525  0.1631
19748SOL    HW171303   7.719   0.340   6.092  0.0207  1.0907  2.5673
19748SOL    HW271304   7.670   0.194   6.147 -0.1366 -0.6553 -1.9959
19749SOL     OW71305   3.673   3.266   1.629 -0.3868  0.3447  0.3862
19749SOL    HW171306   3.650   3.363   1.631 -1.4838  0.0856  2.2809
19749SOL    HW271307   3.590   3.212   1.617  0.2468 -0.3605 -0.9342
19750SOL     OW71308   6.624   8.297   0.255  0.5012 -0.3843 -0.1703
19750SOL    HW171309   6.641   8.270   0.160  0.6829 -0.1970 -0.1918
19750SOL    HW271310   6.701   8.267   0.312  0.4721 -0.3480 -0.1121
19751SOL     OW71311   7.957   7.728   0.566  0.0598 -0.3414  0.2551
19751SOL    HW171312   7.961   7.823   0.535 -0.2387 -0.4632 -0.1517
19751SOL    HW271313   7.898   7.721   0.646 -1.5693 -0.5050 -0.9196
19752SOL     OW71314   4.864   2.483   2.694  0.0595 -0.0152  0.0127
19752SOL    HW171315   4.889   2.522   2.605 -0.1676 -0.1898 -0.1284
19752SOL    HW271316   4.919   2.526   2.765  0.6779 -0.3135 -0.2811
19753SOL     OW71317   4.018   3.047   7.282 -0.2714  0.5734  0.4368
19753SOL    HW171318   3.995   2.952   7.262 -0.2767  0.7564 -0.4656
19753SOL    HW271319   4.024   3.060   7.381 -1.0274 -0.1815  0.5853
19754SOL     OW71320   9.767   8.423   6.920  0.3631  0.0887 -0.3378
19754SOL    HW171321   9.669   8.443   6.915  0.2977  0.4328  1.8154
19754SOL    HW271322   9.816   8.506   6.945  1.0115 -0.4787  0.2943
19755SOL     OW71323   6.211   8.707   9.425 -0.3787  0.2159  0.0177
19755SOL    HW171324   6.257   8.738   9.509 -1.7087 -0.3777  0.9860
19755SOL    HW271325   6.186   8.786   9.369  0.0634  0.6487  0.4288
19756SOL     OW71326   8.771   5.812   3.201  0.6560  0.2674  0.4879
19756SOL    HW171327   8.866   5.799   3.171  0.0809 -1.3488 -0.6624
19756SOL    HW271328   8.727   5.881   3.144  0.3877 -0.8185 -0.6328
19757SOL     OW71329   8.590   8.434   9.027 -0.1749  0.3305 -0.3142
19757SOL    HW171330   8.681   8.465   9.052 -0.2187 -0.1223  0.4133
19757SOL    HW271331   8.591   8.335   9.011 -0.7246  0.1681  0.5983
19758SOL     OW71332   6.175   6.136   5.160  0.1194 -0.5045  0.0119
19758SOL    HW171333   6.082   6.104   5.179 -0.7551  2.9313  1.8093
19758SOL    HW271334   6.180   6.168   5.066 -0.4837 -0.8742 -0.1505
19759SOL     OW71335   0.043   6.438   6.599  0.2060 -0.1342 -0.2034
19759SOL    HW171336   0.134   6.418   6.635  0.9075  2.0048 -0.7575
19759SOL    HW271337   0.027   6.537   6.598 -2.1483 -0.4684 -0.0598
19760SOL     OW71338   6.803   2.902   8.582 -0.1571  0.0985  0.2120
19760SOL    HW171339   6.822   2.995   8.549  0.6323  0.1494  0.8121
19760SOL    HW271340   6.881   2.868   8.634 -0.7681 -0.5958  0.6808
19761SOL     OW71341   6.407   5.641   8.811 -0.2564 -0.8100  0.6529
19761SOL    HW171342   6.360   5.729   8.819  2.6053  0.7835  0.5040
19761SOL    HW271343   6.419   5.601   8.902 -0.4604 -0.4710  0.8311
19762SOL     OW71344   5.152   6.730   2.774 -0.4838  0.2936 -0.2056
19762SOL    HW171345   5.151   6.663   2.700  2.8273 -0.9537  0.7898
19762SOL    HW271346   5.070   6.720   2.831 -1.5912 -0.6990 -1.9462
19763SOL     OW71347   6.534   3.845   1.584  0.0048 -0.5148  0.6841
19763SOL    HW171348   6.570   3.938   1.579  0.8201 -0.9249 -1.6103
19763SOL    HW271349   6.445   3.841   1.538 -1.5437 -0.2059  3.5565
19764SOL     OW71350   8.054   4.694   7.661  0.8140 -0.1037  0.2117
19764SOL    HW171351   8.144   4.667   7.694  1.1539 -0.2682 -0.8464
19764SOL    HW271352   7.991   4.617   7.671  0.5407  0.3093  1.8370
19765SOL     OW71353   6.775   7.428   7.222 -0.1287  0.2488 -0.2204
19765SOL    HW171354   6.810   7.340   7.188 -0.4188  0.2447 -0.5126
19765SOL    HW271355   6.710   7.465   7.155  1.4336  1.6093 -1.0246
19766SOL     OW71356   3.773   9.493   3.591 -0.8017  0.1052 -0.0295
19766SOL    HW171357   3.805   9.545   3.670  0.6519 -0.6868 -0.0854
19766SOL    HW271358   3.798   9.540   3.506  0.8075 -0.8262 -0.0879
19767SOL     OW71359   5.805   5.120   9.518 -0.2247 -0.1491 -0.9588
19767SOL    HW171360   5.708   5.142   9.531 -0.2068 -0.5776 -0.0567
19767SOL    HW271361   5.861   5.190   9.563 -0.1380 -0.5881 -0.3707
19768SOL     OW71362   1.250   6.118   8.758  0.5297  0.0442  0.3247
19768SOL    HW171363   1.194   6.114   8.841  0.2196 -0.5476  0.0865
19768SOL    HW271364   1.341   6.081   8.778  0.2416 -0.7152  0.2268
19769SOL     OW71365   9.715   8.285   7.615  0.6891 -0.3052 -0.2454
19769SOL    HW171366   9.750   8.281   7.708 -1.1116 -1.4008  0.4019
19769SOL    HW271367   9.693   8.379   7.591  1.6069  0.0403  0.2500
19770SOL     OW71368   9.712   6.673   7.101 -0.1002  0.3907 -0.4326
19770SOL    HW171369   9.657   6.657   7.183  2.0614  1.0844  1.2105
19770SOL    HW271370   9.708   6.769   7.076  0.9193  0.5902  0.1364
19771SOL     OW71371   4.213   6.766   2.276 -0.1219 -0.4760  0.0546
19771SOL    HW171372   4.183   6.829   2.347  2.7468  0.2996  0.6603
19771SOL    HW271373   4.241   6.680   2.318 -0.2019 -0.6907 -0.3349
19772SOL     OW71374   9.174   7.201   3.074 -0.8873  0.2223  0.5171
19772SOL    HW171375   9.098   7.216   3.010 -2.1158 -2.1329  1.3615
19772SOL    HW271376   9.216   7.289   3.096 -2.2518  1.3916 -1.3032
19773SOL     OW71377   0.275   0.956   2.143  0.4006 -0.5794 -0.3690
19773SOL    HW171378   0.326   0.870   2.146  1.1062 -0.1451 -0.0484
19773SOL    HW271379   0.177   0.936   2.145  0.5717 -1.3452  0.4192
19774SOL     OW71380   5.734   9.972   9.584 -0.0712 -0.2108 -0.6905
19774SOL    HW171381   5.722  10.057   9.533  0.9005 -0.9393 -2.1776
19774SOL    HW271382   5.644   9.931   9.601 -0.5335  1.0239 -0.0923
19775SOL     OW71383   6.323   5.340   9.198 -0.6552  0.3597 -0.2000
19775SOL    HW171384   6.304   5.265   9.262 -1.9497  1.1625  0.3708
19775SOL    HW271385   6.238   5.370   9.155 -0.5177  2.9896  1.2480
19776SOL     OW71386   0.135   7.203   9.304 -0.2866 -0.0311 -0.4509
19776SOL    HW171387   0.110   7.109   9.328  1.1215 -0.3194 -0.0689
19776SOL    HW271388   0.167   7.206   9.210 -1.4948  0.2961 -0.8635
19777SOL     OW71389   8.611   5.162   0.375 -0.0198 -0.3635 -0.7858
19777SOL    HW171390   8.625   5.206   0.464 -0.2785 -1.0460 -0.4061
19777SOL    HW271391   8.541   5.211   0.323 -0.0969 -0.1540 -0.4828
19778SOL     OW71392   7.281   1.816   4.915 -0.4080 -0.1369  0.4278
19778SOL    HW171393   7.355   1.778   4.858 -0.8181 -0.3433  0.0322
19778SOL    HW271394   7.321   1.871   4.988  0.0467  2.0112 -1.3959
19779SOL     OW71395   4.402   6.430   3.649 -0.8011  0.2228  0.2999
19779SOL    HW171396   4.425   6.377   3.567 -0.3062  0.7346  0.1067
19779SOL    HW271397   4.453   6.516   3.649 -1.6463  0.7277  0.5871
19780SOL     OW71398   1.982   2.399   6.307 -0.0743 -0.2497 -0.2840
19780SOL    HW171399   1.961   2.387   6.210  1.8950 -0.5381 -0.6993
19780SOL    HW271400   1.909   2.451   6.351 -1.1205 -0.3597 -1.8577
19781SOL     OW71401   5.002   5.410   7.857  0.0693  0.2879  0.1799
19781SOL    HW171402   5.100   5.399   7.875  0.3419 -0.5453 -1.6707
19781SOL    HW271403   4.950   5.389   7.940  1.3878 -0.7190  0.7678
19782SOL     OW71404   3.184   7.056   8.840  0.0222 -0.4830 -0.2534
19782SOL    HW171405   3.193   7.080   8.937 -0.0461  0.3640 -0.4521
19782SOL    HW271406   3.087   7.044   8.819 -0.3549  3.7547 -1.2420
19783SOL     OW71407   2.755   3.410   5.709 -0.3764 -0.2646 -0.0554
19783SOL    HW171408   2.749   3.427   5.611  0.2384 -1.9387 -0.3982
19783SOL    HW271409   2.851   3.397   5.735 -0.7321 -2.6461  0.2389
19784SOL     OW71410   5.819   6.110   9.424 -0.8205 -0.5754  0.1469
19784SOL    HW171411   5.785   6.199   9.453 -1.4447 -0.7920  0.0864
19784SOL    HW271412   5.760   6.074   9.351 -0.4068 -0.9122 -0.0224
19785SOL     OW71413   3.926   6.975   0.237  0.3307 -0.1741 -0.6807
19785SOL    HW171414   3.996   7.007   0.174  3.4322  0.0746  2.6861
19785SOL    HW271415   3.944   6.880   0.262  0.7584  0.5119  1.7755
19786SOL     OW71416   3.510   2.721   6.809 -0.2759 -0.3737  0.2190
19786SOL    HW171417   3.426   2.669   6.793  0.5143 -1.8923  0.9465
19786SOL    HW271418   3.580   2.692   6.744 -0.7073  1.8834 -1.3256
19787SOL     OW71419   9.584   3.171   4.011 -0.4295 -0.6222  0.4403
19787SOL    HW171420   9.486   3.160   3.991 -0.0735 -1.9120 -0.7159
19787SOL    HW271421   9.608   3.114   4.090 -0.7677  0.3281  1.2370
19788SOL     OW71422   4.165   7.334   9.789 -0.0222 -0.2850 -0.2356
19788SOL    HW171423   4.178   7.418   9.737  0.7749 -0.4946 -0.3806
19788SOL    HW271424   4.076   7.336   9.834 -0.0208  0.6189 -0.2646
19789SOL     OW71425   3.940   9.818   1.336  0.1730 -0.6966  0.4549
19789SOL    HW171426   4.015   9.806   1.400  0.7753  1.1612  0.1229
19789SOL    HW271427   3.973   9.865   1.254 -0.7615 -2.2835 -0.8784
19790SOL     OW71428   6.706   6.381   2.139 -0.2055 -0.5730 -0.1995
19790SOL    HW171429   6.674   6.423   2.225  1.8337  0.0719  0.2736
19790SOL    HW271430   6.795   6.419   2.115  0.0123 -2.0025 -1.7255
19791SOL     OW71431   6.949   7.120   7.688 -0.3443 -0.1898  0.2631
19791SOL    HW171432   6.965   7.083   7.596 -1.9901 -0.5595  0.1142
19791SOL    HW271433   6.891   7.056   7.740 -0.6439  0.7198  1.0537
19792SOL     OW71434   3.905   4.642   9.763 -0.4585 -0.2379 -0.2293
19792SOL    HW171435   3.923   4.550   9.798 -2.2319 -0.0484  1.2015
19792SOL    HW271436   3.989   4.696   9.769  0.7830 -1.9353 -1.7103
19793SOL     OW71437   7.421   2.586   8.731  0.7715  0.0267  0.0366
19793SOL    HW171438   7.453   2.491   8.742 -0.9362 -0.7660 -1.5222
19793SOL    HW271439   7.379   2.617   8.816  1.9567 -0.3616  0.7770
19794SOL     OW71440   4.857   3.381   0.644  0.6605  0.7339  0.1466
19794SOL    HW171441   4.798   3.453   0.681  0.0227 -0.8502  2.2820
19794SOL    HW271442   4.950   3.393   0.681  1.1299  1.8444 -1.3686
19795SOL     OW71443   6.488   6.662   3.931 -0.8288  0.1778  0.4817
19795SOL    HW171444   6.431   6.605   3.871 -0.8961  0.4500  0.2882
19795SOL    HW271445   6.471   6.758   3.912  0.2303  0.2585 -0.0782
19796SOL     OW71446   4.479   4.190   8.610 -0.2726  0.4306 -0.6890
19796SOL    HW171447   4.553   4.146   8.559 -0.4635 -0.7416  0.0298
19796SOL    HW271448   4.424   4.245   8.547 -0.6612 -1.2143 -1.8279
19797SOL     OW71449   4.593   8.735   3.393 -0.3866  0.5878 -0.0436
19797SOL    HW171450   4.689   8.712   3.375 -0.5917  1.2107 -2.0368
19797SOL    HW271451   4.537   8.653   3.386 -0.2392  0.5409 -0.6760
19798SOL     OW71452   2.422   8.762   1.343  0.3314  0.2209  0.1809
19798SOL    HW171453   2.365   8.828   1.391  1.4659  2.9083 -2.0205
19798SOL    HW271454   2.455   8.802   1.257 -0.0010 -3.6750 -1.8933
19799SOL     OW71455   5.336   7.755   2.938 -0.3185 -0.5612 -0.5050
19799SOL    HW171456   5.272   7.679   2.949 -0.2475 -0.8420 -1.8856
19799SOL    HW271457   5.410   7.728   2.877 -1.4530  1.2922 -2.8059
19800SOL     OW71458   4.236   4.994   9.260  0.7604 -0.1450 -0.4762
19800SOL    HW171459   4.243   5.093   9.245  1.4923  0.0067  0.8282
19800SOL    HW271460   4.199   4.976   9.351  0.9455 -1.0766 -0.5766
19801SOL     OW71461   2.705   2.059   7.251 -0.4001 -0.4558  0.2263
19801SOL    HW171462   2.693   1.963   7.278  1.1392 -0.0840  2.3205
19801SOL    HW271463   2.784   2.066   7.190  0.7162 -0.2578  1.6773
19802SOL     OW71464   9.640   3.028   0.378 -0.3138  0.2624 -0.0469
19802SOL    HW171465   9.658   3.000   0.472 -1.5910  0.4806  0.2680
19802SOL    HW271466   9.557   2.982   0.345  0.8630 -0.8553 -1.5195
19803SOL     OW71467   7.096   7.921   3.064 -0.3354  0.5347 -0.2758
19803SOL    HW171468   7.040   7.947   2.985 -0.3574 -0.9111 -0.7521
19803SOL    HW271469   7.037   7.890   3.138 -0.2395  0.5611 -0.1883
19804SOL     OW71470   7.027   7.999   1.541  0.3157  0.1277 -0.6164
19804SOL    HW171471   6.971   8.000   1.458 -0.4065  1.4075 -0.1366
19804SOL    HW271472   7.036   7.906   1.575 -2.2600 -0.0155 -0.2284
19805SOL     OW71473   5.295   6.332   9.785  0.1951 -0.8972 -0.0007
19805SOL    HW171474   5.290   6.260   9.715 -1.7908 -0.0011 -0.8064
19805SOL    HW271475   5.297   6.290   9.875 -1.8503 -1.9694 -0.4269
19806SOL     OW71476   7.722   8.573   4.504  0.2461 -0.2920 -0.3964
19806SOL    HW171477   7.653   8.597   4.572  0.2648 -0.4885 -0.3092
19806SOL    HW271478   7.732   8.474   4.500  0.5086 -0.2640 -0.4250
19807SOL     OW71479   4.574   6.435   2.693 -0.2725 -0.4265 -0.5487
19807SOL    HW171480   4.605   6.395   2.607 -0.1176 -0.4996 -0.4587
19807SOL    HW271481   4.600   6.532   2.697 -0.1514 -0.4602 -0.5194
19808SOL     OW71482   3.649   7.332   1.150  0.4315 -0.4596 -0.6026
19808SOL    HW171483   3.719   7.365   1.087 -0.1690  0.0425 -1.0196
19808SOL    HW271484   3.686   7.327   1.243  1.4627 -1.6503 -1.0659
19809SOL     OW71485   4.998   6.082   7.774  0.2866  0.0807  0.1054
19809SOL    HW171486   5.046   6.061   7.689 -1.2081 -1.4159 -0.3894
19809SOL    HW271487   5.015   6.178   7.799  3.4836 -0.3793 -0.0629
19810SOL     OW71488   2.653   2.217   2.924 -0.3682  0.1126  0.1709
19810SOL    HW171489   2.676   2.128   2.965 -0.3031 -0.0345 -0.1841
19810SOL    HW271490   2.659   2.288   2.994  1.3916  0.1104  0.0507
19811SOL     OW71491   5.867   9.330   9.495  0.3292 -0.2512 -0.0232
19811SOL    HW171492   5.898   9.264   9.426 -0.6488 -0.9343  0.1718
19811SOL    HW271493   5.847   9.417   9.451  0.8198 -0.3308 -0.4187
19812SOL     OW71494   6.117   7.663   2.971  0.8691 -0.3169  0.0282
19812SOL    HW171495   6.160   7.733   3.027  2.0948 -1.1353  0.1201
19812SOL    HW271496   6.027   7.695   2.941  1.6470  1.5158 -0.4037
19813SOL     OW71497   2.461   1.484   2.349 -0.3150  0.0979  0.4385
19813SOL    HW171498   2.533   1.417   2.333  0.7098  1.4688 -0.8645
19813SOL    HW271499   2.467   1.517   2.443  0.4507 -0.1628  0.4881
19814SOL     OW71500   4.884   6.470   9.416 -0.4880 -0.2097 -0.4235
19814SOL    HW171501   4.866   6.381   9.457  1.2817 -0.0505  0.7532
19814SOL    HW271502   4.982   6.489   9.418 -0.8908  1.9818 -0.1955
19815SOL     OW71503   6.744   8.914   3.575 -0.5188  0.1043  0.7556
19815SOL    HW171504   6.675   8.919   3.647 -0.7699  0.2170  0.5034
19815SOL    HW271505   6.783   8.822   3.573 -0.4855  0.1111  1.0595
19816SOL     OW71506   6.247   5.817   1.810  0.0792 -0.3688 -0.0537
19816SOL    HW171507   6.208   5.782   1.724 -0.4261  0.0794 -0.0064
19816SOL    HW271508   6.327   5.873   1.789  0.7083 -1.2888 -0.1513
19817SOL     OW71509   7.591   2.370   1.557  0.1609 -0.5708  0.2967
19817SOL    HW171510   7.513   2.332   1.507 -0.4206 -0.1667  0.8787
19817SOL    HW271511   7.557   2.426   1.633  0.9907  1.9044 -1.1238
19818SOL     OW71512   6.557   4.057   6.586  0.0471  0.2241 -0.1634
19818SOL    HW171513   6.578   4.099   6.674  3.1561 -3.0439  0.7667
19818SOL    HW271514   6.560   4.127   6.515 -1.0074  2.6465  2.0942
19819SOL     OW71515   5.059   0.677   9.452  0.5547  0.4175 -0.0903
19819SOL    HW171516   5.148   0.634   9.439 -0.3594 -0.8154 -2.5660
19819SOL    HW271517   4.991   0.607   9.473 -0.3374  1.0061 -0.9536
19820SOL     OW71518   5.713   5.912   2.209  0.0269 -0.2037 -0.6458
19820SOL    HW171519   5.760   6.000   2.217 -1.4166  0.5113  0.1661
19820SOL    HW271520   5.778   5.841   2.181  2.1876  0.2149  2.9739
19821SOL     OW71521   9.934   0.031   5.034 -0.2871 -0.4405 -0.4110
19821SOL    HW171522   9.894  -0.010   4.952 -0.4323 -1.9030  0.3866
19821SOL    HW271523   9.861   0.061   5.095 -0.1721 -0.3000 -0.3392
19822SOL     OW71524   3.824   6.585   2.776  0.3875  0.5189 -0.0382
19822SOL    HW171525   3.803   6.487   2.784 -1.0038  0.9291  1.5054
19822SOL    HW271526   3.756   6.630   2.719 -0.4820  1.0477  1.3879
19823SOL     OW71527   9.534   9.899   3.081 -0.2058 -0.0003  0.0754
19823SOL    HW171528   9.511   9.817   3.133  1.5586 -0.8048 -0.3838
19823SOL    HW271529   9.553   9.974   3.144 -0.4185 -0.3256  0.5290
19824SOL     OW71530   7.405   5.739   0.440  0.2046  0.4386 -0.6140
19824SOL    HW171531   7.483   5.768   0.385 -0.4847 -0.2261 -1.9743
19824SOL    HW271532   7.420   5.763   0.535  1.6590  1.1375 -1.0135
19825SOL     OW71533   8.245   4.615   4.679  0.3719 -0.4272  0.7453
19825SOL    HW171534   8.145   4.615   4.674  0.3590 -0.5212  1.0539
19825SOL    HW271535   8.279   4.521   4.688  0.5959 -0.6065 -1.6841
19826SOL     OW71536   5.468   0.640   6.527  0.1518  0.0279  0.4844
19826SOL    HW171537   5.528   0.646   6.607  2.5102 -2.4611 -1.0183
19826SOL    HW271538   5.422   0.551   6.526  0.5351 -0.1705 -1.1651
19827SOL     OW71539   5.129   2.641   0.887  0.1297  0.4880 -0.3072
19827SOL    HW171540   5.079   2.691   0.815  0.3761  1.3777  0.1298
19827SOL    HW271541   5.113   2.543   0.877 -0.8559  0.6979 -0.8088
19828SOL     OW71542   3.950   9.564   0.376  0.2107  0.1985  0.1595
19828SOL    HW171543   3.941   9.481   0.431  0.1512 -0.0783 -0.2734
19828SOL    HW271544   4.024   9.553   0.310 -2.1712 -0.9245 -2.4179
19829SOL     OW71545   7.162   1.716   4.169 -0.1116  0.1552 -0.0711
19829SOL    HW171546   7.122   1.736   4.259  0.2966 -1.1402  0.4028
19829SOL    HW271547   7.176   1.617   4.160  0.7028  0.3687 -1.2027
19830SOL     OW71548   1.629   0.092   6.325 -0.0982  0.3692  0.4720
19830SOL    HW171549   1.652  -0.005   6.313  1.0721  0.6301  0.5249
19830SOL    HW271550   1.531   0.101   6.345 -0.8387 -0.5660 -2.5357
19831SOL     OW71551   7.477   8.462   1.592  0.2639  0.0613  0.2106
19831SOL    HW171552   7.449   8.434   1.500 -1.7208  0.3938  0.6902
19831SOL    HW271553   7.534   8.545   1.585 -0.5015  0.5275 -0.6802
19832SOL     OW71554   5.633   9.388   8.802 -0.1615  0.0921  0.0491
19832SOL    HW171555   5.712   9.327   8.796  2.1379  2.8625  0.8860
19832SOL    HW271556   5.599   9.391   8.896 -1.8940 -1.7646 -0.4707
19833SOL     OW71557   1.251   8.138   3.620 -0.1365 -0.5410 -0.0628
19833SOL    HW171558   1.260   8.203   3.695 -0.2033 -1.1336  0.4623
19833SOL    HW271559   1.342   8.114   3.585 -0.1703  0.7903 -1.0880
19834SOL     OW71560   4.275   3.341   2.372  0.2359 -0.6169  1.0165
19834SOL    HW171561   4.365   3.297   2.379 -0.9817 -2.9129  2.8877
19834SOL    HW271562   4.213   3.283   2.320 -0.0031  1.2997 -0.8982
19835SOL     OW71563   0.160   9.715   2.988  0.6822 -0.3716  0.0228
19835SOL    HW171564   0.106   9.631   2.977  1.7853 -0.7897 -2.6214
19835SOL    HW271565   0.247   9.704   2.940  0.4063  2.6713 -1.2608
19836SOL     OW71566   0.485   4.733   3.130  0.1578 -0.8669  0.6637
19836SOL    HW171567   0.486   4.705   3.226  1.2061 -0.9209  0.6430
19836SOL    HW271568   0.485   4.651   3.072  2.8723 -0.8583  0.6048
19837SOL     OW71569   5.175   0.678   1.744 -0.4174 -0.1529  0.1431
19837SOL    HW171570   5.167   0.621   1.662  0.5571 -0.3943  0.2023
19837SOL    HW271571   5.212   0.622   1.818  0.0712  0.4358  0.3412
19838SOL     OW71572   6.261   8.240   1.732  0.6085  0.0260  0.3058
19838SOL    HW171573   6.352   8.279   1.745  0.1552  0.4055  2.6344
19838SOL    HW271574   6.202   8.266   1.809 -1.6981  0.4018 -1.5342
19839SOL     OW71575   8.681   4.873   0.073 -0.1594  0.3522  0.2376
19839SOL    HW171576   8.685   4.962   0.027  0.7910  1.0068  1.5298
19839SOL    HW271577   8.769   4.826   0.061  0.4583  0.9534  2.1439
19840SOL     OW71578   3.032   8.988   5.465  0.5793 -0.2484 -0.4950
19840SOL    HW171579   3.074   8.936   5.391  0.4809  1.5960 -1.8685
19840SOL    HW271580   3.097   8.998   5.540  1.7068  0.3992 -1.5535
19841SOL     OW71581   7.007   0.045   9.899 -0.1182 -0.2139 -0.3149
19841SOL    HW171582   7.032  -0.041   9.854  0.6395 -0.5834  0.7883
19841SOL    HW271583   6.924   0.031   9.954 -0.3728 -0.0649 -0.6586
19842SOL     OW71584   5.552   1.031   3.509 -0.1248  0.1464 -0.0043
19842SOL    HW171585   5.592   1.121   3.530 -0.9803  0.5855 -0.2097
19842SOL    HW271586   5.611   0.959   3.544  0.2541  0.8093  0.7387
19843SOL     OW71587   8.713   3.980   9.545  0.0236 -0.6276  0.2156
19843SOL    HW171588   8.764   4.066   9.547  0.5203 -0.9305  1.8213
19843SOL    HW271589   8.766   3.910   9.497 -0.2170 -0.1389 -0.7667
19844SOL     OW71590   2.400   2.896   2.457 -0.1937  0.5350 -0.0605
19844SOL    HW171591   2.312   2.892   2.503 -0.3623  1.9270 -0.2239
19844SOL    HW271592   2.387   2.927   2.362  0.5389  1.5763  0.1690
19845SOL     OW71593   8.829   0.614   0.049 -0.1324 -0.2223  0.3425
19845SOL    HW171594   8.888   0.586  -0.026  0.5140  0.7711  0.4837
19845SOL    HW271595   8.763   0.541   0.068 -0.4195 -0.3992 -1.3040
19846SOL     OW71596   6.937   1.382   7.901 -0.2703  0.2035  0.6237
19846SOL    HW171597   6.946   1.437   7.819  1.1448  1.0535  1.3277
19846SOL    HW271598   6.994   1.301   7.894 -0.5901 -0.0181  0.5411
19847SOL     OW71599   2.511   9.358   4.880 -0.2807 -0.2356  0.0328
19847SOL    HW171600   2.484   9.376   4.786 -0.0442 -1.0367 -0.1967
19847SOL    HW271601   2.488   9.263   4.904 -0.7828  0.1033  0.9363
19848SOL     OW71602   0.064   7.832   9.420  0.6308 -0.1284  0.4143
19848SOL    HW171603   0.150   7.783   9.411  0.3295 -0.2941 -2.1320
19848SOL    HW271604   0.013   7.825   9.334 -0.9640  1.7351  1.1596
19849SOL     OW71605   5.906   3.882   2.788 -0.5887  0.4691  0.1172
19849SOL    HW171606   5.958   3.955   2.832  2.8527  0.1400 -3.0827
19849SOL    HW271607   5.919   3.796   2.838  0.4272  0.7945  0.4189
19850SOL     OW71608   5.566   5.046   3.529  0.2886  0.5145 -0.2458
19850SOL    HW171609   5.472   5.050   3.495  0.6670 -0.2926 -1.4361
19850SOL    HW271610   5.566   5.039   3.629 -0.9300 -0.1103 -0.2837
19851SOL     OW71611   7.808   4.858   2.120  1.1911  0.0397 -0.3831
19851SOL    HW171612   7.798   4.891   2.026  0.0032  0.7673 -0.0071
19851SOL    HW271613   7.903   4.828   2.135  1.9354  1.9234 -1.1904
19852SOL     OW71614   4.064   6.611   3.718  0.7566 -0.4737  0.3067
19852SOL    HW171615   4.082   6.512   3.722 -0.2244 -0.6511  0.2841
19852SOL    HW271616   4.036   6.636   3.626 -0.0933 -0.3630  0.5920
19853SOL     OW71617   8.397   6.448   5.402  0.3415 -0.9164  0.1781
19853SOL    HW171618   8.317   6.437   5.342 -0.0711 -0.5301  0.6602
19853SOL    HW271619   8.449   6.529   5.374  0.5439 -1.1413 -0.1053
19854SOL     OW71620   6.205   3.658   3.705  0.4490  0.2913  0.4146
19854SOL    HW171621   6.304   3.660   3.690  0.2761  2.4649 -0.6523
19854SOL    HW271622   6.181   3.577   3.759  2.8050 -0.2246  0.7459
19855SOL     OW71623   7.683   7.243   2.088 -0.0138 -0.5531 -0.4749
19855SOL    HW171624   7.762   7.182   2.088  1.8981  1.7963  1.0126
19855SOL    HW271625   7.645   7.248   2.181 -1.0152 -0.5555 -0.8804
19856SOL     OW71626   5.261   2.888   3.727 -0.3002  0.4182 -0.1058
19856SOL    HW171627   5.204   2.897   3.645 -1.2539  2.5484  0.7677
19856SOL    HW271628   5.354   2.862   3.700 -0.5426  1.3415 -1.8805
19857SOL     OW71629   5.595   8.491   9.478  0.1133 -0.0939 -0.0020
19857SOL    HW171630   5.553   8.565   9.532  0.6002 -0.1179  0.4136
19857SOL    HW271631   5.690   8.514   9.460 -0.1212  0.0382 -1.0840
19858SOL     OW71632   1.090   6.216   8.252  0.0287  0.3802  0.3012
19858SOL    HW171633   1.063   6.120   8.247  1.0065  0.2233 -2.5687
19858SOL    HW271634   1.151   6.230   8.330 -0.2667 -1.2794  0.8391
19859SOL     OW71635   7.487   8.163   8.656  0.3407 -0.0525  0.2959
19859SOL    HW171636   7.484   8.134   8.561 -0.3649  1.5177 -0.1705
19859SOL    HW271637   7.580   8.152   8.691  0.7031 -0.1845 -0.7050
19860SOL     OW71638   6.980   6.548   1.383 -1.0798  0.0784 -0.0810
19860SOL    HW171639   6.991   6.612   1.459 -2.9095 -1.2753  1.3807
19860SOL    HW271640   6.921   6.588   1.314  0.2919  1.1716 -0.6457
19861SOL     OW71641   7.421   8.863   9.551 -0.1350  0.3158  0.4872
19861SOL    HW171642   7.407   8.956   9.518 -1.6108  0.7591  2.2534
19861SOL    HW271643   7.347   8.804   9.518  1.6966 -0.6821 -2.0527
19862SOL     OW71644   5.604   5.818   9.056 -0.4291  0.1234  0.0145
19862SOL    HW171645   5.511   5.784   9.040 -0.7866  1.4198 -0.7086
19862SOL    HW271646   5.646   5.842   8.969  0.8625 -1.1132  0.2705
19863SOL     OW71647   4.005   6.416   7.038 -0.3775 -0.3381  0.3289
19863SOL    HW171648   3.946   6.403   7.118  1.0603  0.1429  1.4997
19863SOL    HW271649   4.093   6.372   7.054  1.2134  2.7152  0.5068
19864SOL     OW71650   6.098   4.497   2.788 -0.1191 -0.3358 -0.1158
19864SOL    HW171651   6.179   4.440   2.802 -0.1345 -0.4003 -0.2884
19864SOL    HW271652   6.122   4.593   2.801  0.2725 -0.2544 -1.3789
19865SOL     OW71653   5.000   1.064   6.257 -0.3983 -0.1291  0.2452
19865SOL    HW171654   5.081   1.118   6.233 -0.6189  0.7359  1.4336
19865SOL    HW271655   4.948   1.044   6.174 -0.7280  2.1624 -0.1267
19866SOL     OW71656   5.479   8.354   9.271 -0.6123 -0.4799  0.2768
19866SOL    HW171657   5.536   8.420   9.320  0.3481 -2.7195  2.2973
19866SOL    HW271658   5.458   8.277   9.331 -3.5881 -0.9723 -1.3170
19867SOL     OW71659   6.958   9.352   2.030  0.1813 -0.0413  0.1380
19867SOL    HW171660   6.948   9.271   1.972 -3.0606 -0.4228  1.0735
19867SOL    HW271661   6.970   9.433   1.973 -0.6592 -0.7000 -1.0125
19868SOL     OW71662   7.867   9.681   2.458 -0.6831 -0.4804 -1.2448
19868SOL    HW171663   7.797   9.611   2.476 -1.6937  0.1320 -2.6661
19868SOL    HW271664   7.863   9.751   2.529  0.4254 -1.9188  0.2665
19869SOL     OW71665   8.348   3.583   1.898 -0.2796 -0.0499 -0.1489
19869SOL    HW171666   8.422   3.520   1.872 -1.0648 -1.1738  0.2763
19869SOL    HW271667   8.379   3.677   1.888  1.2299 -0.5101  0.0571
19870SOL     OW71668   3.303   5.492   8.207  0.4152  0.0441 -0.2164
19870SOL    HW171669   3.225   5.555   8.218  0.3443 -0.1453  0.4087
19870SOL    HW271670   3.337   5.498   8.114 -0.9640 -0.5755 -0.7808
19871SOL     OW71671   6.524   8.086   2.103 -0.0455  0.4957  0.1115
19871SOL    HW171672   6.525   8.185   2.090  0.5269  0.3179 -1.3452
19871SOL    HW271673   6.430   8.055   2.119 -0.2221  1.2699  0.5723
19872SOL     OW71674   2.398   9.379   1.193 -0.0967 -0.0785  0.1990
19872SOL    HW171675   2.497   9.392   1.191 -0.2374  0.9267 -0.3193
19872SOL    HW271676   2.378   9.281   1.197  0.8710 -0.4242 -2.3779
19873SOL     OW71677   2.523   1.413   0.621  0.0981 -0.2321 -0.5071
19873SOL    HW171678   2.589   1.370   0.683 -0.1390 -0.9105 -0.7220
19873SOL    HW271679   2.550   1.396   0.526 -1.5343 -2.3707 -0.6356
19874SOL     OW71680   7.066   0.134   8.751  0.0435 -0.0654 -0.2203
19874SOL    HW171681   6.992   0.072   8.775  0.5110 -1.2197 -1.7096
19874SOL    HW271682   7.129   0.088   8.688  1.9755  0.9215  0.9567
19875SOL     OW71683   9.609   9.025   8.444  0.0001 -0.2288  0.1710
19875SOL    HW171684   9.669   9.030   8.524  0.3831 -0.4028 -0.0963
19875SOL    HW271685   9.539   8.955   8.458  1.2804 -1.6723 -0.4320
19876SOL     OW71686   7.951   9.086   9.417  0.3707  0.3851  0.0257
19876SOL    HW171687   7.945   9.004   9.359  2.3692  0.7861 -0.7884
19876SOL    HW271688   7.966   9.166   9.359 -0.0001  1.1163  0.9410
19877SOL     OW71689   6.531   5.702   1.723  0.3679  0.0348 -0.0253
19877SOL    HW171690   6.573   5.738   1.640  0.2213  0.1720 -0.0393
19877SOL    HW271691   6.551   5.604   1.731  0.7000  0.1000 -0.0260
19878SOL     OW71692   3.113   8.099   9.100  0.3452  0.5537  0.2797
19878SOL    HW171693   3.198   8.080   9.148  1.2332  2.7047 -0.3956
19878SOL    HW271694   3.038   8.051   9.145  1.7659 -0.6515  1.4075
19879SOL     OW71695   6.067   6.484   4.454  0.8391  0.8277 -0.4373
19879SOL    HW171696   5.996   6.521   4.394  0.3752  0.7596  0.0646
19879SOL    HW271697   6.027   6.462   4.543  1.3456  0.1565 -0.3729
19880SOL     OW71698   6.812   3.186   8.516 -0.1690 -1.0687 -0.1298
19880SOL    HW171699   6.902   3.229   8.507 -1.0343  0.9257  0.6562
19880SOL    HW271700   6.764   3.191   8.429 -0.1011 -0.8609 -0.1547
19881SOL     OW71701   7.618   9.192   3.545 -0.2079 -0.7377 -0.0283
19881SOL    HW171702   7.686   9.214   3.615  1.3370 -2.4307 -0.9600
19881SOL    HW271703   7.545   9.137   3.585 -0.2746 -0.1536  0.6569
19882SOL     OW71704   7.916   3.499   3.719 -0.2793 -0.1597  0.1236
19882SOL    HW171705   7.903   3.488   3.817 -0.9262 -1.3409 -0.0840
19882SOL    HW271706   7.913   3.409   3.675 -0.1775  0.3780 -0.9914
19883SOL     OW71707   9.263   8.865   3.960  0.4025  0.4233 -0.2675
19883SOL    HW171708   9.305   8.951   3.933 -0.4191  1.3893  1.4690
19883SOL    HW271709   9.197   8.881   4.033 -0.0454 -1.6290 -0.1755
19884SOL     OW71710   7.050   0.974   9.569  0.1755  0.2912 -0.0257
19884SOL    HW171711   7.090   1.048   9.515 -1.4073 -0.5774 -2.4891
19884SOL    HW271712   7.094   0.887   9.544  0.1240  0.0093  0.8432
19885SOL     OW71713   6.153   0.528   0.829 -0.1820 -0.2389 -0.0092
19885SOL    HW171714   6.200   0.551   0.914  0.4664 -0.6949 -0.2447
19885SOL    HW271715   6.125   0.432   0.831  1.3800 -0.7380 -1.0254
19886SOL     OW71716   6.312   8.250   2.736  0.2052 -0.6085 -0.3121
19886SOL    HW171717   6.374   8.318   2.774 -0.4417 -0.2321  0.0898
19886SOL    HW271718   6.335   8.159   2.770 -0.1099 -0.3303  0.6574
19887SOL     OW71719   6.887   8.811   4.875 -0.5504 -0.1616  0.4535
19887SOL    HW171720   6.954   8.761   4.820 -0.6610 -0.5014  0.6283
19887SOL    HW271721   6.892   8.909   4.853  2.4762  0.3390  3.0227
19888SOL     OW71722   7.341   0.796   2.489 -0.1637 -0.0636  0.2013
19888SOL    HW171723   7.413   0.795   2.558 -0.0683  1.0745  0.1216
19888SOL    HW271724   7.264   0.850   2.521 -0.3505  0.0015 -0.3467
19889SOL     OW71725   7.956   8.008   0.437 -0.0295 -0.1324  0.0327
19889SOL    HW171726   7.913   8.078   0.494 -0.0777  0.1224 -0.3148
19889SOL    HW271727   7.965   8.043   0.343  0.7514 -0.2607  0.0621
19890SOL     OW71728   6.881   6.868   0.184 -0.2233  0.0831  0.3102
19890SOL    HW171729   6.953   6.931   0.214  0.1689 -1.4165  2.6910
19890SOL    HW271730   6.792   6.905   0.208 -0.1417  1.0217 -0.8314
19891SOL     OW71731   5.756   5.269   2.537  0.1584 -0.1186 -0.0553
19891SOL    HW171732   5.826   5.199   2.529 -0.8592 -1.0802 -0.7526
19891SOL    HW271733   5.757   5.327   2.456 -0.0472 -0.3327 -0.2138
19892SOL     OW71734   4.600   7.590   4.768  0.0890  0.3133  0.2186
19892SOL    HW171735   4.630   7.626   4.857 -0.2372  0.6943  0.1769
19892SOL    HW271736   4.537   7.514   4.784 -1.2654  1.4307  0.3438
19893SOL     OW71737   5.790   6.721   4.754  0.0317 -0.3550  0.0838
19893SOL    HW171738   5.725   6.738   4.680  0.3520  1.8055  0.2490
19893SOL    HW271739   5.863   6.790   4.750  0.3093 -0.4978  2.1213
19894SOL     OW71740   5.819   2.046   1.781 -0.2295  0.0125  0.0460
19894SOL    HW171741   5.822   2.145   1.769 -0.2966  0.3589  2.6580
19894SOL    HW271742   5.737   2.010   1.736 -0.0050  1.0549 -1.2617
19895SOL     OW71743   2.060   0.120   0.107 -0.0274 -0.4051  0.1210
19895SOL    HW171744   2.159   0.128   0.096 -0.2341 -0.1863 -1.6028
19895SOL    HW271745   2.037   0.026   0.133  0.6550 -0.3552  0.9466
19896SOL     OW71746   6.757   8.037   1.610 -0.2421  0.1848  0.0744
19896SOL    HW171747   6.856   8.036   1.596 -0.3546 -0.3070 -0.7096
19896SOL    HW271748   6.736   8.092   1.691  0.7226 -0.2966  0.6716
19897SOL     OW71749   5.976   8.951   6.252 -0.0931  0.1667 -0.1687
19897SOL    HW171750   6.069   8.983   6.237  0.0149 -0.5538 -1.1245
19897SOL    HW271751   5.923   9.023   6.297  0.4369  1.2584 -1.2441
19898SOL     OW71752   2.067   0.141   9.530 -0.7392  0.6921  0.2430
19898SOL    HW171753   2.158   0.172   9.501 -1.4697  1.7353 -1.0110
19898SOL    HW271754   2.073   0.048   9.565  0.8210  0.7596  0.1955
19899SOL     OW71755   6.138   0.639   1.561  0.8120  0.2426 -0.3683
19899SOL    HW171756   6.134   0.693   1.476  0.4193 -0.2688 -0.6791
19899SOL    HW271757   6.079   0.682   1.630  1.1705  0.6881 -0.3381
19900SOL     OW71758   3.303   7.081   3.904 -0.3822  0.1392  0.2920
19900SOL    HW171759   3.401   7.068   3.888 -0.4144 -0.0087  0.2209
19900SOL    HW271760   3.284   7.179   3.914 -0.0420  0.0928  1.4496
19901SOL     OW71761   6.209   6.118   3.451  0.5970 -0.0331 -0.6955
19901SOL    HW171762   6.303   6.152   3.446  1.6653 -2.3901  1.8984
19901SOL    HW271763   6.209   6.019   3.437 -1.1908 -0.3607  1.3406
19902SOL     OW71764   6.559   5.801   1.230 -0.0533  0.1382  0.0181
19902SOL    HW171765   6.533   5.815   1.134  2.4213  1.0967 -0.5479
19902SOL    HW271766   6.598   5.710   1.241  0.7535  0.4656 -0.1336
19903SOL     OW71767   7.768   8.624   2.825 -0.1409  0.2079  0.4836
19903SOL    HW171768   7.670   8.607   2.815 -0.3042  1.3755  0.0247
19903SOL    HW271769   7.819   8.550   2.780 -0.7989 -0.5985  1.0448
19904SOL     OW71770   6.438   6.543   1.244  0.1745 -0.1264  0.0372
19904SOL    HW171771   6.435   6.460   1.301  0.3164 -0.2314 -0.1111
19904SOL    HW271772   6.487   6.615   1.293 -1.3208  0.3709  0.8359
19905SOL     OW71773   6.062   2.445   1.791  0.2244  0.0348  0.1301
19905SOL    HW171774   6.067   2.387   1.872 -0.1557 -0.2595 -0.0544
19905SOL    HW271775   6.015   2.396   1.717  0.6133  0.2811 -0.2858
19906SOL     OW71776   5.146   4.435   9.923  1.1197  0.4670 -0.0101
19906SOL    HW171777   5.200   4.518   9.908  1.7650 -0.1460 -1.1853
19906SOL    HW271778   5.072   4.431   9.855  1.4337 -0.1887 -0.3222
19907SOL     OW71779   7.463   0.248   0.260 -0.1145  0.1197  0.1429
19907SOL    HW171780   7.440   0.162   0.216  1.7236 -0.8674  1.0440
19907SOL    HW271781   7.558   0.271   0.240  1.3293 -1.2038  4.8077
19908SOL     OW71782   2.721   8.628   2.173 -0.0332 -0.1074  0.0503
19908SOL    HW171783   2.815   8.656   2.196  0.9795 -2.2264 -1.3127
19908SOL    HW271784   2.717   8.528   2.167 -1.8083  0.0742 -2.3171
19909SOL     OW71785   0.251   9.798   2.418 -0.0568  0.0006 -0.0838
19909SOL    HW171786   0.311   9.745   2.479 -0.5601  0.4957  0.8441
19909SOL    HW271787   0.209   9.737   2.351 -0.9547 -0.8545  1.2385
19910SOL     OW71788   6.379   7.526   0.915  0.1298  0.3315  0.2114
19910SOL    HW171789   6.351   7.579   0.834 -0.5407  0.0871  0.2856
19910SOL    HW271790   6.433   7.585   0.975 -1.2320  1.1501  0.6517
19911SOL     OW71791   8.231   8.997   6.610  0.1163  0.2719 -0.2439
19911SOL    HW171792   8.152   8.950   6.570 -0.1754  0.1663  0.4527
19911SOL    HW271793   8.199   9.064   6.677  0.7037 -1.0991  1.4313
19912SOL     OW71794   4.581   0.636   6.374 -0.3072 -0.4216 -0.0604
19912SOL    HW171795   4.569   0.685   6.460 -0.6121  0.4511 -0.5937
19912SOL    HW271796   4.678   0.633   6.350 -0.4444  1.5989 -0.9784
19913SOL     OW71797   4.385   8.141   0.341 -0.3589  0.1880 -0.4143
19913SOL    HW171798   4.400   8.049   0.376  1.9954  0.1767 -1.3543
19913SOL    HW271799   4.302   8.142   0.284 -1.6682 -0.8012  1.4255
19914SOL     OW71800   5.864   3.590   9.749  0.2586 -0.3677  0.0728
19914SOL    HW171801   5.959   3.561   9.762  1.2877  0.5813 -4.4369
19914SOL    HW271802   5.862   3.689   9.734 -1.2882 -0.5591 -1.0499
19915SOL     OW71803   3.906   0.401   3.104 -0.2105  0.3027 -0.7948
19915SOL    HW171804   3.844   0.435   3.033 -0.2029  0.6753 -0.6211
19915SOL    HW271805   3.857   0.396   3.191  0.1869  1.2265 -0.5148
19916SOL     OW71806   5.756   0.884   3.640  0.1306  0.0396 -0.0656
19916SOL    HW171807   5.742   0.868   3.738  0.2821  1.1698  0.1443
19916SOL    HW271808   5.835   0.831   3.609 -0.0783 -0.5273  0.3619
19917SOL     OW71809   6.454   7.018   3.704 -0.5129 -0.0465  0.0374
19917SOL    HW171810   6.512   6.937   3.714  0.6063  0.6012 -1.1018
19917SOL    HW271811   6.359   6.993   3.721 -0.1252 -1.5117  0.1204
19918SOL     OW71812   3.729   6.610   0.609 -0.1583 -0.0137  0.2746
19918SOL    HW171813   3.638   6.624   0.569 -0.0413  0.7567  0.2812
19918SOL    HW271814   3.722   6.606   0.708  0.0703  2.1162  0.4033
19919SOL     OW71815   0.801   5.283   1.976  0.4702 -0.3287 -0.0557
19919SOL    HW171816   0.852   5.289   2.061  0.5200 -1.1950 -0.0263
19919SOL    HW271817   0.747   5.367   1.964  0.4191 -0.2259  0.8497
19920SOL     OW71818   5.569   2.084   2.581  0.1645 -0.8119 -0.8136
19920SOL    HW171819   5.482   2.055   2.620  1.3512 -2.4647  0.6593
19920SOL    HW271820   5.581   2.182   2.596 -0.4526 -0.9866  0.9673
19921SOL     OW71821   2.159   3.584   8.105  0.1596  0.0093  0.2407
19921SOL    HW171822   2.143   3.613   8.200 -0.6996  0.1211  0.0672
19921SOL    HW271823   2.228   3.643   8.063  0.2774  0.1883  0.6832
19922SOL     OW71824   9.337   6.860   5.326  1.1351 -0.5089  0.2354
19922SOL    HW171825   9.345   6.860   5.227 -1.6490 -2.0268 -0.0467
19922SOL    HW271826   9.357   6.768   5.361 -1.4241 -0.9490  0.6770
19923SOL     OW71827   3.852   9.217   2.275  0.0987 -0.3512  0.4771
19923SOL    HW171828   3.855   9.312   2.304  1.0780  0.1573 -1.2348
19923SOL    HW271829   3.835   9.158   2.354 -1.7227  1.3247  1.3641
19924SOL     OW71830   1.662   1.677   7.817  0.4843 -0.3769  0.3758
19924SOL    HW171831   1.622   1.647   7.730  1.6087  1.0499 -0.6557
19924SOL    HW271832   1.726   1.607   7.849  1.5798 -0.0400 -0.9901
19925SOL     OW71833   6.527   6.628   1.891 -0.2553  0.4925 -0.0061
19925SOL    HW171834   6.474   6.552   1.928 -4.1802  2.6028 -1.0043
19925SOL    HW271835   6.569   6.601   1.805 -0.4321 -0.9618  0.3557
19926SOL     OW71836   0.861   2.297   8.090  0.2886  0.0823 -0.3108
19926SOL    HW171837   0.894   2.216   8.140 -0.7758  0.5062  1.1025
19926SOL    HW271838   0.914   2.377   8.119  1.1634 -0.0449 -1.5172
19927SOL     OW71839   5.994   1.317   2.939 -0.0321 -0.2432  0.3257
19927SOL    HW171840   6.055   1.261   2.882  0.3379 -1.1678  1.6015
19927SOL    HW271841   5.991   1.410   2.903  2.0432 -0.2164  0.1562
19928SOL     OW71842   2.029   0.642   8.952 -0.3631 -0.2602  0.7590
19928SOL    HW171843   2.012   0.554   8.997  3.4813 -1.5661 -0.1420
19928SOL    HW271844   2.019   0.632   8.853 -1.2501  0.6976  0.7390
19929SOL     OW71845   4.884   6.512   9.143  0.2602  0.1928 -0.5953
19929SOL    HW171846   4.877   6.513   9.243  2.3128  0.5523 -0.4205
19929SOL    HW271847   4.795   6.532   9.102 -1.0998 -2.1298  1.1218
19930SOL     OW71848   5.958   0.210   4.885 -0.5982 -0.3240  0.3735
19930SOL    HW171849   5.991   0.126   4.843  0.5690  0.2514  0.1096
19930SOL    HW271850   6.035   0.258   4.928 -1.4512  0.0209  1.5483
19931SOL     OW71851   5.922   5.749   3.327  0.3960  0.1439  0.0783
19931SOL    HW171852   5.837   5.706   3.298 -0.5491  1.5639  0.7094
19931SOL    HW271853   5.926   5.842   3.292  2.2261 -0.2530 -0.8997
19932SOL     OW71854   3.522   6.961   9.921 -0.5556  0.3480  0.3012
19932SOL    HW171855   3.511   6.863   9.902 -0.1733  0.4026 -0.2086
19932SOL    HW271856   3.545   6.973  10.017 -1.1122 -0.0286  0.4891
19933SOL     OW71857   8.684   8.008   2.223 -0.3922  0.0312  0.6117
19933SOL    HW171858   8.645   8.070   2.154 -0.8658  1.0441  1.7747
19933SOL    HW271859   8.617   7.937   2.245 -0.6866  0.4008  0.9025
19934SOL     OW71860   5.787   4.622   5.677 -0.1799  0.1369 -0.3580
19934SOL    HW171861   5.718   4.673   5.728  0.5088  2.3786 -1.6023
19934SOL    HW271862   5.867   4.607   5.736 -1.4945 -2.0761  0.9359
19935SOL     OW71863   2.755   6.081   6.834 -0.3840 -0.1758 -0.1398
19935SOL    HW171864   2.686   6.010   6.816  0.5494 -1.7466  2.2981
19935SOL    HW271865   2.710   6.162   6.871 -1.1753 -0.4303 -0.5364
19936SOL     OW71866   7.724   1.523   8.871 -0.2696 -0.5248 -0.2063
19936SOL    HW171867   7.768   1.611   8.890 -1.5332 -0.2653  1.6496
19936SOL    HW271868   7.641   1.539   8.818 -0.4587 -0.6164  0.0665
19937SOL     OW71869   4.596   2.197   9.232  0.0947  0.2364 -0.0862
19937SOL    HW171870   4.513   2.242   9.199 -1.8359 -1.9467  1.5723
19937SOL    HW271871   4.628   2.132   9.163  0.4289  1.0485 -0.7099
19938SOL     OW71872   6.313   9.201   2.176  0.5460 -0.3330 -0.4093
19938SOL    HW171873   6.400   9.235   2.139  0.8575 -0.0646  0.5702
19938SOL    HW271874   6.318   9.197   2.275 -0.1330 -1.5187 -0.4146
19939SOL     OW71875   4.253   7.514   9.330 -0.1427  0.2104 -0.1035
19939SOL    HW171876   4.233   7.416   9.328  1.3562 -0.1072  0.0753
19939SOL    HW271877   4.176   7.564   9.289 -0.2823 -1.1368 -1.5596
19940SOL     OW71878   1.774   3.583   1.159 -0.5750  0.2189 -0.4157
19940SOL    HW171879   1.804   3.507   1.102  0.4335  1.4456 -1.5498
19940SOL    HW271880   1.795   3.564   1.255 -1.0652 -1.2682 -0.5996
19941SOL     OW71881   1.041   9.153   9.845 -0.0310 -0.3701  0.9231
19941SOL    HW171882   1.037   9.139   9.746 -1.0369  1.6494  0.6355
19941SOL    HW271883   1.092   9.237   9.864 -1.3448  0.2001  2.0061
19942SOL     OW71884   6.475   2.225   2.246  0.2153 -0.0360 -0.4160
19942SOL    HW171885   6.557   2.226   2.189  0.2560 -0.0833 -0.3582
19942SOL    HW271886   6.463   2.133   2.285  0.5321  0.1575  0.1491
19943SOL     OW71887   8.566   7.653   6.875 -0.2356  0.4717  0.1958
19943SOL    HW171888   8.650   7.700   6.905  0.5787  0.3933 -1.8615
19943SOL    HW271889   8.538   7.588   6.945  0.8423  1.2345  1.3709
19944SOL     OW71890   3.510   5.727   3.157 -0.4868 -0.2013  0.0695
19944SOL    HW171891   3.414   5.751   3.145  0.5147  3.7660 -0.7121
19944SOL    HW271892   3.554   5.720   3.067  0.5757  0.8496  0.4993
19945SOL     OW71893   5.887   1.134   2.550  0.3201 -0.5183  0.1853
19945SOL    HW171894   5.943   1.215   2.565 -1.0949  0.6843 -0.8186
19945SOL    HW271895   5.944   1.053   2.550  1.9348  0.6026 -0.0407
19946SOL     OW71896   1.154   9.426   9.247  0.6347 -0.1990  0.4091
19946SOL    HW171897   1.167   9.358   9.320  0.6040 -0.8963 -0.2265
19946SOL    HW271898   1.207   9.399   9.167  0.4630  0.4311  0.0833
19947SOL     OW71899   3.956   4.689   0.785  0.7034  0.1724 -0.1449
19947SOL    HW171900   3.960   4.753   0.707  1.2381 -1.3089 -1.3496
19947SOL    HW271901   3.865   4.693   0.826  0.3669  0.8572 -0.9334
19948SOL     OW71902   3.906   1.077   9.401 -0.3681 -0.1079 -0.0877
19948SOL    HW171903   3.943   1.096   9.310 -2.8409  2.2564 -0.6427
19948SOL    HW271904   3.907   1.161   9.456  0.3842 -1.3389  1.8530
19949SOL     OW71905   2.795   2.780   2.973 -0.3207  0.2379  0.2827
19949SOL    HW171906   2.832   2.770   3.066  2.1846  4.5992 -0.1261
19949SOL    HW271907   2.856   2.734   2.908  0.3729  1.0203  0.3703
19950SOL     OW71908   8.123   1.851   0.679 -0.2196 -0.0841 -0.0602
19950SOL    HW171909   8.119   1.804   0.768 -0.4332 -0.3742 -0.2250
19950SOL    HW271910   8.106   1.786   0.606 -1.8231  0.4991 -0.2288
19951SOL     OW71911   4.671   7.723   4.330 -0.0034  0.1731  0.0890
19951SOL    HW171912   4.682   7.632   4.369  1.7296 -0.0369 -0.8535
19951SOL    HW271913   4.692   7.720   4.232 -2.7786  0.9998 -0.5663
19952SOL     OW71914   9.639   1.281   0.883 -0.1076 -0.0999 -0.1062
19952SOL    HW171915   9.693   1.301   0.964 -1.3751  1.9868  0.2614
19952SOL    HW271916   9.695   1.297   0.801  0.6653 -0.6207  0.3145
19953SOL     OW71917   6.327   8.501   1.306 -0.4027 -0.3892 -0.3370
19953SOL    HW171918   6.374   8.416   1.330 -2.0560 -0.9471  1.0330
19953SOL    HW271919   6.349   8.571   1.374 -0.8670 -0.3982 -0.1794
19954SOL     OW71920   1.762   0.225   0.339  0.1830  0.1819 -0.3890
19954SOL    HW171921   1.809   0.173   0.411 -0.6354 -1.8561 -1.2904
19954SOL    HW271922   1.691   0.282   0.381  0.2315 -0.3970  0.4985
19955SOL     OW71923   6.317   1.356   3.533 -0.2119  0.3546 -0.3986
19955SOL    HW171924   6.256   1.358   3.455  0.3173  0.1116 -0.8210
19955SOL    HW271925   6.337   1.449   3.563 -0.2559  0.4494 -0.6702
19956SOL     OW71926   4.267   1.150   8.974 -0.3055  0.4914 -0.6702
19956SOL    HW171927   4.354   1.136   8.925  1.0643 -1.2174  2.1088
19956SOL    HW271928   4.215   1.064   8.974 -2.6840  1.8381 -3.4365
19957SOL     OW71929   1.615   5.511   9.183  0.0926 -0.3124  0.3371
19957SOL    HW171930   1.701   5.461   9.196 -0.2175 -0.6989  0.9191
19957SOL    HW271931   1.548   5.450   9.140 -0.1985 -0.3185  0.7941
19958SOL     OW71932   9.023   8.228   5.600  0.1750  0.2028  0.4755
19958SOL    HW171933   9.022   8.306   5.662  3.5427 -1.3215  2.5739
19958SOL    HW271934   8.972   8.152   5.641  1.0468 -0.2773  0.6890
19959SOL     OW71935   7.174   5.249   5.722  0.3259 -0.4299 -0.2357
19959SOL    HW171936   7.143   5.261   5.627  0.4782  0.0372 -0.2265
19959SOL    HW271937   7.255   5.304   5.738 -0.4704  0.5415  0.5407
19960SOL     OW71938   4.980   9.376   8.642 -0.1884  0.1622  0.0159
19960SOL    HW171939   5.035   9.292   8.647 -1.3459 -0.6630 -0.8746
19960SOL    HW271940   4.924   9.374   8.559 -0.4479  1.6950  0.1333
19961SOL     OW71941   3.535   6.965   1.653  0.5842  0.0285 -0.3519
19961SOL    HW171942   3.504   6.931   1.743  0.2128  0.8700 -0.1545
19961SOL    HW271943   3.507   6.900   1.582 -3.7394  1.8007 -0.4561
19962SOL     OW71944   6.900   9.178   7.423  0.6246 -0.0829 -0.1630
19962SOL    HW171945   6.801   9.174   7.420  0.7007 -0.9132 -2.1830
19962SOL    HW271946   6.932   9.264   7.383  0.7255  0.0701  0.2457
19963SOL     OW71947   3.914   8.039   9.930 -0.1911  0.3573  0.0810
19963SOL    HW171948   4.006   8.054   9.893 -0.0618  1.8146  0.9498
19963SOL    HW271949   3.854   8.113   9.899 -0.9704 -0.3347 -0.0921
19964SOL     OW71950   2.697   1.992   0.388  0.2993 -0.1717  0.1728
19964SOL    HW171951   2.645   2.074   0.364  0.5977  0.7768  2.6536
19964SOL    HW271952   2.635   1.915   0.400 -0.3147  0.4499  1.0062
19965SOL     OW71953   5.186   2.487   9.224  0.2418 -0.4856  0.2950
19965SOL    HW171954   5.251   2.523   9.157 -2.8787  1.0788 -1.9992
19965SOL    HW271955   5.145   2.403   9.188 -1.3567  0.2991  0.2120
19966SOL     OW71956   3.614   8.341   7.525 -0.0599 -0.2349  0.4097
19966SOL    HW171957   3.525   8.362   7.565  0.0669  1.9652 -0.4384
19966SOL    HW271958   3.682   8.405   7.560  1.0359 -1.3732  0.3997
19967SOL     OW71959   6.556   7.261   1.618  0.4606 -0.0805 -0.1018
19967SOL    HW171960   6.606   7.295   1.698 -0.0633  1.4231 -0.3853
19967SOL    HW271961   6.553   7.333   1.548 -0.9601 -0.6135 -0.6127
19968SOL     OW71962   8.123   6.686   2.244  0.2714 -0.2543 -0.0059
19968SOL    HW171963   8.194   6.704   2.177  0.2182 -0.8348 -0.2218
19968SOL    HW271964   8.137   6.745   2.324  1.6461 -1.1290  0.4260
19969SOL     OW71965   7.599   6.476   9.418 -0.1282  0.6155  0.2211
19969SOL    HW171966   7.574   6.397   9.473 -1.7358  1.2361  0.4020
19969SOL    HW271967   7.660   6.536   9.470  2.0690 -1.0678 -0.3409
19970SOL     OW71968   8.745   2.126   1.148 -0.3561 -0.0989 -0.3313
19970SOL    HW171969   8.756   2.167   1.058 -2.1431  0.5542 -0.2802
19970SOL    HW271970   8.648   2.124   1.171  0.0839 -0.3708  1.5353
19971SOL     OW71971   0.988   8.911   8.548  0.3988  0.5702 -0.0601
19971SOL    HW171972   1.036   8.919   8.461  0.3786  0.6744 -0.0613
19971SOL    HW271973   0.959   9.002   8.579  1.3264  0.6633  0.5678
19972SOL     OW71974   3.472   0.209   9.214 -0.3647 -0.0293 -0.0127
19972SOL    HW171975   3.521   0.278   9.267 -0.7277 -0.5722  1.0347
19972SOL    HW271976   3.379   0.198   9.249  0.0258 -1.8098  0.5314
19973SOL     OW71977   7.378   5.833   2.641 -0.3621 -0.3189  1.0560
19973SOL    HW171978   7.339   5.906   2.585 -1.3588  0.5360  2.8101
19973SOL    HW271979   7.438   5.776   2.585 -0.0131  1.5041 -0.4615
19974SOL     OW71980   6.960   4.851   2.415 -0.4487 -0.1356  0.0468
19974SOL    HW171981   7.055   4.872   2.441  0.0259 -1.8749 -0.2222
19974SOL    HW271982   6.898   4.913   2.462  0.8037  0.7347  0.5750
19975SOL     OW71983   5.810   6.366   2.692 -0.5380 -0.2729 -0.3291
19975SOL    HW171984   5.835   6.279   2.736  0.9948 -0.1340 -0.8816
19975SOL    HW271985   5.715   6.387   2.713 -0.8680 -1.9645  0.0186
19976SOL     OW71986   5.602   4.701   3.785  0.1854  0.8279 -0.1894
19976SOL    HW171987   5.512   4.691   3.741  0.3433  0.3100 -0.3940
19976SOL    HW271988   5.614   4.796   3.813 -1.1183  0.5732  1.3258
19977SOL     OW71989   5.641   3.956   4.739  0.2846 -0.0565 -0.4800
19977SOL    HW171990   5.647   3.903   4.655  1.6167  1.3472 -1.3076
19977SOL    HW271991   5.645   4.054   4.717  4.4877  0.3058  1.4299
19978SOL     OW71992   1.037   9.667   5.476 -0.2708  0.6145 -0.3262
19978SOL    HW171993   1.113   9.730   5.464  2.0464 -1.4270  2.7017
19978SOL    HW271994   1.046   9.591   5.412 -1.1200  1.5463 -1.5770
19979SOL     OW71995   3.415   2.281   7.440  0.0204 -0.0019  0.5140
19979SOL    HW171996   3.394   2.217   7.365 -0.2152  0.6377  0.0294
19979SOL    HW271997   3.472   2.235   7.507  1.9578  0.0163 -1.0723
19980SOL     OW71998   8.527   4.443   0.012  0.6874 -0.2774  0.0987
19980SOL    HW171999   8.458   4.418  -0.056 -0.8478 -0.9233  1.8736
19980SOL    HW272000   8.498   4.526   0.059  0.9486 -0.7544  1.1055
19981SOL     OW72001   7.143   7.774   1.085  0.1077  0.3530 -0.6107
19981SOL    HW172002   7.104   7.741   1.171  0.3041  0.1648 -0.5936
19981SOL    HW272003   7.073   7.825   1.034  0.5628  2.2145  0.5828
19982SOL     OW72004   7.659   7.369   4.741  0.1131 -0.2842  0.0086
19982SOL    HW172005   7.586   7.386   4.674 -0.9020 -1.8784  0.6762
19982SOL    HW272006   7.724   7.445   4.740 -0.8677  0.5563 -1.5040
19983SOL     OW72007   9.729   0.378   4.709  0.2878 -0.1308 -0.4347
19983SOL    HW172008   9.690   0.470   4.720  1.0126  0.6617 -3.8216
19983SOL    HW272009   9.666   0.321   4.657  0.7197 -0.9024 -0.1120
19984SOL     OW72010   6.980   9.908   1.712  0.6923 -0.4373 -0.0897
19984SOL    HW172011   7.056   9.844   1.698  1.4024  0.6795 -1.3344
19984SOL    HW272012   6.941   9.893   1.803  1.3092 -2.1608 -0.0912
19985SOL     OW72013   7.788   0.107   2.920  0.7484 -0.2784  0.4329
19985SOL    HW172014   7.807   0.148   3.009  0.9720  1.6254 -0.4596
19985SOL    HW272015   7.743   0.019   2.933  1.2597 -0.2797  2.4252
19986SOL     OW72016   9.361   8.634   3.829  0.3518  0.3112 -0.4397
19986SOL    HW172017   9.320   8.708   3.883  0.9331  0.3695 -0.0714
19986SOL    HW272018   9.372   8.664   3.734  0.0831  0.4966 -0.4141
19987SOL     OW72019   9.160   6.521   2.854 -0.2860  0.1613 -0.0226
19987SOL    HW172020   9.104   6.439   2.862 -0.0117  0.1412  2.1076
19987SOL    HW272021   9.249   6.504   2.897  0.0093  1.3528 -0.1460
19988SOL     OW72022   6.770   6.821   4.940 -0.4817 -0.2067 -0.4507
19988SOL    HW172023   6.671   6.824   4.956 -0.3407  0.3678  0.3398
19988SOL    HW272024   6.818   6.834   5.026  0.2921  0.0814 -0.9203
19989SOL     OW72025   7.382   1.982   5.113 -0.2318 -0.1089 -0.1591
19989SOL    HW172026   7.323   2.062   5.121  0.0601  0.2038 -1.1218
19989SOL    HW272027   7.477   2.012   5.098 -0.0681 -0.6317 -0.1775
19990SOL     OW72028   4.157   9.997   1.882 -0.0187 -0.1451  0.6125
19990SOL    HW172029   4.145   9.999   1.783  0.3678  0.1117  0.5684
19990SOL    HW272030   4.208   9.914   1.908 -0.3402 -0.3420  0.6242
19991SOL     OW72031   3.500   8.095   9.822 -0.5312 -0.2361 -0.3072
19991SOL    HW172032   3.403   8.086   9.798 -0.8990 -0.9665  1.4403
19991SOL    HW272033   3.513   8.179   9.875  0.0252  0.5213 -1.5975
19992SOL     OW72034   4.614   8.352   6.051  0.8261  0.2415 -0.3653
19992SOL    HW172035   4.713   8.364   6.057  0.8693 -0.1765 -0.2345
19992SOL    HW272036   4.593   8.291   5.974  0.7918 -1.3272  0.8763
19993SOL     OW72037   4.554   1.004   2.373 -0.3926 -0.1519 -0.2514
19993SOL    HW172038   4.492   1.039   2.302 -0.5285  1.6752  0.7412
19993SOL    HW272039   4.604   0.925   2.337 -1.5386 -0.1700 -1.8777
19994SOL     OW72040   5.631   1.173   1.947  0.1254  0.5766 -0.0805
19994SOL    HW172041   5.609   1.160   2.044  0.5583  0.2307 -0.0265
19994SOL    HW272042   5.618   1.087   1.898  1.2311  0.3950 -0.0658
19995SOL     OW72043   5.452   9.258   0.809 -0.7792 -0.3617  0.0484
19995SOL    HW172044   5.443   9.304   0.720  0.2914  0.9887  0.6187
19995SOL    HW272045   5.417   9.318   0.880  2.4345  0.4276  1.0371
19996SOL     OW72046   6.437   9.685   4.822  0.0656  0.2548  0.7174
19996SOL    HW172047   6.536   9.685   4.813  0.0007 -0.7846 -0.0702
19996SOL    HW272048   6.410   9.633   4.903  0.2968  3.3539  2.8884
19997SOL     OW72049   7.281   3.208   4.031  0.4395  0.0003  0.3245
19997SOL    HW172050   7.182   3.222   4.032  0.4335 -0.0111 -0.0234
19997SOL    HW272051   7.303   3.133   3.968  0.5949 -0.5901  1.0837
19998SOL     OW72052   9.319   1.557   6.564  0.1262  0.0720 -0.3035
19998SOL    HW172053   9.402   1.566   6.509  0.1314 -0.1198 -0.3266
19998SOL    HW272054   9.264   1.481   6.530  0.3975 -0.4066  0.2989
19999SOL     OW72055   7.199   7.603   3.993 -0.1024 -0.2531 -0.1590
19999SOL    HW172056   7.147   7.570   4.072  1.5170 -2.5860 -0.0086
19999SOL    HW272057   7.155   7.571   3.909 -0.0393 -0.5162 -0.0932
20000SOL     OW72058   1.970   2.531   0.511  0.3069 -0.0540 -0.0482
20000SOL    HW172059   2.056   2.546   0.462  0.0224  0.3930 -0.4123
20000SOL    HW272060   1.960   2.599   0.584  1.4373 -1.6178  1.6215
20001SOL     OW72061   3.120   8.310   4.458 -0.7565  0.8558  0.3921
20001SOL    HW172062   3.048   8.246   4.486 -0.4851  0.4445  0.1536
20001SOL    HW272063   3.106   8.337   4.362 -0.2441  0.2995  0.1610
20002SOL     OW72064   1.796   5.137   4.527  0.6237  0.3701 -0.2651
20002SOL    HW172065   1.889   5.118   4.557  0.3048  0.4723  0.7932
20002SOL    HW272066   1.792   5.227   4.483  0.9751  0.4740 -0.0838
20003SOL     OW72067   6.605   8.238   7.253 -0.7227  0.4960 -0.0615
20003SOL    HW172068   6.546   8.286   7.188 -0.3482  2.0959  0.7501
20003SOL    HW272069   6.600   8.283   7.342 -0.2778 -0.9263  0.6951
20004SOL     OW72070   7.287   8.119   3.483 -0.5544 -0.1450 -0.0718
20004SOL    HW172071   7.260   8.178   3.560 -0.7865  2.2244 -1.9170
20004SOL    HW272072   7.208   8.100   3.426  0.1361  0.2836 -1.1750
20005SOL     OW72073   0.784   1.454   5.412 -0.3114  0.5650  0.2997
20005SOL    HW172074   0.701   1.487   5.368  0.5758  2.1940 -0.2028
20005SOL    HW272075   0.807   1.513   5.489  1.1303  0.9653 -0.4141
20006SOL     OW72076   5.023   0.996   3.067 -0.0412 -0.5479  0.1857
20006SOL    HW172077   5.032   0.972   3.164  0.9590 -0.2031  0.1772
20006SOL    HW272078   5.113   0.996   3.023 -0.3883  0.1205 -0.5473
20007SOL     OW72079   3.607   4.113   0.018 -0.1855  0.4166  0.2973
20007SOL    HW172080   3.529   4.081   0.072 -0.0868  2.1604  1.5272
20007SOL    HW272081   3.641   4.199   0.057  1.9684 -0.0042 -0.5848
20008SOL     OW72082   7.711   6.732   6.735 -0.2426  0.1400  0.0131
20008SOL    HW172083   7.691   6.715   6.832 -1.7671 -0.7801 -0.4374
20008SOL    HW272084   7.665   6.662   6.679  1.8962 -0.2655 -1.2797
20009SOL     OW72085   4.838   8.188   4.355  0.4658 -0.7657 -0.1409
20009SOL    HW172086   4.812   8.268   4.301 -3.0793 -1.1950  0.8274
20009SOL    HW272087   4.783   8.109   4.326  0.9360 -1.8223  1.7919
20010SOL     OW72088   9.563   0.994   3.346 -0.0389  0.3195 -0.1230
20010SOL    HW172089   9.542   1.068   3.282 -0.0502  0.9172  0.5709
20010SOL    HW272090   9.479   0.961   3.388 -0.1586 -0.8614 -1.2768
20011SOL     OW72091   7.183   5.556   1.996 -0.2493  0.2279  0.3576
20011SOL    HW172092   7.214   5.476   2.048 -2.8501 -0.3894  1.0408
20011SOL    HW272093   7.189   5.637   2.055  0.1791  0.1513  0.4278
20012SOL     OW72094   2.777   6.420   9.893  0.1576 -0.8049 -0.2646
20012SOL    HW172095   2.698   6.460   9.846  0.5282 -0.2054 -0.3838
20012SOL    HW272096   2.786   6.324   9.868 -0.2233 -0.7393 -0.6582
20013SOL     OW72097   5.896   7.304   5.097  0.0117  0.0873 -0.0146
20013SOL    HW172098   5.826   7.271   5.033 -1.8618  2.0838  0.9101
20013SOL    HW272099   5.874   7.272   5.189  1.8490 -1.5181 -0.1272
20014SOL     OW72100   4.939   9.801   1.640  0.6125 -0.0342 -0.1157
20014SOL    HW172101   4.839   9.791   1.647  0.4503 -1.1032 -2.9880
20014SOL    HW272102   4.982   9.711   1.649  1.0398 -0.0533 -2.0522
20015SOL     OW72103   7.323   9.197   1.829  0.3967 -0.2773  0.4914
20015SOL    HW172104   7.264   9.125   1.866 -1.0544  0.2644 -0.7283
20015SOL    HW272105   7.349   9.174   1.735  2.6387 -0.7933  1.2042
20016SOL     OW72106   6.107   7.878   3.230  0.1367 -0.4250 -0.2385
20016SOL    HW172107   6.171   7.947   3.196  0.0042  0.6334  1.5747
20016SOL    HW272108   6.154   7.819   3.295  0.3286 -2.2727 -2.0266
20017SOL     OW72109   4.474   4.527   1.609  0.1903  0.2283 -0.1546
20017SOL    HW172110   4.451   4.434   1.636 -2.5299  0.9809  0.2268
20017SOL    HW272111   4.493   4.582   1.690 -1.9069  0.9247 -0.1033
20018SOL     OW72112   8.163   1.691   2.763 -0.3880  0.0853 -0.5048
20018SOL    HW172113   8.206   1.604   2.739  1.4061  0.9954 -0.6817
20018SOL    HW272114   8.133   1.737   2.679 -3.5676 -1.4236 -0.2815
20019SOL     OW72115   7.160   1.311   3.649  0.1175 -0.4906 -0.0030
20019SOL    HW172116   7.235   1.249   3.627  0.1688 -0.9792  1.4593
20019SOL    HW272117   7.158   1.386   3.583  3.3171  0.7505  1.2063
20020SOL     OW72118   3.222   0.053   0.124  0.1289  0.1320 -0.7312
20020SOL    HW172119   3.272   0.041   0.038  0.7718  0.4874 -0.4044
20020SOL    HW272120   3.133   0.008   0.116  0.2801 -0.0485 -1.4987
20021SOL     OW72121   3.845   6.646   5.288  0.6070  0.1171  0.1743
20021SOL    HW172122   3.861   6.738   5.323 -1.0248  0.9699 -1.2694
20021SOL    HW272123   3.860   6.644   5.190 -0.6261 -0.8409 -0.0077
20022SOL     OW72124   7.603   8.711   1.557  0.1850 -0.5717  0.1582
20022SOL    HW172125   7.660   8.710   1.474 -0.2858 -0.5856 -0.1644
20022SOL    HW272126   7.616   8.798   1.605 -2.1310  0.8884 -1.7375
20023SOL     OW72127   4.897   6.739   2.989  0.4787  0.3768 -0.5872
20023SOL    HW172128   4.808   6.699   2.966  0.7075 -0.1707 -0.5488
20023SOL    HW272129   4.884   6.830   3.028 -0.0773  0.2203 -0.3944
20024SOL     OW72130   9.613   8.263   3.794 -0.3217 -0.0354 -0.0735
20024SOL    HW172131   9.607   8.362   3.808  0.8282  0.1020 -0.4897
20024SOL    HW272132   9.534   8.232   3.741 -1.0399  0.5449  0.6341
20025SOL     OW72133   7.850   9.346   5.848  0.3803  0.3543  0.3609
20025SOL    HW172134   7.869   9.437   5.885  0.8749 -0.1353  1.3467
20025SOL    HW272135   7.861   9.347   5.749  1.5185  1.0802  0.4856
20026SOL     OW72136   5.000   7.073   8.249  0.5730  0.2866 -0.0024
20026SOL    HW172137   4.961   7.140   8.185 -1.4138 -1.2675 -0.4630
20026SOL    HW272138   4.934   7.054   8.321  1.5523 -0.3963  0.7271
20027SOL     OW72139   5.703   7.729   5.406  0.5647 -0.0580  0.1615
20027SOL    HW172140   5.709   7.629   5.400 -1.8259 -0.2517  0.4562
20027SOL    HW272141   5.638   7.754   5.477 -0.1816  1.7019 -1.0993
20028SOL     OW72142   6.973   0.655   4.819 -0.1913 -0.3686  0.6013
20028SOL    HW172143   6.901   0.692   4.877  0.3728  0.1488  0.9773
20028SOL    HW272144   6.934   0.586   4.757 -1.1032  0.3132  0.4095
20029SOL     OW72145   1.670   0.523   5.583 -0.0040  0.2851 -0.3448
20029SOL    HW172146   1.618   0.439   5.566  0.4147  0.0892 -0.6750
20029SOL    HW272147   1.751   0.501   5.636  1.2957  0.1087 -2.3366
20030SOL     OW72148   9.069   3.953   4.518  0.8248 -0.3525 -0.0452
20030SOL    HW172149   9.019   4.039   4.510 -0.4994 -1.0801  0.2266
20030SOL    HW272150   9.167   3.971   4.527  0.4096  1.1843  1.5422
20031SOL     OW72151   7.375   9.674   5.765 -0.5311 -0.5047  0.2082
20031SOL    HW172152   7.452   9.623   5.802  0.3272  1.0179  0.5807
20031SOL    HW272153   7.389   9.772   5.781 -1.4553 -0.0229 -1.6990
20032SOL     OW72154   6.573   6.618   4.383  0.6538  0.0626 -0.3808
20032SOL    HW172155   6.507   6.615   4.458  0.7709  0.6743 -0.2464
20032SOL    HW272156   6.525   6.639   4.298  0.8978  2.5368  0.0352
20033SOL     OW72157   9.905   4.776   6.385  0.0299 -0.1621 -0.7390
20033SOL    HW172158   9.806   4.785   6.374  0.1785  2.3621 -0.2503
20033SOL    HW272159   9.925   4.690   6.431 -2.2312  0.8795  2.3779
20034SOL     OW72160   5.566   0.673   6.277 -0.2796 -0.0662 -0.4724
20034SOL    HW172161   5.527   0.676   6.368  0.1560 -1.0277 -0.2455
20034SOL    HW272162   5.495   0.652   6.210 -1.0559  2.9592 -0.6601
20035SOL     OW72163   5.137   4.661   4.331  0.4839  0.0485 -0.8994
20035SOL    HW172164   5.073   4.652   4.254 -0.1464  2.0260 -0.6444
20035SOL    HW272165   5.229   4.676   4.296  0.1557  1.2325 -1.2913
20036SOL     OW72166   2.750   6.173   3.015  0.3368 -0.5645 -0.3662
20036SOL    HW172167   2.726   6.230   2.937 -0.5044  2.4796  2.0053
20036SOL    HW272168   2.667   6.145   3.064  0.9786  0.5790  1.4483
20037SOL     OW72169   5.535   9.190   2.523 -0.0379  0.6150  0.0927
20037SOL    HW172170   5.577   9.272   2.483  1.8183 -0.8217 -1.0139
20037SOL    HW272171   5.546   9.191   2.622  0.3196  1.4982  0.0497
20038SOL     OW72172   1.740   0.274   4.527  0.1687 -0.0499  0.3248
20038SOL    HW172173   1.682   0.243   4.602  2.0883  0.6778  2.2001
20038SOL    HW272174   1.791   0.197   4.490 -0.8866 -0.4370 -0.3155
20039SOL     OW72175   4.939   7.009   5.270  0.3858 -0.5451  0.2471
20039SOL    HW172176   4.988   7.091   5.298  0.3593 -0.9321  1.4578
20039SOL    HW272177   4.910   6.958   5.351  0.2092 -1.6357 -0.4879
20040SOL     OW72178   8.140   8.318   2.807  0.3968 -0.2665  0.4208
20040SOL    HW172179   8.221   8.309   2.865 -0.0364  0.1578  1.1051
20040SOL    HW272180   8.131   8.237   2.748  0.8480 -0.6965  0.9418
20041SOL     OW72181   8.623   8.408   4.093 -0.0116 -0.0485 -0.2045
20041SOL    HW172182   8.610   8.465   4.173 -1.1172 -0.7268  0.1023
20041SOL    HW272183   8.600   8.460   4.010  0.0578  0.2966 -0.0062
20042SOL     OW72184   9.813   9.279   3.868 -0.0412  0.2538  0.5212
20042SOL    HW172185   9.860   9.305   3.952 -0.4502  0.9840  0.5336
20042SOL    HW272186   9.756   9.199   3.885 -0.3795  0.6005  1.0348
20043SOL     OW72187   9.183   4.701   5.926 -0.1058 -0.1889  0.2752
20043SOL    HW172188   9.223   4.708   6.018  0.9206  1.4543 -0.2679
20043SOL    HW272189   9.209   4.614   5.885  1.1368 -0.0572  0.7661
20044SOL     OW72190   6.309   6.607   3.706 -0.6943 -0.4491  0.2096
20044SOL    HW172191   6.383   6.653   3.657 -0.8174 -1.0760 -0.5790
20044SOL    HW272192   6.222   6.652   3.685 -0.5840  0.0984  0.8977
20045SOL     OW72193   2.114   8.999   3.157 -0.8407  0.0921 -0.0619
20045SOL    HW172194   2.069   8.963   3.075 -0.9796  0.1809 -0.0243
20045SOL    HW272195   2.143   9.093   3.140  2.1380 -0.9545 -1.1951
20046SOL     OW72196   8.143   6.056   2.924  0.0421  0.0221 -0.1777
20046SOL    HW172197   8.217   5.994   2.950 -0.0753 -0.2515 -0.4925
20046SOL    HW272198   8.073   6.055   2.995 -0.8375 -1.6307 -1.0567
20047SOL     OW72199   6.126   1.416   0.232 -0.2768  0.9866 -0.7023
20047SOL    HW172200   6.087   1.508   0.235 -1.1864  0.5739  0.5201
20047SOL    HW272201   6.080   1.358   0.299  0.7219 -0.1961 -1.0185
20048SOL     OW72202   9.300   4.484   2.457  0.1472 -0.0886  0.5829
20048SOL    HW172203   9.275   4.447   2.547  0.2723  0.1640  0.7204
20048SOL    HW272204   9.226   4.467   2.393 -1.2809  2.4705  1.4825
20049SOL     OW72205   7.868   0.403   1.583  0.1910  0.6321  0.2841
20049SOL    HW172206   7.868   0.493   1.627  1.5449 -0.4318  2.5455
20049SOL    HW272207   7.854   0.332   1.652 -1.3123 -0.8960 -1.5317
20050SOL     OW72208   7.092   0.685   0.784 -0.4109 -0.7021 -0.2399
20050SOL    HW172209   7.081   0.615   0.714 -0.7744 -1.3774  0.4786
20050SOL    HW272210   7.021   0.754   0.774 -0.1874 -0.5569 -0.8152
20051SOL     OW72211   4.879   6.673   9.619  0.6907 -0.3763 -0.3409
20051SOL    HW172212   4.823   6.591   9.607  0.6426 -0.4210  0.1842
20051SOL    HW272213   4.855   6.740   9.549  0.7293 -0.8123 -0.7712
20052SOL     OW72214   4.086   6.901   1.151 -0.8387  0.2730 -0.4697
20052SOL    HW172215   4.014   6.890   1.220 -1.4292  0.2134 -1.0933
20052SOL    HW272216   4.145   6.820   1.153 -1.4502 -0.1827 -0.7222
20053SOL     OW72217   7.143   8.793   3.771 -0.7598  0.2434 -0.1109
20053SOL    HW172218   7.159   8.776   3.868  0.5645 -3.0913 -0.8171
20053SOL    HW272219   7.228   8.823   3.728 -1.0834  0.7238 -0.4188
20054SOL     OW72220   5.323   6.151   2.255  0.3841 -0.5421 -0.0245
20054SOL    HW172221   5.227   6.131   2.275  0.1000  0.9278  0.0950
20054SOL    HW272222   5.365   6.072   2.211 -1.4832 -0.3564 -2.2009
20055SOL     OW72223   6.619   7.781   1.645  0.2525  0.0464  0.1036
20055SOL    HW172224   6.623   7.774   1.744 -0.2226 -2.3941 -0.0039
20055SOL    HW272225   6.638   7.875   1.617  0.8578  0.6626  2.4629
20056SOL     OW72226   5.976   0.756   4.784 -0.3319  0.1554 -0.2770
20056SOL    HW172227   5.917   0.737   4.863 -1.1936 -0.9234 -1.1668
20056SOL    HW272228   6.000   0.670   4.739  0.5038  0.7357 -0.9477
20057SOL     OW72229   3.261   9.903   8.806 -0.3835 -0.3030 -0.0924
20057SOL    HW172230   3.251   9.967   8.882 -3.8760 -0.2969 -0.4953
20057SOL    HW272231   3.284   9.813   8.842  1.4138  0.4449  0.7000
20058SOL     OW72232   8.193   6.048   3.881  0.5626  0.0056  0.5935
20058SOL    HW172233   8.194   6.018   3.786 -0.1516 -0.4782  0.7374
20058SOL    HW272234   8.262   5.997   3.933  0.1638 -0.5534  0.5818
20059SOL     OW72235   5.225   0.861   1.950  0.1015  0.1344  0.1465
20059SOL    HW172236   5.241   0.894   1.857 -0.2727  2.0941  0.7576
20059SOL    HW272237   5.270   0.922   2.015  2.3854 -2.5339  1.1876
20060SOL     OW72238   5.520   3.765   5.034  0.1907  0.0050 -0.2457
20060SOL    HW172239   5.489   3.792   4.943  1.3617  0.2062 -0.5957
20060SOL    HW272240   5.513   3.844   5.096  0.7262  0.2702 -0.5158
20061SOL     OW72241   0.641   6.942   3.455  0.2870  0.1046  0.0838
20061SOL    HW172242   0.631   6.869   3.388  0.6952 -0.0256  0.1631
20061SOL    HW272243   0.654   7.029   3.407  0.7916 -0.0195 -0.0092
20062SOL     OW72244   5.634   5.588   0.522  0.1563  0.8109  0.4922
20062SOL    HW172245   5.720   5.591   0.471  0.4730 -1.7806  0.8130
20062SOL    HW272246   5.654   5.591   0.620 -0.1823  1.1554  0.5522
20063SOL     OW72247   6.778   9.121   5.014  0.0483  0.2247  0.5536
20063SOL    HW172248   6.790   9.171   4.928 -0.1062 -2.5612 -1.1414
20063SOL    HW272249   6.861   9.131   5.069  1.4639 -0.6220 -1.3547
20064SOL     OW72250   0.934   8.435   0.865 -0.3502  0.7428 -0.3293
20064SOL    HW172251   0.835   8.422   0.878 -0.0167 -1.1035  0.3803
20064SOL    HW272252   0.973   8.354   0.821  1.0045  1.1155  0.1760
20065SOL     OW72253   5.992   0.886   2.637  0.0502  0.3755 -0.0471
20065SOL    HW172254   5.910   0.833   2.617  1.2334 -0.9108 -1.5945
20065SOL    HW272255   6.073   0.829   2.624  1.2262  1.8218  0.7983
20066SOL     OW72256   8.446   7.034   4.387  0.5329 -1.1401 -0.5729
20066SOL    HW172257   8.508   7.020   4.310  0.2917 -1.5549 -0.6927
20066SOL    HW272258   8.385   6.956   4.395  0.4744 -1.0432 -0.0376
20067SOL     OW72259   9.221   9.537   5.098 -0.2048 -0.8421 -0.2419
20067SOL    HW172260   9.270   9.451   5.092  0.2661 -0.4589 -2.4228
20067SOL    HW272261   9.273   9.608   5.050 -1.5103  0.2103 -0.1262
20068SOL     OW72262   5.988   0.557   9.183  0.4433  0.0162 -0.2537
20068SOL    HW172263   5.930   0.588   9.107  1.0357 -0.7163 -1.0110
20068SOL    HW272264   6.036   0.635   9.222  1.1641  0.2305 -1.5105
20069SOL     OW72265   4.558   5.738   5.247  0.3819 -0.4821  0.2244
20069SOL    HW172266   4.604   5.665   5.298 -1.0848 -0.7557  1.1606
20069SOL    HW272267   4.548   5.818   5.306  1.3373  0.2368 -0.5753
20070SOL     OW72268   2.455   6.221   1.567  0.3902  0.3598  0.8327
20070SOL    HW172269   2.430   6.160   1.643  0.0457  0.2119  0.6029
20070SOL    HW272270   2.544   6.263   1.586 -0.7073  2.0549  2.3744
20071SOL     OW72271   8.298   4.248   3.457  0.3634 -0.5819 -0.5540
20071SOL    HW172272   8.396   4.233   3.451  0.3418 -0.5904 -0.9164
20071SOL    HW272273   8.261   4.263   3.365 -0.0136 -0.8450 -0.4451
20072SOL     OW72274   9.932   9.321   7.197 -0.0842 -0.5830 -0.1506
20072SOL    HW172275   9.953   9.394   7.263 -1.1707 -1.0074  0.6839
20072SOL    HW272276   9.841   9.337   7.159 -0.4633 -1.6705  0.2746
20073SOL     OW72277   5.602   8.979   8.870 -0.1831  0.0930 -0.0662
20073SOL    HW172278   5.645   9.067   8.889  0.9542 -0.7394  1.3454
20073SOL    HW272279   5.649   8.934   8.794  0.6503 -0.2626  0.6554
20074SOL     OW72280   6.221   7.941   0.021 -0.1099 -0.2552  0.2775
20074SOL    HW172281   6.302   7.934   0.079 -0.9229 -0.0229  1.4559
20074SOL    HW272282   6.190   8.036   0.018  0.5056 -0.0848 -1.3652
20075SOL     OW72283   5.708   7.958   5.837  0.5340 -0.2011  0.2335
20075SOL    HW172284   5.637   7.986   5.902 -1.5877 -3.3941 -0.5797
20075SOL    HW272285   5.667   7.944   5.747  2.1700 -2.0838 -0.2682
20076SOL     OW72286   8.851   8.679   3.851  0.2192  0.3722 -0.1967
20076SOL    HW172287   8.930   8.740   3.842  0.9607 -0.5040  0.2874
20076SOL    HW272288   8.807   8.668   3.762  2.3258 -1.3599 -1.0849
20077SOL     OW72289   7.234   7.168   2.066  0.5356 -0.0752  0.5689
20077SOL    HW172290   7.202   7.251   2.112  1.0833  0.9564 -0.8744
20077SOL    HW272291   7.304   7.192   1.999 -0.8930 -1.4152 -1.4656
20078SOL     OW72292   1.641   3.772   6.766 -0.0779 -0.3671 -0.1478
20078SOL    HW172293   1.715   3.708   6.748 -0.8399 -1.3049  0.0138
20078SOL    HW272294   1.672   3.865   6.748  1.4691 -0.6596  0.9487
20079SOL     OW72295   6.465   4.616   3.563 -0.3172 -0.4319  0.9347
20079SOL    HW172296   6.468   4.520   3.537  1.8925 -0.2122  0.2852
20079SOL    HW272297   6.413   4.668   3.495 -1.6859 -1.1741  1.3906
20080SOL     OW72298   5.731   1.375   2.182  0.4133 -0.7632  0.2815
20080SOL    HW172299   5.634   1.381   2.204  0.0040 -0.7625 -1.4376
20080SOL    HW272300   5.784   1.422   2.253 -1.1036  2.3578 -0.5550
20081SOL     OW72301   1.208   8.308   3.132 -0.1302  0.0616 -0.0218
20081SOL    HW172302   1.253   8.393   3.102 -0.5570  0.5889  0.8100
20081SOL    HW272303   1.202   8.307   3.232  0.8787 -1.4843  0.0232
20082SOL     OW72304   0.072   7.870   6.078 -1.0850  0.2248  0.5980
20082SOL    HW172305   0.108   7.856   5.986 -0.2999  2.2838  0.5580
20082SOL    HW272306   0.123   7.814   6.143 -0.9675 -0.4683 -0.0941
20083SOL     OW72307   7.535   0.405   1.949  0.2915  0.2079  0.0536
20083SOL    HW172308   7.571   0.315   1.975  2.2056  0.4434 -1.6474
20083SOL    HW272309   7.509   0.404   1.852  1.0420  1.6817 -0.1785
20084SOL     OW72310   7.739   4.681   1.871 -0.1779  0.3596 -0.0974
20084SOL    HW172311   7.735   4.779   1.849  0.6853  0.2078 -0.9465
20084SOL    HW272312   7.823   4.663   1.922 -0.9091  0.2535  1.1015
20085SOL     OW72313   6.964   7.274   2.263  0.4210  0.0815 -0.1540
20085SOL    HW172314   6.909   7.309   2.339 -1.3559 -0.1327 -1.3250
20085SOL    HW272315   7.021   7.348   2.226 -0.2247  0.6932  0.0710
20086SOL     OW72316   6.285   6.973   6.077  0.4691  0.0668 -0.2664
20086SOL    HW172317   6.297   7.052   6.137 -0.3215  0.3420 -0.4605
20086SOL    HW272318   6.307   6.999   5.983 -0.3294  0.2103 -0.4151
20087SOL     OW72319   6.540   6.664   0.730 -0.1234 -0.1326  0.4679
20087SOL    HW172320   6.618   6.610   0.762 -0.3990 -1.6256 -1.3007
20087SOL    HW272321   6.540   6.668   0.630  0.4902  4.0872  0.5369
20088SOL     OW72322   5.856   6.659   4.314 -0.2838 -0.4329 -0.0495
20088SOL    HW172323   5.874   6.743   4.366  1.3648 -0.7951 -0.0012
20088SOL    HW272324   5.762   6.630   4.330 -1.3338  2.1703 -1.1782
20089SOL     OW72325   1.868   3.603   7.294 -0.3829 -0.1776 -0.0904
20089SOL    HW172326   1.773   3.628   7.314  0.1948  1.5959  0.4990
20089SOL    HW272327   1.874   3.504   7.278 -2.2667 -0.3470  0.1887
20090SOL     OW72328   7.311   1.764   4.439  0.2111 -0.7183  0.1851
20090SOL    HW172329   7.327   1.791   4.344 -2.5386  1.4446  0.2723
20090SOL    HW272330   7.310   1.664   4.446  1.8805 -0.8916 -1.7783
20091SOL     OW72331   2.836   4.569   1.559 -0.4274 -0.9396 -0.2680
20091SOL    HW172332   2.817   4.631   1.482  2.1917  0.8048  0.4000
20091SOL    HW272333   2.842   4.475   1.525  1.9810 -0.0653 -2.4669
20092SOL     OW72334   1.624   6.634   1.901  0.5437  0.4596 -0.0726
20092SOL    HW172335   1.582   6.711   1.852 -1.2130  0.4773  1.3825
20092SOL    HW272336   1.705   6.665   1.949 -1.5335  2.0573  2.5544
20093SOL     OW72337   8.730   6.276   4.785 -0.3646  0.1676  0.0887
20093SOL    HW172338   8.809   6.273   4.725 -0.1162  0.3851  0.4007
20093SOL    HW272339   8.732   6.361   4.838 -0.4842 -0.1005  0.5301
20094SOL     OW72340   6.084   9.417   0.703  0.2551 -0.3794 -0.2136
20094SOL    HW172341   6.032   9.457   0.628  0.4026 -0.5469 -0.4056
20094SOL    HW272342   6.061   9.464   0.788 -2.5234 -2.4272  0.2352
20095SOL     OW72343   9.505   6.172   7.298  0.1157  0.4769 -0.4955
20095SOL    HW172344   9.571   6.097   7.301 -0.0479  0.3238 -0.7076
20095SOL    HW272345   9.528   6.234   7.222 -0.8151 -0.3439 -1.4528
20096SOL     OW72346   7.338   9.452   9.967 -0.1012  0.0551 -0.3363
20096SOL    HW172347   7.413   9.432  10.030 -1.5506  1.9846  2.0778
20096SOL    HW272348   7.305   9.545   9.983 -2.6480 -0.5707 -1.7435
20097SOL     OW72349   7.095   4.172   2.644 -0.0252  0.2646 -0.5133
20097SOL    HW172350   7.083   4.272   2.648 -1.7955  0.0358  0.5936
20097SOL    HW272351   7.152   4.142   2.720  0.1795  0.3994 -0.6138
20098SOL     OW72352   9.008   2.311   3.819  0.3415 -0.1881  0.6872
20098SOL    HW172353   9.008   2.365   3.902  0.2327  1.6867 -0.5065
20098SOL    HW272354   9.041   2.366   3.742  0.2588 -1.8100 -0.5677
20099SOL     OW72355   0.201   1.716   4.265  0.1531 -0.1287  0.3610
20099SOL    HW172356   0.285   1.751   4.306  0.4456 -0.1720 -0.1953
20099SOL    HW272357   0.201   1.735   4.167 -0.4002 -0.2996  0.3237
20100SOL     OW72358   5.617   4.192   6.100  0.0428 -0.2979  0.1851
20100SOL    HW172359   5.623   4.197   6.000 -0.4788  3.9887  0.2779
20100SOL    HW272360   5.691   4.246   6.141 -2.3992  1.7888  2.0034
20101SOL     OW72361   7.559   8.353   1.835 -0.1141  0.3557 -0.1196
20101SOL    HW172362   7.530   8.258   1.848 -0.2184  0.4385  0.2567
20101SOL    HW272363   7.521   8.388   1.750 -1.7419  0.7087  0.7291
20102SOL     OW72364   7.633   5.265   7.776  1.2314  0.0687 -0.6800
20102SOL    HW172365   7.548   5.237   7.731  0.4998  0.4350  0.4505
20102SOL    HW272366   7.692   5.310   7.709  0.0148  0.9173 -1.2176
20103SOL     OW72367   6.260   8.951   1.370  0.3865  0.1425  0.2935
20103SOL    HW172368   6.274   9.050   1.367 -0.0492  0.1577 -1.7103
20103SOL    HW272369   6.250   8.916   1.277 -0.2641 -1.6811  1.0341
20104SOL     OW72370   5.856   2.491   9.952  0.2664  0.7041  0.2585
20104SOL    HW172371   5.830   2.446  10.037  0.6042  0.5370  0.2731
20104SOL    HW272372   5.919   2.566   9.972 -0.5541  1.4053  0.2721
20105SOL     OW72373   3.378   7.073   5.034 -0.2426  0.3903 -0.2684
20105SOL    HW172374   3.450   7.005   5.021 -0.6558 -0.2473  0.7304
20105SOL    HW272375   3.308   7.062   4.964  0.8743  1.3611 -1.5818
20106SOL     OW72376   8.049   7.320   4.260 -0.9141 -0.3232  0.3032
20106SOL    HW172377   7.999   7.265   4.327 -0.5595  0.4333  1.1980
20106SOL    HW272378   8.017   7.415   4.264 -1.0601 -0.3319 -0.7653
20107SOL     OW72379   7.473   1.193   1.282  0.0299 -0.2840  0.1787
20107SOL    HW172380   7.432   1.256   1.215 -0.8187 -0.9156  0.0988
20107SOL    HW272381   7.483   1.103   1.241  2.2130  0.0492 -0.0455
20108SOL     OW72382   6.238   7.541   1.443  0.1399  0.2819 -0.4765
20108SOL    HW172383   6.285   7.630   1.445 -0.5574  0.6314  0.7672
20108SOL    HW272384   6.149   7.549   1.488 -0.3617 -0.8142 -1.2388
20109SOL     OW72385   5.170   7.230   1.566  0.6051  0.6598  0.2328
20109SOL    HW172386   5.213   7.319   1.555 -1.2619  1.6298  0.5645
20109SOL    HW272387   5.158   7.187   1.477  0.9213  1.0279  0.0123
20110SOL     OW72388   6.833   0.956   9.136 -0.3483  0.0996  0.0608
20110SOL    HW172389   6.827   0.866   9.092 -2.1244  0.9056 -1.4231
20110SOL    HW272390   6.910   1.007   9.098  0.8286 -0.8794  1.0984
20111SOL     OW72391   7.791   9.319   9.673  0.1322  0.0037 -0.3361
20111SOL    HW172392   7.751   9.346   9.586 -1.2666 -0.7563  0.0534
20111SOL    HW272393   7.840   9.233   9.662 -0.6749 -0.4742 -0.2121
20112SOL     OW72394   2.743   9.081   4.769  0.1404  0.4030 -0.0857
20112SOL    HW172395   2.656   9.127   4.788  0.4260  1.4451 -1.3036
20112SOL    HW272396   2.801   9.139   4.712  0.3404 -1.6039 -2.0051
20113SOL     OW72397   8.220   8.683   4.235 -0.1518  0.4918  0.0384
20113SOL    HW172398   8.123   8.660   4.228 -0.0231  0.0046 -0.1596
20113SOL    HW272399   8.262   8.678   4.144 -0.0658  1.2608  0.0345
20114SOL     OW72400   8.090   1.747   4.273  0.0512  0.4053  0.3229
20114SOL    HW172401   8.136   1.716   4.356 -0.7943  2.4519  1.6122
20114SOL    HW272402   7.991   1.738   4.284 -0.0243 -0.2732 -0.8767
20115SOL     OW72403   6.226   6.527   0.092 -0.0817  0.3676 -0.6890
20115SOL    HW172404   6.190   6.562   0.006 -2.5015  0.4630  0.3284
20115SOL    HW272405   6.174   6.445   0.118  1.3720 -0.3078  0.1276
20116SOL     OW72406   7.247   8.295   3.694 -0.0745  0.0154 -0.2934
20116SOL    HW172407   7.276   8.306   3.789  0.9332  0.9257 -0.6881
20116SOL    HW272408   7.233   8.386   3.653 -0.1856 -0.3633 -1.1017
20117SOL     OW72409   3.754   8.277   4.125  0.0560  0.2086  0.2935
20117SOL    HW172410   3.793   8.275   4.032 -0.6219  0.2296  0.0041
20117SOL    HW272411   3.822   8.244   4.190  0.1016 -1.0382 -0.3685
20118SOL     OW72412   6.314   9.436   6.125  0.0458  0.2134 -0.2815
20118SOL    HW172413   6.250   9.496   6.173  1.7172  1.9676 -0.1921
20118SOL    HW272414   6.383   9.403   6.189  1.0817  0.9025 -1.0301
20119SOL     OW72415   9.744   9.515   7.122  0.1240 -0.1820 -0.1669
20119SOL    HW172416   9.657   9.495   7.077  0.4504 -1.7020 -0.1535
20119SOL    HW272417   9.750   9.613   7.142 -1.6709 -0.1065  0.0409
20120SOL     OW72418   9.397   1.330   5.679  0.4294 -0.1737  0.4566
20120SOL    HW172419   9.433   1.340   5.587  0.2599 -1.5450  0.2327
20120SOL    HW272420   9.472   1.330   5.745  0.7129 -1.2981  0.1391
20121SOL     OW72421   6.666   9.031   1.962  0.4159 -0.5943  0.1088
20121SOL    HW172422   6.600   8.979   2.017  2.1230 -0.2614  2.5718
20121SOL    HW272423   6.625   9.118   1.935 -0.7107 -1.0685  0.2665
20122SOL     OW72424   2.739   3.299   6.009  0.0199  0.9773 -0.1399
20122SOL    HW172425   2.661   3.357   5.985 -1.3364 -0.3461  1.0436
20122SOL    HW272426   2.708   3.207   6.032  2.1961 -0.4161 -2.4263
20123SOL     OW72427   6.825   6.230   3.103 -0.2478  0.5371  0.2861
20123SOL    HW172428   6.903   6.216   3.042  0.4122  0.9891  1.0214
20123SOL    HW272429   6.858   6.253   3.194 -1.2214 -0.7917  0.9801
20124SOL     OW72430   5.111   3.526   0.931 -0.5646  0.0842 -0.1303
20124SOL    HW172431   5.117   3.488   0.838  0.9422 -0.6058  0.2264
20124SOL    HW272432   5.179   3.600   0.941 -1.1207  0.5493  0.2468
20125SOL     OW72433   1.430   6.416   6.713  0.5787  0.7173  0.2019
20125SOL    HW172434   1.372   6.343   6.677  0.1118  1.1938 -0.0180
20125SOL    HW272435   1.375   6.478   6.768  1.0158  0.7890  0.5616
20126SOL     OW72436   2.221   7.990   9.654 -0.5846 -0.1831  0.0011
20126SOL    HW172437   2.268   8.061   9.600 -0.8686  0.6214  0.8060
20126SOL    HW272438   2.249   7.900   9.620  1.8190  0.2559  0.6774
20127SOL     OW72439   7.194   8.785   1.778  0.0628 -0.3845 -0.4519
20127SOL    HW172440   7.195   8.882   1.802  2.6524 -0.6919  0.8106
20127SOL    HW272441   7.183   8.731   1.861 -0.0481 -1.2245 -1.0082
20128SOL     OW72442   9.008   7.780   3.081 -0.0763  0.5011  0.0300
20128SOL    HW172443   8.953   7.696   3.080 -1.1964  1.2133  0.6647
20128SOL    HW272444   9.085   7.768   3.143  0.7031 -0.6325 -1.1334
20129SOL     OW72445   8.432   1.718   4.350  0.4836 -0.4198  0.6018
20129SOL    HW172446   8.442   1.622   4.323 -0.1858 -0.2133 -0.3796
20129SOL    HW272447   8.345   1.730   4.398  0.4352 -0.2427  0.4684
20130SOL     OW72448   5.878   5.069   3.016 -0.6349 -0.3454 -0.1103
20130SOL    HW172449   5.903   5.133   3.089  1.3569  0.6972 -1.6389
20130SOL    HW272450   5.790   5.095   2.978 -1.8753 -1.1264  2.1494
20131SOL     OW72451   9.057   5.482   7.623 -0.5303  0.1951 -0.1310
20131SOL    HW172452   9.123   5.555   7.606  0.2183 -0.3233  0.5219
20131SOL    HW272453   9.060   5.455   7.719  1.7508 -3.0799 -1.0091
20132SOL     OW72454   9.853   2.335   4.182  0.3166 -0.3843  0.2484
20132SOL    HW172455   9.911   2.342   4.101  2.2623 -2.8411  1.3691
20132SOL    HW272456   9.784   2.264   4.166  0.6615 -0.8256  0.7072
20133SOL     OW72457   9.616   9.730   5.171  0.0685  0.2377  0.4905
20133SOL    HW172458   9.562   9.778   5.101 -0.6480  2.1625  2.3221
20133SOL    HW272459   9.554   9.693   5.240  0.9705  0.8796  1.6485
20134SOL     OW72460   5.957   7.934   5.727  0.4172 -0.2397 -0.1816
20134SOL    HW172461   5.923   7.879   5.650 -0.0879 -1.0155  0.5910
20134SOL    HW272462   5.888   7.937   5.799  0.6374  1.0199 -0.0201
20135SOL     OW72463   0.553   5.431   8.217  0.4947 -0.0170 -0.0534
20135SOL    HW172464   0.465   5.396   8.249  1.0333 -1.2374  0.1113
20135SOL    HW272465   0.618   5.432   8.292 -0.2554  3.9826  0.6590
20136SOL     OW72466   6.688   9.361   7.186 -0.4311 -0.3706  0.1369
20136SOL    HW172467   6.756   9.390   7.253  0.2103 -1.2516 -0.1180
20136SOL    HW272468   6.710   9.269   7.154 -1.7073 -0.6378 -0.0088
20137SOL     OW72469   5.481   0.095   2.195  0.3622 -0.0686 -0.3128
20137SOL    HW172470   5.437   0.064   2.280 -0.7583  0.9086 -0.5274
20137SOL    HW272471   5.554   0.159   2.217  1.9012 -1.9011  0.0629
20138SOL     OW72472   5.965   2.471   0.995 -0.0516 -0.1726  0.5317
20138SOL    HW172473   5.944   2.530   1.073  0.1056 -2.1290  2.0998
20138SOL    HW272474   5.888   2.408   0.981  0.1265 -0.1356 -0.6133
20139SOL     OW72475   6.276   6.532   8.041 -0.1102 -0.1856  0.6552
20139SOL    HW172476   6.180   6.536   8.069  0.3976  0.6385  2.3705
20139SOL    HW272477   6.324   6.613   8.075  1.7355 -1.7985  2.0187
20140SOL     OW72478   5.390   5.207   4.295 -0.0825  1.0951 -0.6076
20140SOL    HW172479   5.406   5.110   4.312  0.4132  1.0548 -1.3028
20140SOL    HW272480   5.357   5.250   4.379 -0.0929  0.3717 -0.2371
20141SOL     OW72481   5.114   4.630   7.793 -0.6848 -0.1867  0.1858
20141SOL    HW172482   5.202   4.644   7.747 -0.6314  0.7705  0.5578
20141SOL    HW272483   5.041   4.672   7.738 -0.9273 -1.0283 -0.1508
20142SOL     OW72484   4.374   0.422   8.742 -0.2047 -0.2189 -0.2920
20142SOL    HW172485   4.395   0.330   8.776 -1.3442 -1.2870 -2.4040
20142SOL    HW272486   4.283   0.449   8.772 -0.0994 -0.0074 -0.1580
20143SOL     OW72487   4.587   4.535   3.822 -0.5888  0.4557 -0.6340
20143SOL    HW172488   4.488   4.551   3.823 -0.5513  0.6870  0.0311
20143SOL    HW272489   4.635   4.622   3.832 -0.3244  0.3016 -0.5488
20144SOL     OW72490   4.352   9.615   1.650  0.0222 -0.0712 -0.0302
20144SOL    HW172491   4.418   9.607   1.575 -2.1494  1.0572 -2.1280
20144SOL    HW272492   4.313   9.525   1.670  2.9981 -0.9911  2.0786
20145SOL     OW72493   6.476   0.110   3.545  0.4218  0.1869 -0.1381
20145SOL    HW172494   6.382   0.080   3.555  0.3491  0.9520  1.6654
20145SOL    HW272495   6.528   0.089   3.628  1.7141  0.2362 -0.9059
20146SOL     OW72496   3.186   5.206   8.558 -0.0519  0.1276  0.7572
20146SOL    HW172497   3.252   5.226   8.486 -0.5550  1.1666  0.5721
20146SOL    HW272498   3.141   5.118   8.540  1.4842 -0.7263  1.0450
20147SOL     OW72499   0.214   6.483   3.685  0.0841 -0.4597  0.4697
20147SOL    HW172500   0.272   6.549   3.637  0.1152 -1.6980 -1.2517
20147SOL    HW272501   0.267   6.402   3.708 -0.4476 -0.7290  0.7522
20148SOL     OW72502   7.694   9.842   2.968  0.5210 -0.0861  0.4032
20148SOL    HW172503   7.764   9.771   2.973  1.0309  0.3414 -0.5337
20148SOL    HW272504   7.643   9.846   3.054  0.5385 -1.5369  0.4811
20149SOL     OW72505   6.747   6.669   7.700  0.0671  0.3003  0.2293
20149SOL    HW172506   6.785   6.645   7.790  0.0630  0.9117  0.3995
20149SOL    HW272507   6.648   6.685   7.709  0.1442  0.7975  0.2047
20150SOL     OW72508   6.889   8.867   0.073 -0.1115 -0.1237  0.1592
20150SOL    HW172509   6.981   8.894   0.043 -0.3469  0.4664 -0.0292
20150SOL    HW272510   6.897   8.792   0.139  0.6039  1.0147  1.3978
20151SOL     OW72511   0.614   7.594   3.594  0.9830 -0.1481  1.0687
20151SOL    HW172512   0.531   7.554   3.633 -0.2288  0.9033 -0.3566
20151SOL    HW272513   0.652   7.661   3.658 -0.5939  1.0684  0.7594
20152SOL     OW72514   0.374   6.090   0.509 -0.7527  0.0691 -0.2545
20152SOL    HW172515   0.461   6.051   0.478  0.1723  1.1864  0.8956
20152SOL    HW272516   0.334   6.031   0.579  0.2006  0.6818  0.8302
20153SOL     OW72517   9.249   1.208   1.520 -0.2836 -0.3063 -0.5461
20153SOL    HW172518   9.216   1.223   1.427 -1.1547 -1.8543 -0.5070
20153SOL    HW272519   9.216   1.119   1.553  0.0454  0.2074  1.2204
20154SOL     OW72520   4.070   2.143   7.606 -0.3361  1.1303 -0.2357
20154SOL    HW172521   4.001   2.155   7.677  0.2750  0.4903  0.4778
20154SOL    HW272522   4.029   2.093   7.529 -0.2211 -0.8123  0.9220
20155SOL     OW72523   3.677   1.419   2.079 -0.2868  0.1760  0.6456
20155SOL    HW172524   3.598   1.385   2.131 -0.6485 -0.2511 -0.1705
20155SOL    HW272525   3.745   1.345   2.070 -0.6686 -0.0613 -0.3448
20156SOL     OW72526   8.414   3.570   1.112  0.1924 -0.6356 -0.8590
20156SOL    HW172527   8.453   3.482   1.142  0.2409 -1.1883 -2.4909
20156SOL    HW272528   8.489   3.632   1.088  0.1338 -0.5661 -0.8591
20157SOL     OW72529   5.406   0.812   2.238 -0.1816  0.2857 -0.1937
20157SOL    HW172530   5.463   0.889   2.208 -0.9491  0.3058 -1.6311
20157SOL    HW272531   5.437   0.782   2.328  1.7174  0.6857 -0.6739
20158SOL     OW72532   7.259   4.236   0.578  0.1490 -0.1327 -0.3988
20158SOL    HW172533   7.315   4.161   0.614 -0.5889 -0.3271  0.3673
20158SOL    HW272534   7.221   4.210   0.490  0.3588 -0.4443 -0.3982
20159SOL     OW72535   2.684   5.607   3.175 -0.0656 -0.2490  0.4700
20159SOL    HW172536   2.628   5.549   3.115  1.8870 -2.6085  0.8690
20159SOL    HW272537   2.734   5.673   3.120 -0.9252 -0.1176 -0.1712
20160SOL     OW72538   4.787   8.334   7.270  0.4761 -0.2378  0.4490
20160SOL    HW172539   4.696   8.341   7.310  0.1815 -0.7862 -0.1147
20160SOL    HW272540   4.856   8.347   7.341 -0.0413 -0.4163  0.9819
20161SOL     OW72541   0.618   7.550   3.022 -0.0049  0.0410 -0.5634
20161SOL    HW172542   0.603   7.586   3.114  0.6622  1.8408 -1.1394
20161SOL    HW272543   0.687   7.478   3.025  0.5881  0.6330  0.2400
20162SOL     OW72544   8.051   5.216   7.183  0.1455  0.2711  0.5870
20162SOL    HW172545   8.111   5.293   7.205 -1.6303  1.1460  2.4991
20162SOL    HW272546   8.045   5.154   7.262 -1.0025 -0.1138  0.2141
20163SOL     OW72547   6.726   8.091   0.758  0.4338  0.6091 -0.3477
20163SOL    HW172548   6.692   8.015   0.814  3.0283  0.5199  1.1493
20163SOL    HW272549   6.784   8.055   0.685 -0.2315  0.9855 -1.0648
20164SOL     OW72550   5.380   5.943   1.853 -0.7931 -0.2919  0.4046
20164SOL    HW172551   5.295   5.996   1.851 -0.7354 -0.2158 -0.1797
20164SOL    HW272552   5.386   5.893   1.939 -0.8399  0.6660  0.9717
20165SOL     OW72553   7.144   3.030   0.041 -0.0148 -0.2131  0.1135
20165SOL    HW172554   7.089   3.001  -0.038 -0.8992 -2.4085  1.4847
20165SOL    HW272555   7.241   3.021   0.020 -0.2433 -0.5506 -0.8158
20166SOL     OW72556   0.616   4.473   0.902  0.1223  0.5707 -0.2156
20166SOL    HW172557   0.536   4.418   0.928  1.4695 -0.4029  2.0626
20166SOL    HW272558   0.626   4.549   0.966  2.3226 -0.6666  0.9717
20167SOL     OW72559   8.009   2.923   0.109  0.6773  0.4949  0.2647
20167SOL    HW172560   8.037   2.881   0.022  0.0933  2.7519 -1.0472
20167SOL    HW272561   7.910   2.912   0.120  0.8857 -0.6204  1.1325
20168SOL     OW72562   5.095   8.927   6.157  1.1035 -0.0224 -0.3135
20168SOL    HW172563   5.115   9.017   6.195 -1.4197 -0.6571  2.7712
20168SOL    HW272564   5.016   8.935   6.095 -0.1820 -0.3235  1.2478
20169SOL     OW72565   6.445   2.760   4.542 -0.2208 -0.0732 -0.1967
20169SOL    HW172566   6.389   2.816   4.603 -1.1245  0.1821 -1.2569
20169SOL    HW272567   6.485   2.818   4.471  1.1042 -0.3123  0.3259
20170SOL     OW72568   2.769   3.989   6.822 -0.1260 -0.0813  0.2221
20170SOL    HW172569   2.716   3.989   6.906  1.3134  1.1774  1.1515
20170SOL    HW272570   2.707   3.981   6.743 -1.5834  0.2577  1.3180
20171SOL     OW72571   8.139   6.689   5.317 -0.1944 -0.1964 -0.0824
20171SOL    HW172572   8.144   6.745   5.234 -0.3295 -0.2335 -0.1152
20171SOL    HW272573   8.073   6.730   5.381 -0.9031 -0.7663 -0.4440
20172SOL     OW72574   5.757   6.847   8.897  0.3091  0.7117  0.5503
20172SOL    HW172575   5.678   6.878   8.950 -1.1092 -1.4996 -0.1820
20172SOL    HW272576   5.835   6.833   8.958 -1.2307 -1.5696  2.0624
20173SOL     OW72577   8.207   0.256   9.951  0.7668 -0.3588  0.0456
20173SOL    HW172578   8.260   0.298   9.878  0.7579 -1.2287 -0.4626
20173SOL    HW272579   8.202   0.157   9.937  0.2453 -0.4589  0.8823
20174SOL     OW72580   4.897   6.776   8.874  0.2192  0.3083  0.4488
20174SOL    HW172581   4.825   6.816   8.930 -0.5785 -1.3156  0.6195
20174SOL    HW272582   4.970   6.742   8.932 -0.4889 -1.1418  0.5272
20175SOL     OW72583   0.164   3.338   3.149 -0.2098  0.2802  0.2586
20175SOL    HW172584   0.115   3.251   3.159  0.0704  0.0252 -0.5941
20175SOL    HW272585   0.262   3.323   3.163 -0.2006  0.5199  0.4502
20176SOL     OW72586   7.294   6.315   4.294  0.1739  0.4626 -0.2929
20176SOL    HW172587   7.356   6.393   4.283  1.2083 -0.3318 -0.1402
20176SOL    HW272588   7.325   6.258   4.370 -1.3848  0.6471  0.4990
20177SOL     OW72589   0.027   5.718   4.874 -0.0657  0.4855  0.4104
20177SOL    HW172590  -0.046   5.779   4.905  0.8332  1.3519  0.8573
20177SOL    HW272591   0.005   5.684   4.783 -2.5530 -1.7508  1.7502
20178SOL     OW72592   1.466   4.598   4.440 -0.0514 -0.7183  0.6367
20178SOL    HW172593   1.413   4.513   4.446  0.3790 -1.0351  0.0939
20178SOL    HW272594   1.553   4.578   4.395  0.5770 -0.2348  1.6324
20179SOL     OW72595   5.285   9.487   8.859 -0.0823  0.0449 -0.3716
20179SOL    HW172596   5.339   9.427   8.800  0.2836 -0.3075  0.3183
20179SOL    HW272597   5.210   9.527   8.806  0.9383  0.6623 -1.3696
20180SOL     OW72598   8.536   9.101   4.439  0.3630  0.1735 -0.3912
20180SOL    HW172599   8.525   9.013   4.392 -0.8817  0.5337 -0.8052
20180SOL    HW272600   8.481   9.101   4.523  1.9277 -0.1608  0.6512
20181SOL     OW72601   8.188   9.211   5.714  0.4182  0.0548 -0.0386
20181SOL    HW172602   8.102   9.176   5.753  0.7349 -0.1948  0.4355
20181SOL    HW272603   8.182   9.310   5.707 -0.6314 -0.1102 -1.7417
20182SOL     OW72604   7.583   6.030   1.686 -0.3864 -0.5813 -0.5551
20182SOL    HW172605   7.575   5.943   1.636  1.2766 -1.2254  0.2789
20182SOL    HW272606   7.678   6.059   1.687 -0.4654 -0.3830  1.9163
20183SOL     OW72607   1.008   3.846   8.971  0.3037 -0.0729  0.4025
20183SOL    HW172608   1.105   3.871   8.967 -0.4284  2.7467 -1.4831
20183SOL    HW272609   0.962   3.901   9.041 -0.2729 -0.1266  0.0690
20184SOL     OW72610   0.071   5.662   5.636 -0.9093  0.3178  0.2424
20184SOL    HW172611   0.032   5.632   5.723 -0.2465  0.9697  0.7723
20184SOL    HW272612   0.146   5.727   5.653 -1.0543  0.7867 -0.8194
20185SOL     OW72613   6.309   8.864   3.643 -0.2333 -0.7846 -0.2687
20185SOL    HW172614   6.357   8.914   3.715  0.3276  0.9416 -1.8003
20185SOL    HW272615   6.211   8.868   3.660 -0.0119 -2.2773  1.5672
20186SOL     OW72616   4.174   5.264   3.557  0.1033 -0.2883 -0.0568
20186SOL    HW172617   4.206   5.243   3.650  0.0722 -1.1391 -0.2376
20186SOL    HW272618   4.095   5.326   3.563 -0.5064 -1.1048  0.5300
20187SOL     OW72619   6.679   4.942   6.329  0.5219 -0.1072  0.4930
20187SOL    HW172620   6.773   4.960   6.298  0.6426 -0.8336  0.4409
20187SOL    HW272621   6.656   4.846   6.313  0.0291 -0.1101  1.2001
20188SOL     OW72622   5.331   5.792   4.882  0.2528 -0.2165  0.4038
20188SOL    HW172623   5.285   5.872   4.843  0.0724 -0.8407 -0.6678
20188SOL    HW272624   5.265   5.720   4.899  0.4557 -0.2264  1.1457
20189SOL     OW72625   8.777   8.266   2.330  0.0874  0.0230  0.1989
20189SOL    HW172626   8.875   8.269   2.310 -0.3862 -2.3515 -2.9503
20189SOL    HW272627   8.741   8.176   2.305 -2.8031  0.6815  1.8062
20190SOL     OW72628   2.158   3.926   2.496  0.2530  0.2768  0.6655
20190SOL    HW172629   2.207   3.841   2.478  1.6598  1.4538 -1.1497
20190SOL    HW272630   2.140   3.933   2.594 -0.6995 -2.5374  0.7395
20191SOL     OW72631   5.046   8.977   5.463  0.0649  0.1284  0.0901
20191SOL    HW172632   5.103   8.904   5.501 -0.4791 -0.6825 -0.6253
20191SOL    HW272633   5.005   8.946   5.377 -0.0669  1.3273 -0.2896
20192SOL     OW72634   0.212   8.853   8.129 -0.1802 -0.1308  0.0156
20192SOL    HW172635   0.243   8.934   8.080  1.8244 -1.4009 -0.8675
20192SOL    HW272636   0.225   8.866   8.228  1.4724  0.0655 -0.2221
20193SOL     OW72637   8.152   4.510   5.271  0.3470  0.7334  0.0403
20193SOL    HW172638   8.193   4.449   5.203 -0.6760 -0.7814  0.7519
20193SOL    HW272639   8.132   4.598   5.228 -0.7736 -0.3648 -1.7967
20194SOL     OW72640   2.238   8.581   7.204  0.1803 -0.5536  0.8032
20194SOL    HW172641   2.298   8.511   7.244  0.9616  0.5256  1.5490
20194SOL    HW272642   2.202   8.548   7.117  0.8496 -1.7290  0.9545
20195SOL     OW72643   1.056   7.211   6.165  0.1824 -0.3587 -0.6393
20195SOL    HW172644   1.082   7.307   6.165  0.1682 -0.3051  2.1946
20195SOL    HW272645   0.971   7.199   6.114 -0.1811  1.2280 -0.4159
20196SOL     OW72646   8.210   6.671   8.222 -0.1427  0.9285 -0.6902
20196SOL    HW172647   8.259   6.754   8.198  2.3825 -0.6290 -1.1063
20196SOL    HW272648   8.246   6.594   8.169 -2.5271 -0.4329 -0.4317
20197SOL     OW72649   3.339   9.341   5.019 -0.2916 -0.6575  0.2654
20197SOL    HW172650   3.426   9.303   5.050 -1.0712 -2.4349  0.3019
20197SOL    HW272651   3.267   9.317   5.084 -0.6897  1.4982  0.6708
20198SOL     OW72652   6.432   6.743   5.206 -0.2700 -0.1200 -0.1501
20198SOL    HW172653   6.370   6.799   5.262 -0.9964 -0.9317 -0.1362
20198SOL    HW272654   6.524   6.748   5.244 -0.6491 -0.2121  0.7967
20199SOL     OW72655   5.065   8.735   8.129 -0.1559  0.2274  0.2677
20199SOL    HW172656   5.077   8.683   8.044  1.7796 -0.1781  0.7723
20199SOL    HW272657   5.003   8.685   8.189 -1.6189  0.5648 -0.9419
20200SOL     OW72658   0.458   0.659   8.209 -0.2153 -0.3258 -0.1552
20200SOL    HW172659   0.514   0.584   8.174 -1.5395 -0.9304 -1.0423
20200SOL    HW272660   0.516   0.728   8.252  0.8379 -3.1213  3.0999
20201SOL     OW72661   9.545   8.386   0.645  0.3567  0.9808  0.1415
20201SOL    HW172662   9.629   8.337   0.624  1.7447  3.1832  0.4690
20201SOL    HW272663   9.507   8.352   0.731 -0.4369 -1.6860 -1.1929
20202SOL     OW72664   5.100   7.405   3.821 -0.2474 -0.4364 -0.5764
20202SOL    HW172665   5.172   7.376   3.758 -1.1802 -0.1660 -1.7840
20202SOL    HW272666   5.086   7.503   3.813 -0.4081 -0.4092  0.0125
20203SOL     OW72667   3.892   7.379   3.218  0.4002  0.2891  0.2724
20203SOL    HW172668   3.895   7.410   3.123 -1.0573  1.0974  0.4816
20203SOL    HW272669   3.804   7.335   3.236  1.1536 -1.0014  0.9121
20204SOL     OW72670   9.134   6.565   2.589 -0.2950  0.4733 -0.0982
20204SOL    HW172671   9.145   6.548   2.687  0.4595  0.9919 -0.0866
20204SOL    HW272672   9.049   6.524   2.558 -0.6709  0.5188  0.8336
20205SOL     OW72673   7.497   0.252   6.377  0.1224 -0.4664 -0.2474
20205SOL    HW172674   7.425   0.321   6.374  0.6506  0.1165  0.1975
20205SOL    HW272675   7.551   0.256   6.293  1.7646  1.4512  0.8355
20206SOL     OW72676   0.710   3.189   7.422  0.1496  0.0952 -0.1680
20206SOL    HW172677   0.724   3.129   7.343  0.4114  0.4719 -0.4113
20206SOL    HW272678   0.682   3.134   7.501  1.3560 -0.4793 -0.1172
20207SOL     OW72679   7.055   9.992   6.747 -0.4135 -0.2544  0.1517
20207SOL    HW172680   7.096  10.083   6.748 -0.1404 -0.3729 -0.1232
20207SOL    HW272681   6.959   9.999   6.722 -0.4410 -0.0244  0.3186
20208SOL     OW72682   8.629   6.257   6.885 -0.1583 -0.4098  0.0717
20208SOL    HW172683   8.679   6.170   6.872 -2.4560 -1.7290 -0.1420
20208SOL    HW272684   8.533   6.244   6.862 -0.5602  2.2093  0.1318
20209SOL     OW72685   9.306   6.968   7.866  0.0487 -0.0013 -0.1132
20209SOL    HW172686   9.405   6.960   7.863 -0.0291 -0.7864 -0.5240
20209SOL    HW272687   9.280   7.065   7.860  0.7579  0.1488 -0.7709
20210SOL     OW72688   6.868   7.551   3.370 -0.1337  0.1636  0.1056
20210SOL    HW172689   6.857   7.458   3.404 -0.5702  0.6603  1.3716
20210SOL    HW272690   6.787   7.605   3.393 -0.1587  0.6868 -1.1882
20211SOL     OW72691   6.378   8.902   5.017 -0.3921 -0.2063  0.1315
20211SOL    HW172692   6.404   8.825   4.958  0.9538  0.9028 -0.7746
20211SOL    HW272693   6.279   8.904   5.028 -0.4764 -1.8036 -0.1927
20212SOL     OW72694   2.092   7.735   9.058 -0.1981 -0.0996 -0.2108
20212SOL    HW172695   2.033   7.658   9.084  0.0475 -0.7842 -1.6415
20212SOL    HW272696   2.078   7.810   9.122  0.3508 -1.7054  1.8778
20213SOL     OW72697   4.212   8.641   4.495  0.0934 -0.7762  0.3514
20213SOL    HW172698   4.222   8.737   4.467 -1.2305 -0.4365  0.9686
20213SOL    HW272699   4.178   8.588   4.417  0.4177 -0.6562  0.1278
20214SOL     OW72700   6.516   5.265   5.822  1.2665  0.0308  0.5674
20214SOL    HW172701   6.499   5.167   5.817  1.7203 -0.0833  1.2114
20214SOL    HW272702   6.600   5.282   5.874  0.4358  0.8227  1.6794
20215SOL     OW72703   6.992   2.226   8.260  0.4486 -0.1717  0.7792
20215SOL    HW172704   6.980   2.151   8.325  1.3110 -1.0661 -0.0844
20215SOL    HW272705   6.902   2.263   8.235 -0.0188 -1.3064  0.7636
20216SOL     OW72706   6.630   3.603   2.732  0.1885 -0.3109  0.1926
20216SOL    HW172707   6.565   3.602   2.656 -0.8966  1.8523  1.0498
20216SOL    HW272708   6.721   3.580   2.698 -0.7448 -2.0351 -1.2674
20217SOL     OW72709   9.099   9.196   4.550  0.2123 -0.4388  0.1743
20217SOL    HW172710   9.179   9.161   4.600 -0.0580 -1.7368 -0.2695
20217SOL    HW272711   9.019   9.141   4.575 -0.4303  0.5079  0.2019
20218SOL     OW72712   5.639   0.537   5.661 -0.0756 -0.1571  0.2042
20218SOL    HW172713   5.716   0.579   5.612 -1.8043  0.7827 -1.7675
20218SOL    HW272714   5.560   0.532   5.601 -1.6138 -1.0294  2.2434
20219SOL     OW72715   8.839   4.978   6.892  0.6265 -0.0978 -0.8883
20219SOL    HW172716   8.915   4.935   6.941  1.9677  0.4154 -2.4812
20219SOL    HW272717   8.828   4.935   6.802 -0.5139  0.3067 -0.9517
20220SOL     OW72718   5.285   6.671   9.192  0.1792 -0.0050 -0.4819
20220SOL    HW172719   5.358   6.661   9.125  1.6943 -0.3894  1.1962
20220SOL    HW272720   5.305   6.749   9.252 -2.0289  1.4153 -1.5429
20221SOL     OW72721   2.040   3.913   6.869 -0.5217 -0.5453  0.2861
20221SOL    HW172722   2.092   3.843   6.820 -0.4511  0.2748 -0.8002
20221SOL    HW272723   2.101   3.962   6.931 -0.3255 -0.5893  0.1249
20222SOL     OW72724   9.079   8.156   2.357  0.4373 -0.1077 -0.0862
20222SOL    HW172725   9.108   8.239   2.310  1.0989 -0.8543 -1.0191
20222SOL    HW272726   9.160   8.108   2.391  0.0958 -0.6943 -0.1040
20223SOL     OW72727   9.814   5.990   4.346  0.2075  0.2333  0.1969
20223SOL    HW172728   9.903   5.992   4.392  0.2305  0.4476  0.1391
20223SOL    HW272729   9.824   5.950   4.255  0.1800 -0.0963  0.3385
20224SOL     OW72730   6.484   6.939   0.727 -0.1033 -0.0559  0.4408
20224SOL    HW172731   6.412   6.957   0.659  0.1527  0.3679  0.2830
20224SOL    HW272732   6.494   6.840   0.739  1.2491 -0.1902 -1.6276
20225SOL     OW72733   8.549   8.097   3.312 -0.0057 -0.3623  0.4714
20225SOL    HW172734   8.584   8.062   3.225  1.2166  0.3344  0.6730
20225SOL    HW272735   8.469   8.044   3.339 -0.1813 -0.8234 -0.8948
20226SOL     OW72736   6.492   6.541   6.894  0.8111  0.3233  0.4724
20226SOL    HW172737   6.507   6.460   6.838 -0.4426  1.3669 -1.4306
20226SOL    HW272738   6.526   6.622   6.846 -0.7045  1.3063  0.9922
20227SOL     OW72739   6.713   9.432   7.963  0.1113  0.0648 -0.0768
20227SOL    HW172740   6.775   9.432   7.885 -0.0390 -0.6372 -0.2027
20227SOL    HW272741   6.655   9.514   7.960  0.6246  0.4209 -0.2764
20228SOL     OW72742   4.768   6.007   5.104  0.0138  0.4403 -0.0325
20228SOL    HW172743   4.782   5.985   5.201  1.4769 -0.7246 -0.4855
20228SOL    HW272744   4.694   5.951   5.067  0.2738 -0.0077  0.1182
20229SOL     OW72745   7.408   8.752   4.173  0.3215  0.1278 -0.3211
20229SOL    HW172746   7.456   8.669   4.202 -1.0481 -0.5390  0.0867
20229SOL    HW272747   7.465   8.804   4.110  0.5800 -1.9245 -1.8025
20230SOL     OW72748   3.395   9.560   6.524 -0.0984  0.3536 -0.4162
20230SOL    HW172749   3.377   9.553   6.622 -2.9131  0.2615 -0.8762
20230SOL    HW272750   3.481   9.515   6.502  1.0772  1.2495  2.1298
20231SOL     OW72751   6.635   3.274   1.452  0.0003  0.1485  0.1060
20231SOL    HW172752   6.570   3.349   1.463  1.5562  1.6187 -0.7004
20231SOL    HW272753   6.651   3.258   1.355  1.5469  0.4009  0.3184
20232SOL     OW72754   5.964   9.108   2.947  0.0445 -0.6332  0.0574
20232SOL    HW172755   6.046   9.058   2.975  1.1805  0.4093 -1.3328
20232SOL    HW272756   5.917   9.143   3.028  0.6539 -1.7331  0.8986
20233SOL     OW72757   2.684   8.589   5.563  0.4120 -0.4503  0.4095
20233SOL    HW172758   2.702   8.676   5.518 -0.7521  0.9025  2.4592
20233SOL    HW272759   2.725   8.589   5.654 -1.4017 -1.2176  1.2451
20234SOL     OW72760   9.679   6.330   4.132  0.1419 -0.4043 -0.0956
20234SOL    HW172761   9.609   6.366   4.070 -0.5551 -2.6283 -0.6423
20234SOL    HW272762   9.641   6.253   4.183  1.0187  0.8022  2.4264
20235SOL     OW72763   5.986   0.780   8.927  0.3984 -0.1413  0.5162
20235SOL    HW172764   6.002   0.812   8.834 -2.2066 -0.0961  0.0580
20235SOL    HW272765   6.050   0.825   8.989  1.3310  0.7485 -1.0657
20236SOL     OW72766   9.233   9.174   4.168  0.4951 -0.1416 -0.1944
20236SOL    HW172767   9.162   9.222   4.220 -2.6209 -1.6915 -2.8035
20236SOL    HW272768   9.230   9.077   4.190  0.3051 -0.5435 -1.9047
20237SOL     OW72769   0.999   1.283   5.484 -0.3527 -0.4018  0.3774
20237SOL    HW172770   0.911   1.301   5.440  0.4354  0.5961 -0.8207
20237SOL    HW272771   1.049   1.369   5.497 -0.8695 -0.5460  3.9519
20238SOL     OW72772   7.326   0.976   2.265 -0.1093 -0.3071 -0.1545
20238SOL    HW172773   7.396   1.048   2.257 -2.3765  2.0776  0.5314
20238SOL    HW272774   7.360   0.903   2.324  1.7672  0.8822  0.2816
20239SOL     OW72775   7.711   4.719   3.635 -0.3347  0.2068  0.2279
20239SOL    HW172776   7.629   4.663   3.622  0.5095 -0.7914 -0.9353
20239SOL    HW272777   7.768   4.715   3.553  2.3230 -1.5674  2.0360
20240SOL     OW72778   6.876   1.433   2.529  0.0939  0.1380  0.1460
20240SOL    HW172779   6.865   1.511   2.592 -0.5862  2.2950 -2.5451
20240SOL    HW272780   6.969   1.432   2.493 -0.3809  0.7082 -1.1002
20241SOL     OW72781   6.014   7.778   0.822 -0.4769 -0.5134 -0.7366
20241SOL    HW172782   5.970   7.842   0.759 -0.5761  0.3484  0.2037
20241SOL    HW272783   5.945   7.720   0.865 -0.6996  0.7337  0.6210
20242SOL     OW72784   5.617   7.832   8.098  0.2387  0.4568  0.2207
20242SOL    HW172785   5.533   7.879   8.069 -2.3154 -3.3006  1.1168
20242SOL    HW272786   5.679   7.824   8.020 -0.8336  2.0877 -0.8270
20243SOL     OW72787   2.247   3.918   5.341 -0.0309  0.2423  0.0219
20243SOL    HW172788   2.219   3.838   5.395 -1.9142  0.6250 -0.3598
20243SOL    HW272789   2.270   3.994   5.402  1.9815 -0.6239  0.3947
20244SOL     OW72790   5.712   5.289   6.226 -0.9189  0.1690  0.0193
20244SOL    HW172791   5.673   5.210   6.273 -0.6252  0.3959  0.6403
20244SOL    HW272792   5.787   5.259   6.168 -2.9451 -0.5053 -2.3547
20245SOL     OW72793   2.844   6.458   2.799  0.6809 -0.1695  0.3827
20245SOL    HW172794   2.883   6.440   2.709  1.0348 -2.8510  1.0415
20245SOL    HW272795   2.777   6.388   2.821  1.6563 -0.3845  2.8207
20246SOL     OW72796   7.446   8.552   3.437  0.0759 -0.0237 -0.3572
20246SOL    HW172797   7.529   8.599   3.466 -0.1540  0.7484 -0.9105
20246SOL    HW272798   7.445   8.546   3.337  1.8539 -4.4663 -0.1954
20247SOL     OW72799   7.135   7.176   4.037 -1.0660 -0.2308  0.4791
20247SOL    HW172800   7.206   7.229   4.083 -0.8335  0.9703 -1.2195
20247SOL    HW272801   7.144   7.079   4.062  0.3847  0.0936  1.2563
20248SOL     OW72802   3.692   0.477   9.674 -0.5262  0.2011  0.3384
20248SOL    HW172803   3.751   0.534   9.616 -0.4725 -0.3424 -0.1493
20248SOL    HW272804   3.667   0.394   9.624  2.0859 -1.7703  2.2042
20249SOL     OW72805   7.817   0.249   3.179  0.8848 -0.1021  0.3270
20249SOL    HW172806   7.844   0.175   3.241  1.4562 -0.4033 -0.2759
20249SOL    HW272807   7.737   0.296   3.216  1.3899 -0.1045  1.4264
20250SOL     OW72808   7.769   6.603   6.078 -0.2776  0.3042  0.2749
20250SOL    HW172809   7.747   6.698   6.056  0.3074  0.2005 -0.8063
20250SOL    HW272810   7.853   6.600   6.133 -0.2169  0.4010  0.1878
20251SOL     OW72811   7.864   3.692   4.343  0.3099 -0.2177 -0.0666
20251SOL    HW172812   7.827   3.750   4.271  0.6736 -1.6016 -1.3848
20251SOL    HW272813   7.802   3.692   4.421  0.4696  2.2061  0.0996
20252SOL     OW72814   2.635   0.130   1.310 -0.3579 -0.3131  0.2856
20252SOL    HW172815   2.682   0.128   1.222 -4.0017  0.9730 -1.8191
20252SOL    HW272816   2.665   0.209   1.362  0.6022 -0.1269 -0.5240
20253SOL     OW72817   1.917   5.619   5.304 -0.2354  0.5587 -0.0718
20253SOL    HW172818   1.924   5.583   5.211 -2.5344 -0.0544 -0.0230
20253SOL    HW272819   2.001   5.597   5.354 -0.5317 -2.4985 -0.8247
20254SOL     OW72820   7.384   8.660   3.048  0.7327 -0.1092  0.1878
20254SOL    HW172821   7.380   8.740   3.107  2.7842 -1.0179  1.6309
20254SOL    HW272822   7.364   8.578   3.102 -2.6493 -0.4835 -1.5448
20255SOL     OW72823   2.230   1.598   0.443  0.2123  0.2851 -0.4591
20255SOL    HW172824   2.130   1.588   0.437  0.3612 -1.9194  0.3535
20255SOL    HW272825   2.255   1.692   0.418 -2.0899  0.9889 -0.2955
20256SOL     OW72826   5.781   8.204   9.437 -0.0593  0.0466 -0.4077
20256SOL    HW172827   5.820   8.294   9.459 -0.0155  0.2814 -1.4543
20256SOL    HW272828   5.836   8.133   9.482  0.6061  0.4742 -0.5405
20257SOL     OW72829   4.426   6.703   3.911 -0.1186  0.0126  0.2753
20257SOL    HW172830   4.467   6.785   3.952  1.9005 -1.3126  0.9539
20257SOL    HW272831   4.405   6.636   3.982  0.1839 -0.9010 -0.4856
20258SOL     OW72832   7.954   5.263   4.950  0.2127 -0.0065  0.2109
20258SOL    HW172833   7.970   5.197   4.877 -1.5011 -0.1293 -0.0885
20258SOL    HW272834   7.911   5.217   5.027  0.3452  0.4773  0.5764
20259SOL     OW72835   8.955   1.155   8.972 -0.3894  0.7419  0.3317
20259SOL    HW172836   8.861   1.122   8.962  0.6525 -2.3781  0.3530
20259SOL    HW272837   9.011   1.084   9.014  2.5323  1.5842 -1.9610
20260SOL     OW72838   4.535   0.664   2.748  0.3541  0.1660 -0.5381
20260SOL    HW172839   4.524   0.711   2.835  0.3923  1.9887 -1.4810
20260SOL    HW272840   4.500   0.722   2.674  0.2157 -1.3908 -1.7246
20261SOL     OW72841   4.233   8.404   7.994 -0.0196  0.0830  0.2559
20261SOL    HW172842   4.151   8.461   7.994  0.0293  0.1481  1.1687
20261SOL    HW272843   4.220   8.327   7.930  0.1268  1.3984 -1.3951
20262SOL     OW72844   5.456   4.799   8.660 -0.0270 -0.4166  0.0270
20262SOL    HW172845   5.524   4.752   8.603 -0.5791 -0.2856 -0.7449
20262SOL    HW272846   5.435   4.743   8.740  0.0035 -1.0613 -0.4168
20263SOL     OW72847   6.149   1.636   3.741 -0.6490 -0.3292  0.6786
20263SOL    HW172848   6.210   1.699   3.789  0.9085 -0.3060 -1.2316
20263SOL    HW272849   6.117   1.679   3.656 -0.7956 -1.5141  0.1181
20264SOL     OW72850   9.339   7.510   7.095  0.0286 -0.0025  0.7953
20264SOL    HW172851   9.244   7.540   7.108  0.1563  0.1943  1.2967
20264SOL    HW272852   9.349   7.469   7.004 -0.4181  0.4354  0.5467
20265SOL     OW72853   2.046   5.556   7.936 -0.4427 -0.0284  0.0198
20265SOL    HW172854   2.029   5.483   7.871  0.8682  2.1440 -2.8743
20265SOL    HW272855   2.135   5.543   7.979 -0.6575 -0.6638  0.2725
20266SOL     OW72856   5.458   7.490   6.898  0.0275 -0.6143  0.0070
20266SOL    HW172857   5.396   7.489   6.819 -0.6956  1.0668  0.5222
20266SOL    HW272858   5.508   7.577   6.899  0.1199 -0.6809  1.3361
20267SOL     OW72859   6.882   9.011   2.593 -0.1446  0.2963  0.3140
20267SOL    HW172860   6.847   9.091   2.642 -0.4395  1.2950 -1.5112
20267SOL    HW272861   6.953   8.967   2.648 -0.9039  1.0395  1.9138
20268SOL     OW72862   9.748   4.653   2.102 -0.3677 -0.2061  0.1433
20268SOL    HW172863   9.819   4.719   2.127  2.3613 -2.4110 -1.4178
20268SOL    HW272864   9.752   4.574   2.164  2.2558 -2.7979 -3.0732
20269SOL     OW72865   4.150   3.233   5.809  0.1418 -0.1672  0.3657
20269SOL    HW172866   4.144   3.133   5.803 -0.0541 -0.1671  0.5626
20269SOL    HW272867   4.091   3.274   5.740 -0.0121 -0.1848  0.4875
20270SOL     OW72868   5.627   7.567   1.807  0.3974 -0.0441  0.0368
20270SOL    HW172869   5.556   7.509   1.847 -0.0485  1.2719  1.1847
20270SOL    HW272870   5.709   7.565   1.865  0.7865 -0.4302 -0.5249
20271SOL     OW72871   0.865   8.244   1.546 -0.2829 -0.3105  0.0424
20271SOL    HW172872   0.928   8.221   1.620  1.0729 -0.7121 -1.2182
20271SOL    HW272873   0.909   8.310   1.485 -1.1154 -0.5396 -0.8097
20272SOL     OW72874   4.282   0.703   1.969  0.3097  0.8017 -0.3535
20272SOL    HW172875   4.271   0.607   1.996  1.2136  0.6286 -0.5676
20272SOL    HW272876   4.193   0.748   1.969 -0.1156 -0.0227 -0.1884
20273SOL     OW72877   3.063   0.752   6.120 -0.3326  0.1367  0.3666
20273SOL    HW172878   2.980   0.804   6.141 -0.2490 -0.1458  1.4341
20273SOL    HW272879   3.041   0.680   6.054 -0.9674  0.0022  0.7132
20274SOL     OW72880   5.272   4.629   6.601 -0.3044 -0.2967 -0.3499
20274SOL    HW172881   5.295   4.588   6.689 -0.8338 -3.3862 -1.5956
20274SOL    HW272882   5.186   4.592   6.567 -0.2981  1.1082 -2.0344
20275SOL     OW72883   3.398   9.686   4.098 -0.8178  0.0801 -0.0102
20275SOL    HW172884   3.402   9.628   4.016  0.8016 -0.1229  0.2000
20275SOL    HW272885   3.390   9.782   4.071  0.3910  0.0715 -0.4331
20276SOL     OW72886   4.552   4.704   5.002  0.1172  0.0434  0.4638
20276SOL    HW172887   4.472   4.663   5.046  0.3418  0.8352  1.6367
20276SOL    HW272888   4.552   4.680   4.905 -2.0830  0.8749  0.2253
20277SOL     OW72889   8.167   7.997   5.487  0.2253  0.0749 -0.1500
20277SOL    HW172890   8.129   7.905   5.496  0.3067 -0.0384 -0.9873
20277SOL    HW272891   8.137   8.038   5.401 -0.9288  1.3602  0.8379
20278SOL     OW72892   6.103   5.692   9.532  0.0878 -0.5578 -0.0967
20278SOL    HW172893   6.195   5.683   9.571 -0.1285  1.0985  0.8132
20278SOL    HW272894   6.107   5.743   9.446  0.0874 -1.0487 -0.3940
20279SOL     OW72895   5.509   1.188   0.386 -0.6132  0.3247  0.3217
20279SOL    HW172896   5.472   1.146   0.469 -0.7101 -1.0564 -0.4050
20279SOL    HW272897   5.583   1.250   0.410 -1.7239  1.1737  1.5757
20280SOL     OW72898   6.579   5.521   5.374 -0.2987  0.0015  0.5724
20280SOL    HW172899   6.571   5.560   5.282  0.0235  1.0904  0.9980
20280SOL    HW272900   6.488   5.508   5.413 -0.4197  0.0361  0.3022
20281SOL     OW72901   1.877   5.888   2.682 -0.0158  0.2142  0.5204
20281SOL    HW172902   1.829   5.806   2.715  1.9756 -0.9488  0.6596
20281SOL    HW272903   1.902   5.945   2.760  0.4912 -0.1337  0.6140
20282SOL     OW72904   1.238   9.369   5.954  0.2418  0.1921  0.4636
20282SOL    HW172905   1.145   9.405   5.947  0.4855  0.7036 -0.1168
20282SOL    HW272906   1.254   9.302   5.882  0.5841  0.6696  0.1008
20283SOL     OW72907   1.428   8.925   3.831  0.0620 -0.2841 -0.5026
20283SOL    HW172908   1.472   9.004   3.788 -0.3274  0.6968  0.8652
20283SOL    HW272909   1.329   8.940   3.833  0.0723 -0.3639  0.6406
20284SOL     OW72910   9.943   8.421   7.373 -0.4648 -0.4010 -0.0507
20284SOL    HW172911   9.940   8.372   7.460 -1.0859 -0.6660 -0.2151
20284SOL    HW272912   9.999   8.370   7.308  2.6832  1.3868  1.1330
20285SOL     OW72913   6.440   7.157   7.589  0.0455  0.0701 -0.4780
20285SOL    HW172914   6.421   7.146   7.687 -2.2112 -1.6483 -1.0672
20285SOL    HW272915   6.521   7.104   7.564 -0.2629 -0.7201  0.1849
20286SOL     OW72916   9.028   5.708   2.651 -0.4379 -0.1631 -0.3731
20286SOL    HW172917   8.962   5.742   2.717 -0.5658  1.0906 -1.1302
20286SOL    HW272918   9.013   5.610   2.635 -0.7087 -0.3595  1.0685
20287SOL     OW72919   1.986   7.986   5.935 -0.2951  0.4491 -0.1222
20287SOL    HW172920   2.001   7.895   5.896 -1.4411  0.5486 -0.8248
20287SOL    HW272921   2.035   8.054   5.880 -1.8662  0.5834 -1.4237
20288SOL     OW72922   8.408   0.140   6.900 -0.1456 -0.0742  0.1512
20288SOL    HW172923   8.462   0.135   6.984 -0.0857  0.7129  0.1609
20288SOL    HW272924   8.366   0.231   6.892 -1.3527 -0.6209  0.0711
20289SOL     OW72925   5.987   4.979   9.053 -0.0287 -0.6452 -0.1556
20289SOL    HW172926   6.075   5.001   9.011  0.5883  1.1798  1.9713
20289SOL    HW272927   6.002   4.926   9.136 -1.0230 -1.5803 -0.5708
20290SOL     OW72928   9.810   8.475   2.983 -0.6363  0.4143  0.1127
20290SOL    HW172929   9.762   8.525   2.912 -0.6165  0.2796  0.0036
20290SOL    HW272930   9.866   8.403   2.942 -0.7740  0.2117  0.2764
20291SOL     OW72931   7.598   9.576   3.751  0.0398  0.2551 -0.1688
20291SOL    HW172932   7.683   9.559   3.701 -0.9586 -0.8263 -1.5076
20291SOL    HW272933   7.618   9.581   3.849  1.4276 -1.6011 -0.3297
20292SOL     OW72934   1.278   4.346   6.682 -0.5819  0.2839 -0.2286
20292SOL    HW172935   1.232   4.310   6.764  0.1554 -0.8387 -0.2968
20292SOL    HW272936   1.322   4.433   6.704  0.4198 -0.4790  0.8335
20293SOL     OW72937   4.983   6.627   3.265 -0.4538  0.4654  0.0432
20293SOL    HW172938   5.081   6.609   3.273 -0.5159  0.8390  1.9493
20293SOL    HW272939   4.955   6.622   3.169  1.1562 -1.0509 -0.3612
20294SOL     OW72940   2.043   8.843   5.834  0.6209 -0.2825  0.4991
20294SOL    HW172941   2.093   8.861   5.918 -1.3784 -0.6828  1.7979
20294SOL    HW272942   1.950   8.813   5.855 -0.0313 -0.0601 -1.8525
20295SOL     OW72943   8.683   6.533   8.658  0.2700  0.2999 -0.2934
20295SOL    HW172944   8.592   6.558   8.691  0.1408  0.2299 -0.5964
20295SOL    HW272945   8.700   6.578   8.571  0.3262 -0.0942 -0.4853
20296SOL     OW72946   6.850   8.560   0.779  0.5648  0.6754 -0.4398
20296SOL    HW172947   6.900   8.473   0.770 -0.5114  0.0948 -0.9600
20296SOL    HW272948   6.885   8.611   0.857  1.8448  0.1922 -0.6890
20297SOL     OW72949   5.846   0.868   1.594 -0.7307 -0.3000 -0.0910
20297SOL    HW172950   5.825   0.816   1.512 -1.2571  0.1472 -0.2378
20297SOL    HW272951   5.902   0.812   1.655  1.3689  0.0585 -1.6167
20298SOL     OW72952   6.003   9.282   4.677  0.0415 -0.0662 -0.6222
20298SOL    HW172953   6.048   9.372   4.680  1.8001 -0.9556  0.9681
20298SOL    HW272954   6.007   9.245   4.584 -0.7083  1.4817 -1.2936
20299SOL     OW72955   2.247   0.449   4.425  0.0270  0.3945 -0.0464
20299SOL    HW172956   2.285   0.383   4.360  0.2311 -0.3448  0.8068
20299SOL    HW272957   2.170   0.497   4.383 -2.3143 -2.7612  0.3860
20300SOL     OW72958   2.667   1.846   1.216  0.0953  0.3799 -0.6963
20300SOL    HW172959   2.599   1.808   1.154  1.8233 -0.4404 -2.1311
20300SOL    HW272960   2.687   1.779   1.288  1.4147 -0.5078 -1.8753
20301SOL     OW72961   5.431   6.269   7.097  0.5527  0.7315 -0.2049
20301SOL    HW172962   5.336   6.242   7.081  0.5679  0.7184 -0.2756
20301SOL    HW272963   5.447   6.360   7.059  1.1377 -0.1412 -2.1712
20302SOL     OW72964   7.160   2.043   4.787  0.2008  0.2792 -0.5720
20302SOL    HW172965   7.220   1.978   4.833 -0.2266  0.4237  0.1995
20302SOL    HW272966   7.067   2.008   4.787 -0.3511  1.6720  1.4008
20303SOL     OW72967   1.595   0.850   1.896 -0.2489 -0.1461 -0.5120
20303SOL    HW172968   1.638   0.761   1.883 -0.6046 -0.2410 -1.0635
20303SOL    HW272969   1.547   0.877   1.812  1.0440  1.2145 -0.8280
20304SOL     OW72970   8.308   7.115   6.168 -0.3120 -0.1725  0.7143
20304SOL    HW172971   8.262   7.062   6.239 -1.7041 -0.9223 -0.7046
20304SOL    HW272972   8.365   7.054   6.112  0.5734  0.3687  1.0120
20305SOL     OW72973   3.034   8.028   2.202  0.5452  0.4423  0.3559
20305SOL    HW172974   3.044   7.948   2.142  1.4040 -0.4863  1.7183
20305SOL    HW272975   3.125   8.058   2.233  0.3160  2.4785 -0.7959
20306SOL     OW72976   7.687   1.697   6.012 -0.3262  0.2130  0.3723
20306SOL    HW172977   7.723   1.727   6.100  0.1217 -3.0901  1.3948
20306SOL    HW272978   7.759   1.700   5.943 -0.2704  1.3202  0.4671
20307SOL     OW72979   8.285   0.113   4.927 -0.0102 -0.6198  0.8312
20307SOL    HW172980   8.374   0.068   4.932 -0.3949 -1.4598  0.3022
20307SOL    HW272981   8.270   0.166   5.010  1.0464 -0.3436  0.8550
20308SOL     OW72982   8.407   1.124   3.982 -0.1057  0.0448  0.8627
20308SOL    HW172983   8.392   1.030   4.012  1.9041 -1.1381 -1.6866
20308SOL    HW272984   8.499   1.154   4.008 -0.7725  1.3835  1.7698
20309SOL     OW72985   8.167   0.385   6.303  0.2759 -0.1112 -0.0489
20309SOL    HW172986   8.128   0.476   6.317  2.5362  0.9304 -0.4034
20309SOL    HW272987   8.131   0.323   6.373 -2.8065  0.5306 -0.9907
20310SOL     OW72988   7.500   7.431   5.738  0.2384 -0.2074 -0.1784
20310SOL    HW172989   7.538   7.489   5.810 -0.0520 -1.0599  0.6664
20310SOL    HW272990   7.561   7.432   5.659 -0.0441  1.6961 -0.3969
20311SOL     OW72991   9.094   8.532   3.232  0.3238  0.2382  0.4181
20311SOL    HW172992   9.109   8.456   3.295 -0.8418  1.1360  1.7980
20311SOL    HW272993   9.087   8.618   3.282  1.3820  1.2456 -1.1136
20312SOL     OW72994   2.424   0.347   8.283  0.0563 -0.2394  0.1625
20312SOL    HW172995   2.333   0.356   8.324  1.0592 -1.7177  2.8470
20312SOL    HW272996   2.482   0.423   8.314  0.8984 -1.5116  1.7806
20313SOL     OW72997   4.885   8.898   5.251  0.5825 -0.1654 -0.1346
20313SOL    HW172998   4.801   8.849   5.275 -0.5515  1.5042 -0.6644
20313SOL    HW272999   4.887   8.915   5.153  1.9731 -0.9626 -0.2590
20314SOL     OW73000   7.004   8.581   8.951  0.1388  0.5479 -0.7081
20314SOL    HW173001   6.958   8.496   8.925  0.9172  0.1340 -0.7242
20314SOL    HW273002   7.099   8.579   8.922  0.3069  1.2072 -0.2315
20315SOL     OW73003   3.503   0.407   4.828  0.3586  0.1091 -0.3455
20315SOL    HW173004   3.479   0.471   4.902  1.4111 -0.8538  0.8487
20315SOL    HW273005   3.479   0.314   4.856  0.2076 -0.1947 -1.4764
20316SOL     OW73006   8.463   6.336   8.687  0.0826  0.0864  0.0540
20316SOL    HW173007   8.425   6.424   8.660  0.1205 -0.0124 -0.3287
20316SOL    HW273008   8.539   6.312   8.626 -0.2783 -0.4622 -0.1901
20317SOL     OW73009   4.249   6.561   9.358 -0.1724 -0.0414  0.0142
20317SOL    HW173010   4.342   6.542   9.389  0.5696  0.9478 -1.5242
20317SOL    HW273011   4.191   6.482   9.378  1.2417 -1.1186  0.0031
20318SOL     OW73012   0.835   6.376   0.090 -0.4054 -0.3285 -0.4055
20318SOL    HW173013   0.809   6.417   0.177 -1.5684 -0.5466 -0.6464
20318SOL    HW273014   0.758   6.327   0.051 -0.1407  0.4289 -1.9402
20319SOL     OW73015   8.209   4.374   3.235  0.6635  0.3613  0.1055
20319SOL    HW173016   8.115   4.402   3.212 -0.3248 -2.0427  1.0692
20319SOL    HW273017   8.273   4.442   3.199 -1.3107  0.9229 -2.5335
20320SOL     OW73018   0.499   7.656   6.563 -0.0680 -0.0227 -0.1718
20320SOL    HW173019   0.462   7.746   6.586  0.0033  0.4268 -1.7346
20320SOL    HW273020   0.465   7.628   6.473 -0.9313 -2.0341  0.7424
20321SOL     OW73021   4.187   7.418   1.683 -0.4543  0.3358  0.2064
20321SOL    HW173022   4.218   7.431   1.777 -2.7102  0.6287  0.9370
20321SOL    HW273023   4.202   7.502   1.631  2.1046 -0.2678 -0.1270
20322SOL     OW73024   4.000   7.476   3.486 -0.5196  0.5493 -0.0742
20322SOL    HW173025   3.998   7.398   3.548  2.4122  0.4348 -0.0513
20322SOL    HW273026   4.005   7.443   3.391  1.0690  0.6787 -0.0480
20323SOL     OW73027   7.359   4.455   8.323  0.0566  0.0965 -0.6681
20323SOL    HW173028   7.283   4.519   8.341 -0.5794 -1.1140  1.0766
20323SOL    HW273029   7.437   4.479   8.380 -0.1871 -0.6722 -0.0006
20324SOL     OW73030   9.420   0.065   0.838 -0.0364  0.0284  0.6981
20324SOL    HW173031   9.468   0.057   0.751 -0.6754 -1.8223  0.4961
20324SOL    HW273032   9.322   0.075   0.822 -0.5904 -3.9011  1.2221
20325SOL     OW73033   4.768   4.912   1.981 -0.3601 -0.3196 -0.4977
20325SOL    HW173034   4.804   4.899   1.889 -2.2847 -0.6242 -1.2310
20325SOL    HW273035   4.829   4.972   2.033  0.5925  0.0746 -2.0509
20326SOL     OW73036   5.108   9.768   3.024 -0.6467 -0.3284 -0.1526
20326SOL    HW173037   5.048   9.833   2.977  0.8779 -0.3702 -2.2238
20326SOL    HW273038   5.199   9.807   3.033 -0.5225 -0.9461  1.4331
20327SOL     OW73039   7.555   0.162   5.727 -0.2012  0.5502 -0.0299
20327SOL    HW173040   7.645   0.120   5.734  1.3479  3.8924  0.9440
20327SOL    HW273041   7.557   0.235   5.658 -1.6204  1.9015  1.2963
20328SOL     OW73042   7.466   8.217   4.921  0.2519 -0.2549 -0.0570
20328SOL    HW173043   7.445   8.265   5.006 -0.6130  0.1272 -0.4773
20328SOL    HW273044   7.452   8.280   4.844  1.2868 -0.5125 -0.4691
20329SOL     OW73045   5.282   2.371   1.978 -0.5449 -0.1618  0.6778
20329SOL    HW173046   5.264   2.304   2.050  0.4710 -1.2647 -0.0823
20329SOL    HW273047   5.355   2.432   2.007  0.4972 -1.1821  0.2196
20330SOL     OW73048   8.393   0.473   4.774 -0.3244 -0.8395  0.0031
20330SOL    HW173049   8.327   0.455   4.701  1.6617  2.7054 -2.8528
20330SOL    HW273050   8.463   0.402   4.774  0.7351  0.1187 -2.9742
20331SOL     OW73051   8.145   7.681   7.296 -0.1016  0.6590  0.3820
20331SOL    HW173052   8.237   7.658   7.329 -0.2898  1.2260  1.3251
20331SOL    HW273053   8.151   7.720   7.204  0.6425  1.0574  0.5982
20332SOL     OW73054   0.990   5.993   3.512 -0.1216 -0.0850  0.1156
20332SOL    HW173055   1.029   5.902   3.506 -0.5468 -0.2201 -0.6773
20332SOL    HW273056   0.922   6.006   3.439 -1.2918  0.2723  1.2438
20333SOL     OW73057   3.659   5.855   4.543  0.2072  0.3897 -0.0476
20333SOL    HW173058   3.598   5.911   4.599  1.4446  1.1650  0.5340
20333SOL    HW273059   3.727   5.811   4.601  1.2083  0.8338 -0.8712
20334SOL     OW73060   6.168   2.164   2.402  0.1837 -0.5368  0.5949
20334SOL    HW173061   6.229   2.241   2.420  0.2142 -0.4583  0.1798
20334SOL    HW273062   6.087   2.197   2.354 -0.5235 -0.5311  1.7759
20335SOL     OW73063   4.719   0.982   6.574  0.5174 -0.0545 -0.3171
20335SOL    HW173064   4.651   0.917   6.609  0.8741 -1.3663 -1.9874
20335SOL    HW273065   4.801   0.932   6.545  0.8046  1.1330 -1.6059
20336SOL     OW73066   5.123   5.643   6.896  0.1495 -0.1828 -0.4535
20336SOL    HW173067   5.066   5.685   6.966 -0.4563  0.2152 -1.1683
20336SOL    HW273068   5.151   5.552   6.926  0.2650  0.1565  0.4837
20337SOL     OW73069   7.265   9.455   6.113  0.5824 -0.2820  0.1556
20337SOL    HW173070   7.217   9.515   6.050  3.2577  0.4102 -1.3070
20337SOL    HW273071   7.351   9.497   6.141  1.5674 -2.5364  0.7068
20338SOL     OW73072   5.580   7.605   3.844  0.5595 -0.3465  0.3639
20338SOL    HW173073   5.499   7.660   3.825  0.0563 -0.9994  0.6202
20338SOL    HW273074   5.553   7.512   3.865  1.3006 -0.2651  1.6974
20339SOL     OW73075   3.852   6.561   3.241 -0.3101 -0.0148  0.0297
20339SOL    HW173076   3.885   6.610   3.322  0.1399 -0.0083 -0.1555
20339SOL    HW273077   3.864   6.619   3.160 -0.6769 -0.0541 -0.0532
20340SOL     OW73078   7.159   7.423   5.524  0.2055 -0.0171 -0.2630
20340SOL    HW173079   7.189   7.506   5.569 -3.5627  0.5026  1.4879
20340SOL    HW273080   7.149   7.440   5.425 -0.3535  1.5543  0.0502
20341SOL     OW73081   6.287   8.095   3.192  0.6200  0.2867  0.0539
20341SOL    HW173082   6.377   8.127   3.223  0.2115  2.1517 -0.6153
20341SOL    HW273083   6.286   8.092   3.092  0.2700 -0.7752  0.0822
20342SOL     OW73084   2.849   3.842   8.581  1.0597  0.1075 -0.5217
20342SOL    HW173085   2.877   3.898   8.503  1.4060  1.4398  0.5363
20342SOL    HW273086   2.904   3.867   8.661  0.6953 -1.2298  0.1477
20343SOL     OW73087   6.786   9.591   0.612  0.4307  0.2852 -0.3072
20343SOL    HW173088   6.755   9.551   0.698  1.3606 -0.5880 -0.3626
20343SOL    HW273089   6.847   9.668   0.630  3.8480 -2.3308 -0.0703
20344SOL     OW73090   8.962   6.097   2.206 -0.5317  0.0972  0.1830
20344SOL    HW173091   8.998   6.083   2.299 -2.9929  0.2954  1.2286
20344SOL    HW273092   8.980   6.190   2.176  1.0123 -0.2136  0.1072
20345SOL     OW73093   7.180   5.945   5.668  0.8036  0.1662  0.0627
20345SOL    HW173094   7.161   5.849   5.687  1.1080 -0.1188 -0.9920
20345SOL    HW273095   7.213   5.990   5.750  1.5654 -0.8713  0.3410
20346SOL     OW73096   1.013   8.789   6.044  0.3293 -0.2828 -0.1686
20346SOL    HW173097   0.953   8.836   5.979  0.4860  0.8495  0.5017
20346SOL    HW273098   0.975   8.698   6.064 -1.6768  0.7733  0.9493
20347SOL     OW73099   4.863   6.657   7.294 -0.0165 -0.2861  0.0392
20347SOL    HW173100   4.843   6.740   7.242  0.0482 -0.4353 -0.2240
20347SOL    HW273101   4.936   6.606   7.249  0.5160 -0.0693  0.6473
20348SOL     OW73102   8.831   4.312   5.182 -0.1114 -0.2056  0.2131
20348SOL    HW173103   8.829   4.235   5.118 -0.6663  0.1488 -0.1969
20348SOL    HW273104   8.772   4.291   5.260  1.0304 -0.8894  0.9061
20349SOL     OW73105   1.564   4.004   9.878  0.2722  0.4956 -0.0129
20349SOL    HW173106   1.572   4.005   9.978 -1.2946 -0.0237  0.1440
20349SOL    HW273107   1.581   3.911   9.845  3.0068  1.1345 -0.4584
20350SOL     OW73108   0.919   8.599   3.534 -0.4709  0.7395  0.0940
20350SOL    HW173109   0.853   8.602   3.609  0.9106 -1.0735  1.4227
20350SOL    HW273110   0.906   8.514   3.482  0.9938  0.2325  0.5442
20351SOL     OW73111   7.010   1.674   8.909  0.1471 -0.2905 -0.0578
20351SOL    HW173112   7.015   1.666   9.009 -0.7771 -0.0332  0.0124
20351SOL    HW273113   7.084   1.621   8.868  2.2465  1.8175  0.8483
20352SOL     OW73114   6.035   8.805   3.686  0.2038 -0.6650 -0.4005
20352SOL    HW173115   5.938   8.799   3.712  0.2701 -0.6793 -0.1577
20352SOL    HW273116   6.068   8.714   3.661  0.2936 -0.7509  0.0217
20353SOL     OW73117   5.548   4.808   6.171  0.3247  0.2353 -0.2031
20353SOL    HW173118   5.529   4.766   6.260 -0.8261 -0.7447 -0.8925
20353SOL    HW273119   5.502   4.757   6.099 -1.8196  3.1247 -1.0048
20354SOL     OW73120   5.152   7.135   5.533 -0.1385  0.3226  0.4197
20354SOL    HW173121   5.231   7.168   5.483 -0.2289 -2.3411 -1.5860
20354SOL    HW273122   5.183   7.085   5.614  0.3583 -1.7706 -1.0057
20355SOL     OW73123   5.429   0.318   1.833  0.5700  0.2206 -0.8741
20355SOL    HW173124   5.390   0.230   1.859 -0.3779  1.1011  0.7992
20355SOL    HW273125   5.524   0.323   1.862 -0.0709  0.6463  1.3075
20356SOL     OW73126   9.977   8.637   4.413  0.2829  0.4636  0.3427
20356SOL    HW173127   9.978   8.696   4.494 -0.5315  0.5329  0.3110
20356SOL    HW273128   9.886   8.597   4.403 -0.2134  1.9905 -1.6125
20357SOL     OW73129   4.696   8.554   6.487  0.1488 -0.2692  0.0276
20357SOL    HW173130   4.734   8.462   6.480  0.0256 -0.2837 -0.4430
20357SOL    HW273131   4.642   8.562   6.571  0.3326 -0.5586  0.1730
20358SOL     OW73132   6.766   5.205   5.961  0.6702 -0.3182  0.2621
20358SOL    HW173133   6.708   5.214   6.041 -1.2171  1.1357 -1.2263
20358SOL    HW273134   6.754   5.115   5.921  0.8123 -0.6647  0.9953
20359SOL     OW73135   3.524   4.479   8.892 -0.0981  0.3103  0.6004
20359SOL    HW173136   3.482   4.399   8.935 -1.2622  0.2191 -0.6748
20359SOL    HW273137   3.606   4.505   8.943 -0.7868 -0.5106  2.1653
20360SOL     OW73138   1.542   4.817   7.071  0.4575  0.8347  0.1278
20360SOL    HW173139   1.590   4.877   7.135  0.2315  1.1600 -0.0063
20360SOL    HW273140   1.549   4.856   6.979  0.0219  0.8246  0.0933
20361SOL     OW73141   7.070   8.880   7.662 -0.3712  0.2957  0.1282
20361SOL    HW173142   7.009   8.813   7.620  1.6349 -2.2018  1.0174
20361SOL    HW273143   7.027   8.916   7.745 -1.4520  0.0675 -0.3217
20362SOL     OW73144   0.189   6.953   9.943 -0.0815  0.4179 -0.4757
20362SOL    HW173145   0.264   6.896   9.909 -1.2550 -1.1217 -0.5423
20362SOL    HW273146   0.213   6.990  10.033  0.4910 -0.5884 -0.2113
20363SOL     OW73147   7.388   7.040   2.275  0.6971  0.1200  0.2127
20363SOL    HW173148   7.412   6.947   2.249  1.2281  0.0956  0.7815
20363SOL    HW273149   7.338   7.084   2.200  0.5904 -0.5629 -0.1194
20364SOL     OW73150   9.724   9.078   7.274  0.2509 -0.2177 -0.1050
20364SOL    HW173151   9.804   9.051   7.328  0.7395  2.5837  0.6767
20364SOL    HW273152   9.668   9.142   7.326 -2.8665 -2.5367 -0.4480
20365SOL     OW73153   7.894   5.538   0.131 -0.0297  0.1017  0.1712
20365SOL    HW173154   7.977   5.516   0.182  0.3654 -2.2073 -1.3814
20365SOL    HW273155   7.847   5.453   0.104 -1.1499  1.2809 -1.7441
20366SOL     OW73156   3.003   9.056   3.993 -0.1454  0.1238 -0.0582
20366SOL    HW173157   2.972   9.050   3.898  0.6624 -0.4299 -0.2904
20366SOL    HW273158   2.939   9.112   4.046 -1.0217 -0.2314 -0.7480
20367SOL     OW73159   0.496   1.308   6.976  0.0915  0.4190  0.3537
20367SOL    HW173160   0.423   1.318   7.044 -1.0691 -0.0790 -0.8129
20367SOL    HW273161   0.577   1.269   7.020 -0.0964  1.6030  1.8082
20368SOL     OW73162   7.581   0.859   0.638 -0.2693 -0.2457 -0.0395
20368SOL    HW173163   7.500   0.843   0.580 -0.9336  0.4480  0.6833
20368SOL    HW273164   7.596   0.957   0.647  0.8473 -0.3762 -0.4159
20369SOL     OW73165   9.174   6.121   8.194  0.0985  0.8671 -0.0371
20369SOL    HW173166   9.160   6.173   8.278  0.8437  0.0430  0.6065
20369SOL    HW273167   9.235   6.172   8.133 -0.2997  1.3826 -0.0067
20370SOL     OW73168   7.828   7.876   3.042  0.5323  0.9230 -0.1997
20370SOL    HW173169   7.843   7.853   2.946  1.2424  0.5662 -0.0038
20370SOL    HW273170   7.799   7.794   3.092  0.1569  1.1083 -0.1117
20371SOL     OW73171   9.433   8.550   4.164 -0.4887  0.0769  0.5362
20371SOL    HW173172   9.496   8.540   4.087 -1.7893  0.1821 -0.5498
20371SOL    HW273173   9.433   8.646   4.193  0.0160  0.0325  0.6904
20372SOL     OW73174   2.908   1.140   4.858  0.0888  0.6424  1.2146
20372SOL    HW173175   2.938   1.065   4.800 -1.4633  0.9967 -0.1139
20372SOL    HW273176   2.858   1.104   4.937  0.2433  0.2385  1.1263
20373SOL     OW73177   7.079   8.901   6.343  0.4272  0.1987  0.4192
20373SOL    HW173178   7.065   8.805   6.319 -0.2875  0.2719  0.5477
20373SOL    HW273179   7.013   8.929   6.412  0.9663  0.6474  0.7660
20374SOL     OW73180   4.637   7.903   7.907 -0.2181  0.0022 -0.0706
20374SOL    HW173181   4.575   7.890   7.829 -0.9830  1.9530  0.1971
20374SOL    HW273182   4.678   7.994   7.902  0.4800 -0.2287  1.2926
20375SOL     OW73183   5.039   6.209   4.118  0.3312  0.2377 -0.1513
20375SOL    HW173184   5.001   6.168   4.201  1.0727 -1.6656 -0.7142
20375SOL    HW273185   5.137   6.189   4.112  0.3005  0.3979 -1.4289
20376SOL     OW73186   7.590   2.041   5.473 -0.2625 -0.2094 -0.4143
20376SOL    HW173187   7.566   2.125   5.424  0.9394  0.5842  0.3406
20376SOL    HW273188   7.582   2.057   5.571 -0.2378 -1.0508 -0.2754
20377SOL     OW73189   4.481   6.320   4.775  0.0909 -0.1529  0.3302
20377SOL    HW173190   4.483   6.228   4.737  1.7261  0.1114 -0.2420
20377SOL    HW273191   4.490   6.387   4.702  0.8873  0.4092  0.9363
20378SOL     OW73192   9.743   6.048   6.047 -0.6641  0.1958 -0.2583
20378SOL    HW173193   9.690   6.118   6.000  0.1296  0.5874 -0.5869
20378SOL    HW273194   9.840   6.061   6.026 -0.5453 -1.1929 -0.5678
20379SOL     OW73195   3.320   7.084   9.627  0.7932 -0.1548  0.1700
20379SOL    HW173196   3.354   7.138   9.704 -1.1321  0.0870  0.8860
20379SOL    HW273197   3.342   6.988   9.642  3.0538  0.2482 -0.4515
20380SOL     OW73198   5.975   4.792   4.399 -0.9722  0.1562  0.1053
20380SOL    HW173199   6.038   4.737   4.455  0.2277  2.4713  1.0968
20380SOL    HW273200   5.910   4.732   4.353 -0.4080 -2.0160  2.0489
20381SOL     OW73201   6.465   1.274   2.469 -0.0032  0.2485  0.4091
20381SOL    HW173202   6.495   1.231   2.384  0.2239  1.4091 -0.1139
20381SOL    HW273203   6.544   1.286   2.530  0.1459  0.9809  0.0761
20382SOL     OW73204   9.267   9.569   4.014 -0.2191 -0.2403 -0.3177
20382SOL    HW173205   9.338   9.624   4.057  0.1618 -1.0165  0.0605
20382SOL    HW273206   9.186   9.565   4.073 -0.7327  0.9726 -0.9270
20383SOL     OW73207   7.394   9.814   0.516 -0.6386 -0.0629  0.6827
20383SOL    HW173208   7.377   9.721   0.550 -2.8226 -0.1810 -0.6582
20383SOL    HW273209   7.440   9.809   0.427 -1.2930  0.1140  0.3301
20384SOL     OW73210   7.018   0.976   3.639 -0.7210 -0.1271 -0.4655
20384SOL    HW173211   7.004   1.006   3.733 -0.2711  0.1332 -0.4806
20384SOL    HW273212   7.113   0.994   3.612 -0.6911 -0.7400 -0.7709
20385SOL     OW73213   0.542   3.558   6.501 -0.3101  0.0947 -0.0920
20385SOL    HW173214   0.566   3.581   6.595 -0.8800  2.0756 -0.4043
20385SOL    HW273215   0.625   3.556   6.445 -0.1002  0.0907  0.2201
20386SOL     OW73216   7.902   7.111   6.227 -0.4761  0.3756  0.5416
20386SOL    HW173217   7.927   7.067   6.141 -2.6575 -0.3128  0.2228
20386SOL    HW273218   7.914   7.047   6.302 -1.0157  0.1306  0.4214
20387SOL     OW73219   1.118   8.831   8.262 -0.6119  0.3228  0.1434
20387SOL    HW173220   1.063   8.911   8.237 -0.7520  0.8395  2.0123
20387SOL    HW273221   1.212   8.844   8.232 -0.7391  0.9798  0.0222
20388SOL     OW73222   5.967   3.519   5.216 -0.0195 -0.0376 -0.0098
20388SOL    HW173223   6.038   3.590   5.219 -1.3422  1.2751  0.9182
20388SOL    HW273224   5.878   3.560   5.234 -0.6669 -2.1143  1.7681
20389SOL     OW73225   3.505   7.049   3.539 -0.0734  0.4254 -0.3406
20389SOL    HW173226   3.603   7.057   3.551 -0.4116  1.7237  1.7261
20389SOL    HW273227   3.459   7.060   3.627 -2.2587  3.5123 -1.7788
20390SOL     OW73228   7.954   7.958   9.322 -0.4220 -0.0746  0.3953
20390SOL    HW173229   7.927   8.015   9.243 -0.5327 -0.0284  0.4660
20390SOL    HW273230   7.927   8.004   9.406 -2.1066 -1.0483  0.4083
20391SOL     OW73231   9.193   6.271   4.127 -0.1224 -0.1712 -0.5683
20391SOL    HW173232   9.093   6.277   4.128 -0.0483  1.2397  0.1518
20391SOL    HW273233   9.232   6.363   4.119  1.1249 -0.7054 -0.8015
20392SOL     OW73234   6.322   9.566   5.690  0.3604  0.2052  0.1033
20392SOL    HW173235   6.297   9.551   5.595  0.3603  0.5180  0.0544
20392SOL    HW273236   6.245   9.608   5.738  0.4116  0.1816  0.2069
20393SOL     OW73237   6.983   7.754   7.687 -0.7334 -0.1287 -0.2562
20393SOL    HW173238   7.069   7.765   7.738 -2.2313 -0.1256  2.3877
20393SOL    HW273239   6.955   7.658   7.688 -1.1382 -0.0144 -0.4537
20394SOL     OW73240   7.593   6.297   8.055 -0.3844  0.0813 -0.3628
20394SOL    HW173241   7.574   6.392   8.080 -0.3358 -0.5544  2.2650
20394SOL    HW273242   7.507   6.245   8.052 -0.1193 -0.4797  1.3274
20395SOL     OW73243   7.763   6.814   8.439  0.3582 -0.3078 -0.1501
20395SOL    HW173244   7.787   6.728   8.483  0.8127 -0.8771 -1.4961
20395SOL    HW273245   7.846   6.859   8.405  0.3290  1.5470  2.1216
20396SOL     OW73246   4.258   7.120   9.646 -0.1518 -0.2131 -0.3309
20396SOL    HW173247   4.214   7.189   9.703  0.2608 -0.0710 -0.1780
20396SOL    HW273248   4.190   7.076   9.587 -0.2704  0.9439 -1.0607
20397SOL     OW73249   9.065   6.114   0.475 -0.3694  0.5005 -0.3832
20397SOL    HW173250   9.095   6.063   0.556  0.3592 -0.5525 -1.2972
20397SOL    HW273251   8.997   6.182   0.501  0.4437  0.7071  1.2384
20398SOL     OW73252   5.736   1.432   9.001  0.3199  0.3776 -0.3419
20398SOL    HW173253   5.680   1.360   9.042  0.1727  0.7099  0.0425
20398SOL    HW273254   5.683   1.482   8.933  0.3638  0.2462 -0.4726
20399SOL     OW73255   1.010   6.231   7.749 -0.8232 -0.3342 -0.4822
20399SOL    HW173256   1.065   6.149   7.760  0.2883  0.6933  1.9651
20399SOL    HW273257   1.051   6.290   7.680  0.1985 -0.3579  0.1029
20400SOL     OW73258   6.190   5.250   3.354  0.9221  0.3519 -0.9860
20400SOL    HW173259   6.158   5.228   3.446  0.4154 -1.2442 -1.5218
20400SOL    HW273260   6.170   5.346   3.334 -1.8944 -0.1005 -0.6092
20401SOL     OW73261   9.282   3.619   8.498 -0.0299  0.3340 -0.1380
20401SOL    HW173262   9.229   3.569   8.566 -1.5993  1.8218 -0.2192
20401SOL    HW273263   9.335   3.555   8.443  0.1000 -1.0019  1.5033
20402SOL     OW73264   6.876   7.878   9.193 -0.2801  0.3312  0.0245
20402SOL    HW173265   6.840   7.920   9.276  1.3800  1.5575  0.1522
20402SOL    HW273266   6.975   7.891   9.189  0.3952 -3.8431  0.2270
20403SOL     OW73267   8.014   7.669   6.688  0.2004 -0.0641  0.2842
20403SOL    HW173268   7.970   7.686   6.600 -1.2829 -1.1384  0.8055
20403SOL    HW273269   8.047   7.756   6.726 -0.3502  0.5824 -0.6900
20404SOL     OW73270   4.526   8.511   8.277  0.0895  0.0685 -0.5102
20404SOL    HW173271   4.515   8.429   8.222  0.2901 -1.7594  2.1092
20404SOL    HW273272   4.439   8.535   8.320 -0.2202  1.8528 -2.0500
20405SOL     OW73273   9.136   8.148   4.725 -0.0186 -0.4639  0.5271
20405SOL    HW173274   9.223   8.169   4.769  0.1323  0.7568 -0.3349
20405SOL    HW273275   9.061   8.169   4.787  0.2137  0.7257  0.4048
20406SOL     OW73276   5.368   9.854   7.952  0.1298  0.5003  0.7443
20406SOL    HW173277   5.269   9.842   7.954 -0.0795  2.0563  0.5340
20406SOL    HW273278   5.403   9.827   7.862  0.0535 -1.0547  1.1639
20407SOL     OW73279   9.614   6.697   1.611 -0.2137 -0.1416  0.3030
20407SOL    HW173280   9.673   6.693   1.531  0.4276 -1.0421  0.8089
20407SOL    HW273281   9.668   6.719   1.692 -0.6534 -0.4377  0.6830
20408SOL     OW73282   7.222   8.450   8.106 -0.3080  0.1695  0.9883
20408SOL    HW173283   7.128   8.461   8.137 -0.1495  0.8786  1.2348
20408SOL    HW273284   7.242   8.517   8.034 -0.1902 -0.4056  0.4890
20409SOL     OW73285   5.050   8.693   6.322 -0.0588 -0.2397  0.1499
20409SOL    HW173286   4.960   8.658   6.295 -0.2832 -0.4234  1.1243
20409SOL    HW273287   5.063   8.785   6.283 -1.4664  0.5894  1.5901
20410SOL     OW73288   4.428   8.549   4.601  0.0629  0.6721 -0.2970
20410SOL    HW173289   4.508   8.607   4.586  0.2372  0.8567  1.2610
20410SOL    HW273290   4.348   8.591   4.559  0.4892  1.2576 -0.5368
20411SOL     OW73291   5.148   6.479   8.265  0.0140  0.3429 -0.2030
20411SOL    HW173292   5.123   6.570   8.231  0.8891  0.3353 -0.8702
20411SOL    HW273293   5.192   6.488   8.354  2.1316  0.7706 -1.2644
20412SOL     OW73294   1.770   0.053   7.400  0.4829 -0.0633  0.5654
20412SOL    HW173295   1.682   0.035   7.444 -0.8100  1.6020 -1.2238
20412SOL    HW273296   1.831  -0.025   7.414 -2.5358 -2.8660 -1.2163
20413SOL     OW73297   2.507   8.739   5.830 -0.4206  0.1663 -0.4052
20413SOL    HW173298   2.477   8.772   5.919 -0.2416 -2.7905  0.8262
20413SOL    HW273299   2.437   8.680   5.790  0.9695 -1.4628 -0.5151
20414SOL     OW73300   8.317   2.990   2.133 -0.0509  0.4644 -0.4189
20414SOL    HW173301   8.279   3.082   2.143  0.9277  0.9067 -0.7242
20414SOL    HW273302   8.369   2.984   2.048  1.1208  0.0607  0.3156
20415SOL     OW73303   8.103   8.121   8.692 -0.3736 -0.2221 -0.2816
20415SOL    HW173304   8.059   8.031   8.683 -2.2324  0.3836  2.2788
20415SOL    HW273305   8.195   8.109   8.728 -0.8540 -1.0640  0.6901
20416SOL     OW73306   5.569   6.556   4.335 -0.1229 -0.2161  0.3076
20416SOL    HW173307   5.484   6.603   4.358 -0.5245 -1.1123  0.6651
20416SOL    HW273308   5.561   6.515   4.244  0.1531  0.2086  0.0850
20417SOL     OW73309   5.273   2.044   1.949 -0.9007  0.3205  0.1763
20417SOL    HW173310   5.211   2.086   1.882 -0.4035  1.0438  0.1658
20417SOL    HW273311   5.323   1.970   1.905 -0.7190  0.6660 -0.2036
20418SOL     OW73312   6.414   4.872   5.057  0.6095 -0.1023  0.0295
20418SOL    HW173313   6.450   4.933   4.987 -1.5156  1.5030  0.2592
20418SOL    HW273314   6.388   4.785   5.015  3.2544 -0.7094 -0.3880
20419SOL     OW73315   8.045   6.420   4.959  0.2644  0.3942  0.2483
20419SOL    HW173316   8.053   6.326   4.923 -0.0543  1.0107 -1.4936
20419SOL    HW273317   8.133   6.448   4.997 -0.4562 -1.7403  3.7588
20420SOL     OW73318   9.197   2.601   5.750  0.3540  0.6178 -0.1261
20420SOL    HW173319   9.260   2.600   5.828  0.3838  0.9001 -0.1477
20420SOL    HW273320   9.159   2.509   5.738  1.3950  0.2450 -0.6297
20421SOL     OW73321   9.665   1.924   8.313  0.1101 -0.5362 -0.0000
20421SOL    HW173322   9.757   1.888   8.302 -0.4895 -2.1897  0.2900
20421SOL    HW273323   9.639   1.974   8.230  0.7752 -1.1985 -0.6171
20422SOL     OW73324   5.127   7.542   9.417  0.1867  0.6970  0.2908
20422SOL    HW173325   5.061   7.512   9.348 -0.2300 -0.8658  1.3556
20422SOL    HW273326   5.175   7.624   9.383 -2.3090  1.9031 -0.4872
20423SOL     OW73327   6.040   9.102   5.679  0.0992  0.0318 -0.0784
20423SOL    HW173328   6.088   9.170   5.624  0.7286  0.5092  1.0567
20423SOL    HW273329   5.956   9.142   5.715  0.7736  0.4074  1.0911
20424SOL     OW73330   5.187   9.715   9.068  0.4303  0.3314  0.1152
20424SOL    HW173331   5.272   9.691   9.021  1.0662  2.5982  0.0588
20424SOL    HW273332   5.198   9.698   9.166  1.7045  2.5179  0.3938
20425SOL     OW73333   0.375   5.903   7.631 -0.0274  0.7078 -0.2911
20425SOL    HW173334   0.416   5.871   7.717  0.1463 -1.8821 -1.2806
20425SOL    HW273335   0.427   5.866   7.554 -1.6653  0.9208 -1.5178
20426SOL     OW73336   6.585   8.412   2.769  0.1532 -0.1576 -0.3757
20426SOL    HW173337   6.657   8.344   2.779 -1.3315 -2.0427 -2.0193
20426SOL    HW273338   6.537   8.422   2.856  0.4755 -1.1198 -0.0826
20427SOL     OW73339   4.672   6.170   1.277  0.0652 -0.1279  0.0235
20427SOL    HW173340   4.762   6.126   1.268 -0.2069 -0.7621  0.3640
20427SOL    HW273341   4.685   6.269   1.286  0.5957  0.0398 -2.3026
20428SOL     OW73342   5.699   2.845   1.880 -0.0511  0.4367 -0.2977
20428SOL    HW173343   5.762   2.783   1.833 -0.7221 -1.2288  0.9279
20428SOL    HW273344   5.751   2.914   1.930  0.9806 -2.4531  2.8154
20429SOL     OW73345   5.744   4.518   9.018  0.0089 -0.4265  0.3977
20429SOL    HW173346   5.732   4.531   8.919  1.3824 -2.5270 -0.0817
20429SOL    HW273347   5.833   4.554   9.046 -0.2648 -0.0775  0.8309
20430SOL     OW73348   2.032   9.210   7.709  0.6363  0.0892 -0.2520
20430SOL    HW173349   2.001   9.267   7.785 -1.4735 -0.4314 -0.6732
20430SOL    HW273350   2.030   9.263   7.624 -0.3597 -0.2882 -0.4798
20431SOL     OW73351   7.740   0.198   5.514  0.7600  0.0101 -0.4847
20431SOL    HW173352   7.791   0.136   5.574 -3.1025 -1.1055  1.8012
20431SOL    HW273353   7.716   0.151   5.430  0.5543 -0.5519 -0.1113
20432SOL     OW73354   9.278   9.845   7.547  0.1586  0.1349  0.2891
20432SOL    HW173355   9.185   9.812   7.563  0.3039  0.0213  0.9127
20432SOL    HW273356   9.340   9.768   7.536 -0.2836  0.2052 -2.9666
20433SOL     OW73357   6.342   3.448   4.441 -0.3317  0.0623 -0.1412
20433SOL    HW173358   6.347   3.349   4.428 -0.0708  0.2476 -1.5444
20433SOL    HW273359   6.246   3.476   4.443 -0.5334 -0.6097  3.6349
20434SOL     OW73360   4.483   4.483   9.316  0.3585  0.4934  0.2648
20434SOL    HW173361   4.529   4.475   9.228  0.2106  1.2447  0.1185
20434SOL    HW273362   4.540   4.537   9.379 -0.6700  2.1365 -0.1740
20435SOL     OW73363   8.009   8.748   3.657  0.0063 -0.3812 -0.1035
20435SOL    HW173364   8.030   8.650   3.648 -0.1954 -0.3839 -0.5250
20435SOL    HW273365   7.915   8.764   3.628  0.3937  0.1180 -1.0820
20436SOL     OW73366   5.704   9.914   5.387 -0.0949 -0.2312 -0.1089
20436SOL    HW173367   5.698   9.920   5.287  2.6127 -0.6803 -0.3414
20436SOL    HW273368   5.791   9.873   5.413  0.7270  2.9026  2.5149
20437SOL     OW73369   6.263   4.441   9.863  0.2747 -0.3522 -0.4620
20437SOL    HW173370   6.312   4.449   9.777  1.7448  1.3335  0.5017
20437SOL    HW273371   6.305   4.370   9.920  1.2604  0.6894  0.1264
20438SOL     OW73372   9.898   7.153   6.070  0.0025  0.2048 -0.5682
20438SOL    HW173373   9.910   7.054   6.069  0.1844  0.2009  1.3713
20438SOL    HW273374   9.859   7.181   6.157  1.1486  1.9779 -0.6110
20439SOL     OW73375   7.409   9.284   5.197 -0.0788  0.5561  0.3300
20439SOL    HW173376   7.461   9.363   5.165  0.1688  0.0894 -0.4142
20439SOL    HW273377   7.363   9.240   5.120  1.1500 -1.0316  0.4898
20440SOL     OW73378   5.535   0.778   0.526  0.3467 -0.2195 -0.2331
20440SOL    HW173379   5.523   0.737   0.436  1.3157  1.3778 -1.1199
20440SOL    HW273380   5.452   0.765   0.580 -0.1177 -1.4855 -1.2300
20441SOL     OW73381   0.166   4.830   4.834 -0.2128 -0.0015  0.4259
20441SOL    HW173382   0.222   4.785   4.765  0.7755 -0.5663  1.5772
20441SOL    HW273383   0.085   4.869   4.791  0.9203  0.5820 -1.2136
20442SOL     OW73384   9.395   0.638   4.406  0.2913  0.2148 -0.0951
20442SOL    HW173385   9.365   0.594   4.321 -1.3445  0.8190  0.1419
20442SOL    HW273386   9.483   0.682   4.391  0.3031 -0.2108 -1.3176
20443SOL     OW73387   5.603   2.957   9.595  0.4955 -0.0732 -0.1795
20443SOL    HW173388   5.540   2.880   9.583 -1.3953  1.1859  1.1881
20443SOL    HW273389   5.686   2.925   9.641 -0.2822 -1.3090  0.4079
20444SOL     OW73390   8.896   5.827   4.616  0.1325  0.0263  0.0924
20444SOL    HW173391   8.959   5.869   4.681  1.0642  0.1915 -0.9151
20444SOL    HW273392   8.938   5.746   4.575 -0.8801 -0.7248  0.5196
20445SOL     OW73393   8.264   3.458   9.667  0.5802  0.5870 -0.0450
20445SOL    HW173394   8.266   3.418   9.758 -1.1709  1.3507  0.3476
20445SOL    HW273395   8.309   3.547   9.669 -0.5829  1.1726  0.3700
20446SOL     OW73396   5.564   5.484   5.360 -1.1526  0.5356 -0.5305
20446SOL    HW173397   5.580   5.540   5.279 -1.8788  1.2513 -0.1867
20446SOL    HW273398   5.542   5.543   5.438 -2.0325 -0.2138 -0.1945
20447SOL     OW73399   3.552   8.145   3.331 -0.6418 -0.5430 -0.5410
20447SOL    HW173400   3.471   8.104   3.290  0.0530 -0.4605 -2.0286
20447SOL    HW273401   3.578   8.227   3.279  0.2299 -0.4047  0.0956
20448SOL     OW73402   2.787   7.657   4.065  0.1868 -0.1256  0.4350
20448SOL    HW173403   2.752   7.577   4.115 -0.3951  0.3450  0.7840
20448SOL    HW273404   2.793   7.635   3.968  0.7495 -0.8507  0.6324
20449SOL     OW73405   1.805   7.127   8.809 -0.0565  0.0629  0.6420
20449SOL    HW173406   1.813   7.045   8.752 -1.8951 -0.3624  0.9642
20449SOL    HW273407   1.892   7.144   8.855  1.3892  0.2624 -2.0832
20450SOL     OW73408   9.918   1.022   6.846  0.2432  0.2614  0.2534
20450SOL    HW173409   9.957   1.051   6.758  1.8659  0.0530  0.8762
20450SOL    HW273410   9.967   0.941   6.878  2.2490  2.4864  3.1378
20451SOL     OW73411   6.587   9.340   2.424  0.5568  0.3563 -0.1404
20451SOL    HW173412   6.551   9.282   2.497 -1.5648  1.7378 -0.0407
20451SOL    HW273413   6.668   9.298   2.385  0.1048 -1.7775  1.1375
20452SOL     OW73414   7.589   0.894   1.035 -0.3149 -0.5101  0.5099
20452SOL    HW173415   7.549   0.882   1.126  0.4680 -1.3152  0.7546
20452SOL    HW273416   7.621   0.805   1.000  2.0381  0.2294  0.6871
20453SOL     OW73417   6.968   0.913   8.815  0.3339  0.0753  0.1158
20453SOL    HW173418   6.984   0.910   8.716  1.2951 -0.0932  0.2753
20453SOL    HW273419   6.955   0.821   8.850  0.8788  0.0612  0.2866
20454SOL     OW73420   6.761   3.361   4.412  0.1730 -1.0994 -0.2733
20454SOL    HW173421   6.689   3.418   4.374  1.1619  0.4511  0.1103
20454SOL    HW273422   6.815   3.320   4.338  0.4779 -0.2017 -0.5488
20455SOL     OW73423   8.378   8.334   4.441 -0.4312  0.3674  0.1602
20455SOL    HW173424   8.320   8.263   4.480  0.5524 -1.6382 -1.8959
20455SOL    HW273425   8.375   8.329   4.341  3.4869 -0.0337 -0.0462
20456SOL     OW73426   4.665   6.352   1.959 -0.5811  0.2551  0.3509
20456SOL    HW173427   4.682   6.393   2.049 -0.0154  1.1213 -0.1528
20456SOL    HW273428   4.606   6.271   1.971  0.9248 -0.6770  1.6909
20457SOL     OW73429   5.180   1.712   0.576 -0.2472  0.5645  0.1278
20457SOL    HW173430   5.118   1.778   0.535  0.9519  2.2650  0.9942
20457SOL    HW273431   5.149   1.690   0.669  0.2548  1.1849  0.4492
20458SOL     OW73432   8.875   4.765   3.430  0.2872  0.3296 -0.1860
20458SOL    HW173433   8.932   4.684   3.411 -1.3635 -0.8323 -0.3354
20458SOL    HW273434   8.932   4.838   3.468  1.3824 -1.8087  2.4335
20459SOL     OW73435   9.368   1.356   9.141  0.0302 -0.2245  0.2884
20459SOL    HW173436   9.295   1.408   9.186 -0.3501 -0.6982  0.2165
20459SOL    HW273437   9.334   1.316   9.057  0.6604  0.3948 -0.2672
20460SOL     OW73438   5.097   9.455   7.113  0.1027  0.0262 -0.2560
20460SOL    HW173439   5.156   9.423   7.039  0.2076 -0.5328  0.0704
20460SOL    HW273440   5.010   9.407   7.109 -0.4187  1.0117 -0.8721
20461SOL     OW73441   8.143   0.621   5.267 -0.7281  0.0604 -0.2173
20461SOL    HW173442   8.090   0.557   5.211 -0.1143 -1.0791  0.4879
20461SOL    HW273443   8.240   0.611   5.245 -0.5952  0.4990  0.1660
20462SOL     OW73444   6.241   8.435   5.748 -0.1329  0.0312 -0.4083
20462SOL    HW173445   6.253   8.356   5.808 -1.4039  1.3973  1.7230
20462SOL    HW273446   6.144   8.450   5.731  0.0216  1.6943  0.0476
20463SOL     OW73447   7.938   4.756   4.233 -0.0312  0.1673  0.1323
20463SOL    HW173448   7.858   4.725   4.284 -0.2181 -0.0595 -0.3003
20463SOL    HW273449   7.918   4.843   4.189  0.2518  0.5475  0.7456
20464SOL     OW73450   3.732   7.807   4.256  0.2782 -0.7396  0.2289
20464SOL    HW173451   3.790   7.743   4.206  1.1193 -0.9865  1.5045
20464SOL    HW273452   3.640   7.768   4.264  0.6059 -1.4916  0.4110
20465SOL     OW73453   1.098   9.323   8.756 -0.0687 -0.0187 -0.2451
20465SOL    HW173454   0.999   9.308   8.751 -0.0889  0.6800 -2.5343
20465SOL    HW273455   1.146   9.237   8.742 -0.3479 -0.0982 -0.7275
20466SOL     OW73456   6.948   5.063   7.544  0.2005 -0.3608  0.8259
20466SOL    HW173457   6.940   5.159   7.516 -0.5976 -0.1279  1.8352
20466SOL    HW273458   7.038   5.028   7.518  0.3252  0.5198  0.0387
20467SOL     OW73459   3.402   2.207   8.483 -0.3295 -0.0205 -0.0358
20467SOL    HW173460   3.430   2.240   8.573 -1.3817 -0.5354  0.4959
20467SOL    HW273461   3.428   2.274   8.413 -0.0270  0.6568  0.7144
20468SOL     OW73462   6.162   1.752   0.040  0.2302 -0.3661  0.3922
20468SOL    HW173463   6.232   1.695  -0.003 -0.4595 -1.1370  0.2818
20468SOL    HW273464   6.137   1.826  -0.022  0.8205 -0.1886  0.3624
20469SOL     OW73465   6.741   0.967   7.742 -0.0648 -0.5255 -0.0925
20469SOL    HW173466   6.647   0.995   7.759  0.1484 -0.1417  0.4608
20469SOL    HW273467   6.781   1.023   7.670 -0.3922 -0.9710 -0.6281
20470SOL     OW73468   6.825   7.147   1.829 -0.0338  0.1237  0.6978
20470SOL    HW173469   6.865   7.238   1.818  0.4473 -0.2781 -0.9834
20470SOL    HW273470   6.826   7.122   1.926  2.7269  0.5898  0.8224
20471SOL     OW73471   3.595   9.025   9.273  0.4442  0.3293 -0.0110
20471SOL    HW173472   3.649   8.960   9.326  1.2703  1.3002  0.3728
20471SOL    HW273473   3.505   8.987   9.254  0.7697 -0.7467  0.5667
20472SOL     OW73474   2.245   9.131   2.801 -0.2353 -0.3625 -0.2408
20472SOL    HW173475   2.272   9.225   2.780 -1.4844  0.3287  1.1534
20472SOL    HW273476   2.321   9.069   2.781  0.9304  1.0501 -0.2591
20473SOL     OW73477   3.543   5.149   0.921  0.2081  0.4863 -0.3580
20473SOL    HW173478   3.444   5.137   0.913  0.5514 -2.2053 -1.1156
20473SOL    HW273479   3.586   5.132   0.832  1.6178 -2.0291  0.7327
20474SOL     OW73480   1.883   9.234   2.563  0.8860  0.4444  0.0780
20474SOL    HW173481   1.925   9.240   2.653 -1.1627  2.6119  0.9306
20474SOL    HW273482   1.876   9.325   2.523 -0.4096 -0.2234 -1.2620
20475SOL     OW73483   7.433   2.346   7.412 -0.3621  0.8723  0.2209
20475SOL    HW173484   7.391   2.261   7.381  1.3662  0.3455 -0.7610
20475SOL    HW273485   7.472   2.333   7.504 -0.1442  0.6171  0.0918
20476SOL     OW73486   3.660   9.048   7.264  0.7638  0.3480  0.2551
20476SOL    HW173487   3.618   9.075   7.350  0.5772 -0.0596  0.2947
20476SOL    HW273488   3.652   9.123   7.198 -0.5991  0.0452  0.0585
20477SOL     OW73489   1.910   0.430   6.353 -0.0794 -0.0492 -0.0310
20477SOL    HW173490   1.822   0.436   6.305 -0.1381  1.7089  0.2973
20477SOL    HW273491   1.981   0.471   6.296  0.1218  0.6535  0.7288
20478SOL     OW73492   5.526   6.048   2.088  0.4258 -0.1890 -0.2888
20478SOL    HW173493   5.553   6.060   1.992  0.9419 -0.4016 -0.1753
20478SOL    HW273494   5.581   5.974   2.128 -0.3428 -0.6399 -0.0535
20479SOL     OW73495   3.539   6.601   4.226 -0.4682 -0.2546 -0.3291
20479SOL    HW173496   3.587   6.514   4.235  1.1190  0.4653 -1.7067
20479SOL    HW273497   3.578   6.667   4.290 -0.0857  0.1304 -0.9622
20480SOL     OW73498   6.274   6.768   9.490  0.3473 -0.6134  0.3003
20480SOL    HW173499   6.345   6.816   9.439 -0.3177 -0.5534 -0.5692
20480SOL    HW273500   6.219   6.835   9.541 -0.4411 -0.4594 -0.7383
20481SOL     OW73501   9.381   8.587   8.640  0.3799  0.0445 -0.3987
20481SOL    HW173502   9.398   8.631   8.728  0.0421  0.9663 -0.7958
20481SOL    HW273503   9.455   8.522   8.620 -0.5011 -1.5844  1.4417
20482SOL     OW73504   8.578   0.533   5.505 -0.2018  0.0438 -0.1797
20482SOL    HW173505   8.619   0.583   5.582  1.5262 -1.4324 -0.1105
20482SOL    HW273506   8.651   0.497   5.447 -1.4640 -0.8675 -1.2019
20483SOL     OW73507   6.634   9.995   7.538  0.0156 -0.0512 -0.0603
20483SOL    HW173508   6.661   9.912   7.490 -0.1413 -1.1662  1.7640
20483SOL    HW273509   6.548   9.980   7.585 -0.1074  1.2134  0.1332
20484SOL     OW73510   3.018   9.381   9.740  0.2759  0.1203  0.4347
20484SOL    HW173511   3.002   9.292   9.697  0.1385 -0.9916  2.7065
20484SOL    HW273512   3.086   9.432   9.687  0.8062 -1.5662 -0.5633
20485SOL     OW73513   6.103   0.712   6.287 -0.0270 -0.3107 -0.2167
20485SOL    HW173514   6.027   0.660   6.246  0.6881 -0.3395 -1.4981
20485SOL    HW273515   6.107   0.691   6.385 -0.5523 -1.7084 -0.4744
20486SOL     OW73516   3.043   7.962   1.180  0.2496 -0.1870  0.0391
20486SOL    HW173517   3.074   7.896   1.249 -2.3957 -0.3972  1.0815
20486SOL    HW273518   3.118   7.981   1.116  1.8622 -2.1775  1.2707
20487SOL     OW73519   2.379   7.292   1.842 -0.6198 -0.6623 -0.5819
20487SOL    HW173520   2.351   7.224   1.774  1.1565  0.0979 -2.1257
20487SOL    HW273521   2.415   7.373   1.796 -1.0176  0.5873  1.2614
20488SOL     OW73522   0.492   7.570   5.688  0.1814 -0.1028  0.2923
20488SOL    HW173523   0.448   7.504   5.749 -0.4037 -0.4433 -0.4933
20488SOL    HW273524   0.589   7.547   5.679  0.4179  0.3214  1.5840
20489SOL     OW73525   6.747   1.657   8.554 -0.2391  0.2359  0.2649
20489SOL    HW173526   6.789   1.566   8.546 -0.7927 -0.0260  0.3287
20489SOL    HW273527   6.817   1.727   8.537  0.1899 -0.1988  0.2089
20490SOL     OW73528   1.978   7.516   1.932 -0.1231  0.3296  0.1224
20490SOL    HW173529   2.008   7.612   1.932 -0.8927  0.5745  1.5978
20490SOL    HW273530   1.966   7.486   1.837  1.0614  1.3885 -0.3842
20491SOL     OW73531   5.814   9.951   1.195 -0.2266  0.2071 -0.2127
20491SOL    HW173532   5.898   9.974   1.146 -1.1229 -0.4650 -2.1161
20491SOL    HW273533   5.815   9.994   1.285  2.3385 -0.1164 -0.0374
20492SOL     OW73534   1.870   0.050   4.407  0.0748  0.0717 -0.2609
20492SOL    HW173535   1.947   0.110   4.428 -0.4604  0.5331  0.4063
20492SOL    HW273536   1.902  -0.028   4.353  1.1444 -0.1607  0.6964
20493SOL     OW73537   9.249   6.910   6.070  0.1432  0.2982 -0.6676
20493SOL    HW173538   9.239   6.824   6.021 -1.0684 -0.2253  0.4796
20493SOL    HW273539   9.346   6.936   6.072  0.6006 -1.3796 -0.4311
20494SOL     OW73540   7.788   5.903   7.925  0.3254  0.2193 -0.3030
20494SOL    HW173541   7.835   5.824   7.886 -0.8181 -0.0956 -1.0704
20494SOL    HW273542   7.695   5.877   7.952 -0.7420  1.7259 -2.3284
20495SOL     OW73543   8.296   6.493   3.653  0.6521  0.0371 -0.0947
20495SOL    HW173544   8.264   6.425   3.720  1.8910 -2.7196 -2.2025
20495SOL    HW273545   8.226   6.505   3.583  0.4759  0.9175  0.2256
20496SOL     OW73546   9.689   8.610   4.707  0.3830  0.1540  0.2487
20496SOL    HW173547   9.676   8.602   4.608 -0.0690  2.5056  0.0986
20496SOL    HW273548   9.779   8.648   4.726 -0.1517  1.2153  0.6865
20497SOL     OW73549   4.773   5.048   5.112 -0.1415  0.0040  0.4758
20497SOL    HW173550   4.697   5.016   5.056 -0.8262  1.7931  0.3273
20497SOL    HW273551   4.841   5.091   5.052 -0.6276  1.4509  0.9432
20498SOL     OW73552   7.919   3.533   7.925  0.2997  0.0694 -0.2081
20498SOL    HW173553   7.998   3.473   7.941 -0.3794 -1.3440 -1.8958
20498SOL    HW273554   7.906   3.593   8.003  2.4502 -0.3646  0.5212
20499SOL     OW73555   9.094   9.089   6.434  0.4836 -0.2321 -0.3061
20499SOL    HW173556   9.039   9.168   6.459  0.6747  0.0563 -0.7887
20499SOL    HW273557   9.191   9.114   6.436  0.6383 -0.8798  1.0496
20500SOL     OW73558   2.374   0.084   3.236  0.4842  0.8020  0.1562
20500SOL    HW173559   2.451   0.070   3.297  1.1058 -0.4484 -0.9115
20500SOL    HW273560   2.305   0.140   3.283  1.2711  0.4944  1.7194
20501SOL     OW73561   8.871   8.398   8.888 -0.1594  0.2635  0.2398
20501SOL    HW173562   8.887   8.349   8.974 -0.4218  0.5872  0.4783
20501SOL    HW273563   8.850   8.332   8.816  3.4587 -0.2584 -0.3870
20502SOL     OW73564   7.577   8.384   7.566 -0.1206 -0.2417  0.4336
20502SOL    HW173565   7.498   8.423   7.614 -1.8071 -1.2236 -1.4307
20502SOL    HW273566   7.582   8.422   7.474  4.0321  2.8418  1.7706
20503SOL     OW73567   0.965   7.151   0.050 -0.2049 -0.4093  0.0900
20503SOL    HW173568   0.899   7.141   0.124 -1.8095  3.8371 -0.6539
20503SOL    HW273569   1.014   7.237   0.060 -0.4534  0.2724 -3.7256
20504SOL     OW73570   7.968   9.666   7.407  0.2047  0.0835  0.3630
20504SOL    HW173571   7.916   9.649   7.323  1.0102  0.4387 -0.2197
20504SOL    HW273572   7.913   9.720   7.470 -0.4052 -0.1788  0.0678
20505SOL     OW73573   6.509   0.227   5.089  0.8013 -0.0613  0.3396
20505SOL    HW173574   6.526   0.305   5.029  0.2877 -0.7791 -0.7558
20505SOL    HW273575   6.505   0.258   5.184 -0.8424  1.4860 -0.2061
20506SOL     OW73576   4.518   9.676   0.084 -0.0689 -0.2580  0.1150
20506SOL    HW173577   4.580   9.746   0.051  0.7103 -1.3054 -0.6696
20506SOL    HW273578   4.568   9.589   0.094 -0.9979 -0.6887  1.1202
20507SOL     OW73579   4.647   4.603   6.444  0.0881  0.0522  0.3000
20507SOL    HW173580   4.633   4.573   6.349 -1.8485  1.5194  0.1023
20507SOL    HW273581   4.733   4.653   6.450 -0.6727  1.5630 -1.1017
20508SOL     OW73582   6.206   9.355   3.297  0.5046  0.1889  0.0104
20508SOL    HW173583   6.146   9.394   3.227 -1.1735 -0.3438  1.0914
20508SOL    HW273584   6.246   9.270   3.264 -1.4260 -0.8308  0.1696
20509SOL     OW73585   5.708   5.274   5.250 -0.3015  0.3971  0.0510
20509SOL    HW173586   5.647   5.342   5.291 -0.5652 -0.0664  0.4390
20509SOL    HW273587   5.802   5.306   5.255 -0.5503  1.3053 -0.9352
20510SOL     OW73588   3.879   6.885   5.539  0.4316  0.2826 -0.1375
20510SOL    HW173589   3.911   6.796   5.571 -1.2273  0.5775  2.4759
20510SOL    HW273590   3.790   6.874   5.495  0.6498  0.5225 -0.6425
20511SOL     OW73591   8.575   2.984   3.528  0.2509 -0.5956  0.3094
20511SOL    HW173592   8.669   2.988   3.495  0.8097 -0.9964  1.8181
20511SOL    HW273593   8.529   2.905   3.487  0.0322  0.5700 -1.7570
20512SOL     OW73594   5.325   8.526   7.954 -0.4549 -0.1012 -0.1682
20512SOL    HW173595   5.371   8.611   7.927 -1.4082 -0.0224 -1.6234
20512SOL    HW273596   5.329   8.516   8.053 -0.1235  1.5201  0.0023
20513SOL     OW73597   6.796   0.302   5.385 -0.0672 -0.3815 -0.7714
20513SOL    HW173598   6.764   0.338   5.298 -0.3829 -0.9624 -0.8998
20513SOL    HW273599   6.725   0.313   5.454 -0.0372 -0.4491 -0.7296
20514SOL     OW73600   0.527   1.381   6.378  0.6276 -0.1884  0.7990
20514SOL    HW173601   0.594   1.306   6.380  2.1104  1.1243  3.4015
20514SOL    HW273602   0.520   1.422   6.469 -1.9153  1.3357 -0.0212
20515SOL     OW73603   3.128   7.622   5.960 -0.4340 -0.2286 -0.5282
20515SOL    HW173604   3.162   7.713   5.984 -2.1616 -0.1515  1.7975
20515SOL    HW273605   3.188   7.552   5.998  0.5310 -0.0864 -1.7590
20516SOL     OW73606   5.805   6.329   0.599  0.2175 -0.5206 -0.3857
20516SOL    HW173607   5.865   6.391   0.650 -0.2989  0.0339 -0.4433
20516SOL    HW273608   5.835   6.326   0.503  0.1699 -0.2607 -0.4107
20517SOL     OW73609   2.281   8.100   1.831 -0.0668  0.0324 -0.5877
20517SOL    HW173610   2.325   8.156   1.760 -0.5882  1.1067 -0.0753
20517SOL    HW273611   2.259   8.010   1.793  0.5249  0.2658 -1.5102
20518SOL     OW73612   4.687   8.614   8.841 -0.3440  0.1229  0.3241
20518SOL    HW173613   4.595   8.651   8.840  0.4795  2.2885  1.0661
20518SOL    HW273614   4.712   8.581   8.750 -1.1529  1.3011 -0.3256
20519SOL     OW73615   3.167   8.046   9.502 -0.1834 -0.1973 -0.3994
20519SOL    HW173616   3.200   8.042   9.596 -2.3078 -1.2435  0.3534
20519SOL    HW273617   3.110   7.966   9.484 -2.8020  1.8115 -1.3848
20520SOL     OW73618   3.855   7.946   5.451  0.0997  0.1686 -0.1170
20520SOL    HW173619   3.936   7.926   5.396 -0.8337  0.8017 -1.7650
20520SOL    HW273620   3.884   7.981   5.541  1.6364 -0.2537 -0.4205
20521SOL     OW73621   9.723   5.847   0.534 -0.6792 -0.0650  0.0355
20521SOL    HW173622   9.651   5.882   0.474  0.0874 -1.1388 -1.5401
20521SOL    HW273623   9.749   5.755   0.505  1.3894  0.3363  0.5267
20522SOL     OW73624   7.314   3.984   5.976  0.4112 -0.4440 -0.2347
20522SOL    HW173625   7.309   3.884   5.978 -1.3689 -0.3591  1.0705
20522SOL    HW273626   7.221   4.022   5.976  1.0665  1.2156 -0.8936
20523SOL     OW73627   5.435   9.797   8.811 -0.4952 -0.4742  0.4321
20523SOL    HW173628   5.365   9.843   8.756  0.1578  1.1276  0.8888
20523SOL    HW273629   5.481   9.727   8.757 -0.9715 -0.0362 -0.5402
20524SOL     OW73630   7.420   7.917   3.246  0.2121 -0.1260  0.0839
20524SOL    HW173631   7.401   7.919   3.344 -0.1264 -1.4685  0.0607
20524SOL    HW273632   7.513   7.949   3.229 -0.4272  2.0909  0.6408
20525SOL     OW73633   3.518   5.938   6.914 -0.5944  0.1596  0.0618
20525SOL    HW173634   3.467   6.024   6.912  2.3270  2.0797  2.9216
20525SOL    HW273635   3.605   5.950   6.867 -0.1706 -1.2257  0.4872
20526SOL     OW73636   9.002   5.709   3.102  0.3696  0.0744 -0.0316
20526SOL    HW173637   9.000   5.614   3.069 -0.5001 -1.1091  3.1867
20526SOL    HW273638   9.078   5.720   3.166  0.9470  1.7917 -0.9889
20527SOL     OW73639   4.542   6.973   9.491  0.0850  0.3976  0.4038
20527SOL    HW173640   4.467   6.930   9.541  1.9643  0.9138  3.8526
20527SOL    HW273641   4.542   7.072   9.510  0.1360  0.8092 -1.6379
20528SOL     OW73642   1.494   3.654   5.068  0.1847 -0.2997 -0.0003
20528SOL    HW173643   1.493   3.725   5.139 -0.3167 -0.9266  0.6273
20528SOL    HW273644   1.589   3.628   5.048  0.2716 -1.3750  1.7193
20529SOL     OW73645   4.682   0.413   1.427  0.3967 -0.2808 -0.1478
20529SOL    HW173646   4.626   0.479   1.477  1.8955 -0.0795  1.3007
20529SOL    HW273647   4.622   0.346   1.383 -1.0346  0.7380  0.2098
20530SOL     OW73648   2.297   2.726   3.443 -0.2558 -0.0543  0.3549
20530SOL    HW173649   2.299   2.817   3.485  0.7034 -0.9227  2.2731
20530SOL    HW273650   2.378   2.715   3.385  0.1550 -0.0413  0.9210
20531SOL     OW73651   2.761   2.433   6.691 -0.0894  0.3885 -0.1760
20531SOL    HW173652   2.676   2.482   6.712 -0.9512 -1.9454  1.9258
20531SOL    HW273653   2.749   2.381   6.607 -0.5097  0.5842 -0.2393
20532SOL     OW73654   3.711   7.729   0.284  0.0442 -0.2201 -0.1290
20532SOL    HW173655   3.648   7.806   0.294 -0.6502 -0.4806 -2.2642
20532SOL    HW273656   3.792   7.759   0.233 -0.1193 -0.8501 -0.7584
20533SOL     OW73657   9.126   0.172   4.180 -0.0018 -0.1831 -0.5484
20533SOL    HW173658   9.035   0.215   4.179  0.3519  0.6703  1.9939
20533SOL    HW273659   9.122   0.087   4.232  1.5617  2.0293  3.3355
20534SOL     OW73660   6.863   8.494   7.051  0.5329  0.0403  0.4136
20534SOL    HW173661   6.947   8.534   7.015  1.0604 -1.1366  0.3080
20534SOL    HW273662   6.873   8.479   7.149 -0.3916  1.9681  0.8174
20535SOL     OW73663   5.570   8.733   9.641  0.1457  0.0792 -0.2081
20535SOL    HW173664   5.652   8.762   9.690  1.7235 -1.1605 -2.0239
20535SOL    HW273665   5.533   8.810   9.589 -0.4152  0.8885  1.3547
20536SOL     OW73666   0.747   7.750   5.495  0.3139 -0.2481 -0.9279
20536SOL    HW173667   0.818   7.810   5.457  1.3730  0.9702  2.8078
20536SOL    HW273668   0.657   7.788   5.475  0.8425  0.5994 -1.7644
20537SOL     OW73669   7.085   2.693   7.505  0.4120 -0.1969  0.2625
20537SOL    HW173670   7.016   2.681   7.576  2.9675 -4.1973  2.2449
20537SOL    HW273671   7.157   2.753   7.539  0.3674 -0.0032  0.0204
20538SOL     OW73672   3.213   8.493   6.368 -0.3738 -0.3457  0.3122
20538SOL    HW173673   3.187   8.499   6.271 -1.4230 -0.9100  0.5466
20538SOL    HW273674   3.269   8.571   6.392 -0.6177  0.1228 -0.6081
20539SOL     OW73675   5.934   8.341   5.870  0.7568  0.5025  0.1970
20539SOL    HW173676   6.000   8.281   5.914  1.4284 -0.0364 -1.4945
20539SOL    HW273677   5.842   8.318   5.901  1.2775  0.7219  1.9541
20540SOL     OW73678   0.924   9.268   1.206  0.4578  0.2942 -0.6441
20540SOL    HW173679   0.837   9.314   1.222  0.6496  0.3503  0.2612
20540SOL    HW273680   0.938   9.258   1.108 -1.0884 -0.6887 -0.7908
20541SOL     OW73681   4.518   0.841   7.898 -0.1039  0.1812  0.2370
20541SOL    HW173682   4.535   0.791   7.984 -0.0336  0.5928  0.4610
20541SOL    HW273683   4.605   0.860   7.853 -0.0781  0.8168  0.5544
20542SOL     OW73684   3.188   9.052   1.072 -0.2101 -0.5425  0.2058
20542SOL    HW173685   3.122   8.977   1.066  0.2757 -1.1716  2.0813
20542SOL    HW273686   3.263   9.035   1.008 -2.4672  0.8623 -2.9105
20543SOL     OW73687   5.585   7.725   0.693  0.1936 -0.0669 -0.8441
20543SOL    HW173688   5.645   7.645   0.700  0.0935  0.0044  1.0933
20543SOL    HW273689   5.537   7.739   0.780 -3.4328 -0.7239 -2.6518
20544SOL     OW73690   6.439   2.607   3.730  0.0056  0.0962  0.3193
20544SOL    HW173691   6.429   2.578   3.635  0.5324  0.0174  0.2863
20544SOL    HW273692   6.437   2.707   3.734  0.9598  0.1339  0.1033
20545SOL     OW73693   1.119   5.686   9.918 -0.4854 -0.2429  0.4167
20545SOL    HW173694   1.077   5.692   9.828 -0.3664 -1.4736  0.2769
20545SOL    HW273695   1.218   5.702   9.911 -0.6338  0.7351  0.4825
20546SOL     OW73696   7.618   8.112   7.537 -0.2197 -0.0585 -0.9302
20546SOL    HW173697   7.571   8.089   7.452 -0.5363 -0.0904 -0.7465
20546SOL    HW273698   7.595   8.205   7.563 -0.6552 -0.2740 -0.5277
20547SOL     OW73699   7.508   8.813   1.891  0.0804 -0.4376  0.8806
20547SOL    HW173700   7.534   8.718   1.907 -0.3488 -0.7159 -0.0524
20547SOL    HW273701   7.409   8.822   1.899  0.0424 -0.2254  0.2193
20548SOL     OW73702   4.131   1.073   7.815 -0.1037 -0.4677  0.1589
20548SOL    HW173703   4.148   0.975   7.805  0.1172 -0.2286 -2.0705
20548SOL    HW273704   4.212   1.124   7.788 -0.4311  0.3596  0.7205
20549SOL     OW73705   9.070   9.639   7.341 -0.2932 -0.2221  0.1922
20549SOL    HW173706   9.045   9.681   7.254  0.5758 -1.6298 -0.7546
20549SOL    HW273707   9.153   9.584   7.330 -0.2060 -0.4718  1.8894
20550SOL     OW73708   2.267   0.019   1.690 -0.2419  0.0094  0.1641
20550SOL    HW173709   2.236  -0.076   1.687 -1.8126  0.4640  1.4423
20550SOL    HW273710   2.331   0.035   1.615  0.5635 -2.2276  0.3412
20551SOL     OW73711   5.019   0.961   6.745 -0.5167 -0.0872  0.6528
20551SOL    HW173712   4.950   0.998   6.808  0.6192  0.1398  1.7744
20551SOL    HW273713   5.102   0.939   6.796 -1.1508 -4.2850  0.0924
20552SOL     OW73714   5.708   2.745   9.817  1.0179 -0.3281 -0.7469
20552SOL    HW173715   5.698   2.646   9.811 -2.8109 -0.0721  0.3741
20552SOL    HW273716   5.739   2.770   9.908 -0.5913 -0.3650 -0.1726
20553SOL     OW73717   2.347   7.312   3.515 -0.0831  0.3558 -0.2448
20553SOL    HW173718   2.375   7.337   3.422 -1.3198  0.0384 -0.7156
20553SOL    HW273719   2.285   7.381   3.551  0.3088  0.4221  0.3129
20554SOL     OW73720   0.660   3.686   1.702 -0.5054  0.1187  0.4114
20554SOL    HW173721   0.628   3.611   1.644 -0.1316  0.3884 -0.1360
20554SOL    HW273722   0.753   3.667   1.734  1.1081  2.1011 -2.8173
20555SOL     OW73723   9.637   1.417   6.192  0.2776 -0.5263 -0.0200
20555SOL    HW173724   9.552   1.429   6.140 -1.1934 -1.2569  2.1694
20555SOL    HW273725   9.637   1.328   6.236  3.2333 -1.4764 -1.7925
20556SOL     OW73726   3.012   3.420   1.569  0.4452  0.3824 -0.4401
20556SOL    HW173727   3.083   3.350   1.559  0.8210  0.8921 -1.3229
20556SOL    HW273728   2.936   3.399   1.507  0.6190  0.8307 -0.8058
20557SOL     OW73729   2.253   0.998   9.627 -0.0697  0.1597 -0.4777
20557SOL    HW173730   2.351   1.020   9.619  0.3183 -1.1264  0.5475
20557SOL    HW273731   2.242   0.900   9.643 -1.5413  0.2878 -0.6452
20558SOL     OW73732   1.379   3.643   0.017 -0.0546 -0.2754 -0.1401
20558SOL    HW173733   1.297   3.689   0.050 -0.0092  0.5162 -1.1090
20558SOL    HW273734   1.426   3.702  -0.049  1.9911 -0.1490  1.3608
20559SOL     OW73735   7.637   7.028   7.771  0.2427  0.5682 -0.1400
20559SOL    HW173736   7.688   6.942   7.779 -2.0390 -0.8281 -0.1188
20559SOL    HW273737   7.610   7.041   7.675  1.1045  1.5991 -0.2520
20560SOL     OW73738   8.032   0.775   6.540  0.2756  0.1819 -0.0692
20560SOL    HW173739   8.107   0.715   6.514  0.4857  0.2795  0.3209
20560SOL    HW273740   8.036   0.858   6.484  0.9074  0.5240  0.4813
20561SOL     OW73741   7.518   6.486   6.238  0.7589  0.2628  0.4364
20561SOL    HW173742   7.604   6.438   6.254  0.1940 -0.6423  0.7984
20561SOL    HW273743   7.512   6.512   6.142  2.1339  1.7145  0.7311
20562SOL     OW73744   8.615   0.684   6.449  0.2602 -0.1763 -0.2059
20562SOL    HW173745   8.566   0.607   6.490  1.0446  0.3250  1.7036
20562SOL    HW273746   8.664   0.652   6.368  1.6574 -2.0208  1.3156
20563SOL     OW73747   3.951   7.363   8.130 -0.6923 -0.0803 -0.2954
20563SOL    HW173748   4.050   7.373   8.142 -0.4584  0.5588 -2.5435
20563SOL    HW273749   3.920   7.282   8.180  0.9558 -0.2743  0.4653
20564SOL     OW73750   6.157   1.103   3.578  0.2966 -0.1568 -0.0435
20564SOL    HW173751   6.209   1.165   3.519  0.8066 -0.6309 -0.1009
20564SOL    HW273752   6.061   1.103   3.551  0.1471  1.1950  0.4514
20565SOL     OW73753   8.949   6.799   6.365 -0.7290  0.0182 -0.1732
20565SOL    HW173754   8.974   6.715   6.316  0.3661  0.7432 -0.8607
20565SOL    HW273755   8.976   6.791   6.460 -0.5759 -0.3806 -0.2462
20566SOL     OW73756   5.484   1.441   2.259 -0.1484 -0.3691  0.2897
20566SOL    HW173757   5.448   1.404   2.345  1.4517 -1.5362  0.4733
20566SOL    HW273758   5.488   1.541   2.265 -1.2219 -0.3642  1.0977
20567SOL     OW73759   0.889   1.182   0.421  0.0011 -0.7822 -0.4146
20567SOL    HW173760   0.944   1.266   0.425 -0.3052 -0.5619 -0.7030
20567SOL    HW273761   0.887   1.148   0.327 -0.7814 -0.4941 -0.5090
20568SOL     OW73762   5.867   8.128   5.010  0.3261  0.1741 -0.0003
20568SOL    HW173763   5.899   8.166   4.923  0.7157  1.5667  0.7402
20568SOL    HW273764   5.938   8.070   5.049  1.3193  1.8948  0.8048
20569SOL     OW73765   3.542   6.599   7.900 -0.2602 -0.1006  0.5187
20569SOL    HW173766   3.563   6.561   7.810 -0.3553  1.0650 -0.0070
20569SOL    HW273767   3.576   6.538   7.971 -0.0402 -0.9489 -0.3058
20570SOL     OW73768   0.386   1.947   6.956 -0.1129 -0.8031  0.1810
20570SOL    HW173769   0.382   1.933   7.055 -0.4422 -0.1810  0.2575
20570SOL    HW273770   0.480   1.968   6.929 -0.3796  1.0249  0.6390
20571SOL     OW73771   0.665   9.525   6.350 -0.5502  0.1892  0.0870
20571SOL    HW173772   0.663   9.616   6.309  1.8965  0.2071 -0.1010
20571SOL    HW273773   0.664   9.534   6.450  0.7514  0.5085  0.0885
20572SOL     OW73774   7.077   5.820   9.224 -0.0366 -0.4885 -0.1018
20572SOL    HW173775   7.126   5.740   9.188 -0.1566 -0.8671  0.5796
20572SOL    HW273776   7.120   5.851   9.308  0.2693  0.4325 -0.5923
20573SOL     OW73777   5.220   7.754   6.923  0.4037  0.5256  0.1667
20573SOL    HW173778   5.131   7.772   6.966 -0.0411  0.6027 -0.7660
20573SOL    HW273779   5.286   7.727   6.993 -1.5940 -4.3014  0.4276
20574SOL     OW73780   6.940   0.876   8.554 -0.5954 -0.1396 -0.0417
20574SOL    HW173781   6.953   0.777   8.553  0.7086  0.0204  0.3526
20574SOL    HW273782   6.880   0.902   8.479  0.7117 -1.0215 -1.4245
20575SOL     OW73783   6.028   1.244   8.428  0.4356 -0.2665  0.1988
20575SOL    HW173784   5.937   1.264   8.392  0.3317  1.1326  1.1963
20575SOL    HW273785   6.023   1.225   8.526  1.1222 -0.9942  0.1067
20576SOL     OW73786   8.045   7.791   8.071 -0.0506  0.7498  0.2000
20576SOL    HW173787   7.947   7.804   8.058  0.0286 -0.4895 -1.9528
20576SOL    HW273788   8.094   7.873   8.043 -0.4205  1.0212  0.3486
20577SOL     OW73789   5.973   0.882   7.648 -0.4428  0.1869  0.2168
20577SOL    HW173790   5.913   0.938   7.705 -0.6455 -0.6841  0.8680
20577SOL    HW273791   5.952   0.898   7.552  0.0050  1.7894  0.3683
20578SOL     OW73792   4.774   7.839   3.277 -0.5224  0.1474  0.3984
20578SOL    HW173793   4.804   7.886   3.194 -0.2979  0.0076  0.3995
20578SOL    HW273794   4.828   7.756   3.290  0.5071  0.9644  1.5154
20579SOL     OW73795   4.700   8.706   7.208 -0.0286  0.1862 -0.1600
20579SOL    HW173796   4.632   8.643   7.245 -0.0529 -0.0306 -0.5706
20579SOL    HW273797   4.690   8.711   7.109 -0.1901  1.0321 -0.1000
20580SOL     OW73798   5.804   9.093   6.817 -0.3012  0.2486 -0.2037
20580SOL    HW173799   5.835   9.152   6.891 -1.5560  1.6158 -0.7542
20580SOL    HW273800   5.764   9.010   6.856 -1.2935  1.1257  0.6645
20581SOL     OW73801   5.794   9.483   8.082 -0.8769 -0.0849  0.1188
20581SOL    HW173802   5.821   9.506   8.176 -0.6240  1.1477 -0.2472
20581SOL    HW273803   5.856   9.529   8.018 -2.4215  0.8844 -0.6925
20582SOL     OW73804   7.199   0.218   7.087  0.5814 -0.1130 -0.1530
20582SOL    HW173805   7.211   0.198   6.990 -1.3137 -0.1121 -0.4074
20582SOL    HW273806   7.220   0.315   7.104  0.3017  0.0395 -0.6726
20583SOL     OW73807   6.925   7.024   4.848  0.1060 -0.3488 -0.2843
20583SOL    HW173808   6.843   6.968   4.865 -0.8886  0.2881 -2.7828
20583SOL    HW273809   6.989   6.971   4.792  0.3457  0.0237 -0.3557
20584SOL     OW73810   4.885   8.902   8.306  0.3447 -0.1624 -0.4001
20584SOL    HW173811   4.939   8.914   8.223  0.1234 -1.2989 -0.7286
20584SOL    HW273812   4.801   8.853   8.284  0.3307 -0.5692  0.5004
20585SOL     OW73813   3.755   8.014   0.165 -0.1096 -0.0303  0.2222
20585SOL    HW173814   3.790   7.993   0.074 -0.3855 -0.2167  0.1555
20585SOL    HW273815   3.678   7.953   0.186 -0.4270  0.4047  0.3413
20586SOL     OW73816   2.917   9.283   1.224 -0.0089  0.2604  0.1334
20586SOL    HW173817   2.922   9.344   1.303  0.1174 -0.3585  0.5999
20586SOL    HW273818   2.999   9.296   1.168 -0.3184  1.0372 -0.1532
20587SOL     OW73819   7.305   7.182   6.496  0.8297  0.6210  0.2098
20587SOL    HW173820   7.291   7.241   6.417  1.6147  0.2841 -0.1905
20587SOL    HW273821   7.335   7.092   6.466 -0.9223 -0.1797  0.7805
20588SOL     OW73822   8.465   0.687   5.184  0.4934 -0.1959  0.2532
20588SOL    HW173823   8.537   0.632   5.226  0.5225 -0.4490 -0.1164
20588SOL    HW273824   8.401   0.626   5.136  2.0583  0.2640 -2.5200
20589SOL     OW73825   6.387   0.228   7.735  0.2777  0.1799 -0.3765
20589SOL    HW173826   6.377   0.198   7.640 -1.4900  1.2887 -0.5639
20589SOL    HW273827   6.371   0.151   7.796  0.1813 -0.2597 -0.9467
20590SOL     OW73828   7.257   9.927   0.725  0.0627  0.2284  0.0965
20590SOL    HW173829   7.308   9.892   0.647 -0.0832  0.2271  0.0007
20590SOL    HW273830   7.224  10.019   0.705 -1.8396 -0.5966 -0.7012
20591SOL     OW73831   0.834   4.630   4.896 -0.5081 -0.0404 -0.0481
20591SOL    HW173832   0.788   4.614   4.809 -0.0883 -0.1611 -0.2493
20591SOL    HW273833   0.904   4.701   4.884  0.5117 -1.0452 -0.1381
20592SOL     OW73834   5.088   8.470   0.399 -0.1491 -0.0279 -0.6509
20592SOL    HW173835   5.085   8.423   0.311  0.3462  0.8585 -1.1527
20592SOL    HW273836   5.007   8.528   0.409 -0.9788 -1.2935  0.1550
20593SOL     OW73837   0.287   8.877   0.398  0.1053  0.2455 -0.5582
20593SOL    HW173838   0.249   8.788   0.374 -1.4023  0.4537  0.9150
20593SOL    HW273839   0.260   8.945   0.329 -0.5173 -0.0319 -0.5954
20594SOL     OW73840   6.758   4.480   6.654 -0.3930 -0.0260 -0.1361
20594SOL    HW173841   6.675   4.497   6.707  0.4945 -0.7219  1.4931
20594SOL    HW273842   6.810   4.565   6.644 -1.3522  0.4401 -1.2780
20595SOL     OW73843   1.131   1.301   4.826 -0.2671  0.1918  0.0960
20595SOL    HW173844   1.185   1.325   4.745 -1.4267  1.3806 -0.3454
20595SOL    HW273845   1.189   1.254   4.892  1.5026  2.0410 -0.0733
20596SOL     OW73846   2.114   6.581   3.783 -0.2563  0.9872 -0.3473
20596SOL    HW173847   2.028   6.601   3.829 -0.3400  0.9837 -0.5056
20596SOL    HW273848   2.169   6.521   3.841 -0.6871  0.3494 -0.5909
20597SOL     OW73849   6.345   8.311   9.574 -0.1762 -0.0059  0.0507
20597SOL    HW173850   6.361   8.213   9.558  1.6857  0.3647 -0.5394
20597SOL    HW273851   6.283   8.323   9.651  2.0220 -1.6074  2.1339
20598SOL     OW73852   6.314   4.858   0.503 -0.3152 -0.8833 -0.1596
20598SOL    HW173853   6.230   4.889   0.546 -0.7643 -3.3985  0.8789
20598SOL    HW273854   6.369   4.808   0.570  0.5457 -1.9753 -1.6360
20599SOL     OW73855   7.349   9.532   7.850  0.2063  0.7996  0.6730
20599SOL    HW173856   7.300   9.616   7.873  0.0703  0.8641  0.1713
20599SOL    HW273857   7.402   9.500   7.928 -1.1919  0.3558  1.4525
20600SOL     OW73858   5.777   2.311   1.519  0.2764  0.6121  0.1303
20600SOL    HW173859   5.855   2.364   1.487 -1.7396  2.3369 -2.1231
20600SOL    HW273860   5.750   2.343   1.610  1.2156  1.0926  0.2454
20601SOL     OW73861   7.016   1.292   8.868 -0.3799  0.8711  0.1706
20601SOL    HW173862   6.981   1.244   8.788  0.3507  0.9632 -0.2113
20601SOL    HW273863   6.940   1.327   8.922 -0.8861  0.4175 -0.2457
20602SOL     OW73864   3.819   1.025   6.052  0.1525  0.1907 -0.8958
20602SOL    HW173865   3.883   0.966   6.100  0.1465  0.8052 -0.1249
20602SOL    HW273866   3.744   0.970   6.014  1.1590 -0.5288 -1.8524
20603SOL     OW73867   5.396   6.825   6.204  0.3115 -0.2698 -0.5594
20603SOL    HW173868   5.436   6.915   6.192  0.5914 -0.5334 -1.6226
20603SOL    HW273869   5.412   6.794   6.298 -2.1164  1.9124  0.6400
20604SOL     OW73870   3.167   8.765   3.477 -0.3722 -0.1321  0.4626
20604SOL    HW173871   3.229   8.807   3.543 -0.0107 -1.4146  0.9473
20604SOL    HW273872   3.167   8.666   3.490 -2.5851 -0.1383  0.5179
20605SOL     OW73873   6.088   8.455   5.258  0.6793  0.0867 -0.1348
20605SOL    HW173874   6.169   8.497   5.297  1.1956 -0.7857 -0.2453
20605SOL    HW273875   6.074   8.365   5.300 -0.8760  0.7113  0.7067
20606SOL     OW73876   5.096   7.022   2.701 -0.4880  0.0377 -0.4462
20606SOL    HW173877   5.114   6.936   2.749  0.1506  1.0118  1.1098
20606SOL    HW273878   5.004   7.055   2.724 -0.4621  0.1287 -0.4698
20607SOL     OW73879   5.487   4.678   0.957  0.0331 -0.3745  0.6869
20607SOL    HW173880   5.495   4.579   0.963 -0.1299 -0.3421  1.5344
20607SOL    HW273881   5.459   4.704   0.865 -0.7552 -1.1701  0.7004
20608SOL     OW73882   2.242   6.585   6.569  0.6987  0.1331 -0.6681
20608SOL    HW173883   2.325   6.608   6.619 -0.4106  1.8534  0.4404
20608SOL    HW273884   2.165   6.636   6.607 -0.8547 -1.3396 -1.7428
20609SOL     OW73885   1.341   0.719   7.846  0.1160  0.1996  0.3155
20609SOL    HW173886   1.422   0.719   7.905  0.3769 -1.8340  0.0015
20609SOL    HW273887   1.261   0.690   7.899  0.2287 -0.9748 -0.1269
20610SOL     OW73888   7.074   7.700   2.460 -0.3688 -0.6822 -0.3128
20610SOL    HW173889   7.115   7.790   2.475 -1.0906 -0.3628 -0.2816
20610SOL    HW273890   7.146   7.630   2.468  0.2406 -0.0982 -0.5775
20611SOL     OW73891   8.268   2.754   9.446 -0.1114 -0.1515 -0.0120
20611SOL    HW173892   8.253   2.663   9.485  1.7853 -1.3444 -1.9966
20611SOL    HW273893   8.360   2.786   9.470 -0.2910  0.6857 -0.4129
20612SOL     OW73894   1.820   9.702   1.140  0.0630  0.2023  0.0283
20612SOL    HW173895   1.749   9.763   1.173  0.4436  0.0014  1.2344
20612SOL    HW273896   1.892   9.693   1.209  1.2606  0.3890 -1.1480
20613SOL     OW73897   5.796   6.747   5.996 -0.0236 -0.2657  0.1809
20613SOL    HW173898   5.739   6.715   6.071 -0.1105 -3.1776 -1.0926
20613SOL    HW273899   5.886   6.703   5.999  1.4124  2.5389  0.8099
20614SOL     OW73900   7.102   9.449   2.403 -0.0682  0.5249 -0.1580
20614SOL    HW173901   7.154   9.416   2.324  0.5169 -1.0351  0.8581
20614SOL    HW273902   7.105   9.549   2.404  1.4856  0.5184 -1.0916
20615SOL     OW73903   7.619   4.126   9.562  0.5447 -0.5094 -0.3557
20615SOL    HW173904   7.653   4.115   9.655 -0.0692 -1.5852 -0.2516
20615SOL    HW273905   7.691   4.103   9.497  0.5752 -1.0120 -0.1444
20616SOL     OW73906   5.987   1.543   0.953 -0.1546 -0.6175 -0.5926
20616SOL    HW173907   6.034   1.514   0.870  1.3070 -1.3342  0.4499
20616SOL    HW273908   5.992   1.470   1.021  1.2241  1.0349  1.1409
20617SOL     OW73909   7.621   9.216   7.558  0.5375 -0.1668  0.3932
20617SOL    HW173910   7.628   9.225   7.658 -0.6128 -1.6390  0.6208
20617SOL    HW273911   7.712   9.220   7.518  1.0906 -0.4862  1.5985
20618SOL     OW73912   3.878   1.804   7.233 -0.5100 -0.2609 -0.3330
20618SOL    HW173913   3.901   1.719   7.281 -2.0166 -0.5204 -0.0424
20618SOL    HW273914   3.936   1.813   7.152 -0.4695 -1.6661 -0.4779
20619SOL     OW73915   7.005   9.510   5.169  0.1112  0.2584 -0.5907
20619SOL    HW173916   7.050   9.513   5.258  1.4930  1.3699 -1.3096
20619SOL    HW273917   7.074   9.508   5.096 -0.9845  2.3951 -1.7366
20620SOL     OW73918   1.680   8.584   7.331  0.0747  0.4803  0.2513
20620SOL    HW173919   1.584   8.562   7.342  0.1156  0.7592  1.2314
20620SOL    HW273920   1.729   8.562   7.415  0.3667  2.9054  0.7524
20621SOL     OW73921   8.784   7.033   0.209  0.2232 -0.2738 -0.2392
20621SOL    HW173922   8.796   6.954   0.149 -1.0547  0.8645 -2.0472
20621SOL    HW273923   8.709   7.014   0.273  0.6276 -0.9291  0.0486
20622SOL     OW73924   7.396   9.535   4.401  0.7199  0.5347  0.1643
20622SOL    HW173925   7.413   9.525   4.499 -0.8852  1.0684  0.5080
20622SOL    HW273926   7.344   9.619   4.384 -0.6338 -0.4975 -0.9322
20623SOL     OW73927   1.176   0.376   0.007  0.0697  0.2498 -0.2121
20623SOL    HW173928   1.155   0.427  -0.077 -2.3478 -0.0405  0.1841
20623SOL    HW273929   1.240   0.302  -0.015  0.5415  1.0133 -1.5279
20624SOL     OW73930   8.574   6.021   4.228  0.2487  0.0529  0.0474
20624SOL    HW173931   8.523   6.042   4.312  1.7990  1.6783  0.6147
20624SOL    HW273932   8.553   5.927   4.199 -0.4191 -0.4865  2.1671
20625SOL     OW73933   8.605   3.950   4.551  0.7890 -0.1375 -0.1222
20625SOL    HW173934   8.613   4.050   4.553  2.7791 -0.2863  2.4418
20625SOL    HW273935   8.509   3.924   4.561  0.3405  1.5076  0.0412
20626SOL     OW73936   9.793   4.730   0.038  0.0337 -0.4858 -0.0154
20626SOL    HW173937   9.867   4.696   0.096  0.7825  1.0982 -0.0078
20626SOL    HW273938   9.726   4.657   0.023  0.3734 -1.2366  1.9553
20627SOL     OW73939   3.706   9.272   9.342  0.2482 -0.5088  0.1040
20627SOL    HW173940   3.687   9.190   9.288 -1.0446 -0.1734  0.0416
20627SOL    HW273941   3.786   9.256   9.400  0.9695 -1.2648 -1.0728
20628SOL     OW73942   0.523   1.790   9.429  0.1097 -0.5412 -0.6504
20628SOL    HW173943   0.423   1.787   9.429 -0.0058  0.8056  3.0191
20628SOL    HW273944   0.553   1.883   9.405  0.3781 -0.2599  0.7271
20629SOL     OW73945   9.791   4.012   5.096 -0.3377  0.0931 -0.3527
20629SOL    HW173946   9.887   4.030   5.117 -1.0399  3.7416  0.1222
20629SOL    HW273947   9.740   4.004   5.182 -0.5455 -1.5579 -0.6089
20630SOL     OW73948   7.173   5.835   7.812  0.1532  0.3926  0.0170
20630SOL    HW173949   7.130   5.819   7.724 -1.0269  1.9728  0.2886
20630SOL    HW273950   7.256   5.891   7.799  0.1775  0.3230 -0.1273
20631SOL     OW73951   6.477   8.139   4.352 -0.2478  0.1002  0.4546
20631SOL    HW173952   6.532   8.057   4.363 -0.2157  0.1023  0.3028
20631SOL    HW273953   6.391   8.128   4.402 -1.6221 -1.2999 -2.0924
20632SOL     OW73954   6.945   4.387   7.583  0.6661 -0.2957 -0.0079
20632SOL    HW173955   6.935   4.421   7.677  3.7078  0.1920  0.2047
20632SOL    HW273956   6.866   4.415   7.528  0.2888  2.0156  1.6547
20633SOL     OW73957   5.183   0.547   0.007  0.0857  0.4635  0.7433
20633SOL    HW173958   5.278   0.524   0.031 -0.3238  0.3906  2.4073
20633SOL    HW273959   5.157   0.497  -0.075  0.9671 -0.8109  1.2096
20634SOL     OW73960   4.479   5.665   7.481  0.4925  0.2488 -0.1116
20634SOL    HW173961   4.492   5.764   7.478  0.5304  0.2379 -0.3478
20634SOL    HW273962   4.502   5.626   7.392 -0.6301  0.1623 -0.3662
20635SOL     OW73963   4.932   1.255   2.150 -0.7079  0.0509  0.2056
20635SOL    HW173964   5.025   1.224   2.166 -0.6656  0.8899  1.6106
20635SOL    HW273965   4.891   1.285   2.236 -0.6308  4.2693 -1.1279
20636SOL     OW73966   0.483   9.736   9.954 -0.0016  0.3273 -0.4536
20636SOL    HW173967   0.393   9.779   9.964 -0.5884 -0.7673 -0.9444
20636SOL    HW273968   0.548   9.780  10.016 -0.2468  2.8279 -1.8685
20637SOL     OW73969   6.559   5.415   9.957  0.2833  0.0394 -0.0964
20637SOL    HW173970   6.626   5.377  10.021 -1.1702  0.6641  1.8501
20637SOL    HW273971   6.497   5.342   9.926  1.4530 -0.4145 -1.4215
20638SOL     OW73972   4.111   9.487   0.016 -0.2624  0.4843 -0.3710
20638SOL    HW173973   4.165   9.402   0.013 -0.0773  0.5410  1.0107
20638SOL    HW273974   4.172   9.565   0.024 -0.5271  0.5223  1.6254
20639SOL     OW73975   6.435   8.373   5.226 -0.1046 -0.2923  0.0053
20639SOL    HW173976   6.515   8.314   5.214  0.4711  0.5463 -0.3307
20639SOL    HW273977   6.430   8.439   5.151  0.0174  0.9577  1.0693
20640SOL     OW73978   1.518   7.368   8.144  0.5647  0.0758  0.0182
20640SOL    HW173979   1.560   7.330   8.062  1.2531  0.1091  0.3528
20640SOL    HW273980   1.521   7.299   8.218  0.1249  0.1139  0.0689
20641SOL     OW73981   6.437   8.318   3.328  0.4638  0.2480  0.7109
20641SOL    HW173982   6.512   8.254   3.309  1.3037  1.0115  1.3769
20641SOL    HW273983   6.435   8.338   3.426 -1.2407 -0.5133  0.8356
20642SOL     OW73984   3.867   8.462   5.760 -0.2508  0.4216 -0.0350
20642SOL    HW173985   3.957   8.474   5.803  0.0823 -0.4760 -0.4588
20642SOL    HW273986   3.867   8.505   5.670  0.3631 -1.1330 -0.8046
20643SOL     OW73987   5.754   8.422   1.192 -0.2002  0.2127 -0.4418
20643SOL    HW173988   5.781   8.329   1.164 -0.2348 -0.3734  1.3811
20643SOL    HW273989   5.813   8.489   1.147 -0.3976 -0.6579 -2.0530
20644SOL     OW73990   1.276   4.605   2.099  0.2644 -0.1871 -0.7055
20644SOL    HW173991   1.290   4.619   2.197 -1.2711 -1.5977 -0.2611
20644SOL    HW273992   1.205   4.669   2.066 -0.0975 -0.5494 -0.6332
20645SOL     OW73993   7.090   9.804   5.359  0.0863 -0.9533 -0.0809
20645SOL    HW173994   7.167   9.768   5.411  0.0728 -0.1553  0.4854
20645SOL    HW273995   7.026   9.849   5.420 -0.1545 -0.4102 -0.7211
20646SOL     OW73996   7.616   7.469   4.272  0.1476  0.8454 -0.5138
20646SOL    HW173997   7.631   7.375   4.242 -1.4851  0.7969 -1.2672
20646SOL    HW273998   7.572   7.521   4.198  0.9136  2.1667 -0.0586
20647SOL     OW73999   6.824   0.309   7.025  0.4377  0.1125  0.5045
20647SOL    HW174000   6.830   0.247   7.103 -0.0245 -0.5337  0.0392
20647SOL    HW274001   6.866   0.265   6.945  0.0577  0.3746  0.1572
20648SOL     OW74002   8.762   5.541   4.683 -0.1250 -0.0268 -0.0438
20648SOL    HW174003   8.717   5.537   4.773 -0.7032 -0.6350 -0.3584
20648SOL    HW274004   8.753   5.633   4.645 -0.1695  0.1421  0.3704
20649SOL     OW74005   9.662   3.484   7.788  0.0198 -0.1714  0.2023
20649SOL    HW174006   9.729   3.553   7.761 -0.2283 -0.1964 -0.4877
20649SOL    HW274007   9.666   3.407   7.724 -1.3181  0.2537 -0.4001
20650SOL     OW74008   5.633   8.900   8.271 -0.4235 -0.0423 -0.2384
20650SOL    HW174009   5.536   8.891   8.295 -0.3688 -1.7971 -0.6476
20650SOL    HW274010   5.641   8.939   8.179 -0.7096  1.4774  0.3670
20651SOL     OW74011   3.537   1.623   0.920 -0.0221 -0.5471  0.7111
20651SOL    HW174012   3.502   1.531   0.907  0.6420 -0.9499  1.6866
20651SOL    HW274013   3.619   1.620   0.978  0.4261  0.5795  0.1593
20652SOL     OW74014   6.872   9.866   9.212 -0.0062 -0.2924 -0.8202
20652SOL    HW174015   6.869   9.872   9.312 -0.0244 -2.9586 -0.6351
20652SOL    HW274016   6.788   9.823   9.179  0.3478 -0.1467 -1.9291
20653SOL     OW74017   7.451   7.508   6.088 -0.1384 -0.5366  0.4556
20653SOL    HW174018   7.458   7.572   6.011  0.1272  0.5805  1.3850
20653SOL    HW274019   7.538   7.461   6.101  0.8399  1.6545  2.0798
20654SOL     OW74020   6.276   2.018   8.735  0.8164 -0.3275  0.5494
20654SOL    HW174021   6.340   1.965   8.791  1.5240  0.8103  0.8567
20654SOL    HW274022   6.249   2.100   8.785  0.6721  0.2008 -0.3797
20655SOL     OW74023   4.798   4.786   7.063 -0.1769  0.1573 -0.7680
20655SOL    HW174024   4.760   4.768   6.972 -2.3544 -0.4084  0.2025
20655SOL    HW274025   4.750   4.863   7.104  1.7068  1.2528 -0.6127
20656SOL     OW74026   4.979   8.968   8.553 -0.4890  0.1534  0.3091
20656SOL    HW174027   4.955   8.930   8.463  0.7615  0.1645 -0.0293
20656SOL    HW274028   5.036   8.903   8.603 -3.1504 -0.9178  2.0960
20657SOL     OW74029   1.660   0.871   6.675 -0.5278 -0.8898  0.4388
20657SOL    HW174030   1.751   0.900   6.644 -1.2941  1.1352  0.0051
20657SOL    HW274031   1.638   0.782   6.634 -0.1975  0.2561 -2.3609
20658SOL     OW74032   5.140   5.820   0.318 -0.3067  0.2197  0.1788
20658SOL    HW174033   5.152   5.913   0.284  2.2084  0.2649  1.1134
20658SOL    HW274034   5.093   5.822   0.406 -1.4229  0.4774 -0.4020
20659SOL     OW74035   3.841   7.231   8.407  0.4458 -0.1423 -0.1446
20659SOL    HW174036   3.936   7.199   8.402  0.3634 -0.5699  0.8858
20659SOL    HW274037   3.825   7.273   8.497 -0.8635 -1.7907  0.4211
20660SOL     OW74038   2.748   7.927   4.101 -0.1861 -0.0571 -0.2713
20660SOL    HW174039   2.684   7.958   4.031  1.5407 -0.1325 -1.9451
20660SOL    HW274040   2.764   7.829   4.090 -0.4309 -0.2068  0.6769
20661SOL     OW74041   6.499   8.018   8.335  0.1175 -0.4738 -0.0436
20661SOL    HW174042   6.481   8.030   8.432  0.1400 -0.0238 -0.0945
20661SOL    HW274043   6.594   7.991   8.321  0.3012  0.1444  0.0099
20662SOL     OW74044   6.819   8.293   4.121  1.0142 -0.3606 -0.1467
20662SOL    HW174045   6.792   8.198   4.105  1.2709 -0.0265 -2.7869
20662SOL    HW274046   6.889   8.295   4.193  0.2571 -2.0391  0.6895
20663SOL     OW74047   4.739   6.446   2.207  0.4095 -0.3390 -0.6886
20663SOL    HW174048   4.745   6.384   2.285 -1.1452 -0.7788 -0.9015
20663SOL    HW274049   4.693   6.530   2.235  0.6795 -0.1210 -0.9004
20664SOL     OW74050   8.574   0.309   0.568 -0.0754 -0.6274 -0.1953
20664SOL    HW174051   8.493   0.273   0.521  1.5821 -2.0291 -2.0765
20664SOL    HW274052   8.624   0.370   0.507  0.7226 -0.3917  0.6766
20665SOL     OW74053   6.446   0.404   0.408 -0.5522 -0.3420  0.2707
20665SOL    HW174054   6.414   0.450   0.326 -1.7477 -1.7914 -0.0973
20665SOL    HW274055   6.419   0.456   0.489  1.4092  1.5689 -0.2464
20666SOL     OW74056   8.770   9.140   7.755 -0.9393 -0.2369  0.1764
20666SOL    HW174057   8.711   9.138   7.674 -0.0901 -1.6100 -0.4235
20666SOL    HW274058   8.846   9.077   7.742 -0.3563  0.1329  1.7289
20667SOL     OW74059   7.091   8.713   4.388  0.2013 -0.3740 -0.5141
20667SOL    HW174060   7.180   8.757   4.376 -0.7279  1.1516 -2.1111
20667SOL    HW274061   7.018   8.780   4.373 -1.2252 -1.7984 -0.1054
20668SOL     OW74062   6.123   0.661   8.366 -0.0597 -0.1304  0.1114
20668SOL    HW174063   6.112   0.681   8.269  2.7590 -1.6529 -0.5742
20668SOL    HW274064   6.111   0.746   8.419 -3.6293  0.3207 -1.3331
20669SOL     OW74065   9.003   0.762   3.648 -0.1335  0.0785  0.4550
20669SOL    HW174066   9.087   0.734   3.694 -0.4859 -0.5002  0.7565
20669SOL    HW274067   8.995   0.715   3.561 -0.9506 -1.1324  1.1654
20670SOL     OW74068   4.977   8.256   7.098 -0.2481  0.6014  0.3514
20670SOL    HW174069   5.062   8.309   7.100  0.4375 -0.5274  1.5941
20670SOL    HW274070   4.908   8.301   7.155 -0.2611  1.1150 -0.0581
20671SOL     OW74071   3.958   8.603   5.524  0.2152  0.3922 -0.0105
20671SOL    HW174072   3.956   8.515   5.478 -3.2845  0.8191 -0.7868
20671SOL    HW274073   3.918   8.673   5.465 -0.2363  1.8305  1.9569
20672SOL     OW74074   0.295   9.337   3.414 -0.7521  0.1652 -1.0506
20672SOL    HW174075   0.290   9.304   3.508  0.7987  0.1019 -0.9887
20672SOL    HW274076   0.217   9.301   3.362 -1.3317 -0.2147  0.0704
20673SOL     OW74077   5.868   5.243   7.251 -0.3510  0.2409 -0.0462
20673SOL    HW174078   5.803   5.242   7.326  0.2482  0.0457  0.4757
20673SOL    HW274079   5.961   5.227   7.286 -0.3089 -2.0153 -1.0303
20674SOL     OW74080   2.414   9.108   7.297  0.1961 -0.1948  0.7363
20674SOL    HW174081   2.433   9.028   7.240 -1.9717  0.1198 -0.5041
20674SOL    HW274082   2.444   9.191   7.249  1.4402 -0.1686  1.5422
20675SOL     OW74083   7.291   7.837   4.379 -0.3615 -0.8743 -0.2122
20675SOL    HW174084   7.332   7.917   4.335  0.4062 -1.2361 -0.1416
20675SOL    HW274085   7.351   7.758   4.369  0.4574 -0.6516  2.6200
20676SOL     OW74086   6.412   6.285   1.408  0.3132 -0.5319  0.0922
20676SOL    HW174087   6.319   6.320   1.422  1.2103  1.3805  1.5926
20676SOL    HW274088   6.440   6.231   1.487  1.3565  0.9783  0.7839
20677SOL     OW74089   3.289   7.725   5.261 -0.0263  0.2267  0.0548
20677SOL    HW174090   3.294   7.668   5.343 -0.5986 -1.2459 -0.9220
20677SOL    HW274091   3.382   7.741   5.226  0.0192 -1.5588 -0.6504
20678SOL     OW74092   5.632   1.535   8.208  0.1121  0.0448  0.0861
20678SOL    HW174093   5.597   1.531   8.114 -0.7456  1.2900  0.3325
20678SOL    HW274094   5.569   1.486   8.268  1.3014 -1.8034 -0.1587
20679SOL     OW74095   3.779   6.217   3.939  0.0905 -0.1783  0.4963
20679SOL    HW174096   3.808   6.262   3.855  0.3543 -0.8524  0.2226
20679SOL    HW274097   3.847   6.148   3.966 -0.2931 -0.3974  0.9179
20680SOL     OW74098   6.481   8.013   6.404 -0.0724 -0.5599  0.1419
20680SOL    HW174099   6.403   8.064   6.440 -0.5965  0.5247 -2.3397
20680SOL    HW274100   6.561   8.072   6.403  0.3461 -1.1127  1.0736
20681SOL     OW74101   0.172   9.945   5.148  0.4882 -0.5292  0.4058
20681SOL    HW174102   0.086   9.958   5.098  0.1816 -0.3723  0.9711
20681SOL    HW274103   0.242  10.005   5.109  0.5750 -1.2766 -0.6056
20682SOL     OW74104   7.996   8.796   6.524  0.1736 -0.2117  0.4130
20682SOL    HW174105   7.944   8.837   6.598 -0.3665 -1.6876  0.8659
20682SOL    HW274106   7.993   8.696   6.532 -1.2065 -0.4492 -2.4679
20683SOL     OW74107   6.993   1.569   3.575 -0.5499  0.5221  0.0488
20683SOL    HW174108   6.942   1.489   3.605 -0.6322  0.5382 -0.0515
20683SOL    HW274109   7.054   1.544   3.499 -1.3191  0.7857 -0.6543
20684SOL     OW74110   2.657   1.191   0.760 -0.2588 -0.1747 -0.4017
20684SOL    HW174111   2.754   1.165   0.758  0.0865  1.1025 -1.1932
20684SOL    HW274112   2.626   1.199   0.855 -0.1198 -2.4545 -0.1333
20685SOL     OW74113   7.669   0.877   4.919  0.5279  0.3126  0.3965
20685SOL    HW174114   7.599   0.948   4.916  1.3877  1.1456 -0.0162
20685SOL    HW274115   7.688   0.844   4.827  1.5733  0.9784  0.3637
20686SOL     OW74116   5.670   8.023   1.399  0.2488 -0.1672 -0.1046
20686SOL    HW174117   5.618   8.099   1.361  0.6266 -0.0305 -0.3434
20686SOL    HW274118   5.764   8.053   1.419  0.3927 -0.5623 -0.1808
20687SOL     OW74119   9.828   7.727   4.464 -0.0550  0.3649 -0.1088
20687SOL    HW174120   9.769   7.688   4.534  0.1626  0.1241 -0.0583
20687SOL    HW274121   9.773   7.775   4.396 -0.1688  1.7858  0.9629
20688SOL     OW74122   7.080   9.641   6.041  0.5893 -0.0595 -0.3434
20688SOL    HW174123   7.004   9.658   6.103  0.5310 -1.6073  0.0282
20688SOL    HW274124   7.095   9.721   5.984  1.2525  1.7428  2.2967
20689SOL     OW74125   2.293   6.149   3.209 -0.1673  0.5437  0.8820
20689SOL    HW174126   2.359   6.222   3.193 -0.7877  0.5626 -1.8028
20689SOL    HW274127   2.222   6.153   3.138 -0.0016 -2.8917  0.4753
20690SOL     OW74128   6.328   7.354   5.861 -0.0068  0.1136 -0.4901
20690SOL    HW174129   6.418   7.357   5.905  0.1647 -2.0590 -0.6506
20690SOL    HW274130   6.293   7.260   5.863 -3.1097  1.2273  1.2767
20691SOL     OW74131   1.924   3.128   6.144 -0.6967  0.1617  0.0150
20691SOL    HW174132   1.900   3.210   6.196  1.0678  0.1041  0.9450
20691SOL    HW274133   1.841   3.074   6.127 -1.6318  1.3518  0.7233
20692SOL     OW74134   5.750   7.540   5.220 -0.4161  0.0707  0.0101
20692SOL    HW174135   5.792   7.615   5.170 -1.5506 -0.6635 -2.1625
20692SOL    HW274136   5.753   7.457   5.163 -1.1382 -0.9737  1.4611
20693SOL     OW74137   4.877   0.225   1.384 -0.8075  0.4292 -0.6518
20693SOL    HW174138   4.831   0.309   1.411 -0.0981  0.1115  1.6637
20693SOL    HW274139   4.921   0.238   1.295 -1.8699  2.0469 -0.9556
20694SOL     OW74140   3.132   9.972   9.072  0.2400  0.1263  0.5699
20694SOL    HW174141   3.113   9.874   9.072  0.4213  0.0217 -2.2826
20694SOL    HW274142   3.046  10.023   9.076  0.1806 -0.1384  2.6803
20695SOL     OW74143   8.513   5.080   2.675  0.5797  0.2003 -0.1960
20695SOL    HW174144   8.581   5.153   2.678 -1.3711  2.1871 -2.0702
20695SOL    HW274145   8.466   5.082   2.587 -1.4779 -1.5072  0.8149
20696SOL     OW74146   8.797   9.615   9.112 -0.3551 -0.4025 -0.4807
20696SOL    HW174147   8.802   9.562   9.196 -2.3893  0.2454  0.0903
20696SOL    HW274148   8.736   9.569   9.047 -0.9390  0.4475 -0.5507
20697SOL     OW74149   3.256   0.563   7.961  0.0046  0.4632 -0.1228
20697SOL    HW174150   3.190   0.633   7.934 -1.0594 -1.0197 -1.5015
20697SOL    HW274151   3.344   0.582   7.918 -0.4876  0.5687 -1.1104
20698SOL     OW74152   7.028   7.130   7.984 -0.2355  0.1414  0.5033
20698SOL    HW174153   7.027   7.119   7.884 -0.9317  0.9715  0.4084
20698SOL    HW274154   7.060   7.046   8.027  1.6055  0.3106 -0.5005
20699SOL     OW74155   1.672   1.147   3.149  1.0059  0.2190 -0.7793
20699SOL    HW174156   1.656   1.175   3.055  0.8420 -1.3164 -1.2102
20699SOL    HW274157   1.606   1.077   3.176  1.1114  0.5654  0.4463
20700SOL     OW74158   2.439   6.067   4.819  0.1042  0.3862  0.3064
20700SOL    HW174159   2.524   6.120   4.821  0.1485  0.3546 -0.8192
20700SOL    HW274160   2.363   6.126   4.847  0.0167  1.3273 -1.8113
20701SOL     OW74161   2.059   7.991   6.924 -0.4152 -0.4975  0.5772
20701SOL    HW174162   1.989   8.062   6.916 -0.8520 -0.9526  0.3395
20701SOL    HW274163   2.124   8.000   6.848  0.2820  0.4584  1.2731
20702SOL     OW74164   8.399   3.144   8.514 -0.2720  0.5550 -0.0589
20702SOL    HW174165   8.342   3.072   8.553  0.1269  1.5789  2.5233
20702SOL    HW274166   8.341   3.219   8.482 -0.6164 -0.3779 -1.6294
20703SOL     OW74167   0.654   1.443   0.019  0.3971  0.3550  0.1653
20703SOL    HW174168   0.620   1.520   0.074  0.1768 -0.2433  0.8700
20703SOL    HW274169   0.592   1.366   0.028  1.4309 -0.4155  0.6582
20704SOL     OW74170   6.587   1.873   4.271  0.0447 -0.1689 -0.1138
20704SOL    HW174171   6.687   1.878   4.263 -0.0296  0.3581 -0.7613
20704SOL    HW274172   6.556   1.782   4.242  0.3039 -0.1935 -0.3161
20705SOL     OW74173   5.221   1.402   2.151  0.0011  0.6476  0.1920
20705SOL    HW174174   5.301   1.406   2.212 -1.1241 -0.5399  1.7695
20705SOL    HW274175   5.148   1.459   2.189 -0.5195  0.3283 -0.3256
20706SOL     OW74176   7.487   9.370   7.365 -0.3632  0.3994  0.2491
20706SOL    HW174177   7.530   9.460   7.360  2.5535 -0.9755 -0.5113
20706SOL    HW274178   7.507   9.328   7.453 -1.4453  0.3612  0.4796
20707SOL     OW74179   6.693   8.202   1.403 -0.0828  0.1750  0.8980
20707SOL    HW174180   6.780   8.244   1.377  0.7077 -1.7708  0.2612
20707SOL    HW274181   6.708   8.139   1.480 -0.9650  0.0147  0.9442
20708SOL     OW74182   7.041   5.904   8.622  0.6502  0.3348 -0.3100
20708SOL    HW174183   6.948   5.886   8.591  0.7765 -2.3750  0.7534
20708SOL    HW274184   7.054   6.003   8.632 -1.9856  0.7784 -0.8102
20709SOL     OW74185   2.493   8.392   6.056  0.3087  0.0972 -0.1582
20709SOL    HW174186   2.485   8.294   6.068 -0.2238  0.1686  0.0875
20709SOL    HW274187   2.548   8.412   5.974 -2.0937 -0.4224 -1.9363
20710SOL     OW74188   4.933   9.139   9.290 -0.0791  0.7910 -0.9670
20710SOL    HW174189   4.936   9.189   9.204  0.0926  0.1573 -1.3289
20710SOL    HW274190   4.845   9.154   9.334 -0.2589  0.9153 -1.3686
20711SOL     OW74191   6.035   5.774   8.901  0.7467 -0.0484  0.0703
20711SOL    HW174192   6.114   5.831   8.881  1.1282 -0.4548  0.4292
20711SOL    HW274193   6.002   5.732   8.817 -0.0690  1.3922 -0.3410
20712SOL     OW74194   2.913   7.154   4.685  0.2836  0.0884  0.0093
20712SOL    HW174195   2.890   7.235   4.631 -0.0877  0.0565  0.1153
20712SOL    HW274196   3.004   7.123   4.661 -0.5632 -0.9841 -1.9492
20713SOL     OW74197   2.801   0.616   9.519  0.5627  0.3005 -0.1814
20713SOL    HW174198   2.883   0.559   9.512  1.2475  1.5270 -2.6351
20713SOL    HW274199   2.721   0.562   9.493  0.7567 -0.4904  0.8227
20714SOL     OW74200   5.168   7.266   6.916  0.5338 -0.5020  0.3158
20714SOL    HW174201   5.097   7.324   6.875 -1.6792 -1.1227  3.0670
20714SOL    HW274202   5.258   7.306   6.900 -0.6422  1.6309 -1.1703
20715SOL     OW74203   6.209   0.327   7.176  0.4760  0.4093  0.4402
20715SOL    HW174204   6.297   0.355   7.136  0.7381 -0.2704  0.5174
20715SOL    HW274205   6.135   0.375   7.131  0.8632  0.6293  0.0333
20716SOL     OW74206   6.276   1.259   7.923  0.3661 -0.0439  0.1225
20716SOL    HW174207   6.215   1.185   7.952  2.4871 -0.9073  2.6344
20716SOL    HW274208   6.341   1.224   7.856  0.4271 -0.0992  0.2085
20717SOL     OW74209   7.058   7.090   0.014 -0.3617 -0.1604 -0.1381
20717SOL    HW174210   7.090   7.026  -0.056  0.3793 -1.0459  0.9824
20717SOL    HW274211   7.074   7.050   0.104 -1.1887  1.0212  0.5356
20718SOL     OW74212   4.943   6.652   0.041 -0.2425  0.1308  0.0046
20718SOL    HW174213   5.003   6.653  -0.039 -0.3424 -0.2441 -0.0768
20718SOL    HW274214   4.907   6.744   0.057  0.1343  0.2978 -0.1113
20719SOL     OW74215   7.629   3.772   9.975 -0.0836  0.0785 -0.0164
20719SOL    HW174216   7.606   3.854   9.921 -0.3934 -1.3833 -2.1737
20719SOL    HW274217   7.728   3.764   9.982 -0.0397  0.3104 -0.3318
20720SOL     OW74218   9.304   5.945   7.100  0.1042 -0.1871  0.0867
20720SOL    HW174219   9.385   5.917   7.049  0.1140 -0.3490  0.1910
20720SOL    HW274220   9.278   6.038   7.073 -0.4195 -0.6032 -0.8727
20721SOL     OW74221   6.833   0.645   9.393  0.4389  0.2284  0.4371
20721SOL    HW174222   6.830   0.594   9.308  0.0527  1.1530 -0.1158
20721SOL    HW274223   6.817   0.584   9.470 -0.1719 -0.4497 -0.2239
20722SOL     OW74224   8.981   5.749   0.147 -0.0374  0.1565  0.5709
20722SOL    HW174225   8.885   5.772   0.168  0.1835  0.7816  0.9251
20722SOL    HW274226   9.024   5.708   0.228 -0.4441 -1.5832 -0.0778
20723SOL     OW74227   2.964   6.242   4.997  0.9564 -0.3018 -0.1101
20723SOL    HW174228   2.970   6.263   4.900  1.4247  0.2358  0.0316
20723SOL    HW274229   3.025   6.303   5.048 -0.1882  0.2311  0.6407
20724SOL     OW74230   9.985   0.988   3.469  0.1367  0.0824 -0.2994
20724SOL    HW174231  10.003   0.891   3.455  0.3277 -0.0185  0.6389
20724SOL    HW274232  10.070   1.036   3.491 -0.3558 -0.0261  1.9809
20725SOL     OW74233   8.697   1.838   1.005  0.0832  0.0419  0.4230
20725SOL    HW174234   8.684   1.781   0.923  0.4335  2.4231 -1.3423
20725SOL    HW274235   8.672   1.933   0.984  2.3412  1.1269  2.4255
20726SOL     OW74236   4.674   4.882   5.315  0.3542 -0.1941  0.4546
20726SOL    HW174237   4.711   4.903   5.224 -0.7819 -1.1907 -0.2569
20726SOL    HW274238   4.721   4.803   5.352 -0.0631 -0.5818  0.1664
20727SOL     OW74239   3.484   1.225   1.608 -0.5335  0.0526 -0.3037
20727SOL    HW174240   3.443   1.159   1.545  0.3720 -0.8148  0.0058
20727SOL    HW274241   3.414   1.288   1.640 -1.7725 -1.7531  0.6576
20728SOL     OW74242   3.325   7.744   9.315 -0.2042 -1.0138  0.0987
20728SOL    HW174243   3.394   7.799   9.269  0.0083  0.0177  1.6007
20728SOL    HW274244   3.328   7.650   9.280  2.2470 -1.0834  0.4174
20729SOL     OW74245   0.882   7.928   7.636 -0.3754  0.5884  0.3479
20729SOL    HW174246   0.862   7.850   7.695  0.3242 -0.1236 -0.3306
20729SOL    HW274247   0.920   7.895   7.549  0.0061  1.6890  0.0836
20730SOL     OW74248   6.854   0.148   7.529  0.0883 -0.4840 -0.1449
20730SOL    HW174249   6.863   0.187   7.438  0.2870 -0.5708 -0.1635
20730SOL    HW274250   6.777   0.084   7.531 -0.2665 -0.0573 -0.1003
20731SOL     OW74251   4.779   0.310   7.789  0.4021  0.1681  0.5074
20731SOL    HW174252   4.749   0.280   7.699 -1.9115 -1.4439  1.7630
20731SOL    HW274253   4.730   0.394   7.814 -0.5684 -0.5599  1.1140
20732SOL     OW74254   7.375   7.942   2.853 -0.4669 -0.5483 -0.1952
20732SOL    HW174255   7.384   7.867   2.919  0.6760 -0.3422 -0.1063
20732SOL    HW274256   7.456   7.944   2.794 -0.6123  0.4546 -0.3666
20733SOL     OW74257   4.908   5.035   2.161 -0.1199  0.5805 -0.1690
20733SOL    HW174258   4.962   5.118   2.146  1.2542 -0.4175 -0.8360
20733SOL    HW274259   4.912   5.010   2.258 -0.0214  0.9561 -0.0750
20734SOL     OW74260   4.508   6.749   2.893 -1.1333 -0.5320  0.1989
20734SOL    HW174261   4.506   6.846   2.918 -0.1485 -0.8819  1.7411
20734SOL    HW274262   4.562   6.699   2.961 -1.3241 -2.1029 -0.7909
20735SOL     OW74263   3.097   5.239   9.463 -0.2431 -0.1056 -0.2831
20735SOL    HW174264   3.150   5.161   9.432 -2.1202 -1.0345 -1.2882
20735SOL    HW274265   3.155   5.321   9.467  1.0579 -0.9199 -2.0728
20736SOL     OW74266   6.906   0.686   1.279  0.1142 -0.0036  0.2982
20736SOL    HW174267   6.901   0.593   1.316  0.3943 -0.4828 -0.8424
20736SOL    HW274268   6.977   0.690   1.208 -1.5643  0.4591 -1.4041
20737SOL     OW74269   6.243   0.787   9.654 -0.1264  0.0819 -0.0611
20737SOL    HW174270   6.280   0.726   9.584  0.0092 -0.7698  0.7419
20737SOL    HW274271   6.272   0.755   9.744 -1.2789  0.4928  0.4583
20738SOL     OW74272   7.962   4.311   3.932  0.3103  0.4388 -0.2671
20738SOL    HW174273   8.037   4.318   3.867 -1.8156  1.0404 -2.7667
20738SOL    HW274274   7.903   4.391   3.922  0.8726  1.4185  3.6850
20739SOL     OW74275   8.523   0.446   6.564  0.4582 -0.4813 -0.4816
20739SOL    HW174276   8.445   0.502   6.594  1.8800  1.0820  0.4148
20739SOL    HW274277   8.490   0.372   6.506 -1.8648 -0.7349  1.0725
20740SOL     OW74278   6.911   9.058   9.298 -0.2225 -0.0139 -0.2740
20740SOL    HW174279   6.895   9.064   9.397 -1.1861 -1.2785 -0.3320
20740SOL    HW274280   6.850   8.989   9.259  1.2351 -0.6269 -1.5199
20741SOL     OW74281   0.766   4.786   8.658  0.3261  0.1201  0.1868
20741SOL    HW174282   0.751   4.726   8.736  1.8115  0.6169  0.8673
20741SOL    HW274283   0.852   4.761   8.613  1.1773  1.9692  0.7289
20742SOL     OW74284   9.224   3.120   9.855 -0.1746  0.3899  0.4938
20742SOL    HW174285   9.275   3.141   9.772 -1.2876 -1.7219 -0.7633
20742SOL    HW274286   9.133   3.162   9.849 -0.8140 -1.0551 -0.0628
20743SOL     OW74287   9.907   5.625   1.051 -0.0844  0.1575  0.2181
20743SOL    HW174288   9.877   5.572   0.971 -0.1276 -1.1566  1.0870
20743SOL    HW274289   9.991   5.585   1.087 -0.0655  0.7481  0.8225
20744SOL     OW74290   1.443   1.476   8.049  0.0230  0.3380 -0.1104
20744SOL    HW174291   1.357   1.443   8.009 -0.9331 -0.7088  2.6817
20744SOL    HW274292   1.520   1.430   8.006 -0.8675  0.5142 -1.9269
20745SOL     OW74293   7.375   0.333   7.660  0.2015  0.0833 -0.3045
20745SOL    HW174294   7.346   0.272   7.734 -0.4044 -0.0184 -0.6191
20745SOL    HW274295   7.354   0.428   7.684  1.3223  0.1901  0.2669
20746SOL     OW74296   2.588   6.917   7.452 -0.7214  0.0370  0.1763
20746SOL    HW174297   2.552   6.947   7.541 -2.1273  1.2480 -0.7715
20746SOL    HW274298   2.641   6.992   7.411 -1.5066  0.0816 -0.7613
20747SOL     OW74299   6.154   8.249   8.969  0.5369  0.7464  0.6199
20747SOL    HW174300   6.097   8.275   9.047  1.2507 -0.5380  1.5905
20747SOL    HW274301   6.103   8.188   8.908  0.1592  1.3234  0.3553
20748SOL     OW74302   2.385   0.128   0.483  0.1813  0.6122  0.0745
20748SOL    HW174303   2.431   0.182   0.412 -0.2404  1.3564  0.3671
20748SOL    HW274304   2.312   0.074   0.442  1.0374 -0.2611 -0.3283
20749SOL     OW74305   3.461   3.155   3.620 -0.1681 -0.1499  0.1230
20749SOL    HW174306   3.491   3.239   3.575 -3.1097  0.0668 -1.5957
20749SOL    HW274307   3.417   3.178   3.707  1.5693 -0.1906  1.0339
20750SOL     OW74308   7.516   2.084   0.119 -0.1734 -0.5111  0.6653
20750SOL    HW174309   7.545   2.026   0.042  1.4453 -1.2810  1.8155
20750SOL    HW274310   7.594   2.100   0.179 -0.9899  1.5954  1.2021
20751SOL     OW74311   7.186   9.282   2.155  0.0768  0.0812 -0.0783
20751SOL    HW174312   7.174   9.194   2.202  0.0715 -0.1114 -0.4439
20751SOL    HW274313   7.103   9.304   2.103 -0.0607  0.4764  0.3038
20752SOL     OW74314   6.913   7.542   1.510  0.2325  0.1511  0.2141
20752SOL    HW174315   6.847   7.557   1.584  2.6714 -0.3174  2.5420
20752SOL    HW274316   6.879   7.469   1.451 -1.5379  0.1947  1.1287
20753SOL     OW74317   7.252   8.986   7.948  0.3132  0.0915  0.1582
20753SOL    HW174318   7.282   9.021   7.859 -0.7030  0.0204 -0.2171
20753SOL    HW274319   7.156   9.010   7.963  0.5806  0.4285  1.4090
20754SOL     OW74320   7.756   4.358   9.537 -0.3345 -0.3672  0.2835
20754SOL    HW174321   7.723   4.360   9.442 -0.2161  1.6811  0.2607
20754SOL    HW274322   7.678   4.367   9.599 -0.0768  2.3119  0.2734
20755SOL     OW74323   3.660   1.649   9.986 -0.1275  0.3139 -0.2633
20755SOL    HW174324   3.730   1.600   9.934  0.0076  1.1968 -0.9184
20755SOL    HW274325   3.573   1.645   9.937 -0.8033 -1.6617  1.0456
20756SOL     OW74326   3.558   8.766   5.266 -0.2679  0.6911 -0.7110
20756SOL    HW174327   3.569   8.698   5.338 -1.0393  1.1051 -0.1915
20756SOL    HW274328   3.595   8.731   5.180  0.3564  0.0661 -0.1886
20757SOL     OW74329   4.386   0.138   8.790 -0.2899  0.3913 -0.2998
20757SOL    HW174330   4.425   0.117   8.880  1.1990  0.1618 -0.9926
20757SOL    HW274331   4.286   0.136   8.797 -0.1986 -0.6636  1.1041
20758SOL     OW74332   4.618   1.846   2.493 -0.2166  0.3588  0.5252
20758SOL    HW174333   4.662   1.758   2.513  0.0998 -0.3903 -3.0565
20758SOL    HW274334   4.565   1.875   2.572  0.4340 -2.5910  2.1365
20759SOL     OW74335   8.048   0.831   5.835  0.2214 -0.3044  0.0622
20759SOL    HW174336   8.075   0.775   5.756 -0.8508 -0.6288 -0.0823
20759SOL    HW274337   7.969   0.789   5.880  0.5567  0.1195  1.0531
20760SOL     OW74338   4.757   1.867   8.254  0.2735 -0.3731  0.3131
20760SOL    HW174339   4.810   1.791   8.293  0.2081 -1.0883 -0.9490
20760SOL    HW274340   4.776   1.951   8.305  1.2718 -0.9899  0.9748
20761SOL     OW74341   5.593   2.471   1.309 -0.2689 -0.1927  0.0699
20761SOL    HW174342   5.647   2.395   1.272  1.9059  2.3858 -2.4017
20761SOL    HW274343   5.650   2.525   1.371 -1.1756  0.4591  0.3437
20762SOL     OW74344   2.358   8.789   0.573 -0.7887 -0.4813  0.5968
20762SOL    HW174345   2.430   8.720   0.575 -0.9549 -0.6668  0.2627
20762SOL    HW274346   2.374   8.852   0.497 -0.7720 -0.2981  0.7526
20763SOL     OW74347   5.414   8.628   0.715 -0.2211 -0.4232 -0.5193
20763SOL    HW174348   5.337   8.599   0.659 -0.1215 -0.6656 -0.5281
20763SOL    HW274349   5.498   8.624   0.662  0.2119 -2.8196  0.3170
20764SOL     OW74350   7.851   1.010   9.524 -0.3677  0.0750 -0.7557
20764SOL    HW174351   7.917   0.939   9.498  1.1142  1.3988 -0.7102
20764SOL    HW274352   7.840   1.010   9.623  1.1101  1.1635 -0.5790
20765SOL     OW74353   5.499   9.227   1.145 -0.2597 -0.3258  0.1273
20765SOL    HW174354   5.509   9.150   1.083 -3.0966 -1.2903  0.7973
20765SOL    HW274355   5.472   9.308   1.093 -0.1579 -0.5180 -0.2240
20766SOL     OW74356   5.536   6.592   1.680 -0.1493  0.2641  0.3901
20766SOL    HW174357   5.464   6.582   1.749  1.1415 -1.2361  1.5550
20766SOL    HW274358   5.611   6.647   1.716  1.0814 -1.5446  0.6771
20767SOL     OW74359   5.489   0.116   7.270  0.3436  0.1579 -0.1710
20767SOL    HW174360   5.395   0.148   7.253  0.9005  1.0149 -1.7476
20767SOL    HW274361   5.487   0.042   7.337 -1.4012  0.5870  0.2877
20768SOL     OW74362   4.258   9.334   8.279  0.0853  0.4011 -0.0300
20768SOL    HW174363   4.352   9.302   8.281  0.7058  2.2294  1.4346
20768SOL    HW274364   4.240   9.380   8.192 -0.0197 -1.4866 -1.0397
20769SOL     OW74365   4.131   5.569   1.241  0.5393  0.7013  0.3868
20769SOL    HW174366   4.091   5.601   1.326  0.5959  1.0579  0.2797
20769SOL    HW274367   4.078   5.491   1.206 -2.6746  3.7378 -1.9234
20770SOL     OW74368   8.091   7.717   5.178 -0.7568  0.2306  0.3347
20770SOL    HW174369   8.092   7.789   5.247  0.4323  0.9527 -0.4131
20770SOL    HW274370   8.163   7.734   5.111 -0.5239 -1.6085  0.0864
20771SOL     OW74371   8.975   1.014   9.984  0.7936  0.1734  0.2280
20771SOL    HW174372   8.937   1.106   9.980  0.8424  0.1349 -1.5568
20771SOL    HW274373   8.932   0.962  10.057 -0.9504  0.8493 -0.3118
20772SOL     OW74374   4.899   1.094   7.537 -0.4713  0.7049  0.7639
20772SOL    HW174375   4.877   1.012   7.485 -2.1317  1.7294 -0.1677
20772SOL    HW274376   4.956   1.155   7.482 -0.3749  0.8007  0.9660
20773SOL     OW74377   8.458   8.268   9.633  0.2109  0.7680 -0.3354
20773SOL    HW174378   8.528   8.237   9.698 -0.0190  0.7796 -0.0796
20773SOL    HW274379   8.443   8.366   9.644  0.8688  0.9564 -1.0807
20774SOL     OW74380   6.709   3.991   2.384 -0.1686 -0.6070  0.1949
20774SOL    HW174381   6.776   4.065   2.376  0.0522 -0.8015  0.2230
20774SOL    HW274382   6.743   3.911   2.333 -0.8145 -0.3975 -0.5706
20775SOL     OW74383   4.911   1.317   3.438 -0.0429 -0.1006 -0.2609
20775SOL    HW174384   4.902   1.246   3.367 -0.6810  0.7001 -0.9957
20775SOL    HW274385   4.890   1.278   3.527 -0.3427 -0.8571 -0.6577
20776SOL     OW74386   5.357   8.827   7.653  0.4279 -0.2848 -0.5555
20776SOL    HW174387   5.336   8.916   7.613  1.1270  0.1139 -0.0614
20776SOL    HW274388   5.305   8.756   7.607 -0.3258  0.4144 -0.7911
20777SOL     OW74389   7.901   6.000   3.079 -0.2456  0.3442 -0.2468
20777SOL    HW174390   7.859   6.023   2.991 -0.5238  1.6902  0.2309
20777SOL    HW274391   7.830   5.988   3.148  0.0790  1.1189  0.2195
20778SOL     OW74392   4.676   4.910   4.514 -0.3211  0.4438  0.5290
20778SOL    HW174393   4.707   4.890   4.421 -0.0797  1.3084  0.4247
20778SOL    HW274394   4.747   4.882   4.579 -0.1572  0.5648  0.4050
20779SOL     OW74395   0.511   2.141   0.319  0.2978 -0.3549 -0.4218
20779SOL    HW174396   0.568   2.203   0.265  0.1402 -1.2072 -1.5815
20779SOL    HW274397   0.426   2.123   0.270 -0.5919  0.1907  0.8907
20780SOL     OW74398   6.808   3.177   9.674  0.0517 -0.6004 -0.3775
20780SOL    HW174399   6.752   3.241   9.726 -0.5069  0.4880 -2.2714
20780SOL    HW274400   6.803   3.086   9.716 -2.1358 -0.2307  0.2105
20781SOL     OW74401   1.203   0.320   9.244  0.3737 -0.6574  0.1094
20781SOL    HW174402   1.238   0.317   9.150  1.7210  0.3918  0.5468
20781SOL    HW274403   1.209   0.414   9.278 -1.7937 -0.6911  0.6363
20782SOL     OW74404   6.973   1.379   9.793 -0.6257 -0.1528 -0.1361
20782SOL    HW174405   6.938   1.421   9.709 -0.8766 -1.4937 -0.7001
20782SOL    HW274406   6.914   1.303   9.820 -0.3735  0.0777  1.0965
20783SOL     OW74407   4.186   6.662   7.612 -0.0589  0.2926 -0.1142
20783SOL    HW174408   4.120   6.701   7.676 -0.4562 -3.1672  1.7060
20783SOL    HW274409   4.143   6.652   7.522 -0.5382  2.2003 -0.1198
20784SOL     OW74410   6.275   1.886   0.256  0.0633  0.0983  0.2176
20784SOL    HW174411   6.285   1.815   0.326  2.0377 -0.3701 -0.4997
20784SOL    HW274412   6.255   1.843   0.168  2.0751  0.3377 -0.3869
20785SOL     OW74413   5.086   9.352   2.406 -0.3324 -0.2141 -0.1805
20785SOL    HW174414   4.999   9.401   2.414 -0.1025  0.0192  1.1239
20785SOL    HW274415   5.160   9.419   2.396 -0.0894 -0.2999  0.9208
20786SOL     OW74416   6.181   8.321   9.798 -0.3873 -0.1240  0.4760
20786SOL    HW174417   6.174   8.254   9.872 -1.2814 -0.2829  0.2560
20786SOL    HW274418   6.091   8.334   9.756  0.2271 -0.5850 -1.0557
20787SOL     OW74419   6.638   7.755   6.161  0.5478  0.2159 -0.2604
20787SOL    HW174420   6.729   7.795   6.173  0.9871 -0.3741 -1.5984
20787SOL    HW274421   6.647   7.659   6.135 -0.4609  0.0822 -0.1273
20788SOL     OW74422   6.348   6.013   6.560 -0.6140  0.1831  0.6767
20788SOL    HW174423   6.265   6.007   6.615 -1.0223 -0.1925  0.0205
20788SOL    HW274424   6.420   5.958   6.602 -1.2874 -1.0954  0.1927
20789SOL     OW74425   8.582   3.340   5.716  0.6144 -0.2661  0.0409
20789SOL    HW174426   8.654   3.409   5.726  0.7692 -0.7760  2.9087
20789SOL    HW274427   8.624   3.253   5.688  0.4801  0.6092 -3.0571
20790SOL     OW74428   5.354   1.552   3.260  0.1441  0.2387  0.2586
20790SOL    HW174429   5.257   1.540   3.239  0.0273  1.6449 -0.0784
20790SOL    HW274430   5.409   1.520   3.183 -0.1422  1.5661 -0.5154
20791SOL     OW74431   8.111   9.593   2.833 -0.0312  0.4554  0.2479
20791SOL    HW174432   8.069   9.653   2.765 -0.4399 -0.3565 -0.2241
20791SOL    HW274433   8.207   9.578   2.810 -0.8770 -2.0850 -1.7497
20792SOL     OW74434   5.252   8.273   6.418 -0.0753 -0.8965 -0.2968
20792SOL    HW174435   5.256   8.284   6.517 -2.0353  3.1256 -0.5891
20792SOL    HW274436   5.157   8.260   6.389  0.3951 -1.3169 -1.7003
20793SOL     OW74437   1.508   8.844   8.638 -0.4932  0.0430  0.2201
20793SOL    HW174438   1.590   8.809   8.592 -2.6192 -0.8746 -3.1172
20793SOL    HW274439   1.501   8.804   8.729  1.6247 -1.5594 -0.2750
20794SOL     OW74440   7.758   8.133   8.695 -0.4524 -0.2518 -0.2052
20794SOL    HW174441   7.749   8.139   8.795  0.8334  1.6047 -0.1791
20794SOL    HW274442   7.823   8.061   8.672  0.1281  0.0935  0.3385
20795SOL     OW74443   3.578   9.104   6.100 -0.1342  0.2417 -0.2271
20795SOL    HW174444   3.504   9.079   6.037 -0.3504  0.4728 -0.0616
20795SOL    HW274445   3.664   9.066   6.066 -0.1761  0.7467 -0.9032
20796SOL     OW74446   4.178   8.327   8.623  0.1551 -0.0629  0.0013
20796SOL    HW174447   4.112   8.268   8.669 -0.6143  0.0048 -1.0013
20796SOL    HW274448   4.231   8.273   8.557  1.5539 -0.2478  1.2702
20797SOL     OW74449   7.481   1.167   0.219 -0.3507 -0.2839  0.1941
20797SOL    HW174450   7.441   1.170   0.127 -0.8716  0.1628  0.4346
20797SOL    HW274451   7.417   1.207   0.285  1.3439  2.4435  0.2837
20798SOL     OW74452   4.959   3.794   6.834  0.6930 -0.6263 -0.0092
20798SOL    HW174453   4.964   3.885   6.875  0.2919 -0.3228 -0.6325
20798SOL    HW274454   5.004   3.795   6.745 -0.8950 -0.5723 -0.8329
20799SOL     OW74455   5.302   8.838   9.355 -0.3629 -0.2608  0.4220
20799SOL    HW174456   5.333   8.825   9.260  1.3629 -0.9540  1.0494
20799SOL    HW274457   5.291   8.749   9.398  1.3816  0.0880  1.6385
20800SOL     OW74458   7.087   5.177   8.412 -0.2365  0.4984 -0.1733
20800SOL    HW174459   7.067   5.163   8.509 -2.4933 -0.8927 -0.7913
20800SOL    HW274460   7.098   5.275   8.394 -2.9686  1.0719  0.9762
20801SOL     OW74461   8.850   9.978   5.210 -0.3413  0.0456  0.8109
20801SOL    HW174462   8.921   9.984   5.280 -1.4289  1.0971  1.8484
20801SOL    HW274463   8.765   9.944   5.251 -0.9303  0.4546 -0.0496
20802SOL     OW74464   1.550   7.159   3.923 -0.1407  0.5961  0.3825
20802SOL    HW174465   1.485   7.159   3.847  0.8585  0.6331 -0.4731
20802SOL    HW274466   1.507   7.116   4.002 -1.1413  0.4268 -0.2405
20803SOL     OW74467   6.674   1.696   2.476  0.0194  0.2697 -0.1536
20803SOL    HW174468   6.707   1.612   2.520  0.2635  0.2996 -0.2799
20803SOL    HW274469   6.685   1.688   2.377  0.7061  0.7439 -0.1138
20804SOL     OW74470   5.767   9.106   9.820  0.6118 -0.3522 -0.2462
20804SOL    HW174471   5.829   9.184   9.809 -1.1920  1.0561 -0.6318
20804SOL    HW274472   5.683   9.123   9.769 -1.0299 -1.1962  2.1196
20805SOL     OW74473   2.246   5.781   9.533  0.0791  0.1742  0.0493
20805SOL    HW174474   2.290   5.723   9.601  1.8127  1.6090  0.1673
20805SOL    HW274475   2.308   5.795   9.455 -1.2398 -0.0797 -1.0753
20806SOL     OW74476   6.023   7.846   1.512 -0.2802  0.8724 -0.0967
20806SOL    HW174477   5.989   7.818   1.423 -0.7564  2.8035 -0.5565
20806SOL    HW274478   6.005   7.944   1.525  0.3506  0.7527  1.8488
20807SOL     OW74479   5.742   1.546   3.284  0.2502  0.5128 -0.1248
20807SOL    HW174480   5.772   1.632   3.241 -0.8057  1.5294  1.1234
20807SOL    HW274481   5.643   1.549   3.299  0.1032 -1.1871 -0.6084
20808SOL     OW74482   6.482   8.845   2.072  0.0550 -0.4408  0.1157
20808SOL    HW174483   6.392   8.866   2.110  0.4501  0.9618  0.3000
20808SOL    HW274484   6.519   8.763   2.115 -0.9243 -0.7376  0.3932
20809SOL     OW74485   9.642   6.941   4.091  0.1744  0.1691  0.0667
20809SOL    HW174486   9.721   6.891   4.056  0.6335  0.4459  0.7032
20809SOL    HW274487   9.656   7.039   4.077  0.0612  0.2336  0.4208
20810SOL     OW74488   6.600   7.804   1.907 -0.1201  0.2099  0.0072
20810SOL    HW174489   6.671   7.854   1.955 -0.9543 -0.6574  2.2013
20810SOL    HW274490   6.516   7.803   1.961 -0.4808 -2.5060 -0.4924
20811SOL     OW74491   0.511   2.312   4.893 -0.9601 -0.0128  0.3492
20811SOL    HW174492   0.599   2.274   4.922  0.0235  1.4851 -0.5582
20811SOL    HW274493   0.442   2.295   4.962 -0.1085 -1.8029  0.7786
20812SOL     OW74494   7.407   8.388   8.528 -0.1802 -0.8053  0.0888
20812SOL    HW174495   7.312   8.394   8.560 -0.1253 -1.3860  0.3679
20812SOL    HW274496   7.448   8.304   8.562  0.8809  0.1255  1.1212
20813SOL     OW74497   7.073   9.304   1.403  0.5078  0.5167 -0.1460
20813SOL    HW174498   7.135   9.251   1.345  2.2158  2.3614 -0.0418
20813SOL    HW274499   6.999   9.341   1.347  0.1140 -0.7157 -0.4726
20814SOL     OW74500   6.137   8.933   5.448  0.1736  0.0543 -0.3313
20814SOL    HW174501   6.062   8.936   5.382 -0.5365 -1.6912  0.3417
20814SOL    HW274502   6.119   8.999   5.521  0.1911  0.9040 -1.0909
20815SOL     OW74503   6.370   7.950   5.454 -0.6107  0.0795  0.1559
20815SOL    HW174504   6.370   8.021   5.525 -0.4672 -0.2430  0.4773
20815SOL    HW274505   6.282   7.902   5.455 -0.3049 -0.4769  0.6686
20816SOL     OW74506   7.238   0.224   8.376 -0.0837 -0.1794 -0.0938
20816SOL    HW174507   7.207   0.282   8.452 -0.2492 -0.7062  0.2428
20816SOL    HW274508   7.180   0.240   8.296  1.6435  2.2238 -0.9045
20817SOL     OW74509   7.530   1.426   4.983 -0.2276 -0.3237  0.9374
20817SOL    HW174510   7.518   1.387   4.892 -1.2227 -0.8487  1.2798
20817SOL    HW274511   7.627   1.426   5.008 -0.2727 -3.3306  1.2547
20818SOL     OW74512   7.946   2.290   3.019  0.0061 -1.0675 -0.0435
20818SOL    HW174513   7.847   2.292   3.004  0.2025 -1.1665 -1.4205
20818SOL    HW274514   7.992   2.327   2.938  1.0916 -0.9481  0.6264
20819SOL     OW74515   3.591   6.917   4.913  0.4291  0.5785 -0.7129
20819SOL    HW174516   3.632   6.899   4.824  2.2518  0.9500  0.0428
20819SOL    HW274517   3.662   6.919   4.983 -1.1303 -1.2832  1.0095
20820SOL     OW74518   0.674   0.453   3.946  0.1543  0.3949 -0.9301
20820SOL    HW174519   0.718   0.506   3.874 -0.1275  0.4874 -1.0367
20820SOL    HW274520   0.682   0.502   4.033  2.4244 -0.7558 -0.4582
20821SOL     OW74521   7.238   2.938   2.027  0.3302 -0.2092 -0.1569
20821SOL    HW174522   7.150   2.977   2.053  0.8836  0.0489  1.3703
20821SOL    HW274523   7.226   2.879   1.947 -1.0914  0.4141 -0.4183
20822SOL     OW74524   2.486   7.430   1.378  0.0496  0.0863  0.1077
20822SOL    HW174525   2.578   7.430   1.340  0.2514  0.9264  0.5857
20822SOL    HW274526   2.438   7.347   1.350  0.4502  0.3321 -1.3366
20823SOL     OW74527   7.604   8.692   8.003 -0.1022  0.4169 -0.4261
20823SOL    HW174528   7.672   8.721   7.935  0.5582 -1.3522 -0.5283
20823SOL    HW274529   7.559   8.773   8.041  2.3710  1.6409 -0.0342
20824SOL     OW74530   8.318   1.435   1.621 -0.2346  0.1499  0.0387
20824SOL    HW174531   8.271   1.514   1.659  0.1025  0.0963  0.5867
20824SOL    HW274532   8.390   1.406   1.684 -0.6464 -0.8688  0.0537
20825SOL     OW74533   6.537   0.013   3.846 -0.3309  0.3828  0.4186
20825SOL    HW174534   6.585  -0.045   3.911 -0.3865  0.0327  0.1496
20825SOL    HW274535   6.440  -0.011   3.845 -0.4610  0.8837  0.7384
20826SOL     OW74536   8.453   0.285   5.526 -0.1340 -0.1173  0.0417
20826SOL    HW174537   8.476   0.379   5.500  0.4330 -0.9831 -2.8283
20826SOL    HW274538   8.536   0.229   5.527 -0.4543 -0.5845  1.8508
20827SOL     OW74539   0.250   2.211   8.328 -0.0874  0.6135  0.0915
20827SOL    HW174540   0.307   2.286   8.361 -1.1359  0.5766  2.0530
20827SOL    HW274541   0.267   2.129   8.384 -2.1519  0.6548  0.8498
20828SOL     OW74542   3.540   9.235   0.777  0.2535  0.1721 -0.8921
20828SOL    HW174543   3.504   9.191   0.859 -1.5515  1.1901 -1.1148
20828SOL    HW274544   3.494   9.199   0.696  0.3939  0.8207 -1.2635
20829SOL     OW74545   6.560   7.074   9.925  0.2857  0.7036 -0.2842
20829SOL    HW174546   6.515   7.059   9.836 -1.3037 -0.2898  0.6689
20829SOL    HW274547   6.653   7.039   9.921  0.3742  1.0424 -1.6905
20830SOL     OW74548   8.581   2.042   1.458  0.0277  0.4044  0.0721
20830SOL    HW174549   8.495   2.001   1.489  0.2343 -1.7072 -2.0326
20830SOL    HW274550   8.570   2.078   1.365  0.8471  2.0859  0.5891
20831SOL     OW74551   3.673   1.946   0.039  0.3663  0.2203  0.2095
20831SOL    HW174552   3.770   1.963   0.056  0.8987 -1.5134 -1.0208
20831SOL    HW274553   3.662   1.861  -0.012 -1.7141  1.1906 -1.0268
20832SOL     OW74554   7.293   7.251   0.299  0.2758 -0.0197 -0.1231
20832SOL    HW174555   7.359   7.284   0.367  3.0436 -2.1691 -1.6663
20832SOL    HW274556   7.278   7.322   0.230  1.1920  0.3786  0.0847
20833SOL     OW74557   5.762   8.443   0.617 -0.4584  0.1838 -0.0876
20833SOL    HW174558   5.707   8.479   0.542  0.4443  2.3294  0.2414
20833SOL    HW274559   5.713   8.367   0.661 -1.6690 -0.0951 -1.8529
20834SOL     OW74560   8.152   0.163   2.416  0.5198  0.4245 -0.2138
20834SOL    HW174561   8.110   0.221   2.486 -1.7527 -0.7072 -0.5839
20834SOL    HW274562   8.135   0.067   2.438  2.8164 -0.0813 -0.4864
20835SOL     OW74563   5.352   8.009   1.491  0.4826  0.1701  0.3860
20835SOL    HW174564   5.392   8.097   1.517 -0.2901 -0.3200  3.3801
20835SOL    HW274565   5.373   7.941   1.561  0.2554 -1.8261 -1.4236
20836SOL     OW74566   3.805   8.773   1.177  0.3092 -0.2742 -0.3518
20836SOL    HW174567   3.840   8.727   1.095 -0.3103  0.1530 -0.8644
20836SOL    HW274568   3.881   8.802   1.234  0.6986 -2.1411  0.0924
20837SOL     OW74569   0.458   6.185   7.942  0.0278 -0.6077  0.2308
20837SOL    HW174570   0.464   6.252   8.016 -1.5378  0.4437 -0.5626
20837SOL    HW274571   0.385   6.119   7.961 -0.5604 -0.1750 -0.4846
20838SOL     OW74572   5.656   8.563   8.511  0.0826  0.6326 -0.2079
20838SOL    HW174573   5.727   8.533   8.447 -2.0930 -0.9472 -1.9272
20838SOL    HW274574   5.692   8.559   8.604  1.3715 -2.8308 -0.8018
20839SOL     OW74575   5.006   7.096   0.031  0.0046 -0.1743  0.1547
20839SOL    HW174576   4.970   7.188   0.021  0.4718 -0.1517 -1.4159
20839SOL    HW274577   4.998   7.047  -0.055 -0.5377 -1.7224  1.0704
20840SOL     OW74578   0.757   2.489   6.603 -0.2681  0.1563 -0.0428
20840SOL    HW174579   0.674   2.478   6.658  0.6522 -0.5021  1.2414
20840SOL    HW274580   0.808   2.568   6.636 -0.2349  0.3811 -0.6365
20841SOL     OW74581   8.721   7.158   6.538 -0.0257  0.3070 -0.0688
20841SOL    HW174582   8.657   7.178   6.465 -0.8100  0.6697  0.7145
20841SOL    HW274583   8.684   7.191   6.625  0.9020 -0.1057  0.4880
20842SOL     OW74584   2.034   1.863   2.731  0.0134  0.4576 -0.1937
20842SOL    HW174585   2.082   1.944   2.698 -0.5590  0.6591 -0.5388
20842SOL    HW274586   2.027   1.796   2.657 -1.9211  1.2074 -0.7235
20843SOL     OW74587   7.542   1.692   4.900 -0.6037  0.7090 -0.6840
20843SOL    HW174588   7.605   1.731   4.967 -3.1650  0.1010  2.1897
20843SOL    HW274589   7.548   1.592   4.903 -0.2267  0.6854 -1.9003
20844SOL     OW74590   8.980   8.974   4.882  0.0357 -0.0515  0.1007
20844SOL    HW174591   8.893   9.021   4.899 -1.0578 -1.9350 -0.1212
20844SOL    HW274592   9.006   8.922   4.963  0.6208 -0.0314 -0.0722
20845SOL     OW74593   9.287   9.077   9.413  0.6652 -0.3344 -0.0362
20845SOL    HW174594   9.298   8.977   9.412  1.2945 -0.2977 -3.0703
20845SOL    HW274595   9.240   9.106   9.329 -0.6638  1.8217  1.4214
20846SOL     OW74596   6.248   5.423   0.630 -0.3832 -0.4677 -0.2226
20846SOL    HW174597   6.284   5.513   0.605  1.1045 -0.6127  1.3136
20846SOL    HW274598   6.303   5.352   0.587 -0.4724 -0.6592 -0.0228
20847SOL     OW74599   6.322   0.384   4.400 -0.0133 -0.3106  0.1093
20847SOL    HW174600   6.355   0.347   4.314  0.4196  0.2025  0.0480
20847SOL    HW274601   6.315   0.484   4.393  0.7754 -0.1850  0.9028
20848SOL     OW74602   7.976   1.412   0.087 -0.3807 -0.1543 -0.3852
20848SOL    HW174603   7.878   1.392   0.097  0.1613 -1.5419  2.6975
20848SOL    HW274604   7.987   1.494   0.030 -3.3649  0.4935 -0.1499
20849SOL     OW74605   4.786   8.828   6.164  1.0302 -0.3866  0.2978
20849SOL    HW174606   4.820   8.860   6.075 -0.2959  1.6394  0.4724
20849SOL    HW274607   4.699   8.873   6.184  0.6552 -1.8358  2.0258
20850SOL     OW74608   4.725   9.257   9.848 -0.0841 -0.1247 -0.7487
20850SOL    HW174609   4.738   9.187   9.918 -3.0884  0.4018  0.4016
20850SOL    HW274610   4.792   9.330   9.861 -0.6418  0.0030  1.6655
20851SOL     OW74611   6.157   9.340   8.726  0.4514  0.1041  0.1873
20851SOL    HW174612   6.180   9.276   8.800  1.9364  1.0921  0.5979
20851SOL    HW274613   6.239   9.389   8.698 -0.9100  2.7899  0.7728
20852SOL     OW74614   5.149   4.885   9.964  0.2041  0.7641  0.0449
20852SOL    HW174615   5.093   4.849   9.890  1.4669 -1.1850  0.0176
20852SOL    HW274616   5.090   4.921  10.037 -1.0425  0.8184 -0.9869
20853SOL     OW74617   7.198   7.375   7.823 -0.0698 -0.5482  0.5337
20853SOL    HW174618   7.152   7.375   7.912  1.1039 -5.4968  1.2504
20853SOL    HW274619   7.291   7.409   7.833  0.4501 -2.2100  1.4670
20854SOL     OW74620   3.189   4.602   8.904 -0.0746  0.5923  0.3328
20854SOL    HW174621   3.272   4.549   8.918  0.0765  0.6612 -0.2852
20854SOL    HW274622   3.113   4.558   8.952  0.5375  1.1317  1.8146
20855SOL     OW74623   6.942   8.681   1.016 -0.2321 -0.2064 -0.1388
20855SOL    HW174624   6.940   8.778   0.989 -1.6413 -0.4614 -1.0304
20855SOL    HW274625   7.032   8.659   1.054 -0.8838  2.2579  3.0731
20856SOL     OW74626   9.169   0.761   7.683 -0.0172  0.0284  0.5498
20856SOL    HW174627   9.124   0.725   7.602  0.9908 -0.6891  0.3049
20856SOL    HW274628   9.232   0.835   7.657  1.4799 -1.2510  0.4755
20857SOL     OW74629   0.953   8.626   1.198  0.5157  0.2199 -0.1699
20857SOL    HW174630   0.876   8.661   1.145  1.6530  2.0279 -0.6973
20857SOL    HW274631   1.028   8.602   1.136  0.7467 -0.5423  0.4032
20858SOL     OW74632   4.913   1.507   1.031  0.0821 -0.3735 -0.1385
20858SOL    HW174633   4.975   1.531   1.106 -1.5903 -1.3706  1.5927
20858SOL    HW274634   4.933   1.414   1.001 -1.0284 -0.9665  0.9170
20859SOL     OW74635   2.085   2.807   8.062 -0.0709 -0.1168 -0.5646
20859SOL    HW174636   2.164   2.771   8.112 -0.4646  1.0343  0.9112
20859SOL    HW274637   2.050   2.736   8.000  1.9997 -0.6870 -1.1166
20860SOL     OW74638   4.870   6.696   2.603  0.7376  0.8729 -0.2584
20860SOL    HW174639   4.786   6.741   2.572 -2.0260 -3.5649  0.4024
20860SOL    HW274640   4.895   6.623   2.539  0.7687 -1.6466  2.5391
20861SOL     OW74641   6.332   0.588   0.620  0.6458  0.4051  0.4830
20861SOL    HW174642   6.425   0.626   0.625 -0.6210  3.5968  1.0389
20861SOL    HW274643   6.299   0.570   0.713  0.2596  0.5109  0.3686
20862SOL     OW74644   0.238   5.057   2.427 -0.2207  0.0175  0.5660
20862SOL    HW174645   0.327   5.101   2.435  0.0577 -0.2540 -0.7626
20862SOL    HW274646   0.172   5.102   2.487  0.4439  1.2066  0.4191
20863SOL     OW74647   1.338   2.780   3.373 -0.7504  0.7668 -0.1455
20863SOL    HW174648   1.423   2.832   3.381  0.8379 -1.9493  1.2553
20863SOL    HW274649   1.340   2.725   3.290 -0.8335  0.1757  0.2399
20864SOL     OW74650   5.713   0.614   1.236  0.0395  0.2214 -0.2463
20864SOL    HW174651   5.751   0.655   1.153  4.0253 -0.3827  1.1827
20864SOL    HW274652   5.760   0.528   1.256 -0.8717  0.3338  2.6366
20865SOL     OW74653   8.888   2.200   1.359 -0.0911 -0.4979  0.1786
20865SOL    HW174654   8.882   2.123   1.424  0.1351 -0.6170  0.0583
20865SOL    HW274655   8.828   2.183   1.282  0.1517 -0.6727  0.0288
20866SOL     OW74656   5.411   8.965   0.681 -0.0481  0.6225  0.2600
20866SOL    HW174657   5.439   9.027   0.755  0.4805 -0.0205  0.6003
20866SOL    HW274658   5.334   8.910   0.711 -0.0181  0.5632  0.2254
20867SOL     OW74659   3.754   0.780   3.607  0.4973  0.3170  0.1305
20867SOL    HW174660   3.690   0.833   3.551  0.2991 -0.4365 -0.3760
20867SOL    HW274661   3.782   0.698   3.556  1.1580  0.1784  0.7112
20868SOL     OW74662   5.224   7.724   1.637 -0.4598 -0.0476  0.2939
20868SOL    HW174663   5.314   7.739   1.597 -1.2518  2.3123 -0.7021
20868SOL    HW274664   5.223   7.636   1.685  1.6866 -1.1382 -1.5386
20869SOL     OW74665   6.832   9.945   0.066 -0.3912 -0.1402 -0.1750
20869SOL    HW174666   6.792   9.854   0.073 -2.2440  0.5632 -1.4609
20869SOL    HW274667   6.775  10.011   0.115 -1.3222  1.0139 -2.7622
20870SOL     OW74668   8.444   6.428   8.155 -0.3977  0.2901  0.7205
20870SOL    HW174669   8.406   6.349   8.108  0.2027 -0.7014  1.8755
20870SOL    HW274670   8.499   6.482   8.091  1.5731 -1.8017  0.5869
20871SOL     OW74671   0.146   0.009   9.589  0.8520 -0.7997  0.3447
20871SOL    HW174672   0.108  -0.008   9.498  2.1208  1.1335 -0.5732
20871SOL    HW274673   0.074  -0.003   9.658 -0.8466  0.5083 -1.1451
20872SOL     OW74674   9.589   7.405   9.872 -0.4481  0.1820 -0.7936
20872SOL    HW174675   9.558   7.452   9.956  0.5963  0.1471 -0.3860
20872SOL    HW274676   9.510   7.390   9.812 -1.2167  0.1443  0.2121
20873SOL     OW74677   0.572   1.438   1.325 -0.0555 -0.0464  0.0748
20873SOL    HW174678   0.591   1.397   1.235 -0.2095  0.2070 -0.0743
20873SOL    HW274679   0.485   1.487   1.321 -1.3737 -2.2394  1.0945
20874SOL     OW74680   2.392   8.729   2.860 -0.0458  0.4834 -0.5808
20874SOL    HW174681   2.381   8.732   2.959 -0.5859  2.9765 -0.6800
20874SOL    HW274682   2.305   8.703   2.818  0.4134 -1.4340 -0.3828
20875SOL     OW74683   0.894   1.477   0.910 -0.1880  0.3029 -0.7938
20875SOL    HW174684   0.897   1.377   0.910  0.0752  0.2971 -2.4623
20875SOL    HW274685   0.806   1.508   0.945 -0.5928 -0.5424 -1.0641
20876SOL     OW74686   5.152   4.320   3.105  0.0918  0.5129 -0.5407
20876SOL    HW174687   5.085   4.257   3.066 -0.2797  1.5138 -1.5551
20876SOL    HW274688   5.106   4.402   3.140  0.6954  0.8679 -0.5558
20877SOL     OW74689   5.594   2.130   0.121  0.5869 -0.0642 -0.2216
20877SOL    HW174690   5.629   2.061   0.058 -1.0639  1.4115 -2.8972
20877SOL    HW274691   5.508   2.099   0.161  0.6602 -0.2199 -0.1877
20878SOL     OW74692   5.409   5.954   9.425 -0.0907 -0.5474  0.7378
20878SOL    HW174693   5.424   6.017   9.349  0.4135  0.1274  1.3838
20878SOL    HW274694   5.421   5.860   9.394  0.9523 -0.2371  0.1836
20879SOL     OW74695   6.061   5.868   2.779 -0.3416 -0.4232 -0.3483
20879SOL    HW174696   6.149   5.908   2.806 -1.4308  2.1134 -0.3869
20879SOL    HW274697   6.034   5.799   2.846  0.4350  0.6257  1.0749
20880SOL     OW74698   8.182   1.566   6.388 -0.1540 -0.0652 -0.1094
20880SOL    HW174699   8.204   1.633   6.459  0.4841  1.3228 -1.5662
20880SOL    HW274700   8.219   1.477   6.413 -0.4480  0.2582  1.5622
20881SOL     OW74701   7.300   7.748   3.054 -0.4334 -0.3431  0.2611
20881SOL    HW174702   7.217   7.800   3.036 -0.3801 -0.0626  0.8105
20881SOL    HW274703   7.345   7.783   3.136  0.4423 -0.2381 -0.2555
20882SOL     OW74704   7.731   2.193   0.257 -0.1126  0.4604  0.6106
20882SOL    HW174705   7.819   2.148   0.246  0.0889  0.9600  0.1123
20882SOL    HW274706   7.728   2.240   0.345 -0.8012 -1.5457  1.6939
20883SOL     OW74707   2.047   9.842   4.325 -0.2557  0.5731  0.4672
20883SOL    HW174708   2.078   9.767   4.383  1.7468  1.8978  1.1646
20883SOL    HW274709   2.099   9.842   4.239 -0.4249  1.0081  0.3620
20884SOL     OW74710   7.270   7.480   2.451  0.5085 -0.2661  0.2397
20884SOL    HW174711   7.283   7.381   2.464 -2.1510 -0.5648  0.8277
20884SOL    HW274712   7.334   7.530   2.508 -1.7119 -1.6350  4.0645
20885SOL     OW74713   3.779   9.236   1.236  0.8433 -0.5055  0.1840
20885SOL    HW174714   3.717   9.157   1.239 -0.3335  0.4724  1.6977
20885SOL    HW274715   3.869   9.209   1.271  1.0417 -1.6811 -1.1638
20886SOL     OW74716   9.428   9.391   3.264 -0.1332 -0.5866  0.2553
20886SOL    HW174717   9.331   9.371   3.253 -0.3220  1.0792 -1.4673
20886SOL    HW274718   9.480   9.305   3.269 -1.6571 -1.4836  1.1013
20887SOL     OW74719   8.961   0.032   5.722 -0.4879  0.0168 -0.2584
20887SOL    HW174720   9.048  -0.018   5.715  0.8922  2.4458 -1.1498
20887SOL    HW274721   8.951   0.069   5.814 -0.3649  0.0884 -0.2737
20888SOL     OW74722   0.972   4.953   2.662  0.1693 -0.0368  0.3715
20888SOL    HW174723   0.949   4.870   2.611 -1.5519  0.4205  0.3385
20888SOL    HW274724   0.938   5.033   2.612  2.1979  0.7373  0.1788
20889SOL     OW74725   1.413   0.583   3.689  0.4122  0.3740  0.0205
20889SOL    HW174726   1.327   0.624   3.719  0.2119 -0.8048  1.0992
20889SOL    HW274727   1.403   0.484   3.686  1.1915  0.3232 -1.6142
20890SOL     OW74728   7.258   1.953   1.947  0.2444 -0.0099  0.3427
20890SOL    HW174729   7.351   1.989   1.948 -0.7057  2.6299 -0.1097
20890SOL    HW274730   7.240   1.904   2.032  1.7655  0.2176  0.8114
20891SOL     OW74731   5.706   9.028   0.098  0.2796 -0.2134  0.7270
20891SOL    HW174732   5.719   9.085   0.017 -1.0894  1.3368  1.5698
20891SOL    HW274733   5.793   8.984   0.122  0.8359 -0.2213 -1.2041
20892SOL     OW74734   3.543   7.722   8.680  0.0665  0.2468  0.3376
20892SOL    HW174735   3.468   7.770   8.727 -0.4289 -0.9193  0.7697
20892SOL    HW274736   3.505   7.648   8.625  0.9567 -0.7689  1.0791
20893SOL     OW74737   9.562   5.121   2.679 -0.4982 -0.4248  0.0899
20893SOL    HW174738   9.562   5.182   2.758  0.0615 -0.4726  0.1299
20893SOL    HW274739   9.474   5.127   2.632 -1.1102 -0.9539  1.1416
20894SOL     OW74740   6.573   0.056   3.161 -0.1790  0.0020  0.0494
20894SOL    HW174741   6.548   0.136   3.216  1.6910  0.7547 -0.1490
20894SOL    HW274742   6.492   0.020   3.116 -1.1911  1.3057  0.7982
20895SOL     OW74743   5.429   9.300   0.163 -0.4703  0.0442 -0.6358
20895SOL    HW174744   5.460   9.211   0.130  0.7747 -0.2867  1.3175
20895SOL    HW274745   5.358   9.287   0.232 -0.0460  0.5428 -0.0991
20896SOL     OW74746   7.729   8.274   2.482 -0.0384  0.4452 -0.0774
20896SOL    HW174747   7.752   8.311   2.572 -2.3906 -0.3632  0.8938
20896SOL    HW274748   7.722   8.348   2.415  2.0930  1.0097  0.3013
20897SOL     OW74749   6.497   1.918   1.177  0.1564  0.1595 -0.1141
20897SOL    HW174750   6.481   2.003   1.128  2.4688  0.0747 -1.0951
20897SOL    HW274751   6.546   1.937   1.262  1.0555 -0.2183 -0.5398
20898SOL     OW74752   7.192   7.411   7.383 -0.5655  0.0162 -0.1868
20898SOL    HW174753   7.124   7.464   7.332 -0.4448  0.5747  0.2311
20898SOL    HW274754   7.170   7.314   7.376 -2.2134  0.2733  1.1155
20899SOL     OW74755   7.267   6.765   2.863  0.6714  0.0400 -0.4294
20899SOL    HW174756   7.202   6.810   2.803  0.6549  0.9795  0.2780
20899SOL    HW274757   7.349   6.822   2.872  0.2711  0.3963  1.2011
20900SOL     OW74758   8.546   7.978   7.879  0.2307 -0.2529 -0.7050
20900SOL    HW174759   8.482   7.930   7.820 -0.2583  0.0692 -0.4352
20900SOL    HW274760   8.497   8.041   7.938  0.9100  0.9553 -1.4055
20901SOL     OW74761   1.400   4.528   5.842 -0.2155  0.2125  0.1097
20901SOL    HW174762   1.408   4.453   5.908  0.2292  1.6574  1.7493
20901SOL    HW274763   1.476   4.525   5.777 -1.5275 -2.1678 -1.3638
20902SOL     OW74764   5.787   0.147   8.336 -0.4833  0.3754 -0.6196
20902SOL    HW174765   5.705   0.108   8.294 -0.8812  0.7480 -0.1922
20902SOL    HW274766   5.775   0.151   8.435 -0.9169  2.6107 -0.7311
20903SOL     OW74767   1.052   9.308   3.798  0.1211  0.1339  0.2186
20903SOL    HW174768   1.040   9.337   3.704 -0.2299 -1.1706 -0.1466
20903SOL    HW274769   0.963   9.306   3.844  0.1488 -0.3244  0.2511
20904SOL     OW74770   4.890   0.999   9.742 -0.2064 -0.0064 -0.0724
20904SOL    HW174771   4.982   0.961   9.736 -0.2621 -0.2803  0.8550
20904SOL    HW274772   4.895   1.091   9.781 -0.5194 -0.7941  1.8718
20905SOL     OW74773   8.887   7.727   4.098  0.2093 -0.0056  0.2044
20905SOL    HW174774   8.873   7.826   4.102  0.7757  0.0985 -0.3327
20905SOL    HW274775   8.866   7.686   4.187  1.1388  0.7433  0.7739
20906SOL     OW74776   5.577   8.291   8.428 -0.2565 -0.5515  0.3317
20906SOL    HW174777   5.552   8.230   8.353  1.2229  0.1267 -0.7361
20906SOL    HW274778   5.556   8.386   8.402  0.9038 -0.2457  0.4746
20907SOL     OW74779   3.263   5.451   0.764  0.7818  0.3492 -0.7173
20907SOL    HW174780   3.247   5.530   0.824 -0.7993 -0.8897  0.5244
20907SOL    HW274781   3.354   5.459   0.722  1.5533  1.6741  1.1558
20908SOL     OW74782   9.349   7.338   2.433  0.1510 -0.0419  0.4197
20908SOL    HW174783   9.438   7.315   2.394 -0.0986  0.6378 -0.5771
20908SOL    HW274784   9.287   7.365   2.359 -0.5158  0.6717  1.2424
20909SOL     OW74785   0.507   4.484   3.766 -0.3689 -0.2293  0.3862
20909SOL    HW174786   0.602   4.454   3.773  0.7232  2.7091 -0.9982
20909SOL    HW274787   0.461   4.471   3.854  1.1680 -2.1386  0.9285
20910SOL     OW74788   0.162   6.884   4.918  0.1384 -0.0845  0.8054
20910SOL    HW174789   0.203   6.886   4.827 -1.4210  0.0262  0.0844
20910SOL    HW274790   0.196   6.804   4.968 -1.4849 -2.0080 -1.0876
20911SOL     OW74791   4.616   3.032   4.045 -0.1092  0.1458  0.3616
20911SOL    HW174792   4.683   3.025   3.971  0.6638 -0.2827  1.1018
20911SOL    HW274793   4.601   2.942   4.085  0.0869  0.5100  1.2720
20912SOL     OW74794   5.695   2.180   2.118 -0.2363 -0.0381  0.6609
20912SOL    HW174795   5.644   2.175   2.031  0.4113 -2.1303  0.3696
20912SOL    HW274796   5.638   2.144   2.191  0.7185 -2.2142  0.3663
20913SOL     OW74797   1.138   7.365   0.088 -0.4171  0.0202  0.4388
20913SOL    HW174798   1.178   7.394   0.001  0.5104  0.1820  0.9105
20913SOL    HW274799   1.210   7.361   0.158 -1.2548  0.4468  1.3332
20914SOL     OW74800   7.254   7.348   3.601  0.5328  0.0412  0.7973
20914SOL    HW174801   7.351   7.328   3.587  0.2791 -0.1088 -0.8564
20914SOL    HW274802   7.220   7.403   3.525 -1.1573 -1.5871  0.3433
20915SOL     OW74803   9.871   4.258   3.877  0.0346  0.5803  0.1091
20915SOL    HW174804   9.935   4.332   3.900  1.0289 -0.6775  1.4936
20915SOL    HW274805   9.784   4.274   3.924 -0.4762  1.9552 -1.2621
20916SOL     OW74806   3.566   9.470   4.628  0.0247 -0.0642  0.5782
20916SOL    HW174807   3.576   9.391   4.688  2.2843 -1.6276 -1.7204
20916SOL    HW274808   3.630   9.541   4.655  1.3317 -0.9305 -0.1833
20917SOL     OW74809   8.808   1.324   2.813  0.1172 -0.2848 -0.3720
20917SOL    HW174810   8.878   1.322   2.742  1.2705 -1.1062  0.7765
20917SOL    HW274811   8.761   1.412   2.812  1.4862  0.4365 -0.8235
20918SOL     OW74812   1.287   9.959   1.432 -0.1378  0.4103  0.2039
20918SOL    HW174813   1.246   9.892   1.493 -0.9624 -0.6693 -1.4794
20918SOL    HW274814   1.282  10.050   1.473 -1.8670 -0.0949  1.1467
20919SOL     OW74815   0.359   2.611   7.781  0.4143  0.0702  0.9951
20919SOL    HW174816   0.387   2.583   7.872 -1.5392 -1.3355  1.2024
20919SOL    HW274817   0.338   2.530   7.725  2.5002  0.8700 -1.0185
20920SOL     OW74818   5.068   5.056   0.616  0.0119  0.0571 -0.2130
20920SOL    HW174819   5.133   5.132   0.609 -0.5958  0.6821  0.8437
20920SOL    HW274820   5.089   4.988   0.545  0.9424  0.9108 -0.7769
20921SOL     OW74821   0.174   2.079   1.069 -0.3306 -0.3292 -0.3088
20921SOL    HW174822   0.076   2.101   1.072 -0.7653 -2.4314  1.8565
20921SOL    HW274823   0.186   1.981   1.053  1.4472 -0.0854 -0.5829
20922SOL     OW74824   7.416   5.088   7.701 -0.2800  0.4751 -0.8453
20922SOL    HW174825   7.365   5.006   7.726 -0.7477  0.5250 -1.6367
20922SOL    HW274826   7.356   5.168   7.707 -0.7058  0.3637 -3.1377
20923SOL     OW74827   4.498   8.988   3.416  0.2932 -0.0141  0.2859
20923SOL    HW174828   4.447   9.020   3.336 -0.4520 -1.6209  0.1061
20923SOL    HW274829   4.542   8.901   3.395  2.9860  1.2392  0.5048
20924SOL     OW74830   7.325   0.730   4.004  0.6169 -0.2593 -0.2879
20924SOL    HW174831   7.265   0.711   4.082  1.6943  0.2292  0.6702
20924SOL    HW274832   7.269   0.761   3.927 -0.4622 -0.7542  0.2757
20925SOL     OW74833   7.407   9.442   6.415  0.1149 -0.1442  0.0705
20925SOL    HW174834   7.364   9.405   6.497  0.8597 -0.1056  0.4802
20925SOL    HW274835   7.346   9.509   6.373 -0.2194 -0.0724  0.6630
20926SOL     OW74836   2.653   0.532   2.247  0.0340 -0.0028 -0.9436
20926SOL    HW174837   2.731   0.518   2.308  0.7890  0.5883 -1.7767
20926SOL    HW274838   2.647   0.628   2.222  0.3340 -0.4026 -2.6076
20927SOL     OW74839   0.143   9.296   6.011 -0.4545 -0.8821 -0.2695
20927SOL    HW174840   0.212   9.331   6.074  0.4221  0.2396 -1.8157
20927SOL    HW274841   0.184   9.285   5.921 -2.0414 -1.1790 -0.9575
20928SOL     OW74842   5.263   1.058   8.800 -0.6331 -0.3566  0.2632
20928SOL    HW174843   5.220   0.976   8.761 -0.8976  0.4140 -1.0906
20928SOL    HW274844   5.354   1.034   8.834  0.5797 -0.5987 -2.9371
20929SOL     OW74845   7.700   7.669   6.807  0.5834 -0.0760  0.0194
20929SOL    HW174846   7.734   7.641   6.717 -1.3232  0.1404 -0.7993
20929SOL    HW274847   7.631   7.740   6.795 -0.5452 -0.8943  1.6113
20930SOL     OW74848   4.944   5.947   8.341 -0.6128 -0.1366  0.3726
20930SOL    HW174849   4.959   5.969   8.245  0.6655 -1.0891  0.3471
20930SOL    HW274850   5.031   5.947   8.390 -1.1095 -0.8260  1.2753
20931SOL     OW74851   8.197   3.656   2.271 -0.8191  0.9105 -0.3825
20931SOL    HW174852   8.158   3.627   2.183 -2.1337  3.2462 -0.6193
20931SOL    HW274853   8.144   3.733   2.307 -0.2422  0.0436  2.4421
20932SOL     OW74854   0.133   8.887   4.614 -0.3106  0.6657  0.0703
20932SOL    HW174855   0.144   8.911   4.517  0.5540 -1.3367 -0.3619
20932SOL    HW274856   0.220   8.902   4.661 -0.0020 -0.8239 -0.0280
20933SOL     OW74857   8.209   8.754   4.656 -0.0643 -0.3793  0.0850
20933SOL    HW174858   8.243   8.713   4.572 -1.1428 -0.7334 -0.1799
20933SOL    HW274859   8.166   8.842   4.635  0.5037 -0.0184  0.3967
20934SOL     OW74860   7.998   8.477   3.599 -0.7697  0.0576 -1.2750
20934SOL    HW174861   8.053   8.395   3.610 -1.4207 -0.1062  0.9401
20934SOL    HW274862   7.901   8.452   3.593 -1.1855  0.7326  1.5940
20935SOL     OW74863   3.239   1.950   9.225  0.4048 -0.4134 -0.4590
20935SOL    HW174864   3.249   1.922   9.129 -0.4646 -2.2216 -0.0290
20935SOL    HW274865   3.142   1.959   9.247  0.6184  2.9090 -0.5382
20936SOL     OW74866   7.680   0.011   4.620 -0.3840  0.5289 -0.0229
20936SOL    HW174867   7.778  -0.011   4.612 -0.5137 -0.5933  1.2123
20936SOL    HW274868   7.667   0.109   4.607  0.7764  0.5361 -1.2414
20937SOL     OW74869   8.489   8.854   4.301  0.2777  0.0301  0.1780
20937SOL    HW174870   8.456   8.767   4.337  0.4882  0.8477  2.4967
20937SOL    HW274871   8.553   8.838   4.226 -1.1696 -1.7296 -0.7136
20938SOL     OW74872   9.273   8.311   3.119  0.2088  0.0917  1.0472
20938SOL    HW174873   9.276   8.394   3.064  0.7203 -0.0702  0.8252
20938SOL    HW274874   9.263   8.231   3.060  1.2932 -0.1253  1.1330
20939SOL     OW74875   8.132   0.897   9.676 -0.0688 -0.0601  0.1325
20939SOL    HW174876   8.095   0.940   9.759  0.7561  0.4222  0.2604
20939SOL    HW274877   8.059   0.851   9.627 -1.0787  1.9345 -0.2810
20940SOL     OW74878   9.763   1.686   2.509  0.5851 -0.6396 -0.5247
20940SOL    HW174879   9.693   1.707   2.441  0.0792 -1.5485 -0.2962
20940SOL    HW274880   9.739   1.731   2.596 -0.2790 -1.8126 -0.1497
20941SOL     OW74881   4.775   4.904   4.270 -0.8464 -0.4742  0.6911
20941SOL    HW174882   4.833   4.963   4.326 -0.4307 -0.0553 -0.1782
20941SOL    HW274883   4.754   4.950   4.184  0.2454 -1.9910 -0.3973
20942SOL     OW74884   8.932   8.369   6.094 -0.3533 -0.3884 -0.2111
20942SOL    HW174885   8.976   8.458   6.106 -1.7796  0.1749  0.9332
20942SOL    HW274886   8.875   8.372   6.011 -0.5884 -0.1584 -0.0425
20943SOL     OW74887   1.900   7.295   3.826  0.5331 -0.1505 -0.1156
20943SOL    HW174888   1.902   7.380   3.772 -0.7734 -0.1890 -0.2487
20943SOL    HW274889   1.899   7.318   3.923 -0.0185  0.0061 -0.1527
20944SOL     OW74890   8.565   8.562   3.382  0.2791 -0.2407 -0.4663
20944SOL    HW174891   8.471   8.592   3.370  0.2494  0.0022  0.3317
20944SOL    HW274892   8.566   8.464   3.405  0.2017 -0.1769 -0.1822
20945SOL     OW74893   6.413   0.285   1.895  0.1210  1.1720  0.2039
20945SOL    HW174894   6.477   0.242   1.832 -0.4254 -0.2985  0.6265
20945SOL    HW274895   6.353   0.348   1.845  0.8838  1.3892 -0.4350
20946SOL     OW74896   2.610   8.659   2.481 -0.0333 -0.1715  0.2922
20946SOL    HW174897   2.513   8.636   2.470 -0.3567  1.4674 -0.4167
20946SOL    HW274898   2.648   8.684   2.392  1.5117 -2.4860  0.2488
20947SOL     OW74899   4.441   2.056   9.650 -0.2407 -0.2180 -0.3954
20947SOL    HW174900   4.518   2.037   9.710 -0.4548 -0.2354 -0.1247
20947SOL    HW274901   4.453   2.007   9.564  0.3730  0.3032 -0.6113
20948SOL     OW74902   8.164   9.268   2.986 -0.0845 -0.2716 -0.2188
20948SOL    HW174903   8.225   9.285   2.909  0.4668 -0.3310  0.2012
20948SOL    HW274904   8.087   9.212   2.956 -0.4060  0.5592 -0.9563
20949SOL     OW74905   5.776   8.415   6.860 -0.2411  0.0940 -0.1277
20949SOL    HW174906   5.847   8.437   6.792 -0.3562  0.9216  0.0187
20949SOL    HW274907   5.690   8.394   6.813  0.1378 -1.0977 -0.3160
20950SOL     OW74908   4.276   7.628   8.118 -0.2603  0.6430  0.6683
20950SOL    HW174909   4.251   7.532   8.105  0.8649  0.4057  0.2637
20950SOL    HW274910   4.222   7.685   8.055  1.5718 -0.0457 -1.5851
20951SOL     OW74911   9.601   1.910   3.827  0.3000 -0.5873  0.2104
20951SOL    HW174912   9.548   1.959   3.758 -1.5114  0.1298  2.0948
20951SOL    HW274913   9.616   1.816   3.795 -0.3552 -0.2259 -1.2411
20952SOL     OW74914   6.749   9.918   3.483  0.4537 -1.1551 -0.7636
20952SOL    HW174915   6.799   9.950   3.402  1.8139 -2.4729 -0.4551
20952SOL    HW274916   6.668   9.867   3.454 -0.9318  1.2436 -1.2653
20953SOL     OW74917   1.276   5.381   2.600  0.2933  0.8757 -0.4045
20953SOL    HW174918   1.176   5.387   2.601  0.2032 -0.2880  2.5387
20953SOL    HW274919   1.314   5.467   2.633  0.2563  1.2184 -1.2516
20954SOL     OW74920   5.989   6.181   3.742 -0.2841 -0.3159 -0.1674
20954SOL    HW174921   6.087   6.203   3.742 -0.1913 -0.6488  1.7818
20954SOL    HW274922   5.940   6.249   3.689  1.1171 -0.7160 -2.0444
20955SOL     OW74923   7.716   8.461   5.019 -0.7418  0.3971  0.0702
20955SOL    HW174924   7.634   8.498   5.063 -0.6557 -0.2279  0.7603
20955SOL    HW274925   7.745   8.379   5.067 -0.6543 -0.2998 -1.1552
20956SOL     OW74926   7.448   9.797   6.362 -0.2291  0.0157  0.1201
20956SOL    HW174927   7.371   9.733   6.365 -1.5728  1.5428 -0.5829
20956SOL    HW274928   7.415   9.889   6.383  1.4905  0.6409  0.1672
20957SOL     OW74929   4.647   9.968   1.261 -0.0309 -0.1618 -0.3817
20957SOL    HW174930   4.629   9.986   1.164  2.2714 -0.5000 -0.9075
20957SOL    HW274931   4.653  10.055   1.310 -2.3075 -0.0219 -0.3030
20958SOL     OW74932   7.967   3.056   5.271 -0.0631  0.0530 -0.6961
20958SOL    HW174933   7.921   2.986   5.218 -0.9874  1.0830 -1.2633
20958SOL    HW274934   7.980   3.024   5.365 -3.9792  0.5595  0.1259
20959SOL     OW74935   1.224   5.004   3.763 -0.3622 -0.2406  0.9848
20959SOL    HW174936   1.171   4.919   3.771  1.4077 -1.3953  0.5487
20959SOL    HW274937   1.162   5.082   3.775 -1.7973 -1.5833  2.6231
20960SOL     OW74938   5.412   2.802   1.943  0.0624  0.0899  0.6598
20960SOL    HW174939   5.400   2.743   2.022 -0.4217  0.9687  1.2430
20960SOL    HW274940   5.510   2.808   1.921  0.0390 -1.7591 -0.0541
20961SOL     OW74941   8.489   1.139   1.590  0.4126 -0.0292  0.4269
20961SOL    HW174942   8.555   1.116   1.519  0.0330 -1.8013  0.6247
20961SOL    HW274943   8.429   1.212   1.558  1.8563  0.9325 -0.1074
20962SOL     OW74944   9.176   8.946   7.452 -0.7003  0.4677  0.5306
20962SOL    HW174945   9.206   8.861   7.495 -1.6075  0.2556  0.7528
20962SOL    HW274946   9.166   9.017   7.522 -2.3762  0.0645  0.7116
20963SOL     OW74947   4.759   9.037   0.028  0.0547  0.0584  0.2493
20963SOL    HW174948   4.661   9.048   0.045 -0.0363 -1.4514  0.8274
20963SOL    HW274949   4.772   8.983  -0.056  0.4175  1.4026 -0.5710
20964SOL     OW74950   9.204   7.475   3.089  0.5827  0.2562 -0.0818
20964SOL    HW174951   9.228   7.559   3.138 -0.0691  1.2784 -1.4947
20964SOL    HW274952   9.104   7.468   3.082  0.6489 -0.3552 -0.4566
20965SOL     OW74953   8.677   4.372   6.465 -0.4591  0.4885  0.0038
20965SOL    HW174954   8.616   4.351   6.542 -2.0347  0.8654 -1.1197
20965SOL    HW274955   8.706   4.287   6.421  0.9374  0.2379  1.3657
20966SOL     OW74956   0.135   9.989   2.812 -1.0235 -0.3050 -0.1032
20966SOL    HW174957   0.135   9.892   2.834 -0.4365 -0.2098  0.3461
20966SOL    HW274958   0.229  10.022   2.809 -1.3007  0.9072  2.7790
20967SOL     OW74959   7.865   2.176   1.911 -0.1194 -0.6316 -0.5615
20967SOL    HW174960   7.849   2.080   1.935  0.5742 -0.5737  0.1250
20967SOL    HW274961   7.934   2.181   1.838  1.8362 -0.5231  1.2672
20968SOL     OW74962   8.418   3.182   3.637 -0.4661 -1.0311 -1.0678
20968SOL    HW174963   8.479   3.117   3.591  1.5190 -0.0445  0.1148
20968SOL    HW274964   8.426   3.272   3.594 -2.1173 -1.2223 -1.7751
20969SOL     OW74965   1.433   0.710   7.107  0.8284  0.0874  0.2570
20969SOL    HW174966   1.497   0.652   7.057 -0.4538 -1.1363  0.0153
20969SOL    HW274967   1.358   0.736   7.048  0.2268  0.1101  1.0166
20970SOL     OW74968   5.526   3.423   8.549  0.0487 -0.1958 -0.0715
20970SOL    HW174969   5.522   3.522   8.565  1.1492  0.1014 -1.5004
20970SOL    HW274970   5.463   3.377   8.610 -0.8286  1.4385  0.2875
20971SOL     OW74971   6.513   9.928   7.991  0.3143 -0.6978 -0.6945
20971SOL    HW174972   6.434   9.986   8.011  0.7968 -0.3351  0.1783
20971SOL    HW274973   6.527   9.924   7.892 -0.8271 -0.8127 -0.8588
20972SOL     OW74974   0.957   9.507   0.678  0.5725 -0.1871  0.8402
20972SOL    HW174975   0.987   9.581   0.737  0.9803 -1.8498  2.7568
20972SOL    HW274976   0.875   9.465   0.716  1.0093 -1.4597  0.4133
20973SOL     OW74977   4.225   5.485   8.145  0.6732 -0.2360  0.0681
20973SOL    HW174978   4.308   5.505   8.092  0.7198 -1.4622 -0.3252
20973SOL    HW274979   4.147   5.531   8.102  1.0747  0.5819  0.2023
20974SOL     OW74980   7.313   1.142   6.650  0.8438 -0.3584 -0.5467
20974SOL    HW174981   7.326   1.168   6.555  0.2767  0.2253 -0.4717
20974SOL    HW274982   7.244   1.202   6.692  0.0708 -1.5020 -0.1584
20975SOL     OW74983   6.585   9.806   1.839  0.8794 -0.3476 -0.1558
20975SOL    HW174984   6.629   9.860   1.910  0.2082 -0.0091  0.0075
20975SOL    HW274985   6.556   9.718   1.877  1.8526 -0.7798 -0.3892
20976SOL     OW74986   2.603   6.592   4.388 -0.3494  0.1007  0.8776
20976SOL    HW174987   2.551   6.511   4.416  3.0160 -2.2329  0.6693
20976SOL    HW274988   2.608   6.595   4.288 -0.5698  0.6670  0.8823
20977SOL     OW74989   3.501   0.809   7.310 -0.0423  0.1689 -0.5469
20977SOL    HW174990   3.528   0.735   7.372  1.2210  0.4868 -0.7004
20977SOL    HW274991   3.549   0.893   7.336 -0.9965  0.7883 -0.7584
20978SOL     OW74992   8.840   7.945   6.018  0.1174 -0.6951 -0.1025
20978SOL    HW174993   8.870   7.944   6.113  1.1276 -4.1377 -0.3934
20978SOL    HW274994   8.918   7.961   5.958 -0.4605  1.1279 -0.4129
20979SOL     OW74995   8.260   9.122   3.411  0.7529 -0.1753  0.1013
20979SOL    HW174996   8.301   9.037   3.444 -0.9452 -0.6976  0.9225
20979SOL    HW274997   8.295   9.143   3.320  0.9916 -1.9075 -0.2183
20980SOL     OW74998   1.291   7.686   7.889 -0.3732  0.0674 -0.0679
20980SOL    HW174999   1.204   7.735   7.889 -0.1065  0.5426  0.6109
20980SOL    HW275000   1.286   7.608   7.951 -0.1337  0.4136  0.3833
20981SOL     OW75001   4.642   9.016   7.733 -0.0435 -0.3729  0.2421
20981SOL    HW175002   4.670   8.921   7.716  0.7423 -0.3028  1.1537
20981SOL    HW275003   4.544   9.025   7.712 -0.0912 -1.3412 -0.0110
20982SOL     OW75004   4.760   1.646   2.678 -0.2851  0.2501  0.0745
20982SOL    HW175005   4.799   1.702   2.751 -0.1063 -0.2314  0.3544
20982SOL    HW275006   4.818   1.565   2.663 -0.5659  0.1125 -0.2848
20983SOL     OW75007   7.357   6.351   7.802  0.2748 -0.4742  0.3315
20983SOL    HW175008   7.345   6.261   7.843  0.8571 -0.5151  0.4202
20983SOL    HW275009   7.382   6.417   7.873 -0.8250 -0.0952  0.3733
20984SOL     OW75010   4.959   7.618   2.804  0.8174 -0.4823  0.2255
20984SOL    HW175011   4.913   7.565   2.733  2.4272 -1.6203  0.0212
20984SOL    HW275012   4.895   7.636   2.879 -1.3701  2.0069 -2.1139
20985SOL     OW75013   7.042   5.584   9.620 -0.4500  0.0593 -0.0895
20985SOL    HW175014   6.956   5.629   9.593 -0.5524  0.2170  0.4936
20985SOL    HW275015   7.118   5.625   9.569 -0.9596 -1.5424 -2.2215
20986SOL     OW75016   8.393   0.292   2.573 -0.4533 -0.4850  0.0485
20986SOL    HW175017   8.345   0.271   2.488 -1.1308 -0.0541  0.3240
20986SOL    HW275018   8.328   0.291   2.649  0.7188 -4.4041  1.1150
20987SOL     OW75019   9.365   1.141   8.459  0.4486  0.5365  0.2053
20987SOL    HW175020   9.423   1.223   8.455 -0.4990  1.2348  0.5392
20987SOL    HW275021   9.409   1.072   8.516  0.2349  1.6497  1.7541
20988SOL     OW75022   5.947   8.744   2.711 -0.0110 -0.4445  0.5920
20988SOL    HW175023   5.862   8.693   2.694 -0.0389 -0.9296  2.0972
20988SOL    HW275024   5.930   8.841   2.698 -0.3414 -0.6841 -0.8494
20989SOL     OW75025   2.991   0.694   0.819 -0.5780 -0.4222 -0.2525
20989SOL    HW175026   3.039   0.752   0.754 -0.1262 -0.4302  0.0750
20989SOL    HW275027   2.937   0.751   0.881  2.7364 -0.0535  2.4391
20990SOL     OW75028   3.809   5.366   1.768 -0.0435 -0.2236 -0.3388
20990SOL    HW175029   3.728   5.378   1.826  1.6117  1.7060  1.7137
20990SOL    HW275030   3.861   5.452   1.766  0.0525 -0.2887 -4.6311
20991SOL     OW75031   5.703   9.223   8.163  1.3848  0.1074  0.3532
20991SOL    HW175032   5.745   9.311   8.140 -0.4178  0.7891 -0.4523
20991SOL    HW275033   5.689   9.217   8.262 -0.9556  1.9161  0.1706
20992SOL     OW75034   7.466   7.319   2.582  0.1739  1.0738  0.7029
20992SOL    HW175035   7.426   7.294   2.670  0.1259  0.8338  0.6131
20992SOL    HW275036   7.560   7.350   2.595  0.1205  1.1704  0.8555
20993SOL     OW75037   2.280   9.977   5.351  0.3579  0.1271 -0.3283
20993SOL    HW175038   2.318   9.992   5.442 -0.1403 -2.2509  0.3011
20993SOL    HW275039   2.208   9.909   5.356  0.1694  0.1409 -2.4838
20994SOL     OW75040   4.271   6.976   1.628  0.4859  0.3696 -0.0953
20994SOL    HW175041   4.196   6.968   1.563  0.9379  2.2722 -0.8934
20994SOL    HW275042   4.287   6.888   1.672 -0.0749 -0.8580 -2.2737
20995SOL     OW75043   5.244   5.834   2.582  0.1035  0.1358 -0.3509
20995SOL    HW175044   5.170   5.776   2.616 -0.6011 -0.1768 -2.3765
20995SOL    HW275045   5.332   5.792   2.602 -0.2863  0.0325  1.2000
20996SOL     OW75046   7.577   0.187   7.557  0.0381  0.6001  0.1237
20996SOL    HW175047   7.498   0.239   7.589 -0.6786  0.0499 -0.7424
20996SOL    HW275048   7.618   0.234   7.478  0.2827  0.6267  0.2665
20997SOL     OW75049   5.044   2.337   1.824  0.2703 -0.6973 -0.3740
20997SOL    HW175050   5.069   2.249   1.785  2.0637 -0.1344 -0.5233
20997SOL    HW275051   5.125   2.381   1.863 -0.5281  1.0489 -0.6348
20998SOL     OW75052   4.964   6.238   3.084 -0.2404 -0.2385 -0.0679
20998SOL    HW175053   5.021   6.289   3.148  1.0805 -1.2445 -0.4264
20998SOL    HW275054   5.021   6.196   3.013 -1.5508 -0.1659 -1.2091
20999SOL     OW75055   5.643   9.705   7.681  0.1408 -0.2690 -0.2066
20999SOL    HW175056   5.662   9.781   7.619  1.8098 -1.9029 -1.7750
20999SOL    HW275057   5.725   9.683   7.734 -0.1689 -1.2762 -0.1226
21000SOL     OW75058   6.920   7.996   2.848  0.2363 -0.3608 -0.0674
21000SOL    HW175059   6.930   7.911   2.797  0.7730 -0.1246 -0.3591
21000SOL    HW275060   6.901   8.071   2.784 -0.7393 -0.3487  0.2318
21001SOL     OW75061   9.800   5.421   6.943  0.6494  0.0695 -0.1354
21001SOL    HW175062   9.823   5.452   6.851 -2.0254  1.0772 -0.5270
21001SOL    HW275063   9.764   5.328   6.939 -1.3674  0.8205 -0.4454
21002SOL     OW75064   4.575   0.324   9.861 -0.4675 -0.3630  0.6031
21002SOL    HW175065   4.640   0.270   9.914 -1.1803 -2.5746 -0.7330
21002SOL    HW275066   4.490   0.273   9.850 -0.8292  0.6520 -1.4856
21003SOL     OW75067   8.372   8.364   5.605  0.1826 -0.1158 -0.4531
21003SOL    HW175068   8.372   8.391   5.701  1.6036 -1.2992 -0.0986
21003SOL    HW275069   8.436   8.421   5.554 -0.7595  0.6793 -0.7524
21004SOL     OW75070   7.086   3.969   1.317  0.7019 -0.0809  0.0207
21004SOL    HW175071   7.043   3.890   1.360 -2.1130  1.8701  0.8803
21004SOL    HW275072   7.045   3.985   1.227  0.8259  0.7768  0.1118
21005SOL     OW75073   6.089   6.564   5.099  0.2228 -0.8778  0.0875
21005SOL    HW175074   6.177   6.529   5.065  1.3099  0.3745  1.5452
21005SOL    HW275075   6.064   6.514   5.182 -0.0334 -0.6664  0.1348
21006SOL     OW75076   7.289   8.902   4.358 -0.0247 -0.4275 -0.2474
21006SOL    HW175077   7.356   8.910   4.432 -1.5161 -0.4619  1.1347
21006SOL    HW275078   7.334   8.864   4.277  1.7876  0.2408  0.4035
21007SOL     OW75079   6.915   0.760   0.462  0.0743 -0.7435 -0.1874
21007SOL    HW175080   6.839   0.758   0.397 -0.4564 -1.0296  0.4420
21007SOL    HW275081   6.998   0.725   0.417 -0.1030 -0.2203 -0.9410
21008SOL     OW75082   7.747   9.915   9.681  0.0142 -0.2901 -0.3377
21008SOL    HW175083   7.756   9.819   9.657  0.4424 -0.5372  0.7915
21008SOL    HW275084   7.703   9.923   9.771  0.9941  0.5290  0.0773
21009SOL     OW75085   2.598   0.286   0.181 -0.0112  0.3080 -0.3385
21009SOL    HW175086   2.640   0.208   0.228  0.2339  0.7998  0.2632
21009SOL    HW275087   2.647   0.303   0.096 -0.4409 -0.5704 -0.7751
21010SOL     OW75088   0.775   1.136   5.741 -0.1581  0.1128 -0.8497
21010SOL    HW175089   0.846   1.105   5.803 -1.1755 -2.5440 -0.9469
21010SOL    HW275090   0.754   1.233   5.759  1.6815  0.2196  0.8494
21011SOL     OW75091   5.981   4.437   5.014  0.2614  0.2497  0.1462
21011SOL    HW175092   5.998   4.517   4.956  1.3403 -0.2312 -0.2184
21011SOL    HW275093   5.992   4.463   5.110 -0.0623  0.7031  0.0603
21012SOL     OW75094   5.671   2.585   2.349 -0.1440 -0.4386  0.3076
21012SOL    HW175095   5.646   2.657   2.284  0.8083  0.0948  0.5208
21012SOL    HW275096   5.758   2.545   2.322 -0.5117 -1.2872  0.3792
21013SOL     OW75097   3.373   1.738   4.586  0.4108 -0.2224 -0.2162
21013SOL    HW175098   3.276   1.748   4.610  0.4918 -0.3639  0.1854
21013SOL    HW275099   3.397   1.802   4.513 -0.0932 -0.4936 -0.6249
21014SOL     OW75100   8.825   9.200   4.009 -0.3338 -0.3191  0.3392
21014SOL    HW175101   8.905   9.193   3.951 -1.4839  0.9238 -1.4432
21014SOL    HW275102   8.787   9.293   4.004 -2.5100 -1.1760  0.2915
21015SOL     OW75103   7.421   8.316   5.471  0.9518 -0.1912 -0.2026
21015SOL    HW175104   7.514   8.350   5.491  0.4715  1.3982 -0.5997
21015SOL    HW275105   7.362   8.393   5.448 -0.1680 -1.3296 -1.1994
21016SOL     OW75106   0.615   0.398   7.571  0.0613  0.2992 -0.4007
21016SOL    HW175107   0.542   0.465   7.582  0.3626  0.3269  1.6736
21016SOL    HW275108   0.620   0.341   7.653  0.8643 -1.2166 -1.4788
21017SOL     OW75109   7.880   2.018   6.312  0.2146 -0.7990  0.4620
21017SOL    HW175110   7.867   1.931   6.265 -0.2406 -0.3397 -0.2769
21017SOL    HW275111   7.906   2.001   6.407 -1.9325 -1.7633  0.9155
21018SOL     OW75112   9.191   7.017   3.316 -0.3620 -0.3111 -0.2616
21018SOL    HW175113   9.208   7.095   3.255  1.1297 -0.0522  0.4418
21018SOL    HW275114   9.279   6.984   3.352 -1.1776 -0.7033  1.4231
21019SOL     OW75115   6.524   6.159   9.134  0.0136  0.2929 -0.1338
21019SOL    HW175116   6.520   6.140   9.036 -2.3164  1.6370 -0.3414
21019SOL    HW275117   6.567   6.248   9.149  0.0243  0.2591  0.0386
21020SOL     OW75118   4.527   0.741   2.059 -0.1198 -0.2436  0.0061
21020SOL    HW175119   4.431   0.749   2.030 -0.4513 -0.7129  0.9549
21020SOL    HW275120   4.569   0.662   2.014  0.1536  0.6334 -1.2907
21021SOL     OW75121   6.837   7.588   3.703 -0.2874 -0.0673  0.4774
21021SOL    HW175122   6.812   7.627   3.614  2.3147  0.3823 -0.1159
21021SOL    HW275123   6.837   7.660   3.772 -0.4031 -0.0227  0.4307
21022SOL     OW75124   7.034   9.667   0.475  0.0630  0.5653  0.1106
21022SOL    HW175125   7.035   9.732   0.399 -0.3920 -0.1021 -0.4726
21022SOL    HW275126   6.953   9.609   0.467  1.5338 -1.4409 -0.5147
21023SOL     OW75127   9.787   8.988   4.717 -0.0742 -0.6335 -0.5642
21023SOL    HW175128   9.850   9.049   4.764  1.5442 -2.6470 -0.1027
21023SOL    HW275129   9.833   8.945   4.640 -1.7589  0.1015 -2.0424
21024SOL     OW75130   0.914   3.433   9.307  0.4988 -0.1507 -0.2091
21024SOL    HW175131   0.990   3.376   9.274  0.8533  0.8516 -1.1292
21024SOL    HW275132   0.892   3.503   9.239  0.8958  1.6158  1.4371
21025SOL     OW75133   8.956   0.611   5.570 -0.0801  0.3684 -0.1875
21025SOL    HW175134   8.872   0.621   5.623 -0.4351 -1.1543 -0.4371
21025SOL    HW275135   8.933   0.592   5.474  0.5494  0.9180 -0.4494
21026SOL     OW75136   7.970   2.945   5.505 -0.4446  0.1275  0.2998
21026SOL    HW175137   8.017   2.958   5.592 -0.8872 -1.7540  0.8268
21026SOL    HW275138   7.872   2.957   5.518 -0.6573 -1.6196  0.3739
21027SOL     OW75139   5.657   8.820   7.383  0.2612 -0.6045  0.1459
21027SOL    HW175140   5.587   8.802   7.314 -0.7840 -0.9167  1.2682
21027SOL    HW275141   5.746   8.790   7.349 -0.1866 -0.4424 -1.1966
21028SOL     OW75142   9.247   8.861   8.814 -0.2945  0.2068 -0.5902
21028SOL    HW175143   9.274   8.807   8.894 -0.3994 -2.9051 -2.5968
21028SOL    HW275144   9.210   8.801   8.744 -2.9698  3.2462 -1.8855
21029SOL     OW75145   2.590   6.310   2.818 -0.2665  0.1498 -0.0720
21029SOL    HW175146   2.576   6.211   2.821 -1.0511  0.2738  0.8740
21029SOL    HW275147   2.545   6.348   2.737 -0.2362 -0.2356 -0.2679
21030SOL     OW75148   0.429   6.395   5.461 -0.0495 -0.3008 -0.7392
21030SOL    HW175149   0.482   6.313   5.484 -1.7113 -1.5005 -1.1387
21030SOL    HW275150   0.364   6.415   5.534  0.9401  1.2072 -0.2293
21031SOL     OW75151   9.069   9.213   2.571  0.2897  0.4457 -0.4286
21031SOL    HW175152   9.075   9.197   2.670  0.5634  1.4773 -0.2761
21031SOL    HW275153   9.096   9.307   2.551 -2.0705  0.9879 -1.2146
21032SOL     OW75154   4.814   4.460   5.322 -0.2973  0.6585  0.1454
21032SOL    HW175155   4.787   4.509   5.239  0.8175  1.8451  0.4774
21032SOL    HW275156   4.811   4.361   5.305 -1.9721  0.8424 -0.7059
21033SOL     OW75157   0.068   8.672   7.876  0.0290  0.1024 -0.2894
21033SOL    HW175158   0.125   8.663   7.958  0.2309  0.9110 -0.3347
21033SOL    HW275159   0.044   8.581   7.842 -1.5098 -0.2546  1.6683
21034SOL     OW75160   8.644   7.710   2.191 -0.0278 -0.1559 -0.4416
21034SOL    HW175161   8.665   7.613   2.210 -1.5012 -0.5500 -0.7700
21034SOL    HW275162   8.723   7.753   2.149  1.2854 -0.7596  1.3332
21035SOL     OW75163   8.112   9.686   5.147 -0.0618  0.1789  0.3458
21035SOL    HW175164   8.188   9.621   5.141 -1.3015 -1.2056 -0.8916
21035SOL    HW275165   8.137   9.771   5.103  0.7896 -0.2568 -0.0163
21036SOL     OW75166   3.344   4.712   9.708 -0.5174  0.1399 -0.0422
21036SOL    HW175167   3.439   4.740   9.723 -0.8221  1.0614  0.2586
21036SOL    HW275168   3.286   4.758   9.775 -1.0885 -1.0102  0.2587
21037SOL     OW75169   3.834   2.167   4.976  0.0386  0.3482  0.5351
21037SOL    HW175170   3.832   2.167   4.876 -0.5748 -0.6270  0.5399
21037SOL    HW275171   3.887   2.246   5.008 -0.5846  1.2246 -0.5323
21038SOL     OW75172   7.660   4.362   4.003 -0.4119 -0.5583  0.0436
21038SOL    HW175173   7.561   4.370   4.016 -0.5354 -2.5191  0.5701
21038SOL    HW275174   7.679   4.310   3.920  0.1635 -0.5916  0.1913
21039SOL     OW75175   4.154   0.671   1.682  0.9194  0.3748 -0.2261
21039SOL    HW175176   4.154   0.742   1.611  0.1035 -1.0141 -1.6505
21039SOL    HW275177   4.238   0.678   1.735  1.1994  1.9304 -0.8377
21040SOL     OW75178   8.360   9.159   8.637  0.0035  0.0912  0.2027
21040SOL    HW175179   8.438   9.191   8.583 -0.5823 -0.0882 -0.7430
21040SOL    HW275180   8.391   9.089   8.701  1.2749  2.3545  2.1750
21041SOL     OW75181   0.463   1.997   6.298  0.0969  0.1761  0.2381
21041SOL    HW175182   0.378   1.978   6.347  0.3446  1.3692  1.1699
21041SOL    HW275183   0.488   1.918   6.242 -0.4527 -1.0473  1.6720
21042SOL     OW75184   0.479   9.797   4.766  0.1775 -0.0804  0.4774
21042SOL    HW175185   0.450   9.748   4.848  1.1379 -1.4202  0.0428
21042SOL    HW275186   0.523   9.883   4.792 -1.7017  0.6722  1.2368
21043SOL     OW75187   9.924   7.304   5.834  0.0432 -0.0975  0.0487
21043SOL    HW175188   9.905   7.247   5.914  1.3430 -2.3531 -1.1741
21043SOL    HW275189   9.983   7.253   5.771  0.4397  2.2784 -1.5600
21044SOL     OW75190   7.558   9.773   7.681 -0.2484 -0.7098  0.8012
21044SOL    HW175191   7.601   9.734   7.763  1.1017 -2.6581 -0.7893
21044SOL    HW275192   7.476   9.824   7.708 -0.2875 -1.9956  3.3036
21045SOL     OW75193   5.845   7.101   4.290  0.0915 -0.0594  0.1079
21045SOL    HW175194   5.761   7.155   4.303  1.2015  1.5581  0.7141
21045SOL    HW275195   5.879   7.114   4.197  0.1126 -0.0745  0.1140
21046SOL     OW75196   0.264   0.774   9.703 -0.4680 -0.4395 -0.1323
21046SOL    HW175197   0.270   0.782   9.803  1.7460 -2.1574 -0.0725
21046SOL    HW275198   0.301   0.686   9.675  0.1800  0.5620 -2.5749
21047SOL     OW75199   2.440   9.491   2.473 -0.6025  0.0696 -0.1909
21047SOL    HW175200   2.450   9.573   2.417  0.8286 -0.1198 -0.2286
21047SOL    HW275201   2.520   9.433   2.461 -0.5972 -0.2924  1.5270
21048SOL     OW75202   3.634   5.106   6.204  0.2833 -0.0386  0.0565
21048SOL    HW175203   3.608   5.043   6.278 -1.1461 -0.9846 -1.2300
21048SOL    HW275204   3.554   5.127   6.148  1.3226  0.8003 -1.1488
21049SOL     OW75205   9.760   8.430   5.073  0.0628  0.1302  0.6209
21049SOL    HW175206   9.775   8.525   5.100  1.3223  0.3107 -0.6908
21049SOL    HW275207   9.685   8.426   5.007  2.2578  0.6474 -1.9691
21050SOL     OW75208   1.108   2.324   7.459  0.0440 -0.8525 -0.0877
21050SOL    HW175209   1.198   2.364   7.442  0.3101 -0.9269  1.0625
21050SOL    HW275210   1.040   2.397   7.464  0.3539 -0.6268  0.9283
21051SOL     OW75211   5.917   9.752   2.621 -0.4593  0.0522 -0.3551
21051SOL    HW175212   5.939   9.709   2.533  2.0233 -0.5856  0.5373
21051SOL    HW275213   5.950   9.847   2.620  0.8741 -0.3864  0.3725
21052SOL     OW75214   5.042   3.426   9.864 -0.0792  0.1724 -0.1008
21052SOL    HW175215   5.027   3.518   9.827 -0.9005 -0.3531 -1.1136
21052SOL    HW275216   4.964   3.367   9.841  0.7991 -0.9936 -0.1702
21053SOL     OW75217   9.609   9.488   4.355 -0.4345 -0.1479  0.8186
21053SOL    HW175218   9.550   9.411   4.328 -0.4051 -0.7984  2.5428
21053SOL    HW275219   9.705   9.461   4.345 -0.4236 -0.0467  0.6379
21054SOL     OW75220   4.158   3.124   4.898  0.1661 -0.3508 -0.3513
21054SOL    HW175221   4.144   3.166   4.988  0.2831  0.0018 -0.4954
21054SOL    HW275222   4.130   3.189   4.827 -2.1698 -1.4932 -0.5159
21055SOL     OW75223   6.501   3.499   7.550 -0.2693 -0.4333  0.1218
21055SOL    HW175224   6.586   3.545   7.526  0.0254 -1.0690 -0.0686
21055SOL    HW275225   6.456   3.550   7.623 -1.6233  1.9871 -2.3174
21056SOL     OW75226   4.533   7.463   3.159  0.0658 -0.5384  0.0738
21056SOL    HW175227   4.514   7.383   3.216  0.8851 -0.9675 -0.2511
21056SOL    HW275228   4.505   7.443   3.065  2.3177 -1.2829 -0.4732
21057SOL     OW75229   0.277   0.777   8.049 -0.0552 -0.0890  0.2743
21057SOL    HW175230   0.339   0.715   8.098 -1.7997 -1.4131  0.8533
21057SOL    HW275231   0.205   0.724   8.005  0.3745  1.2589 -2.1369
21058SOL     OW75232   4.603   8.132   9.491  0.0205 -0.3271 -0.1908
21058SOL    HW175233   4.661   8.207   9.521 -1.0658 -0.5083  2.5333
21058SOL    HW275234   4.643   8.088   9.411  3.0074  0.2967  0.9124
21059SOL     OW75235   8.667   9.970   5.957  0.1549 -0.4868  0.1487
21059SOL    HW175236   8.633  10.027   5.882 -1.3446 -0.5886  0.7286
21059SOL    HW275237   8.713  10.028   6.025  0.8119 -0.2965 -0.4539
21060SOL     OW75238   8.867   6.856   5.608  0.5224  0.8007 -0.2194
21060SOL    HW175239   8.926   6.920   5.558 -0.8794  1.2867 -1.2818
21060SOL    HW275240   8.773   6.889   5.606 -0.2546 -1.3819 -0.9287
21061SOL     OW75241   9.037   7.757   6.778  0.4644  0.2999 -0.3795
21061SOL    HW175242   9.123   7.719   6.813 -0.5360 -1.9395 -0.3158
21061SOL    HW275243   9.030   7.738   6.680 -0.2211 -0.0016 -0.2713
21062SOL     OW75244   8.247   9.358   4.024  0.2231  0.8793  0.1451
21062SOL    HW175245   8.214   9.419   4.097  0.6578  1.5674 -0.2340
21062SOL    HW275246   8.337   9.322   4.050 -0.3649 -0.2023  0.7154
21063SOL     OW75247   6.942   0.594   8.557  0.5814  0.0274 -0.5259
21063SOL    HW175248   6.983   0.608   8.466  2.3336 -0.7273  0.1120
21063SOL    HW275249   6.972   0.505   8.593 -1.3452 -0.3718  0.1506
21064SOL     OW75250   2.046   9.846   5.587  0.0431  0.4580 -0.1764
21064SOL    HW175251   2.071   9.809   5.498 -0.2661  1.1405 -0.5472
21064SOL    HW275252   2.013   9.939   5.577 -0.1182  0.4981  0.6381
21065SOL     OW75253   8.434   1.480   4.233 -0.4939 -0.1587 -0.0275
21065SOL    HW175254   8.451   1.494   4.136 -0.3594 -1.6905 -0.2341
21065SOL    HW275255   8.487   1.402   4.266  1.0369  1.5846  1.7519
21066SOL     OW75256   3.071   0.798   5.076  0.1776 -0.6687 -0.1590
21066SOL    HW175257   3.128   0.879   5.061  0.2454 -0.3141  1.8357
21066SOL    HW275258   3.126   0.727   5.120 -0.7375 -0.5544  1.2076
21067SOL     OW75259   4.805   4.618   5.757  0.3668 -0.5640  0.6953
21067SOL    HW175260   4.866   4.671   5.697  0.6078  0.2106  1.6083
21067SOL    HW275261   4.855   4.539   5.793  1.1379  0.5492  2.1367
21068SOL     OW75262   8.085   3.297   7.498  0.4502  0.2689 -0.6928
21068SOL    HW175263   8.055   3.231   7.568  1.4769 -1.9058 -2.2457
21068SOL    HW275264   8.015   3.367   7.487 -0.8188 -0.7198  0.8123
21069SOL     OW75265   4.366   7.750   1.203  0.0370  0.0459  0.5294
21069SOL    HW175266   4.401   7.814   1.271 -1.7826 -0.0274  1.5581
21069SOL    HW275267   4.326   7.801   1.127 -0.1659  0.1279  0.6916
21070SOL     OW75268   2.112   6.591   1.343  0.9010  0.2612  0.7532
21070SOL    HW175269   2.022   6.630   1.362  0.2080 -0.3308 -1.2679
21070SOL    HW275270   2.141   6.536   1.422 -0.0814  1.2035  1.7926
21071SOL     OW75271   7.978   7.342   6.046 -0.1449  0.1205  0.8310
21071SOL    HW175272   8.050   7.390   6.095 -0.6180  0.1657  1.4860
21071SOL    HW275273   7.937   7.272   6.105 -0.4527 -0.0907  0.3771
21072SOL     OW75274   8.280   4.938   3.532  0.0066  0.3411  0.0041
21072SOL    HW175275   8.288   5.021   3.477 -0.2254  0.2294 -0.1968
21072SOL    HW275276   8.338   4.946   3.613 -0.2977  0.8496  0.1710
21073SOL     OW75277   8.608   0.616   4.526  0.1890  0.3978 -0.7123
21073SOL    HW175278   8.609   0.643   4.429 -1.9918  0.2760 -0.8124
21073SOL    HW275279   8.542   0.673   4.575  1.5537  0.7022  0.7954
21074SOL     OW75280   8.792   5.988   6.137  0.4768  0.3300 -0.2226
21074SOL    HW175281   8.878   5.945   6.166  1.1807  1.7159 -0.2378
21074SOL    HW275282   8.786   6.080   6.176 -0.4194  0.7124 -1.2521
21075SOL     OW75283   2.996   8.501   2.998 -0.4594 -0.0561 -0.0621
21075SOL    HW175284   3.057   8.528   3.072  0.5990 -2.8686  0.1625
21075SOL    HW275285   2.939   8.425   3.028 -1.1294 -0.1983 -1.6261
21076SOL     OW75286   7.710   8.226   2.106 -0.5873 -0.5711  0.1150
21076SOL    HW175287   7.803   8.259   2.120 -0.3460 -0.5135 -1.5561
21076SOL    HW275288   7.654   8.299   2.067 -1.4603 -0.4646  1.5232
21077SOL     OW75289   3.532   8.486   0.033  0.1856 -0.1317  0.0069
21077SOL    HW175290   3.504   8.397   0.069  0.0988 -0.7224 -1.4602
21077SOL    HW275291   3.531   8.482  -0.067 -0.4238  1.7134 -0.0685
21078SOL     OW75292   9.436   7.680   8.841 -0.0175 -0.7753  0.2623
21078SOL    HW175293   9.426   7.765   8.790 -0.2641  0.0361  1.6399
21078SOL    HW275294   9.495   7.695   8.920 -0.5650 -1.7209  0.8569
21079SOL     OW75295   0.913   1.411   0.167 -0.2935 -0.1527  0.5179
21079SOL    HW175296   0.866   1.464   0.237 -0.0382  1.6267 -0.6310
21079SOL    HW275297   0.852   1.340   0.132 -1.1695  0.3542  1.0117
21080SOL     OW75298   6.228   9.849   5.651 -0.7159 -0.1353 -0.2339
21080SOL    HW175299   6.180   9.928   5.615 -0.2673 -0.3279 -1.2873
21080SOL    HW275300   6.307   9.829   5.593  1.1827  0.7332  1.9710
21081SOL     OW75301   6.961   8.360   3.874 -0.5065  0.1249 -0.0558
21081SOL    HW175302   6.938   8.436   3.814 -1.0658  0.7353  0.9280
21081SOL    HW275303   7.027   8.390   3.943  0.1272 -0.5677 -0.3507
21082SOL     OW75304   3.033   3.054   4.811 -0.3291 -0.0925  0.1538
21082SOL    HW175305   3.052   3.112   4.890  0.8804 -0.6316  0.2700
21082SOL    HW275306   3.115   3.003   4.787 -1.2960 -1.5381 -0.1292
21083SOL     OW75307   7.976   5.022   6.961  0.2014  0.2094  0.1709
21083SOL    HW175308   8.004   5.091   7.027  2.2185 -1.2060  0.8459
21083SOL    HW275309   7.981   5.059   6.869  2.4357  0.6210  0.4418
21084SOL     OW75310   9.684   0.363   4.179  0.0044 -0.1083  0.3708
21084SOL    HW175311   9.768   0.407   4.209  0.3348  0.7284 -1.6965
21084SOL    HW275312   9.623   0.431   4.139 -0.0241 -1.2847 -1.6641
21085SOL     OW75313   7.950   2.183   8.266 -0.3682  0.1696  0.6914
21085SOL    HW175314   7.887   2.129   8.322 -0.2991  0.7111  1.2861
21085SOL    HW275315   8.018   2.226   8.324 -0.4383  0.9243  0.2143
21086SOL     OW75316   7.272   8.910   5.765 -0.2012 -0.2927  0.2467
21086SOL    HW175317   7.283   8.897   5.864  0.4438  0.1584  0.2369
21086SOL    HW275318   7.360   8.932   5.724 -0.6773  0.8140 -0.2310
21087SOL     OW75319   1.534   9.869   6.030  0.0602  0.2653 -0.4211
21087SOL    HW175320   1.518   9.953   6.083  0.4715  0.9160 -1.3101
21087SOL    HW275321   1.447   9.823   6.014 -0.1988  0.6321 -0.0934
21088SOL     OW75322   9.421   8.764   6.179  0.6989 -0.8176  0.1353
21088SOL    HW175323   9.331   8.777   6.223  0.2691  0.2044 -0.9998
21088SOL    HW275324   9.430   8.670   6.149 -0.1741 -0.8321 -0.1058
21089SOL     OW75325   5.936   9.668   1.396  0.7077  0.6462  0.2567
21089SOL    HW175326   5.956   9.764   1.414  0.7773  0.6568  0.1244
21089SOL    HW275327   5.971   9.611   1.471  0.4002  0.7513  0.4773
21090SOL     OW75328   2.536   4.631   1.149 -0.1838  0.1570 -0.0339
21090SOL    HW175329   2.572   4.614   1.241 -0.3650  0.5660  0.1131
21090SOL    HW275330   2.454   4.575   1.134 -2.3539  2.8109  1.4301
21091SOL     OW75331   0.496   5.693   2.593  0.3786  0.1724  1.3330
21091SOL    HW175332   0.563   5.716   2.521 -0.3767  1.2843  0.9720
21091SOL    HW275333   0.489   5.770   2.657 -2.1071  0.9315  0.1765
21092SOL     OW75334   2.852   0.078   9.378 -0.0655  0.0911 -0.0662
21092SOL    HW175335   2.889  -0.007   9.415 -2.4038 -0.3889  1.2058
21092SOL    HW275336   2.883   0.155   9.434  0.9253 -0.0334 -0.4188
21093SOL     OW75337   0.444   9.318   5.068 -0.1978  0.0430  0.5821
21093SOL    HW175338   0.365   9.354   5.116 -0.1433 -0.0588  0.7487
21093SOL    HW275339   0.430   9.324   4.969 -0.1918  0.5066  0.6122
21094SOL     OW75340   7.993   3.876   5.726 -0.2646  0.1631 -0.3963
21094SOL    HW175341   8.091   3.885   5.709  0.2521 -2.3979  1.0363
21094SOL    HW275342   7.944   3.885   5.640  1.2925  0.6298 -1.2607
21095SOL     OW75343   3.010   8.596   5.461  0.1995  0.0859 -0.3443
21095SOL    HW175344   2.980   8.615   5.554  0.7525 -1.1776  0.0984
21095SOL    HW275345   2.972   8.509   5.430  3.4584 -1.6235  0.2754
21096SOL     OW75346   4.062   5.778   9.518  0.4138  0.0354  0.3848
21096SOL    HW175347   4.129   5.842   9.480 -0.4430  1.0303  0.5440
21096SOL    HW275348   4.027   5.720   9.445  0.4638  0.4109  0.0595
21097SOL     OW75349   3.883   5.776   4.909  0.4330  0.5943  0.6157
21097SOL    HW175350   3.809   5.744   4.969  1.0269 -0.9056  0.5836
21097SOL    HW275351   3.856   5.862   4.867 -0.2004  1.4115  2.6286
21098SOL     OW75352   2.990   1.590   3.867  0.0210 -0.2044  0.0072
21098SOL    HW175353   3.067   1.558   3.923 -0.0769 -0.2466  0.1174
21098SOL    HW275354   2.999   1.688   3.850  1.2659 -0.6074 -1.8086
21099SOL     OW75355   1.299   0.722   7.395 -0.2665  0.5568 -0.2602
21099SOL    HW175356   1.233   0.796   7.389  0.9739  1.7785  0.9192
21099SOL    HW275357   1.333   0.700   7.303  0.0256  2.0561 -0.5238
21100SOL     OW75358   1.724   4.760   5.029 -0.0936  0.8207 -0.0310
21100SOL    HW175359   1.633   4.738   4.992  0.2923  1.6568 -1.5520
21100SOL    HW275360   1.727   4.740   5.127 -1.0634 -1.7506 -0.5089
21101SOL     OW75361   4.204   3.218   0.676 -0.4277  0.2204  0.7006
21101SOL    HW175362   4.169   3.137   0.628 -1.2480  0.8639  0.2074
21101SOL    HW275363   4.195   3.205   0.774 -2.5932  0.6099  0.5700
21102SOL     OW75364   0.496   5.183   6.626 -0.3761  0.2347  0.2678
21102SOL    HW175365   0.418   5.209   6.569 -0.6148 -0.5340  0.2284
21102SOL    HW275366   0.574   5.242   6.606 -1.2568  1.6803  1.0564
21103SOL     OW75367   4.211   0.810   2.373 -0.1520  0.4587 -0.1901
21103SOL    HW175368   4.280   0.739   2.358  0.4234  0.2024  3.2918
21103SOL    HW275369   4.225   0.885   2.308  1.1739 -1.1608 -1.8285
21104SOL     OW75370   6.013   1.018   4.789 -0.4124  0.0575  0.1281
21104SOL    HW175371   5.993   0.920   4.786 -0.4700  0.0550  0.5905
21104SOL    HW275372   5.929   1.068   4.810  0.0496  0.0418  2.1242
21105SOL     OW75373   6.619   5.466   4.849 -0.3992 -0.0526 -0.3081
21105SOL    HW175374   6.701   5.412   4.830 -0.9716 -0.4708 -1.6859
21105SOL    HW275375   6.541   5.428   4.799 -0.8151  1.9988 -1.2893
21106SOL     OW75376   8.562   0.016   6.485  0.6935 -0.2736 -0.7934
21106SOL    HW175377   8.649  -0.022   6.515  0.2107 -0.9513 -0.2412
21106SOL    HW275378   8.574   0.112   6.460  1.3444 -0.0322  0.4408
21107SOL     OW75379   6.482   0.166   2.402 -0.4865 -0.2088 -0.0060
21107SOL    HW175380   6.441   0.251   2.367  2.3457  0.7031 -1.2246
21107SOL    HW275381   6.509   0.178   2.497  0.5281  0.5106 -0.3758
21108SOL     OW75382   6.383   1.837   2.223  0.5175 -0.0091  0.4693
21108SOL    HW175383   6.352   1.883   2.306  0.8339 -0.0043  0.5849
21108SOL    HW275384   6.367   1.896   2.144  1.1028  0.3763  0.6412
21109SOL     OW75385   5.851   8.366   8.434  0.1890  0.1358  0.3109
21109SOL    HW175386   5.903   8.355   8.519 -0.9598  1.8726  1.2646
21109SOL    HW275387   5.769   8.309   8.437  0.8586 -0.8525 -0.2167
21110SOL     OW75388   8.015   8.499   7.199  0.5152 -0.1275 -0.1721
21110SOL    HW175389   8.098   8.541   7.165  0.2530  0.2734 -0.3159
21110SOL    HW275390   8.038   8.435   7.273  1.0835 -1.0145 -1.1096
21111SOL     OW75391   7.830   8.010   5.541  0.2192 -0.4615 -0.4592
21111SOL    HW175392   7.890   7.931   5.532  1.1595  0.2459 -0.4893
21111SOL    HW275393   7.854   8.078   5.472 -1.5940 -0.7770 -1.4429
21112SOL     OW75394   8.621   8.751   6.306 -0.5998 -0.1933  0.4131
21112SOL    HW175395   8.558   8.828   6.317  1.0346  1.0702  1.0187
21112SOL    HW275396   8.698   8.760   6.369  1.1756 -0.7364 -1.5971
21113SOL     OW75397   4.051   9.805   0.231 -0.2695 -0.0596 -0.0260
21113SOL    HW175398   4.031   9.795   0.329  0.9443  2.0064  0.4801
21113SOL    HW275399   3.967   9.797   0.179 -1.0336 -0.5159  1.2453
21114SOL     OW75400   2.830   9.695   8.749  0.7207  0.3249 -0.1247
21114SOL    HW175401   2.765   9.762   8.714  1.4326  1.4544  0.6798
21114SOL    HW275402   2.917   9.704   8.700 -0.3059 -2.5389 -2.6133
21115SOL     OW75403   0.925   0.990   3.676  0.5013 -0.3365 -0.7067
21115SOL    HW175404   0.987   1.001   3.598  0.5937  0.3701 -0.5395
21115SOL    HW275405   0.832   1.009   3.647  0.5026 -0.3330 -0.7085
21116SOL     OW75406   6.498   3.494   0.030 -0.0527  0.4381  0.1993
21116SOL    HW175407   6.475   3.507   0.126  1.0440  2.0141  0.2873
21116SOL    HW275408   6.485   3.580  -0.019 -3.4076 -1.0790 -1.7108
21117SOL     OW75409   0.093   7.644   7.734  0.2332 -0.1509 -0.1236
21117SOL    HW175410   0.055   7.601   7.816  1.0187  1.2293  1.0126
21117SOL    HW275411   0.062   7.739   7.730 -0.9320 -0.6054 -2.2065
21118SOL     OW75412   6.963   5.546   6.011 -0.1679  0.3189 -0.5118
21118SOL    HW175413   6.952   5.520   5.915  0.1952 -0.2117 -0.4137
21118SOL    HW275414   6.873   5.570   6.049 -0.1544  1.5478 -1.2629
21119SOL     OW75415   3.117   3.778   1.059 -0.3603  0.2087 -0.2335
21119SOL    HW175416   3.071   3.694   1.029  0.6694  0.5101 -2.8518
21119SOL    HW275417   3.050   3.841   1.099 -1.4914 -1.0214 -0.1780
21120SOL     OW75418   8.978   8.916   3.849 -0.1010 -0.3895  0.2610
21120SOL    HW175419   8.970   9.015   3.863  1.1769  0.0275 -1.7255
21120SOL    HW275420   9.066   8.884   3.882  0.4830 -0.4211 -1.2761
21121SOL     OW75421   6.094   0.729   5.443  0.0055  0.0733  0.0469
21121SOL    HW175422   6.184   0.704   5.409 -0.6058 -0.2842 -1.3308
21121SOL    HW275423   6.097   0.822   5.479  0.5294  0.6779 -1.5217
21122SOL     OW75424   1.214   9.741   6.888 -0.0679  0.0358  0.1161
21122SOL    HW175425   1.284   9.802   6.927 -0.0599 -0.1010  0.3139
21122SOL    HW275426   1.180   9.679   6.959 -0.4609  0.1677  0.0435
21123SOL     OW75427   1.274   1.551   1.373  0.1374  0.3066  0.4338
21123SOL    HW175428   1.322   1.540   1.459 -0.9179 -0.0365  0.9889
21123SOL    HW275429   1.210   1.627   1.379  1.9816  2.0099 -0.9365
21124SOL     OW75430   7.458   3.132   7.952  0.0321  0.2935 -0.0238
21124SOL    HW175431   7.445   3.166   8.046  1.9740 -0.7383  0.6454
21124SOL    HW275432   7.531   3.184   7.908  1.0698 -1.1050  0.0238
21125SOL     OW75433   6.731   2.707   2.115 -0.0554 -0.1965  0.3371
21125SOL    HW175434   6.797   2.637   2.088 -0.8096 -1.3317  1.3852
21125SOL    HW275435   6.642   2.688   2.073 -0.6462 -0.7163  1.7971
21126SOL     OW75436   1.259   7.641   7.325 -0.0167  0.5491 -0.8112
21126SOL    HW175437   1.183   7.581   7.351  0.9184 -1.0364 -1.6549
21126SOL    HW275438   1.317   7.656   7.405 -0.2810  0.3500 -0.5795
21127SOL     OW75439   8.065   0.931   2.066  0.4194  0.6997 -0.0762
21127SOL    HW175440   7.979   0.955   2.022  1.4678  0.7416 -2.1979
21127SOL    HW275441   8.127   1.009   2.063  0.8707  0.3780  0.5925
21128SOL     OW75442   6.861   7.310   1.370  0.4972 -0.1245 -0.0613
21128SOL    HW175443   6.903   7.228   1.409  0.2480 -0.3249 -0.2117
21128SOL    HW275444   6.764   7.293   1.352  0.3862  0.2817  0.1289
21129SOL     OW75445   6.737   5.850   8.957  0.0250  0.0412  0.1071
21129SOL    HW175446   6.776   5.938   8.985 -0.6420  0.3685  0.0394
21129SOL    HW275447   6.743   5.785   9.032  0.3736  0.2013  0.2160
21130SOL     OW75448   5.760   0.044   7.299 -0.1958 -0.1160  0.0205
21130SOL    HW175449   5.837   0.067   7.239 -1.3742  0.7061 -1.1989
21130SOL    HW275450   5.674   0.065   7.253 -1.1657 -1.0454  1.3653
21131SOL     OW75451   6.210   7.724   2.209  0.4395 -0.0545 -0.3849
21131SOL    HW175452   6.213   7.626   2.190 -1.1320 -0.0912 -0.5015
21131SOL    HW275453   6.252   7.741   2.298 -1.2452 -1.1111  0.6319
21132SOL     OW75454   9.531   6.158   0.638 -0.3435  0.5857  0.2310
21132SOL    HW175455   9.556   6.255   0.638  1.5905  0.1560  2.5254
21132SOL    HW275456   9.514   6.128   0.732 -2.1741 -1.0221 -0.5714
21133SOL     OW75457   5.684   7.811   9.447  0.0720 -0.2167 -0.5827
21133SOL    HW175458   5.736   7.737   9.403  0.3292 -0.8362  0.7439
21133SOL    HW275459   5.730   7.839   9.531 -0.2310  1.2023 -0.8743
21134SOL     OW75460   7.980   8.568   9.230 -0.0257 -0.5394 -0.3976
21134SOL    HW175461   7.994   8.534   9.137  2.6460 -0.7355  0.0324
21134SOL    HW275462   7.947   8.495   9.288 -1.1446 -0.5672 -1.0631
21135SOL     OW75463   0.450   2.024   4.793 -0.1326 -0.1242 -0.0888
21135SOL    HW175464   0.394   2.098   4.757 -0.0919 -1.0088 -2.0278
21135SOL    HW275465   0.450   1.948   4.729  1.5512 -0.9770  0.8862
21136SOL     OW75466   4.231   9.224   5.339  0.2018  0.4412  0.0584
21136SOL    HW175467   4.155   9.217   5.404 -0.9464 -0.9017 -1.4216
21136SOL    HW275468   4.205   9.281   5.262 -0.1226 -1.8112 -1.5505
21137SOL     OW75469   9.607   9.230   7.452  0.3814 -0.1152  0.1943
21137SOL    HW175470   9.663   9.188   7.523  2.1991  1.0101 -0.5493
21137SOL    HW275471   9.616   9.330   7.458 -0.4569  0.0262 -0.8209
21138SOL     OW75472   3.380   9.271   6.168  0.4104 -0.6256 -0.1048
21138SOL    HW175473   3.343   9.268   6.261 -0.1622 -0.1662 -0.3135
21138SOL    HW275474   3.468   9.223   6.166  0.8384  0.0918  0.8530
21139SOL     OW75475   2.313   8.218   1.120  0.1499  0.0539  0.0827
21139SOL    HW175476   2.246   8.293   1.117 -1.2513 -1.1211  1.4210
21139SOL    HW275477   2.273   8.136   1.079  1.2588 -0.3115 -0.2855
21140SOL     OW75478   9.578   0.111   9.826 -1.1927 -0.2928 -0.1821
21140SOL    HW175479   9.650   0.179   9.810 -1.7691  0.5902  0.9292
21140SOL    HW275480   9.573   0.048   9.748  0.4502 -0.0662 -0.4856
21141SOL     OW75481   8.519   6.198   5.919 -0.0380  0.4378  0.1463
21141SOL    HW175482   8.429   6.194   5.877 -1.0833  1.8503  2.1940
21141SOL    HW275483   8.571   6.273   5.879  0.6119 -0.9486 -1.6922
21142SOL     OW75484   5.985   5.960   9.159  0.0287 -0.1322  0.5801
21142SOL    HW175485   5.952   5.958   9.254  0.4543 -0.4952  0.7205
21142SOL    HW275486   5.921   5.911   9.101  0.1370 -0.5272  0.7950
21143SOL     OW75487   9.460   1.100   0.991 -0.1795  0.0022  0.1055
21143SOL    HW175488   9.536   1.138   0.939 -0.4670  1.6633  0.8612
21143SOL    HW275489   9.479   1.110   1.089 -0.8218 -0.7042  0.3065
21144SOL     OW75490   7.191   8.913   4.937 -0.2596  0.5009  0.6895
21144SOL    HW175491   7.198   8.906   4.837  0.6196 -0.9148  0.8301
21144SOL    HW275492   7.193   8.821   4.977 -3.3898  0.8943  1.8627
21145SOL     OW75493   6.608   0.898   7.431 -0.0278 -0.5357 -0.2419
21145SOL    HW175494   6.585   0.822   7.491  0.2687 -1.4657 -1.2872
21145SOL    HW275495   6.708   0.905   7.423 -0.0431  0.2860  0.2500
21146SOL     OW75496   5.628   8.823   9.099  0.2156 -0.5258 -0.0847
21146SOL    HW175497   5.645   8.868   9.011 -0.0674 -1.7431 -0.7868
21146SOL    HW275498   5.529   8.809   9.110  0.0790  1.3838  1.3404
21147SOL     OW75499   4.503   9.564   5.288  0.5416  0.0834 -0.1178
21147SOL    HW175500   4.538   9.658   5.295  2.7115 -0.5279 -2.0009
21147SOL    HW275501   4.579   9.502   5.269 -1.0129 -1.9348  0.1461
21148SOL     OW75502   5.040   8.381   7.397 -0.2603 -0.2546  0.4478
21148SOL    HW175503   5.115   8.316   7.409 -1.4570 -1.6427  0.5417
21148SOL    HW275504   5.068   8.453   7.333  0.9748 -0.9989  0.1372
21149SOL     OW75505   3.153   8.054   8.817  0.6473  0.8646  0.3048
21149SOL    HW175506   3.197   7.964   8.818  2.1046  1.5602  0.7086
21149SOL    HW275507   3.134   8.083   8.911 -2.0311 -0.0503  0.0807
21150SOL     OW75508   6.242   2.297   9.391  0.2135  0.1791  0.7733
21150SOL    HW175509   6.238   2.214   9.335  3.4761  1.5728 -1.7457
21150SOL    HW275510   6.291   2.278   9.476  0.3867 -0.6367  0.4969
21151SOL     OW75511   7.358   9.555   0.298 -0.4618  0.4195 -0.2138
21151SOL    HW175512   7.345   9.581   0.394 -0.9506  0.9386 -0.4176
21151SOL    HW275513   7.390   9.634   0.246 -2.4054  0.7703 -0.9305
21152SOL     OW75514   6.509   9.949   8.893  0.2870  0.2941 -0.4428
21152SOL    HW175515   6.517   9.998   8.806  0.5852 -0.7797 -1.0272
21152SOL    HW275516   6.536  10.010   8.968 -0.7981  1.5070 -1.0060
21153SOL     OW75517   5.892   6.322   6.825  0.5157  1.0316 -0.7383
21153SOL    HW175518   5.826   6.281   6.762 -0.6626  2.3454 -0.3882
21153SOL    HW275519   5.944   6.393   6.777  1.2279  0.4534 -0.8356
21154SOL     OW75520   1.225   2.495   8.960 -0.4051  0.5116 -0.2063
21154SOL    HW175521   1.140   2.548   8.961 -0.1562  0.9868 -1.9386
21154SOL    HW275522   1.301   2.555   8.935 -0.1123 -0.6443 -2.1908
21155SOL     OW75523   4.023   1.644   5.598  0.4291  0.1213 -0.1021
21155SOL    HW175524   4.031   1.600   5.508  0.0319 -1.1388  0.4572
21155SOL    HW275525   4.108   1.690   5.621  0.4277  0.7209 -1.2581
21156SOL     OW75526   3.318   7.280   1.323 -0.0167  0.2617 -0.4737
21156SOL    HW175527   3.287   7.197   1.275  1.2959  0.0041 -0.9156
21156SOL    HW275528   3.386   7.255   1.391 -0.5002  0.8538  0.2295
21157SOL     OW75529   4.682   6.666   8.224 -0.0863  0.3434  0.3311
21157SOL    HW175530   4.602   6.718   8.252 -0.2530  0.6365 -0.7021
21157SOL    HW275531   4.758   6.687   8.286 -0.9597 -0.3966  1.6873
21158SOL     OW75532   5.418   7.819   6.540 -0.3233  0.1383 -0.1101
21158SOL    HW175533   5.455   7.739   6.587 -2.4781 -0.4049  0.6993
21158SOL    HW275534   5.414   7.897   6.603 -0.1802  0.3062 -0.3063
21159SOL     OW75535   6.463   7.595   4.298 -0.1877 -0.1943 -0.2915
21159SOL    HW175536   6.382   7.647   4.272 -0.1450  0.1947  0.3468
21159SOL    HW275537   6.485   7.529   4.226 -1.0064 -0.2274 -0.5094
21160SOL     OW75538   8.204   6.111   8.941 -0.1894 -0.1072 -0.2798
21160SOL    HW175539   8.298   6.108   8.909 -0.2457 -2.3135 -0.3029
21160SOL    HW275540   8.146   6.150   8.869  0.4424 -0.3977 -0.9493
21161SOL     OW75541   8.520   0.796   6.006 -0.7768  0.4073  0.2652
21161SOL    HW175542   8.602   0.849   5.984 -0.2570  0.1990  1.5936
21161SOL    HW275543   8.452   0.855   6.049 -1.2939  0.5642 -0.7692
21162SOL     OW75544   9.265   9.619   0.029 -0.1494  0.0677 -0.1699
21162SOL    HW175545   9.352   9.666   0.040 -0.5239  0.9896 -1.1290
21162SOL    HW275546   9.274   9.546  -0.038 -0.6210  1.4736 -1.7784
21163SOL     OW75547   4.133   7.720   6.991  0.5931  0.4840  0.4116
21163SOL    HW175548   4.095   7.629   6.975 -1.1981  1.4085 -0.8029
21163SOL    HW275549   4.203   7.715   7.061  1.1970 -1.9921 -0.3179
21164SOL     OW75550   7.217   4.375   8.811  0.1501  0.1323  0.3846
21164SOL    HW175551   7.289   4.443   8.795 -0.3049  1.0824  2.3154
21164SOL    HW275552   7.128   4.420   8.817 -0.5368 -0.9524 -1.1943
21165SOL     OW75553   7.513   9.086   8.421 -0.1198  0.0375  0.8752
21165SOL    HW175554   7.564   9.171   8.405  1.0948 -0.6425  1.0341
21165SOL    HW275555   7.577   9.009   8.418 -1.4031 -0.9988 -0.5217
21166SOL     OW75556   6.997   1.744   0.356  0.5090 -0.7642  0.2826
21166SOL    HW175557   7.035   1.825   0.312 -0.2584 -0.3050  0.4387
21166SOL    HW275558   6.980   1.764   0.452 -2.3434 -0.1203 -0.2811
21167SOL     OW75559   8.982   4.485   2.027 -0.3486 -0.0740 -0.1504
21167SOL    HW175560   8.986   4.584   2.017  0.8013  0.0568  1.4949
21167SOL    HW275561   8.904   4.461   2.085 -0.0534 -0.0601  0.2547
21168SOL     OW75562   6.058   9.132   0.517  0.3406  0.4617 -0.3160
21168SOL    HW175563   6.006   9.184   0.449  1.1409 -0.7033 -1.8828
21168SOL    HW275564   6.135   9.186   0.549  0.2918  0.8182 -0.7926
21169SOL     OW75565   5.530   6.695   5.843 -0.1289 -0.2101 -0.2106
21169SOL    HW175566   5.512   6.647   5.757  1.2252 -1.0947 -0.0146
21169SOL    HW275567   5.572   6.784   5.823 -1.0799  0.1780 -0.5084
21170SOL     OW75568   5.871   8.736   8.068 -0.0191 -0.0952  0.1983
21170SOL    HW175569   5.886   8.780   7.979  0.6801 -1.1409 -0.2046
21170SOL    HW275570   5.948   8.756   8.128  0.5147 -1.1093 -0.1318
21171SOL     OW75571   4.899   1.145   9.322  0.2668 -0.3865 -0.1631
21171SOL    HW175572   4.989   1.109   9.348  0.3447 -1.0112 -1.2814
21171SOL    HW275573   4.834   1.070   9.318 -0.4647  0.1548  1.2682
21172SOL     OW75574   1.935   3.795   8.882 -0.3758  0.0018 -0.0295
21172SOL    HW175575   2.027   3.771   8.912  1.2894  4.0352 -1.6483
21172SOL    HW275576   1.885   3.835   8.959  0.3845  0.9404 -0.0208
21173SOL     OW75577   1.764   2.998   2.841  0.5828  0.4708 -0.2632
21173SOL    HW175578   1.798   2.910   2.873  0.4486 -0.4906 -2.6754
21173SOL    HW275579   1.840   3.060   2.827  0.9925 -0.2857 -1.5042
21174SOL     OW75580   6.621   6.071   2.734 -0.0644  0.8847 -0.0658
21174SOL    HW175581   6.607   6.112   2.644  0.7921 -0.8741 -1.0010
21174SOL    HW275582   6.590   5.976   2.733  0.5417  0.6633  1.3144
21175SOL     OW75583   7.980   2.083   0.606 -0.9389  0.5782  0.5663
21175SOL    HW175584   8.038   2.007   0.635  0.8287  1.5447 -0.3665
21175SOL    HW275585   8.037   2.163   0.587 -2.5889  1.5618 -0.3378
21176SOL     OW75586   6.849   0.209   5.773 -0.2536  0.2232  0.2037
21176SOL    HW175587   6.872   0.248   5.862 -0.6280 -0.6262  0.6737
21176SOL    HW275588   6.853   0.110   5.778  0.4722  0.1936 -0.9365
21177SOL     OW75589   4.967   2.901   2.522  0.2635 -0.0284  0.1734
21177SOL    HW175590   5.019   2.984   2.500  0.4988  0.0327  0.9213
21177SOL    HW275591   4.873   2.912   2.492  0.2866  0.5192  0.2890
21178SOL     OW75592   6.062   0.342   1.396  0.3124  0.5790 -0.2455
21178SOL    HW175593   6.033   0.399   1.472 -0.2966 -0.2397  0.1444
21178SOL    HW275594   6.160   0.350   1.383  0.5233  0.2084  1.0651
21179SOL     OW75595   5.851   1.098   8.127  0.9326  0.4808 -0.4855
21179SOL    HW175596   5.833   1.187   8.168  1.1421 -0.3261  1.4196
21179SOL    HW275597   5.930   1.056   8.172  1.7970 -0.0332 -2.3952
21180SOL     OW75598   2.756   4.902   5.436  0.6765 -0.4880  0.1829
21180SOL    HW175599   2.836   4.955   5.466  1.0602 -0.0808 -1.5433
21180SOL    HW275600   2.778   4.804   5.439  1.5762 -0.3335 -1.2539
21181SOL     OW75601   3.263   8.718   8.266  0.3073  0.6222  0.3503
21181SOL    HW175602   3.306   8.793   8.216 -0.8562 -0.5142 -2.4829
21181SOL    HW275603   3.167   8.739   8.282  0.1781  0.0794  0.2964
21182SOL     OW75604   0.322   4.659   7.408 -0.4705 -0.6881 -0.6327
21182SOL    HW175605   0.318   4.708   7.321  1.0396 -1.2416 -1.0147
21182SOL    HW275606   0.296   4.564   7.394  0.7582 -1.0167 -0.6527
21183SOL     OW75607   1.380   8.466   2.862 -0.1033 -0.2147  0.1112
21183SOL    HW175608   1.301   8.423   2.820 -0.9888 -0.2102  1.7295
21183SOL    HW275609   1.434   8.513   2.792 -1.1511 -0.7993 -1.1004
21184SOL     OW75610   7.097   2.016   9.972  0.0457 -0.0603  0.0578
21184SOL    HW175611   7.109   2.114   9.986  2.7915 -0.3547 -0.0503
21184SOL    HW275612   7.010   2.000   9.926  0.2346  2.4328 -1.2538
21185SOL     OW75613   8.320   8.162   6.500  0.1311 -0.4799 -0.0290
21185SOL    HW175614   8.329   8.226   6.577  0.7758 -0.3001 -0.2536
21185SOL    HW275615   8.410   8.142   6.462 -0.3117  0.6080 -1.7171
21186SOL     OW75616   5.283   8.040   0.391  0.0803 -0.1277  0.3337
21186SOL    HW175617   5.230   8.016   0.310  0.3986  0.6485 -0.1019
21186SOL    HW275618   5.322   7.957   0.431 -1.7538 -0.7578  0.8665
21187SOL     OW75619   4.092   0.112   9.502  0.3512 -0.1287  0.0924
21187SOL    HW175620   4.072   0.018   9.476 -1.5181 -0.2605  1.8906
21187SOL    HW275621   4.181   0.116   9.547 -0.1069 -1.2353  1.1074
21188SOL     OW75622   5.402   9.226   8.784  0.3430 -0.2484  0.1303
21188SOL    HW175623   5.477   9.292   8.785 -0.2720  0.5560 -2.1053
21188SOL    HW275624   5.418   9.158   8.713 -1.1145  0.0608 -0.5335
21189SOL     OW75625   3.854   0.587   8.690  0.1609 -0.6447 -0.4879
21189SOL    HW175626   3.836   0.676   8.733  0.2464 -0.3820 -0.9899
21189SOL    HW275627   3.853   0.516   8.760 -0.9161 -0.3893 -0.2336
21190SOL     OW75628   5.517   0.407   8.573 -0.1452  0.3879  0.7382
21190SOL    HW175629   5.586   0.335   8.571  0.1902  0.6383  2.4329
21190SOL    HW275630   5.464   0.405   8.488  1.3320 -0.3915 -0.1889
21191SOL     OW75631   0.325   6.877   4.655 -0.1947  0.3166  0.5251
21191SOL    HW175632   0.300   6.828   4.571  1.2460  0.1556  0.1736
21191SOL    HW275633   0.324   6.976   4.638  0.2843  0.2762  0.2653
21192SOL     OW75634   9.864   4.528   3.233 -0.0163 -0.2321  0.3629
21192SOL    HW175635   9.920   4.505   3.153  2.1292  0.9531  1.4848
21192SOL    HW275636   9.806   4.450   3.257  1.3087 -1.5656 -0.7055
21193SOL     OW75637   6.894   2.971   1.779  0.7750 -0.1934 -0.7938
21193SOL    HW175638   6.914   2.884   1.824 -0.5443  0.4235  1.0288
21193SOL    HW275639   6.818   2.958   1.715 -0.6586  0.0044  0.8445
21194SOL     OW75640   5.532   0.608   4.735  0.1749 -0.2094 -0.0211
21194SOL    HW175641   5.451   0.623   4.678  0.3209  1.0245  0.0852
21194SOL    HW275642   5.612   0.593   4.676 -0.3173 -2.5946 -0.1314
21195SOL     OW75643   7.187   9.869   2.741 -0.2581  0.0177  0.2192
21195SOL    HW175644   7.090   9.859   2.721 -0.4682  1.7740  0.2762
21195SOL    HW275645   7.202   9.954   2.792  1.2695 -0.3915  0.4900
21196SOL     OW75646   2.696   7.514   5.100 -0.1257  0.0266 -0.2802
21196SOL    HW175647   2.726   7.502   5.005 -0.7380 -0.6088 -0.3936
21196SOL    HW275648   2.623   7.582   5.104  1.1970  1.4868 -0.0171
21197SOL     OW75649   4.996   1.238   8.277  0.5603 -0.1353 -0.1526
21197SOL    HW175650   5.038   1.276   8.195  0.2790  1.8277  0.5858
21197SOL    HW275651   5.059   1.248   8.354 -0.0873  0.1502  0.3445
21198SOL     OW75652   0.981   5.761   6.608  0.4167 -0.0852 -0.2937
21198SOL    HW175653   0.998   5.843   6.664 -2.0897  0.8522 -0.8167
21198SOL    HW275654   0.931   5.694   6.663  1.7720 -0.9480 -0.1101
21199SOL     OW75655   4.393   4.892   2.775  0.0174 -0.6286 -0.4434
21199SOL    HW175656   4.352   4.974   2.735 -1.7905 -1.0394  0.5040
21199SOL    HW275657   4.344   4.869   2.860  1.9845 -1.3660  0.5184
21200SOL     OW75658   7.304   9.703   4.969  0.4478 -0.0220 -0.1723
21200SOL    HW175659   7.290   9.762   5.048 -0.4474 -0.0179 -0.3222
21200SOL    HW275660   7.265   9.612   4.988  0.4648 -0.1000 -0.4998
21201SOL     OW75661   5.827   0.558   0.610  0.0986  0.6817  0.1948
21201SOL    HW175662   5.793   0.514   0.527  1.1602 -0.8411  0.5484
21201SOL    HW275663   5.922   0.587   0.596 -0.8575  3.7475 -0.3492
21202SOL     OW75664   5.989   0.050   5.485 -0.1172  0.0926 -0.1592
21202SOL    HW175665   6.011   0.142   5.518 -1.6135  0.7891 -1.0877
21202SOL    HW275666   5.931   0.003   5.553  1.2910 -0.4763  0.6803
21203SOL     OW75667   2.051   3.769   6.337  0.3064 -0.1604  0.1367
21203SOL    HW175668   2.067   3.824   6.255  1.9453 -0.7108  0.0798
21203SOL    HW275669   2.101   3.809   6.414 -0.2648 -0.3299  0.5942
21204SOL     OW75670   8.145   4.418   4.484  0.1379 -0.6969  1.0333
21204SOL    HW175671   8.139   4.513   4.454 -0.7143 -0.5566  1.6196
21204SOL    HW275672   8.215   4.410   4.554  1.6738 -0.9040 -0.4949
21205SOL     OW75673   9.926   1.334   9.617 -0.0971  0.3168 -0.4114
21205SOL    HW175674  10.013   1.293   9.587 -0.3932  0.3332 -1.3120
21205SOL    HW275675   9.851   1.273   9.592 -0.3762  0.4691  0.0556
21206SOL     OW75676   8.480   9.110   6.581 -0.6867  1.0025 -0.3369
21206SOL    HW175677   8.546   9.048   6.539  0.5461  1.3316  1.1145
21206SOL    HW275678   8.388   9.069   6.575 -0.1245 -0.2066 -0.8615
21207SOL     OW75679   4.566   2.116   0.305 -0.1228  0.0832 -0.2227
21207SOL    HW175680   4.630   2.192   0.311  1.3153 -1.0677 -0.4963
21207SOL    HW275681   4.608   2.035   0.347 -0.0054 -1.6030 -3.4425
21208SOL     OW75682   6.810   7.001   3.455  0.4420 -0.0598  0.0714
21208SOL    HW175683   6.823   6.942   3.535  1.9272  0.0065 -0.1049
21208SOL    HW275684   6.713   7.011   3.437  0.1604 -2.1869  0.2928
21209SOL     OW75685   5.046   1.098   1.751 -0.0873 -0.0042  0.0567
21209SOL    HW175686   5.002   1.185   1.733  0.0482  0.0782  0.1227
21209SOL    HW275687   4.994   1.047   1.819 -0.5876 -0.3045 -0.5462
21210SOL     OW75688   9.136   9.902   4.957  0.1019  0.2925 -0.6969
21210SOL    HW175689   9.184   9.910   5.045 -0.2055  2.2497 -0.6745
21210SOL    HW275690   9.198   9.928   4.884 -0.8004  2.5355 -0.6978
21211SOL     OW75691   8.474   0.485   4.198  0.5112  0.2785  0.0129
21211SOL    HW175692   8.541   0.559   4.204 -0.1170  0.7755  1.1458
21211SOL    HW275693   8.461   0.460   4.102  2.3350  0.1413 -0.2081
21212SOL     OW75694   7.110   2.225   0.624 -0.0175 -0.6383  0.4539
21212SOL    HW175695   7.158   2.164   0.687  0.5153 -0.5717  0.1153
21212SOL    HW275696   7.138   2.319   0.640  0.3487 -0.6554 -0.0904
21213SOL     OW75697   4.685   8.574   9.963  0.3065 -0.3719 -0.2521
21213SOL    HW175698   4.673   8.669   9.991  0.6127 -0.9257  1.8295
21213SOL    HW275699   4.735   8.571   9.876 -1.0897  1.3950 -1.1366
21214SOL     OW75700   7.876   7.875   9.792  0.3562  0.1445  0.2146
21214SOL    HW175701   7.803   7.942   9.781 -0.0862 -0.2643  0.6542
21214SOL    HW275702   7.953   7.900   9.732  0.2918  1.1696  0.5476
21215SOL     OW75703   7.251   8.953   9.002 -0.4594  0.0929  0.0226
21215SOL    HW175704   7.329   8.999   8.959 -0.6404 -0.6772 -1.1608
21215SOL    HW275705   7.251   8.972   9.100  0.6993  0.8384 -0.1085
21216SOL     OW75706   8.239   3.266   2.585  0.3747  0.0681  0.3602
21216SOL    HW175707   8.172   3.332   2.551 -0.8644 -1.2690  0.1683
21216SOL    HW275708   8.300   3.239   2.511 -0.3239 -0.4422 -0.0328
21217SOL     OW75709   3.415   8.752   3.639 -0.2925 -0.4500 -0.2690
21217SOL    HW175710   3.485   8.783   3.704  0.2362 -1.4287 -0.3626
21217SOL    HW275711   3.445   8.773   3.546 -0.9094  0.6719 -0.2296
21218SOL     OW75712   7.541   9.358   4.247 -0.1393  0.2881 -0.2003
21218SOL    HW175713   7.488   9.416   4.309 -0.3705 -0.4383  0.2802
21218SOL    HW275714   7.636   9.390   4.245 -0.4671  1.2636 -0.6594
21219SOL     OW75715   6.330   6.416   4.295  0.1915 -0.2789 -0.3179
21219SOL    HW175716   6.255   6.435   4.358 -0.0293 -0.6884 -0.4593
21219SOL    HW275717   6.360   6.501   4.252 -1.8787 -0.4637 -2.1873
21220SOL     OW75718   7.739   3.012   8.687  0.5319 -0.1559 -0.1587
21220SOL    HW175719   7.784   3.047   8.769  0.0125 -0.4520  0.2592
21220SOL    HW275720   7.672   2.942   8.713  0.1150 -0.0055 -0.8078
21221SOL     OW75721   7.405   0.982   9.651  0.2122 -0.6467  0.0730
21221SOL    HW175722   7.443   0.890   9.641  0.9249 -0.1158 -2.7114
21221SOL    HW275723   7.379   1.017   9.561 -0.4758  1.7085  1.1420
21222SOL     OW75724   4.175   1.354   7.929  0.1656  0.1367 -0.3704
21222SOL    HW175725   4.213   1.388   7.844 -1.0300  0.1974 -0.8881
21222SOL    HW275726   4.148   1.258   7.918 -2.0983  0.7856 -0.7835
21223SOL     OW75727   4.716   7.542   8.158  0.0308 -0.4264 -0.1820
21223SOL    HW175728   4.653   7.522   8.082 -0.4260 -0.9418  0.3305
21223SOL    HW275729   4.679   7.505   8.243  0.6457 -0.0290  0.2631
21224SOL     OW75730   5.336   1.201   1.441 -0.0805  0.4332  0.3116
21224SOL    HW175731   5.353   1.127   1.376 -1.7383  1.6926 -1.6214
21224SOL    HW275732   5.422   1.247   1.462  0.8096 -1.3683  0.7323
21225SOL     OW75733   5.107   8.786   8.703 -0.3705 -0.2941  0.7636
21225SOL    HW175734   5.116   8.715   8.632  0.8519 -2.2708  2.8263
21225SOL    HW275735   5.071   8.745   8.787 -0.3669  1.7077  1.7687
21226SOL     OW75736   1.125   3.894   2.944  0.2148  0.3027 -0.1333
21226SOL    HW175737   1.054   3.907   3.013  0.9500 -0.9276  0.8733
21226SOL    HW275738   1.203   3.953   2.963 -0.0426  0.7946 -0.5745
21227SOL     OW75739   3.647   5.025   0.687  0.2164  0.1456  0.0184
21227SOL    HW175740   3.732   4.990   0.728  0.7513  1.4459  0.0549
21227SOL    HW275741   3.645   5.002   0.590  0.7997  0.4120 -0.0623
21228SOL     OW75742   6.084   7.238   1.489 -0.3556  0.3266 -0.5659
21228SOL    HW175743   6.115   7.222   1.395 -0.3781 -0.4906 -0.4397
21228SOL    HW275744   6.159   7.220   1.552 -0.3398  0.8827 -0.4310
21229SOL     OW75745   4.508   8.629   6.678  0.1923  0.4124  0.4235
21229SOL    HW175746   4.470   8.633   6.770  1.0590  1.1054  0.7492
21229SOL    HW275747   4.550   8.716   6.655 -1.8846  0.9780 -1.4366
21230SOL     OW75748   2.710   7.435   8.743 -0.3057 -0.8476  0.2346
21230SOL    HW175749   2.665   7.521   8.721  2.0221  0.5456  0.7269
21230SOL    HW275750   2.693   7.411   8.838 -0.6881 -0.7749  0.1853
21231SOL     OW75751   3.334   2.480   1.253 -0.1684 -0.1202  0.7427
21231SOL    HW175752   3.245   2.450   1.219 -1.0220  1.4691  1.5146
21231SOL    HW275753   3.351   2.440   1.344  1.8638 -3.9107 -1.1765
21232SOL     OW75754   6.576   0.752   8.911  0.0792  0.7335  0.1721
21232SOL    HW175755   6.539   0.722   8.999 -2.8033  0.2029 -1.1399
21232SOL    HW275756   6.652   0.692   8.885  0.0953  0.0786  1.6689
21233SOL     OW75757   3.698   1.554   9.641 -0.6387  0.0738 -0.1373
21233SOL    HW175758   3.673   1.539   9.546 -1.4021  0.9722 -0.0890
21233SOL    HW275759   3.726   1.649   9.654 -2.3316  0.4633  0.8826
21234SOL     OW75760   5.333   6.655   7.348  0.3533 -0.4049 -0.2128
21234SOL    HW175761   5.315   6.583   7.416  2.3088 -0.7115 -0.0002
21234SOL    HW275762   5.430   6.677   7.348  0.1661  0.4657 -2.0805
21235SOL     OW75763   6.064   9.522   1.626  0.1746 -0.0453  0.2985
21235SOL    HW175764   6.006   9.475   1.692 -1.3768  2.9941  1.2005
21235SOL    HW275765   6.133   9.576   1.674  0.5360  0.3381 -0.6362
21236SOL     OW75766   9.768   3.291   1.311  0.1427  0.4964 -0.4520
21236SOL    HW175767   9.789   3.243   1.226  1.8238  1.2915 -0.4976
21236SOL    HW275768   9.708   3.234   1.367  0.3436 -0.7306 -1.4552
21237SOL     OW75769   7.852   1.317   1.384 -0.0661 -0.4443  0.1999
21237SOL    HW175770   7.920   1.323   1.457  0.2958  1.6527 -0.2720
21237SOL    HW275771   7.838   1.221   1.359  1.3481 -1.0309  1.5642
21238SOL     OW75772   8.657   8.540   6.135 -0.0556  0.5232 -0.0159
21238SOL    HW175773   8.640   8.609   6.205  0.0705  1.1414 -0.5862
21238SOL    HW275774   8.750   8.503   6.146  0.0556  0.8003 -0.0066
21239SOL     OW75775   6.087   9.287   6.392 -0.0640  0.4158 -0.3740
21239SOL    HW175776   6.035   9.249   6.468 -1.1450  0.1510 -1.2365
21239SOL    HW275777   6.028   9.346   6.337  0.5668  0.1801 -1.3145
21240SOL     OW75778   8.214   9.688   3.094 -0.0893  0.0509 -0.1354
21240SOL    HW175779   8.273   9.620   3.138 -1.4873 -0.5391  0.8391
21240SOL    HW275780   8.163   9.644   3.020 -1.8346 -0.2518  1.2159
21241SOL     OW75781   6.641   0.935   6.951  0.4969  0.0677  0.1129
21241SOL    HW175782   6.551   0.976   6.940  0.1628 -0.6000  0.3305
21241SOL    HW275783   6.693   0.945   6.866 -0.6586 -1.6379 -0.8315
21242SOL     OW75784   0.636   9.261   6.231  0.6612  0.3704  0.2816
21242SOL    HW175785   0.686   9.239   6.147  1.2319  1.3207  0.3632
21242SOL    HW275786   0.668   9.349   6.267 -0.8421  0.8336  0.5238
21243SOL     OW75787   8.971   8.970   7.785  0.4317 -0.0095  0.1386
21243SOL    HW175788   8.969   8.875   7.754 -1.7628 -0.1566  0.6006
21243SOL    HW275789   9.040   8.981   7.856  0.1926 -1.4446  0.6163
21244SOL     OW75790   6.803   2.378   1.241  0.9294 -0.1705 -0.1176
21244SOL    HW175791   6.763   2.348   1.328  0.9165 -1.2951 -0.5031
21244SOL    HW275792   6.739   2.440   1.195  0.2054 -0.8952 -0.0987
21245SOL     OW75793   9.181   2.856   1.040  0.0344  0.4237 -0.2376
21245SOL    HW175794   9.164   2.859   0.941 -1.6619  2.3574  0.0633
21245SOL    HW275795   9.198   2.949   1.073  1.3918 -0.3048  1.1756
21246SOL     OW75796   6.122   0.051   3.349 -0.1115  0.1197 -0.8305
21246SOL    HW175797   6.166   0.123   3.295  1.6349  1.6928  2.5484
21246SOL    HW275798   6.190  -0.018   3.374 -0.0849  1.1566  2.1304
21247SOL     OW75799   9.029   6.376   6.071 -0.5471 -0.3691  0.1216
21247SOL    HW175800   9.075   6.362   5.983  0.7043  1.7004  0.4340
21247SOL    HW275801   9.068   6.313   6.139  0.6103  0.1401 -0.0547
21248SOL     OW75802   9.216   0.692   3.785 -0.1856 -0.3537  0.9460
21248SOL    HW175803   9.237   0.615   3.725 -1.7340  0.1230 -0.2806
21248SOL    HW275804   9.300   0.738   3.812  0.6131 -1.2532  0.0218
21249SOL     OW75805   6.804   9.245   0.700 -0.6222  0.1886 -0.1376
21249SOL    HW175806   6.897   9.270   0.675  0.0104  1.7534  3.4247
21249SOL    HW275807   6.801   9.151   0.732  0.1726  0.7091  1.5429
21250SOL     OW75808   7.749   7.706   2.201  0.8008 -0.0537  0.3005
21250SOL    HW175809   7.676   7.678   2.264  1.6162 -0.6308  0.9966
21250SOL    HW275810   7.765   7.634   2.134  2.3128 -0.9173  1.5681
21251SOL     OW75811   5.610   9.621   8.635 -0.2492  0.4641  0.1438
21251SOL    HW175812   5.600   9.535   8.684  1.0461  0.2382  0.0185
21251SOL    HW275813   5.693   9.667   8.665  0.9624 -0.0246 -2.3450
21252SOL     OW75814   8.374   0.793   0.774  0.6629  0.1754 -0.2247
21252SOL    HW175815   8.418   0.807   0.863  0.5715  3.0132 -0.5759
21252SOL    HW275816   8.444   0.780   0.704  0.8421  1.1437 -0.2290
21253SOL     OW75817   8.046   1.676   9.271  0.3344 -0.2727  0.0067
21253SOL    HW175818   8.057   1.641   9.365 -0.1578 -2.6494 -0.7829
21253SOL    HW275819   8.047   1.776   9.273  1.3080 -0.2712  2.4330
21254SOL     OW75820   6.263   5.023   8.526 -0.3329 -0.1886 -0.0254
21254SOL    HW175821   6.363   5.018   8.518 -0.3070 -0.5767  0.5890
21254SOL    HW275822   6.234   5.119   8.519  0.1989  0.0692  1.1791
21255SOL     OW75823   5.140   9.286   1.012  0.0087 -0.4720  0.1265
21255SOL    HW175824   5.175   9.372   1.050  0.2529 -0.8232  0.7034
21255SOL    HW275825   5.157   9.283   0.914 -3.8496  2.0934 -0.7690
21256SOL     OW75826   8.177   2.599   8.325  0.5678  0.0062  0.1064
21256SOL    HW175827   8.269   2.606   8.366  0.4313  1.0340  0.2574
21256SOL    HW275828   8.132   2.516   8.359  0.1594  1.2237  2.7183
21257SOL     OW75829   1.398   3.395   0.177 -0.7551 -0.6943 -0.1527
21257SOL    HW175830   1.335   3.338   0.125 -0.7846 -0.5474 -0.2778
21257SOL    HW275831   1.407   3.484   0.133  0.2754 -1.0437 -0.6705
21258SOL     OW75832   5.543   9.139   9.662  1.0948 -0.0449 -0.1469
21258SOL    HW175833   5.507   9.081   9.589  1.5869 -0.4742 -0.0496
21258SOL    HW275834   5.491   9.225   9.665  1.2531  0.0861 -1.1681
21259SOL     OW75835   7.275   2.852   7.617 -0.4014 -0.0635  0.4244
21259SOL    HW175836   7.315   2.931   7.570  0.2999 -0.0194  1.0707
21259SOL    HW275837   7.313   2.846   7.710 -0.2492 -1.3046  0.2976
21260SOL     OW75838   3.183   1.397   1.083 -0.0759 -0.4197  0.1231
21260SOL    HW175839   3.145   1.315   1.040  0.7591 -1.5613  1.5146
21260SOL    HW275840   3.155   1.400   1.179 -1.4627  1.8074 -0.3099
21261SOL     OW75841   9.515   5.020   4.792  0.0722 -0.4151  0.1568
21261SOL    HW175842   9.440   4.966   4.830  0.0934 -0.3980  0.2233
21261SOL    HW275843   9.548   5.085   4.862  2.7673 -3.0914  1.4921
21262SOL     OW75844   5.364   7.036   4.711 -0.1886 -0.5448  0.3395
21262SOL    HW175845   5.382   7.134   4.712 -0.5302 -0.4400 -1.5431
21262SOL    HW275846   5.445   6.987   4.743  0.6913  0.2662 -0.6195
21263SOL     OW75847   6.275   6.980   2.465  0.6187  0.0199 -0.0335
21263SOL    HW175848   6.213   7.003   2.540  0.5570  1.5149 -0.5284
21263SOL    HW275849   6.243   6.898   2.419  0.5679 -0.8256  1.4723
21264SOL     OW75850   4.668   4.429   7.805 -0.6946 -0.4569  0.5398
21264SOL    HW175851   4.615   4.369   7.864  1.9236 -1.9731  1.4319
21264SOL    HW275852   4.765   4.420   7.827  0.1394  0.7086 -2.4222
21265SOL     OW75853   6.558   9.415   1.328 -0.5739  0.1514  0.2135
21265SOL    HW175854   6.493   9.442   1.258  0.7347 -0.5556 -1.2937
21265SOL    HW275855   6.530   9.326   1.367  0.5528 -1.1127 -1.8194
21266SOL     OW75856   1.731   2.686   1.715 -0.3300  0.1449 -0.0720
21266SOL    HW175857   1.743   2.647   1.806 -0.4240 -1.6864 -0.8188
21266SOL    HW275858   1.820   2.695   1.671 -0.1905  1.8936  0.5238
21267SOL     OW75859   7.201   0.774   3.244 -0.1374 -0.4970 -1.0375
21267SOL    HW175860   7.110   0.751   3.209 -0.1659 -0.6172 -0.8833
21267SOL    HW275861   7.228   0.708   3.314 -0.9570  0.9354  0.6787
21268SOL     OW75862   9.025   3.553   1.107  0.0676  0.4107 -0.2511
21268SOL    HW175863   8.985   3.518   1.192 -0.2508  3.0378  0.7459
21268SOL    HW275864   9.119   3.582   1.123  0.2667  0.1907 -0.9899
21269SOL     OW75865   2.396   1.923   2.126  0.3081  0.2689 -0.2071
21269SOL    HW175866   2.356   1.866   2.055  0.2054  1.0221 -0.7581
21269SOL    HW275867   2.323   1.964   2.182  0.2458  2.1781 -1.6281
21270SOL     OW75868   6.966   4.345   6.143  0.0817 -0.1944  0.0485
21270SOL    HW175869   7.004   4.436   6.130  0.9342 -0.3343  1.4453
21270SOL    HW275870   6.958   4.326   6.241 -2.7624 -0.5209 -0.1981
21271SOL     OW75871   6.096   2.601   0.370  0.7696  0.4629 -0.0269
21271SOL    HW175872   6.039   2.680   0.350  1.5640  0.6010 -1.8780
21271SOL    HW275873   6.184   2.632   0.406 -0.1423  0.2662  2.4518
21272SOL     OW75874   7.187   0.569   8.783  0.2581 -0.5575 -0.6176
21272SOL    HW175875   7.185   0.497   8.852  0.5321  1.1954  1.2599
21272SOL    HW275876   7.204   0.657   8.827  0.8908  0.5448 -2.9748
21273SOL     OW75877   4.758   5.679   3.784 -0.1166  0.3360  0.1508
21273SOL    HW175878   4.718   5.770   3.785 -1.0817 -0.0576 -1.0900
21273SOL    HW275879   4.853   5.684   3.755 -0.1788  0.9407  0.0510
21274SOL     OW75880   0.858   2.482   4.747  0.2981 -1.0216  0.3451
21274SOL    HW175881   0.885   2.555   4.684 -2.5625  1.0870  1.4460
21274SOL    HW275882   0.878   2.393   4.706 -0.7295  0.3094 -3.1908
21275SOL     OW75883   4.473   2.977   1.781  0.3739 -0.3933  0.1092
21275SOL    HW175884   4.544   2.928   1.831 -0.4653 -1.0668  0.6693
21275SOL    HW275885   4.398   2.999   1.843 -0.4614 -0.7977 -0.7430
21276SOL     OW75886   9.248   5.632   1.218  0.0266 -0.0876  0.3325
21276SOL    HW175887   9.321   5.568   1.191  0.1682  0.3322 -0.2819
21276SOL    HW275888   9.289   5.715   1.255 -0.1641 -0.4342  1.3373
21277SOL     OW75889   6.292   5.501   6.192 -0.2667  0.4888 -0.3731
21277SOL    HW175890   6.385   5.536   6.209  0.2309 -0.1762 -1.7069
21277SOL    HW275891   6.234   5.523   6.271  0.7910  1.6977  0.0924
21278SOL     OW75892   6.918   0.210   3.485 -0.2601 -0.3673 -0.6848
21278SOL    HW175893   7.016   0.189   3.486 -0.2967 -0.5521  0.8618
21278SOL    HW275894   6.870   0.146   3.546 -1.2984 -0.0822 -1.1932
21279SOL     OW75895   4.695   8.983   1.818  0.4291  0.2716 -0.0911
21279SOL    HW175896   4.616   9.043   1.804  0.0518  0.4340  2.5030
21279SOL    HW275897   4.664   8.890   1.836  0.8735  0.0866 -0.2757
21280SOL     OW75898   8.503   2.740   0.732  0.0357  0.6055 -0.1144
21280SOL    HW175899   8.406   2.745   0.755 -0.0792 -0.1547 -0.3905
21280SOL    HW275900   8.541   2.832   0.727 -0.6642  0.9088  0.0301
21281SOL     OW75901   6.383   7.095   3.101 -0.4624 -0.4069  0.2148
21281SOL    HW175902   6.395   7.076   3.004 -3.4572  1.4531 -0.5795
21281SOL    HW275903   6.453   7.159   3.131 -1.7133  1.9606 -1.6935
21282SOL     OW75904   7.909   1.375   9.045 -0.0886  0.0783 -0.0087
21282SOL    HW175905   7.840   1.393   8.974 -0.6267 -0.8636  0.2686
21282SOL    HW275906   7.984   1.439   9.035 -0.3170  0.1662 -1.2458
21283SOL     OW75907   0.125   8.606   0.380 -0.0258  0.0339  0.0498
21283SOL    HW175908   0.157   8.603   0.285  1.3123 -4.0393  0.5119
21283SOL    HW275909   0.040   8.658   0.385 -0.3442 -0.0139 -3.4373
21284SOL     OW75910   9.380   3.632   7.908  0.0890 -0.1351  0.2684
21284SOL    HW175911   9.415   3.656   7.818  1.9950  0.3132  1.0873
21284SOL    HW275912   9.422   3.547   7.939 -1.4557 -0.9236  0.2488
21285SOL     OW75913   1.608   1.666   5.423  0.3276  0.2119 -0.5908
21285SOL    HW175914   1.705   1.668   5.444  0.8273 -0.8300 -2.6204
21285SOL    HW275915   1.578   1.757   5.394  0.1220  1.1131  2.3230
21286SOL     OW75916   3.484   2.233   6.846 -0.2049  0.2149 -0.7556
21286SOL    HW175917   3.504   2.151   6.898  1.4700 -0.0479 -1.7819
21286SOL    HW275918   3.385   2.246   6.840 -0.4299 -0.2593  1.6544
21287SOL     OW75919   4.310   3.319   9.486  0.4725 -0.4345 -0.0306
21287SOL    HW175920   4.352   3.243   9.536  0.9269 -0.1779 -0.0224
21287SOL    HW275921   4.246   3.282   9.419  1.8158 -0.9190 -1.0834
21288SOL     OW75922   8.464   9.330   8.355 -0.1373  0.2382  0.6290
21288SOL    HW175923   8.498   9.245   8.395 -0.3961  0.1606  0.6781
21288SOL    HW275924   8.468   9.403   8.424 -0.6354  0.0896  0.8111
21289SOL     OW75925   7.567   4.053   8.497 -0.1303  0.0168 -0.1906
21289SOL    HW175926   7.559   4.103   8.411  0.1608  0.8907  0.2769
21289SOL    HW275927   7.653   4.076   8.541 -0.7126  0.3374  0.7994
21290SOL     OW75928   2.788   2.385   5.748 -0.0402  0.1910 -0.5409
21290SOL    HW175929   2.806   2.299   5.796  0.0683  0.8302  0.5771
21290SOL    HW275930   2.850   2.456   5.782 -1.3999  1.1937 -0.1125
21291SOL     OW75931   1.385   6.074   3.567  0.3868 -0.0354 -0.3182
21291SOL    HW175932   1.364   6.094   3.662 -0.1969  2.7259 -0.9888
21291SOL    HW275933   1.482   6.094   3.549  0.1891  0.6773 -0.6037
21292SOL     OW75934   4.222   8.117   9.839 -0.2513  0.1451 -0.4642
21292SOL    HW175935   4.212   8.128   9.740 -0.8687  3.0358 -0.1160
21292SOL    HW275936   4.317   8.097   9.861  0.4788  2.3678 -1.4393
21293SOL     OW75937   8.665   4.338   4.614  0.2329  0.7909  0.4197
21293SOL    HW175938   8.671   4.269   4.686  1.6990  0.7294  0.2445
21293SOL    HW275939   8.725   4.415   4.635 -0.4063  1.4265 -0.0317
21294SOL     OW75940   8.006   1.817   9.669  0.1969  0.4374  0.4126
21294SOL    HW175941   7.954   1.902   9.670 -0.1244  0.2472  0.1842
21294SOL    HW275942   8.094   1.831   9.625 -0.0346  0.5521 -0.0210
21295SOL     OW75943   9.814   1.059   8.892 -0.4140 -0.1293 -0.3891
21295SOL    HW175944   9.809   1.049   8.992 -0.6159 -0.3309 -0.4216
21295SOL    HW275945   9.889   1.122   8.870 -1.0394  0.7440 -0.0625
21296SOL     OW75946   8.895   2.088   2.018  0.3623  0.1998 -0.6157
21296SOL    HW175947   8.911   2.000   1.971 -0.5920 -0.0798 -0.4142
21296SOL    HW275948   8.977   2.112   2.070  0.6723 -0.5147 -0.7541
21297SOL     OW75949   4.943   2.624   3.443 -0.0404 -0.2711  0.6019
21297SOL    HW175950   4.856   2.579   3.421  1.8328 -1.9496 -3.8980
21297SOL    HW275951   5.014   2.554   3.453  1.2650  1.2273  2.0169
21298SOL     OW75952   7.766   8.720   1.308 -0.5741 -0.6686 -0.2098
21298SOL    HW175953   7.722   8.763   1.230 -1.8117 -0.3586  0.6399
21298SOL    HW275954   7.835   8.654   1.276 -3.7789 -3.4329 -1.6570
21299SOL     OW75955   9.402   3.925   8.858 -0.2531  0.1021  0.6208
21299SOL    HW175956   9.444   3.891   8.774 -1.8735  2.6607 -1.3032
21299SOL    HW275957   9.316   3.877   8.874 -0.6230  0.5697  0.0463
21300SOL     OW75958   4.522   4.944   0.865 -0.2288  0.9512 -0.6451
21300SOL    HW175959   4.603   4.925   0.922 -1.1918  0.7978  0.6970
21300SOL    HW275960   4.449   4.980   0.922 -0.6521  2.4381 -2.0949
21301SOL     OW75961   7.476   8.553   7.076 -0.7322 -0.0603  0.0433
21301SOL    HW175962   7.437   8.479   7.021 -1.9809 -0.5660  1.5690
21301SOL    HW275963   7.509   8.625   7.016 -1.2322 -1.0072 -1.4024
21302SOL     OW75964   8.846   2.039   1.562 -0.1357  0.1434 -0.0545
21302SOL    HW175965   8.879   1.944   1.556 -0.1909  0.0834  0.5260
21302SOL    HW275966   8.746   2.040   1.555 -0.0979  0.2096 -0.5879
21303SOL     OW75967   3.896   9.806   2.824  0.6066  0.4062 -0.2368
21303SOL    HW175968   3.902   9.904   2.846  1.3774  0.2431  0.3072
21303SOL    HW275969   3.855   9.757   2.901  2.3853 -0.0273  0.4585
21304SOL     OW75970   3.885   0.381   2.293 -0.1290 -0.2256 -0.2437
21304SOL    HW175971   3.918   0.287   2.296 -0.6866 -0.4567 -1.2588
21304SOL    HW275972   3.808   0.388   2.229  0.3368  1.0551 -0.6830
21305SOL     OW75973   6.268   1.486   1.778  0.0904 -0.3426  0.6073
21305SOL    HW175974   6.334   1.467   1.850 -0.4821  0.2214  1.2859
21305SOL    HW275975   6.201   1.553   1.810  0.8853  1.2792 -1.0833
21306SOL     OW75976   4.958   7.405   4.957 -0.5469 -0.0658 -0.2025
21306SOL    HW175977   5.014   7.485   4.935  0.0482 -0.5699 -0.5339
21306SOL    HW275978   5.015   7.323   4.956 -1.1067 -0.4640  0.3804
21307SOL     OW75979   7.099   0.064   7.633 -0.0948 -0.0998  0.1467
21307SOL    HW175980   7.004   0.070   7.602  0.4665 -0.9039 -1.8093
21307SOL    HW275981   7.161   0.084   7.556  1.3959 -4.5029  0.0479
21308SOL     OW75982   5.940   0.976   9.329 -0.5479  0.1517 -0.1279
21308SOL    HW175983   5.869   0.941   9.267 -0.9851  1.2042 -0.2268
21308SOL    HW275984   5.998   1.040   9.280  2.2094 -2.7292 -0.8400
21309SOL     OW75985   9.030   2.587   2.491 -0.0887  0.4429 -0.6085
21309SOL    HW175986   9.036   2.600   2.590  2.2926  1.8414 -0.9176
21309SOL    HW275987   9.061   2.669   2.444 -1.2211 -0.1951 -2.5484
21310SOL     OW75988   5.180   1.105   2.809 -1.0769  0.3564  0.1310
21310SOL    HW175989   5.241   1.025   2.816  1.5296  2.3079  0.4973
21310SOL    HW275990   5.145   1.112   2.716  2.0782  1.1290 -1.0623
21311SOL     OW75991   8.777   6.431   6.009 -0.8189  0.1758  1.4795
21311SOL    HW175992   8.877   6.423   6.011 -0.9774 -1.9637  1.1170
21311SOL    HW275993   8.739   6.396   6.095 -1.3419 -0.1346  1.1240
21312SOL     OW75994   0.836   0.416   6.366 -0.3697 -0.3252  0.0103
21312SOL    HW175995   0.797   0.462   6.286 -0.5351 -0.1789  0.1753
21312SOL    HW275996   0.774   0.426   6.443  0.4994  0.8272  0.5711
21313SOL     OW75997   0.020   2.332   3.235  0.6510 -0.0872  0.5015
21313SOL    HW175998   0.045   2.260   3.171  1.3999 -0.8129  1.5824
21313SOL    HW275999   0.034   2.299   3.329  2.7646  2.0670  0.9986
21314SOL     OW76000   8.392   0.879   9.968 -0.2640  0.3832  0.8579
21314SOL    HW176001   8.468   0.943   9.958  0.0321  0.3568  2.6864
21314SOL    HW276002   8.310   0.917   9.925  0.1480  1.5832  1.1085
21315SOL     OW76003   1.074   7.040   4.173 -0.6021  0.1906  0.0020
21315SOL    HW176004   0.983   7.003   4.158 -1.1533  0.7962  1.6505
21315SOL    HW276005   1.068   7.140   4.181 -0.0452  0.1138  1.6348
21316SOL     OW76006   9.384   7.157   9.396  0.2735 -1.0029 -0.0329
21316SOL    HW176007   9.300   7.145   9.450  1.7793 -0.8176  2.4212
21316SOL    HW276008   9.362   7.148   9.299 -2.9283  1.0061  0.4261
21317SOL     OW76009   0.411   9.708   2.880  0.0880  0.1759 -0.3395
21317SOL    HW176010   0.434   9.634   2.943  0.3777  1.0948  0.6520
21317SOL    HW276011   0.414   9.674   2.786  3.4549 -0.3096 -0.1341
21318SOL     OW76012   1.585   2.450   4.270  0.7148  0.4336  0.3812
21318SOL    HW176013   1.560   2.520   4.203  1.8399  0.0764 -0.4451
21318SOL    HW276014   1.633   2.375   4.223 -0.5411 -0.9249  1.2423
21319SOL     OW76015   6.784   9.850   9.467 -0.6356  0.1699 -0.2001
21319SOL    HW176016   6.768   9.817   9.560 -0.8153 -0.2826 -0.3918
21319SOL    HW276017   6.730   9.933   9.451  0.8752  1.3779  0.7456
21320SOL     OW76018   1.605   2.939   4.456 -0.6477 -1.0255 -0.4417
21320SOL    HW176019   1.621   3.031   4.491 -0.8144 -1.1584 -0.0174
21320SOL    HW276020   1.657   2.926   4.371 -0.1726 -0.7350 -0.1940
21321SOL     OW76021   5.531   9.828   0.000  0.1497  0.4137 -0.3066
21321SOL    HW176022   5.518   9.746   0.057  0.1174  1.0623  0.6292
21321SOL    HW276023   5.605   9.811  -0.065  1.2112  0.1777  0.9372
21322SOL     OW76024   3.490   5.458   0.625  0.1648  0.2704  0.7525
21322SOL    HW176025   3.516   5.402   0.547 -0.1377  1.4689 -0.2217
21322SOL    HW276026   3.569   5.511   0.657  0.1014  0.3460  0.7859
21323SOL     OW76027   6.785   4.365   3.867  0.0242 -0.1088  0.1928
21323SOL    HW176028   6.693   4.366   3.904  1.3255  1.9050  3.5711
21323SOL    HW276029   6.788   4.420   3.784 -2.0315 -1.1545 -0.6047
21324SOL     OW76030   8.380   0.258   6.114  0.4751  0.4241  0.2793
21324SOL    HW176031   8.332   0.336   6.153  0.7732 -0.3016  2.1744
21324SOL    HW276032   8.415   0.282   6.023 -1.0389  1.8552  0.0541
21325SOL     OW76033   7.453   5.801   2.006  0.5801  0.1269 -0.1980
21325SOL    HW176034   7.354   5.805   2.015  0.5891 -0.8237  0.3234
21325SOL    HW276035   7.489   5.893   1.991 -0.3503  0.5097 -0.0822
21326SOL     OW76036   0.477   3.244   3.803  0.3286  0.2111  0.3109
21326SOL    HW176037   0.476   3.158   3.751  1.1867  1.1155 -1.2697
21326SOL    HW276038   0.385   3.265   3.834  0.4310 -2.3440  2.5849
21327SOL     OW76039   3.469   2.340   8.710  0.3925 -0.2954 -0.3866
21327SOL    HW176040   3.546   2.313   8.769 -0.5506  0.0694  1.0275
21327SOL    HW276041   3.490   2.426   8.664  0.8506 -0.2250 -0.0468
21328SOL     OW76042   7.203   4.329   7.280  0.1577  0.0174  0.3093
21328SOL    HW176043   7.236   4.362   7.369 -0.6687 -1.6384  1.2487
21328SOL    HW276044   7.255   4.247   7.254  1.8073  1.6533 -1.7335
21329SOL     OW76045   8.774   2.807   5.133  0.1491  0.7521  0.7281
21329SOL    HW176046   8.703   2.748   5.095  0.1549  0.6034  0.9456
21329SOL    HW276047   8.754   2.827   5.229  1.6842 -1.3227  1.5058
21330SOL     OW76048   0.399   8.596   4.952  0.1095 -0.3217  0.7317
21330SOL    HW176049   0.489   8.628   4.921 -1.0867  1.8909 -0.5557
21330SOL    HW276050   0.374   8.642   5.037 -0.6509  0.5489  0.0460
21331SOL     OW76051   1.067   5.862   8.025 -0.1207 -0.2541 -0.2389
21331SOL    HW176052   1.093   5.766   8.037  3.0462  0.2967 -1.9027
21331SOL    HW276053   0.996   5.869   7.955  0.2421 -1.3292 -0.7213
21332SOL     OW76054   9.806   7.129   9.475 -0.5859 -0.5083 -0.4775
21332SOL    HW176055   9.805   7.103   9.572  0.1810  0.2451 -0.2538
21332SOL    HW276056   9.880   7.081   9.428  1.3907  1.8063  0.1251
21333SOL     OW76057   7.415   1.314   4.243  0.4092 -0.0841 -0.2051
21333SOL    HW176058   7.457   1.318   4.334  1.2860 -0.9253 -0.5546
21333SOL    HW276059   7.391   1.219   4.222 -3.0395  0.5618  0.5657
21334SOL     OW76060   8.541   3.520   0.677 -0.2613 -0.0014 -1.0365
21334SOL    HW176061   8.576   3.461   0.750  3.1359  0.5176 -2.1378
21334SOL    HW276062   8.487   3.594   0.716 -2.1439 -2.1664  0.5741
21335SOL     OW76063   6.627   1.149   6.084 -0.1381 -0.2863  0.1579
21335SOL    HW176064   6.540   1.133   6.130  1.0397 -1.0030  2.1884
21335SOL    HW276065   6.615   1.139   5.985 -1.7390 -3.4756  0.6050
21336SOL     OW76066   5.645   7.809   3.021 -0.1031  0.0234 -0.0779
21336SOL    HW176067   5.641   7.905   3.051 -0.7966 -0.2993  0.8654
21336SOL    HW276068   5.733   7.770   3.046 -0.2220  0.1048  0.4623
21337SOL     OW76069   1.716   1.238   2.099  0.5821  0.0832 -0.5361
21337SOL    HW176070   1.682   1.332   2.095  1.3982  0.3832 -0.5632
21337SOL    HW276071   1.639   1.175   2.113  0.2652  0.9442  1.8623
21338SOL     OW76072   6.402   2.262   3.606 -0.1148 -1.0138  0.0126
21338SOL    HW176073   6.427   2.344   3.555  0.2532 -0.8748  0.4080
21338SOL    HW276074   6.341   2.206   3.551 -1.2164  0.0342  0.1432
21339SOL     OW76075   5.167   9.862   0.206 -0.3921  0.1603  0.0974
21339SOL    HW176076   5.134   9.879   0.299  0.4008 -0.6975  0.5332
21339SOL    HW276077   5.221   9.940   0.174 -0.7426  0.4933  0.3118
21340SOL     OW76078   7.555   9.841   2.704 -0.5071  0.3408  0.2586
21340SOL    HW176079   7.603   9.837   2.792 -0.9517 -0.6889  0.4612
21340SOL    HW276080   7.609   9.895   2.639 -0.7191  2.0551  1.4859
21341SOL     OW76081   9.927   1.084   1.435  0.2692  0.3702 -0.0470
21341SOL    HW176082   9.857   1.029   1.389  0.4712 -0.0100  0.0934
21341SOL    HW276083   9.884   1.161   1.482  0.0653  0.7791 -0.8937
21342SOL     OW76084   7.628   1.841   4.688 -0.1136 -0.0955 -0.2340
21342SOL    HW176085   7.724   1.848   4.714 -0.3677  0.8416  0.4769
21342SOL    HW276086   7.574   1.806   4.765 -0.4161 -0.1740 -0.4778
21343SOL     OW76087   7.886   2.272   5.749  0.0636 -0.0491  0.0501
21343SOL    HW176088   7.893   2.227   5.660  1.5314  0.3370 -0.0429
21343SOL    HW276089   7.976   2.307   5.776 -0.5812  0.7617  1.2005
21344SOL     OW76090   4.404   0.184   9.377  0.0557 -0.2972 -0.0541
21344SOL    HW176091   4.414   0.280   9.402 -0.5863 -0.2406 -0.0271
21344SOL    HW276092   4.483   0.133   9.411  0.6607  0.3111 -0.5203
21345SOL     OW76093   3.955   7.348   0.141  0.3552  0.2420 -0.3196
21345SOL    HW176094   4.034   7.293   0.169  0.9464 -0.3704 -3.0326
21345SOL    HW276095   3.927   7.321   0.049 -0.9366  2.7805 -0.7105
21346SOL     OW76096   0.062   5.360   5.126 -0.2232 -0.6507  0.1983
21346SOL    HW176097   0.004   5.283   5.097  0.1616 -1.4768  1.5768
21346SOL    HW276098   0.099   5.341   5.217 -0.7180  1.5124  0.8670
21347SOL     OW76099   5.035   2.118   9.496  0.4825  0.8731  0.2636
21347SOL    HW176100   4.986   2.049   9.549 -0.3893  1.0276 -0.3256
21347SOL    HW276101   5.096   2.073   9.431 -1.6847  0.6015 -1.6233
21348SOL     OW76102   8.639   1.418   5.383 -0.1406 -0.4246  0.1567
21348SOL    HW176103   8.542   1.415   5.405  0.0870  1.6114  1.6072
21348SOL    HW276104   8.674   1.511   5.398  2.2730 -1.3850  0.7629
21349SOL     OW76105   7.570   7.655   5.887  0.0638  0.2536  0.2017
21349SOL    HW176106   7.670   7.649   5.886 -0.0210 -1.2737 -0.4130
21349SOL    HW276107   7.542   7.749   5.868  1.4017  1.0928  2.1242
21350SOL     OW76108   7.878   3.673   2.042 -0.4190  0.4469 -0.1783
21350SOL    HW176109   7.965   3.625   2.033 -0.6858  0.2951 -2.2286
21350SOL    HW276110   7.894   3.771   2.032 -0.4550  0.4450 -0.2531
21351SOL     OW76111   5.343   3.362   1.881 -0.1004 -0.2102  0.6191
21351SOL    HW176112   5.250   3.398   1.877 -0.5607 -1.4865 -0.4672
21351SOL    HW276113   5.408   3.437   1.894 -1.1304  0.8598 -0.3519
21352SOL     OW76114   8.052   7.245   5.364  0.1563  0.1446  0.6221
21352SOL    HW176115   8.066   7.343   5.380 -1.2846  0.3154  0.9262
21352SOL    HW276116   7.979   7.233   5.297 -0.0961 -0.7284  1.0521
21353SOL     OW76117   6.786   1.136   0.743  0.6059 -0.4582 -0.3431
21353SOL    HW176118   6.757   1.231   0.751  0.6054 -0.4341 -0.6220
21353SOL    HW276119   6.784   1.108   0.647 -0.9578 -1.2267 -0.1125
21354SOL     OW76120   6.313   4.612   9.125 -0.1631 -0.3208 -0.6588
21354SOL    HW176121   6.253   4.644   9.052 -1.0421 -0.3366  0.0375
21354SOL    HW276122   6.299   4.514   9.140 -0.0779 -0.2920 -0.3851
21355SOL     OW76123   7.017   3.982   2.450 -0.0275 -0.0624  0.1739
21355SOL    HW176124   7.040   4.040   2.529 -0.9275  1.9415 -1.0005
21355SOL    HW276125   7.096   3.979   2.388 -0.2132  0.4800 -0.0935
21356SOL     OW76126   8.988   9.941   9.837  0.4643 -0.1770  0.3951
21356SOL    HW176127   8.994   9.875   9.911  0.8355 -1.1145 -0.4506
21356SOL    HW276128   8.902   9.992   9.844  0.7652  0.1615  1.7932
21357SOL     OW76129   2.194   9.938   5.907 -0.0758 -0.0883  0.3824
21357SOL    HW176130   2.261   9.940   5.981  1.1624 -1.3276 -0.6864
21357SOL    HW276131   2.190   9.846   5.869 -1.1368  0.4020 -0.7108
21358SOL     OW76132   7.966   4.297   4.246  0.3427  0.2418 -0.3813
21358SOL    HW176133   7.995   4.373   4.304  0.3407 -0.0160 -0.0381
21358SOL    HW276134   7.973   4.323   4.149  0.5216  0.6101 -0.2671
21359SOL     OW76135   0.941   8.318   0.454  0.3205 -0.5621 -0.1559
21359SOL    HW176136   0.906   8.399   0.407 -1.8377 -0.7148  1.1336
21359SOL    HW276137   0.880   8.241   0.438  1.4607 -1.5071  0.0085
21360SOL     OW76138   7.339   2.445   0.337  0.4952 -0.5980 -0.4436
21360SOL    HW176139   7.403   2.483   0.270 -0.4002  0.5748 -0.6561
21360SOL    HW276140   7.389   2.389   0.402  1.7457  0.2782 -0.6241
21361SOL     OW76141   5.124   1.548   1.704  0.1514  0.0014  0.0348
21361SOL    HW176142   5.172   1.594   1.629  1.5424  1.5953  1.8665
21361SOL    HW276143   5.188   1.489   1.753 -1.4082 -3.3074 -1.7399
21362SOL     OW76144   5.900   1.114   1.081  0.0208  0.0053  1.2455
21362SOL    HW176145   5.860   1.074   0.999  0.9877  1.2680  0.1303
21362SOL    HW276146   5.851   1.081   1.162 -0.3895 -1.9256  0.2330
21363SOL     OW76147   5.567   1.357   1.497 -0.3727  0.2036  0.1507
21363SOL    HW176148   5.530   1.331   1.586 -0.9696  1.4482  0.2770
21363SOL    HW276149   5.650   1.411   1.510 -1.1174  1.4177  0.0116
21364SOL     OW76150   7.385   4.675   5.933 -0.4096  0.5962 -0.7448
21364SOL    HW176151   7.324   4.685   6.011  1.6192 -0.5925  1.0518
21364SOL    HW276152   7.367   4.587   5.888  0.6803 -0.2590  0.4517
21365SOL     OW76153   5.833   8.180   1.061 -0.5218  0.1445 -0.4403
21365SOL    HW176154   5.890   8.183   0.979  0.0669  0.3838 -0.0213
21365SOL    HW276155   5.768   8.104   1.053  2.6813 -2.8707  0.9414
21366SOL     OW76156   2.429   7.147   4.923  0.4258  0.6354  0.0503
21366SOL    HW176157   2.523   7.121   4.900  0.5086  0.7416  0.2655
21366SOL    HW276158   2.417   7.245   4.906  0.6803  0.8481  1.0932
21367SOL     OW76159   7.079   2.325   4.848 -0.2874 -0.5118  0.3837
21367SOL    HW176160   6.982   2.313   4.871 -0.2860 -0.7680  0.2522
21367SOL    HW276161   7.116   2.240   4.813  0.0486 -0.4786  0.6538
21368SOL     OW76162   2.627   7.229   7.048 -0.1712 -0.1082 -0.1214
21368SOL    HW176163   2.548   7.248   6.990  0.6158  0.5177 -1.0028
21368SOL    HW276164   2.679   7.153   7.011  0.2222  0.1598 -0.1187
21369SOL     OW76165   1.852   7.057   3.703  0.4780 -0.5308 -0.1931
21369SOL    HW176166   1.940   7.008   3.707  2.4859  2.7706 -1.5794
21369SOL    HW276167   1.863   7.147   3.746 -2.5683 -0.4951  0.5867
21370SOL     OW76168   0.434   9.624   0.562  0.1838 -0.4754  0.5454
21370SOL    HW176169   0.513   9.597   0.506  0.0016  0.2421 -0.0719
21370SOL    HW276170   0.367   9.550   0.562 -0.3017 -0.0706 -1.1169
21371SOL     OW76171   6.899   2.902   2.172 -0.3278 -0.4699 -0.4931
21371SOL    HW176172   6.854   2.981   2.214  2.1121 -0.8271  3.0229
21371SOL    HW276173   6.835   2.825   2.171 -0.6944 -0.2472  2.0577
21372SOL     OW76174   6.134   6.095   7.754  0.0626 -0.0459  0.2049
21372SOL    HW176175   6.218   6.146   7.733 -0.6856  1.2963  0.4322
21372SOL    HW276176   6.148   6.042   7.838  0.6554  0.2513  0.2990
21373SOL     OW76177   9.691   9.100   9.385  0.0509 -0.3253  0.1704
21373SOL    HW176178   9.762   9.158   9.424  1.2454 -0.1886 -2.1677
21373SOL    HW276179   9.663   9.032   9.453  2.4577 -0.4435  1.0874
21374SOL     OW76180   6.937   0.044   2.326 -0.0637  0.7484  0.1653
21374SOL    HW176181   6.858  -0.008   2.357  1.3131 -1.1865  0.5157
21374SOL    HW276182   6.927   0.140   2.352 -1.7369  0.2905  1.2260
21375SOL     OW76183   1.023   9.446   3.567  0.5882 -0.7162  0.0244
21375SOL    HW176184   0.979   9.535   3.556  1.9842  0.0693  0.7009
21375SOL    HW276185   1.121   9.455   3.551  0.9915 -1.7893  1.7735
21376SOL     OW76186   5.469   8.103   5.967 -0.6017  0.0948 -0.3172
21376SOL    HW176187   5.473   8.079   6.064  0.5831 -1.3008 -0.7080
21376SOL    HW276188   5.374   8.094   5.935 -0.4563 -2.6842 -0.0890
21377SOL     OW76189   4.794   0.689   2.774 -0.1378  0.0028 -0.3772
21377SOL    HW176190   4.698   0.680   2.748 -0.1643 -0.3615 -0.1655
21377SOL    HW276191   4.807   0.656   2.868  0.1607  0.2251 -0.3373
21378SOL     OW76192   1.383   7.518   9.537 -0.2077 -0.1398 -0.1741
21378SOL    HW176193   1.309   7.546   9.476 -0.2797  0.6586  0.2881
21378SOL    HW276194   1.455   7.474   9.482 -0.1340  0.8490 -0.8800
21379SOL     OW76195   8.394   1.585   1.922  0.2173  0.0333  0.2684
21379SOL    HW176196   8.400   1.648   2.000  1.0362 -0.7191  0.8305
21379SOL    HW276197   8.463   1.513   1.932 -0.7910 -1.0367 -0.2870
21380SOL     OW76198   5.982   7.843   7.644 -0.0893 -0.0862  0.1488
21380SOL    HW176199   6.004   7.767   7.583 -1.1313  0.6838 -1.2022
21380SOL    HW276200   6.003   7.817   7.738  3.5364 -0.5398 -0.7082
21381SOL     OW76201   0.726   8.184   3.385  0.0513  0.4767  0.0175
21381SOL    HW176202   0.682   8.224   3.465 -1.1828 -3.0805  1.2383
21381SOL    HW276203   0.792   8.115   3.415  0.0585 -0.4297 -2.0255
21382SOL     OW76204   6.423   0.794   8.664  0.1431  0.5761  0.8932
21382SOL    HW176205   6.481   0.778   8.584 -2.2124 -1.7407 -0.4062
21382SOL    HW276206   6.471   0.763   8.746  0.2433 -2.6876 -0.3253
21383SOL     OW76207   7.250   7.125   7.756  0.1781  0.1247 -0.0276
21383SOL    HW176208   7.256   7.078   7.844 -1.7754 -0.9171 -0.4311
21383SOL    HW276209   7.234   7.223   7.771 -0.3651 -0.0857  0.7765
21384SOL     OW76210   0.715   8.730   3.372 -0.1005  0.5914 -0.2495
21384SOL    HW176211   0.646   8.658   3.382 -0.3458  1.2415  3.0759
21384SOL    HW276212   0.806   8.692   3.385 -0.2299  0.8516  1.5013
21385SOL     OW76213   7.877   9.466   7.196 -0.0990 -0.7409 -0.6197
21385SOL    HW176214   7.842   9.394   7.256  0.9638 -0.5387  0.2538
21385SOL    HW276215   7.805   9.493   7.131 -2.6180  1.7429  3.0364
21386SOL     OW76216   7.260   4.848   8.204  0.0898  0.0186  0.3316
21386SOL    HW176217   7.177   4.855   8.148  1.0781  0.7585 -1.0809
21386SOL    HW276218   7.340   4.850   8.145  1.1005 -1.7204  1.6143
21387SOL     OW76219   7.582   7.847   0.012 -0.1008  0.2963  0.1989
21387SOL    HW176220   7.606   7.908  -0.063  0.0033 -0.6532 -0.5466
21387SOL    HW276221   7.666   7.815   0.057  0.0288 -2.0772 -1.6514
21388SOL     OW76222   9.330   6.600   3.196  0.0826 -0.4721  0.7150
21388SOL    HW176223   9.387   6.678   3.173  0.8199 -1.0072  0.7294
21388SOL    HW276224   9.238   6.632   3.221  0.5461  0.4244  1.2940
21389SOL     OW76225   8.560   3.254   1.129 -0.5931  0.3179 -0.6146
21389SOL    HW176226   8.608   3.225   1.212 -0.7527 -1.1976 -1.0389
21389SOL    HW276227   8.604   3.213   1.049 -0.4779  1.7116 -1.2905
21390SOL     OW76228   9.613   3.425   9.894  0.3054  0.2365  0.3778
21390SOL    HW176229   9.664   3.379   9.821 -0.3707  0.5438 -0.2978
21390SOL    HW276230   9.515   3.420   9.873  0.2037  1.6056  0.5224
21391SOL     OW76231   9.482   1.718   7.965  0.2870  0.1290  0.4840
21391SOL    HW176232   9.390   1.734   8.000  0.6600  0.4418  1.3284
21391SOL    HW276233   9.547   1.775   8.015  0.8385  0.5255 -0.6656
21392SOL     OW76234   8.286   1.736   1.726 -0.6463  0.0405 -0.0840
21392SOL    HW176235   8.320   1.683   1.804  0.1264 -1.3590 -1.3575
21392SOL    HW276236   8.264   1.829   1.757  2.0190  0.2680  1.3054
21393SOL     OW76237   7.602   9.108   1.639 -0.1789  0.4287  0.0364
21393SOL    HW176238   7.515   9.060   1.630  0.1189 -0.4328  1.7421
21393SOL    HW276239   7.637   9.129   1.548 -2.6605  1.7027 -0.6951
21394SOL     OW76240   9.416   0.575   8.494  0.0902 -0.0951  0.0918
21394SOL    HW176241   9.502   0.624   8.482  0.3300 -0.4070  0.5241
21394SOL    HW276242   9.349   0.633   8.541 -0.6685  0.9382 -2.2100
21395SOL     OW76243   7.897   7.245   7.768 -0.4357  0.3944 -0.4350
21395SOL    HW176244   7.903   7.182   7.846 -0.5582  1.4899  0.4734
21395SOL    HW276245   7.988   7.257   7.728 -0.7343 -1.9718 -1.9382
21396SOL     OW76246   5.576   2.772   2.196 -0.4918 -0.4136 -0.5289
21396SOL    HW176247   5.645   2.834   2.158  0.6095 -1.2847  0.0634
21396SOL    HW276248   5.502   2.827   2.236  0.5294  0.5239  0.0928
21397SOL     OW76249   6.576   0.815   3.224 -0.2168 -0.4879 -0.1260
21397SOL    HW176250   6.644   0.781   3.289 -0.1594 -0.5601 -0.2234
21397SOL    HW276251   6.565   0.749   3.150  0.5956  0.1371 -0.8193
21398SOL     OW76252   7.862   0.662   9.777  0.2193 -0.1612 -0.1280
21398SOL    HW176253   7.781   0.611   9.748  0.7943 -1.2711  0.1904
21398SOL    HW276254   7.847   0.698   9.868 -0.0541 -0.0597 -0.2108
21399SOL     OW76255   9.608   9.347   0.346  0.3282 -0.8337  0.0046
21399SOL    HW176256   9.586   9.283   0.273 -1.3614 -2.5012  1.9148
21399SOL    HW276257   9.526   9.399   0.370  1.1202  0.4044  0.0581
21400SOL     OW76258   4.010   7.833   1.239 -0.4794  0.2772 -0.2114
21400SOL    HW176259   3.996   7.923   1.279 -0.6684  0.5252 -0.8210
21400SOL    HW276260   3.924   7.782   1.239 -0.3622  0.0778  0.1771
21401SOL     OW76261   1.027   2.501   4.339  0.0295 -0.5518  0.3358
21401SOL    HW176262   0.964   2.573   4.308  0.4629  0.4548  1.7665
21401SOL    HW276263   1.041   2.509   4.437  2.3735 -0.7954  0.0484
21402SOL     OW76264   2.770   8.857   5.487  0.2475 -0.0133  0.6937
21402SOL    HW176265   2.727   8.828   5.402  0.7009 -0.3837  0.5919
21402SOL    HW276266   2.852   8.910   5.467 -2.1787  3.9916  0.7827
21403SOL     OW76267   6.529   0.061   8.428 -0.4716 -0.1549  0.0872
21403SOL    HW176268   6.576  -0.025   8.446  0.6566  0.2654 -0.7800
21403SOL    HW276269   6.441   0.042   8.385 -0.1760 -0.8742 -0.2114
21404SOL     OW76270   0.008   0.368   4.779 -0.2897 -0.1297  0.7291
21404SOL    HW176271  -0.090   0.364   4.762 -0.4418 -1.2221  1.7635
21404SOL    HW276272   0.045   0.456   4.748 -1.4773  0.0281 -0.2324
21405SOL     OW76273   5.108   0.257   1.570 -0.4514 -0.1006  1.0555
21405SOL    HW176274   5.090   0.272   1.473  0.9155  0.0645  0.8100
21405SOL    HW276275   5.116   0.345   1.617  3.0435 -0.0393  0.4869
21406SOL     OW76276   8.585   4.791   4.410  0.4780  0.2390 -0.4535
21406SOL    HW176277   8.681   4.766   4.423 -0.1889 -1.5872  1.0861
21406SOL    HW276278   8.536   4.715   4.368 -0.0622  1.6460 -2.4952
21407SOL     OW76279   1.226   0.525   3.382  0.7727 -0.3575  0.2122
21407SOL    HW176280   1.318   0.494   3.408  0.1099 -1.1556  1.5906
21407SOL    HW276281   1.186   0.577   3.457 -0.0986 -0.4169 -0.2104
21408SOL     OW76282   6.654   9.587   2.020 -0.2306 -0.3548  0.6980
21408SOL    HW176283   6.656   9.593   2.119  0.4548  0.8437  0.6286
21408SOL    HW276284   6.742   9.618   1.983 -0.9633  0.5633 -0.3296
21409SOL     OW76285   7.478   9.367   7.077 -0.1435  0.1076  0.2078
21409SOL    HW176286   7.512   9.283   7.035  0.3210  0.8745 -1.0024
21409SOL    HW276287   7.469   9.355   7.176 -0.0807 -1.3510  0.0384
21410SOL     OW76288   1.969   7.037   2.552 -0.3566 -0.5783  0.8224
21410SOL    HW176289   1.906   6.961   2.532 -0.1644 -0.4666 -0.2516
21410SOL    HW276290   2.063   7.006   2.538 -0.2454 -0.3151  0.9930
21411SOL     OW76291   8.816   3.408   5.323 -0.2627 -0.0254  0.0702
21411SOL    HW176292   8.906   3.436   5.289 -0.3270  1.9152  1.4778
21411SOL    HW276293   8.745   3.461   5.277 -0.4715  1.1179  1.7111
21412SOL     OW76294   9.649   2.986   4.889  0.2183  0.1015  0.3014
21412SOL    HW176295   9.623   2.968   4.794 -0.5161  0.3705  0.4488
21412SOL    HW276296   9.583   3.049   4.930 -1.0299 -2.1326  1.8204
21413SOL     OW76297   7.044   0.946   1.826 -0.5887 -0.1833  0.8030
21413SOL    HW176298   6.973   0.908   1.886 -0.3265 -0.0451  1.1985
21413SOL    HW276299   7.124   0.970   1.880  0.2538 -1.5435  0.1878
21414SOL     OW76300   6.397   2.512   3.480  0.8850 -0.4982  0.0925
21414SOL    HW176301   6.339   2.544   3.405 -0.8716 -3.1005  0.2925
21414SOL    HW276302   6.493   2.530   3.457  0.2714  0.3676 -1.9636
21415SOL     OW76303   5.504   8.371   7.331 -0.8258 -0.1883 -0.3733
21415SOL    HW176304   5.578   8.310   7.361 -0.9364 -0.5313 -0.7829
21415SOL    HW276305   5.543   8.456   7.296 -0.5900 -0.6059 -1.1400
21416SOL     OW76306   1.710   1.420   2.746  0.0107 -0.3791 -0.0503
21416SOL    HW176307   1.679   1.511   2.718 -0.6039 -0.3597  0.6738
21416SOL    HW276308   1.765   1.380   2.673  1.8462  1.3208  0.3501
21417SOL     OW76309   1.387   6.786   7.461 -0.6158  0.8844  0.1596
21417SOL    HW176310   1.435   6.749   7.381 -2.2584  1.1476 -0.9759
21417SOL    HW276311   1.391   6.719   7.535 -1.5417 -0.6473 -1.1069
21418SOL     OW76312   5.994   0.751   1.793  0.1997  0.2923  0.1839
21418SOL    HW176313   6.013   0.818   1.866  0.7489 -1.0720  1.3191
21418SOL    HW276314   5.952   0.670   1.833  0.9808 -0.6860 -0.9513
21419SOL     OW76315   2.788   2.725   9.869  0.9955 -0.0276  0.0472
21419SOL    HW176316   2.801   2.729   9.968 -2.0487 -0.4604  0.5151
21419SOL    HW276317   2.711   2.782   9.843 -0.0987 -2.2007 -1.6752
21420SOL     OW76318   0.571   2.490   3.761 -0.7363 -0.4751 -0.2463
21420SOL    HW176319   0.644   2.430   3.793 -0.7597  0.0347  0.7591
21420SOL    HW276320   0.508   2.438   3.704 -0.6939 -1.3801  0.5258
21421SOL     OW76321   7.238   2.731   1.829 -0.0455  1.0449 -0.3979
21421SOL    HW176322   7.219   2.665   1.757  1.4977 -0.6270  0.6884
21421SOL    HW276323   7.324   2.708   1.874 -0.3907  2.7473  1.2208
21422SOL     OW76324   7.221   9.705   7.123 -0.2366  0.0255  0.2285
21422SOL    HW176325   7.232   9.710   7.222 -2.8801  0.6484  0.5282
21422SOL    HW276326   7.250   9.792   7.082 -0.6274  0.3427  0.6193
21423SOL     OW76327   6.395   9.290   0.035  0.2206 -0.3305 -0.1537
21423SOL    HW176328   6.473   9.298   0.097 -0.4047  0.3486  0.5488
21423SOL    HW276329   6.394   9.368  -0.028 -0.0095 -0.2298 -0.0263
21424SOL     OW76330   9.780   9.427   4.720  0.0918 -0.5412 -0.0248
21424SOL    HW176331   9.683   9.412   4.704 -0.1813  0.6986  0.3885
21424SOL    HW276332   9.829   9.424   4.633 -0.4347 -0.3712 -0.3272
21425SOL     OW76333   0.287   1.141   3.922 -0.6176 -0.4110 -0.2485
21425SOL    HW176334   0.221   1.096   3.862 -0.0866 -0.2409 -0.9580
21425SOL    HW276335   0.275   1.241   3.917  0.4411 -0.3312 -1.2370
21426SOL     OW76336   9.597   8.409   8.604 -0.0384 -0.5630  0.3568
21426SOL    HW176337   9.663   8.465   8.653  0.4438 -1.2229  0.4664
21426SOL    HW276338   9.613   8.313   8.625  0.0379 -0.8357 -0.9140
21427SOL     OW76339   2.843   4.727   9.196  0.2535  0.1642 -0.2387
21427SOL    HW176340   2.757   4.735   9.145 -0.0924 -0.0192  0.3072
21427SOL    HW276341   2.887   4.816   9.201 -0.8498  0.6594  1.0981
21428SOL     OW76342   9.393   1.207   2.098 -0.4986  0.3872 -0.0394
21428SOL    HW176343   9.473   1.265   2.110  0.0763 -0.6921  1.5974
21428SOL    HW276344   9.349   1.228   2.011  1.0847  1.5687 -0.5825
21429SOL     OW76345   7.927   6.804   5.442  0.1619 -0.2962 -0.1622
21429SOL    HW176346   7.893   6.895   5.419  0.4446  0.0317  0.6913
21429SOL    HW276347   7.873   6.766   5.517 -0.1084 -0.9369 -0.6737
21430SOL     OW76348   4.938   4.309   6.886 -0.3078 -0.1520 -0.1135
21430SOL    HW176349   4.877   4.248   6.834  0.5689  1.4498 -3.1516
21430SOL    HW276350   4.934   4.401   6.846  0.1523  1.2448  2.9580
21431SOL     OW76351   3.564   8.078   3.591  0.3118 -0.7000 -0.3820
21431SOL    HW176352   3.482   8.022   3.604 -1.7419  2.1622 -0.3115
21431SOL    HW276353   3.574   8.101   3.494  0.5264 -0.3333 -0.2751
21432SOL     OW76354   6.327   5.957   4.459  0.0214  0.5529  0.0425
21432SOL    HW176355   6.371   6.047   4.454  1.1684 -0.0010  0.0163
21432SOL    HW276356   6.367   5.896   4.390 -0.5222 -0.0744  0.2767
21433SOL     OW76357   6.823   8.221   3.465 -0.0949 -0.0451 -0.1494
21433SOL    HW176358   6.896   8.166   3.504 -0.7246 -1.1005 -0.4323
21433SOL    HW276359   6.760   8.161   3.414 -1.3218  0.7966  0.3564
21434SOL     OW76360   2.940   9.313   4.924  0.2153  0.0441 -0.7481
21434SOL    HW176361   2.935   9.387   4.991  0.9872 -0.1936 -0.4131
21434SOL    HW276362   2.908   9.228   4.966 -0.7242  0.1958 -1.1501
21435SOL     OW76363   5.898   0.530   1.929 -0.2639  0.4309 -0.5726
21435SOL    HW176364   5.836   0.455   1.951 -0.5888  1.0204  0.5793
21435SOL    HW276365   5.859   0.616   1.963  1.3679  0.7534  0.5327
21436SOL     OW76366   8.307   2.519   2.162 -0.2063  0.6268  0.4117
21436SOL    HW176367   8.361   2.438   2.184 -1.1710 -0.2082 -0.2271
21436SOL    HW276368   8.321   2.589   2.232  0.2406 -0.2867  1.2512
21437SOL     OW76369   8.680   8.981   5.304 -0.3445  0.1410  0.0716
21437SOL    HW176370   8.627   8.935   5.375  1.0234  0.5492  1.3927
21437SOL    HW276371   8.742   8.916   5.261  1.8306  0.7424  2.1691
21438SOL     OW76372   0.514   0.852   0.383  0.3304 -0.4641  0.2407
21438SOL    HW176373   0.602   0.805   0.376  0.3698 -0.3962  0.2821
21438SOL    HW276374   0.499   0.879   0.478  0.6034  0.1823  0.0996
21439SOL     OW76375   7.872   1.754   8.898  0.2630  0.3693 -0.1294
21439SOL    HW176376   7.938   1.689   8.936  0.1249  0.4513  0.2506
21439SOL    HW276377   7.891   1.846   8.933  0.6126  0.5756 -0.8643
21440SOL     OW76378   2.585   8.823   7.339  0.1610 -0.2818 -0.3959
21440SOL    HW176379   2.495   8.802   7.301  0.3647 -2.0011  0.0428
21440SOL    HW276380   2.574   8.862   7.431 -0.0956 -1.1958 -0.0401
21441SOL     OW76381   4.183   6.345   4.690  0.1494 -0.0818 -0.3067
21441SOL    HW176382   4.268   6.388   4.721 -0.3585  0.6557  0.0452
21441SOL    HW276383   4.124   6.326   4.768  0.1878 -1.0273 -0.5039
21442SOL     OW76384   2.037   9.840   0.196 -0.1562 -0.2361 -0.3052
21442SOL    HW176385   1.949   9.820   0.154 -0.7118  0.2890  0.5794
21442SOL    HW276386   2.109   9.789   0.149 -0.8248 -0.0832 -1.5241
21443SOL     OW76387   1.068   7.974   7.038 -0.1288  0.8007  0.2641
21443SOL    HW176388   1.118   7.965   6.952  2.2991  0.9917  1.6289
21443SOL    HW276389   1.125   8.020   7.106 -1.9130  0.4193  2.0711
21444SOL     OW76390   6.769   9.602   6.832  0.2890  0.1929  0.0184
21444SOL    HW176391   6.767   9.700   6.816 -0.2268  0.3422  0.9387
21444SOL    HW276392   6.814   9.556   6.756  1.7683  1.2768  0.2123
21445SOL     OW76393   8.871   6.810   7.399 -0.3717  0.2669  0.2460
21445SOL    HW176394   8.846   6.873   7.474  0.0622 -0.4439  0.9913
21445SOL    HW276395   8.788   6.773   7.359 -0.5864 -0.1705  1.0835
21446SOL     OW76396   7.609   2.816   2.217 -0.1783 -0.0346 -0.1984
21446SOL    HW176397   7.606   2.873   2.299  0.1142  1.2757 -1.0909
21446SOL    HW276398   7.663   2.734   2.236  0.3112  0.5044  0.7714
21447SOL     OW76399   0.395   0.380   6.336 -0.1473 -0.5130  0.8299
21447SOL    HW176400   0.378   0.443   6.413 -0.3836  0.1735  0.2232
21447SOL    HW276401   0.308   0.339   6.307 -0.2102  0.0318  0.2480
21448SOL     OW76402   8.626   4.865   3.468 -0.6189 -1.0929  0.0203
21448SOL    HW176403   8.555   4.810   3.424 -1.3618  1.5296 -2.1894
21448SOL    HW276404   8.716   4.831   3.442 -1.0738 -1.4380 -1.0981
21449SOL     OW76405   5.246   9.055   7.551 -0.0360  0.0574  0.3456
21449SOL    HW176406   5.163   9.051   7.497 -0.5393 -0.7636  1.1619
21449SOL    HW276407   5.275   9.150   7.562 -1.0538  0.3680  0.3538
21450SOL     OW76408   8.351   1.327   0.815 -0.5389  0.1708 -0.0616
21450SOL    HW176409   8.351   1.282   0.904 -1.4891  1.7166  0.7432
21450SOL    HW276410   8.399   1.270   0.749  0.5467 -0.8070  1.5318
21451SOL     OW76411   6.803   1.037   0.493  0.4907 -0.3394  0.0908
21451SOL    HW176412   6.787   1.112   0.429  0.6694 -0.5004 -0.1455
21451SOL    HW276413   6.780   0.950   0.448  2.4143 -0.6114 -0.4007
21452SOL     OW76414   0.239   0.714   3.214  0.2185  0.6305 -0.6315
21452SOL    HW176415   0.291   0.795   3.243  0.1988  1.3855 -2.6858
21452SOL    HW276416   0.253   0.698   3.117 -1.2401 -0.7868 -0.6286
21453SOL     OW76417   3.952   0.536   1.302 -0.5349  0.1195  0.4008
21453SOL    HW176418   3.923   0.571   1.391  0.6585  3.8738 -0.5775
21453SOL    HW276419   3.883   0.475   1.265 -1.5803 -0.5579  3.3642
21454SOL     OW76420   4.208   0.392   5.654  0.7896  0.2100 -0.2514
21454SOL    HW176421   4.230   0.473   5.599 -2.7564  1.0239 -0.5580
21454SOL    HW276422   4.188   0.315   5.593  0.3942  0.1312 -0.0194
21455SOL     OW76423   1.807   9.936   6.570 -0.3408 -0.0485  0.0404
21455SOL    HW176424   1.725   9.986   6.600 -0.1737  0.2645 -0.0236
21455SOL    HW276425   1.852   9.988   6.497  0.3175  0.1277  0.5768
21456SOL     OW76426   0.227   1.400   9.197 -0.2135  0.2811  0.6017
21456SOL    HW176427   0.223   1.345   9.114  0.9806 -1.5319  1.7322
21456SOL    HW276428   0.140   1.449   9.208 -0.4190  0.4793 -1.6439
21457SOL     OW76429   5.718   4.606   8.745  0.0683 -0.2025 -0.0747
21457SOL    HW176430   5.645   4.670   8.768 -0.0315  0.0057 -0.9520
21457SOL    HW276431   5.800   4.657   8.716 -0.3902 -0.4625 -1.9183
21458SOL     OW76432   6.075   3.427   3.472  0.4143 -0.2932  0.6837
21458SOL    HW176433   6.101   3.487   3.548 -2.1207  1.8604 -0.0512
21458SOL    HW276434   6.022   3.350   3.506 -1.1532  0.9379  1.0935
21459SOL     OW76435   1.782   2.246   5.253  0.0144 -0.0631 -0.6337
21459SOL    HW176436   1.845   2.172   5.229 -0.1873 -0.8246  1.1184
21459SOL    HW276437   1.806   2.328   5.201  2.3571 -0.3978 -0.1508
21460SOL     OW76438   1.646   0.616   6.570 -0.0162 -0.2432 -0.9804
21460SOL    HW176439   1.622   0.589   6.477  0.8356 -1.7997 -0.7631
21460SOL    HW276440   1.571   0.593   6.632 -1.5840  2.9427 -1.5948
21461SOL     OW76441   7.378   3.289   4.812 -0.3006 -0.3231  0.2107
21461SOL    HW176442   7.432   3.341   4.878 -0.1943  0.1757 -0.2660
21461SOL    HW276443   7.284   3.282   4.844  0.0675 -1.3353  1.1244
21462SOL     OW76444   1.612   0.568   9.775  0.4190  0.3418 -0.0592
21462SOL    HW176445   1.605   0.481   9.823 -2.9695 -0.0691 -1.1210
21462SOL    HW276446   1.662   0.634   9.831 -0.3733 -1.1549  2.4681
21463SOL     OW76447   3.195   9.738   0.395 -0.5846  0.0690 -0.0251
21463SOL    HW176448   3.243   9.770   0.477 -0.9437 -1.6553  0.8823
21463SOL    HW276449   3.100   9.717   0.418 -0.6097 -0.7113 -0.8206
21464SOL     OW76450   0.749   7.739   0.016 -0.0558 -0.5311 -0.3603
21464SOL    HW176451   0.795   7.828   0.010 -2.7399  0.8826 -1.0026
21464SOL    HW276452   0.775   7.694   0.101  0.0074  1.6774  0.8352
21465SOL     OW76453   3.028   0.685   3.240  0.2766 -0.3682  0.1819
21465SOL    HW176454   2.972   0.663   3.319  0.8273  0.6091  0.8588
21465SOL    HW276455   2.969   0.696   3.159 -0.3957 -0.3753  0.6704
21466SOL     OW76456   7.212   1.859   2.778  0.2087 -0.1994  0.4161
21466SOL    HW176457   7.215   1.918   2.858 -1.4413 -0.9407  1.0411
21466SOL    HW276458   7.218   1.915   2.695  0.2172  0.6998  1.0248
21467SOL     OW76459   5.074   1.189   0.275  0.0566 -0.1756  0.0453
21467SOL    HW176460   5.034   1.163   0.187 -0.5324 -0.7015  0.4604
21467SOL    HW276461   5.131   1.270   0.263 -2.4250  1.5873 -0.2809
21468SOL     OW76462   7.800   7.338   6.817  0.4829 -0.2093 -0.0047
21468SOL    HW176463   7.869   7.310   6.884  0.3552  0.0611  0.2407
21468SOL    HW276464   7.716   7.365   6.865 -0.1137 -1.4405 -0.3546
21469SOL     OW76465   1.703   7.289   8.445  0.1082  0.3294 -0.6734
21469SOL    HW176466   1.776   7.229   8.410  0.7426  1.3022 -1.0415
21469SOL    HW276467   1.737   7.340   8.524 -0.7074 -0.4331  0.1745
21470SOL     OW76468   9.858   5.117   3.233 -0.1213 -0.0165  0.8907
21470SOL    HW176469   9.923   5.098   3.307  2.1632  2.2729 -0.4372
21470SOL    HW276470   9.865   5.046   3.163 -0.1713 -0.6122  1.4852
21471SOL     OW76471   1.699   8.124   1.948 -0.1750  0.2461  0.2448
21471SOL    HW176472   1.787   8.083   1.926 -0.6047  0.7860 -2.6246
21471SOL    HW276473   1.631   8.052   1.963  0.1480 -0.1448 -0.1806
21472SOL     OW76474   7.312   2.718   4.944  0.5443 -0.6722 -0.0943
21472SOL    HW176475   7.239   2.681   4.886 -2.0501  0.8379  2.0331
21472SOL    HW276476   7.353   2.798   4.899  0.7850 -1.4189 -1.2273
21473SOL     OW76477   4.589   2.855   6.468  0.0174  0.4808 -0.8863
21473SOL    HW176478   4.589   2.935   6.528  0.1267  0.5418 -0.9665
21473SOL    HW276479   4.508   2.856   6.410  0.6684  1.2359 -1.8104
21474SOL     OW76480   2.316   0.732   1.310  0.2199 -0.1484  0.6755
21474SOL    HW176481   2.381   0.656   1.309 -0.6987 -0.9435  0.5176
21474SOL    HW276482   2.359   0.814   1.273  1.1264 -0.6783  0.5550
21475SOL     OW76483   7.002   0.738   7.938 -0.1050 -0.0919  0.1466
21475SOL    HW176484   6.932   0.668   7.923 -1.3654  1.6390 -2.2871
21475SOL    HW276485   6.959   0.820   7.976  0.8536  0.4951 -0.0295
21476SOL     OW76486   9.096   1.899   3.190 -0.1235 -0.0756 -0.4941
21476SOL    HW176487   9.007   1.861   3.163  0.2678 -1.7194  0.4962
21476SOL    HW276488   9.116   1.979   3.133 -2.7490  1.0150  0.0406
21477SOL     OW76489   3.121   4.308   5.799  0.0365  0.2570 -0.0390
21477SOL    HW176490   3.182   4.246   5.848  1.8358  0.7967 -1.5465
21477SOL    HW276491   3.175   4.367   5.738 -1.9460  1.0418 -1.0811
21478SOL     OW76492   6.751   3.091   2.341  0.8600 -0.2143  1.0159
21478SOL    HW176493   6.676   3.155   2.322  0.1644 -1.2737  0.1417
21478SOL    HW276494   6.722   3.025   2.411  0.2281 -1.8875 -0.7817
21479SOL     OW76495   3.013   9.683   7.513  0.6860  0.5309  0.3313
21479SOL    HW176496   3.098   9.682   7.565 -0.3630  0.8271  2.0780
21479SOL    HW276497   2.952   9.753   7.550 -0.2214  0.5136 -1.0941
21480SOL     OW76498   5.407   3.464   3.235  0.1026 -0.3164 -0.0314
21480SOL    HW176499   5.425   3.480   3.138  0.1713 -0.6184 -0.0670
21480SOL    HW276500   5.363   3.545   3.274 -0.5835 -0.4702 -0.4766
21481SOL     OW76501   1.751   7.301   2.989 -0.1291 -0.6472 -0.5325
21481SOL    HW176502   1.667   7.349   3.012  0.8291  0.5670  0.4898
21481SOL    HW276503   1.748   7.272   2.894 -1.5093 -0.2035 -0.6294
21482SOL     OW76504   5.711   8.236   7.497  0.4729 -0.1015  0.3464
21482SOL    HW176505   5.628   8.204   7.542  0.2937  0.4926  0.4474
21482SOL    HW276506   5.748   8.164   7.439  0.2856 -0.6136  0.8626
21483SOL     OW76507   5.161   4.858   8.613  0.1768 -0.1945  0.7286
21483SOL    HW176508   5.124   4.853   8.520  0.3684 -1.3000  0.7079
21483SOL    HW276509   5.255   4.894   8.609  0.2858 -0.5011  0.4640
21484SOL     OW76510   7.026   8.517   2.202 -0.2005  0.5662 -0.4862
21484SOL    HW176511   7.016   8.519   2.301 -1.4035  0.8669 -0.6064
21484SOL    HW276512   6.936   8.526   2.159  0.2092 -0.5204 -1.5920
21485SOL     OW76513   5.303   3.667   3.371  0.3903  0.2973 -0.2418
21485SOL    HW176514   5.340   3.649   3.463 -0.0957  0.2185 -0.0621
21485SOL    HW276515   5.248   3.750   3.372 -0.6610 -0.3865 -0.1711
21486SOL     OW76516   4.760   2.005   4.982  0.1475  0.3318 -0.1716
21486SOL    HW176517   4.725   1.997   4.888  1.1344 -0.4437 -0.4827
21486SOL    HW276518   4.821   2.084   4.988  2.9734 -1.7013 -1.1312
21487SOL     OW76519   0.520   0.997   4.235 -0.3653  0.6472  0.0647
21487SOL    HW176520   0.450   0.981   4.166  1.7258 -1.0908 -1.7295
21487SOL    HW276521   0.517   0.923   4.303  0.6298 -0.2301 -0.8215
21488SOL     OW76522   5.178   4.641   2.982 -0.2188 -0.4663 -0.3681
21488SOL    HW176523   5.130   4.728   2.992 -1.3387 -0.8232 -2.3574
21488SOL    HW276524   5.266   4.646   3.028 -0.8325  1.2724  0.6556
21489SOL     OW76525   9.335   2.569   4.740  0.2921 -0.0929  0.3782
21489SOL    HW176526   9.290   2.507   4.804 -1.8322  0.7881 -0.2439
21489SOL    HW276527   9.372   2.647   4.791  0.2816 -0.3388  0.7665
21490SOL     OW76528   2.527   1.074   3.909 -0.5391 -0.4135  0.2779
21490SOL    HW176529   2.439   1.028   3.898  0.3996 -2.0334 -0.6281
21490SOL    HW276530   2.560   1.103   3.819  0.1662 -0.4166  0.5383
21491SOL     OW76531   8.365   9.186   3.151 -0.4119 -0.3542  0.0093
21491SOL    HW176532   8.435   9.238   3.102 -2.0590  1.7988 -0.1590
21491SOL    HW276533   8.278   9.194   3.103 -0.9024 -2.5881  0.4723
21492SOL     OW76534   0.355   8.595   5.698 -0.4135 -0.3149 -0.2842
21492SOL    HW176535   0.336   8.501   5.724 -0.0680 -0.3087 -0.0076
21492SOL    HW276536   0.300   8.620   5.618  0.2165 -1.0461 -0.9443
21493SOL     OW76537   9.214   6.616   2.204  0.3017  0.1205 -0.2788
21493SOL    HW176538   9.201   6.679   2.127  0.7439  1.0990  0.4271
21493SOL    HW276539   9.142   6.547   2.204  0.4147 -0.0116 -1.6902
21494SOL     OW76540   5.481   6.008   8.512 -0.6702  0.6985 -0.1488
21494SOL    HW176541   5.489   6.027   8.610 -0.0447  2.6283 -0.5535
21494SOL    HW276542   5.560   6.046   8.464 -0.5267 -1.0067 -1.3098
21495SOL     OW76543   3.059   8.528   4.924 -0.0871 -0.1288 -0.0376
21495SOL    HW176544   3.097   8.461   4.859  0.2878  2.2197 -2.3180
21495SOL    HW276545   2.980   8.573   4.883 -1.6558 -0.6223  2.3151
21496SOL     OW76546   2.706   0.808   9.091 -0.1406 -0.4072 -0.6539
21496SOL    HW176547   2.622   0.772   9.050 -1.0797  0.1727  0.7172
21496SOL    HW276548   2.688   0.833   9.186  1.6021 -0.2980 -0.3397
21497SOL     OW76549   5.371   1.393   4.527  0.1637  0.5527  0.1629
21497SOL    HW176550   5.417   1.427   4.445 -0.3784  0.5290 -0.1544
21497SOL    HW276551   5.274   1.415   4.522 -0.4528 -2.1702 -0.6891
21498SOL     OW76552   9.743   4.635   1.837 -0.8415  0.1834  0.0922
21498SOL    HW176553   9.836   4.655   1.808 -0.5314 -2.1867 -0.6712
21498SOL    HW276554   9.736   4.643   1.937  0.1149  0.5456  0.1318
21499SOL     OW76555   1.705   9.099   4.116 -0.3512 -0.0709 -0.5414
21499SOL    HW176556   1.665   9.171   4.172  1.0691  1.1343 -1.0479
21499SOL    HW276557   1.804   9.097   4.129 -0.3551 -1.8264 -0.6594
21500SOL     OW76558   8.593   3.179   9.883 -0.0067  0.3170  0.0174
21500SOL    HW176559   8.636   3.201   9.796  0.6575  0.8191  0.4729
21500SOL    HW276560   8.495   3.162   9.868  0.5745 -2.1968 -1.2312
21501SOL     OW76561   4.649   0.233   9.097  0.1900 -0.2462  0.3575
21501SOL    HW176562   4.736   0.187   9.117  1.2726  0.7764 -1.7968
21501SOL    HW276563   4.582   0.164   9.068  0.6150 -0.9198  0.9434
21502SOL     OW76564   0.026   8.526   2.518  0.3095 -0.3739  0.6166
21502SOL    HW176565   0.096   8.489   2.578  0.1236  0.9473  1.6582
21502SOL    HW276566   0.069   8.559   2.434  1.0189  0.9919  1.5052
21503SOL     OW76567   2.748   2.869   0.158  0.3629  0.7278 -0.2049
21503SOL    HW176568   2.825   2.932   0.164  0.5350  0.3292  2.4494
21503SOL    HW276569   2.671   2.905   0.212  0.0287 -0.6931  0.3003
21504SOL     OW76570   5.178   0.670   0.265  0.2068 -0.4938  0.3041
21504SOL    HW176571   5.173   0.648   0.168 -2.7009  0.5507  0.1725
21504SOL    HW276572   5.224   0.758   0.276  0.4524 -0.5651 -0.1271
21505SOL     OW76573   3.802   0.032   9.563 -0.3189 -0.1972  0.5697
21505SOL    HW176574   3.792  -0.016   9.650 -0.8245  1.2516  1.3306
21505SOL    HW276575   3.890   0.080   9.562 -1.5451  2.1382  1.4906
21506SOL     OW76576   8.418   7.876   9.519  0.3389  0.0382 -0.3031
21506SOL    HW176577   8.449   7.874   9.614  2.3127  1.1506 -0.9072
21506SOL    HW276578   8.352   7.951   9.508  0.2641  0.0410  0.1324
21507SOL     OW76579   8.969   0.429   3.506  0.0944  0.4854 -0.0071
21507SOL    HW176580   8.898   0.398   3.570 -1.4393  0.2934 -1.7481
21507SOL    HW276581   8.952   0.524   3.482 -0.3814  0.0217 -1.5073
21508SOL     OW76582   8.902   9.530   9.838  0.4669 -0.4916 -0.3564
21508SOL    HW176583   8.937   9.438   9.860 -0.7844 -0.5586  1.4142
21508SOL    HW276584   8.929   9.554   9.744  0.8344 -2.6548 -0.8384
21509SOL     OW76585   6.677   5.097   4.952 -0.2823 -0.6643 -0.2983
21509SOL    HW176586   6.622   5.057   4.879  0.2090 -0.8136 -0.5917
21509SOL    HW276587   6.764   5.130   4.914 -1.4942  2.5659 -0.4590
21510SOL     OW76588   0.911   1.193   7.268 -0.1930  0.8151  0.4584
21510SOL    HW176589   0.873   1.281   7.298  1.6128  1.5168  0.7255
21510SOL    HW276590   0.985   1.165   7.329  0.4394 -0.0112 -0.6669
21511SOL     OW76591   4.026   1.985   1.369  0.2523  0.7316 -0.0272
21511SOL    HW176592   4.063   2.066   1.324  0.8451  0.4097 -0.1271
21511SOL    HW276593   4.101   1.925   1.396 -0.2964 -1.6676 -3.4729
21512SOL     OW76594   7.354   9.972   1.796 -0.2540 -0.1614  0.1660
21512SOL    HW176595   7.291   9.894   1.790 -0.8238  0.3389 -0.3202
21512SOL    HW276596   7.312  10.052   1.754  0.1181  0.5521  1.1482
21513SOL     OW76597   0.407   3.016   7.536 -0.0058  0.2497  0.0312
21513SOL    HW176598   0.488   3.061   7.572  1.2741 -0.6875 -1.6203
21513SOL    HW276599   0.351   2.983   7.612  0.6230  1.8060  1.2008
21514SOL     OW76600   8.934   4.709   0.658 -0.4990  0.0497  0.3390
21514SOL    HW176601   8.906   4.613   0.663 -1.6437  0.3725  0.1689
21514SOL    HW276602   9.005   4.726   0.725  0.8569 -1.3080 -0.7117
21515SOL     OW76603   1.344   1.693   8.256  0.4479  0.2365 -0.1210
21515SOL    HW176604   1.287   1.631   8.310 -1.2047  1.7996 -0.0051
21515SOL    HW276605   1.412   1.641   8.205 -0.7604 -1.6378  0.1420
21516SOL     OW76606   9.046   5.838   7.157  0.7944 -0.1517  0.7501
21516SOL    HW176607   9.142   5.842   7.127  0.7492 -0.9913  0.4737
21516SOL    HW276608   8.989   5.803   7.083  0.3387 -0.0980  1.0720
21517SOL     OW76609   4.000   4.269   9.170 -0.2485  0.4103  0.4593
21517SOL    HW176610   3.909   4.237   9.145 -0.1910 -0.3073  1.1816
21517SOL    HW276611   4.051   4.196   9.214  0.4398  1.0142  0.6815
21518SOL     OW76612   8.233   1.150   4.547  0.5366 -0.5312 -0.3304
21518SOL    HW176613   8.215   1.180   4.641 -0.7630 -2.4388  0.0557
21518SOL    HW276614   8.219   1.227   4.485  0.1975  0.4366  0.9188
21519SOL     OW76615   7.634   7.914   4.492 -0.3880 -0.5871  0.0227
21519SOL    HW176616   7.552   7.940   4.441 -0.1965  1.4795  0.7014
21519SOL    HW276617   7.615   7.921   4.590  1.1708  1.9131  0.1885
21520SOL     OW76618   6.884   8.630   3.778  0.4344 -0.2595  0.1319
21520SOL    HW176619   6.965   8.686   3.763 -0.0156  0.4735  0.4041
21520SOL    HW276620   6.810   8.661   3.718 -0.0186 -0.1329  0.7488
21521SOL     OW76621   9.363   8.795   2.929  0.2004  0.6706 -0.3519
21521SOL    HW176622   9.367   8.839   2.839 -2.9000 -0.4661 -1.1235
21521SOL    HW276623   9.287   8.833   2.982 -0.3681 -1.2765  0.3030
21522SOL     OW76624   4.251   0.836   7.798  0.1329 -0.4249  0.8460
21522SOL    HW176625   4.260   0.792   7.709 -2.0489  0.0628  0.3470
21522SOL    HW276626   4.341   0.854   7.836  1.0801 -1.0113 -1.0761
21523SOL     OW76627   7.667   2.366   1.947 -0.0030  0.3641 -0.6790
21523SOL    HW176628   7.588   2.313   1.977  1.0386 -0.3838  0.7454
21523SOL    HW276629   7.736   2.305   1.909  0.9768  0.7378  0.4752
21524SOL     OW76630   8.114   0.758   4.187 -0.9356  0.2830 -0.0967
21524SOL    HW176631   8.119   0.858   4.193 -0.5782  0.3500 -1.4201
21524SOL    HW276632   8.116   0.730   4.091 -2.6477 -0.9263  0.2063
21525SOL     OW76633   5.868   8.378   9.076  0.1857  0.2032  0.1175
21525SOL    HW176634   5.918   8.353   9.159 -0.3025  1.1776  0.7244
21525SOL    HW276635   5.862   8.478   9.070 -1.2251  0.1050 -0.2145
21526SOL     OW76636   5.303   6.771   1.094 -0.2481  0.3499  0.6065
21526SOL    HW176637   5.333   6.684   1.133  1.0473  1.3354  1.8673
21526SOL    HW276638   5.373   6.806   1.031 -1.8950 -0.7519 -1.9265
21527SOL     OW76639   8.964   9.686   6.738  0.1100 -0.2888 -0.2727
21527SOL    HW176640   8.937   9.617   6.671 -0.1478 -0.2723 -0.1863
21527SOL    HW276641   8.994   9.769   6.691 -0.5766 -0.0882 -0.3601
21528SOL     OW76642   6.691   8.652   7.353  0.1960 -0.1391  0.3339
21528SOL    HW176643   6.746   8.572   7.332 -1.5001 -1.2645  0.0238
21528SOL    HW276644   6.624   8.629   7.424 -1.0635  0.6522 -0.5696
21529SOL     OW76645   5.489   9.514   0.429 -0.8844  0.0729  0.0712
21529SOL    HW176646   5.457   9.424   0.459 -0.5849  0.4324  1.5176
21529SOL    HW276647   5.533   9.561   0.506  0.6485  0.6988 -1.1650
21530SOL     OW76648   7.919   9.172   2.382  0.3088 -0.5470 -0.6550
21530SOL    HW176649   7.969   9.138   2.302 -0.4040 -0.6589 -1.0606
21530SOL    HW276650   7.884   9.263   2.363 -1.3801 -1.2819 -1.1419
21531SOL     OW76651   8.030   0.037   6.246 -0.2765 -0.1702  0.2351
21531SOL    HW176652   8.049  -0.055   6.280  0.3018 -0.4947 -0.9335
21531SOL    HW276653   7.945   0.036   6.193  0.5490 -0.3686 -1.0976
21532SOL     OW76654   3.222   3.034   4.469  0.1719 -0.1630  0.5896
21532SOL    HW176655   3.199   3.057   4.374  2.4097 -2.1470 -0.4788
21532SOL    HW276656   3.181   2.946   4.493  1.3053 -0.6472  0.7744
21533SOL     OW76657   5.372   8.543   6.644 -0.1178  0.6491 -0.2394
21533SOL    HW176658   5.303   8.522   6.713  0.0311  1.6147  0.2150
21533SOL    HW276659   5.338   8.518   6.553 -0.1406 -1.0298  0.2290
21534SOL     OW76660   0.155   4.002   2.186 -0.3347 -0.3943 -0.4989
21534SOL    HW176661   0.060   3.970   2.186 -0.1049 -1.0766  0.3224
21534SOL    HW276662   0.210   3.943   2.244  0.6181 -0.0485 -1.0429
21535SOL     OW76663   5.336   4.357   8.644 -0.3124  0.1411 -0.0565
21535SOL    HW176664   5.349   4.258   8.653 -0.0523  0.3209  1.6714
21535SOL    HW276665   5.396   4.392   8.572  0.1334 -0.8418 -0.1736
21536SOL     OW76666   7.658   4.661   2.488 -0.1496  0.3340 -0.0362
21536SOL    HW176667   7.636   4.603   2.566 -1.9658 -1.3440 -1.7470
21536SOL    HW276668   7.612   4.749   2.498 -2.2853 -0.7292 -0.3281
21537SOL     OW76669   0.524   2.621   2.127 -0.2279 -0.5486 -0.3512
21537SOL    HW176670   0.584   2.574   2.062  1.1282  1.1285 -0.3611
21537SOL    HW276671   0.525   2.574   2.215  2.2771  0.2498  0.0896
21538SOL     OW76672   0.990   9.761   2.447 -0.3239 -0.3438  0.0319
21538SOL    HW176673   0.995   9.773   2.348  1.8212  1.1538  0.2675
21538SOL    HW276674   0.955   9.845   2.489  0.2210 -0.4079  0.6287
21539SOL     OW76675   6.759   2.380   1.716 -0.0874  0.0458  0.4855
21539SOL    HW176676   6.812   2.300   1.743 -1.3420 -0.7653  0.5928
21539SOL    HW276677   6.809   2.431   1.646 -0.1876 -1.9977 -1.1497
21540SOL     OW76678   1.534   3.638   6.443  0.1599 -0.1383  0.6126
21540SOL    HW176679   1.476   3.720   6.438 -0.6600 -0.7982 -1.3173
21540SOL    HW276680   1.627   3.665   6.470 -0.2075  1.3626  0.4673
21541SOL     OW76681   6.827   0.973   5.604 -0.1005 -0.2017 -0.7493
21541SOL    HW176682   6.876   0.992   5.519  1.1246 -2.6539 -0.6466
21541SOL    HW276683   6.873   1.017   5.680  1.3296 -1.5410 -0.8123
21542SOL     OW76684   7.508   2.334   7.685  0.3857  0.4356 -0.3346
21542SOL    HW176685   7.447   2.413   7.695 -0.1566 -0.1956  1.4900
21542SOL    HW276686   7.458   2.250   7.706  0.4324 -0.6409 -4.1105
21543SOL     OW76687   0.023   5.237   1.553 -0.2788  0.2525 -0.2182
21543SOL    HW176688  -0.010   5.225   1.647  2.1960 -1.2814  0.5338
21543SOL    HW276689  -0.054   5.242   1.490 -1.9314 -2.0030  1.5498
21544SOL     OW76690   7.180   1.092   5.105  0.4400 -0.1440 -0.0784
21544SOL    HW176691   7.221   1.033   5.036 -0.2716 -0.6187 -0.0986
21544SOL    HW276692   7.160   1.039   5.188 -0.3557  0.0183 -0.1567
21545SOL     OW76693   8.671   0.417   2.296 -0.1843  0.3950 -0.3155
21545SOL    HW176694   8.613   0.405   2.378 -1.0012 -0.2802 -0.9791
21545SOL    HW276695   8.754   0.363   2.306 -0.2380  0.3888  0.1128
21546SOL     OW76696   3.242   8.995   9.911  0.5437 -0.5963 -0.5296
21546SOL    HW176697   3.314   9.056   9.942  0.7400 -0.8272 -0.5323
21546SOL    HW276698   3.275   8.941   9.833 -0.3031  0.7696 -1.8494
21547SOL     OW76699   7.334   1.787   3.926  0.2176  0.0898 -0.4718
21547SOL    HW176700   7.248   1.765   3.971  0.7708  0.1915  0.6643
21547SOL    HW276701   7.405   1.723   3.955  0.8868  0.9259 -0.2197
21548SOL     OW76702   7.339   6.741   2.459  0.1065 -0.0626  0.0752
21548SOL    HW176703   7.401   6.699   2.526 -0.6539 -0.7460  0.3572
21548SOL    HW276704   7.393   6.783   2.386  0.8949 -1.3758 -0.1206
21549SOL     OW76705   9.728   7.422   7.496  0.2454  0.1281 -0.2702
21549SOL    HW176706   9.766   7.362   7.567 -0.9825 -0.0923  0.2141
21549SOL    HW276707   9.673   7.367   7.433  0.1808  0.5461 -0.5768
21550SOL     OW76708   1.061   0.289   3.409 -0.1765 -0.3983 -0.3340
21550SOL    HW176709   0.971   0.329   3.430 -0.7522 -0.4293 -2.5768
21550SOL    HW276710   1.131   0.360   3.416 -0.1464 -0.6613  2.7080
21551SOL     OW76711   6.789   9.996   4.630  0.1225  0.1052 -0.2964
21551SOL    HW176712   6.866   9.941   4.662 -0.2037  0.2135  0.6973
21551SOL    HW276713   6.801  10.017   4.533  0.6494 -1.0505 -0.4937
21552SOL     OW76714   2.111   9.741   2.845 -0.1587 -0.4888 -0.1659
21552SOL    HW176715   2.043   9.695   2.788 -0.1199 -1.6521  0.7263
21552SOL    HW276716   2.126   9.689   2.929  2.1115 -0.4572 -0.5160
21553SOL     OW76717   5.665   9.049   2.235  0.5699  0.0579 -0.1484
21553SOL    HW176718   5.656   8.951   2.219  0.7142  0.0531 -0.1995
21553SOL    HW276719   5.616   9.074   2.318 -1.4858  0.3376 -1.4221
21554SOL     OW76720   0.108   8.633   4.975  0.8583  0.0597  0.1373
21554SOL    HW176721   0.192   8.587   4.947  2.1092  3.1513 -1.4566
21554SOL    HW276722   0.034   8.611   4.911  1.2347 -0.2833 -0.1782
21555SOL     OW76723   0.800   2.326   5.853  0.1809  0.0165 -0.6719
21555SOL    HW176724   0.806   2.370   5.764 -0.2121 -1.1026 -1.2624
21555SOL    HW276725   0.828   2.230   5.845  0.7856  0.0705  0.5419
21556SOL     OW76726   7.297   7.138   4.837 -0.0394 -0.2698 -0.3561
21556SOL    HW176727   7.306   7.233   4.808 -0.5706 -0.3979 -0.9335
21556SOL    HW276728   7.231   7.133   4.913 -0.6631 -0.2873 -0.8939
21557SOL     OW76729   8.413   8.920   6.291 -0.5747  0.2286 -0.2794
21557SOL    HW176730   8.421   9.018   6.274  2.6734  0.1870  0.5116
21557SOL    HW276731   8.445   8.870   6.211  1.8207 -0.0807  0.8107
21558SOL     OW76732   7.679   4.926   4.326  0.0121  0.6812  0.6315
21558SOL    HW176733   7.701   4.828   4.322  0.6480  0.8869 -1.6853
21558SOL    HW276734   7.589   4.938   4.368 -1.0605 -1.0941 -1.0540
21559SOL     OW76735   7.374   8.078   4.275  0.0823 -0.6196  0.3054
21559SOL    HW176736   7.358   8.049   4.181 -0.1990  0.2631  0.0786
21559SOL    HW276737   7.393   8.176   4.277  2.4398 -1.0584  0.9115
21560SOL     OW76738   8.777   3.059   3.308 -0.6109  0.2339  0.2438
21560SOL    HW176739   8.853   3.124   3.312 -1.9939  1.8286  1.3909
21560SOL    HW276740   8.812   2.967   3.294  1.5003  0.9893  0.4162
21561SOL     OW76741   1.546   5.787   6.132  0.5582  0.6295  0.2275
21561SOL    HW176742   1.526   5.736   6.048  1.7179 -0.9963  0.9124
21561SOL    HW276743   1.584   5.877   6.108  0.2722  0.4431 -0.9808
21562SOL     OW76744   2.252   9.238   6.661 -0.7427  0.3307  0.3476
21562SOL    HW176745   2.156   9.256   6.680 -0.9617 -0.9760  0.5212
21562SOL    HW276746   2.263   9.143   6.630  0.4649  0.5127  0.1915
21563SOL     OW76747   7.728   3.257   5.989  0.7676 -0.7872 -0.1543
21563SOL    HW176748   7.647   3.315   5.985  0.1564 -1.6362 -0.1352
21563SOL    HW276749   7.751   3.226   5.897  0.8115 -0.8994 -0.1057
21564SOL     OW76750   9.145   0.827   2.072  0.1764 -0.2688  0.6115
21564SOL    HW176751   9.088   0.780   2.005 -0.1668  0.8121  0.1362
21564SOL    HW276752   9.091   0.847   2.154 -0.4824  1.8594 -0.3292
21565SOL     OW76753   6.463   7.221   3.897 -0.0243  0.3349  0.2246
21565SOL    HW176754   6.484   7.124   3.885  1.4897  0.4773  1.5270
21565SOL    HW276755   6.366   7.237   3.876  0.0032 -1.2254 -1.1918
21566SOL     OW76756   5.499   8.342   6.351  0.5911  0.3214  0.0311
21566SOL    HW176757   5.404   8.329   6.380  0.6705  0.1340  0.2113
21566SOL    HW276758   5.516   8.440   6.334 -0.4833  0.0082 -3.0522
21567SOL     OW76759   0.232   2.301   0.914  0.0190  0.0297  0.0547
21567SOL    HW176760   0.217   2.203   0.927  0.6485 -0.4930 -2.8079
21567SOL    HW276761   0.322   2.326   0.951  0.1272 -0.5981  0.2236
21568SOL     OW76762   0.934   2.768   3.703  0.0473 -0.4376  0.2479
21568SOL    HW176763   1.006   2.768   3.634  0.7700 -0.4811  0.9916
21568SOL    HW276764   0.947   2.846   3.765 -2.3987  1.4497 -1.5103
21569SOL     OW76765   9.859   5.146   2.731  0.0145  0.3414 -0.4443
21569SOL    HW176766   9.762   5.127   2.714 -0.4793  0.7499  1.7513
21569SOL    HW276767   9.869   5.240   2.762  0.9225 -0.1583  0.8168
21570SOL     OW76768   2.206   4.691   5.158 -0.1284 -0.3461 -1.0323
21570SOL    HW176769   2.259   4.631   5.219  1.9384  2.9949  0.5777
21570SOL    HW276770   2.110   4.664   5.161  0.2761 -1.6751  1.9816
21571SOL     OW76771   6.488   1.066   3.753  0.1429 -0.0538  0.0941
21571SOL    HW176772   6.509   1.092   3.659 -1.2606 -0.2165 -0.2722
21571SOL    HW276773   6.541   0.984   3.777  0.0258 -0.3852 -0.7659
21572SOL     OW76774   0.228   1.055   3.556 -0.4871  0.5615  0.2939
21572SOL    HW176775   0.292   1.113   3.607  1.5137 -2.4294  1.3312
21572SOL    HW276776   0.269   1.028   3.469 -1.0205 -0.0034  0.2153
21573SOL     OW76777   8.320   8.655   3.952  0.7483 -0.1227  0.6747
21573SOL    HW176778   8.278   8.733   3.905  2.1199  0.8414  1.0269
21573SOL    HW276779   8.319   8.576   3.892  2.7983  1.1817 -1.1496
21574SOL     OW76780   9.025   5.367   4.476  0.3400  0.1252 -0.3263
21574SOL    HW176781   9.119   5.372   4.440 -0.4845  2.0161 -2.3546
21574SOL    HW276782   8.963   5.341   4.402 -0.7725 -0.9718  0.9774
21575SOL     OW76783   5.643   7.884   5.190  0.0553  0.6594 -0.3819
21575SOL    HW176784   5.664   7.825   5.268 -0.0637  2.1919  0.8448
21575SOL    HW276785   5.718   7.880   5.124  1.0339  0.7462  0.6994
21576SOL     OW76786   7.174   8.654   5.052 -0.0022  0.0122  0.2591
21576SOL    HW176787   7.175   8.580   4.984  1.0178 -0.6495  0.9771
21576SOL    HW276788   7.109   8.632   5.124  0.7080 -0.4580  0.7616
21577SOL     OW76789   0.597   4.657   7.420 -0.6201  0.0841  0.0467
21577SOL    HW176790   0.646   4.615   7.496 -1.4302 -1.1499 -0.1025
21577SOL    HW276791   0.500   4.667   7.445 -0.1965  3.1967  0.6440
21578SOL     OW76792   4.441   7.533   0.217 -0.2032  0.0236  0.2813
21578SOL    HW176793   4.390   7.603   0.267 -1.4139 -1.4215  1.1017
21578SOL    HW276794   4.465   7.459   0.279 -0.0078 -0.8653 -0.8505
21579SOL     OW76795   7.518   4.633   5.487 -0.1529 -0.1427  0.3134
21579SOL    HW176796   7.568   4.707   5.533  0.7734 -2.0616  2.5249
21579SOL    HW276797   7.537   4.635   5.389  1.6579  1.1422  0.6685
21580SOL     OW76798   0.225   3.500   8.324 -0.1730  0.2147  0.2318
21580SOL    HW176799   0.234   3.401   8.337 -0.5098  0.3128  1.2206
21580SOL    HW276800   0.172   3.539   8.399 -0.6053  1.0556 -0.5100
21581SOL     OW76801   7.500   5.229   4.416 -0.5566  0.4905 -0.3643
21581SOL    HW176802   7.501   5.307   4.478 -2.5376 -0.5821  1.0647
21581SOL    HW276803   7.591   5.217   4.376  0.9782  0.8036  2.8533
21582SOL     OW76804   9.366   9.866   3.831 -0.2433 -0.4720 -0.2689
21582SOL    HW176805   9.456   9.837   3.863  0.0432  0.2431 -0.4283
21582SOL    HW276806   9.296   9.827   3.891  0.2122 -0.4274  0.2993
21583SOL     OW76807   7.137   3.533   4.858 -0.1824 -0.8648  0.2636
21583SOL    HW176808   7.127   3.572   4.766 -1.0304 -0.2500  0.6103
21583SOL    HW276809   7.145   3.434   4.851 -0.6660 -0.8572 -0.4454
21584SOL     OW76810   6.492   4.559   7.171 -0.2461  0.4886 -0.0762
21584SOL    HW176811   6.428   4.484   7.183 -0.4100  0.4822 -0.9836
21584SOL    HW276812   6.584   4.522   7.158 -0.0046  0.5029  1.4431
21585SOL     OW76813   1.099   0.054   9.702  0.0735 -0.1365 -0.2181
21585SOL    HW176814   1.137   0.145   9.682 -0.9580  0.8523  2.1613
21585SOL    HW276815   1.021   0.064   9.764  1.5781 -2.8581  2.2069
21586SOL     OW76816   9.344   1.268   2.648  0.1900 -0.2014  0.2944
21586SOL    HW176817   9.338   1.208   2.568 -1.3838 -1.8119  1.6140
21586SOL    HW276818   9.429   1.249   2.697 -0.3755 -1.4554  0.7951
21587SOL     OW76819   5.957   1.523   4.093  0.5012 -0.2370 -0.1644
21587SOL    HW176820   6.033   1.490   4.150  0.4507 -0.5448 -0.2706
21587SOL    HW276821   5.985   1.605   4.043  0.8071 -0.4205 -0.2968
21588SOL     OW76822   0.481   8.591   3.443  0.5856  0.0379  0.3364
21588SOL    HW176823   0.496   8.497   3.474 -0.4995 -0.6016 -1.0386
21588SOL    HW276824   0.435   8.643   3.514 -1.5334 -1.3101 -0.0015
21589SOL     OW76825   0.083   4.011   4.465  0.6164 -0.1920  0.1172
21589SOL    HW176826   0.163   4.050   4.511  0.8695 -0.1031 -0.4057
21589SOL    HW276827   0.015   3.987   4.534  1.7019 -1.6788  0.6947
21590SOL     OW76828   7.137   7.529   3.404  0.1311 -0.2897  0.1372
21590SOL    HW176829   7.039   7.550   3.406 -0.0260 -1.0291  0.2146
21590SOL    HW276830   7.166   7.512   3.310 -0.1538 -1.6723  0.3008
21591SOL     OW76831   9.008   8.615   6.833 -0.2581  0.3672  0.4833
21591SOL    HW176832   9.045   8.563   6.911  1.4344 -0.2669 -0.7036
21591SOL    HW276833   8.932   8.672   6.864  0.4928  0.2523  2.6421
21592SOL     OW76834   6.743   8.184   9.778  0.5390  0.5073 -0.0599
21592SOL    HW176835   6.836   8.197   9.745  0.4093  2.4842  0.2814
21592SOL    HW276836   6.684   8.258   9.744 -1.3764 -1.7798 -1.8986
21593SOL     OW76837   6.655   7.053   3.983 -0.0812  0.1220  0.1156
21593SOL    HW176838   6.722   7.070   3.911 -2.8434  1.7270 -2.2012
21593SOL    HW276839   6.619   7.140   4.016 -1.7255 -0.7194  0.6030
21594SOL     OW76840   5.470   1.028   7.072  0.2652 -0.5410 -0.5111
21594SOL    HW176841   5.444   1.107   7.017  0.0090  0.4679  1.0133
21594SOL    HW276842   5.505   0.955   7.013 -2.3343 -0.4406 -2.2549
21595SOL     OW76843   9.340   2.105   5.797 -0.1268 -0.0377  0.2379
21595SOL    HW176844   9.422   2.142   5.753 -0.3599  0.0955 -0.0815
21595SOL    HW276845   9.297   2.038   5.737 -1.3318  1.3014 -0.4226
21596SOL     OW76846   0.301   2.559   9.274  0.1589  0.2953  0.5578
21596SOL    HW176847   0.363   2.578   9.198  0.7822  0.1408  1.0301
21596SOL    HW276848   0.257   2.470   9.259 -1.3241  1.2179 -0.6847
21597SOL     OW76849   9.875   4.729   4.927 -0.2142 -0.2350  0.0955
21597SOL    HW176850   9.905   4.824   4.920 -1.0379  0.1214  1.2816
21597SOL    HW276851   9.785   4.719   4.884 -0.6603 -0.2186  1.0140
21598SOL     OW76852   1.458   9.487   8.229 -0.4997  0.5943 -0.6515
21598SOL    HW176853   1.397   9.431   8.285  0.4438 -0.7135 -0.9101
21598SOL    HW276854   1.457   9.581   8.263 -1.6709  0.3121  0.1390
21599SOL     OW76855   1.180   4.782   8.647  0.0826  0.3177  0.3010
21599SOL    HW176856   1.193   4.875   8.614 -0.7805  1.1506  2.1981
21599SOL    HW276857   1.106   4.738   8.597 -0.5495  1.2075  0.4517
21600SOL     OW76858   9.650   0.406   9.630 -0.1761 -0.1558  0.3916
21600SOL    HW176859   9.551   0.408   9.624 -0.3457  1.0275  2.8297
21600SOL    HW276860   9.683   0.313   9.614 -1.3844  0.0323 -3.6486
21601SOL     OW76861   7.733   9.069   5.432 -0.2268  0.4860 -0.0806
21601SOL    HW176862   7.680   8.988   5.459 -1.0456  0.8738 -0.5196
21601SOL    HW276863   7.826   9.061   5.469  0.2774 -1.5517 -1.7155
21602SOL     OW76864   2.362   7.949   2.583  0.3322  0.0363  0.1360
21602SOL    HW176865   2.277   8.001   2.579  1.1721  1.5786  1.6796
21602SOL    HW276866   2.399   7.938   2.491 -1.2774 -0.2408 -0.4959
21603SOL     OW76867   6.896   6.164   5.721 -0.3041 -0.0247  0.9521
21603SOL    HW176868   6.871   6.170   5.624 -1.2951  1.5028  1.2814
21603SOL    HW276869   6.872   6.073   5.756  0.0071 -0.5693 -0.2104
21604SOL     OW76870   7.615   1.787   5.340  0.4616 -0.0301  0.4793
21604SOL    HW176871   7.581   1.724   5.409 -0.0747 -0.0668  0.1839
21604SOL    HW276872   7.596   1.881   5.368 -1.5593 -0.1127 -0.5547
21605SOL     OW76873   8.765   4.414   6.931 -0.2823  0.4018  0.2710
21605SOL    HW176874   8.812   4.401   7.018 -0.3284 -0.7164  0.1434
21605SOL    HW276875   8.758   4.511   6.910  2.1396  0.5822  0.1990
21606SOL     OW76876   9.205   7.241   5.311  0.2433 -0.1009  0.2561
21606SOL    HW176877   9.193   7.319   5.250  0.4442  0.1320  0.5179
21606SOL    HW276878   9.302   7.228   5.332  0.3544 -1.3096 -0.9523
21607SOL     OW76879   5.216   6.962   8.162 -0.2725 -0.2766  0.0060
21607SOL    HW176880   5.129   7.005   8.188 -0.7374 -0.9097 -0.4693
21607SOL    HW276881   5.222   6.960   8.062  0.4931  0.1587  0.0445
21608SOL     OW76882   7.771   9.509   4.252 -0.4264 -0.0654 -0.4808
21608SOL    HW176883   7.829   9.526   4.331 -0.6746 -2.3274  0.2430
21608SOL    HW276884   7.774   9.587   4.190  0.5598  1.3147  1.2703
21609SOL     OW76885   8.361   9.866   7.913 -0.3630  0.1456 -0.0992
21609SOL    HW176886   8.411   9.940   7.957 -1.3360  0.0469  1.2029
21609SOL    HW276887   8.413   9.833   7.835  0.3930  1.7481 -0.2931
21610SOL     OW76888   2.672   9.850   4.677  0.4665 -0.0025 -0.3536
21610SOL    HW176889   2.730   9.783   4.632 -1.1485 -1.7923  0.1389
21610SOL    HW276890   2.673   9.834   4.776  0.1673  0.7834 -0.2197
21611SOL     OW76891   4.569   2.183   2.495 -0.4996  0.0580  0.1030
21611SOL    HW176892   4.572   2.090   2.532 -3.3231  0.0556  0.4096
21611SOL    HW276893   4.616   2.246   2.558 -0.5736 -0.8016  1.0233
21612SOL     OW76894   8.444   2.208   3.260  0.0576  0.4997  0.0756
21612SOL    HW176895   8.436   2.293   3.208  0.0967  1.1798  1.1601
21612SOL    HW276896   8.371   2.204   3.328  0.2774 -0.1659  0.2732
21613SOL     OW76897   3.098   8.473   9.307 -0.2151  0.1467  0.4141
21613SOL    HW176898   3.157   8.538   9.259 -1.4216  2.7392  2.3484
21613SOL    HW276899   3.031   8.435   9.243 -0.0343  1.4472 -0.5505
21614SOL     OW76900   8.396   4.199   5.425 -0.1508  0.8410 -0.4662
21614SOL    HW176901   8.374   4.159   5.336 -0.5296  2.6164 -1.1945
21614SOL    HW276902   8.315   4.242   5.464 -0.7879 -2.5823  2.2138
21615SOL     OW76903   3.876   6.212   9.594  0.1848 -0.3642  0.3306
21615SOL    HW176904   3.862   6.262   9.679  0.0126 -0.0835  0.1387
21615SOL    HW276905   3.913   6.274   9.525 -0.4910 -0.3760 -0.0519
21616SOL     OW76906   9.714   8.554   9.764  0.0155 -0.1382  0.2857
21616SOL    HW176907   9.803   8.598   9.751  0.1079 -0.6434 -0.7687
21616SOL    HW276908   9.650   8.620   9.804  0.6004  0.4958  0.1764
21617SOL     OW76909   9.219   9.910   5.813 -0.0244 -0.1760 -0.0619
21617SOL    HW176910   9.283   9.910   5.736  1.7966  1.4131  1.4128
21617SOL    HW276911   9.267   9.884   5.896 -1.7784 -0.9797  0.7286
21618SOL     OW76912   7.959   6.255   9.122 -0.1854  0.1683 -0.2942
21618SOL    HW176913   8.051   6.289   9.102  0.6950 -0.9645  1.6956
21618SOL    HW276914   7.930   6.193   9.049  0.1087  1.4518 -1.5409
21619SOL     OW76915   0.373   0.903   5.222 -0.1153  0.1958  0.2468
21619SOL    HW176916   0.394   0.816   5.267  1.4203 -0.1415 -1.0843
21619SOL    HW276917   0.331   0.886   5.133  1.4654  0.7758 -0.6288
21620SOL     OW76918   2.234   3.869   3.216 -0.2892 -0.0274 -0.1155
21620SOL    HW176919   2.175   3.908   3.287  0.4351  0.5862  0.1604
21620SOL    HW276920   2.315   3.830   3.259 -0.6776 -1.2077 -0.4598
21621SOL     OW76921   8.666   8.151   4.986 -0.1301 -0.3545 -0.4087
21621SOL    HW176922   8.706   8.096   4.913  1.8155 -0.5061  0.7148
21621SOL    HW276923   8.651   8.093   5.067 -2.2082 -0.1821 -0.6373
21622SOL     OW76924   0.270   3.021   0.795 -0.1950  0.3124  0.0285
21622SOL    HW176925   0.181   3.030   0.838  0.0380  1.7434  0.2365
21622SOL    HW276926   0.326   3.101   0.815  0.4435  0.3484 -1.7327
21623SOL     OW76927   2.843   8.980   2.410 -0.0449 -0.1210 -0.5871
21623SOL    HW176928   2.930   9.010   2.448  0.3306  2.5179 -3.2572
21623SOL    HW276929   2.772   8.986   2.480  1.3639  0.6333  0.8019
21624SOL     OW76930   1.336   8.370   4.447  0.4529  0.3222  0.0896
21624SOL    HW176931   1.300   8.378   4.354 -0.9901 -0.8134  0.5298
21624SOL    HW276932   1.345   8.461   4.487 -0.9351  0.6976 -0.4189
21625SOL     OW76933   2.588   0.828   5.889  0.0908  0.0413 -0.2130
21625SOL    HW176934   2.627   0.817   5.980  0.6946 -0.4390 -0.5260
21625SOL    HW276935   2.658   0.809   5.820 -0.9607 -1.8683 -0.7810
21626SOL     OW76936   2.703   1.695   5.797  0.2749 -0.1969 -0.2244
21626SOL    HW176937   2.736   1.602   5.815 -1.1705 -0.4582  1.0678
21626SOL    HW276938   2.652   1.729   5.876  0.1885  1.4378 -0.9657
21627SOL     OW76939   1.243   2.738   5.426  0.0286  0.5754  0.0256
21627SOL    HW176940   1.319   2.673   5.436  0.7812  1.4132 -0.1523
21627SOL    HW276941   1.246   2.805   5.501  1.0546  2.1904 -1.4110
21628SOL     OW76942   2.052   3.152   8.958  0.1642  0.0800 -0.2393
21628SOL    HW176943   2.073   3.134   9.054  0.1617  0.2389 -0.2091
21628SOL    HW276944   2.137   3.160   8.906  0.1609 -0.3417 -0.3116
21629SOL     OW76945   7.441   5.333   8.327 -0.3493  0.1239  0.1727
21629SOL    HW176946   7.474   5.278   8.405  0.5451 -1.2337 -1.1381
21629SOL    HW276947   7.519   5.380   8.285 -0.8159  0.7477  0.0024
21630SOL     OW76948   0.411   9.221   8.957 -0.7080 -0.2156 -0.8938
21630SOL    HW176949   0.408   9.148   9.025 -0.3794  1.9740  1.5957
21630SOL    HW276950   0.350   9.295   8.986  0.8130  1.5287 -2.0493
21631SOL     OW76951   8.580   7.943   8.216  0.3158  0.2813 -0.1138
21631SOL    HW176952   8.599   7.859   8.165  1.0697 -0.7573  1.8233
21631SOL    HW276953   8.483   7.965   8.209  0.0857 -0.8110 -0.5338
21632SOL     OW76954   8.075   7.055   2.332  0.5582 -0.0973  0.2427
21632SOL    HW176955   8.098   7.152   2.333  1.1534 -0.1816 -1.7345
21632SOL    HW276956   8.148   7.003   2.376  0.6762  0.2672  0.4833
21633SOL     OW76957   8.305   5.879   4.865 -0.3642 -0.8593  0.4614
21633SOL    HW176958   8.337   5.912   4.776  1.8248 -0.0150  1.5107
21633SOL    HW276959   8.223   5.929   4.892  0.1473  0.3360 -0.1679
21634SOL     OW76960   8.427   7.856   2.507 -0.2517 -0.2199  0.0555
21634SOL    HW176961   8.521   7.890   2.518 -0.6319  0.7088  0.4833
21634SOL    HW276962   8.368   7.899   2.576 -1.3394  0.5393 -1.3218
21635SOL     OW76963   5.333   2.249   0.660  0.2437  0.0705  0.0600
21635SOL    HW176964   5.262   2.308   0.622 -1.5492 -1.6255  0.6446
21635SOL    HW276965   5.395   2.220   0.587 -0.7040  0.1710 -0.8039
21636SOL     OW76966   8.375   3.990   2.310 -0.0385 -0.1045 -0.4341
21636SOL    HW176967   8.432   4.029   2.383 -1.9885 -0.4557  1.3103
21636SOL    HW276968   8.319   4.062   2.270  0.0235 -0.1827 -0.6629
21637SOL     OW76969   6.454   2.964   6.245 -0.9704  0.4181  0.2766
21637SOL    HW176970   6.511   2.887   6.219  0.0666  1.6015 -1.0132
21637SOL    HW276971   6.366   2.958   6.198 -0.7861  0.1696 -0.0375
21638SOL     OW76972   5.957   9.865   6.574  0.1578  0.2286 -0.0770
21638SOL    HW176973   5.907   9.866   6.660  0.2388  1.3054 -0.0421
21638SOL    HW276974   5.999   9.954   6.558  0.5138 -0.0982 -1.0148
21639SOL     OW76975   7.876   1.042   9.774 -0.2749  0.0123  0.0363
21639SOL    HW176976   7.937   1.001   9.842 -0.7912 -0.5728  0.1519
21639SOL    HW276977   7.834   1.125   9.813 -0.3058 -0.1288  0.3062
21640SOL     OW76978   0.090   9.887   6.399 -0.4654 -0.4178  0.5301
21640SOL    HW176979   0.116   9.864   6.305  2.4659  2.5490  0.5246
21640SOL    HW276980   0.043   9.975   6.399  0.0244 -0.1585  1.8957
21641SOL     OW76981   0.275   1.777   2.135  0.3835  0.3847  0.1864
21641SOL    HW176982   0.333   1.791   2.055 -0.1328  2.0444  0.0881
21641SOL    HW276983   0.325   1.804   2.217  0.7926 -1.0006  0.4101
21642SOL     OW76984   8.000   3.303   6.084 -0.7478 -0.2890  0.3845
21642SOL    HW176985   8.051   3.311   5.998 -2.8973 -1.4739 -1.0230
21642SOL    HW276986   7.910   3.264   6.066 -2.1796  1.7497  2.8463
21643SOL     OW76987   4.007   4.927   8.411 -0.3027 -0.0336 -0.3104
21643SOL    HW176988   3.992   4.867   8.332 -1.1275  1.1324 -1.0470
21643SOL    HW276989   3.947   5.007   8.404  0.5002  0.6772  0.8735
21644SOL     OW76990   5.172   7.971   7.271 -0.5939 -0.3798 -0.3507
21644SOL    HW176991   5.228   7.898   7.231 -2.1939 -1.8862  0.0988
21644SOL    HW276992   5.221   8.058   7.263  0.3261 -1.0925 -3.0377
21645SOL     OW76993   1.011   4.951   9.975 -0.3426 -0.3480 -0.3735
21645SOL    HW176994   0.962   5.017  10.032 -0.7039 -1.0310  0.1171
21645SOL    HW276995   1.099   4.990   9.947 -0.9594  0.7125 -0.8796
21646SOL     OW76996   7.848   1.412   9.310  0.1441  0.0552 -0.4528
21646SOL    HW176997   7.853   1.423   9.211 -1.1912 -0.1914 -0.5644
21646SOL    HW276998   7.927   1.361   9.343  0.4052 -0.1809 -1.4428
21647SOL     OW76999   7.661   0.283   4.512  0.5643 -0.1468 -0.1471
21647SOL    HW177000   7.678   0.364   4.456  0.3114 -0.6708 -0.9810
21647SOL    HW277001   7.567   0.251   4.498  0.7019 -0.6610  0.0889
21648SOL     OW77002   3.782   5.988   4.771  0.3356 -0.5454 -0.0179
21648SOL    HW177003   3.833   6.055   4.716 -0.6652 -0.1676 -0.4847
21648SOL    HW277004   3.685   6.009   4.768  0.1702 -1.1147  1.1068
21649SOL     OW77005   9.400   8.438   3.338 -0.3923 -0.2198 -0.1176
21649SOL    HW177006   9.473   8.369   3.328 -0.5891 -0.2908 -1.0296
21649SOL    HW277007   9.334   8.427   3.265 -0.9597  0.3039  0.3190
21650SOL     OW77008   9.174   4.007   9.501 -0.0860 -0.2418  0.1777
21650SOL    HW177009   9.084   4.014   9.458 -0.2928  0.5203  0.7133
21650SOL    HW277010   9.164   3.968   9.593  0.1300 -0.1480  0.2408
21651SOL     OW77011   7.316   8.964   7.301 -0.2018 -0.2792 -0.4523
21651SOL    HW177012   7.258   8.991   7.379  0.9148 -1.5282  0.8407
21651SOL    HW277013   7.284   9.011   7.219 -0.7669  1.8968  0.9461
21652SOL     OW77014   8.985   8.731   7.663 -0.0514 -0.0576  0.0955
21652SOL    HW177015   8.926   8.688   7.595 -1.2035  1.8699 -0.1620
21652SOL    HW277016   9.081   8.714   7.640 -0.4626 -3.2876  0.5724
21653SOL     OW77017   9.009   7.166   0.278  0.2574  0.7003  0.2731
21653SOL    HW177018   8.926   7.114   0.257  1.1341 -0.5609 -0.1352
21653SOL    HW277019   9.002   7.257   0.240 -0.1337 -0.0322 -1.4343
21654SOL     OW77020   6.401   5.669   4.701  0.1362  0.0824  0.1098
21654SOL    HW177021   6.496   5.685   4.730  0.0443 -0.7856  0.8930
21654SOL    HW277022   6.372   5.745   4.642  0.9939  0.8462  0.6448
21655SOL     OW77023   5.413   0.422   8.840  0.1355  0.5720  1.0628
21655SOL    HW177024   5.455   0.403   8.752 -0.2974  3.0074  0.2728
21655SOL    HW277025   5.381   0.337   8.881  1.2845 -0.7154 -0.6329
21656SOL     OW77026   7.017   9.224   8.069 -0.1599 -0.3465 -0.1562
21656SOL    HW177027   7.086   9.196   8.136  0.9236  0.6535 -0.8229
21656SOL    HW277028   6.944   9.275   8.114 -0.1558 -0.8862  0.4656
21657SOL     OW77029   2.316   6.224   6.946 -0.1600 -0.3881  0.0114
21657SOL    HW177030   2.278   6.275   6.870  0.6744  1.0810  0.5636
21657SOL    HW277031   2.298   6.273   7.032  1.0226 -0.7850  0.4986
21658SOL     OW77032   9.525   9.384   4.705  0.3766  0.6201 -0.2082
21658SOL    HW177033   9.518   9.306   4.766 -0.9736  1.1051  0.2723
21658SOL    HW277034   9.490   9.359   4.615  3.6151 -0.5114 -1.2513
21659SOL     OW77035   9.669   9.466   5.069  0.1215  0.0624  0.5130
21659SOL    HW177036   9.630   9.548   5.112  0.9287  1.4756 -1.3292
21659SOL    HW277037   9.648   9.468   4.971  1.6130 -1.0550  0.1562
21660SOL     OW77038   5.527   9.861   8.474 -0.4733  0.0497 -0.0518
21660SOL    HW177039   5.502   9.786   8.535 -0.9401  0.4604  0.2624
21660SOL    HW277040   5.583   9.826   8.399  0.1233 -0.4551  0.6235
21661SOL     OW77041   1.574   7.925   4.729 -0.3377  0.0404 -0.0641
21661SOL    HW177042   1.594   7.930   4.827 -0.1664 -0.9073 -0.0405
21661SOL    HW277043   1.514   8.000   4.703 -0.9385 -0.0903  0.9113
21662SOL     OW77044   8.892   2.995   2.483  0.0963 -0.4147  0.2109
21662SOL    HW177045   8.827   3.033   2.417 -0.4419 -0.7624  0.5321
21662SOL    HW277046   8.853   2.912   2.524  1.2787 -1.3442 -0.5173
21663SOL     OW77047   1.078   7.745   3.680 -0.3992  0.3255 -0.1327
21663SOL    HW177048   1.050   7.805   3.605  0.0384 -0.0864 -0.6348
21663SOL    HW277049   1.095   7.799   3.762 -0.4989  0.8261 -0.4392
21664SOL     OW77050   2.290   9.191   5.094 -0.2772 -0.0486 -0.3468
21664SOL    HW177051   2.194   9.194   5.120  0.6444  0.7028  3.2984
21664SOL    HW277052   2.341   9.259   5.148  2.6249 -1.8806 -0.6901
21665SOL     OW77053   0.333   3.782   4.565  0.1545  0.0583 -0.4592
21665SOL    HW177054   0.407   3.843   4.536 -1.6012  1.4045 -2.2674
21665SOL    HW277055   0.316   3.794   4.663  0.1646  2.1566 -0.6895
21666SOL     OW77056   4.893   8.831   2.268 -0.6688 -0.9386 -0.6837
21666SOL    HW177057   4.825   8.901   2.247 -0.6090 -0.1924  1.4908
21666SOL    HW277058   4.978   8.874   2.298 -0.0066 -1.9095 -1.1338
21667SOL     OW77059   6.590   9.545   5.783 -0.1838 -0.0646  0.0175
21667SOL    HW177060   6.501   9.572   5.747  0.5799  0.9437 -1.1705
21667SOL    HW277061   6.587   9.543   5.883 -1.6704 -0.5508 -0.0282
21668SOL     OW77062   7.074   9.062   4.337 -0.0173 -0.0848  0.2913
21668SOL    HW177063   7.150   8.999   4.350  1.0147  0.8538 -1.0735
21668SOL    HW277064   7.035   9.050   4.246 -0.6655  0.3293  0.5099
21669SOL     OW77065   6.570   9.769   8.344  0.8237  0.0554 -0.1299
21669SOL    HW177066   6.634   9.692   8.339  0.1152 -0.7071  1.8058
21669SOL    HW277067   6.476   9.734   8.348  0.4613  1.0459  0.1790
21670SOL     OW77068   9.251   2.099   4.761  0.2988 -0.2450  0.2220
21670SOL    HW177069   9.327   2.164   4.765  1.8761 -2.0614  0.9270
21670SOL    HW277070   9.268   2.033   4.687 -0.7668 -0.4812  0.1826
21671SOL     OW77071   5.987   0.178   6.577  0.0516 -0.4869  0.0402
21671SOL    HW177072   6.038   0.181   6.663 -0.3934  1.3568  0.2600
21671SOL    HW277073   5.893   0.149   6.596 -0.0170 -0.1847  0.1752
21672SOL     OW77074   2.772   2.063   6.713  0.6077 -0.1433  0.6993
21672SOL    HW177075   2.858   2.109   6.691  0.7587  0.0706  1.7267
21672SOL    HW277076   2.789   1.986   6.773  0.1338 -0.3958  0.5130
21673SOL     OW77077   6.538   9.800   3.305 -0.2025 -0.2806  0.2984
21673SOL    HW177078   6.545   9.705   3.275 -0.9500 -0.0135 -0.7439
21673SOL    HW277079   6.486   9.852   3.238  1.4026  1.1889  0.1917
21674SOL     OW77080   0.176   2.362   3.877  0.8897  0.5235  0.4540
21674SOL    HW177081   0.242   2.321   3.940  1.6303  2.3906  0.9563
21674SOL    HW277082   0.090   2.377   3.925  0.9041  0.3485  0.5327
21675SOL     OW77083   2.077   8.218   5.815  0.3049 -0.2376 -0.4672
21675SOL    HW177084   1.992   8.270   5.809  1.2187  1.1044 -2.1008
21675SOL    HW277085   2.145   8.271   5.865  0.9539 -0.2697 -1.3184
21676SOL     OW77086   0.583   0.033   4.778 -0.4452 -0.2016  0.2775
21676SOL    HW177087   0.516   0.104   4.757 -0.7266 -0.1349  1.3403
21676SOL    HW277088   0.658   0.072   4.831 -0.2495 -0.5574  0.2695
21677SOL     OW77089   8.644   7.065   7.297  0.2421  0.2313 -0.0989
21677SOL    HW177090   8.652   6.967   7.285 -1.0007 -0.0045  0.8665
21677SOL    HW277091   8.577   7.101   7.231  0.3293  0.3534 -0.1212
21678SOL     OW77092   1.623   1.668   6.753 -0.3069  0.2479 -0.1201
21678SOL    HW177093   1.558   1.703   6.685 -0.2850  0.6688  0.0719
21678SOL    HW277094   1.716   1.680   6.718 -0.3607 -1.3676 -0.8766
21679SOL     OW77095   9.909   5.131   3.668 -0.3362 -0.5536 -0.4731
21679SOL    HW177096   9.835   5.065   3.681  0.5852 -1.1776  1.7092
21679SOL    HW277097   9.886   5.216   3.714  0.3727 -0.8055  0.3476
21680SOL     OW77098   7.554   8.841   5.424  0.1159 -0.6438 -0.4358
21680SOL    HW177099   7.485   8.825   5.353  0.8341 -0.6845 -1.1268
21680SOL    HW277100   7.509   8.876   5.506 -0.9414 -2.1165 -0.3498
21681SOL     OW77101   5.540   8.156   8.148 -0.9264  0.2912  0.3815
21681SOL    HW177102   5.535   8.200   8.058 -1.2629 -1.4295 -0.4588
21681SOL    HW277103   5.634   8.129   8.167 -0.6614  1.6612  1.0443
21682SOL     OW77104   7.951   8.914   3.226  0.3481  0.4036 -0.0172
21682SOL    HW177105   7.916   8.888   3.136 -0.0958  0.2234  0.2070
21682SOL    HW277106   7.890   8.983   3.266 -0.8593 -1.3333  1.2141
21683SOL     OW77107   6.741   5.945   6.209 -0.4785  0.2096  0.0052
21683SOL    HW177108   6.799   5.884   6.155  0.3597 -0.5001  1.6652
21683SOL    HW277109   6.657   5.897   6.235 -0.6010  0.3435 -0.1415
21684SOL     OW77110   9.142   5.171   5.009 -0.1344  0.2496  0.4905
21684SOL    HW177111   9.062   5.225   4.982  2.4424  3.3937 -1.2144
21684SOL    HW277112   9.153   5.175   5.108 -1.0681  1.2898  0.5605
21685SOL     OW77113   8.074   0.814   1.169  0.0966  0.0139 -0.1098
21685SOL    HW177114   8.055   0.750   1.243  2.3285 -2.2935 -1.4386
21685SOL    HW277115   8.062   0.767   1.081 -0.2859  2.0416 -1.1682
21686SOL     OW77116   1.148   1.729   5.370 -0.3268 -0.5956 -0.3332
21686SOL    HW177117   1.169   1.817   5.326  3.7855 -3.1415 -3.9844
21686SOL    HW277118   1.088   1.676   5.311 -0.0879 -1.5144  0.2385
21687SOL     OW77119   5.114   0.145   2.327 -0.1483  0.2217 -0.2065
21687SOL    HW177120   5.092   0.188   2.240  1.3933 -1.9889 -1.7355
21687SOL    HW277121   5.203   0.101   2.321 -1.1444 -2.1590  1.6724
21688SOL     OW77122   9.303   0.676   4.977 -0.2409  0.5280 -0.0147
21688SOL    HW177123   9.383   0.718   4.933  1.5255 -1.8519  0.8610
21688SOL    HW277124   9.310   0.686   5.076 -1.2061  0.5880  0.0551
21689SOL     OW77125   8.392   2.054   8.334 -0.0605 -0.2194  0.1215
21689SOL    HW177126   8.322   2.090   8.273  0.1933 -0.9090 -0.5888
21689SOL    HW277127   8.351   1.988   8.397 -0.1502 -0.2292  0.0518
21690SOL     OW77128   5.700   8.722   1.195 -0.3186 -0.3307 -0.2862
21690SOL    HW177129   5.691   8.627   1.164 -0.6431 -0.6737  0.8459
21690SOL    HW277130   5.621   8.746   1.251  0.2897  0.2672  0.3215
21691SOL     OW77131   9.271   0.352   4.326 -0.5186 -0.3864  0.1945
21691SOL    HW177132   9.205   0.284   4.294  0.7692 -1.3924 -0.3781
21691SOL    HW277133   9.226   0.441   4.334 -2.2456 -1.3075  1.0388
21692SOL     OW77134   6.504   5.016   0.386 -0.1711 -0.6109  0.4909
21692SOL    HW177135   6.469   5.089   0.327 -0.1540 -0.4977  0.6201
21692SOL    HW277136   6.428   4.958   0.415 -0.2055 -0.5568  0.5080
21693SOL     OW77137   2.294   1.485   5.060 -0.3618 -0.5600  0.5080
21693SOL    HW177138   2.308   1.412   5.127 -1.2163 -1.1543  0.0385
21693SOL    HW277139   2.308   1.449   4.968  3.6113  0.8959  0.4327
21694SOL     OW77140   7.576   1.180   0.721  0.3380  0.2738 -0.2722
21694SOL    HW177141   7.642   1.215   0.787 -0.7273 -1.2109  1.6551
21694SOL    HW277142   7.582   1.232   0.636  3.1284  0.9273  0.2842
21695SOL     OW77143   4.147   0.392   1.698 -0.4675  0.2415  0.3194
21695SOL    HW177144   4.120   0.488   1.703 -0.3626  0.2297  1.1569
21695SOL    HW277145   4.163   0.367   1.602  0.6664  1.3790  0.1934
21696SOL     OW77146   6.659   2.174   3.666 -0.0893  0.1611 -0.5085
21696SOL    HW177147   6.735   2.174   3.601 -0.4835  0.7626 -0.9792
21696SOL    HW277148   6.573   2.184   3.615 -0.4168  0.4206  0.1003
21697SOL     OW77149   7.986   0.392   3.800 -0.3650  0.1343  0.6298
21697SOL    HW177150   7.892   0.409   3.828  0.2634  0.1882  2.7626
21697SOL    HW277151   8.035   0.480   3.794  0.3990 -0.1168  2.7023
21698SOL     OW77152   0.516   5.756   1.097 -0.3046  0.0608 -0.0675
21698SOL    HW177153   0.575   5.831   1.127 -0.1598  0.1170 -0.4846
21698SOL    HW277154   0.523   5.680   1.162  1.8221 -0.7415 -1.1841
21699SOL     OW77155   5.146   5.518   8.745 -0.0429 -0.0393 -0.3596
21699SOL    HW177156   5.129   5.490   8.839 -1.3426  0.9633 -0.2868
21699SOL    HW277157   5.097   5.458   8.682  0.8346 -0.7168 -0.4144
21700SOL     OW77158   0.225   3.729   7.230 -0.0419 -0.1354  0.6028
21700SOL    HW177159   0.126   3.724   7.232  0.0058 -1.3727  0.3502
21700SOL    HW277160   0.262   3.650   7.180  1.0168  0.8882 -0.2929
21701SOL     OW77161   3.769   9.340   2.017 -0.1443  0.8482 -0.0768
21701SOL    HW177162   3.803   9.291   2.098  0.4024  0.1284 -0.7338
21701SOL    HW277163   3.771   9.438   2.035 -2.6244  0.6049  1.7808
21702SOL     OW77164   0.519   7.661   0.215  0.2443  0.5442 -0.0695
21702SOL    HW177165   0.554   7.652   0.308 -0.4789 -1.8972  0.0044
21702SOL    HW277166   0.453   7.735   0.211  1.6918  1.9272  0.9042
21703SOL     OW77167   1.325   2.416   7.327 -0.2942 -0.4437  0.1983
21703SOL    HW177168   1.286   2.503   7.295  0.9979  1.0614  2.6100
21703SOL    HW277169   1.342   2.356   7.248 -1.1630  1.4917 -1.5012
21704SOL     OW77170   2.609   3.672   6.444 -0.5681 -0.6775 -0.4163
21704SOL    HW177171   2.545   3.689   6.520 -0.9916  1.1702 -1.1727
21704SOL    HW277172   2.565   3.696   6.358  0.5848 -0.9867 -1.0928
21705SOL     OW77173   6.997   9.390   4.142 -0.0420 -0.5981 -0.0514
21705SOL    HW177174   7.031   9.479   4.110 -0.4083 -0.2807  0.4301
21705SOL    HW277175   7.047   9.317   4.097  0.4323 -0.1403 -0.2715
21706SOL     OW77176   6.489   3.628   3.768  0.0441 -0.6149 -0.1371
21706SOL    HW177177   6.472   3.647   3.865 -0.1721 -0.3506 -0.2283
21706SOL    HW277178   6.573   3.676   3.740 -0.3102 -0.0762 -0.2771
21707SOL     OW77179   8.156   1.265   5.267 -1.2425 -0.2447 -0.3421
21707SOL    HW177180   8.119   1.191   5.324  0.4435  1.5755  3.2499
21707SOL    HW277181   8.098   1.346   5.276  0.1581  0.6953  0.4963
21708SOL     OW77182   2.268   8.977   4.709  0.3888 -0.5368  0.1789
21708SOL    HW177183   2.173   8.968   4.741  0.7054 -1.7253  0.7885
21708SOL    HW277184   2.291   8.900   4.650  0.1447  1.1077 -2.1270
21709SOL     OW77185   2.160   5.399   3.277 -0.3483 -0.2550  0.0955
21709SOL    HW177186   2.066   5.378   3.251 -0.8058  2.6091 -0.8170
21709SOL    HW277187   2.165   5.410   3.377 -1.1341  0.2044  0.0902
21710SOL     OW77188   9.715   2.369   4.441  0.6718  0.2062  0.3442
21710SOL    HW177189   9.783   2.353   4.369  0.1971 -0.9065  0.1324
21710SOL    HW277190   9.625   2.379   4.400  0.6392  1.2523  0.6615
21711SOL     OW77191   5.789   8.516   7.478  0.1278  0.0938 -0.3331
21711SOL    HW177192   5.740   8.581   7.536  0.2616 -0.0478 -0.0632
21711SOL    HW277193   5.773   8.423   7.511 -2.2553 -0.2600 -2.2648
21712SOL     OW77194   1.062   9.595   7.310  0.0684  0.8734  0.3093
21712SOL    HW177195   1.105   9.570   7.397 -0.5225 -0.6278  0.1885
21712SOL    HW277196   1.009   9.679   7.322 -0.4028  0.4051  1.5262
21713SOL     OW77197   3.333   9.365   5.651 -0.0747  0.3640 -0.2913
21713SOL    HW177198   3.342   9.288   5.588 -1.3386 -0.5249  0.5754
21713SOL    HW277199   3.236   9.382   5.670  0.2682  0.8245  1.1403
21714SOL     OW77200   0.375   3.027   9.629  0.0613  0.0001 -0.4957
21714SOL    HW177201   0.418   3.001   9.543  0.1799 -0.0797 -0.4123
21714SOL    HW277202   0.382   3.125   9.643 -0.8433  0.1499 -1.0654
21715SOL     OW77203   6.823   0.715   7.619 -0.1305 -0.2621 -0.3352
21715SOL    HW177204   6.826   0.804   7.665 -2.9853 -1.0567  1.5093
21715SOL    HW277205   6.879   0.649   7.670  2.9073  0.6530 -2.3178
21716SOL     OW77206   6.563   6.105   1.224  0.0899 -0.1730 -0.1210
21716SOL    HW177207   6.563   6.013   1.263  1.0591 -0.5621 -0.9940
21716SOL    HW277208   6.494   6.162   1.270 -0.6884 -1.4038  0.2417
21717SOL     OW77209   7.387   1.696   9.972  0.5960 -0.1700 -0.2901
21717SOL    HW177210   7.334   1.639   9.909  1.2927 -3.5066  2.0575
21717SOL    HW277211   7.328   1.729  10.045  0.7449  0.1318 -0.3023
21718SOL     OW77212   0.893   8.101   6.671 -0.1002  0.3540  0.4790
21718SOL    HW177213   0.870   8.176   6.610  3.4167  0.1542 -1.2011
21718SOL    HW277214   0.882   8.014   6.624  0.5137  0.0804  0.8265
21719SOL     OW77215   0.432   0.994   0.133  0.5768  0.4338 -0.5045
21719SOL    HW177216   0.453   0.963   0.226 -1.6197 -0.7469 -0.3585
21719SOL    HW277217   0.429   0.914   0.072  0.0760  0.9854 -1.2031
21720SOL     OW77218   9.892   7.554   1.320 -0.0657  0.5620  0.2860
21720SOL    HW177219   9.868   7.470   1.368 -0.5753  0.5652  0.0416
21720SOL    HW277220   9.901   7.629   1.385  0.5388  0.2870  0.5207
21721SOL     OW77221   3.427   7.183   7.863  0.4899  0.0148  0.6047
21721SOL    HW177222   3.426   7.219   7.956  0.2838  1.4084  0.0679
21721SOL    HW277223   3.510   7.213   7.816 -0.2174  0.7544 -0.2060
21722SOL     OW77224   8.520   3.063   8.235  0.4674 -0.0262  0.1056
21722SOL    HW177225   8.436   3.074   8.181  0.2049 -1.1020  0.2772
21722SOL    HW277226   8.504   3.099   8.327 -0.7326 -2.6325  0.9912
21723SOL     OW77227   9.383   9.085   2.126 -0.5549 -0.6132  0.2690
21723SOL    HW177228   9.307   9.020   2.132 -1.7925  0.7817  0.0014
21723SOL    HW277229   9.417   9.105   2.217 -1.8496  0.2803  0.5769
21724SOL     OW77230   0.592   8.610   5.599 -0.2931 -0.1277  0.4786
21724SOL    HW177231   0.634   8.520   5.586  0.1543 -0.3844  3.3120
21724SOL    HW277232   0.514   8.602   5.660  0.0350  1.4679  1.1417
21725SOL     OW77233   5.603   8.158   5.182  0.3487 -0.2171  0.0744
21725SOL    HW177234   5.684   8.216   5.187  0.2341 -0.2046  2.1551
21725SOL    HW277235   5.629   8.063   5.198  0.1784 -0.4467 -0.9434
21726SOL     OW77236   5.167   1.681   9.573  0.1342 -0.4431 -0.7059
21726SOL    HW177237   5.236   1.633   9.627 -1.2360  0.2726  1.7457
21726SOL    HW277238   5.210   1.756   9.522  1.2923 -0.4832  0.2051
21727SOL     OW77239   9.136   9.150   5.031  0.3942  0.3233 -0.4242
21727SOL    HW177240   9.187   9.079   5.078 -0.3619  0.2249  0.2619
21727SOL    HW277241   9.111   9.119   4.940 -0.5502 -0.5787  0.1308
21728SOL     OW77242   9.866   8.024   8.505  0.5511 -0.4217  0.0073
21728SOL    HW177243   9.801   8.071   8.565 -0.0149 -1.6575  0.3760
21728SOL    HW277244   9.875   7.929   8.533  2.9523 -0.1386  0.2871
21729SOL     OW77245   0.758   0.559   6.154  0.2639  0.0565  0.2325
21729SOL    HW177246   0.797   0.586   6.067 -0.5820  1.9182  0.4139
21729SOL    HW277247   0.680   0.499   6.139  0.4363 -0.0429 -0.2639
21730SOL     OW77248   3.084   8.388   8.659 -0.3810  0.0201  0.4583
21730SOL    HW177249   3.058   8.483   8.674  0.4153  0.1607  1.0006
21730SOL    HW277250   3.175   8.372   8.698 -0.5217 -0.9687  0.3962
21731SOL     OW77251   6.524   8.564   7.557 -0.1823  0.0983  0.2211
21731SOL    HW177252   6.458   8.548   7.484 -0.6973  0.3623  0.6271
21731SOL    HW277253   6.481   8.547   7.645  0.2241  0.5063  0.4987
21732SOL     OW77254   6.066   9.598   8.818 -0.4450  0.2598  0.6183
21732SOL    HW177255   6.119   9.608   8.902  1.1026  1.5859 -0.4599
21732SOL    HW277256   6.080   9.507   8.780 -0.0864  0.1099  1.1097
21733SOL     OW77257   9.133   1.345   2.473 -0.0864 -0.3912 -0.1590
21733SOL    HW177258   9.217   1.326   2.525  1.0864  1.2099 -1.4032
21733SOL    HW277259   9.077   1.411   2.524  0.6877  0.5718 -0.5337
21734SOL     OW77260   9.110   5.276   3.208  0.1609  0.5758 -0.1590
21734SOL    HW177261   9.122   5.356   3.148  2.4310 -0.1271 -0.6771
21734SOL    HW277262   9.105   5.193   3.152  0.0097  0.1259  0.5116
21735SOL     OW77263   5.368   1.432   9.273  0.4209 -0.2226  0.0607
21735SOL    HW177264   5.329   1.383   9.196 -0.3629 -0.7822  0.8025
21735SOL    HW277265   5.324   1.401   9.358  2.7261 -1.1356  0.9597
21736SOL     OW77266   7.918   9.412   2.783  0.5523 -0.1422  0.3327
21736SOL    HW177267   7.872   9.369   2.861 -0.4851  0.5821  0.1182
21736SOL    HW277268   7.995   9.466   2.817  1.4859 -1.6280  0.6591
21737SOL     OW77269   8.028   9.182   6.083 -0.6908  0.1580  0.1059
21737SOL    HW177270   8.005   9.085   6.091 -1.2577  0.3142  0.4287
21737SOL    HW277271   7.944   9.235   6.065 -0.5530  0.7224  1.0961
21738SOL     OW77272   0.413   5.038   9.939  0.4787  0.3514  0.1681
21738SOL    HW177273   0.374   5.123   9.905 -0.2067  0.2113  0.5879
21738SOL    HW277274   0.472   4.998   9.869  0.5102  0.9816 -0.1684
21739SOL     OW77275   7.758   8.744   7.785 -0.1713  0.4957  0.1694
21739SOL    HW177276   7.663   8.750   7.755  0.2544 -1.2360 -1.6210
21739SOL    HW277277   7.802   8.833   7.773 -0.9242  0.6894 -1.2706
21740SOL     OW77278   1.258   3.020   4.781  0.1880 -0.1289 -0.2123
21740SOL    HW177279   1.208   3.056   4.860 -0.0087  0.1125 -0.4438
21740SOL    HW277280   1.193   2.977   4.718  0.1523  0.9845 -0.9468
21741SOL     OW77281   7.483   1.560   5.905  0.4497 -0.5122 -0.0771
21741SOL    HW177282   7.413   1.611   5.855 -1.6401 -2.2393  1.0099
21741SOL    HW277283   7.548   1.624   5.946 -0.4328  1.1211 -1.1699
21742SOL     OW77284   7.842   6.549   7.798  0.1171 -0.2984 -0.4947
21742SOL    HW177285   7.894   6.544   7.884 -0.2840 -0.0125 -0.2318
21742SOL    HW277286   7.844   6.643   7.764 -1.5049  0.0539  0.3248
21743SOL     OW77287   6.469   9.391   9.558 -0.3000 -0.3687  0.0674
21743SOL    HW177288   6.507   9.483   9.571 -0.1716 -0.5165  0.7500
21743SOL    HW277289   6.401   9.373   9.628 -1.3150 -0.2836 -0.8807
21744SOL     OW77290   7.960   2.865   5.920 -0.1664  0.7715  0.0945
21744SOL    HW177291   7.999   2.934   5.859  0.9128 -0.6644 -0.8746
21744SOL    HW277292   7.962   2.899   6.014  2.9013  1.0113  0.0022
21745SOL     OW77293   1.765   7.810   6.522 -0.1834 -0.1016  0.2352
21745SOL    HW177294   1.775   7.904   6.490  0.4903 -1.0406 -2.4545
21745SOL    HW277295   1.673   7.798   6.560  0.0085  1.8386  1.3963
21746SOL     OW77296   0.120   1.212   9.439  0.6381 -0.1994 -0.0761
21746SOL    HW177297   0.114   1.252   9.348  0.2444 -2.0472 -0.8783
21746SOL    HW277298   0.126   1.113   9.432 -0.2233 -0.4246  1.9435
21747SOL     OW77299   7.939   2.320   8.505 -0.3240  0.1328  0.2564
21747SOL    HW177300   7.893   2.374   8.434 -1.3519 -1.6569 -0.4843
21747SOL    HW277301   7.872   2.288   8.572  0.0334 -1.3454 -0.0664
21748SOL     OW77302   7.350   9.151   4.964 -0.3752  0.1466  0.2959
21748SOL    HW177303   7.448   9.137   4.950 -0.1330  0.8970  1.1857
21748SOL    HW277304   7.303   9.063   4.961  0.0373 -0.0285 -2.1552
21749SOL     OW77305   1.414   4.335   3.068  0.3745  0.3728  0.0562
21749SOL    HW177306   1.327   4.363   3.108  0.0427 -0.2405 -0.2232
21749SOL    HW277307   1.487   4.348   3.134 -0.0697  0.0006  0.6272
21750SOL     OW77308   9.735   4.624   2.506 -0.6367 -0.3446  0.6120
21750SOL    HW177309   9.689   4.567   2.437  0.0214 -0.9843  0.6937
21750SOL    HW277310   9.784   4.565   2.571 -1.9452  0.1975  2.1390
21751SOL     OW77311   6.857   2.768   3.214 -0.5803  0.0465 -0.8467
21751SOL    HW177312   6.954   2.743   3.212 -0.2829  1.2708 -2.7558
21751SOL    HW277313   6.845   2.850   3.269 -0.6455 -0.5229 -0.0039
21752SOL     OW77314   8.774   3.396   4.153 -1.0110  0.2085  0.1237
21752SOL    HW177315   8.768   3.296   4.149 -0.7767  0.2524 -1.4940
21752SOL    HW277316   8.682   3.435   4.155 -1.1100 -0.0118 -0.1129
21753SOL     OW77317   1.363   0.668   3.032  0.5682  0.8987  0.0333
21753SOL    HW177318   1.266   0.657   3.012  0.6630 -1.7017  0.8317
21753SOL    HW277319   1.407   0.721   2.958 -1.4397  2.2226 -0.2486
21754SOL     OW77320   7.722   2.087   6.680 -0.4050  0.3118 -0.8041
21754SOL    HW177321   7.719   2.144   6.762  1.5984 -1.6473  0.6748
21754SOL    HW277322   7.629   2.059   6.655 -0.8754 -1.0672  2.2494
21755SOL     OW77323   9.718   7.096   9.215  0.0938  0.4064 -0.0508
21755SOL    HW177324   9.695   7.114   9.311 -0.4983  0.3760 -0.1842
21755SOL    HW277325   9.771   7.172   9.178  4.3651 -1.6267  1.6182
21756SOL     OW77326   0.232   8.964   7.358 -0.3260 -0.0302  0.3720
21756SOL    HW177327   0.327   8.942   7.337  0.1273  0.8339  1.4340
21756SOL    HW277328   0.190   9.010   7.280  0.5645  0.8736  0.4230
21757SOL     OW77329   8.777   3.521   7.843 -0.7117  0.2267 -0.1723
21757SOL    HW177330   8.742   3.482   7.758 -0.4104  0.7413 -0.5326
21757SOL    HW277331   8.836   3.455   7.889 -2.2894 -0.7212  0.5330
21758SOL     OW77332   4.614   0.348   2.099  0.2692  0.3568 -0.1245
21758SOL    HW177333   4.663   0.275   2.052 -0.8920 -0.8764  0.5674
21758SOL    HW277334   4.636   0.345   2.197 -0.6148  0.2466  0.0735
21759SOL     OW77335   9.753   9.672   5.525 -0.2268  0.5451 -0.2396
21759SOL    HW177336   9.763   9.762   5.568  1.6904  0.4266 -0.4047
21759SOL    HW277337   9.823   9.661   5.454  0.4433 -1.6273  0.7249
21760SOL     OW77338   0.994   5.439   9.986 -0.4726  0.1823 -0.0040
21760SOL    HW177339   0.903   5.480   9.988 -0.4433  0.3252 -1.2049
21760SOL    HW277340   1.064   5.511   9.980 -0.2541  0.0945  1.4573
21761SOL     OW77341   8.374   3.749   3.205  0.1089  0.6056  0.1218
21761SOL    HW177342   8.428   3.829   3.230 -3.0910  2.5059  1.2713
21761SOL    HW277343   8.362   3.690   3.285 -0.8706  1.0536  0.3194
21762SOL     OW77344   5.607   5.930   3.517 -0.9802  0.2058 -0.5930
21762SOL    HW177345   5.668   6.004   3.490 -0.8917 -0.1498 -1.3548
21762SOL    HW277346   5.661   5.851   3.547 -1.0349 -0.5324 -2.3744
21763SOL     OW77347   8.523   9.734   6.585 -0.1791 -0.2192  0.3204
21763SOL    HW177348   8.474   9.784   6.656 -1.2997 -0.4797 -0.2519
21763SOL    HW277349   8.580   9.797   6.533  1.7647 -0.2705  2.3610
21764SOL     OW77350   7.049   9.689   4.265 -0.0999 -0.0723 -0.6530
21764SOL    HW177351   7.018   9.719   4.175  0.1458 -0.1522 -0.7656
21764SOL    HW277352   7.140   9.727   4.284 -0.5336  0.6669 -0.0588
21765SOL     OW77353   8.670   6.602   5.647  0.2160 -0.3809 -0.2374
21765SOL    HW177354   8.634   6.604   5.740  2.3229 -0.9021  0.6345
21765SOL    HW277355   8.691   6.695   5.617  1.9187 -0.4108  0.8051
21766SOL     OW77356   5.485   0.149   6.128  0.1339 -0.3835  0.3106
21766SOL    HW177357   5.571   0.197   6.144 -0.0805 -0.3001  1.2205
21766SOL    HW277358   5.494   0.053   6.156 -0.1453 -0.3120  0.6537
21767SOL     OW77359   3.392   7.205   9.878  0.1685  0.3414  0.0225
21767SOL    HW177360   3.461   7.277   9.884  1.4511 -0.9271  0.6210
21767SOL    HW277361   3.436   7.116   9.875 -1.4209 -0.4540 -0.4110
21768SOL     OW77362   7.669   0.005   6.771  0.3190  0.1725  0.2207
21768SOL    HW177363   7.684  -0.031   6.863 -0.8036  2.3156  1.2633
21768SOL    HW277364   7.741  -0.029   6.710  0.3028 -2.3536  1.5532
21769SOL     OW77365   6.347   5.456   5.090 -0.6633 -0.6467  0.2207
21769SOL    HW177366   6.397   5.532   5.132  0.0692 -0.9553 -0.0942
21769SOL    HW277367   6.330   5.476   4.994 -1.8937 -0.1673  0.5312
21770SOL     OW77368   4.213   9.994   9.740 -0.0296  0.2087 -0.5337
21770SOL    HW177369   4.113   9.994   9.752 -0.0835 -0.8506 -0.9546
21770SOL    HW277370   4.245   9.901   9.726  1.2152  0.3789  1.0568
21771SOL     OW77371   9.660   0.730   6.962 -0.0704 -0.8047 -0.2340
21771SOL    HW177372   9.602   0.777   6.895  0.7292 -0.1636 -0.4864
21771SOL    HW277373   9.603   0.684   7.030 -0.8827 -0.8637 -0.9487
21772SOL     OW77374   9.925   9.874   4.520 -0.1544  0.4993  0.5877
21772SOL    HW177375   9.844   9.873   4.462 -0.0938 -0.3167  0.5117
21772SOL    HW277376   9.972   9.962   4.511 -0.9826  0.9412  0.5681
21773SOL     OW77377   8.641   8.298   3.500  0.2489  0.3652 -0.5047
21773SOL    HW177378   8.614   8.220   3.444  2.0603  0.9226 -2.2052
21773SOL    HW277379   8.679   8.265   3.587  0.2533 -0.6205 -0.8735
21774SOL     OW77380   5.842   9.571   6.557 -0.4064  0.7230 -0.2176
21774SOL    HW177381   5.809   9.522   6.638 -0.5594  0.4040 -0.4699
21774SOL    HW277382   5.939   9.590   6.567 -0.0489 -0.7513 -0.6597
21775SOL     OW77383   9.230   1.216   4.311 -0.0680 -0.0205  0.3974
21775SOL    HW177384   9.201   1.275   4.387  0.9524 -0.3199  1.0318
21775SOL    HW277385   9.324   1.237   4.287 -0.3290 -0.0598 -0.6775
21776SOL     OW77386   3.862   3.803   0.694 -0.0842  0.3106 -0.0430
21776SOL    HW177387   3.844   3.858   0.776 -0.5246 -0.2400  0.2412
21776SOL    HW277388   3.808   3.838   0.618  0.9409  1.3235 -0.3114
21777SOL     OW77389   6.297   4.754   6.577 -0.0632  0.0665  0.5171
21777SOL    HW177390   6.282   4.799   6.489 -1.3549 -1.8280 -0.2655
21777SOL    HW277391   6.245   4.802   6.648 -0.1929  0.7258 -0.0146
21778SOL     OW77392   9.938   4.587   3.588 -0.2499  0.3248  0.6599
21778SOL    HW177393   9.899   4.496   3.572  1.9306 -0.1969 -1.9897
21778SOL    HW277394  10.025   4.578   3.637  1.0906  0.7991 -1.5909
21779SOL     OW77395   5.247   3.674   9.121 -0.1759 -0.3201  0.3515
21779SOL    HW177396   5.180   3.608   9.086  0.3257  0.0136 -1.2869
21779SOL    HW277397   5.201   3.738   9.183 -1.6752  0.7090 -1.7723
21780SOL     OW77398   7.250   3.077   6.110  0.6636 -0.3937  0.2049
21780SOL    HW177399   7.206   3.008   6.168 -0.4464 -0.0080 -0.1594
21780SOL    HW277400   7.193   3.159   6.108  0.8438 -0.2915 -1.1837
21781SOL     OW77401   5.830   2.760   8.643  0.2824  0.8179  0.1889
21781SOL    HW177402   5.883   2.790   8.722 -0.1430  0.7946  0.4848
21781SOL    HW277403   5.890   2.754   8.563  0.7853  0.5324  0.5821
21782SOL     OW77404   1.093   8.589   2.500 -0.1379 -0.1765 -0.0872
21782SOL    HW177405   1.019   8.625   2.557  0.1595  1.7169 -0.8745
21782SOL    HW277406   1.057   8.565   2.410  0.1392  0.3792 -0.3440
21783SOL     OW77407   0.584   1.246   2.160  0.2573 -0.1453  0.3545
21783SOL    HW177408   0.660   1.207   2.108 -0.7051  0.9433 -1.9406
21783SOL    HW277409   0.498   1.224   2.115 -0.5399  1.5453  1.0114
21784SOL     OW77410   7.186   5.174   5.055  0.1670 -0.4732  0.5935
21784SOL    HW177411   7.134   5.105   5.105 -1.4327  0.5386  0.3560
21784SOL    HW277412   7.254   5.215   5.115 -1.2601  0.2252  1.7464
21785SOL     OW77413   0.211   4.766   1.036 -0.4080  0.2591 -0.4020
21785SOL    HW177414   0.126   4.738   0.992 -1.2192  0.9434  0.6812
21785SOL    HW277415   0.289   4.727   0.988 -1.2749  0.7972 -2.2744
21786SOL     OW77416   7.386   0.193   6.008  0.1388  0.3670  0.3602
21786SOL    HW177417   7.390   0.120   5.939  0.2462  0.7562 -0.0530
21786SOL    HW277418   7.479   0.216   6.036  0.1686  1.0800 -0.3035
21787SOL     OW77419   8.296   5.733   5.326  0.2711  0.0083 -0.4636
21787SOL    HW177420   8.199   5.710   5.338  0.9094 -2.8281 -0.4739
21787SOL    HW277421   8.306   5.794   5.247 -1.4108 -0.3221 -0.9486
21788SOL     OW77422   8.772   1.968   2.896 -0.0519 -0.6105  0.1892
21788SOL    HW177423   8.739   2.022   2.973 -2.0954  0.0072 -1.0509
21788SOL    HW277424   8.793   2.029   2.819 -0.9163 -1.4183 -0.7154
21789SOL     OW77425   4.194   6.766   5.238 -0.0962 -0.1345 -0.5801
21789SOL    HW177426   4.216   6.837   5.305  3.4984 -0.9777 -0.7905
21789SOL    HW277427   4.193   6.676   5.283 -1.5696 -0.3058 -0.9240
21790SOL     OW77428   7.434   2.177   2.968 -0.1712  0.0494 -0.3087
21790SOL    HW177429   7.336   2.185   2.948  0.0358  0.1506 -1.2816
21790SOL    HW277430   7.457   2.081   2.987 -0.3978 -0.0213 -0.3913
21791SOL     OW77431   4.265   5.521   9.253 -0.1999 -0.4356 -0.0845
21791SOL    HW177432   4.201   5.445   9.245 -0.4472 -0.0591 -1.7308
21791SOL    HW277433   4.333   5.499   9.323 -0.5165 -1.9921 -0.2389
21792SOL     OW77434   8.843   3.579   9.342  0.3222  0.0827 -0.0358
21792SOL    HW177435   8.885   3.513   9.280 -0.1138 -1.2712  1.0919
21792SOL    HW277436   8.869   3.557   9.437 -0.7157  0.8545  0.4383
21793SOL     OW77437   7.833   6.162   3.871 -0.3490  0.1766  0.2293
21793SOL    HW177438   7.873   6.236   3.925 -0.4363 -0.3143  0.9709
21793SOL    HW277439   7.898   6.134   3.800  0.7278 -0.7445  1.5407
21794SOL     OW77440   5.862   3.120   0.425  0.6803 -0.0371  0.0948
21794SOL    HW177441   5.930   3.053   0.397 -0.3312 -0.4227 -1.5087
21794SOL    HW277442   5.799   3.138   0.349 -0.3285  1.1527  1.1787
21795SOL     OW77443   0.847   0.165   5.963 -0.2255 -0.0224  0.2699
21795SOL    HW177444   0.827   0.231   5.890  1.2395  0.2671  0.1150
21795SOL    HW277445   0.875   0.078   5.922  0.5286  0.1188  0.4647
21796SOL     OW77446   9.935   8.532   5.544  0.5459 -0.5075 -0.4097
21796SOL    HW177447   9.952   8.562   5.638 -1.0603 -2.1329  0.4218
21796SOL    HW277448  10.008   8.470   5.515  1.4525  0.5946 -0.5224
21797SOL     OW77449   5.696   8.256   5.979  0.3074  0.0252 -0.2836
21797SOL    HW177450   5.658   8.348   5.992  1.5032  0.6015 -0.9161
21797SOL    HW277451   5.622   8.194   5.951 -0.6063  0.6674  0.6391
21798SOL     OW77452   6.192   0.288   6.776  0.1652  0.3521  0.3535
21798SOL    HW177453   6.255   0.282   6.698 -1.2324  2.3196 -0.9719
21798SOL    HW277454   6.204   0.376   6.821 -1.6825  0.7715  0.0410
21799SOL     OW77455   2.553   1.682   2.206  0.0902  0.4783 -0.0264
21799SOL    HW177456   2.489   1.748   2.166  0.8001  0.3313 -1.4276
21799SOL    HW277457   2.503   1.622   2.269 -1.4032 -0.4023 -1.9930
21800SOL     OW77458   0.592   5.653   7.177 -1.0257  0.2263 -0.1964
21800SOL    HW177459   0.678   5.603   7.163 -2.5343 -1.9602 -1.9418
21800SOL    HW277460   0.557   5.633   7.269 -0.7244 -0.5566 -0.2477
21801SOL     OW77461   7.858   8.192   8.210  0.7770  0.1234  0.4546
21801SOL    HW177462   7.839   8.259   8.283  0.7033  1.7989 -1.0685
21801SOL    HW277463   7.791   8.202   8.137  1.1985 -1.1484 -0.1142
21802SOL     OW77464   6.317   6.281   4.685  0.8262 -0.4442  0.1706
21802SOL    HW177465   6.311   6.261   4.588 -1.3759  0.8868 -0.0178
21802SOL    HW277466   6.408   6.314   4.707  0.7461  1.2313 -1.8706
21803SOL     OW77467   8.657   8.844   4.848 -0.1861  0.2652 -0.2493
21803SOL    HW177468   8.705   8.775   4.902  0.4833  1.6470  0.9662
21803SOL    HW277469   8.620   8.802   4.765  1.4207 -1.2323 -0.2283
21804SOL     OW77470   0.571   2.359   1.798 -0.2423 -0.1912  0.0393
21804SOL    HW177471   0.512   2.435   1.773 -0.6015 -0.4730  0.0175
21804SOL    HW277472   0.558   2.284   1.733  0.2105 -0.2160 -0.0193
21805SOL     OW77473   9.982   6.739   5.820 -0.1965 -0.2802  0.5670
21805SOL    HW177474  10.052   6.682   5.864  1.4418 -0.2965 -1.9543
21805SOL    HW277475   9.920   6.682   5.767 -1.9270 -0.2163  2.4426
21806SOL     OW77476   3.558   4.592   2.459 -0.4036  0.3570  0.2413
21806SOL    HW177477   3.597   4.500   2.461 -1.6105 -0.1661  0.5485
21806SOL    HW277478   3.618   4.653   2.408 -0.0391 -0.8090 -0.7433
21807SOL     OW77479   0.224   1.168   7.622 -0.0514  0.1666  0.4443
21807SOL    HW177480   0.213   1.071   7.643  1.4461 -0.0358  0.3597
21807SOL    HW277481   0.158   1.195   7.551  0.4234 -1.1123 -0.4905
21808SOL     OW77482   7.623   9.862   5.561  0.5901 -0.6943  0.2975
21808SOL    HW177483   7.583   9.897   5.476 -2.2069 -0.3784  1.6853
21808SOL    HW277484   7.645   9.939   5.621  1.0869 -0.9874  0.4933
21809SOL     OW77485   5.746   4.322   3.900  0.3455 -0.9754 -0.1897
21809SOL    HW177486   5.666   4.272   3.866  0.6765 -1.3134 -0.4672
21809SOL    HW277487   5.819   4.321   3.832  0.7345 -1.0102  0.2216
21810SOL     OW77488   8.525   1.067   6.209  0.2629  0.3926 -0.1015
21810SOL    HW177489   8.589   1.005   6.255 -1.2758  0.7616  2.6375
21810SOL    HW277490   8.552   1.078   6.113  3.4876 -0.5177  0.6449
21811SOL     OW77491   7.146   3.782   6.193  0.2796  0.0516  0.3540
21811SOL    HW177492   7.141   3.766   6.094 -2.5064  0.7605  0.3446
21811SOL    HW277493   7.110   3.703   6.242  1.0020 -0.0138  0.7829
21812SOL     OW77494   9.731   5.752   2.631 -0.4593 -0.2245  0.7242
21812SOL    HW177495   9.764   5.846   2.635 -0.9396 -0.0704  1.2278
21812SOL    HW277496   9.737   5.711   2.722 -0.9765 -0.4277  0.6684
21813SOL     OW77497   9.043   7.154   9.174  0.1984  0.5332 -0.3069
21813SOL    HW177498   8.954   7.198   9.161  0.4325  1.2559  0.4813
21813SOL    HW277499   9.101   7.172   9.095 -0.3119  0.1530 -0.7750
21814SOL     OW77500   6.855   0.731   5.481 -0.1834  0.1362  0.5628
21814SOL    HW177501   6.811   0.813   5.517  0.5576  1.8179 -2.2428
21814SOL    HW277502   6.954   0.737   5.496  0.0864  0.6675 -1.3292
21815SOL     OW77503   2.345   0.336   9.754  0.2844 -0.4428  0.2640
21815SOL    HW177504   2.444   0.350   9.753  0.4323 -1.4490 -0.0519
21815SOL    HW277505   2.318   0.286   9.672 -0.1621 -2.3172  1.5239
21816SOL     OW77506   8.031   2.932   3.048 -0.3152 -0.9137 -0.8631
21816SOL    HW177507   8.126   2.964   3.053 -0.3478 -0.9219 -0.0326
21816SOL    HW277508   7.981   2.985   2.979  0.1079 -0.4097 -0.7843
21817SOL     OW77509   4.687   1.162   2.800 -0.4333  0.2338 -0.5665
21817SOL    HW177510   4.704   1.085   2.862 -1.7316  1.5485  1.4657
21817SOL    HW277511   4.648   1.238   2.851  1.2402  2.4359 -2.4869
21818SOL     OW77512   9.746   9.900   6.690 -0.4338 -0.1296  0.5798
21818SOL    HW177513   9.664   9.898   6.633 -0.3041  0.1714  0.3810
21818SOL    HW277514   9.753   9.814   6.741 -0.5580 -0.3937  0.1552
21819SOL     OW77515   9.545   9.114   3.647 -0.3147  0.0024  0.4667
21819SOL    HW177516   9.616   9.053   3.682  0.6563  0.4817 -0.6450
21819SOL    HW277517   9.562   9.207   3.681 -1.6860 -0.2918  2.0083
21820SOL     OW77518   8.737   0.467   4.737 -0.3625 -0.7091  0.1128
21820SOL    HW177519   8.678   0.517   4.673 -0.6622 -0.0114  0.9350
21820SOL    HW277520   8.811   0.423   4.686  0.6324  1.5882 -0.5082
21821SOL     OW77521   3.805   7.975   9.226  0.6078  0.8722  0.0756
21821SOL    HW177522   3.774   7.926   9.307 -0.1653  1.4773  0.1618
21821SOL    HW277523   3.857   8.056   9.254 -0.9995  1.9606  0.0323
21822SOL     OW77524   8.742   2.141   4.274  0.1522 -0.0068 -0.1310
21822SOL    HW177525   8.781   2.175   4.360 -0.1042 -1.5514  0.6224
21822SOL    HW277526   8.674   2.071   4.294  1.0782 -1.3677 -1.6460
21823SOL     OW77527   9.397   5.831   4.670  0.0284  0.1272 -0.1866
21823SOL    HW177528   9.462   5.795   4.737  1.0070 -0.5808 -1.4861
21823SOL    HW277529   9.445   5.851   4.585 -1.2895  0.5294 -0.8477
21824SOL     OW77530   3.058   6.917   5.128 -0.6550 -0.3909  0.2281
21824SOL    HW177531   3.016   6.827   5.121  0.8756 -1.2161  1.2129
21824SOL    HW277532   3.057   6.947   5.224 -2.5281  1.3422 -0.2948
21825SOL     OW77533   1.164   0.323   6.048  0.4524  0.4336  0.6923
21825SOL    HW177534   1.185   0.363   5.959 -0.1591  2.6270  1.4980
21825SOL    HW277535   1.126   0.393   6.108 -0.5092 -1.3520  2.2218
21826SOL     OW77536   3.567   9.994   7.661  0.2484 -0.4317 -0.6559
21826SOL    HW177537   3.496  10.057   7.693 -1.0445 -1.4950 -1.3393
21826SOL    HW277538   3.613  10.032   7.581 -1.4687 -0.9242 -1.9124
21827SOL     OW77539   0.167   8.385   3.903 -0.1502  0.2127  0.2775
21827SOL    HW177540   0.120   8.306   3.864  1.8188 -0.7699 -0.1237
21827SOL    HW277541   0.192   8.449   3.830  2.0503 -0.8352  0.0827
21828SOL     OW77542   9.560   8.957   4.509 -0.2820 -0.3239  0.0794
21828SOL    HW177543   9.540   8.964   4.607 -2.6548  1.7439 -0.4906
21828SOL    HW277544   9.634   9.021   4.486 -0.8273  0.3669  0.2412
21829SOL     OW77545   7.609   5.742   9.661  0.0764  0.1983 -0.0671
21829SOL    HW177546   7.606   5.661   9.602 -1.9470  0.2018  0.0114
21829SOL    HW277547   7.669   5.724   9.739  1.9120 -0.1948 -1.5314
21830SOL     OW77548   3.679   3.390   5.533 -0.0579 -0.2214  0.0913
21830SOL    HW177549   3.676   3.484   5.565 -0.7261 -0.6051  1.1715
21830SOL    HW277550   3.709   3.388   5.437 -2.0446  1.2320 -0.5873
21831SOL     OW77551   8.290   7.407   7.480 -0.0992  0.0088 -0.9673
21831SOL    HW177552   8.380   7.391   7.438 -0.2571 -0.9303 -0.9536
21831SOL    HW277553   8.233   7.459   7.416  0.2538  0.0958 -1.2167
21832SOL     OW77554   9.617   8.719   7.329  0.2027  0.0235 -0.5864
21832SOL    HW177555   9.586   8.793   7.388  0.5523 -0.0812 -0.2676
21832SOL    HW277556   9.710   8.737   7.298 -0.9231  1.4575 -3.3662
21833SOL     OW77557   3.801   8.398   7.890  0.0012  0.3927 -0.0626
21833SOL    HW177558   3.773   8.391   7.986 -0.3027  2.0360 -0.0239
21833SOL    HW277559   3.743   8.464   7.843  0.4693 -0.0439 -1.2647
21834SOL     OW77560   8.570   2.607   4.919  0.5737 -0.0179  0.0408
21834SOL    HW177561   8.492   2.549   4.942  0.0003  1.2365  1.3463
21834SOL    HW277562   8.537   2.692   4.878  1.2384  0.5382  0.6447
21835SOL     OW77563   4.208   1.293   5.846 -0.1952 -0.0075  0.1797
21835SOL    HW177564   4.118   1.332   5.827 -0.0720  0.0550 -0.2787
21835SOL    HW277565   4.276   1.366   5.846 -0.4066  0.2230  2.3750
21836SOL     OW77566   0.267   6.374   6.775 -0.2198  0.4787 -0.0160
21836SOL    HW177567   0.347   6.344   6.827 -0.0020 -0.2872 -0.7941
21836SOL    HW277568   0.223   6.450   6.824 -0.0993 -0.3141  1.3631
21837SOL     OW77569   6.022   0.051   7.184 -0.1982  0.0452  0.0279
21837SOL    HW177570   6.108   0.043   7.236 -0.4677  0.3764  0.5327
21837SOL    HW277571   6.043   0.074   7.089  0.2716  0.2005  0.1662
21838SOL     OW77572   0.987   6.451   2.764  0.2066  0.2601  0.2321
21838SOL    HW177573   1.021   6.487   2.677 -0.7577  0.8718  0.1081
21838SOL    HW277574   0.972   6.526   2.828 -1.2103  0.0338  0.1802
21839SOL     OW77575   9.492   8.486   6.618 -0.3175  0.3280  0.4234
21839SOL    HW177576   9.516   8.516   6.711 -1.5320 -0.1006  0.8838
21839SOL    HW277577   9.556   8.526   6.553  0.2438  1.0470  1.3995
21840SOL     OW77578   0.860   0.073   0.087  0.1417 -0.4606 -0.3824
21840SOL    HW177579   0.780   0.113   0.132  0.0011  1.8509 -2.5647
21840SOL    HW277580   0.942   0.093   0.140 -0.2332  0.7011 -0.2406
21841SOL     OW77581   6.354   5.162   9.398 -0.3857  0.1974 -0.4846
21841SOL    HW177582   6.332   5.241   9.456 -0.5421 -0.1193 -0.1109
21841SOL    HW277583   6.285   5.091   9.412 -0.6884  0.3037 -1.4084
21842SOL     OW77584   1.686   5.121   3.219 -0.0825  0.0394  0.1345
21842SOL    HW177585   1.702   5.034   3.266 -0.7794 -0.1429  0.0467
21842SOL    HW277586   1.769   5.178   3.224 -0.3191  0.2721  2.1038
21843SOL     OW77587   9.184   5.471   5.092 -0.0030  0.1072  0.3755
21843SOL    HW177588   9.188   5.506   4.999 -2.4373  0.2018  0.2597
21843SOL    HW277589   9.100   5.503   5.136 -0.0740 -1.8924  1.7902
21844SOL     OW77590   7.327   7.995   4.023 -0.7506 -0.0760  0.7849
21844SOL    HW177591   7.264   7.955   3.956 -1.0541  1.1069  0.3598
21844SOL    HW277592   7.409   8.028   3.976  0.1605 -1.5008  1.3222
21845SOL     OW77593   6.154   8.101   4.102  0.4097 -0.0370  0.3055
21845SOL    HW177594   6.139   8.200   4.097  1.7175  0.1665  0.1947
21845SOL    HW277595   6.104   8.063   4.179 -0.3725  0.6581  0.1490
21846SOL     OW77596   7.779   1.472   4.197  0.0170 -0.4751 -0.1114
21846SOL    HW177597   7.805   1.494   4.291 -0.0497 -1.8999  0.2471
21846SOL    HW277598   7.710   1.400   4.197 -1.1256  0.5851 -1.2098
21847SOL     OW77599   9.366   9.635   4.765 -0.2454  0.3841  0.3627
21847SOL    HW177600   9.282   9.646   4.711 -0.6581  1.8666  1.2706
21847SOL    HW277601   9.404   9.544   4.749 -1.2583  0.1974 -1.1415
21848SOL     OW77602   9.003   1.797   5.866 -0.3580 -0.5743 -0.0786
21848SOL    HW177603   9.023   1.809   5.963  0.0087 -1.2000 -0.0705
21848SOL    HW277604   8.993   1.699   5.846 -0.5396 -0.4428 -0.6492
21849SOL     OW77605   8.164   7.033   4.845  0.1779 -0.1760  0.0574
21849SOL    HW177606   8.116   6.976   4.779  1.6581  0.5656 -1.7025
21849SOL    HW277607   8.099   7.094   4.890 -0.4665  1.2619 -2.7466
21850SOL     OW77608   6.715   1.960   3.925  0.0750 -0.3230 -0.5423
21850SOL    HW177609   6.636   1.899   3.921  0.0161 -0.3332  0.5877
21850SOL    HW277610   6.688   2.052   3.895 -0.0829 -0.6027 -1.2580
21851SOL     OW77611   2.351   2.423   6.198  0.5377  1.0477 -0.4080
21851SOL    HW177612   2.395   2.439   6.110 -1.6596 -1.4317 -2.0313
21851SOL    HW277613   2.258   2.461   6.196 -0.4875 -1.3905 -0.1531
21852SOL     OW77614   8.817   1.894   8.367 -0.0072 -0.6853  0.3068
21852SOL    HW177615   8.847   1.858   8.278 -1.3946  1.5250 -1.0924
21852SOL    HW277616   8.897   1.920   8.421  0.8289 -1.4707 -0.5396
21853SOL     OW77617   3.422   1.334   8.846  0.2121  0.1255 -0.7410
21853SOL    HW177618   3.362   1.388   8.786 -1.8477 -0.9233  0.3018
21853SOL    HW277619   3.501   1.389   8.873 -0.6164  1.7844 -1.6304
21854SOL     OW77620   5.948   8.515   2.076  0.4521  0.2349 -0.1692
21854SOL    HW177621   5.896   8.459   2.140  0.2905  1.7589  1.0706
21854SOL    HW277622   5.895   8.597   2.053  1.1214  0.4147 -1.1230
21855SOL     OW77623   6.596   8.710   9.537 -1.0026  0.1741  0.6225
21855SOL    HW177624   6.576   8.803   9.508 -3.6163 -0.2320  1.0646
21855SOL    HW277625   6.545   8.689   9.620  0.3148 -1.3365  1.0820
21856SOL     OW77626   5.041   2.818   9.719  0.1339  0.1025  0.0338
21856SOL    HW177627   5.054   2.788   9.624 -0.4546  1.0047 -0.3400
21856SOL    HW277628   5.050   2.739   9.780 -0.7336 -0.7171 -0.8776
21857SOL     OW77629   1.787   2.933   4.141  0.1839 -0.8386  0.1327
21857SOL    HW177630   1.740   2.876   4.073  2.1570 -0.8739 -1.2434
21857SOL    HW277631   1.884   2.911   4.141  0.3350 -0.2741  2.4433
21858SOL     OW77632   7.570   2.360   6.011 -0.2079 -0.3008 -0.1340
21858SOL    HW177633   7.632   2.302   6.063 -0.0864  1.3012  1.5533
21858SOL    HW277634   7.612   2.381   5.922  2.0101  1.2721  1.2123
21859SOL     OW77635   9.039   9.394   5.326  0.0510  0.5911 -0.0931
21859SOL    HW177636   8.964   9.336   5.293 -0.0361  0.9342 -0.4961
21859SOL    HW277637   9.098   9.419   5.250  0.6224  0.2634  0.2369
21860SOL     OW77638   6.587   1.736   8.253 -0.4322  0.5201  0.4438
21860SOL    HW177639   6.604   1.720   8.350 -1.4963  1.8452  0.8590
21860SOL    HW277640   6.631   1.822   8.225 -0.4794  0.3569 -0.1409
21861SOL     OW77641   2.360   1.416   4.805 -0.0603  0.3426 -0.0222
21861SOL    HW177642   2.348   1.319   4.783  0.3533  0.5090 -1.0029
21861SOL    HW277643   2.423   1.457   4.740 -0.6089  1.3933  0.1028
21862SOL     OW77644   7.269   3.482   6.128 -0.1538 -0.4142 -0.4007
21862SOL    HW177645   7.315   3.481   6.217  0.1507  1.1668 -0.5166
21862SOL    HW277646   7.210   3.403   6.119 -0.3264 -0.4795  1.2889
21863SOL     OW77647   8.465   2.976   0.376 -0.1509 -0.8366 -0.2209
21863SOL    HW177648   8.526   2.898   0.391 -0.9524 -1.5609 -0.6534
21863SOL    HW277649   8.370   2.945   0.381 -0.4864  0.2829  0.4687
21864SOL     OW77650   9.235   4.446   8.000 -0.3396  0.7204  0.3910
21864SOL    HW177651   9.138   4.466   7.988  0.0183  1.2214 -1.7231
21864SOL    HW277652   9.248   4.347   8.005 -0.8047  0.6088 -0.6598
21865SOL     OW77653   5.599   1.207   9.520  0.2856  0.2945 -0.5651
21865SOL    HW177654   5.692   1.170   9.524  0.1153 -0.1251 -0.4878
21865SOL    HW277655   5.603   1.307   9.521  0.6275  0.3371  2.9365
21866SOL     OW77656   8.622   0.350   1.785  0.0191 -0.1952  0.1333
21866SOL    HW177657   8.572   0.387   1.707  1.2640  0.5069 -0.3518
21866SOL    HW277658   8.635   0.252   1.773 -1.5167 -0.4490  0.4301
21867SOL     OW77659   1.289   8.851   3.470 -0.5566 -0.0116 -0.0944
21867SOL    HW177660   1.293   8.951   3.479 -0.2807  0.0062 -0.4139
21867SOL    HW277661   1.238   8.813   3.547  0.5520  0.2640  0.7896
21868SOL     OW77662   9.031   0.553   9.851  0.0358 -0.1164  0.0789
21868SOL    HW177663   9.027   0.461   9.812 -0.5659 -0.4664  0.9486
21868SOL    HW277664   9.063   0.617   9.782  0.2917 -0.9514 -0.5886
21869SOL     OW77665   5.777   8.378   5.637  0.7728 -0.2858  0.6036
21869SOL    HW177666   5.847   8.358   5.705  1.4720  0.0617 -0.0032
21869SOL    HW277667   5.805   8.457   5.583 -0.3567  0.2022  0.7222
21870SOL     OW77668   7.420   3.487   6.759  0.3934 -0.1949  0.0525
21870SOL    HW177669   7.483   3.559   6.730  0.0961 -0.0693 -0.2906
21870SOL    HW277670   7.432   3.469   6.857  0.1598  0.6400  0.2398
21871SOL     OW77671   6.299   2.751   8.055  0.2950  0.2757  0.1567
21871SOL    HW177672   6.292   2.698   7.971  0.0603 -0.2838  0.5340
21871SOL    HW277673   6.326   2.845   8.032 -1.3960  0.5721 -0.6793
21872SOL     OW77674   8.744   8.644   8.102  0.4510  0.7198  0.4249
21872SOL    HW177675   8.815   8.700   8.060  0.3366  0.4903 -0.0822
21872SOL    HW277676   8.658   8.695   8.103  0.2293  0.3653 -0.4864
21873SOL     OW77677   7.081   2.974   6.933  0.0823 -0.4388  0.3761
21873SOL    HW177678   7.009   2.975   7.002  0.7120 -1.9287  1.0520
21873SOL    HW277679   7.084   2.885   6.888 -0.0968  0.3907 -1.3681
21874SOL     OW77680   6.109   6.425   6.666  0.4484 -0.1401 -0.3069
21874SOL    HW177681   6.123   6.500   6.601  0.2077  0.2259  0.0606
21874SOL    HW277682   6.102   6.338   6.616  0.2244  0.1460 -0.7716
21875SOL     OW77683   6.698   9.293   5.866 -0.2297 -0.3700 -0.4809
21875SOL    HW177684   6.649   9.374   5.832  0.1514  0.1611  0.2305
21875SOL    HW277685   6.767   9.265   5.799  0.9056  1.0160  0.0800
21876SOL     OW77686   2.615   7.349   0.264  0.0195  0.4339 -0.2220
21876SOL    HW177687   2.663   7.269   0.300 -0.3064 -0.7572 -2.3887
21876SOL    HW277688   2.544   7.377   0.329  1.1867 -0.0465  1.2789
21877SOL     OW77689   0.483   8.681   8.529 -1.0090 -0.1007 -0.3398
21877SOL    HW177690   0.470   8.584   8.546  0.0333 -0.2274 -0.1958
21877SOL    HW277691   0.505   8.695   8.432  1.3963 -0.3143  0.1293
21878SOL     OW77692   9.553   4.726   1.598 -0.6452  0.4202  0.0096
21878SOL    HW177693   9.575   4.732   1.501 -1.5516 -1.3832 -0.3314
21878SOL    HW277694   9.637   4.711   1.650 -0.4083 -0.9909 -0.7456
21879SOL     OW77695   0.712   6.488   6.841 -0.2018 -0.3551 -0.4161
21879SOL    HW177696   0.650   6.566   6.852  0.5502  0.1156  0.5330
21879SOL    HW277697   0.768   6.502   6.759  0.7258  0.6574  0.3852
21880SOL     OW77698   1.489   8.171   8.844  0.3350 -0.4676  0.0562
21880SOL    HW177699   1.581   8.182   8.807  0.2858  0.5764  0.2400
21880SOL    HW277700   1.424   8.157   8.770  0.5621 -0.6999 -0.1015
21881SOL     OW77701   0.884   2.260   2.017 -0.9045  0.5274  0.8677
21881SOL    HW177702   0.825   2.191   1.974 -1.3894  1.1998  0.4303
21881SOL    HW277703   0.977   2.251   1.982 -1.0993  0.4771  0.3572
21882SOL     OW77704   0.221   4.518   6.225 -0.6210 -0.1889 -0.1197
21882SOL    HW177705   0.237   4.518   6.324 -0.8866  3.1664 -0.0259
21882SOL    HW277706   0.123   4.517   6.208 -0.5775 -0.6055 -0.3292
21883SOL     OW77707   4.905   9.875   5.433 -0.2053  0.6002  0.6720
21883SOL    HW177708   5.001   9.886   5.405 -0.1167 -0.1095  0.6715
21883SOL    HW277709   4.900   9.809   5.509 -0.7210  0.4143  0.4773
21884SOL     OW77710   9.353   3.161   8.304 -0.7199  0.1575 -0.2159
21884SOL    HW177711   9.389   3.223   8.373  0.3452 -0.2432 -0.3976
21884SOL    HW277712   9.391   3.185   8.214  1.1747 -1.8666 -0.0078
21885SOL     OW77713   9.881   3.741   0.731 -0.6422  0.0192  0.0036
21885SOL    HW177714   9.908   3.836   0.715 -0.4952  0.3956  2.3042
21885SOL    HW277715   9.867   3.727   0.829 -1.3633 -2.1567 -0.3960
21886SOL     OW77716   6.201   8.623   1.081  0.1414  0.3621 -0.0337
21886SOL    HW177717   6.163   8.704   1.126 -1.5785 -0.5728  0.2678
21886SOL    HW277718   6.246   8.565   1.149 -0.4070  0.0971  0.1148
21887SOL     OW77719   8.240   0.489   0.836 -0.6489 -0.0937  0.3520
21887SOL    HW177720   8.255   0.584   0.808 -1.2997  0.1183  0.7204
21887SOL    HW277721   8.233   0.431   0.755  1.1083 -0.0470  0.1373
21888SOL     OW77722   6.239   9.917   8.961 -0.4486  0.4491  0.3579
21888SOL    HW177723   6.184   9.981   8.905  1.4224  1.2813 -0.5768
21888SOL    HW277724   6.336   9.940   8.952  0.2378 -2.2758  0.3613
21889SOL     OW77725   0.561   2.819   7.781  0.7882  0.3244  0.2070
21889SOL    HW177726   0.488   2.754   7.760  0.8206 -0.2676  1.8485
21889SOL    HW277727   0.591   2.806   7.876  1.7364  1.8159  0.1295
21890SOL     OW77728   6.595   3.649   0.588 -0.0260  0.4285  0.0954
21890SOL    HW177729   6.678   3.625   0.537 -1.0651  0.4955 -1.6770
21890SOL    HW277730   6.559   3.735   0.553  0.3279  1.4953  2.3204
21891SOL     OW77731   2.374   0.624   6.010  0.1485  0.5693  0.5899
21891SOL    HW177732   2.461   0.660   5.977  0.2602  0.8704  1.2018
21891SOL    HW277733   2.389   0.571   6.093 -0.1645  0.0569  0.3186
21892SOL     OW77734   1.004   2.412   6.207 -0.2389 -0.0383  0.2176
21892SOL    HW177735   1.062   2.332   6.196 -0.9284 -0.5667  0.4203
21892SOL    HW277736   0.955   2.407   6.294 -0.6815  0.3476 -0.0047
21893SOL     OW77737   0.602   1.851   7.409  0.0729 -0.5095 -0.1978
21893SOL    HW177738   0.607   1.761   7.452 -0.4200 -1.0831 -1.3441
21893SOL    HW277739   0.694   1.890   7.402  0.3026 -0.9943  0.1185
21894SOL     OW77740   9.111   3.157   2.031 -0.8880 -0.1389 -0.4355
21894SOL    HW177741   9.109   3.170   2.130 -1.8640  0.4280 -0.5245
21894SOL    HW277742   9.198   3.190   1.995  0.0301 -1.5828  0.3959
21895SOL     OW77743   0.108   0.427   8.568  0.5852 -0.0624 -0.6253
21895SOL    HW177744   0.080   0.331   8.559  1.3763 -0.4307  0.5906
21895SOL    HW277745   0.170   0.436   8.646  0.1135  1.5396 -0.4131
21896SOL     OW77746   0.929   3.776   4.265  0.1258  0.1097 -0.5273
21896SOL    HW177747   0.921   3.874   4.282  1.2978 -0.0387  0.9846
21896SOL    HW277748   1.026   3.751   4.262 -0.1755 -1.3852  1.4529
21897SOL     OW77749   6.484   1.847   9.645  0.1086  0.0600 -0.2932
21897SOL    HW177750   6.485   1.892   9.555 -2.1251 -1.9060 -1.3783
21897SOL    HW277751   6.577   1.825   9.672  0.8246  0.5566 -2.2230
21898SOL     OW77752   0.182   9.432   0.338 -0.1344 -0.1623 -0.1215
21898SOL    HW177753   0.242   9.367   0.384 -0.0059 -0.0903 -0.1857
21898SOL    HW277754   0.238   9.498   0.287 -0.2248  0.9019  1.1528
21899SOL     OW77755   4.943   0.307   8.970 -0.2303  0.0058  0.2905
21899SOL    HW177756   4.894   0.265   8.894 -0.1978 -0.7754  0.6989
21899SOL    HW277757   4.938   0.248   9.050 -1.2565  1.3539  1.2466
21900SOL     OW77758   6.280   2.448   9.861  0.2682 -0.4101  0.2164
21900SOL    HW177759   6.255   2.361   9.819  0.0484 -0.1602 -0.1695
21900SOL    HW277760   6.199   2.507   9.867  0.9865  0.9058 -2.2349
21901SOL     OW77761   9.911   0.994   2.369  0.4666 -0.1746 -0.9231
21901SOL    HW177762   9.838   0.954   2.313  0.2689  1.2532 -1.7152
21901SOL    HW277763   9.873   1.063   2.430  0.9830 -0.2851 -0.4694
21902SOL     OW77764   0.285   9.153   7.550  0.0246  0.4938 -0.0287
21902SOL    HW177765   0.356   9.198   7.496  0.6554  0.0345  0.4148
21902SOL    HW277766   0.247   9.077   7.497  3.2089 -2.3291  1.5051
21903SOL     OW77767   1.317   1.548   0.270  0.0641 -0.0290  1.1057
21903SOL    HW177768   1.349   1.606   0.195 -3.0203 -0.7363 -0.8268
21903SOL    HW277769   1.241   1.592   0.316 -1.2465 -1.7870  0.6716
21904SOL     OW77770   7.827   4.639   7.365  0.3744 -0.1397 -0.3451
21904SOL    HW177771   7.733   4.621   7.395  0.3405 -0.7367 -0.8194
21904SOL    HW277772   7.833   4.732   7.329  0.1052  0.1141  0.2604
21905SOL     OW77773   5.718   2.245   3.805  0.7152  0.0622  0.3536
21905SOL    HW177774   5.788   2.249   3.876  0.2088  1.5920  0.7926
21905SOL    HW277775   5.700   2.337   3.770 -0.2580 -0.4536 -0.5540
21906SOL     OW77776   5.372   8.060   6.711  0.0310 -0.4275  0.0643
21906SOL    HW177777   5.301   8.128   6.691  0.1728 -0.7015 -1.4162
21906SOL    HW277778   5.461   8.105   6.718 -0.1547 -0.2017  1.0796
21907SOL     OW77779   6.005   8.477   7.953  0.2779 -0.2930 -0.2913
21907SOL    HW177780   5.995   8.426   8.038  1.2707 -0.3237 -0.1862
21907SOL    HW277781   5.917   8.517   7.927 -0.1961 -0.9213  0.3429
21908SOL     OW77782   7.108   4.480   6.717  0.4835 -0.0403 -0.5509
21908SOL    HW177783   7.143   4.447   6.629  0.5257 -1.6642  0.0532
21908SOL    HW277784   7.149   4.426   6.790 -1.0752 -0.0027  0.3513
21909SOL     OW77785   6.402   8.086   0.552 -0.3053 -0.4456  0.5537
21909SOL    HW177786   6.472   8.022   0.520  1.5211  0.3923  2.7782
21909SOL    HW277787   6.381   8.066   0.648 -0.8350  1.3365  0.8129
21910SOL     OW77788   8.597   9.443   8.121  0.1820 -0.0409 -0.6039
21910SOL    HW177789   8.572   9.535   8.151 -0.5950  0.2192 -2.0109
21910SOL    HW277790   8.551   9.375   8.178 -3.1996  0.4288 -2.6324
21911SOL     OW77791   6.813   4.626   1.766 -0.8469 -0.2962  0.6253
21911SOL    HW177792   6.880   4.671   1.825 -0.0146 -1.3969  0.5393
21911SOL    HW277793   6.849   4.620   1.673 -1.5442  0.1379  0.3305
21912SOL     OW77794   0.828   4.973   7.730  0.4316 -0.3062 -0.4675
21912SOL    HW177795   0.755   4.986   7.797  0.2037 -3.1235 -0.0875
21912SOL    HW277796   0.794   4.995   7.638  0.3323  2.2272  0.1486
21913SOL     OW77797   5.450   0.926   7.923 -0.5659  0.0196 -0.2631
21913SOL    HW177798   5.499   0.873   7.854 -0.7380  1.2290 -1.3417
21913SOL    HW277799   5.394   0.996   7.878 -0.5162  0.9771  1.1101
21914SOL     OW77800   1.621   3.665   9.120  0.6822  1.2710 -0.2639
21914SOL    HW177801   1.526   3.664   9.090  0.7938 -2.3591 -0.6658
21914SOL    HW277802   1.625   3.682   9.219 -0.3891  1.4267 -0.2452
21915SOL     OW77803   6.814   5.690   7.008  0.1996 -0.2193 -0.4299
21915SOL    HW177804   6.724   5.649   6.992 -0.2207 -0.2080  1.7866
21915SOL    HW277805   6.885   5.622   6.989 -0.0990  0.5729 -4.8440
21916SOL     OW77806   0.858   0.097   9.816 -0.7585  0.5385 -0.2272
21916SOL    HW177807   0.868   0.128   9.911 -1.0515 -0.0026 -0.0194
21916SOL    HW277808   0.763   0.071   9.799 -0.0890 -2.4480  0.2798
21917SOL     OW77809   4.218   1.963   7.772 -0.3959  0.2049 -0.3509
21917SOL    HW177810   4.201   2.031   7.700  1.8327  2.0996  0.8606
21917SOL    HW277811   4.156   1.885   7.759 -0.4704  0.7568 -3.9616
21918SOL     OW77812   5.588   6.831   4.081 -0.0461  0.8358  0.1531
21918SOL    HW177813   5.608   6.898   4.010 -0.3082  0.2814 -0.4534
21918SOL    HW277814   5.593   6.739   4.042  0.7121  0.4858  1.0719
21919SOL     OW77815   7.207   3.327   9.226  0.4318 -0.7503 -0.5050
21919SOL    HW177816   7.175   3.247   9.277  2.3440  0.5005  2.7546
21919SOL    HW277817   7.304   3.318   9.206  0.5189  0.4833 -0.6716
21920SOL     OW77818   7.145   8.953   0.096  0.1476  0.6887 -0.5510
21920SOL    HW177819   7.235   8.970   0.056  0.8690 -1.5262  0.0546
21920SOL    HW277820   7.155   8.940   0.195 -0.7250 -0.3136 -0.5913
21921SOL     OW77821   4.432   6.721   5.574  0.0002 -0.5097 -0.1421
21921SOL    HW177822   4.347   6.763   5.606 -0.6657 -1.0595 -1.1876
21921SOL    HW277823   4.470   6.775   5.499  0.9482  0.1191  0.7695
21922SOL     OW77824   0.646   5.377   5.368  0.3553 -0.2186 -0.1997
21922SOL    HW177825   0.704   5.448   5.408 -0.7806 -0.6662  2.3021
21922SOL    HW277826   0.699   5.326   5.299  1.6873  1.9154 -0.8030
21923SOL     OW77827   7.818   5.137   5.124 -0.3966 -0.4008  0.1274
21923SOL    HW177828   7.728   5.166   5.093  0.0222 -0.0209 -0.7569
21923SOL    HW277829   7.837   5.175   5.214 -0.4606  0.8586 -0.3884
21924SOL     OW77830   8.549   8.685   5.086  0.2626  0.3528  0.0743
21924SOL    HW177831   8.562   8.586   5.093  0.9770  0.4666  0.5130
21924SOL    HW277832   8.632   8.731   5.118  0.5394  1.0659 -1.6070
21925SOL     OW77833   7.101   0.342   5.164  0.1353  0.5286 -0.4709
21925SOL    HW177834   7.080   0.390   5.249  1.2794  1.1481 -0.5211
21925SOL    HW277835   7.167   0.268   5.182 -0.3340  0.0637 -0.6644
21926SOL     OW77836   0.006   2.564   8.061  0.0232 -0.1391  0.5219
21926SOL    HW177837  -0.039   2.647   8.095  0.4814 -0.2885  1.5384
21926SOL    HW277838   0.086   2.544   8.119  0.7416 -0.4947 -0.5820
21927SOL     OW77839   7.334   6.927   5.829 -0.1608  0.1715  0.0982
21927SOL    HW177840   7.382   7.009   5.798  1.1683 -1.0792 -1.2301
21927SOL    HW277841   7.398   6.869   5.880 -1.2085  0.1582  1.4174
21928SOL     OW77842   0.704   2.433   0.815  0.0490  0.1715  0.3114
21928SOL    HW177843   0.650   2.405   0.736 -1.1364 -0.7686  1.4349
21928SOL    HW277844   0.681   2.528   0.839  0.3107  0.4112 -0.3763
21929SOL     OW77845   5.406   1.289   4.060  0.5051  0.4319 -0.0641
21929SOL    HW177846   5.455   1.203   4.049  1.8200  1.1249  0.2253
21929SOL    HW277847   5.428   1.328   4.150 -1.2145  0.3688  0.4006
21930SOL     OW77848   8.209   4.998   4.809  0.4315 -0.5431  0.7963
21930SOL    HW177849   8.248   5.029   4.896 -1.5500  0.0649  1.5013
21930SOL    HW277850   8.124   4.949   4.827 -0.8965  1.0794 -0.9088
21931SOL     OW77851   6.620   1.303   8.358  0.3863 -0.2945  0.0794
21931SOL    HW177852   6.569   1.308   8.272 -0.3164  0.1778  0.5280
21931SOL    HW277853   6.567   1.253   8.426  0.5074  0.2235  0.5567
21932SOL     OW77854   4.892   4.261   9.172  0.1049 -0.0883 -0.3991
21932SOL    HW177855   4.826   4.299   9.237  0.7069  0.2199  0.0426
21932SOL    HW277856   4.856   4.176   9.134 -0.1990 -0.3544  0.4577
21933SOL     OW77857   9.579   0.495   7.185 -0.2632 -0.0732 -0.2463
21933SOL    HW177858   9.582   0.405   7.230  1.2576  0.2344  0.2907
21933SOL    HW277859   9.560   0.566   7.253 -0.4493  0.1269 -0.5071
21934SOL     OW77860   7.494   6.781   2.244  0.1498 -0.2227 -0.3149
21934SOL    HW177861   7.587   6.789   2.210 -0.0139 -0.6519 -0.8680
21934SOL    HW277862   7.437   6.735   2.176 -0.3350 -0.4679  0.2476
21935SOL     OW77863   0.955   0.487   8.840 -0.6450 -0.3523 -0.0990
21935SOL    HW177864   1.015   0.546   8.894 -1.7968  0.9145 -0.1927
21935SOL    HW277865   0.982   0.391   8.854  2.3831  0.2642 -1.3385
21936SOL     OW77866   7.974   3.439   8.522 -0.2805 -0.7587  0.3394
21936SOL    HW177867   7.930   3.520   8.562 -1.1599 -0.9467 -0.2189
21936SOL    HW277868   7.924   3.357   8.550 -0.4869 -0.9473 -0.5565
21937SOL     OW77869   5.209   2.321   9.441 -0.0669 -0.0697  0.1870
21937SOL    HW177870   5.194   2.392   9.372 -0.4631 -0.1266  0.2163
21937SOL    HW277871   5.131   2.259   9.443  1.5026 -2.2070 -1.8519
21938SOL     OW77872   8.226   6.558   6.838  0.5285 -0.2681  0.1396
21938SOL    HW177873   8.319   6.576   6.868  0.1409 -0.4973  1.5139
21938SOL    HW277874   8.220   6.465   6.801  0.8121 -0.3084  0.1937
21939SOL     OW77875   7.843   2.555   7.430 -0.1386  0.3028 -0.6658
21939SOL    HW177876   7.843   2.482   7.498 -1.6693  1.9675  1.1883
21939SOL    HW277877   7.936   2.569   7.396  0.8946  0.2040  1.9705
21940SOL     OW77878   7.532   8.786   7.665 -0.6810 -0.2642 -0.3980
21940SOL    HW177879   7.537   8.872   7.615  0.3264  1.9450  3.3115
21940SOL    HW277880   7.436   8.755   7.668 -1.5743  2.5039  1.0452
21941SOL     OW77881   2.313   0.971   3.019  0.4882 -0.1956 -0.7682
21941SOL    HW177882   2.323   0.903   2.947 -0.8057 -2.1373  0.8391
21941SOL    HW277883   2.402   0.992   3.058  0.7518 -1.8939 -0.4431
21942SOL     OW77884   3.879   8.358   3.521  0.0519 -0.3033 -0.3054
21942SOL    HW177885   3.802   8.367   3.584 -0.9708 -1.7743 -1.3199
21942SOL    HW277886   3.874   8.431   3.452  0.7385  0.8406  0.8485
21943SOL     OW77887   7.172   8.019   5.157  0.2735  0.9323 -0.0192
21943SOL    HW177888   7.243   8.051   5.219  1.2773 -0.5371 -0.3971
21943SOL    HW277889   7.140   7.928   5.186  0.7396  0.2302 -1.6090
21944SOL     OW77890   3.982   1.281   2.010  0.5164  0.3507  0.1745
21944SOL    HW177891   3.941   1.331   1.934 -1.1657  0.5790  1.2031
21944SOL    HW277892   4.013   1.191   1.977 -0.4421  0.3368 -0.7307
21945SOL     OW77893   6.057   6.706   0.764 -0.2139  1.0852  0.1205
21945SOL    HW177894   6.082   6.728   0.669 -1.8264  0.9287 -0.3476
21945SOL    HW277895   6.066   6.788   0.820 -0.1105  1.3987 -0.3472
21946SOL     OW77896   5.372   4.422   8.336 -0.1178 -0.2135  0.2602
21946SOL    HW177897   5.449   4.366   8.306  0.9179  0.4141  1.6613
21946SOL    HW277898   5.401   4.517   8.345 -1.5260  0.3380 -0.8641
21947SOL     OW77899   7.631   1.946   9.084  0.1143 -0.3393  0.3696
21947SOL    HW177900   7.619   1.915   8.990 -1.7642 -0.7886  0.7270
21947SOL    HW277901   7.710   1.900   9.124  0.6255 -0.5238 -0.8327
21948SOL     OW77902   3.677   6.396   5.270  0.1231  0.3702 -0.0680
21948SOL    HW177903   3.578   6.382   5.273  0.2898 -0.6822  1.2541
21948SOL    HW277904   3.697   6.488   5.237 -1.2589  0.1284 -1.6205
21949SOL     OW77905   7.375   1.746   8.868  0.0962 -0.2692 -0.0179
21949SOL    HW177906   7.365   1.667   8.808  0.4624 -0.7785  0.5926
21949SOL    HW277907   7.468   1.783   8.860  0.4414 -0.9241  0.9583
21950SOL     OW77908   1.658   0.084   5.036 -0.0987  0.0314 -0.6869
21950SOL    HW177909   1.603   0.163   5.008 -2.4601 -1.5726 -0.7059
21950SOL    HW277910   1.616  -0.000   5.002  2.2856 -1.2766 -0.5338
21951SOL     OW77911   7.404   7.261   5.509 -0.5781  0.3009  0.1715
21951SOL    HW177912   7.365   7.174   5.539 -1.2640  0.8182  0.8045
21951SOL    HW277913   7.336   7.334   5.522 -0.3222  0.7942 -1.1500
21952SOL     OW77914   0.261   8.849   8.405 -0.2015 -0.5385  0.3371
21952SOL    HW177915   0.184   8.910   8.426 -0.6201 -0.1112 -2.2269
21952SOL    HW277916   0.286   8.797   8.486 -0.8270  1.9633  2.1842
21953SOL     OW77917   3.005   1.257   9.670 -0.3421 -0.1217  0.0141
21953SOL    HW177918   2.948   1.257   9.587  0.7916  0.3639 -0.7828
21953SOL    HW277919   3.098   1.228   9.646  1.0492  3.8144  0.3476
21954SOL     OW77920   0.031   9.122   8.700 -0.0884 -0.1064 -0.4033
21954SOL    HW177921   0.025   9.078   8.610  1.3068  2.2909 -1.7414
21954SOL    HW277922   0.047   9.221   8.688  0.5245  0.2027  2.4715
21955SOL     OW77923   5.406   9.611   8.162  0.4247 -0.1473  0.6862
21955SOL    HW177924   5.422   9.515   8.140  0.0723 -0.0232 -0.1198
21955SOL    HW277925   5.310   9.634   8.145  0.2581  0.0899  1.8668
21956SOL     OW77926   1.309   7.742   9.297  0.7750 -0.0462 -0.3435
21956SOL    HW177927   1.211   7.737   9.281  0.7206 -0.2093  0.0445
21956SOL    HW277928   1.343   7.831   9.268  0.1423  0.8273  1.5311
21957SOL     OW77929   1.259   6.990   9.670 -0.0593  0.4133 -0.8001
21957SOL    HW177930   1.212   7.060   9.616 -1.0085  0.8347  0.5404
21957SOL    HW277931   1.191   6.938   9.723  0.6492 -1.4179 -1.6505
21958SOL     OW77932   7.736   2.985   6.625  0.3358 -0.6215  0.2595
21958SOL    HW177933   7.770   3.072   6.660 -2.2633  0.3318  0.4859
21958SOL    HW277934   7.693   2.999   6.536  0.1428 -1.7302  0.1691
21959SOL     OW77935   7.209   9.296   7.284  0.2956  0.3512 -0.0394
21959SOL    HW177936   7.289   9.332   7.331  0.5332  0.3622 -0.4481
21959SOL    HW277937   7.196   9.200   7.309  0.1598  0.4795  0.3914
21960SOL     OW77938   7.926   8.587   4.284  0.2153 -0.2570  0.3008
21960SOL    HW177939   7.873   8.596   4.368  0.6934  0.0814  0.5747
21960SOL    HW277940   7.974   8.499   4.284 -0.3240 -0.5515  0.0626
21961SOL     OW77941   9.415   8.988   5.681 -0.3153  0.2113 -0.7455
21961SOL    HW177942   9.488   8.940   5.633  0.5678  0.9806 -0.2026
21961SOL    HW277943   9.454   9.040   5.757 -1.2717  1.5600 -1.1556
21962SOL     OW77944   9.175   4.184   0.250 -0.2208 -0.2211 -0.2170
21962SOL    HW177945   9.201   4.207   0.343  0.8566  0.1998 -0.6149
21962SOL    HW277946   9.210   4.253   0.187 -0.1608 -0.9776 -1.0302
21963SOL     OW77947   9.939   7.175   6.371 -0.1625  0.0186 -0.1837
21963SOL    HW177948   9.933   7.269   6.403  1.0828 -0.2309  0.8596
21963SOL    HW277949   9.867   7.120   6.414  2.4313 -0.6590  3.5876
21964SOL     OW77950   0.403   2.699   1.857 -0.1599 -0.0775  0.0520
21964SOL    HW177951   0.414   2.669   1.951  1.9471  2.1471  0.5581
21964SOL    HW277952   0.343   2.779   1.854  0.4202  0.3473 -0.3875
21965SOL     OW77953   2.857   8.494   9.831 -0.0044  0.1201  0.1999
21965SOL    HW177954   2.833   8.591   9.837  2.6598  0.7744  0.7459
21965SOL    HW277955   2.938   8.483   9.773 -1.6775 -2.0429 -1.8108
21966SOL     OW77956   8.507   4.683   0.459  0.1241 -0.2014 -0.0064
21966SOL    HW177957   8.495   4.606   0.396 -1.1608  1.6543 -2.0830
21966SOL    HW277958   8.569   4.750   0.419 -2.3044  1.9724 -0.2358
21967SOL     OW77959   9.649   4.259   0.931 -0.5999 -0.2937  0.3519
21967SOL    HW177960   9.633   4.339   0.989 -3.0415  0.0043 -0.6535
21967SOL    HW277961   9.566   4.202   0.929  1.1077 -2.8822  1.0679
21968SOL     OW77962   4.387   2.852   9.720  0.4698  0.6854  0.1490
21968SOL    HW177963   4.451   2.789   9.675  0.8897  1.4500 -0.3277
21968SOL    HW277964   4.355   2.811   9.805  1.8172  0.4091  0.5346
21969SOL     OW77965   4.315   7.027   2.565 -0.0174  0.1227  0.9011
21969SOL    HW177966   4.314   7.093   2.640 -1.4483  0.5328  0.5323
21969SOL    HW277967   4.337   6.936   2.601 -1.6059  0.1408  1.9755
21970SOL     OW77968   7.916   5.321   6.826 -0.3054 -0.3275  0.6193
21970SOL    HW177969   8.003   5.370   6.833 -1.4696  1.9783 -0.4084
21970SOL    HW277970   7.927   5.242   6.765  0.6035  1.0873 -1.1026
21971SOL     OW77971   6.157   1.901   1.244 -0.1909 -0.4362  0.1360
21971SOL    HW177972   6.148   1.803   1.223  0.1995 -0.3329 -0.5446
21971SOL    HW277973   6.216   1.912   1.324 -0.1405 -0.7596  0.1466
21972SOL     OW77974   7.131   7.824   7.246 -0.0290  0.2067  0.3050
21972SOL    HW177975   7.073   7.748   7.274  0.8699 -0.9437 -0.9007
21972SOL    HW277976   7.162   7.811   7.152  2.8021  0.3739  1.1618
21973SOL     OW77977   7.440   2.640   8.462  0.3764  0.3151 -0.1914
21973SOL    HW177978   7.510   2.593   8.408  1.1671  2.9905 -1.5946
21973SOL    HW277979   7.449   2.614   8.558  1.1596 -1.9013 -0.8471
21974SOL     OW77980   7.223   7.755   7.794 -0.5034 -0.1306  0.5297
21974SOL    HW177981   7.226   7.697   7.713  0.9368 -0.4305  0.7884
21974SOL    HW277982   7.298   7.731   7.856 -2.6305 -1.1565  2.8197
21975SOL     OW77983   5.353   8.799   9.095  0.8079 -0.6283 -0.7756
21975SOL    HW177984   5.296   8.724   9.064  0.3692 -0.6307  0.0259
21975SOL    HW277985   5.351   8.873   9.028 -2.2085  0.4341  0.4186
21976SOL     OW77986   1.495   3.341   1.182 -0.3166  0.5257  0.2272
21976SOL    HW177987   1.507   3.402   1.103 -0.1086 -1.6157 -1.4318
21976SOL    HW277988   1.449   3.257   1.153 -0.9127  0.0103  2.5461
21977SOL     OW77989   9.937   7.152   3.801  0.0476 -0.7780  0.0297
21977SOL    HW177990   9.990   7.213   3.742 -0.6603 -1.0556 -0.9072
21977SOL    HW277991   9.843   7.146   3.766 -0.2358 -1.3492  0.8932
21978SOL     OW77992   0.299   3.924   1.659  0.2600  0.0839 -0.0143
21978SOL    HW177993   0.293   3.928   1.759  0.1953 -0.7731  0.0145
21978SOL    HW277994   0.360   3.851   1.631 -0.2841 -0.1536 -0.6168
21979SOL     OW77995   7.827   8.125   9.549 -0.8348  0.4128 -0.0403
21979SOL    HW177996   7.783   8.038   9.571 -1.8964  1.2773  1.3400
21979SOL    HW277997   7.775   8.200   9.590  0.4535  1.6497 -0.6257
21980SOL     OW77998   6.158   6.836   6.331 -0.0281 -0.1131 -0.0540
21980SOL    HW177999   6.199   6.867   6.245  0.1148 -2.1414 -0.7694
21980SOL    HW278000   6.062   6.865   6.335  0.4033  1.3275 -0.1748
21981SOL     OW78001   2.834   1.535   6.754  0.4917 -0.2358 -0.0731
21981SOL    HW178002   2.930   1.543   6.730  0.1757 -0.9696 -1.6866
21981SOL    HW278003   2.814   1.441   6.782 -0.1952 -0.6717 -1.9244
21982SOL     OW78004   6.378   9.517   5.419  0.2044 -0.6238 -0.0924
21982SOL    HW178005   6.291   9.473   5.399  0.2120 -0.8991  0.4836
21982SOL    HW278006   6.453   9.452   5.403  0.3961  0.0182 -1.8731
21983SOL     OW78007   3.983   8.275   7.715  0.9433 -0.2341 -0.3310
21983SOL    HW178008   3.928   8.332   7.777  0.1297 -0.4241 -0.8735
21983SOL    HW278009   3.970   8.179   7.739 -1.6005 -0.4810 -2.5952
21984SOL     OW78010   9.314   4.711   0.265  0.2672  0.0776  0.4009
21984SOL    HW178011   9.293   4.730   0.169 -3.0738 -1.1575  0.7891
21984SOL    HW278012   9.297   4.793   0.320  1.1453  0.4842  0.0577
21985SOL     OW78013   1.885   0.511   9.689 -0.0201  0.3673  0.2350
21985SOL    HW178014   1.843   0.445   9.627 -0.8027  0.6568  0.4412
21985SOL    HW278015   1.815   0.575   9.721  1.1302  2.6073 -1.6119
21986SOL     OW78016   6.212   0.636   8.756  0.1376 -0.4910  0.4698
21986SOL    HW178017   6.128   0.669   8.713 -0.9739 -1.8368  1.5424
21986SOL    HW278018   6.291   0.676   8.710 -1.1050  2.0156  0.4313
21987SOL     OW78019   0.674   8.014   8.806 -0.1564 -0.2899 -0.5061
21987SOL    HW178020   0.630   8.061   8.730 -0.4302 -1.5752 -1.1672
21987SOL    HW278021   0.699   8.080   8.876 -0.0358  0.9066 -1.6453
21988SOL     OW78022   6.460   7.872   6.655 -0.0892  1.0910  0.4700
21988SOL    HW178023   6.480   7.909   6.564 -0.6241  1.1279  0.3690
21988SOL    HW278024   6.543   7.877   6.711  0.5230  0.1649 -0.3232
21989SOL     OW78025   4.902   1.254   9.817 -0.1822  0.0895  0.7174
21989SOL    HW178026   4.972   1.231   9.885 -1.2342  0.7547  2.0370
21989SOL    HW278027   4.835   1.316   9.858 -0.7110  0.6644 -0.9932
21990SOL     OW78028   6.460   3.847   9.466 -0.3623  0.3880 -0.1266
21990SOL    HW178029   6.377   3.794   9.484 -1.2067  1.8559  0.4134
21990SOL    HW278030   6.473   3.854   9.367 -2.2397  2.1555 -0.2808
21991SOL     OW78031   7.361   0.234   2.239 -0.3975  0.4140  0.6337
21991SOL    HW178032   7.294   0.180   2.290 -0.3092  1.0481  1.4454
21991SOL    HW278033   7.320   0.321   2.211 -0.0015  0.6887  0.8990
21992SOL     OW78034   1.043   4.525   2.837 -0.5857  0.0441  0.8911
21992SOL    HW178035   1.097   4.578   2.902 -0.9395 -0.7144  1.8206
21992SOL    HW278036   1.056   4.427   2.856  0.8944 -0.2635 -1.4619
21993SOL     OW78037   4.577   1.136   3.424  0.1653  0.3886  0.3573
21993SOL    HW178038   4.628   1.142   3.338 -1.3210 -0.6412 -0.6129
21993SOL    HW278039   4.518   1.216   3.434 -1.3980 -0.5993 -0.7323
21994SOL     OW78040   6.891   9.957   8.858 -0.0199 -0.6220  0.7156
21994SOL    HW178041   6.859  10.006   8.939 -1.2320  0.1293 -0.2022
21994SOL    HW278042   6.886   9.858   8.876  1.0561 -0.4501  2.0448
21995SOL     OW78043   7.979   3.515   0.017  0.0098 -0.3043 -0.1666
21995SOL    HW178044   8.015   3.424   0.038  2.2692  0.4897 -0.5043
21995SOL    HW278045   7.944   3.516  -0.076  1.4433 -0.4058 -0.7182
21996SOL     OW78046   8.272   6.214   5.833 -0.4496  0.2074  0.3834
21996SOL    HW178047   8.210   6.230   5.910  0.2469  1.1382  0.7626
21996SOL    HW278048   8.266   6.290   5.769  0.3170  0.3150  0.4338
21997SOL     OW78049   1.053   7.737   9.405  0.0539 -0.5043  0.2603
21997SOL    HW178050   0.954   7.733   9.400 -0.1997  2.8494  1.4685
21997SOL    HW278051   1.084   7.681   9.482 -0.8815 -1.4273 -0.0184
21998SOL     OW78052   1.735   0.227   6.530  0.8653  0.2402  0.1720
21998SOL    HW178053   1.665   0.172   6.484 -0.1832  0.0738  1.9255
21998SOL    HW278054   1.771   0.296   6.467  0.0165 -0.4875 -1.1142
21999SOL     OW78055   9.661   0.357   8.738  0.8903 -0.5161 -0.2153
21999SOL    HW178056   9.712   0.338   8.822  1.0293 -3.3027 -0.8756
21999SOL    HW278057   9.719   0.409   8.674  1.4196  0.0086  0.6831
22000SOL     OW78058   4.815   6.003   8.046  0.0995 -0.2663  0.4680
22000SOL    HW178059   4.779   6.045   7.963 -0.5044 -0.5890  0.5591
22000SOL    HW278060   4.823   5.904   8.033 -1.0018 -0.4593  1.1339
22001SOL     OW78061   0.122   1.440   6.752 -0.3217  0.1825 -0.3073
22001SOL    HW178062   0.161   1.531   6.758 -1.4180  1.0096 -4.2717
22001SOL    HW278063   0.176   1.384   6.688 -1.2016 -1.0655  0.0070
22002SOL     OW78064   6.653   3.556   4.804  0.5005  0.2155 -0.1533
22002SOL    HW178065   6.669   3.582   4.899  1.3746  1.3216 -0.5957
22002SOL    HW278066   6.741   3.551   4.756  0.0168  0.1807 -1.0408
22003SOL     OW78067   6.574   5.371   6.435  1.1646  0.3628  0.2665
22003SOL    HW178068   6.529   5.447   6.388  0.5760  1.1516  2.0888
22003SOL    HW278069   6.581   5.293   6.372  0.1838  1.3134 -1.0562
22004SOL     OW78070   7.849   1.822   0.262  0.4171 -0.8935 -0.0545
22004SOL    HW178071   7.796   1.738   0.248 -0.8763  0.2863 -2.4506
22004SOL    HW278072   7.816   1.869   0.344  0.1363 -1.9449  0.4507
22005SOL     OW78073   6.655   2.153   2.066  0.2950  0.2473  0.1390
22005SOL    HW178074   6.719   2.142   1.989 -0.5403 -1.1822 -0.3726
22005SOL    HW278075   6.677   2.085   2.137  0.8440  1.3360  1.0231
22006SOL     OW78076   7.155   1.315   5.679 -0.2241 -0.0414  0.3200
22006SOL    HW178077   7.080   1.303   5.614 -1.7136  1.4791  1.7139
22006SOL    HW278078   7.242   1.305   5.631 -1.2947 -0.4810 -1.5912
22007SOL     OW78079   4.846   2.921   0.586 -0.7169  0.2731 -0.3229
22007SOL    HW178080   4.795   3.006   0.575  1.3268  1.8039  1.4858
22007SOL    HW278081   4.913   2.912   0.513 -0.2922  0.7201  0.0033
22008SOL     OW78082   3.555   1.488   7.983 -0.0171 -0.0463  0.7970
22008SOL    HW178083   3.634   1.549   7.990 -0.6008  0.7862  0.1663
22008SOL    HW278084   3.566   1.412   8.048  1.2925  0.0663  0.7266
22009SOL     OW78085   0.335   3.646   4.167 -0.2563  0.4273  0.0659
22009SOL    HW178086   0.256   3.653   4.228 -1.1882 -0.1747 -1.0387
22009SOL    HW278087   0.414   3.693   4.207 -0.5497 -0.8887  2.2039
22010SOL     OW78088   0.827   4.786   3.593 -0.3137 -0.2160 -0.5017
22010SOL    HW178089   0.843   4.884   3.585  1.3275 -0.5270 -1.3386
22010SOL    HW278090   0.733   4.765   3.565 -0.4966  1.0426 -0.8573
22011SOL     OW78091   8.572   1.100   2.153  0.0979  0.2192 -0.0372
22011SOL    HW178092   8.546   1.111   2.057  2.1366  0.0278 -0.6413
22011SOL    HW278093   8.600   1.189   2.190  1.8994 -0.1492 -0.4411
22012SOL     OW78094   1.319   3.398   6.716  0.0751  0.1533  0.0210
22012SOL    HW178095   1.401   3.442   6.753 -0.7196  0.2477  1.6965
22012SOL    HW278096   1.305   3.429   6.622  1.7294  0.4488 -0.1480
22013SOL     OW78097   7.775   3.777   8.519  0.1107  0.2423 -0.6207
22013SOL    HW178098   7.688   3.797   8.564 -0.0523  3.1034 -2.0471
22013SOL    HW278099   7.759   3.717   8.440 -0.1165 -1.7072  0.8870
22014SOL     OW78100   1.718   2.164   8.034 -0.0878 -0.1327  0.1680
22014SOL    HW178101   1.646   2.208   7.980  0.2324  1.7231  1.1801
22014SOL    HW278102   1.737   2.073   7.998 -0.4701  0.7319 -2.3298
22015SOL     OW78103   0.356   3.990   7.293 -0.0327 -0.2936  0.4283
22015SOL    HW178104   0.309   4.060   7.346 -0.1930  0.3542 -0.5561
22015SOL    HW278105   0.292   3.918   7.268 -0.1972 -0.0623  0.1921
22016SOL     OW78106   7.721   2.835   0.054  0.0685  0.2661  0.1850
22016SOL    HW178107   7.700   2.761  -0.009  1.5005 -0.6286  0.7477
22016SOL    HW278108   7.636   2.883   0.079 -0.7290 -0.5793 -0.9131
22017SOL     OW78109   5.842   1.756   2.329 -0.1306  0.0940  0.2319
22017SOL    HW178110   5.757   1.773   2.280  0.5995  0.8921 -0.7885
22017SOL    HW278111   5.858   1.830   2.395 -0.7264 -0.5818  1.1502
22018SOL     OW78112   5.392   1.827   1.808  0.2982  0.1422  0.4557
22018SOL    HW178113   5.333   1.777   1.746  1.4929 -0.2050 -0.4263
22018SOL    HW278114   5.465   1.873   1.756  0.7257  0.6671  1.4930
22019SOL     OW78115   9.811   3.001   8.414  0.2492 -0.5595 -0.2575
22019SOL    HW178116   9.822   2.905   8.440 -2.2640 -0.5424  1.0196
22019SOL    HW278117   9.863   3.058   8.478  1.7403 -1.0493 -1.0140
22020SOL     OW78118   0.138   2.165   9.544  0.2636  0.2886 -0.0253
22020SOL    HW178119   0.072   2.212   9.602 -1.4781 -3.2411  0.9817
22020SOL    HW278120   0.223   2.152   9.595  0.0257  0.4632  0.4181
22021SOL     OW78121   8.577   6.587   5.929  0.5509  0.6600  0.2961
22021SOL    HW178122   8.653   6.534   5.967 -1.0425 -1.5009  0.5732
22021SOL    HW278123   8.493   6.566   5.978 -1.2376 -0.9358 -3.2296
22022SOL     OW78124   6.406   0.153   9.970  0.2631  0.7600  0.4705
22022SOL    HW178125   6.331   0.147   9.904  0.9917  0.3349 -0.3328
22022SOL    HW278126   6.378   0.212  10.046 -1.2328 -0.1971  0.6793
22023SOL     OW78127   6.555   2.282   4.348  0.1633  0.3574 -0.0331
22023SOL    HW178128   6.558   2.356   4.415 -1.4859 -0.6341  1.1826
22023SOL    HW278129   6.460   2.265   4.321  0.8033  0.7907 -2.7074
22024SOL     OW78130   7.787   4.396   3.051  0.1164  0.5230 -0.6764
22024SOL    HW178131   7.807   4.305   3.013 -0.8975  0.3175 -0.7296
22024SOL    HW278132   7.689   4.414   3.044  0.3381  1.6965 -0.8120
22025SOL     OW78133   5.874   9.532   7.096 -0.4049  0.0309  0.1440
22025SOL    HW178134   5.895   9.625   7.066 -1.1773 -0.2539 -1.3335
22025SOL    HW278135   5.776   9.525   7.116 -0.3947 -0.5410  0.0004
22026SOL     OW78136   1.777   1.213   0.475  0.5440 -0.3236 -0.1511
22026SOL    HW178137   1.726   1.127   0.473  3.0151 -1.9236  2.0624
22026SOL    HW278138   1.736   1.274   0.542 -1.2918  0.3371 -1.8139
22027SOL     OW78139   4.538   6.600   9.901 -0.0898  0.3754  0.3137
22027SOL    HW178140   4.480   6.649   9.967 -0.0218  0.8414  0.0276
22027SOL    HW278141   4.590   6.530   9.949  0.1032  0.8438  0.7945
22028SOL     OW78142   8.094   8.990   4.592  0.1736 -0.4533  0.0031
22028SOL    HW178143   8.152   9.059   4.636 -1.3032 -0.1797  1.5592
22028SOL    HW278144   8.000   9.001   4.623 -0.5593 -1.4699 -1.8197
22029SOL     OW78145   5.519   0.697   8.972 -0.3142  0.3042  0.1492
22029SOL    HW178146   5.512   0.664   8.878  0.3794  0.9321 -0.1237
22029SOL    HW278147   5.452   0.649   9.029  0.6223 -1.5174 -0.2584
22030SOL     OW78148   8.196   3.563   3.880  0.3500 -0.5235  0.1167
22030SOL    HW178149   8.281   3.547   3.930  1.6049  0.2515 -1.6716
22030SOL    HW278150   8.209   3.641   3.818 -2.0234  0.3012  0.6013
22031SOL     OW78151   0.765   9.929   1.675  0.0983  0.2159 -0.4171
22031SOL    HW178152   0.700  10.004   1.659 -0.5559 -0.1610  0.4242
22031SOL    HW278153   0.722   9.842   1.652  0.4996  0.0064 -0.3786
22032SOL     OW78154   0.321   0.001   1.034 -0.3735  0.2167 -1.0830
22032SOL    HW178155   0.306   0.024   0.938 -0.2055  4.0086 -0.2467
22032SOL    HW278156   0.383  -0.078   1.040  0.6211  0.7411 -4.0503
22033SOL     OW78157   4.815   6.996   4.511  0.0837 -0.0371  0.0016
22033SOL    HW178158   4.789   7.020   4.604 -1.1990  1.1102 -0.6293
22033SOL    HW278159   4.907   7.029   4.492  0.0560  0.3978  0.6136
22034SOL     OW78160   8.629   5.552   4.920  0.1448 -0.1351 -0.1035
22034SOL    HW178161   8.531   5.567   4.909  0.1498 -0.0008  0.0393
22034SOL    HW278162   8.653   5.556   5.017  0.5113  1.1997 -0.2361
22035SOL     OW78163   9.742   4.837   3.790 -0.4483  0.1654  0.1804
22035SOL    HW178164   9.757   4.846   3.889  2.2564  0.9509 -0.2711
22035SOL    HW278165   9.700   4.922   3.756 -1.9324 -0.3272  0.7134
22036SOL     OW78166   4.318   0.551   3.698  0.8136 -0.1109 -0.1178
22036SOL    HW178167   4.306   0.650   3.694  0.6859 -0.1490 -0.8261
22036SOL    HW278168   4.228   0.507   3.708  0.9114 -0.1377  0.7003
22037SOL     OW78169   1.769   8.747   0.795  0.1939  0.2313  0.7264
22037SOL    HW178170   1.834   8.732   0.870 -0.5767 -2.3547  0.9321
22037SOL    HW278171   1.676   8.744   0.831 -0.2392 -2.4803 -0.5097
22038SOL     OW78172   2.285   9.739   0.116 -0.0769  0.3373  0.2886
22038SOL    HW178173   2.320   9.823   0.075 -0.5253  0.4018  0.0297
22038SOL    HW278174   2.337   9.717   0.198 -0.7211  1.5115  1.0225
22039SOL     OW78175   6.863   8.344   8.007 -0.4905 -0.0655 -0.7569
22039SOL    HW178176   6.899   8.252   8.020  0.3232  0.1621 -1.3824
22039SOL    HW278177   6.887   8.401   8.085  0.8220  0.1807 -1.3308
22040SOL     OW78178   8.055   2.381   1.105 -0.1480  0.0607  0.4122
22040SOL    HW178179   8.108   2.360   1.187 -1.8159  1.0689  1.7905
22040SOL    HW278180   8.000   2.301   1.079  1.4941 -0.7665 -0.6421
22041SOL     OW78181   3.574   4.328   2.913 -0.8109 -0.0541 -0.4141
22041SOL    HW178182   3.477   4.327   2.938 -0.6571 -1.8761  0.1785
22041SOL    HW278183   3.619   4.248   2.951  0.7995  0.4308 -1.2493
22042SOL     OW78184   4.088   8.813   6.332  0.1239 -0.2832  0.4459
22042SOL    HW178185   4.102   8.856   6.243  1.0428  0.5343  0.9655
22042SOL    HW278186   4.049   8.881   6.395 -0.6217 -0.8871  0.6376
22043SOL     OW78187   0.401   2.623   0.825 -0.2133  0.1819  0.1214
22043SOL    HW178188   0.465   2.583   0.891  2.1730  0.6964 -1.8030
22043SOL    HW278189   0.361   2.550   0.769  0.5328  0.0636 -0.2611
22044SOL     OW78190   8.630   9.528   8.907  0.3203  0.5123  0.2756
22044SOL    HW178191   8.552   9.580   8.871  1.3090  1.3210 -0.7172
22044SOL    HW278192   8.597   9.440   8.943 -1.0343  0.7889 -0.2540
22045SOL     OW78193   9.390   0.033   7.715  0.3135 -0.4462  0.2333
22045SOL    HW178194   9.487   0.047   7.700  0.2994 -0.5813  0.0098
22045SOL    HW278195   9.354  -0.027   7.643  0.0411 -0.2972  0.2442
22046SOL     OW78196   8.330   9.415   8.714  0.0961 -0.2272  0.2661
22046SOL    HW178197   8.398   9.469   8.663 -1.2910  0.8567 -0.4712
22046SOL    HW278198   8.327   9.322   8.677 -1.4054  0.7453 -2.1933
22047SOL     OW78199   0.806   3.659   0.067 -0.2685 -0.3583 -0.5393
22047SOL    HW178200   0.818   3.730  -0.002 -0.7411 -2.0129 -2.3733
22047SOL    HW278201   0.710   3.632   0.070 -0.4146  0.3147  1.4189
22048SOL     OW78202   3.879   1.638   0.355 -0.4067 -0.2959  0.1173
22048SOL    HW178203   3.905   1.556   0.305  0.6725 -0.3364  0.7300
22048SOL    HW278204   3.785   1.664   0.331 -1.5083 -2.8860  1.4857
22049SOL     OW78205   1.603   3.013   2.408 -0.1499 -0.1169 -0.7489
22049SOL    HW178206   1.531   3.058   2.355 -0.8023 -1.4872 -1.0569
22049SOL    HW278207   1.562   2.942   2.466  0.3436  2.3500  2.7587
22050SOL     OW78208   7.812   1.890   1.937  0.3451  0.4149  0.5319
22050SOL    HW178209   7.851   1.840   1.859 -0.4355  1.4103 -0.5179
22050SOL    HW278210   7.713   1.899   1.924  0.4868  2.2974  0.6661
22051SOL     OW78211   8.942   1.130   0.766  0.2049 -0.1238  0.4063
22051SOL    HW178212   8.921   1.220   0.729  0.3801  1.0064  2.9514
22051SOL    HW278213   9.034   1.102   0.738  0.9926  1.4552  1.3769
22052SOL     OW78214   8.883   1.023   4.767 -0.7788  0.1102  0.0896
22052SOL    HW178215   8.947   1.087   4.724 -0.0652 -1.0028 -0.5379
22052SOL    HW278216   8.827   1.072   4.834  0.9735  1.0516  0.9066
22053SOL     OW78217   2.558   2.877   8.385 -0.2703 -0.0059  0.0633
22053SOL    HW178218   2.570   2.852   8.289  0.3900  0.5390  0.0002
22053SOL    HW278219   2.516   2.801   8.435 -0.6275 -0.2813 -0.6592
22054SOL     OW78220   6.997   5.266   2.523  0.0395  0.2062  0.0962
22054SOL    HW178221   7.016   5.320   2.441 -0.0852  1.2101  0.7155
22054SOL    HW278222   7.082   5.256   2.576  0.3561 -1.3492 -0.6766
22055SOL     OW78223   9.424   8.679   7.088 -0.3121  0.0014 -0.4631
22055SOL    HW178224   9.473   8.706   7.170  0.1177  0.5590 -0.9015
22055SOL    HW278225   9.330   8.715   7.092  0.1226  1.1967 -0.8454
22056SOL     OW78226   4.394   3.552   9.393 -0.0020  0.1405 -0.0896
22056SOL    HW178227   4.379   3.457   9.419  0.3874 -0.2155 -1.1654
22056SOL    HW278228   4.361   3.612   9.467 -1.0797 -0.7857  0.1930
22057SOL     OW78229   4.914   6.875   4.841  0.1750 -0.4926 -0.5450
22057SOL    HW178230   4.841   6.896   4.906 -0.7121  0.1351 -1.7309
22057SOL    HW278231   4.969   6.799   4.877 -0.1149  0.0282  1.0653
22058SOL     OW78232   5.457   2.180   9.187 -1.1312 -0.3526 -0.0470
22058SOL    HW178233   5.445   2.084   9.164 -0.5403 -0.1270 -1.3420
22058SOL    HW278234   5.368   2.223   9.199 -1.3995 -1.0159  0.3863
22059SOL     OW78235   8.515   1.510   6.221 -0.0075  0.0109  0.3446
22059SOL    HW178236   8.424   1.495   6.183  0.8215 -0.4867 -1.4991
22059SOL    HW278237   8.522   1.604   6.254 -1.1973  0.0365  0.5492
22060SOL     OW78238   6.094   5.702   3.010  0.1957  0.1611  0.3702
22060SOL    HW178239   6.147   5.673   3.089  1.8013  0.4365 -0.5865
22060SOL    HW278240   6.025   5.632   2.989 -0.3879  0.1933  2.1235
22061SOL     OW78241   6.777   5.708   6.674 -0.6485  0.1959  0.0898
22061SOL    HW178242   6.867   5.739   6.644 -0.6152  0.2840  0.2858
22061SOL    HW278243   6.787   5.626   6.731 -0.6628  0.4512  0.4608
22062SOL     OW78244   0.013   0.664   2.334 -0.0488  0.0590 -0.0555
22062SOL    HW178245  -0.025   0.664   2.427  0.0416  0.1040 -0.0177
22062SOL    HW278246  -0.046   0.611   2.274 -0.3134  0.3554 -0.0580
22063SOL     OW78247   6.477   2.024   8.473  0.4909  0.1053 -0.5075
22063SOL    HW178248   6.418   2.002   8.396  0.3377  3.4326 -1.4403
22063SOL    HW278249   6.439   1.985   8.557 -0.4117 -1.8452 -1.7813
22064SOL     OW78250   3.036   9.688   8.459  0.2129  0.2028 -0.5376
22064SOL    HW178251   3.101   9.760   8.483 -1.4279  1.7775 -0.7721
22064SOL    HW278252   2.975   9.721   8.388  0.8695 -2.2007 -2.2772
22065SOL     OW78253   6.051   8.797   5.915 -0.0426  0.3447  0.1579
22065SOL    HW178254   6.084   8.891   5.922 -0.8817  0.6870 -0.4013
22065SOL    HW278255   6.035   8.774   5.819  0.7003 -0.5694  0.2359
22066SOL     OW78256   9.396   9.707   9.772 -0.3527 -0.0472  0.0030
22066SOL    HW178257   9.329   9.781   9.778 -1.3084 -1.0908  3.3199
22066SOL    HW278258   9.367   9.640   9.704 -2.3771 -0.1657  0.9602
22067SOL     OW78259   5.128   4.331   6.679  0.3155 -0.2162  0.5592
22067SOL    HW178260   5.062   4.347   6.753 -0.8342  1.1422 -0.7133
22067SOL    HW278261   5.218   4.362   6.708 -0.1224  0.2924  1.4019
22068SOL     OW78262   8.260   3.613   3.438 -0.2092 -0.2458  0.1012
22068SOL    HW178263   8.278   3.638   3.534  0.2189 -1.2895  0.3026
22068SOL    HW278264   8.162   3.603   3.424 -0.3135  0.5007  0.2810
22069SOL     OW78265   1.183   8.547   7.671 -0.1729  0.1839  0.0980
22069SOL    HW178266   1.257   8.580   7.730  1.9916 -1.3516 -1.7044
22069SOL    HW278267   1.190   8.447   7.661 -0.4520  0.4326 -2.8327
22070SOL     OW78268   7.180   8.501   3.497  0.0932  0.1630 -0.0641
22070SOL    HW178269   7.279   8.501   3.480 -0.2420  0.7545 -2.1194
22070SOL    HW278270   7.136   8.436   3.437 -1.0188  1.5126 -0.7463
22071SOL     OW78271   1.019   5.504   2.362  0.3377 -0.2604  0.2511
22071SOL    HW178272   1.078   5.567   2.310  0.4019  1.0473  1.8543
22071SOL    HW278273   0.986   5.551   2.444 -0.7789 -1.8800  0.7364
22072SOL     OW78274   9.097   4.301   9.751  0.2472 -0.6265  0.1048
22072SOL    HW178275   9.080   4.310   9.653  1.2317 -2.6425 -0.2931
22072SOL    HW278276   9.159   4.374   9.781  0.2350 -0.2120 -0.8611
22073SOL     OW78277   7.282   6.910   7.116 -0.4989  0.8972 -0.5104
22073SOL    HW178278   7.353   6.877   7.054 -0.7416 -3.2302  1.2430
22073SOL    HW278279   7.192   6.898   7.073 -0.6097 -1.2038  0.2433
22074SOL     OW78280   6.975   2.387   6.840  0.6835 -0.3673 -0.6130
22074SOL    HW178281   6.877   2.397   6.855  0.7789  1.0684 -0.8831
22074SOL    HW278282   6.991   2.348   6.750  0.3759  0.4231 -1.0183
22075SOL     OW78283   7.221   8.211   5.659  0.7099  0.0831  0.1964
22075SOL    HW178284   7.280   8.265   5.599  0.8963 -1.3455 -0.9053
22075SOL    HW278285   7.224   8.115   5.633 -2.6546  0.0543 -0.3291
22076SOL     OW78286   6.423   0.799   1.307  0.3229 -0.7013  0.1784
22076SOL    HW178287   6.368   0.727   1.350  0.4644 -0.3184  1.0022
22076SOL    HW278288   6.363   0.869   1.269  0.2357 -0.3227  1.0073
22077SOL     OW78289   2.718   7.096   4.880 -0.1720  0.8541 -0.1238
22077SOL    HW178290   2.790   7.073   4.815 -0.9344  0.0170 -0.6920
22077SOL    HW278291   2.711   7.023   4.948 -3.2566 -1.2347 -2.4968
22078SOL     OW78292   6.022   1.122   1.607  0.2549 -0.2570 -0.4349
22078SOL    HW178293   5.999   1.172   1.690 -1.2560  0.6232 -1.3476
22078SOL    HW278294   5.955   1.049   1.593  1.9540 -2.0012  0.4334
22079SOL     OW78295   0.046   0.722   5.107  0.0536  0.3116 -0.0209
22079SOL    HW178296   0.006   0.642   5.064 -1.6743  0.5842  1.0398
22079SOL    HW278297   0.126   0.752   5.054 -0.5952 -0.7815 -1.6538
22080SOL     OW78298   6.802   0.559   7.916 -0.0297 -0.4014  0.6168
22080SOL    HW178299   6.794   0.496   7.839  0.2434  1.3077 -0.8477
22080SOL    HW278300   6.797   0.508   8.002  0.4471 -2.4337 -0.5316
22081SOL     OW78301   8.963   3.690   5.080  0.0995 -0.5284 -0.4404
22081SOL    HW178302   8.892   3.642   5.028 -0.1430 -2.2463  1.4360
22081SOL    HW278303   9.053   3.668   5.043 -0.1622 -0.4841 -1.1101
22082SOL     OW78304   8.090   1.009   3.915  0.2078 -0.0992  0.3811
22082SOL    HW178305   8.144   0.990   3.997  1.1679  0.1490 -0.1818
22082SOL    HW278306   8.151   1.019   3.837 -0.7315 -0.7467 -0.4431
22083SOL     OW78307   5.810   4.913   2.072 -0.0264 -0.2237  0.1020
22083SOL    HW178308   5.727   4.917   2.017  0.0700 -0.1966 -0.0394
22083SOL    HW278309   5.843   4.819   2.076  1.4465  0.1852 -2.0696
22084SOL     OW78310   7.407   8.886   6.846  0.0454  0.1942  0.1238
22084SOL    HW178311   7.357   8.954   6.900  1.7792  2.1273 -0.6611
22084SOL    HW278312   7.488   8.856   6.897 -0.3193 -0.7678  0.1544
22085SOL     OW78313   4.649   4.116   1.795 -0.5811  0.2874  0.0502
22085SOL    HW178314   4.620   4.030   1.752  0.9266 -0.1381 -0.1527
22085SOL    HW278315   4.742   4.106   1.828 -0.4325  1.8350  0.1202
22086SOL     OW78316   7.431   0.862   9.940  0.1381 -0.1496 -0.1119
22086SOL    HW178317   7.394   0.832   9.852  0.6760  0.7349 -0.6477
22086SOL    HW278318   7.492   0.940   9.926 -1.1125  1.0939  1.2420
22087SOL     OW78319   6.410   6.279   8.117  0.2182 -0.0284 -0.6413
22087SOL    HW178320   6.416   6.269   8.217 -0.3735 -1.9107 -0.7782
22087SOL    HW278321   6.372   6.369   8.095 -0.8165 -0.0798  0.8643
22088SOL     OW78322   8.915   2.527   8.831  0.0736 -1.2710 -0.4895
22088SOL    HW178323   8.843   2.546   8.764  0.2324  1.2453 -0.0151
22088SOL    HW278324   8.999   2.575   8.805  0.6368 -1.6407  0.6152
22089SOL     OW78325   3.484   8.205   0.113 -0.0627  0.1270  0.9425
22089SOL    HW178326   3.549   8.186   0.186  0.2208 -1.2932  0.3365
22089SOL    HW278327   3.406   8.143   0.121 -0.7110  0.9235  0.8769
22090SOL     OW78328   4.261   0.404   6.183  0.6017  0.0964 -0.6733
22090SOL    HW178329   4.236   0.312   6.214  0.7851  0.7271  1.4493
22090SOL    HW278330   4.202   0.430   6.107 -1.0464 -0.8792  0.2300
22091SOL     OW78331   7.072   4.672   0.437  0.6242 -0.3078  0.1010
22091SOL    HW178332   7.104   4.751   0.383 -0.7011  0.0414 -0.1907
22091SOL    HW278333   7.064   4.593   0.377 -2.7425  0.5630 -0.7018
22092SOL     OW78334   1.114   1.870   0.651 -0.0975 -0.4549  0.5046
22092SOL    HW178335   1.082   1.947   0.707 -1.2967 -0.3050 -0.3677
22092SOL    HW278336   1.197   1.896   0.602 -0.3570  0.2082  0.4066
22093SOL     OW78337   6.311   9.707   8.285  0.0295  0.6676  0.5856
22093SOL    HW178338   6.303   9.698   8.186 -1.6252 -0.1816  0.7949
22093SOL    HW278339   6.236   9.660   8.330 -0.2562  2.5744  2.1997
22094SOL     OW78340   7.236   9.684   0.881 -0.0100  0.0226 -0.3940
22094SOL    HW178341   7.254   9.772   0.837 -0.4773 -0.6763 -2.0552
22094SOL    HW278342   7.137   9.671   0.891  0.0676 -0.1700  0.1574
22095SOL     OW78343   7.429   7.675   4.192  0.2059 -0.2109 -0.8109
22095SOL    HW178344   7.353   7.674   4.127  1.4007 -0.4233 -2.2375
22095SOL    HW278345   7.507   7.723   4.151  0.0584  2.1822  1.5502
22096SOL     OW78346   1.445   9.621   9.332  0.0854  0.0776  0.2409
22096SOL    HW178347   1.391   9.668   9.401  0.8637 -1.0449  1.6522
22096SOL    HW278348   1.485   9.538   9.372  1.9620  0.3238 -1.0625
22097SOL     OW78349   7.500   7.211   3.009 -0.3959 -0.5104 -0.0792
22097SOL    HW178350   7.534   7.125   3.048 -0.5046 -0.5404 -0.0518
22097SOL    HW278351   7.554   7.233   2.927 -0.8680 -1.0023 -0.5190
22098SOL     OW78352   7.680   1.482   5.682 -0.3578 -0.0622  0.0290
22098SOL    HW178353   7.695   1.386   5.661 -0.0107  0.3691 -1.7738
22098SOL    HW278354   7.617   1.490   5.759  0.4299 -1.7394  0.8700
22099SOL     OW78355   6.852   5.674   9.195  0.6291 -0.4529 -0.0944
22099SOL    HW178356   6.929   5.738   9.204 -0.7884  1.2019  0.5087
22099SOL    HW278357   6.881   5.594   9.142  2.6388  0.3481 -0.2442
22100SOL     OW78358   9.619   4.817   2.677 -0.2548  0.2825  0.1930
22100SOL    HW178359   9.656   4.773   2.596 -0.0305 -1.9929  1.4896
22100SOL    HW278360   9.603   4.914   2.658  1.7075  0.2358 -1.9114
22101SOL     OW78361   1.343   6.317   4.166  0.0759  0.1791  0.8748
22101SOL    HW178362   1.418   6.343   4.104  0.1910 -0.3749  0.7808
22101SOL    HW278363   1.256   6.340   4.123  0.1111 -1.1853  0.0257
22102SOL     OW78364   0.710   1.962   9.134  0.4299  0.2834 -0.7326
22102SOL    HW178365   0.793   1.928   9.089 -0.7883 -3.2541 -0.5029
22102SOL    HW278366   0.717   1.948   9.233 -0.5825 -0.4959 -0.7517
22103SOL     OW78367   8.489   5.887   6.945 -0.8920  0.4059 -0.2003
22103SOL    HW178368   8.568   5.846   6.991 -0.9645  1.3859  0.7944
22103SOL    HW278369   8.408   5.831   6.962 -0.3695 -0.7593 -1.4558
22104SOL     OW78370   8.998   4.317   1.290 -0.1564 -0.2485 -0.2743
22104SOL    HW178371   8.944   4.241   1.327  0.3794 -0.0103  1.0256
22104SOL    HW278372   9.072   4.340   1.354  1.0216 -0.0628 -1.6589
22105SOL     OW78373   7.606   2.445   9.064  0.7626 -0.1960 -0.0376
22105SOL    HW178374   7.628   2.404   8.975  1.3608 -0.3371  0.1712
22105SOL    HW278375   7.530   2.396   9.105  0.6615 -0.3048 -0.3485
22106SOL     OW78376   0.191   0.055   5.597  0.1620  0.2562 -0.7388
22106SOL    HW178377   0.253   0.038   5.520 -0.2061 -0.7476 -0.8119
22106SOL    HW278378   0.241   0.047   5.683 -0.3177 -2.6988 -0.6947
22107SOL     OW78379   9.663   5.724   1.579  0.1541 -0.4808  0.1273
22107SOL    HW178380   9.626   5.785   1.509  1.4113 -0.1481 -0.2562
22107SOL    HW278381   9.748   5.684   1.547  0.4679 -0.7357  1.2595
22108SOL     OW78382   6.440   0.905   4.160 -0.6074 -0.6313  0.4622
22108SOL    HW178383   6.394   0.928   4.075  1.9798  2.8737 -0.0816
22108SOL    HW278384   6.376   0.914   4.236 -2.3793 -1.7613 -0.8525
22109SOL     OW78385   3.545   5.275   9.884 -0.3384 -0.0972 -0.1292
22109SOL    HW178386   3.474   5.205   9.890  0.1748 -0.5081  1.7263
22109SOL    HW278387   3.554   5.306   9.790 -2.2711 -0.7587 -0.5537
22110SOL     OW78388   7.501   2.178   8.398  0.4330 -0.1141 -0.4196
22110SOL    HW178389   7.554   2.257   8.366  0.1729 -0.2005 -1.0695
22110SOL    HW278390   7.404   2.195   8.381  0.4857 -1.1272 -1.7499
22111SOL     OW78391   4.902   1.332   2.434 -0.1023  0.1837 -0.2987
22111SOL    HW178392   4.946   1.313   2.522  1.1331 -0.8068 -1.0995
22111SOL    HW278393   4.807   1.302   2.436 -0.2907  0.8643  0.9426
22112SOL     OW78394   8.785   4.306   3.076 -0.3355  0.7266  0.5860
22112SOL    HW178395   8.828   4.225   3.036 -1.4093  0.7454 -0.6300
22112SOL    HW278396   8.847   4.384   3.069 -0.2048  0.5405 -0.3131
22113SOL     OW78397   9.782   0.171   9.617  0.0098 -0.1956  0.2477
22113SOL    HW178398   9.734   0.107   9.557 -0.6954  0.3229  0.2503
22113SOL    HW278399   9.825   0.120   9.692 -0.0274 -0.7273 -0.0896
22114SOL     OW78400   8.467   5.014   3.746 -0.6555  0.1290  0.0198
22114SOL    HW178401   8.561   4.982   3.732 -0.8277 -0.2551 -0.2730
22114SOL    HW278402   8.447   5.015   3.844 -0.6937 -0.8085  0.0251
22115SOL     OW78403   6.159   3.886   2.039 -0.2778  0.3069  0.0189
22115SOL    HW178404   6.066   3.853   2.061 -0.7307  1.6969  0.2163
22115SOL    HW278405   6.159   3.926   1.948  0.1860  0.1212 -0.0627
22116SOL     OW78406   2.816   2.315   2.679 -0.2691  0.1654  0.1252
22116SOL    HW178407   2.907   2.277   2.699 -0.3977  0.2645  0.9114
22116SOL    HW278408   2.751   2.284   2.748 -0.9675 -0.3758 -0.7645
22117SOL     OW78409   0.762   2.579   3.098  0.0269 -0.1557  0.2324
22117SOL    HW178410   0.676   2.529   3.111  0.2467 -0.5274  0.2704
22117SOL    HW278411   0.804   2.596   3.187 -0.0151  0.0448  0.2151
22118SOL     OW78412   0.865   2.293   4.207  0.3007  0.1031  0.1810
22118SOL    HW178413   0.930   2.353   4.253  1.0949 -2.6529  2.7704
22118SOL    HW278414   0.821   2.233   4.274  1.1445 -3.7119 -2.5234
22119SOL     OW78415   7.378   6.426   1.923 -0.2392 -0.1208 -0.3118
22119SOL    HW178416   7.460   6.419   1.980  0.6750 -0.2183 -1.6084
22119SOL    HW278417   7.296   6.421   1.980  0.6685  1.3328  1.1486
22120SOL     OW78418   1.483   1.196   0.103 -0.5287  0.2438 -0.5102
22120SOL    HW178419   1.452   1.242   0.019 -0.9074 -0.2580 -0.6475
22120SOL    HW278420   1.419   1.217   0.177  0.7949  2.1907  0.1284
22121SOL     OW78421   6.578   1.430   4.951  0.3213 -0.5188  0.4321
22121SOL    HW178422   6.639   1.353   4.966  0.7627  0.1305  2.0972
22121SOL    HW278423   6.611   1.510   5.001  0.5140  1.1070 -2.1565
22122SOL     OW78424   0.159   1.743   9.679 -0.8961 -0.3690  0.0898
22122SOL    HW178425   0.123   1.667   9.733 -2.2620  0.0569 -0.2071
22122SOL    HW278426   0.099   1.822   9.690 -1.2705 -0.3230 -2.1851
22123SOL     OW78427   7.261   2.676   0.123 -0.2087 -0.8064 -0.0611
22123SOL    HW178428   7.225   2.684   0.216  1.3679 -0.7051  0.5587
22123SOL    HW278429   7.239   2.760   0.072 -0.6741 -0.6655  0.3644
22124SOL     OW78430   7.543   4.484   0.528 -0.0789  0.5974 -0.0925
22124SOL    HW178431   7.452   4.507   0.563 -1.1493 -1.8128 -1.1838
22124SOL    HW278432   7.608   4.555   0.556 -1.7769  1.0795  2.8658
22125SOL     OW78433   1.630   0.442   1.163 -0.5845  0.2779 -0.0228
22125SOL    HW178434   1.627   0.363   1.102 -0.4135  0.4656 -0.2730
22125SOL    HW278435   1.722   0.450   1.201 -0.4330  0.7328 -0.4889
22126SOL     OW78436   5.161   9.213   1.713 -0.2247  0.3379 -0.1560
22126SOL    HW178437   5.076   9.177   1.753  0.6944 -0.0948  1.4668
22126SOL    HW278438   5.225   9.236   1.786  0.5863  1.8850 -1.3231
22127SOL     OW78439   6.664   9.299   3.510 -0.5048  0.0908 -0.1666
22127SOL    HW178440   6.580   9.343   3.478 -1.1917 -1.5733 -0.7148
22127SOL    HW278441   6.676   9.212   3.463  0.0346 -1.0238  1.9745
22128SOL     OW78442   6.871   4.616   9.720  0.0984  0.0074  0.2033
22128SOL    HW178443   6.961   4.573   9.726  0.4623  0.9571  1.7077
22128SOL    HW278444   6.881   4.714   9.702 -0.6528  0.0536 -0.0033
22129SOL     OW78445   4.151   4.049   1.097  0.2472  0.1878 -0.0324
22129SOL    HW178446   4.137   3.955   1.066  0.1296 -0.1317  0.9694
22129SOL    HW278447   4.139   4.111   1.020 -2.4643 -0.4154 -0.1514
22130SOL     OW78448   2.366   7.539   2.835  0.7771 -0.0213  0.3714
22130SOL    HW178449   2.418   7.505   2.757  1.4164 -1.2021  1.2849
22130SOL    HW278450   2.316   7.622   2.809  1.2194 -0.2309 -1.1879
22131SOL     OW78451   6.407   0.735   9.866 -0.0732  0.0601  0.0634
22131SOL    HW178452   6.478   0.724   9.797  0.1636 -1.9534  0.6019
22131SOL    HW278453   6.399   0.832   9.890  1.3585  0.5061 -1.1688
22132SOL     OW78454   6.005   8.333   2.903  0.1508  0.0838 -0.0696
22132SOL    HW178455   5.941   8.389   2.851 -0.2830  0.2621  0.6503
22132SOL    HW278456   6.085   8.387   2.927 -0.0065  0.2357  0.1225
22133SOL     OW78457   5.418   3.598   3.604 -0.4045  0.1618 -0.6457
22133SOL    HW178458   5.402   3.516   3.549 -0.1227  0.0533 -0.5658
22133SOL    HW278459   5.474   3.575   3.683  0.0870  0.5246 -0.8847
22134SOL     OW78460   2.197   4.149   0.499  0.4702 -0.1234 -0.1376
22134SOL    HW178461   2.105   4.164   0.533 -0.5517 -2.8784 -1.5862
22134SOL    HW278462   2.249   4.234   0.506 -2.4843  1.7507 -0.3166
22135SOL     OW78463   9.536   1.824   4.102 -0.1349  0.3938 -0.2856
22135SOL    HW178464   9.473   1.754   4.068 -0.7428  0.5325  0.5408
22135SOL    HW278465   9.579   1.870   4.024  1.2569 -1.7655 -0.8334
22136SOL     OW78466   1.054   1.243   1.956 -1.0823 -0.6335  0.2317
22136SOL    HW178467   1.098   1.333   1.946 -1.0133 -0.8259 -1.3015
22136SOL    HW278468   0.956   1.255   1.972 -0.9036 -0.2694  1.1127
22137SOL     OW78469   4.852   2.288   9.300 -0.2214 -0.5493 -0.0909
22137SOL    HW178470   4.901   2.231   9.366 -0.4177 -0.7494 -0.1168
22137SOL    HW278471   4.769   2.241   9.271 -0.7614  0.0719  0.4412
22138SOL     OW78472   9.467   4.969   1.406 -0.4847  0.0509 -0.5428
22138SOL    HW178473   9.497   5.041   1.468 -2.6351  1.1037 -0.6666
22138SOL    HW278474   9.545   4.913   1.378  0.9882  1.5074  0.6187
22139SOL     OW78475   0.133   5.189   2.645 -0.2823 -0.1872  0.0463
22139SOL    HW178476   0.043   5.152   2.667 -0.0311 -0.8139  0.0348
22139SOL    HW278477   0.123   5.272   2.591 -0.8374 -0.6340 -0.5346
22140SOL     OW78478   7.173   2.166   2.916  0.4224 -0.3803 -0.0887
22140SOL    HW178479   7.143   2.129   3.004 -0.3383 -1.8624 -0.9474
22140SOL    HW278480   7.160   2.265   2.915  1.3407 -0.2140  1.8070
22141SOL     OW78481   9.191   5.395   2.410 -0.4628  0.1220  0.0013
22141SOL    HW178482   9.112   5.430   2.461  1.6106  0.1364  3.3690
22141SOL    HW278483   9.261   5.466   2.404  0.2092 -0.6091 -0.9851
22142SOL     OW78484   7.522   4.701   7.686 -0.4922 -0.5099 -0.2836
22142SOL    HW178485   7.424   4.710   7.700 -0.6427  0.1624 -1.6604
22142SOL    HW278486   7.562   4.791   7.668 -0.0616 -1.0939 -2.3480
22143SOL     OW78487   4.636   2.259   6.866  0.5554 -0.1016  0.5427
22143SOL    HW178488   4.605   2.174   6.823  0.1222 -0.2645  1.1558
22143SOL    HW278489   4.736   2.260   6.868  0.5854  0.0557 -0.7294
22144SOL     OW78490   9.879   0.439   5.046 -0.6784  0.0362 -0.4254
22144SOL    HW178491   9.781   0.421   5.056 -1.1573  2.2357 -0.8866
22144SOL    HW278492   9.912   0.395   4.963 -1.5954  0.4351 -1.0188
22145SOL     OW78493   8.069   7.625   0.342  0.1802 -0.4872  0.0856
22145SOL    HW178494   8.029   7.665   0.425  0.2818 -1.5798  0.6825
22145SOL    HW278495   8.069   7.525   0.351  0.6219 -0.5924 -1.0421
22146SOL     OW78496   4.967   5.374   5.691 -0.0905 -0.5210 -0.8514
22146SOL    HW178497   5.036   5.304   5.715 -0.4648 -0.7479 -0.4271
22146SOL    HW278498   4.878   5.345   5.724 -0.3525 -0.1145 -1.2018
22147SOL     OW78499   6.090   4.209   9.997 -0.2506  0.2692  0.2929
22147SOL    HW178500   6.156   4.163  10.056 -0.8431 -2.2290 -0.9305
22147SOL    HW278501   6.028   4.264  10.052 -1.1552 -2.4537  2.0781
22148SOL     OW78502   7.206   3.985   4.143  0.0921 -0.8896  0.3180
22148SOL    HW178503   7.108   4.001   4.158 -0.4192 -3.0774 -0.4600
22148SOL    HW278504   7.227   3.888   4.158  2.3052 -0.3002  1.2412
22149SOL     OW78505   0.256   3.669   1.926 -0.0193 -0.0603  0.2942
22149SOL    HW178506   0.263   3.768   1.933  0.3479 -0.0638 -0.0235
22149SOL    HW278507   0.187   3.645   1.857 -0.5455 -0.0293  0.8019
22150SOL     OW78508   7.088   5.200   9.361  0.4042  0.3602  0.0552
22150SOL    HW178509   7.122   5.106   9.355  0.1326  0.1120  2.0945
22150SOL    HW278510   6.993   5.203   9.330  0.4327 -0.0207 -0.0792
22151SOL     OW78511   8.200   1.989   4.194  0.1671  0.2911  0.4674
22151SOL    HW178512   8.149   2.009   4.110  1.2523 -1.0328 -0.5540
22151SOL    HW278513   8.170   1.901   4.231  1.8984 -0.6787 -0.3449
22152SOL     OW78514   8.253   4.129   6.752 -0.6689 -0.0845 -0.2524
22152SOL    HW178515   8.274   4.152   6.847 -0.9907  0.3659 -0.2860
22152SOL    HW278516   8.155   4.115   6.742 -0.5954 -0.4718 -0.4491
22153SOL     OW78517   9.056   9.651   9.225 -0.1108 -0.2338 -0.7698
22153SOL    HW178518   8.967   9.647   9.178 -0.4739 -2.2386  0.0111
22153SOL    HW278519   9.129   9.634   9.160 -0.4862 -1.1499 -0.9593
22154SOL     OW78520   9.773   3.247   0.275 -0.1096 -0.1864 -0.5884
22154SOL    HW178521   9.868   3.248   0.308  0.0400  0.1393 -1.0269
22154SOL    HW278522   9.721   3.179   0.327  0.3664 -0.3776 -0.3525
22155SOL     OW78523   1.418   6.235   0.877 -0.3837 -0.0714  0.4414
22155SOL    HW178524   1.497   6.277   0.923 -0.6804  0.9104  0.0793
22155SOL    HW278525   1.371   6.305   0.823 -2.6489 -0.1908  2.2119
22156SOL     OW78526   2.141   1.043   2.122  0.0056 -0.0459 -0.9383
22156SOL    HW178527   2.070   0.980   2.091 -0.6287 -0.2373  0.8217
22156SOL    HW278528   2.137   1.051   2.222  3.9026 -1.7560 -0.5737
22157SOL     OW78529   6.652   8.499   1.565 -0.7117 -0.2380 -0.0154
22157SOL    HW178530   6.598   8.417   1.542 -0.3052 -0.3848 -0.4577
22157SOL    HW278531   6.630   8.572   1.501 -0.1798 -0.3884 -0.3743
22158SOL     OW78532   6.538   0.953   5.671  0.4559  0.2123 -0.0508
22158SOL    HW178533   6.520   0.949   5.769  1.9933 -1.8081  0.2046
22158SOL    HW278534   6.634   0.976   5.656  0.6521 -1.1635 -1.0253
22159SOL     OW78535   4.696   1.326   1.988 -0.0755 -0.1778 -0.1427
22159SOL    HW178536   4.616   1.313   2.047 -1.1016  1.2008 -1.1986
22159SOL    HW278537   4.771   1.269   2.022 -0.3915  1.1143  2.9690
22160SOL     OW78538   8.793   6.003   6.551  0.0025 -0.0751  0.1086
22160SOL    HW178539   8.840   6.058   6.482 -0.0725  2.0443  1.7077
22160SOL    HW278540   8.842   6.009   6.638 -2.5406  1.2370  1.5035
22161SOL     OW78541   6.077   1.874   8.642  0.0323 -0.2412 -0.0261
22161SOL    HW178542   6.144   1.932   8.688  0.4208 -0.4943 -0.2766
22161SOL    HW278543   6.107   1.779   8.645  0.2984 -0.1921 -1.2490
22162SOL     OW78544   7.497   2.753   0.501 -0.0353  0.1370 -0.0709
22162SOL    HW178545   7.556   2.740   0.422  2.2493  2.9099  1.0912
22162SOL    HW278546   7.412   2.798   0.473 -0.6755 -1.8507 -1.4028
22163SOL     OW78547   2.412   3.784   3.674  0.1938  0.0441  0.1300
22163SOL    HW178548   2.428   3.694   3.713  1.5418  0.2389  0.0395
22163SOL    HW278549   2.425   3.854   3.745  0.0719  0.2335 -0.0311
22164SOL     OW78550   7.252   5.815   6.051  0.5662  0.3514 -0.2670
22164SOL    HW178551   7.187   5.803   6.126  1.1455 -0.5066  0.1197
22164SOL    HW278552   7.307   5.896   6.067 -0.3222  1.0096 -0.5330
22165SOL     OW78553   8.074   6.525   7.948 -0.4690 -0.4130 -0.0566
22165SOL    HW178554   8.067   6.624   7.958 -2.2954 -0.2689 -2.2299
22165SOL    HW278555   8.167   6.500   7.923 -0.4215  0.9371 -1.2690
22166SOL     OW78556   6.394   1.544   8.254  0.0986  1.1413 -0.3981
22166SOL    HW178557   6.411   1.473   8.185  1.1618  0.1858  0.8229
22166SOL    HW278558   6.455   1.622   8.237  2.8214 -0.4846  1.3997
22167SOL     OW78559   8.961   3.120   9.202 -0.0122 -0.9282 -0.0720
22167SOL    HW178560   8.948   3.211   9.162 -1.8030 -0.6096  1.1820
22167SOL    HW278561   9.043   3.120   9.259  0.7371 -0.4809 -1.1262
22168SOL     OW78562   5.129   0.479   0.713  0.0401 -0.5668 -0.3316
22168SOL    HW178563   5.220   0.442   0.699  1.0313  1.8788 -0.6305
22168SOL    HW278564   5.117   0.561   0.656 -1.6841  0.1682  1.0389
22169SOL     OW78565   9.852   3.860   9.288  0.0016  0.2894  0.2295
22169SOL    HW178566   9.772   3.878   9.230  0.1536 -0.1145 -0.1080
22169SOL    HW278567   9.828   3.877   9.384 -0.2691  0.9104  0.0569
22170SOL     OW78568   9.038   1.915   5.454 -0.5136 -0.4102 -0.1696
22170SOL    HW178569   9.084   1.964   5.380 -1.4193  0.8296  0.0658
22170SOL    HW278570   9.018   1.821   5.426  0.7089 -0.4725 -0.8458
22171SOL     OW78571   6.858   2.525   4.848 -0.6143 -0.7285  0.4655
22171SOL    HW178572   6.883   2.519   4.944 -0.5948 -0.7291  0.4597
22171SOL    HW278573   6.826   2.618   4.827 -1.6132 -1.0041  0.7181
22172SOL     OW78574   9.609   4.511   1.036 -0.1673  0.2064  0.4618
22172SOL    HW178575   9.562   4.537   1.120  1.3589  1.2175  1.0176
22172SOL    HW278576   9.701   4.549   1.036  0.6090 -1.5748 -0.6924
22173SOL     OW78577   9.381   3.957   5.447  0.4000 -0.1135  0.3905
22173SOL    HW178578   9.434   3.882   5.407  0.3178 -1.1058  2.0859
22173SOL    HW278579   9.304   3.919   5.498 -2.3950  1.3493 -2.6227
22174SOL     OW78580   8.689   4.394   9.658  0.4366 -0.5060 -0.0038
22174SOL    HW178581   8.646   4.313   9.699 -0.3882  0.0669  0.2518
22174SOL    HW278582   8.727   4.451   9.731 -0.0065 -0.0712 -0.1154
22175SOL     OW78583   5.934   6.101   2.476 -0.6324  0.5306 -0.0209
22175SOL    HW178584   5.846   6.125   2.517 -0.0787 -0.2049  1.6232
22175SOL    HW278585   6.004   6.166   2.507  0.0801 -0.8710  1.3651
22176SOL     OW78586   9.351   0.865   6.097 -0.3079  0.4903  0.6858
22176SOL    HW178587   9.340   0.957   6.133  0.5681  1.4103 -1.3301
22176SOL    HW278588   9.417   0.814   6.153 -1.3348  0.8176  2.2264
22177SOL     OW78589   7.165   0.286   0.870 -0.0445 -0.5600  0.6956
22177SOL    HW178590   7.081   0.339   0.880 -0.1086 -0.4840 -0.2390
22177SOL    HW278591   7.243   0.342   0.898 -0.0169  0.3718 -1.1673
22178SOL     OW78592   4.664   4.587   6.847 -0.0079  0.0511 -0.3835
22178SOL    HW178593   4.607   4.532   6.908  0.6329 -0.9796 -0.7008
22178SOL    HW278594   4.608   4.623   6.772 -0.2583 -0.9420 -0.6855
22179SOL     OW78595   9.334   5.793   7.348 -0.4026 -0.5828 -0.5518
22179SOL    HW178596   9.315   5.838   7.260 -1.0015 -0.6606 -0.4684
22179SOL    HW278597   9.349   5.863   7.418  0.0147 -0.5199 -0.7021
22180SOL     OW78598   9.327   3.135   1.283 -0.5439  0.3291 -0.5623
22180SOL    HW178599   9.357   3.116   1.189  1.2668  1.3801 -0.2371
22180SOL    HW278600   9.290   3.052   1.324 -3.1618  0.3152 -2.8327
22181SOL     OW78601   8.876   3.479   1.633  0.1341  0.2594  0.5573
22181SOL    HW178602   8.905   3.470   1.728 -2.4021 -0.6327  1.2956
22181SOL    HW278603   8.778   3.500   1.629  1.0266  4.5345 -1.7852
22182SOL     OW78604   6.468   2.058   0.335  0.6083 -0.1472 -0.1624
22182SOL    HW178605   6.498   2.101   0.249 -0.2889  0.5934 -0.1220
22182SOL    HW278606   6.408   1.981   0.314 -0.0480  0.3685 -0.1994
22183SOL     OW78607   0.044   0.878   9.035  0.0883  0.0151 -0.2250
22183SOL    HW178608   0.108   0.861   8.960 -0.2676  1.9032 -0.9697
22183SOL    HW278609  -0.050   0.877   9.000 -0.1934 -0.8744  0.5288
22184SOL     OW78610   0.928   8.448   7.300 -0.1419  0.1802 -0.6450
22184SOL    HW178611   0.848   8.391   7.319  0.0253 -0.2455 -1.1846
22184SOL    HW278612   0.931   8.469   7.202  1.5676 -1.6087 -1.0166
22185SOL     OW78613   4.610   0.070   9.520 -0.2335  0.4784  0.3076
22185SOL    HW178614   4.659   0.157   9.525 -0.1536  0.3549  1.7806
22185SOL    HW278615   4.554   0.058   9.602 -2.0743  0.2117 -0.9562
22186SOL     OW78616   3.057   0.754   9.380 -0.2116  0.1408  0.2017
22186SOL    HW178617   3.078   0.851   9.395 -1.9373  0.0268  3.9584
22186SOL    HW278618   3.019   0.742   9.288  0.8172  2.8669 -0.6471
22187SOL     OW78619   5.344   2.750   2.840  0.1966  0.1058  0.1041
22187SOL    HW178620   5.372   2.830   2.788  2.2293 -0.0786  0.8842
22187SOL    HW278621   5.270   2.774   2.903 -1.0922  0.7170 -1.6078
22188SOL     OW78622   0.448   0.333   0.249  0.2450 -0.2358  0.5124
22188SOL    HW178623   0.521   0.344   0.181 -1.0449  0.1215 -0.8184
22188SOL    HW278624   0.419   0.237   0.251 -1.3120  0.1635 -1.1349
22189SOL     OW78625   7.501   1.864   1.230 -0.2920  0.2210  0.2563
22189SOL    HW178626   7.430   1.812   1.183 -1.8812  0.6862  2.0766
22189SOL    HW278627   7.486   1.859   1.329  2.0439  0.5891  0.6658
22190SOL     OW78628   8.594   0.606   9.724  0.0927  0.0724  0.2466
22190SOL    HW178629   8.663   0.534   9.721  0.3691  0.2495  1.6514
22190SOL    HW278630   8.511   0.571   9.767  0.2133  0.5740  0.8946
22191SOL     OW78631   8.092   3.940   8.059  0.3677 -0.1655 -0.0194
22191SOL    HW178632   8.037   4.017   8.090  0.0346  0.1833 -1.4556
22191SOL    HW278633   8.055   3.855   8.096 -0.8409  0.1149 -0.5516
22192SOL     OW78634   7.408   4.651   1.443 -0.4486  0.5655 -0.5603
22192SOL    HW178635   7.361   4.564   1.428  0.5871  0.2833 -2.3414
22192SOL    HW278636   7.435   4.658   1.539  0.0730 -1.4225 -0.5287
22193SOL     OW78637   4.559   3.627   0.275  0.4950  0.0221 -0.3652
22193SOL    HW178638   4.536   3.649   0.370 -0.6130 -0.4203 -0.5305
22193SOL    HW278639   4.566   3.711   0.222  0.2883  0.2190 -0.0824
22194SOL     OW78640   8.392   4.971   2.169 -0.4860  0.8237  0.0821
22194SOL    HW178641   8.400   4.880   2.209 -0.5426  1.0410  0.6024
22194SOL    HW278642   8.419   4.969   2.073  2.3164  0.8195  0.8098
22195SOL     OW78643   6.494   3.103   0.368 -0.0257  0.4409  0.2605
22195SOL    HW178644   6.576   3.145   0.408  0.5087 -0.8790  0.5741
22195SOL    HW278645   6.458   3.163   0.296 -0.0788  2.0796  1.6145
22196SOL     OW78646   7.254   9.207   8.608  0.1942  0.1399 -0.4204
22196SOL    HW178647   7.189   9.199   8.683  0.3196 -0.2900 -0.3614
22196SOL    HW278648   7.292   9.118   8.587 -0.5611  0.0987 -1.6438
22197SOL     OW78649   8.223   6.950   3.235 -0.4482  0.1541 -0.2948
22197SOL    HW178650   8.134   6.938   3.190 -0.7694  2.6418 -0.3904
22197SOL    HW278651   8.289   6.985   3.168 -0.0270  0.5630  0.3325
22198SOL     OW78652   0.199   7.133   0.135  0.0009  0.1271 -0.1498
22198SOL    HW178653   0.247   7.218   0.154 -2.2544  1.9548 -2.1855
22198SOL    HW278654   0.145   7.106   0.215  1.4837  0.0750  0.8385
22199SOL     OW78655   9.011   0.747   1.497  0.2166  0.1814  0.0105
22199SOL    HW178656   8.978   0.675   1.559  1.1672 -1.0355 -0.8741
22199SOL    HW278657   8.981   0.727   1.404  0.7193  0.7845 -0.2829
22200SOL     OW78658   3.061   9.902   0.962  0.3878 -0.2649 -0.0072
22200SOL    HW178659   3.103   9.982   1.003  1.5264 -0.4895 -0.7058
22200SOL    HW278660   3.038   9.921   0.866  1.4389 -1.0139 -0.4305
22201SOL     OW78661   7.662   4.887   1.584 -0.3292  0.1000 -0.2193
22201SOL    HW178662   7.675   4.839   1.498 -0.6795 -0.2885 -0.0541
22201SOL    HW278663   7.650   4.985   1.566  1.3397  0.2697 -0.4846
22202SOL     OW78664   7.513   3.453   8.652 -0.0624 -0.4361 -0.8157
22202SOL    HW178665   7.491   3.471   8.748 -1.1630 -2.2453 -0.7006
22202SOL    HW278666   7.522   3.540   8.603  1.0466  0.5290  1.0213
22203SOL     OW78667   9.333   9.139   3.912 -0.0576 -0.3248  0.0798
22203SOL    HW178668   9.290   9.148   4.001  0.2922  0.3261  0.1821
22203SOL    HW278669   9.327   9.226   3.863  1.6612 -0.0490  0.3311
22204SOL     OW78670   9.504   8.669   2.623  0.1692 -0.3618  0.3246
22204SOL    HW178671   9.595   8.657   2.662  0.1521 -1.0191  0.1716
22204SOL    HW278672   9.475   8.764   2.634  1.1260 -0.0058 -0.1805
22205SOL     OW78673   8.825   2.927   4.332  0.5849 -0.1812  0.0555
22205SOL    HW178674   8.736   2.883   4.331  0.3753  0.2350  0.0195
22205SOL    HW278675   8.867   2.921   4.241  0.3759  0.0502 -0.0593
22206SOL     OW78676   5.336   2.302   9.671  0.0821 -0.1591 -0.3201
22206SOL    HW178677   5.391   2.221   9.690 -0.5541 -0.0668  2.0642
22206SOL    HW278678   5.309   2.302   9.575  1.8509 -1.6648 -0.8541
22207SOL     OW78679   7.646   5.646   7.216  0.2747 -0.0713 -0.3709
22207SOL    HW178680   7.618   5.660   7.121 -1.4228  0.3885  0.1657
22207SOL    HW278681   7.736   5.603   7.219 -0.9464 -2.9407 -2.2466
22208SOL     OW78682   6.967   3.932   3.615  0.1742 -0.4516  0.2334
22208SOL    HW178683   6.921   3.996   3.676  1.3356  2.9844 -2.3353
22208SOL    HW278684   7.061   3.919   3.645 -0.3330 -1.7439  1.3018
22209SOL     OW78685   6.539   2.057   1.705 -0.1780  0.2115 -0.1130
22209SOL    HW178686   6.474   1.981   1.707 -0.0104  0.0548  4.3747
22209SOL    HW278687   6.491   2.143   1.724  0.5799  0.3651  1.1606
22210SOL     OW78688   6.787   9.945   8.603  0.0723 -0.2902 -0.0155
22210SOL    HW178689   6.846   9.933   8.682 -0.5940  2.8851  1.0346
22210SOL    HW278690   6.842   9.969   8.523  0.5000 -0.7723  0.1333
22211SOL     OW78691   3.578   6.246   9.403  0.0152 -0.4015 -0.1838
22211SOL    HW178692   3.587   6.266   9.305  0.8661 -3.0477 -0.6741
22211SOL    HW278693   3.655   6.286   9.453  0.4886 -0.5260 -0.8162
22212SOL     OW78694   8.010   1.949   9.020  0.3965  0.4933  0.1907
22212SOL    HW178695   8.033   1.925   9.114 -0.4245 -0.8664  0.0588
22212SOL    HW278696   8.015   2.048   9.008 -1.3150  0.8260  2.1300
22213SOL     OW78697   1.101   2.055   2.236  0.1627  0.0638 -0.5717
22213SOL    HW178698   1.137   2.021   2.149 -0.1623 -0.0963 -0.6436
22213SOL    HW278699   1.016   2.008   2.258 -0.6364  1.2689 -0.9912
22214SOL     OW78700   0.582   8.325   6.473 -0.0629  0.0327  0.3482
22214SOL    HW178701   0.658   8.299   6.413 -0.9032  2.0219 -1.6827
22214SOL    HW278702   0.500   8.276   6.446 -0.4027  0.8088 -0.0655
22215SOL     OW78703   5.733   5.864   8.211 -0.3760  0.2737 -0.0899
22215SOL    HW178704   5.743   5.799   8.135  0.9626  0.8773 -0.4456
22215SOL    HW278705   5.729   5.814   8.297  0.6615 -0.3040 -0.3638
22216SOL     OW78706   2.046   5.661   3.604 -0.2183  0.6804  0.0100
22216SOL    HW178707   2.002   5.742   3.643  0.0785  1.5185 -1.3870
22216SOL    HW278708   2.056   5.672   3.506  1.4851 -0.2808  0.0495
22217SOL     OW78709   3.598   5.975   0.442  0.2598 -0.2732  0.0619
22217SOL    HW178710   3.624   6.038   0.370 -1.1408  0.6276  0.3129
22217SOL    HW278711   3.522   5.918   0.411  0.4649 -0.7226  0.3836
22218SOL     OW78712   3.332   6.265   7.434 -0.5090 -0.4310 -0.2960
22218SOL    HW178713   3.287   6.341   7.482 -0.6729 -1.5507  1.3610
22218SOL    HW278714   3.420   6.296   7.399 -0.3746  0.4257  0.7554
22219SOL     OW78715   6.802   0.877   8.318  0.2429  0.4636 -0.3122
22219SOL    HW178716   6.860   0.801   8.292 -2.2003 -1.0903 -1.4139
22219SOL    HW278717   6.840   0.962   8.282  2.0889 -0.4562 -0.5555
22220SOL     OW78718   0.046   3.289   2.132  0.4783  0.1816 -0.2221
22220SOL    HW178719   0.092   3.248   2.053  1.4855  0.9040 -0.0145
22220SOL    HW278720  -0.022   3.355   2.100 -0.9310 -1.3836 -0.5515
22221SOL     OW78721   7.988   9.151   2.657 -0.6526 -0.2447 -0.1370
22221SOL    HW178722   7.981   9.250   2.648  1.1862 -0.0364  0.5539
22221SOL    HW278723   7.997   9.111   2.565  1.8967  0.5369 -0.2870
22222SOL     OW78724   9.740   2.032   2.345 -0.2277 -0.6046  0.1227
22222SOL    HW178725   9.820   2.085   2.375  0.2996 -1.4630  0.2372
22222SOL    HW278726   9.693   2.082   2.272  1.3622 -0.8487 -1.0938
22223SOL     OW78727   1.406   4.670   2.822  0.0380 -0.4627 -0.0979
22223SOL    HW178728   1.477   4.629   2.766 -0.3784  0.5428 -1.3806
22223SOL    HW278729   1.448   4.724   2.895  0.5869 -0.8923 -0.0988
22224SOL     OW78730   6.508   4.352   8.583  0.4240  0.0910 -0.1308
22224SOL    HW178731   6.415   4.372   8.615  0.3025 -1.5278  0.5240
22224SOL    HW278732   6.551   4.437   8.552 -1.1888  0.8932 -0.2214
22225SOL     OW78733   1.003   0.126   4.637  0.6356  0.2254 -0.1137
22225SOL    HW178734   1.056   0.205   4.668  3.5359 -0.7157 -2.4220
22225SOL    HW278735   1.002   0.056   4.708  0.4192  1.2195  0.8698
22226SOL     OW78736   5.210   7.564   8.807  0.5214  0.1856  0.5085
22226SOL    HW178737   5.116   7.534   8.822  0.3474  0.8108  0.6688
22226SOL    HW278738   5.271   7.484   8.807  0.3406  0.0081  3.0547
22227SOL     OW78739   5.795   3.510   8.789 -0.4140 -0.0281 -0.3527
22227SOL    HW178740   5.756   3.497   8.698 -0.0238 -1.7351 -0.3038
22227SOL    HW278741   5.754   3.444   8.853  1.9902 -1.3983 -0.1524
22228SOL     OW78742   1.518   4.885   1.876  0.3036 -0.0690 -0.0161
22228SOL    HW178743   1.456   4.961   1.858  0.4864  0.0646 -0.0954
22228SOL    HW278744   1.566   4.901   1.962  2.1729  1.1501 -1.2287
22229SOL     OW78745   6.276   1.010   8.590  0.7199  0.2474 -0.1606
22229SOL    HW178746   6.342   0.938   8.611  2.0882  1.2142 -1.0580
22229SOL    HW278747   6.311   1.098   8.621  0.3351  0.9291 -1.5889
22230SOL     OW78748   1.542   8.706   2.485  0.0369  0.1922 -0.4594
22230SOL    HW178749   1.511   8.797   2.514  0.6211  0.5637 -0.9957
22230SOL    HW278750   1.466   8.642   2.493 -1.1169  1.2608 -2.4849
22231SOL     OW78751   8.467   8.889   3.726 -0.0415 -0.1197  0.0557
22231SOL    HW178752   8.379   8.886   3.772 -1.0244  0.8585 -1.7017
22231SOL    HW278753   8.534   8.936   3.784 -0.5914 -1.0674  1.4874
22232SOL     OW78754   7.562   0.227   9.848  0.1809 -0.0914 -0.2412
22232SOL    HW178755   7.531   0.142   9.891  0.1592 -0.7266 -1.4821
22232SOL    HW278756   7.507   0.245   9.767  0.7774  0.6284 -0.4944
22233SOL     OW78757   9.042   2.642   1.997  0.3504  0.2618  0.0557
22233SOL    HW178758   9.096   2.579   2.054  2.4822  1.3225 -0.7141
22233SOL    HW278759   9.049   2.613   1.901 -2.6830 -1.1339  0.2002
22234SOL     OW78760   9.856   3.802   7.847  0.1609  0.2941 -0.0841
22234SOL    HW178761   9.894   3.712   7.827  0.4330  0.7823 -1.8621
22234SOL    HW278762   9.792   3.796   7.923  0.4182 -1.3395  0.0062
22235SOL     OW78763   1.716   7.326   7.626  0.1009  0.2260 -0.1622
22235SOL    HW178764   1.703   7.233   7.593  1.7616  0.0028 -0.2630
22235SOL    HW278765   1.649   7.346   7.697 -1.8422 -0.1879 -1.8293
22236SOL     OW78766   0.253   2.945   8.339  0.2879 -0.0971  0.0620
22236SOL    HW178767   0.313   2.940   8.260  1.7455  1.1088  1.0770
22236SOL    HW278768   0.170   2.891   8.321  1.4805 -1.4620 -1.4874
22237SOL     OW78769   7.990   7.380   5.783 -0.2995  0.2242 -0.6405
22237SOL    HW178770   7.999   7.357   5.880  0.7947  0.1366 -0.7584
22237SOL    HW278771   7.998   7.296   5.728 -1.0866  0.2496 -0.8031
22238SOL     OW78772   6.300   3.707   2.645 -0.4482  0.3787 -0.1808
22238SOL    HW178773   6.325   3.803   2.660  0.2825  0.2400 -0.5063
22238SOL    HW278774   6.202   3.702   2.623 -0.0705  1.2803 -2.2291
22239SOL     OW78775   2.980   1.985   6.166 -0.5525  0.2556 -0.2777
22239SOL    HW178776   3.058   1.967   6.107 -1.8412 -1.5033 -1.4991
22239SOL    HW278777   3.003   1.960   6.260  0.3322 -0.2927 -0.6344
22240SOL     OW78778   7.602   3.242   8.960 -0.3316  0.9343  0.1214
22240SOL    HW178779   7.691   3.199   8.974  0.3588  2.5576  0.8538
22240SOL    HW278780   7.551   3.191   8.890  0.8351 -0.4835  0.2789
22241SOL     OW78781   1.964   6.144   7.878  0.1810  0.1527  0.5006
22241SOL    HW178782   1.966   6.045   7.893 -1.0705 -0.4653 -2.8592
22241SOL    HW278783   2.028   6.189   7.940  1.0650 -2.7884  1.8049
22242SOL     OW78784   4.436   2.381   9.022 -0.3586  0.5669 -0.7699
22242SOL    HW178785   4.376   2.411   8.948 -0.4508 -0.3452 -1.0585
22242SOL    HW278786   4.446   2.456   9.088 -0.7852  1.1598 -1.3701
22243SOL     OW78787   4.952   1.213   1.301 -0.2209 -0.7175  0.3892
22243SOL    HW178788   4.995   1.271   1.231 -1.1266  0.4524  0.7730
22243SOL    HW278789   5.019   1.187   1.370 -0.0397  0.7609  0.7777
22244SOL     OW78790   5.079   3.055   2.097  0.0626  0.0755  0.3143
22244SOL    HW178791   5.128   3.025   2.015 -1.7227 -1.4326 -0.2318
22244SOL    HW278792   5.072   3.155   2.097  3.0711  0.3352  0.4029
22245SOL     OW78793   4.424   3.577   0.557 -0.1422 -0.4409  0.2485
22245SOL    HW178794   4.387   3.573   0.650  1.4156 -0.7562  0.8676
22245SOL    HW278795   4.408   3.490   0.511 -0.6752 -0.3807  0.3210
22246SOL     OW78796   1.438   3.966   6.779 -0.0725 -0.8827  0.1042
22246SOL    HW178797   1.494   4.046   6.760  0.0295 -1.1091 -0.5436
22246SOL    HW278798   1.496   3.885   6.788 -0.0344 -0.6714  2.1196
22247SOL     OW78799   8.783   4.691   6.951 -0.2539  0.4506  0.2319
22247SOL    HW178800   8.820   4.761   7.011  1.5419  0.9547 -1.4090
22247SOL    HW278801   8.694   4.721   6.917  0.3140  1.7760 -0.1354
22248SOL     OW78802   9.355   3.023   9.078 -0.4757 -0.3135  0.0180
22248SOL    HW178803   9.303   2.963   9.140 -0.0028 -1.1135 -0.3487
22248SOL    HW278804   9.375   3.109   9.125 -1.1515 -0.4441  0.5643
22249SOL     OW78805   8.397   0.788   2.235  0.0241 -0.2354  0.4590
22249SOL    HW178806   8.457   0.795   2.156  1.2229  0.4396  1.4166
22249SOL    HW278807   8.352   0.698   2.235  1.7970 -1.1335  0.2836
22250SOL     OW78808   6.732   0.761   9.988  0.1104 -0.1973  0.8701
22250SOL    HW178809   6.687   0.757   9.898 -0.0262  1.0181  0.8742
22250SOL    HW278810   6.724   0.854  10.024  1.4495 -0.3232  1.4902
22251SOL     OW78811   0.153   7.430   1.454  0.9873 -0.0261 -0.0644
22251SOL    HW178812   0.098   7.513   1.453 -0.5004 -0.9675  1.3185
22251SOL    HW278813   0.097   7.352   1.428  1.4093 -1.1316  2.2011
22252SOL     OW78814   6.883   7.963   1.308  0.0239  0.5630 -0.4188
22252SOL    HW178815   6.796   7.991   1.267 -0.4710 -0.7651 -0.2996
22252SOL    HW278816   6.877   7.868   1.337  2.1345 -0.0754 -2.0134
22253SOL     OW78817   7.447   4.478   2.415  0.2336 -0.3954 -0.2304
22253SOL    HW178818   7.492   4.403   2.463  1.7669  0.7293  0.1188
22253SOL    HW278819   7.498   4.563   2.430 -1.0722  0.5824 -1.2106
22254SOL     OW78820   1.451   5.993   0.224 -0.0126  0.7312  0.4763
22254SOL    HW178821   1.504   6.011   0.307  2.0842 -0.1835 -0.6340
22254SOL    HW278822   1.417   5.899   0.225 -0.7332  0.9900  0.6956
22255SOL     OW78823   9.865   9.965   0.072 -0.1270  0.0457 -0.1936
22255SOL    HW178824   9.924   9.914   0.136  1.0082  0.7229 -0.6814
22255SOL    HW278825   9.880  10.063   0.085 -0.6249  0.2078 -0.8263
22256SOL     OW78826   7.344   2.309   9.479  0.1592  0.4613 -0.0021
22256SOL    HW178827   7.411   2.357   9.537  0.4634 -1.7086  1.5039
22256SOL    HW278828   7.290   2.247   9.536 -0.8814 -0.2725 -1.7590
22257SOL     OW78829   0.962   2.689   5.616  0.4030 -0.1210  0.0517
22257SOL    HW178830   0.910   2.605   5.602  1.4122 -0.8289  0.5020
22257SOL    HW278831   0.944   2.752   5.540  1.2706 -1.5807 -1.3769
22258SOL     OW78832   6.247   9.652   6.770 -0.5630 -0.2825 -0.5594
22258SOL    HW178833   6.338   9.694   6.765 -0.6548 -0.2111 -1.8152
22258SOL    HW278834   6.243   9.592   6.850 -0.2514  1.6491  0.9280
22259SOL     OW78835   9.950   1.657   1.382  0.2993 -0.0049  0.5253
22259SOL    HW178836   9.886   1.623   1.451 -0.5030 -2.0869 -1.2109
22259SOL    HW278837  10.043   1.657   1.419 -0.2107 -0.4746  1.8203
22260SOL     OW78838   7.945   4.437   9.192  0.0506 -0.3617  0.0936
22260SOL    HW178839   7.851   4.455   9.164 -1.0343 -3.4858  1.4288
22260SOL    HW278840   7.968   4.494   9.271 -0.8610  0.1392  0.0010
22261SOL     OW78841   6.067   5.406   9.429 -0.1590 -0.1984 -0.0013
22261SOL    HW178842   6.017   5.490   9.448 -0.1785 -0.6480  1.9834
22261SOL    HW278843   6.156   5.408   9.474 -0.6206 -1.7087  1.0177
22262SOL     OW78844   2.091   4.636   1.852 -0.1885 -0.4432 -0.3556
22262SOL    HW178845   2.037   4.720   1.846  1.2350  0.5446  0.3047
22262SOL    HW278846   2.188   4.659   1.859  0.2628 -2.1648 -0.6834
22263SOL     OW78847   6.284   7.927   4.933 -0.0529  0.2787  0.1008
22263SOL    HW178848   6.329   7.842   4.908 -0.5584  0.1845 -0.4908
22263SOL    HW278849   6.317   7.958   5.022  1.9060  0.7045 -0.7506
22264SOL     OW78850   8.322   3.058   9.778 -0.0442  0.1160 -0.4617
22264SOL    HW178851   8.286   3.083   9.868  0.5303  0.8044 -0.4171
22264SOL    HW278852   8.246   3.037   9.717 -0.5026  1.0148 -0.2141
22265SOL     OW78853   2.111   3.376   7.333 -0.5956 -0.5861 -0.2354
22265SOL    HW178854   2.172   3.359   7.411 -1.4071 -0.7959  0.3589
22265SOL    HW278855   2.148   3.451   7.278 -1.5008  1.5517  1.9654
22266SOL     OW78856   8.550   5.698   8.065 -0.5047 -0.2629 -0.5983
22266SOL    HW178857   8.637   5.661   8.031 -0.4912 -0.0417 -0.8024
22266SOL    HW278858   8.475   5.654   8.016 -0.5031 -0.3720 -0.5022
22267SOL     OW78859   4.849   3.770   8.293  0.1597 -0.3765  0.5856
22267SOL    HW178860   4.911   3.823   8.235 -0.1226 -1.4935 -0.7676
22267SOL    HW278861   4.756   3.805   8.284 -0.0426 -1.1374 -0.3790
22268SOL     OW78862   8.696   6.799   8.515 -0.4617 -0.0010 -0.2941
22268SOL    HW178863   8.645   6.827   8.597 -0.9321  0.3969 -0.7187
22268SOL    HW278864   8.694   6.873   8.448 -0.8673 -0.6811 -1.0371
22269SOL     OW78865   8.974   2.729   9.832 -0.1772 -0.0699 -0.1311
22269SOL    HW178866   9.010   2.802   9.889 -0.0295 -0.7929  0.7000
22269SOL    HW278867   9.033   2.718   9.751  0.7138 -0.3716  0.5590
22270SOL     OW78868   3.943   2.828   1.029  0.2760  0.6287 -0.1082
22270SOL    HW178869   3.917   2.732   1.032  1.3526  0.3368  0.0366
22270SOL    HW278870   4.016   2.845   1.096  1.1634  1.2193 -1.2116
22271SOL     OW78871   6.215   1.744   9.472 -0.2028  0.4401  0.0765
22271SOL    HW178872   6.119   1.716   9.480  0.3107 -1.3045  0.4656
22271SOL    HW278873   6.274   1.670   9.506  1.1625  3.0029  3.6251
22272SOL     OW78874   9.116   0.689   2.791 -0.1731  0.1535 -0.0811
22272SOL    HW178875   9.027   0.694   2.835  0.0499  0.1983  0.3751
22272SOL    HW278876   9.106   0.698   2.692 -0.4619  2.3716  0.1321
22273SOL     OW78877   6.870   3.637   9.084 -0.2183  0.5011  0.3634
22273SOL    HW178878   6.938   3.617   9.155 -1.1901 -0.4926  1.0321
22273SOL    HW278879   6.884   3.730   9.051  2.0278  0.0281 -0.1474
22274SOL     OW78880   6.191   6.383   2.119  0.6113  0.0568  0.2605
22274SOL    HW178881   6.163   6.288   2.106  1.5427  0.0713 -2.2276
22274SOL    HW278882   6.132   6.443   2.064  1.1862  0.7284  0.3672
22275SOL     OW78883   7.503   8.641   8.824 -0.5618 -0.0191 -0.5946
22275SOL    HW178884   7.491   8.543   8.838 -1.3131 -0.2552 -2.6978
22275SOL    HW278885   7.582   8.658   8.766 -1.2743  0.5265 -1.4241
22276SOL     OW78886   9.968   3.062   9.937 -0.0243 -0.1937 -0.6842
22276SOL    HW178887   9.907   2.983   9.944 -0.8456  0.5978  1.2839
22276SOL    HW278888   9.919   3.145   9.961  0.9983  0.8687 -2.1679
22277SOL     OW78889   1.228   6.834   1.191  0.0106  0.2989 -0.1670
22277SOL    HW178890   1.302   6.793   1.137 -1.0048 -0.5789 -0.8977
22277SOL    HW278891   1.142   6.789   1.169 -0.5947  0.6747  1.3951
22278SOL     OW78892   3.457   2.844   1.108  0.1339  0.1321  0.1157
22278SOL    HW178893   3.481   2.753   1.073 -0.2289  0.1804 -0.2674
22278SOL    HW278894   3.362   2.843   1.140  0.1995  0.3188  0.3124
22279SOL     OW78895   2.528   1.828   5.563  0.1624  0.1855 -0.5305
22279SOL    HW178896   2.446   1.860   5.610 -0.9667 -1.6721 -1.1803
22279SOL    HW278897   2.588   1.784   5.630 -0.0312  0.2615 -0.3028
22280SOL     OW78898   6.954   2.581   1.124 -0.3216 -0.2618  0.0662
22280SOL    HW178899   6.908   2.498   1.153 -1.8718  1.0272  1.3240
22280SOL    HW278900   6.925   2.605   1.031  0.4568 -1.3445 -0.4646
22281SOL     OW78901   7.055   0.460   0.208  0.4031  0.2540 -0.1214
22281SOL    HW178902   7.032   0.550   0.171 -0.1288  0.0071 -0.3997
22281SOL    HW278903   6.971   0.409   0.228  0.6833  0.4159  1.5198
22282SOL     OW78904   0.692   5.438   6.869 -0.2721  0.6994  0.2759
22282SOL    HW178905   0.707   5.396   6.779  1.3927 -0.9362  1.2877
22282SOL    HW278906   0.602   5.413   6.903  0.2708 -1.1914  0.3769
22283SOL     OW78907   2.394   9.861   3.760 -0.0796  0.2858 -0.4502
22283SOL    HW178908   2.454   9.914   3.821 -0.9559  1.7829 -0.8526
22283SOL    HW278909   2.396   9.765   3.787  1.0873  0.6081  0.6894
22284SOL     OW78910   4.335   6.035   2.794  0.4178  0.1930 -0.8440
22284SOL    HW178911   4.304   6.126   2.768 -0.5965  0.5548  1.4948
22284SOL    HW278912   4.435   6.031   2.788  0.5095  1.6372 -0.4807
22285SOL     OW78913   6.571   7.170   3.499  0.2895 -0.1521 -0.0274
22285SOL    HW178914   6.616   7.253   3.533  0.1537 -0.1425  0.1306
22285SOL    HW278915   6.527   7.123   3.576 -0.4692  0.1438 -0.2807
22286SOL     OW78916   0.060   2.454   3.639 -0.9268 -0.1227  0.2974
22286SOL    HW178917   0.046   2.374   3.581 -1.6004  0.5491 -0.4731
22286SOL    HW278918   0.114   2.427   3.719  0.6435 -0.9150 -0.9764
22287SOL     OW78919   7.548   8.969   9.759 -0.7844 -0.1842 -0.6694
22287SOL    HW178920   7.513   8.916   9.681 -2.2411 -4.2628  2.5418
22287SOL    HW278921   7.635   8.930   9.789  0.0192  1.6750 -0.5817
22288SOL     OW78922   2.442   4.130   4.589 -0.0613  0.6031 -0.0447
22288SOL    HW178923   2.461   4.143   4.687 -1.1573  0.5268  0.1821
22288SOL    HW278924   2.366   4.190   4.562 -0.1552  0.1780 -0.7089
22289SOL     OW78925   4.406   4.924   3.397  0.8263  0.1503 -0.4582
22289SOL    HW178926   4.460   4.988   3.342  2.8597  0.9155  2.2603
22289SOL    HW278927   4.354   4.975   3.465  2.3779 -1.0050  1.6715
22290SOL     OW78928   9.290   1.278   0.888 -0.2939 -0.0639  0.6105
22290SOL    HW178929   9.333   1.352   0.836 -0.6142 -1.3227 -1.4939
22290SOL    HW278930   9.360   1.210   0.911 -1.1469 -2.2594 -3.0705
22291SOL     OW78931   1.138   2.434   5.384  0.2726 -0.1988 -0.3326
22291SOL    HW178932   1.067   2.496   5.352  0.3784 -0.1826 -0.5425
22291SOL    HW278933   1.097   2.361   5.438  0.2248  0.4616  0.5482
22292SOL     OW78934   9.032   5.649   4.506  0.3823 -0.1966  0.1872
22292SOL    HW178935   9.031   5.549   4.497 -1.9966 -0.1943  0.1181
22292SOL    HW278936   9.066   5.690   4.422  0.3363 -0.9079 -0.1818
22293SOL     OW78937   2.681   6.380   9.243 -0.3537 -0.2491  0.3127
22293SOL    HW178938   2.586   6.355   9.225 -0.0870 -0.0173 -1.4582
22293SOL    HW278939   2.735   6.369   9.159  1.3829 -1.3022  1.5354
22294SOL     OW78940   3.424   7.728   4.322  0.4583 -0.6491 -0.0193
22294SOL    HW178941   3.491   7.661   4.354  0.2150  0.0535  2.0449
22294SOL    HW278942   3.332   7.701   4.353  0.1218 -0.2725 -0.6760
22295SOL     OW78943   5.341   8.434   0.023  0.5655  0.6739  0.5394
22295SOL    HW178944   5.336   8.398   0.116 -1.1557  0.7587  0.4815
22295SOL    HW278945   5.368   8.530   0.026  0.3871  0.7097  0.9490
22296SOL     OW78946   8.271   3.935   8.537  0.0503  0.0818  0.3798
22296SOL    HW178947   8.314   4.009   8.588  0.3012 -0.1622  0.5272
22296SOL    HW278948   8.188   3.968   8.492 -1.9038 -0.4674  3.4802
22297SOL     OW78949   8.639   0.447   6.828 -0.0851  0.4531 -0.3412
22297SOL    HW178950   8.567   0.401   6.880 -0.1038  0.8786  0.0052
22297SOL    HW278951   8.634   0.417   6.732  0.4176 -0.8807  0.0344
22298SOL     OW78952   5.785   4.621   2.127  0.1851  0.2718  0.1212
22298SOL    HW178953   5.840   4.548   2.087  1.4542  1.7452 -0.9151
22298SOL    HW278954   5.767   4.601   2.223 -1.1572 -2.3266 -0.6298
22299SOL     OW78955   7.123   6.120   5.426  0.0931  0.6110  0.1063
22299SOL    HW178956   7.131   6.083   5.519  1.9169 -0.3080 -0.3871
22299SOL    HW278957   7.032   6.160   5.413 -0.6535 -0.4903  1.8313
22300SOL     OW78958   1.201   4.919   7.935  0.3902 -0.6334 -0.0318
22300SOL    HW178959   1.180   4.836   7.883  1.3911  0.2198 -1.8402
22300SOL    HW278960   1.155   4.997   7.894  0.3279 -0.1020  1.0240
22301SOL     OW78961   0.212   3.470   0.775  0.0322  0.0028  0.3096
22301SOL    HW178962   0.157   3.507   0.849 -0.1143 -1.3512  0.8827
22301SOL    HW278963   0.217   3.537   0.700 -1.8777  0.3670  0.5001
22302SOL     OW78964   1.633   0.616   8.643 -0.4976 -0.1832 -0.0887
22302SOL    HW178965   1.630   0.693   8.707 -0.5885  0.0384 -0.3581
22302SOL    HW278966   1.555   0.556   8.661 -0.6699  0.0161 -0.1621
22303SOL     OW78967   2.650   0.758   4.157 -0.2325  0.3898 -0.2520
22303SOL    HW178968   2.683   0.851   4.172  0.4838  0.2114 -0.6922
22303SOL    HW278969   2.560   0.747   4.200 -0.1710  1.1814  0.0874
22304SOL     OW78970   8.524   7.299   3.947 -0.2634 -0.0825 -0.1877
22304SOL    HW178971   8.520   7.284   4.046 -1.1854  2.1805  0.1590
22304SOL    HW278972   8.533   7.211   3.900 -0.7228 -1.2600  1.8595
22305SOL     OW78973   8.926   4.598   3.081  0.1729 -0.2579 -0.5563
22305SOL    HW178974   8.848   4.658   3.097 -0.3101 -1.0312  0.0632
22305SOL    HW278975   8.996   4.615   3.150  1.9470  2.6479 -2.9536
22306SOL     OW78976   9.214   2.460   9.595  0.4706 -0.3785  0.5193
22306SOL    HW178977   9.235   2.410   9.511 -2.3752  1.4165 -1.3409
22306SOL    HW278978   9.168   2.399   9.659  0.9387 -1.2701  0.0235
22307SOL     OW78979   6.833   0.162   8.016 -0.0796  0.3242 -0.1122
22307SOL    HW178980   6.817   0.098   8.092 -1.8510  0.3786 -0.4057
22307SOL    HW278981   6.746   0.206   7.991  0.7134  1.2061 -1.3707
22308SOL     OW78982   7.876   7.753   4.493  0.6103 -0.1078 -0.3062
22308SOL    HW178983   7.783   7.789   4.499  0.7673  0.9308 -3.2598
22308SOL    HW278984   7.929   7.785   4.572 -1.3934 -0.3340  1.1637
22309SOL     OW78985   5.450   3.437   2.175  0.2493  0.1123  0.2056
22309SOL    HW178986   5.506   3.482   2.104 -0.6880  1.6116  0.3886
22309SOL    HW278987   5.407   3.507   2.232 -2.3789 -1.0171 -0.3459
22310SOL     OW78988   7.251   0.139   7.373  0.2114 -0.1377  0.5505
22310SOL    HW178989   7.239   0.133   7.274 -1.3309  0.4548  0.6859
22310SOL    HW278990   7.302   0.060   7.406 -0.6271 -1.1454 -0.5258
22311SOL     OW78991   8.492   1.539   3.053  0.0777 -0.4459 -0.4194
22311SOL    HW178992   8.491   1.629   3.009 -1.4711 -0.5500 -0.6569
22311SOL    HW278993   8.583   1.519   3.088  0.5286  1.0534 -0.7078
22312SOL     OW78994   1.069   2.464   8.212  0.4422  0.2304 -0.0938
22312SOL    HW178995   1.163   2.477   8.243 -0.6285 -0.3325  3.7507
22312SOL    HW278996   1.012   2.539   8.246 -0.4772  0.7248 -2.6183
22313SOL     OW78997   5.203   5.300   7.265  0.0899  0.2450 -0.3421
22313SOL    HW178998   5.213   5.202   7.284  0.8681  0.0344 -1.7294
22313SOL    HW278999   5.224   5.353   7.346 -1.6076 -0.7861  0.8061
22314SOL     OW79000   0.451   5.376   0.198  0.1187 -0.2861  0.2673
22314SOL    HW179001   0.486   5.343   0.111  1.5752 -0.3501  0.8659
22314SOL    HW279002   0.392   5.455   0.183 -1.5606 -1.7409 -0.9740
22315SOL     OW79003   0.629   3.630   8.012  0.1000 -0.2862 -0.1010
22315SOL    HW179004   0.693   3.624   8.089 -0.3484  1.2584  0.4030
22315SOL    HW279005   0.562   3.557   8.018  1.0400 -1.1516  0.0694
22316SOL     OW79006   2.135   0.328   0.595  0.0295 -0.1397  0.8260
22316SOL    HW179007   2.223   0.359   0.629 -0.6627  0.9380  1.6727
22316SOL    HW279008   2.138   0.319   0.496  0.7517  0.9769  0.7428
22317SOL     OW79009   9.737   3.784   8.090 -0.4214  0.5217 -0.2979
22317SOL    HW179010   9.822   3.805   8.138  0.5342 -0.1348 -1.6659
22317SOL    HW279011   9.709   3.690   8.111 -2.0575  1.4718  1.9492
22318SOL     OW79012   8.826   1.312   6.542  0.0697  0.3863 -0.3915
22318SOL    HW179013   8.834   1.351   6.634 -1.8387 -0.0101 -0.0411
22318SOL    HW279014   8.800   1.384   6.478  0.8411  0.5507 -0.5215
22319SOL     OW79015   0.463   3.454   8.105  0.8550  0.1228  0.1705
22319SOL    HW179016   0.381   3.509   8.121  1.2664  0.6055  0.6407
22319SOL    HW279017   0.437   3.367   8.063  0.0051 -0.1073  1.1622
22320SOL     OW79018   9.937   0.753   6.885  0.0273 -0.0094 -0.2703
22320SOL    HW179019   9.953   0.703   6.800 -1.4781 -1.3242  0.1818
22320SOL    HW279020   9.844   0.735   6.917 -0.1124  2.1165  0.5816
22321SOL     OW79021   1.331   5.670   5.174 -0.3075 -0.8446  0.8173
22321SOL    HW179022   1.379   5.758   5.180 -0.5255 -0.5546 -1.5505
22321SOL    HW279023   1.397   5.596   5.161 -0.5194 -0.2680 -4.1661
22322SOL     OW79024   6.946   1.499   0.860  0.1560  0.2338  0.3979
22322SOL    HW179025   7.015   1.427   0.861  1.1811  1.1490 -1.6497
22322SOL    HW279026   6.875   1.477   0.792  0.1059  0.8184  0.2609
22323SOL     OW79027   7.894   3.603   2.541 -0.6470  0.0220  0.7033
22323SOL    HW179028   7.842   3.585   2.624  0.2709  0.1413  1.3100
22323SOL    HW279029   7.977   3.655   2.564  0.8772 -2.0669  0.0417
22324SOL     OW79030   6.759   3.694   3.917  0.3819  0.4397 -0.0899
22324SOL    HW179031   6.806   3.678   3.830  0.3160 -0.0941 -0.0310
22324SOL    HW279032   6.754   3.608   3.968  0.3329  0.7292  0.3990
22325SOL     OW79033   9.829   6.348   1.877 -0.1223 -0.4500 -0.6041
22325SOL    HW179034   9.906   6.331   1.815 -1.2620 -1.3574 -1.7741
22325SOL    HW279035   9.749   6.376   1.824 -0.5765  0.6104  0.6222
22326SOL     OW79036   7.335   3.904   9.986  0.4392 -0.1773 -0.5651
22326SOL    HW179037   7.312   3.875  10.079  1.7474 -0.1368 -0.2120
22326SOL    HW279038   7.372   3.997   9.990 -0.7256  0.3217 -1.2924
22327SOL     OW79039   8.196   1.630   5.145 -0.0043 -0.5713 -0.3453
22327SOL    HW179040   8.293   1.654   5.157  0.0732  0.2139 -2.3772
22327SOL    HW279041   8.190   1.549   5.086 -0.5714 -0.8855  0.1481
22328SOL     OW79042   9.482   0.928   8.594  0.3246 -0.6715  0.5748
22328SOL    HW179043   9.523   0.969   8.675  1.1363  1.1115 -0.7066
22328SOL    HW279044   9.416   0.858   8.622 -0.1711  0.6237  2.7878
22329SOL     OW79045   0.604   4.207   0.405  0.1325 -0.5759 -0.5987
22329SOL    HW179046   0.684   4.259   0.436 -1.1810  1.4745 -0.5294
22329SOL    HW279047   0.542   4.193   0.483  0.3120 -1.9677 -0.6992
22330SOL     OW79048   5.604   2.580   8.803  0.1855 -0.4199  0.3180
22330SOL    HW179049   5.638   2.588   8.709 -1.8701 -0.8481 -0.4934
22330SOL    HW279050   5.667   2.627   8.865  0.5303  1.6498 -1.5182
22331SOL     OW79051   8.817   2.519   2.078  0.2658  0.2268  0.6315
22331SOL    HW179052   8.802   2.515   2.177  0.1437  1.0031  0.6491
22331SOL    HW279053   8.885   2.590   2.057 -0.9270  1.2222  0.0417
22332SOL     OW79054   7.423   4.445   6.807 -0.4104 -0.2863  0.0400
22332SOL    HW179055   7.383   4.493   6.885 -2.1366 -2.4996  0.5885
22332SOL    HW279056   7.372   4.470   6.724 -0.0137  0.3506 -0.0164
22333SOL     OW79057   6.021   3.794   3.560 -0.1676 -0.1592  0.1657
22333SOL    HW179058   6.019   3.777   3.461 -1.9274 -1.0706  0.3447
22333SOL    HW279059   6.098   3.744   3.600  1.6068  1.5900 -0.9687
22334SOL     OW79060   8.992   5.260   6.760  0.6065 -0.4788  0.7273
22334SOL    HW179061   8.935   5.333   6.799  1.8729  0.8343  0.1410
22334SOL    HW279062   9.048   5.219   6.832 -1.3430 -2.0525  1.3894
22335SOL     OW79063   5.580   2.484   0.595 -0.0210 -1.1155 -0.1000
22335SOL    HW179064   5.542   2.482   0.687  1.8977  1.0474  0.8122
22335SOL    HW279065   5.512   2.520   0.531 -0.2204  0.8435  1.1591
22336SOL     OW79066   2.726   2.365   4.763  0.4426 -0.8451  0.0429
22336SOL    HW179067   2.661   2.391   4.692  1.6277  1.5407 -0.1891
22336SOL    HW279068   2.807   2.324   4.720  0.7533 -0.2657  0.0734
22337SOL     OW79069   1.187   2.649   6.225  0.1369  0.3936 -0.0354
22337SOL    HW179070   1.206   2.648   6.323  1.6309 -0.1163 -0.3238
22337SOL    HW279071   1.116   2.582   6.204 -0.0010  0.3206  0.6618
22338SOL     OW79072   9.620   3.661   5.160 -0.1338 -0.1974 -0.0895
22338SOL    HW179073   9.703   3.631   5.206  0.3619  0.1601 -0.7437
22338SOL    HW279074   9.643   3.728   5.090 -1.2957  2.1669  1.7289
22339SOL     OW79075   8.901   6.436   2.499 -0.5323  0.3096  0.5530
22339SOL    HW179076   8.884   6.381   2.580  0.0497 -0.7651 -0.0400
22339SOL    HW279077   8.853   6.523   2.507  0.9274  0.9543  2.8364
22340SOL     OW79078   8.842   0.718   2.860 -0.0716 -0.1310 -0.3229
22340SOL    HW179079   8.797   0.677   2.781  0.3267  0.5415 -0.9030
22340SOL    HW279080   8.795   0.802   2.885 -0.9070 -0.9476  0.8898
22341SOL     OW79081   2.098   3.172   3.943 -0.8824  0.3589  0.9954
22341SOL    HW179082   2.154   3.254   3.947  0.3808 -0.3362 -1.4670
22341SOL    HW279083   2.026   3.185   3.875 -0.0153 -0.9480 -0.1960
22342SOL     OW79084   9.290   5.257   0.442  0.2879  0.3126  0.2544
22342SOL    HW179085   9.360   5.304   0.495 -0.3353 -1.0018  2.3086
22342SOL    HW279086   9.249   5.185   0.498 -1.9181  0.3206 -1.3039
22343SOL     OW79087   7.828   1.019   0.961  0.0811  0.2939  0.5399
22343SOL    HW179088   7.799   1.113   0.978 -0.8865 -0.1022  1.1171
22343SOL    HW279089   7.748   0.959   0.961  0.7466 -0.6043  0.6782
22344SOL     OW79090   1.370   1.311   2.680 -0.6479  0.7630 -0.0598
22344SOL    HW179091   1.314   1.252   2.622 -0.9588  0.4003  0.6087
22344SOL    HW279092   1.435   1.361   2.623  0.8254 -1.5381 -0.4341
22345SOL     OW79093   2.011   0.008   7.151  0.5886 -0.0398 -0.4317
22345SOL    HW179094   2.016  -0.020   7.247  1.9610 -0.3911 -0.6020
22345SOL    HW279095   2.019  -0.073   7.093  0.8216  0.2925 -0.8644
22346SOL     OW79096   7.646   2.082   1.163  0.2552  0.0565 -0.1964
22346SOL    HW179097   7.594   1.998   1.180 -2.2703  0.9778 -3.1062
22346SOL    HW279098   7.650   2.136   1.247 -1.0909 -1.3486  0.7992
22347SOL     OW79099   0.554   1.054   3.206  0.0540  0.5404  0.5400
22347SOL    HW179100   0.650   1.027   3.207  0.4254  1.8006  3.6380
22347SOL    HW279101   0.544   1.142   3.160  0.2763  0.0840 -0.3915
22348SOL     OW79102   9.518   3.270   4.357 -0.2477 -0.3367 -0.5272
22348SOL    HW179103   9.498   3.276   4.455  0.3031 -1.2845 -0.3465
22348SOL    HW279104   9.615   3.287   4.342 -0.3943  0.1395 -0.9480
22349SOL     OW79105   7.541   1.217   2.729  0.6781  0.2779  0.8148
22349SOL    HW179106   7.624   1.269   2.708 -0.5326  2.0283  0.2648
22349SOL    HW279107   7.463   1.279   2.737 -0.6402 -1.3602  1.1331
22350SOL     OW79108   9.990   1.557   3.990 -0.0879  0.6204 -0.2002
22350SOL    HW179109   9.988   1.479   4.053  1.0082  0.3242 -0.5085
22350SOL    HW279110   9.899   1.597   3.983 -1.0205 -1.5877 -1.2115
22351SOL     OW79111   9.896   8.110   5.904 -0.5956 -0.0636 -0.3194
22351SOL    HW179112   9.959   8.037   5.878 -0.2833  0.7395 -1.8910
22351SOL    HW279113   9.887   8.114   6.003  0.5294 -1.2734 -0.1753
22352SOL     OW79114   2.496   7.488   1.651  0.2946  0.2195  0.2410
22352SOL    HW179115   2.432   7.559   1.680  1.1605  1.1871 -0.1619
22352SOL    HW279116   2.486   7.473   1.553 -0.6397 -0.9974  0.5177
22353SOL     OW79117   1.964   4.342   3.729 -0.3217  0.5482  0.2456
22353SOL    HW179118   2.053   4.377   3.702 -0.3732  1.0669  0.7384
22353SOL    HW279119   1.975   4.257   3.779 -0.1202  0.4839  0.0906
22354SOL     OW79120   8.734   9.735   5.852 -0.1794 -0.3263  0.3470
22354SOL    HW179121   8.706   9.817   5.900  0.6241  1.7972 -2.6567
22354SOL    HW279122   8.793   9.679   5.911 -0.9248  1.1068  2.4888
22355SOL     OW79123   6.033   3.224   4.247 -0.5929 -0.0451  0.4850
22355SOL    HW179124   6.065   3.155   4.181  0.7432  0.3389  0.7015
22355SOL    HW279125   6.044   3.188   4.339 -0.1270  0.3508  0.5884
22356SOL     OW79126   8.725   2.429   1.377 -0.1667 -1.1290 -0.1766
22356SOL    HW179127   8.661   2.440   1.453  0.4567 -0.3509  0.2524
22356SOL    HW279128   8.801   2.371   1.407  0.9012  0.4970  0.3333
22357SOL     OW79129   0.340   0.457   1.117  0.0815  0.6657  0.2138
22357SOL    HW179130   0.427   0.462   1.166  0.1943  0.1671  0.0705
22357SOL    HW279131   0.284   0.537   1.140  0.9864  1.5137 -0.4856
22358SOL     OW79132   9.783   3.297   1.761 -0.4060 -0.2033  0.0879
22358SOL    HW179133   9.729   3.216   1.780 -0.3510 -0.8412 -2.2875
22358SOL    HW279134   9.875   3.270   1.732  0.1435  0.7723  0.8593
22359SOL     OW79135   0.278   3.281   0.230  0.6979 -0.3117 -0.7714
22359SOL    HW179136   0.329   3.208   0.184  2.0330 -0.9458  1.5692
22359SOL    HW279137   0.337   3.361   0.240  0.0916  0.1728 -1.0748
22360SOL     OW79138   1.767   6.595   3.013  0.2418 -0.2922  0.0662
22360SOL    HW179139   1.708   6.524   2.976 -0.5401  0.7716 -0.7634
22360SOL    HW279140   1.747   6.609   3.110 -0.9842  0.1643 -0.2476
22361SOL     OW79141   6.262   2.658   1.874  0.1627 -0.4786  0.2812
22361SOL    HW179142   6.331   2.645   1.802 -1.2743 -0.0760 -1.1884
22361SOL    HW279143   6.213   2.572   1.888 -0.4032 -0.2213 -0.1112
22362SOL     OW79144   9.645   0.379   0.854  0.3227 -0.0849 -0.7056
22362SOL    HW179145   9.718   0.399   0.919 -0.1746  0.4312 -0.2868
22362SOL    HW279146   9.642   0.450   0.784  0.2608 -0.1302 -0.7492
22363SOL     OW79147   0.908   5.190   0.096  0.0238  0.1610 -0.3365
22363SOL    HW179148   0.961   5.170   0.179 -1.1123 -0.6929  0.1986
22363SOL    HW279149   0.950   5.267   0.048  2.1425 -0.9376 -0.2908
22364SOL     OW79150   2.101   4.855   4.041 -0.0200  0.6154 -0.2551
22364SOL    HW179151   2.182   4.909   4.021  0.5538  0.4765  1.5632
22364SOL    HW279152   2.048   4.900   4.114 -0.7773 -0.0625 -0.3781
22365SOL     OW79153   8.571   3.383   3.187 -0.0030 -0.3138 -0.3617
22365SOL    HW179154   8.634   3.448   3.145  2.0067 -0.8510  1.7567
22365SOL    HW279155   8.591   3.291   3.152 -0.2137 -0.3633 -0.3497
22366SOL     OW79156   8.025   1.231   9.450 -0.1163  0.2518 -0.5202
22366SOL    HW179157   8.110   1.197   9.490 -0.9139  0.7130  1.5976
22366SOL    HW279158   7.950   1.169   9.473 -0.3426 -0.2688 -2.5615
22367SOL     OW79159   8.369   3.569   8.781  0.9069 -0.1048  0.0309
22367SOL    HW179160   8.292   3.616   8.738  0.7719 -1.7559 -1.6026
22367SOL    HW279161   8.451   3.580   8.725  1.1265 -0.8869  0.1798
22368SOL     OW79162   6.069   0.291   2.297 -0.2892 -0.2036 -0.2537
22368SOL    HW179163   6.016   0.377   2.296 -0.7657 -0.5047 -1.6503
22368SOL    HW279164   6.133   0.293   2.374 -0.9862  0.9903  0.3195
22369SOL     OW79165   7.252   4.391   9.141  0.4391  0.2445 -0.2065
22369SOL    HW179166   7.252   4.349   9.232  1.1145 -1.9517 -1.1812
22369SOL    HW279167   7.194   4.337   9.080 -0.6437  2.1559 -0.9025
22370SOL     OW79168   6.637   5.679   2.166 -0.0556  0.4514 -0.2802
22370SOL    HW179169   6.648   5.729   2.252 -1.5660 -0.7159  0.6221
22370SOL    HW279170   6.628   5.744   2.091 -1.6848  1.5590  0.8320
22371SOL     OW79171   6.728   7.884   2.405  0.1736 -0.7863  0.2839
22371SOL    HW179172   6.701   7.851   2.495  0.8310 -0.6077  0.5513
22371SOL    HW279173   6.672   7.840   2.335 -0.3061 -0.9615  0.7757
22372SOL     OW79174   5.619   2.757   9.210  0.2620  0.6968  0.4003
22372SOL    HW179175   5.620   2.819   9.132 -0.8453  1.6749  1.1613
22372SOL    HW279176   5.533   2.766   9.260 -0.0424 -1.6514  0.3682
22373SOL     OW79177   6.976   1.296   5.460 -0.5954  0.1941  0.4392
22373SOL    HW179178   6.885   1.338   5.467 -0.6946  0.0626 -0.0783
22373SOL    HW279179   7.025   1.335   5.382 -1.2780 -1.7657 -1.0078
22374SOL     OW79180   6.729   2.065   9.698  0.0985 -0.2543 -0.2729
22374SOL    HW179181   6.638   2.105   9.689 -0.6724 -1.7239  0.9177
22374SOL    HW279182   6.797   2.132   9.669 -1.1653  1.8570  1.4913
22375SOL     OW79183   2.490   2.060   3.456 -0.6027 -0.0104  0.5399
22375SOL    HW179184   2.495   2.151   3.416 -0.0174 -0.2720  0.0166
22375SOL    HW279185   2.522   2.063   3.551  2.7635 -0.3102 -0.5352
22376SOL     OW79186   9.849   3.627   5.284 -0.2533 -0.1577 -0.1529
22376SOL    HW179187   9.936   3.645   5.237 -0.1124  0.1720  0.2335
22376SOL    HW279188   9.835   3.695   5.356 -0.7721 -0.2854 -0.1285
22377SOL     OW79189   7.951   6.400   3.060  0.5617 -0.1683 -0.6095
22377SOL    HW179190   7.890   6.423   2.984  0.4413 -0.9605 -0.7562
22377SOL    HW279191   7.968   6.302   3.060  0.4822 -0.1874  0.4484
22378SOL     OW79192   7.319   2.448   2.129  0.2197  0.7304  0.1154
22378SOL    HW179193   7.357   2.378   2.190  3.6012  3.0950  0.9122
22378SOL    HW279194   7.323   2.537   2.175 -2.6335  1.6956 -1.4051
22379SOL     OW79195   1.245   7.846   5.905 -0.2274 -0.3638 -0.3568
22379SOL    HW179196   1.157   7.892   5.892 -0.8319 -1.0969  0.9405
22379SOL    HW279197   1.238   7.752   5.871 -1.0238 -1.4768  2.6437
22380SOL     OW79198   2.091   8.391   1.180  0.2128  0.2052 -0.3735
22380SOL    HW179199   2.091   8.465   1.112  2.6547  0.8459  0.2931
22380SOL    HW279200   2.147   8.417   1.258 -0.2986 -1.6696  0.6409
22381SOL     OW79201   9.485   7.462   9.254  0.3656  0.0665  0.7347
22381SOL    HW179202   9.483   7.389   9.185  0.0945  0.8802 -0.1229
22381SOL    HW279203   9.475   7.422   9.345  1.6248 -1.1134  0.3717
22382SOL     OW79204   7.480   5.479   2.043 -0.3456 -0.0788  0.0713
22382SOL    HW179205   7.526   5.497   1.956  0.9325 -1.4941  0.4286
22382SOL    HW279206   7.450   5.565   2.084  0.4191  0.7209 -1.0309
22383SOL     OW79207   7.461   2.188   1.962  0.0259 -0.4937 -0.2524
22383SOL    HW179208   7.457   2.190   2.062 -0.1739  1.7176 -0.2863
22383SOL    HW279209   7.371   2.211   1.925  0.1667 -1.0472 -0.9541
22384SOL     OW79210   0.414   9.732   4.356 -0.5640 -0.0675  0.3753
22384SOL    HW179211   0.326   9.775   4.378  0.7143  1.5267  2.5828
22384SOL    HW279212   0.436   9.665   4.426  0.1804 -0.1492  0.0633
22385SOL     OW79213   6.714   1.722   1.506 -0.0657  0.5839  0.5816
22385SOL    HW179214   6.711   1.703   1.604 -0.2608  0.4681  0.5520
22385SOL    HW279215   6.632   1.687   1.462 -0.0602  0.7913  0.4027
22386SOL     OW79216   8.094   6.376   3.443  0.4076  0.0638  0.2083
22386SOL    HW179217   8.026   6.309   3.473  1.5072 -1.0009  0.3889
22386SOL    HW279218   8.156   6.332   3.377  0.9349  1.0055  0.0726
22387SOL     OW79219   8.948   8.729   2.827  0.3038  0.5965  0.4993
22387SOL    HW179220   8.860   8.704   2.870  0.3855  0.7519  0.7561
22387SOL    HW279221   8.963   8.671   2.747  0.1964  0.2355  0.7372
22388SOL     OW79222   5.905   9.540   5.704  0.5838  0.2698  0.9007
22388SOL    HW179223   5.931   9.603   5.778 -0.3831  2.1078 -0.2744
22388SOL    HW279224   5.828   9.579   5.653  1.5114 -0.7434 -1.3555
22389SOL     OW79225   6.627   3.352   1.180  0.1804 -0.1328  0.1825
22389SOL    HW179226   6.578   3.344   1.094 -0.9083  1.3641  0.6455
22389SOL    HW279227   6.592   3.431   1.232  3.2250  1.1542  0.4075
22390SOL     OW79228   6.651   3.460   8.380 -0.4688  0.2853 -0.0874
22390SOL    HW179229   6.706   3.446   8.297 -1.5763 -2.0519 -0.4650
22390SOL    HW279230   6.702   3.516   8.444  1.8961 -0.8205 -0.9327
22391SOL     OW79231   1.988   4.062   6.337  0.0989 -0.6387  0.5109
22391SOL    HW179232   2.029   4.055   6.428  0.0185  2.5784  0.8526
22391SOL    HW279233   2.058   4.087   6.270 -0.3999  0.0973  0.2513
22392SOL     OW79234   2.298   3.794   7.080  0.2446 -0.5008  0.2476
22392SOL    HW179235   2.256   3.884   7.089 -0.9541 -1.1982  1.8800
22392SOL    HW279236   2.366   3.796   7.007  0.1898  1.7084  0.2254
22393SOL     OW79237   7.219   4.464   1.386  0.0958 -0.8355  0.1199
22393SOL    HW179238   7.156   4.476   1.309 -1.8679 -0.4679  1.7369
22393SOL    HW279239   7.213   4.370   1.420 -0.7500 -0.3881  1.2465
22394SOL     OW79240   7.609   2.530   7.291  0.3176  0.3991 -0.5360
22394SOL    HW179241   7.565   2.455   7.342 -0.7420  0.7815 -0.8699
22394SOL    HW279242   7.698   2.549   7.331  0.1716 -0.3741  0.1830
22395SOL     OW79243   0.219   7.715   3.082 -0.8817 -0.7333  0.1153
22395SOL    HW179244   0.210   7.705   3.181  0.7332 -1.5150  0.1911
22395SOL    HW279245   0.130   7.700   3.039 -1.5235 -0.7062  1.4166
22396SOL     OW79246   1.258   4.984   8.472 -0.3815 -0.4973  0.9549
22396SOL    HW179247   1.338   5.042   8.486 -1.2878  0.6181  1.5706
22396SOL    HW279248   1.224   4.995   8.379 -0.5213 -0.0651  1.0558
22397SOL     OW79249   8.184   9.601   6.627 -0.2311  0.3105 -0.4036
22397SOL    HW179250   8.254   9.554   6.573  0.5403  0.2396  0.6373
22397SOL    HW279251   8.098   9.551   6.620 -0.2809  0.5887 -1.9707
22398SOL     OW79252   6.743   4.521   2.788 -0.1674  0.2816  0.0903
22398SOL    HW179253   6.784   4.468   2.713  1.3044 -1.1562  1.8577
22398SOL    HW279254   6.779   4.614   2.786  1.0504 -0.1810 -0.0991
22399SOL     OW79255   5.705   6.803   3.568  0.1093  0.0420  0.0997
22399SOL    HW179256   5.748   6.778   3.482 -0.3773 -0.5960  0.0399
22399SOL    HW279257   5.637   6.875   3.552  0.5383  0.4485  0.0689
22400SOL     OW79258   3.621   6.318   2.186 -0.0948  0.2430  0.0839
22400SOL    HW179259   3.549   6.259   2.149  1.0223 -0.4555 -1.0387
22400SOL    HW279260   3.705   6.264   2.196 -0.1994  0.5795  3.0896
22401SOL     OW79261   6.459   6.071   7.439 -0.2544  0.4798  0.0133
22401SOL    HW179262   6.408   6.143   7.391  0.2632  0.6133 -0.3493
22401SOL    HW279263   6.428   6.066   7.534 -2.2545 -0.7063 -0.6677
22402SOL     OW79264   7.222   2.729   5.817  0.2445  0.4482  0.0590
22402SOL    HW179265   7.183   2.640   5.840 -0.7767  0.7022 -0.6334
22402SOL    HW279266   7.266   2.724   5.727  0.0322  0.6802 -0.0605
22403SOL     OW79267   8.393   1.802   0.081  0.2945  0.3702  0.6052
22403SOL    HW179268   8.444   1.725   0.119 -0.2746  0.3728  1.3795
22403SOL    HW279269   8.414   1.811  -0.017  0.1973 -0.9073  0.4578
22404SOL     OW79270   1.587   0.156   3.068 -0.0479 -0.2699  0.4241
22404SOL    HW179271   1.680   0.158   3.104 -0.4197 -2.0788  1.5000
22404SOL    HW279272   1.548   0.248   3.071  1.8525  0.5828 -0.4497
22405SOL     OW79273   8.139   8.194   4.929  0.0479  0.3970 -0.4712
22405SOL    HW179274   8.114   8.257   5.003 -0.0835 -1.3207  0.9935
22405SOL    HW279275   8.239   8.181   4.929 -0.0455 -0.4305  0.1393
22406SOL     OW79276   1.269   3.151   3.660  0.8656  0.4138 -0.4855
22406SOL    HW179277   1.271   3.152   3.560 -1.0277 -3.0151 -0.6452
22406SOL    HW279278   1.175   3.164   3.692  1.1978 -0.2106  0.7979
22407SOL     OW79279   0.997   1.603   0.669  0.0946 -0.6723 -0.2729
22407SOL    HW179280   0.973   1.557   0.754 -1.4912 -0.2848 -0.4913
22407SOL    HW279281   1.029   1.696   0.689  0.6686 -0.9193 -0.0332
22408SOL     OW79282   0.599   2.305   2.608 -0.3179  0.3578 -0.1500
22408SOL    HW179283   0.687   2.350   2.594  0.7372 -1.7876 -0.6320
22408SOL    HW279284   0.567   2.323   2.701  0.1961  1.8741 -0.2590
22409SOL     OW79285   8.030   3.422   5.623  0.3562 -0.0556  0.2400
22409SOL    HW179286   8.034   3.517   5.591 -0.2972  0.2219  0.9751
22409SOL    HW279287   7.935   3.398   5.645  0.1130 -1.7133 -2.4259
22410SOL     OW79288   0.129   9.507   4.420 -0.4588 -0.0877 -0.4004
22410SOL    HW179289   0.149   9.587   4.477 -2.4207 -1.7187  2.7521
22410SOL    HW279290   0.092   9.537   4.332  0.6117  2.4888 -0.0202
22411SOL     OW79291   6.657   6.628   9.366  0.0231  0.1910 -0.4605
22411SOL    HW179292   6.630   6.617   9.462  0.1833  1.9089 -0.2021
22411SOL    HW279293   6.618   6.713   9.330 -1.0703 -1.0608 -2.3042
22412SOL     OW79294   3.701   0.675   6.409 -0.1082  0.0542 -0.0699
22412SOL    HW179295   3.607   0.683   6.440 -0.1429  0.5617 -0.3075
22412SOL    HW279296   3.745   0.765   6.409  0.5279 -0.2459  0.5143
22413SOL     OW79297   3.083   2.209   4.904 -0.6239 -0.2212  0.6698
22413SOL    HW179298   3.164   2.186   4.850  0.1190 -0.4160  1.8392
22413SOL    HW279299   3.105   2.283   4.967 -1.0993 -0.8632  1.6052
22414SOL     OW79300   9.607   0.109   4.264  0.5121  0.1815  0.1509
22414SOL    HW179301   9.519   0.080   4.225  1.8029 -2.6714 -0.6933
22414SOL    HW279302   9.626   0.203   4.234 -1.3328  0.1544 -1.2429
22415SOL     OW79303   4.751   3.972   2.268 -0.3839  0.3213 -0.4995
22415SOL    HW179304   4.726   3.994   2.174  1.0760 -1.0582 -1.2183
22415SOL    HW279305   4.784   3.878   2.274 -1.0715  0.1738  1.5092
22416SOL     OW79306   5.455   9.921   0.948 -0.1858 -0.0285  0.3973
22416SOL    HW179307   5.452   9.821   0.935  0.7755  0.0686 -0.6875
22416SOL    HW279308   5.372   9.962   0.910  0.5683 -0.1945 -1.5279
22417SOL     OW79309   2.066   2.277   5.503 -0.4707 -0.5176 -0.4366
22417SOL    HW179310   2.102   2.369   5.519  0.4068 -0.8422 -0.5389
22417SOL    HW279311   1.966   2.280   5.507 -0.4136  0.2281  0.6491
22418SOL     OW79312   8.887   7.314   3.344  0.0003 -0.6585  0.4163
22418SOL    HW179313   8.818   7.369   3.392 -0.3763 -0.7856  0.0282
22418SOL    HW279314   8.942   7.373   3.285  1.0242 -0.3697  1.6428
22419SOL     OW79315   8.449   1.472   1.336 -0.3665  0.2841  0.2678
22419SOL    HW179316   8.411   1.480   1.428 -1.6894 -0.2994 -0.2118
22419SOL    HW279317   8.424   1.384   1.297  0.8135  0.2275 -0.3720
22420SOL     OW79318   1.476   0.885   5.353  0.2107  0.0374  0.2422
22420SOL    HW179319   1.517   0.953   5.292  1.0870  0.1586  0.9633
22420SOL    HW279320   1.458   0.926   5.442 -1.3138 -0.0670  0.0052
22421SOL     OW79321   6.480   7.504   3.191  0.0362 -0.4707 -0.1996
22421SOL    HW179322   6.516   7.411   3.197  0.4411 -0.1961  2.0977
22421SOL    HW279323   6.470   7.542   3.283  0.5847  2.0428 -1.1303
22422SOL     OW79324   4.229   1.781   1.422  0.2373  0.1350  0.1778
22422SOL    HW179325   4.210   1.683   1.413  1.3472 -0.1214  0.5105
22422SOL    HW279326   4.291   1.796   1.499 -1.4776  1.3087  1.3759
22423SOL     OW79327   0.220   2.267   5.213  0.1607  0.4070  0.7201
22423SOL    HW179328   0.186   2.196   5.151 -0.6812 -1.2644  3.0290
22423SOL    HW279329   0.172   2.353   5.196  0.4168  0.1570 -1.3720
22424SOL     OW79330   5.339   3.994   2.597 -0.2108  0.3155  0.2144
22424SOL    HW179331   5.429   3.999   2.555  0.1583 -0.5832  0.8753
22424SOL    HW279332   5.349   3.975   2.695 -1.1679 -2.6659 -0.2115
22425SOL     OW79333   8.019   0.586   0.999  0.3675  0.0256  0.1559
22425SOL    HW179334   7.997   0.556   1.092 -0.1743 -0.6099 -0.1774
22425SOL    HW279335   8.042   0.506   0.943 -0.6376  0.2774 -0.6184
22426SOL     OW79336   9.590   5.170   6.895 -0.4849 -0.0805  0.6213
22426SOL    HW179337   9.553   5.097   6.952  1.0451 -1.1345  0.2894
22426SOL    HW279338   9.644   5.131   6.820  1.7910  1.4023  1.4253
22427SOL     OW79339   6.880   1.907   9.844  0.2448 -0.2592 -0.1190
22427SOL    HW179340   6.834   1.823   9.872 -0.0462  0.6013  2.1122
22427SOL    HW279341   6.814   1.968   9.800 -0.3131  0.0793  1.1371
22428SOL     OW79342   3.672   9.399   3.136 -0.1890  0.2282 -0.2279
22428SOL    HW179343   3.580   9.362   3.131  0.0018 -0.1818 -0.8630
22428SOL    HW279344   3.681   9.458   3.216 -1.1830  0.7674 -0.5063
22429SOL     OW79345   8.325   9.069   5.528  0.3592  0.5321  0.0148
22429SOL    HW179346   8.295   9.087   5.435 -0.3376 -0.1630  0.0995
22429SOL    HW279347   8.265   9.116   5.593  1.2659  1.5929  0.1004
22430SOL     OW79348   8.552   4.692   2.951  0.2237  0.0322  0.2346
22430SOL    HW179349   8.598   4.713   3.037 -0.3091  0.5635  0.3993
22430SOL    HW279350   8.578   4.759   2.882 -2.3901  2.0376  1.0854
22431SOL     OW79351   6.433   9.128   2.880  0.4754  0.7068 -0.2248
22431SOL    HW179352   6.480   9.042   2.899  0.4947  0.2500 -2.1739
22431SOL    HW279353   6.341   9.126   2.920  0.2015 -0.5465 -0.8710
22432SOL     OW79354   5.706   9.810   6.390  0.4717  0.3215 -0.3994
22432SOL    HW179355   5.638   9.738   6.377  0.7637 -0.2230  0.9345
22432SOL    HW279356   5.779   9.776   6.450  0.2749  1.9263  0.7908
22433SOL     OW79357   7.590   1.521   1.797 -0.0159 -0.5576 -0.1796
22433SOL    HW179358   7.568   1.424   1.789  0.5182 -0.7496  0.6241
22433SOL    HW279359   7.672   1.532   1.853  0.5859  0.2949 -1.2049
22434SOL     OW79360   0.676   5.412   3.072 -0.2959 -0.3738 -0.2021
22434SOL    HW179361   0.722   5.479   3.013  1.6748 -2.6088 -1.2651
22434SOL    HW279362   0.676   5.323   3.027 -1.4136 -1.4661  1.9100
22435SOL     OW79363   8.869   6.266   4.465 -0.0672  0.1248 -0.2792
22435SOL    HW179364   8.876   6.167   4.448  1.0804  0.3120 -0.9217
22435SOL    HW279365   8.959   6.302   4.486 -0.2087  1.3566 -1.7329
22436SOL     OW79366   9.127   2.733   3.866  0.1774 -0.4763  0.5536
22436SOL    HW179367   9.037   2.712   3.829 -0.6795  0.9491  1.7642
22436SOL    HW279368   9.146   2.675   3.945 -0.2930  0.1915  1.1639
22437SOL     OW79369   7.601   5.584   8.403 -0.2918 -0.5452 -0.5533
22437SOL    HW179370   7.589   5.565   8.306 -1.4499 -1.1672 -0.2875
22437SOL    HW279371   7.671   5.523   8.440  0.2918 -0.1732 -1.0352
22438SOL     OW79372   9.889   3.758   3.194  0.3885 -0.6732  0.5777
22438SOL    HW179373   9.938   3.760   3.282  1.4235 -1.5366  0.0392
22438SOL    HW279374   9.924   3.682   3.139  0.0638  0.1401 -0.7632
22439SOL     OW79375   3.204   5.729   3.391  0.0731 -0.2324  0.4932
22439SOL    HW179376   3.205   5.734   3.291  0.0941 -0.5400  0.4785
22439SOL    HW279377   3.127   5.673   3.421  1.0381 -1.5168  0.5935
22440SOL     OW79378   3.433   5.319   2.645 -0.4790 -0.0054  0.4146
22440SOL    HW179379   3.479   5.407   2.639 -0.1712 -0.1757  0.2863
22440SOL    HW279380   3.500   5.247   2.663 -0.5468 -0.4107 -0.9659
22441SOL     OW79381   4.954   5.313   9.799 -0.4694 -0.2057  0.1313
22441SOL    HW179382   5.022   5.307   9.872 -0.4921  1.4176  0.2948
22441SOL    HW279383   4.914   5.404   9.798 -0.8491 -0.3734 -1.5773
22442SOL     OW79384   6.950   1.141   2.268 -0.0463  0.2070 -0.1276
22442SOL    HW179385   6.912   1.212   2.209 -0.4192  0.8130  0.8305
22442SOL    HW279386   6.894   1.058   2.261 -0.5313  0.5263 -0.0569
22443SOL     OW79387   7.047   9.472   9.310  0.0755 -0.2859  0.0970
22443SOL    HW179388   6.973   9.508   9.365  1.8131  0.2766  2.1462
22443SOL    HW279389   7.098   9.404   9.363  1.3656 -0.2391 -1.0520
22444SOL     OW79390   6.419   0.824   2.566 -0.3258 -0.8918  0.1389
22444SOL    HW179391   6.460   0.770   2.493 -1.7028 -1.3063 -0.3433
22444SOL    HW279392   6.319   0.820   2.559 -0.4635  0.9895  0.6206
22445SOL     OW79393   9.661   9.484   2.000 -0.5142  0.1857  0.0833
22445SOL    HW179394   9.601   9.408   1.976 -0.8951  0.8755 -1.2112
22445SOL    HW279395   9.726   9.500   1.925 -0.0224  0.7281  0.6190
22446SOL     OW79396   1.016   0.209   1.927 -0.0119 -0.1859 -0.0398
22446SOL    HW179397   0.980   0.237   2.015  1.5828  0.1122  0.5310
22446SOL    HW279398   0.993   0.278   1.858 -1.5013 -0.5586  0.0719
22447SOL     OW79399   3.680   2.808   7.002 -0.1106  0.2887 -1.1265
22447SOL    HW179400   3.626   2.763   6.930 -1.0143  1.3873 -1.1560
22447SOL    HW279401   3.634   2.893   7.030  1.9906  1.6569 -1.6837
22448SOL     OW79402   1.246   9.393   0.286 -0.3053  0.0341  0.0615
22448SOL    HW179403   1.198   9.460   0.342 -0.5789  0.3940 -0.6071
22448SOL    HW279404   1.336   9.375   0.326 -0.9576 -0.5982  1.2847
22449SOL     OW79405   8.235   5.203   3.776  0.3416  0.4933  0.4273
22449SOL    HW179406   8.277   5.204   3.685  0.5504 -3.5519  0.3835
22449SOL    HW279407   8.159   5.267   3.779 -0.0866  0.1990 -2.8080
22450SOL     OW79408   5.356   4.037   1.780  0.0596  0.3202 -0.0591
22450SOL    HW179409   5.300   4.090   1.716 -0.0293 -0.6463 -0.8037
22450SOL    HW279410   5.429   3.990   1.729 -1.8405 -2.8937  0.0596
22451SOL     OW79411   0.431   4.214   3.021  0.0513 -0.1207 -0.6040
22451SOL    HW179412   0.470   4.218   3.113  0.3711 -1.7839 -0.6515
22451SOL    HW279413   0.339   4.177   3.025 -0.7202  1.7548 -0.7375
22452SOL     OW79414   6.483   2.171   1.093 -0.3059 -0.5856  0.8597
22452SOL    HW179415   6.462   2.247   1.155 -0.8332 -0.6057  0.7020
22452SOL    HW279416   6.465   2.198   0.999 -2.5075 -1.5888  0.9573
22453SOL     OW79417   4.548   3.284   6.413 -0.0738  0.3506  0.1194
22453SOL    HW179418   4.629   3.286   6.354 -0.1943  0.3894 -0.0469
22453SOL    HW279419   4.545   3.368   6.468 -0.4175  0.7103 -0.4453
22454SOL     OW79420   9.819   0.451   1.027  0.0002  0.0507 -0.5567
22454SOL    HW179421   9.880   0.372   1.021  0.5845  0.5602 -1.3923
22454SOL    HW279422   9.794   0.466   1.122  1.0703 -0.2466 -0.2188
22455SOL     OW79423   2.106   3.680   5.420 -0.6865 -0.6404 -0.3217
22455SOL    HW179424   2.063   3.595   5.391  0.3137 -1.7272  1.3828
22455SOL    HW279425   2.064   3.712   5.505 -0.5566  0.1853 -0.5596
22456SOL     OW79426   7.491   3.168   3.244  0.3936 -0.4705  0.4632
22456SOL    HW179427   7.398   3.206   3.233  0.2911 -1.0386 -0.7073
22456SOL    HW279428   7.556   3.227   3.196  0.6954  0.1473  1.6235
22457SOL     OW79429   9.106   1.717   2.435 -0.1569 -0.3272 -0.1619
22457SOL    HW179430   9.021   1.771   2.438 -2.0944 -3.2642 -0.0820
22457SOL    HW279431   9.109   1.665   2.350  2.4718  1.1071 -0.9681
22458SOL     OW79432   3.517   1.639   4.808 -0.0748 -0.1801  0.2513
22458SOL    HW179433   3.468   1.672   4.727  0.3563 -2.1311 -0.8259
22458SOL    HW279434   3.451   1.612   4.878 -0.4416  2.5466  1.0190
22459SOL     OW79435   5.981   4.655   4.851  0.0608 -0.4834 -0.1196
22459SOL    HW179436   5.895   4.651   4.901  1.2208 -0.1842  2.0082
22459SOL    HW279437   5.964   4.656   4.753 -2.3148 -0.9647  0.2705
22460SOL     OW79438   1.134   3.138   6.042 -0.3479 -0.0742 -0.5803
22460SOL    HW179439   1.119   3.187   5.956 -0.7884 -0.2601 -0.6095
22460SOL    HW279440   1.150   3.041   6.022 -0.0364 -0.0456 -0.4805
22461SOL     OW79441   7.041   5.201   1.656 -0.7775 -0.1039  0.0461
22461SOL    HW179442   6.962   5.145   1.631 -0.0250  0.3320 -3.5971
22461SOL    HW279443   7.123   5.143   1.659 -0.3200  0.4127 -1.8314
22462SOL     OW79444   8.421   7.744   6.003 -0.1121 -0.2695  0.3050
22462SOL    HW179445   8.443   7.836   5.970 -0.1103 -0.3164  0.1770
22462SOL    HW279446   8.502   7.703   6.045  0.5865 -1.2051 -1.8827
22463SOL     OW79447   2.749   8.672   1.690 -0.5558 -0.2911 -0.3155
22463SOL    HW179448   2.686   8.661   1.614  1.6216  1.4886 -2.4413
22463SOL    HW279449   2.747   8.767   1.722 -1.0853 -0.9032  1.5702
22464SOL     OW79450   9.063   5.103   4.558  0.0661  0.3084 -0.3928
22464SOL    HW179451   9.059   5.173   4.487  0.4753 -1.2146 -1.9567
22464SOL    HW279452   9.158   5.089   4.585  0.0943 -0.3466 -0.8167
22465SOL     OW79453   0.674   1.057   6.636 -0.1603  0.3564 -0.4210
22465SOL    HW179454   0.690   0.961   6.662 -1.2806  0.4904  0.8477
22465SOL    HW279455   0.673   1.065   6.537  0.8472 -0.7991 -0.5355
22466SOL     OW79456   3.336   3.724   0.326  0.0023 -0.0608 -0.5449
22466SOL    HW179457   3.378   3.797   0.379 -0.5932  0.5374 -0.8927
22466SOL    HW279458   3.240   3.747   0.307 -0.0697 -0.7293 -1.0190
22467SOL     OW79459   1.034   0.026   3.316  0.5905 -0.2570  0.4632
22467SOL    HW179460   1.061   0.121   3.331 -0.1261 -0.2115  1.5128
22467SOL    HW279461   0.949   0.007   3.365  1.7845 -1.9989  1.9384
22468SOL     OW79462   5.415   0.755   4.297  0.6635 -0.2986  0.2747
22468SOL    HW179463   5.334   0.798   4.259  0.1252 -2.9435 -1.7425
22468SOL    HW279464   5.485   0.746   4.226 -0.0225 -4.5171  0.0125
22469SOL     OW79465   8.772   4.090   7.178  0.0711  0.0120  1.3002
22469SOL    HW179466   8.760   4.029   7.256  2.1241  1.1539  2.5736
22469SOL    HW279467   8.737   4.181   7.200 -0.8783 -0.0822  0.2514
22470SOL     OW79468   2.194   9.585   6.453  0.9861  0.0013 -0.0617
22470SOL    HW179469   2.256   9.508   6.440  1.1988  0.3967 -1.4336
22470SOL    HW279470   2.139   9.599   6.371 -1.4939 -0.8215  1.4018
22471SOL     OW79471   4.923   4.075   1.882 -0.3531 -0.6918 -0.6232
22471SOL    HW179472   4.985   4.121   1.819 -0.5237 -1.8237 -1.6301
22471SOL    HW279473   4.954   4.089   1.976  1.3899 -1.2251 -1.1167
22472SOL     OW79474   6.778   0.474   9.621 -0.4118  0.0899  0.3314
22472SOL    HW179475   6.823   0.412   9.558 -0.5961  0.4888 -0.2008
22472SOL    HW279476   6.751   0.425   9.704  0.5324 -0.2585  0.4311
22473SOL     OW79477   3.070   0.765   1.491  0.1414  0.3936  0.4512
22473SOL    HW179478   3.119   0.820   1.423 -0.2182  0.4539  0.2339
22473SOL    HW279479   3.074   0.809   1.580  1.9784 -0.4895  0.8211
22474SOL     OW79480   6.270   4.749   9.915 -0.6297 -0.0530  0.5082
22474SOL    HW179481   6.288   4.653   9.894  1.0810  0.4794 -0.5421
22474SOL    HW279482   6.280   4.804   9.832  1.2701  1.4272  1.6658
22475SOL     OW79483   6.381   0.607   1.864  0.0328  0.4638  0.1049
22475SOL    HW179484   6.383   0.702   1.833  0.0356  0.2448 -0.5733
22475SOL    HW279485   6.335   0.550   1.795 -3.5713  0.6010  2.2745
22476SOL     OW79486   5.640   0.120   0.507 -0.3504  0.0660 -0.0534
22476SOL    HW179487   5.557   0.143   0.558  0.7505  0.6467  1.5348
22476SOL    HW279488   5.669   0.027   0.532 -0.5879 -0.1804 -0.6930
22477SOL     OW79489   6.124   1.484   0.726 -0.2494  0.0037 -0.2550
22477SOL    HW179490   6.060   1.511   0.653  0.5585  0.9003 -0.6558
22477SOL    HW279491   6.205   1.542   0.720  0.0787 -0.3312  0.9954
22478SOL     OW79492   8.981   0.951   1.193  0.2512  0.4783  0.4261
22478SOL    HW179493   8.953   0.944   1.097  1.2235  1.3065  0.0692
22478SOL    HW279494   8.905   0.987   1.248 -0.0761  0.6887 -0.1613
22479SOL     OW79495   9.824   4.816   0.372  0.5165 -0.3041  0.4522
22479SOL    HW179496   9.736   4.772   0.392 -0.5167  1.8182  0.7057
22479SOL    HW279497   9.885   4.750   0.328 -0.4703 -2.4013  2.1205
22480SOL     OW79498   5.738   5.147   0.110  0.5892  0.1224  0.0765
22480SOL    HW179499   5.792   5.065   0.130 -0.5959 -0.9840 -1.1428
22480SOL    HW279500   5.697   5.181   0.194  0.3876 -1.0404  0.4584
22481SOL     OW79501   8.577   1.768   4.991  0.4202  0.6463  0.3880
22481SOL    HW179502   8.549   1.861   4.967  0.4693  0.8640  1.1716
22481SOL    HW279503   8.676   1.766   5.006  0.5464  0.2915 -0.4243
22482SOL     OW79504   8.844   0.856   3.867 -0.0675  0.5172 -0.1511
22482SOL    HW179505   8.896   0.813   3.794 -2.2207  0.8070 -1.9213
22482SOL    HW279506   8.888   0.941   3.895  1.3155 -0.1172 -0.3952
22483SOL     OW79507   2.842   2.357   1.744  0.0361  0.2298 -0.6591
22483SOL    HW179508   2.848   2.429   1.814  0.3233 -0.3721 -0.0588
22483SOL    HW279509   2.870   2.270   1.784  1.5326  0.1246 -1.9017
22484SOL     OW79510   6.422   6.617   5.719 -0.0590 -0.0059 -0.4444
22484SOL    HW179511   6.400   6.713   5.700  1.8671  0.0378 -2.6178
22484SOL    HW279512   6.355   6.558   5.673  0.4546  0.2510 -1.5431
22485SOL     OW79513   9.727   0.132   5.170  0.2523 -0.2520  0.0191
22485SOL    HW179514   9.728   0.228   5.143 -0.7684  0.2411  1.6561
22485SOL    HW279515   9.647   0.087   5.129  2.0568 -1.0678 -2.7948
22486SOL     OW79516   0.789   7.034   7.459  0.3975  0.1972  0.2864
22486SOL    HW179517   0.703   7.045   7.509 -0.0187  0.0366 -0.3931
22486SOL    HW279518   0.866   7.051   7.521 -0.1329  1.3779  0.6362
22487SOL     OW79519   2.019   8.487   4.077  0.2556  0.0675  0.3620
22487SOL    HW179520   2.072   8.551   4.022  1.4884 -1.8022 -0.6800
22487SOL    HW279521   1.955   8.437   4.018 -0.8908  0.4921  1.2101
22488SOL     OW79522   3.417   5.267   3.517 -0.0498  0.7490 -0.2689
22488SOL    HW179523   3.485   5.224   3.458  0.0156  0.9922 -0.3701
22488SOL    HW279524   3.365   5.335   3.465  0.7284  1.7373  0.2101
22489SOL     OW79525   9.639   0.764   0.953  0.1632 -0.1549  0.3001
22489SOL    HW179526   9.669   0.681   0.906  1.1016  1.2132 -1.6203
22489SOL    HW279527   9.541   0.776   0.939  0.2309 -0.3630 -0.4013
22490SOL     OW79528   5.467   3.730   1.187 -0.2719  0.2789  0.0014
22490SOL    HW179529   5.477   3.633   1.207  0.3996  0.5975  1.2940
22490SOL    HW279530   5.424   3.776   1.265 -3.4300  0.5283 -1.8024
22491SOL     OW79531   4.413   4.350   2.017  0.3062  0.3442  0.3754
22491SOL    HW179532   4.408   4.332   1.919 -1.5655  1.4465  0.2472
22491SOL    HW279533   4.506   4.381   2.041  1.2593 -1.6032 -0.7216
22492SOL     OW79534   1.579   3.019   7.287  0.1579  0.1718  0.0921
22492SOL    HW179535   1.616   3.054   7.201  0.8124  2.8452  1.4135
22492SOL    HW279536   1.486   2.986   7.273  0.7628 -0.7568 -1.9221
22493SOL     OW79537   3.220   4.988   2.101  0.3656  0.6205  0.0594
22493SOL    HW179538   3.229   4.890   2.118  2.8912  0.9733  0.9795
22493SOL    HW279539   3.205   5.036   2.187 -0.7054  1.0685 -0.3687
22494SOL     OW79540   9.177   5.688   0.950 -0.0149 -0.3490 -0.0908
22494SOL    HW179541   9.093   5.664   0.999 -1.3076  0.5541 -1.8206
22494SOL    HW279542   9.217   5.769   0.992 -0.1244 -0.6498  0.6035
22495SOL     OW79543   8.034   1.558   4.745  0.4450 -0.1054  0.7176
22495SOL    HW179544   7.998   1.485   4.802 -0.8979  0.5316  0.7116
22495SOL    HW279545   8.010   1.647   4.785  1.7469  0.3318  0.5443
22496SOL     OW79546   6.500   1.615   4.233 -0.6037  0.4930  0.3240
22496SOL    HW179547   6.530   1.555   4.158  1.3124  0.1872  1.3124
22496SOL    HW279548   6.401   1.618   4.234 -0.6975 -0.8159 -1.2085
22497SOL     OW79549   4.572   1.415   2.869  0.3216  0.2005  0.7984
22497SOL    HW179550   4.541   1.473   2.793  0.9317 -1.3404 -0.6729
22497SOL    HW279551   4.656   1.453   2.908  0.0280  0.9827  0.6782
22498SOL     OW79552   8.570   5.349   3.450 -0.3216  0.3956  0.2648
22498SOL    HW179553   8.622   5.276   3.494 -1.4598 -0.6352 -0.0683
22498SOL    HW279554   8.626   5.392   3.379  0.0914 -0.6442 -0.0475
22499SOL     OW79555   8.860   0.797   4.358 -0.6096 -0.3703  0.0710
22499SOL    HW179556   8.837   0.893   4.379 -0.5078 -0.4343  0.4830
22499SOL    HW279557   8.945   0.794   4.307  0.4012 -0.3489  1.7048
22500SOL     OW79558   0.213   9.919   6.043  0.3227  0.0565  0.3785
22500SOL    HW179559   0.271   9.838   6.046  1.4801  0.8073 -0.9891
22500SOL    HW279560   0.138   9.904   5.978 -0.0953 -0.3104  0.9390
22501SOL     OW79561   9.908   7.831   2.426  0.2702  0.3388  0.8503
22501SOL    HW179562   9.879   7.742   2.460  0.4017  0.7500  2.0555
22501SOL    HW279563  10.007   7.840   2.433  0.4606 -0.0732 -0.8965
22502SOL     OW79564   9.664   1.295   3.603 -0.2675  0.1673  0.3135
22502SOL    HW179565   9.564   1.289   3.602 -0.2265 -0.5384  0.1269
22502SOL    HW279566   9.700   1.251   3.521  0.2419 -0.3999  0.8454
22503SOL     OW79567   5.750   0.534   0.225 -0.6394 -0.2025 -0.2846
22503SOL    HW179568   5.762   0.490   0.136 -0.0558 -0.5160 -0.0521
22503SOL    HW279569   5.685   0.609   0.216 -2.3417 -1.6840 -0.4741
22504SOL     OW79570   4.543   6.949   3.997 -0.2046 -0.1671 -0.3225
22504SOL    HW179571   4.619   6.943   4.063 -1.9328 -1.3368  1.6264
22504SOL    HW279572   4.490   7.031   4.015 -0.5881 -0.4058 -0.3644
22505SOL     OW79573   0.695   1.757   5.122  0.1203 -0.3171 -0.0758
22505SOL    HW179574   0.674   1.686   5.054  0.3329 -1.0657  0.6258
22505SOL    HW279575   0.684   1.847   5.081 -1.6948 -0.7239 -0.5509
22506SOL     OW79576   8.991   2.216   0.936 -0.3984 -0.1852  0.3416
22506SOL    HW179577   8.986   2.276   1.016  1.0270  0.5100 -0.0699
22506SOL    HW279578   8.923   2.245   0.868 -1.1330 -0.3378  1.0132
22507SOL     OW79579   9.349   0.132   5.147  0.4472  0.1793  0.0523
22507SOL    HW179580   9.282   0.163   5.080  1.2483 -0.4657 -1.0616
22507SOL    HW279581   9.315   0.050   5.193 -0.2403  0.8036  0.6666
22508SOL     OW79582   9.861   4.518   7.493 -0.2859 -0.5486 -0.6804
22508SOL    HW179583   9.839   4.511   7.590  1.1726  1.3749 -0.1637
22508SOL    HW279584   9.788   4.568   7.445 -0.3758 -0.3264 -0.3101
22509SOL     OW79585   6.706   5.741   5.531 -0.0549  0.5901 -0.1912
22509SOL    HW179586   6.694   5.658   5.477 -1.1007  0.6220 -0.0137
22509SOL    HW279587   6.632   5.805   5.510 -0.1043  0.8599  0.8079
22510SOL     OW79588   4.488   5.867   3.964 -0.6153  0.2579 -0.2148
22510SOL    HW179589   4.426   5.927   3.914 -0.5691  0.0896 -0.4777
22510SOL    HW279590   4.583   5.891   3.941 -0.6278 -1.3329 -2.0138
22511SOL     OW79591   0.419   6.281   3.745 -0.1635  0.3852 -0.0840
22511SOL    HW179592   0.487   6.247   3.680 -0.8170  0.6930 -0.9477
22511SOL    HW279593   0.462   6.347   3.807  0.2980  0.6959 -0.7227
22512SOL     OW79594   8.617   4.071   4.047 -0.3546  0.3762 -0.1793
22512SOL    HW179595   8.554   4.015   4.102  1.7768 -2.0751 -0.1314
22512SOL    HW279596   8.579   4.083   3.955 -1.4438 -0.0532  0.2002
22513SOL     OW79597   7.514   6.100   4.930  0.1808 -0.6313  0.2731
22513SOL    HW179598   7.515   6.157   4.848 -0.6612 -0.8436  0.1157
22513SOL    HW279599   7.523   6.158   5.011 -1.0667 -0.2339  0.1334
22514SOL     OW79600   6.109   5.696   9.230  0.3880 -0.2967 -0.1903
22514SOL    HW179601   6.071   5.775   9.182  1.1557 -1.3723 -2.6408
22514SOL    HW279602   6.038   5.627   9.242 -0.1291  0.4787  1.4177
22515SOL     OW79603   0.310   2.793   3.733  0.1660 -0.1637  0.3972
22515SOL    HW179604   0.221   2.822   3.769 -0.6304  0.5489 -2.0857
22515SOL    HW279605   0.366   2.873   3.714 -0.0264 -0.4317 -1.4166
22516SOL     OW79606   1.255   0.540   9.004 -0.2692 -0.4519 -0.4252
22516SOL    HW179607   1.317   0.565   9.077  0.5832 -1.1982 -0.8770
22516SOL    HW279608   1.162   0.570   9.026  0.3182  0.9953  0.0795
22517SOL     OW79609   7.449   1.152   3.838 -0.2278 -0.1504  0.2380
22517SOL    HW179610   7.544   1.143   3.868 -0.6306 -1.8167  1.1265
22517SOL    HW279611   7.396   1.199   3.908 -0.0700  0.7773 -0.2567
22518SOL     OW79612   2.900   1.387   3.215  0.0412 -0.0909 -0.3166
22518SOL    HW179613   2.924   1.295   3.185 -0.5921 -0.5925  0.6947
22518SOL    HW279614   2.809   1.386   3.256 -0.0380  1.0191 -0.4471
22519SOL     OW79615   6.542   2.499   2.595  0.1015 -0.0358 -0.1644
22519SOL    HW179616   6.508   2.532   2.683 -0.3210 -0.4202 -0.1796
22519SOL    HW279617   6.632   2.458   2.607 -0.7529 -1.7827  0.4373
22520SOL     OW79618   5.683   2.024   0.909 -0.0886  0.3171  0.1693
22520SOL    HW179619   5.614   2.016   0.837  0.3581  0.3819 -0.2650
22520SOL    HW279620   5.684   1.941   0.964  0.3997 -0.2164 -0.6419
22521SOL     OW79621   8.607   2.101   6.400 -0.3331  0.7894 -0.0473
22521SOL    HW179622   8.646   2.102   6.307  0.5808  0.6830  0.3346
22521SOL    HW279623   8.552   2.183   6.413 -0.5353  0.7665 -0.7188
22522SOL     OW79624   7.488   1.201   5.165 -0.2021  0.3887  0.4844
22522SOL    HW179625   7.580   1.199   5.203 -0.2354  0.4309  0.5692
22522SOL    HW279626   7.467   1.293   5.134  0.4441 -0.0159 -1.1761
22523SOL     OW79627   8.662   1.733   6.721 -0.0805  0.3904 -0.7911
22523SOL    HW179628   8.671   1.779   6.809  2.0976 -1.3515 -0.0325
22523SOL    HW279629   8.680   1.797   6.647  1.1320  1.1686  0.1689
22524SOL     OW79630   2.175   4.799   3.715  0.1485  0.2644 -0.4837
22524SOL    HW179631   2.120   4.845   3.645 -0.6479 -0.3200 -0.2403
22524SOL    HW279632   2.201   4.866   3.785 -1.1651  0.3243 -0.0331
22525SOL     OW79633   7.798   0.659   4.080  0.3627  0.5555  0.1828
22525SOL    HW179634   7.819   0.617   4.168 -0.0607  0.5738  0.2937
22525SOL    HW279635   7.883   0.681   4.032  0.6051 -1.9491 -0.5994
22526SOL     OW79636   8.939   2.220   8.763 -0.7524 -0.3036 -0.2472
22526SOL    HW179637   8.961   2.169   8.680 -1.3946 -0.9765 -0.0044
22526SOL    HW279638   8.905   2.311   8.739 -1.1350 -0.5746 -0.7235
22527SOL     OW79639   0.336   7.575   5.482  0.5514  0.8041  0.2380
22527SOL    HW179640   0.372   7.537   5.397  2.1001  0.6527  0.9520
22527SOL    HW279641   0.405   7.569   5.554 -0.8844  0.5521  1.6278
22528SOL     OW79642   7.230   9.442   7.004 -0.1585  0.1986  0.4274
22528SOL    HW179643   7.208   9.519   7.065  0.5442  0.2609  0.6024
22528SOL    HW279644   7.321   9.407   7.026 -0.6994 -1.0439  0.7128
22529SOL     OW79645   0.004   4.722   5.876 -0.1485 -0.0497  0.2049
22529SOL    HW179646   0.013   4.821   5.865  0.1038 -0.4130 -3.1797
22529SOL    HW279647   0.066   4.675   5.814 -0.5867 -2.3638  1.4563
22530SOL     OW79648   0.118   4.869   5.107  0.3431 -0.4462  0.1438
22530SOL    HW179649   0.136   4.871   5.008  1.5577 -0.8743  0.3373
22530SOL    HW279650   0.163   4.788   5.147 -1.7687 -1.3678  0.7505
22531SOL     OW79651   8.818   3.048   0.039  0.2331 -0.2596  0.6866
22531SOL    HW179652   8.810   2.968   0.099 -1.6881  0.5452  1.5399
22531SOL    HW279653   8.727   3.081   0.015  0.9934  0.4908 -1.2979
22532SOL     OW79654   6.923   2.927   7.134  0.4054  0.2184 -0.2813
22532SOL    HW179655   6.841   2.883   7.098  0.9600 -2.1422  1.1938
22532SOL    HW279656   6.900   2.983   7.213  0.0439  0.6617 -0.6949
22533SOL     OW79657   2.265   4.216   4.058  0.0645 -0.3395  0.0721
22533SOL    HW179658   2.294   4.218   3.963  0.2593  0.3055  0.1400
22533SOL    HW279659   2.175   4.259   4.067  0.2407 -0.0065  0.2436
22534SOL     OW79660   1.012   3.179   3.756 -0.4999 -0.5947 -0.0969
22534SOL    HW179661   0.933   3.200   3.697 -0.2025  1.5066  0.2014
22534SOL    HW279662   1.016   3.246   3.831  1.0720 -1.2040  0.3764
22535SOL     OW79663   7.728   6.302   4.890  0.4927 -0.2333  0.1832
22535SOL    HW179664   7.808   6.265   4.842  0.9768 -0.6460  1.3092
22535SOL    HW279665   7.720   6.259   4.979  0.2852  1.4051  0.9781
22536SOL     OW79666   6.103   5.920   9.748  0.4363  0.2346  0.2323
22536SOL    HW179667   6.100   5.827   9.711 -0.9368  1.0255 -1.6661
22536SOL    HW279668   6.176   5.925   9.817 -0.1867 -2.5334  1.1873
22537SOL     OW79669   7.582   0.501   2.435  0.0291 -0.1123  0.0002
22537SOL    HW179670   7.651   0.566   2.404  0.0741 -0.2291 -0.1421
22537SOL    HW279671   7.581   0.422   2.374 -0.6577  0.1704 -0.3644
22538SOL     OW79672   3.520   3.036   7.027  0.1217 -0.8866 -0.2621
22538SOL    HW179673   3.533   3.116   7.086  0.2411 -0.7304 -0.5001
22538SOL    HW279674   3.511   3.066   6.932  1.1866 -1.2266 -0.4780
22539SOL     OW79675   9.383   1.017   5.262 -0.6289 -0.0120  0.4262
22539SOL    HW179676   9.462   0.961   5.284  0.4514  1.5075  0.5255
22539SOL    HW279677   9.384   1.040   5.165  1.0038  2.8546  1.0483
22540SOL     OW79678   0.564   3.909   2.749  0.3250 -0.1202 -0.4916
22540SOL    HW179679   0.636   3.896   2.681  0.1096  0.5167 -0.8486
22540SOL    HW279680   0.603   3.911   2.841  0.4239 -2.8627 -0.4310
22541SOL     OW79681   5.048   5.858   5.304  0.2302 -0.1522 -0.2901
22541SOL    HW179682   5.063   5.776   5.358  1.1337 -0.2872 -0.7421
22541SOL    HW279683   4.977   5.914   5.347  0.3063 -0.6930  0.5395
22542SOL     OW79684   4.503   4.464   2.811 -0.0976 -0.0024  0.4037
22542SOL    HW179685   4.485   4.370   2.783  2.5312 -1.1464  2.3263
22542SOL    HW279686   4.440   4.490   2.885 -0.8039 -0.2536 -0.1092
22543SOL     OW79687   9.021   4.845   1.333 -0.2980 -0.6321 -0.1749
22543SOL    HW179688   8.988   4.926   1.381 -1.7983 -1.4469  0.2093
22543SOL    HW279689   8.977   4.763   1.372  1.5944 -1.6785 -0.1901
22544SOL     OW79690   8.884   3.883   2.626 -0.0256  0.6835 -0.0348
22544SOL    HW179691   8.946   3.848   2.697 -0.0208  1.6052  0.4339
22544SOL    HW279692   8.937   3.932   2.557 -0.0814  0.2145 -0.4048
22545SOL     OW79693   6.537   4.672   3.114 -0.6153  0.0932 -0.2229
22545SOL    HW179694   6.509   4.682   3.018  1.9711  0.7944 -0.9378
22545SOL    HW279695   6.605   4.599   3.121 -1.2731 -0.3978  1.2011
22546SOL     OW79696   0.685   7.167   3.243  0.0540 -0.1322 -0.1578
22546SOL    HW179697   0.600   7.220   3.252  0.1551  0.0444 -0.2407
22546SOL    HW279698   0.747   7.215   3.182 -0.2320 -0.8189 -1.0047
22547SOL     OW79699   6.303   1.664   4.587  0.3148 -0.7156 -0.2319
22547SOL    HW179700   6.395   1.665   4.546  0.5642 -0.6390  0.3367
22547SOL    HW279701   6.235   1.653   4.514  0.7167  0.1593 -0.7443
22548SOL     OW79702   4.633   4.053   1.197 -0.5039 -0.4349  0.0749
22548SOL    HW179703   4.639   4.144   1.239  1.1110 -1.0792  1.2923
22548SOL    HW279704   4.537   4.028   1.187 -0.9439  0.6519  1.4055
22549SOL     OW79705   2.148   1.383   5.374 -0.5742 -0.6713 -0.5742
22549SOL    HW179706   2.091   1.387   5.292  0.0225  0.2384 -0.9485
22549SOL    HW279707   2.238   1.345   5.351  0.3370  1.5669 -0.7788
22550SOL     OW79708   5.867   9.098   0.700 -0.2115  0.4363  0.1737
22550SOL    HW179709   5.947   9.083   0.642  0.8986  1.4573  1.4123
22550SOL    HW279710   5.815   9.013   0.707 -0.1915  0.2120 -2.0343
22551SOL     OW79711   3.097   6.504   4.387 -0.0028  1.1422 -0.1167
22551SOL    HW179712   3.139   6.576   4.333  0.5924 -1.3684 -3.1579
22551SOL    HW279713   3.025   6.459   4.334 -0.0283 -0.8445  1.5161
22552SOL     OW79714   2.237   2.895   4.519  0.9437  0.3413  0.1503
22552SOL    HW179715   2.146   2.905   4.481  0.8864 -0.9702 -0.0972
22552SOL    HW279716   2.285   2.982   4.516  0.2938  0.6510 -1.2673
22553SOL     OW79717   9.486   2.614   3.047  0.3608 -0.3646 -0.3893
22553SOL    HW179718   9.491   2.680   3.121 -1.6417  0.5415 -1.0220
22553SOL    HW279719   9.399   2.564   3.052  1.6782 -2.7072 -0.1432
22554SOL     OW79720   4.741   6.438   3.590 -0.0129  0.2614 -0.0769
22554SOL    HW179721   4.767   6.522   3.638  1.4089  0.2180 -0.7435
22554SOL    HW279722   4.818   6.375   3.590 -0.9851 -0.9408  0.1656
22555SOL     OW79723   0.634   1.567   4.916 -0.1715  0.3373  0.1838
22555SOL    HW179724   0.656   1.478   4.955  1.7458  0.9187  0.4837
22555SOL    HW279725   0.570   1.556   4.841 -0.0664 -1.2790  0.3205
22556SOL     OW79726   9.304   9.414   7.978 -0.3210  0.5215 -0.3106
22556SOL    HW179727   9.216   9.380   7.944 -0.0766 -0.0228 -0.3983
22556SOL    HW279728   9.311   9.396   8.076 -0.5137  1.0048 -0.2062
22557SOL     OW79729   0.133   3.902   0.258  0.4291  0.2430 -0.0642
22557SOL    HW179730   0.068   3.915   0.333  0.3332 -1.8355  0.2394
22557SOL    HW279731   0.105   3.824   0.203  2.1763 -0.1231 -0.4587
22558SOL     OW79732   5.471   5.982   4.563  0.6712  0.1232  0.2096
22558SOL    HW179733   5.388   5.977   4.508  0.1537 -0.8110  1.0704
22558SOL    HW279734   5.518   6.069   4.544  0.8038 -0.4291 -2.1129
22559SOL     OW79735   9.305   2.646   9.048  0.0183 -0.1881  0.1829
22559SOL    HW179736   9.258   2.698   9.119  1.1459 -1.8691  2.2082
22559SOL    HW279737   9.275   2.678   8.958 -3.0323  0.5494  1.3902
22560SOL     OW79738   8.975   5.595   5.188  0.9689  0.3507 -0.2598
22560SOL    HW179739   8.882   5.597   5.226  0.9213 -0.0652 -0.3546
22560SOL    HW279740   8.980   5.655   5.109  0.9159  0.7821  0.0635
22561SOL     OW79741   6.913   2.173   6.121  0.0095 -0.0933 -0.7952
22561SOL    HW179742   6.873   2.085   6.096 -0.2705 -0.2641  0.2241
22561SOL    HW279743   6.989   2.158   6.185  0.3316  0.3695 -1.0692
22562SOL     OW79744   5.414   4.588   4.187  0.0207  0.4089 -0.2573
22562SOL    HW179745   5.375   4.498   4.207  0.9131 -0.0743 -0.6519
22562SOL    HW279746   5.507   4.577   4.152  0.1860  1.4965 -0.1806
22563SOL     OW79747   3.114   3.879   5.832  0.0269 -0.0176 -0.5199
22563SOL    HW179748   3.120   3.782   5.856  1.9791  0.1499 -0.2744
22563SOL    HW279749   3.020   3.901   5.805 -0.9811 -1.4371  1.7271
22564SOL     OW79750   0.793   8.711   6.539 -0.0276 -0.2636 -0.1558
22564SOL    HW179751   0.819   8.615   6.536  1.3766  0.0650  1.3013
22564SOL    HW279752   0.707   8.721   6.589 -0.1337 -0.7376 -0.2429
22565SOL     OW79753   9.660   1.220   4.791 -0.0209  0.6367 -0.7707
22565SOL    HW179754   9.737   1.227   4.727  0.4927  1.3448 -0.0810
22565SOL    HW279755   9.674   1.141   4.851 -0.6294 -0.1805 -1.6823
22566SOL     OW79756   6.075   5.524   3.315 -0.4279  0.7323 -0.0630
22566SOL    HW179757   6.163   5.563   3.290 -0.8934  0.7803 -1.6541
22566SOL    HW279758   6.006   5.596   3.320 -0.3418  0.7319  1.4145
22567SOL     OW79759   7.663   2.370   8.298 -0.3597  0.0035 -0.4110
22567SOL    HW179760   7.705   2.313   8.228  0.2337 -0.1277  0.0439
22567SOL    HW279761   7.707   2.460   8.300  0.4541 -0.4077  0.6049
22568SOL     OW79762   8.827   8.507   5.221  0.2008 -0.4803 -0.2891
22568SOL    HW179763   8.900   8.445   5.194  0.7694 -0.3281  0.8606
22568SOL    HW279764   8.838   8.531   5.318 -0.7499  0.3943 -0.3924
22569SOL     OW79765   5.602   2.325   2.441 -0.7452 -0.5997 -0.0259
22569SOL    HW179766   5.631   2.411   2.400  1.0901 -0.2750  1.8978
22569SOL    HW279767   5.561   2.267   2.370  1.8558  0.1484 -2.2121
22570SOL     OW79768   0.783   0.278   5.506 -0.2407  0.1880  0.1586
22570SOL    HW179769   0.792   0.300   5.603  0.6323  1.6504 -0.2349
22570SOL    HW279770   0.785   0.179   5.493 -0.0695  0.0023  1.5927
22571SOL     OW79771   8.502   2.526   3.425  0.5653 -0.0690  0.3741
22571SOL    HW179772   8.485   2.618   3.460 -1.4563 -0.5642  0.7556
22571SOL    HW279773   8.465   2.518   3.333  1.5259 -0.2495 -0.0027
22572SOL     OW79774   0.912   0.762   7.399  0.3032 -0.2856  0.8444
22572SOL    HW179775   0.815   0.747   7.416 -0.0942  0.5585 -0.6874
22572SOL    HW279776   0.954   0.676   7.369 -0.1811 -0.4068  0.5105
22573SOL     OW79777   8.815   6.948   2.987 -0.2566 -0.0629 -0.1354
22573SOL    HW179778   8.772   6.925   3.074 -0.4868  0.0565 -0.2168
22573SOL    HW279779   8.860   6.867   2.950 -0.9498 -0.3525 -0.3569
22574SOL     OW79780   7.373   4.671   6.283  0.1597  0.0813 -0.8534
22574SOL    HW179781   7.419   4.584   6.299 -0.4688 -0.1551 -0.3089
22574SOL    HW279782   7.283   4.670   6.327  0.7673  1.5552  0.4749
22575SOL     OW79783   9.296   0.511   6.288 -0.2140  0.2650 -0.4008
22575SOL    HW179784   9.340   0.591   6.248 -0.1537 -0.1257 -1.1296
22575SOL    HW279785   9.204   0.500   6.250 -0.2630  0.0533 -0.2237
22576SOL     OW79786   7.576   0.845   4.067  0.4768 -0.6627  0.2796
22576SOL    HW179787   7.655   0.784   4.071  0.0675 -1.0910  2.1393
22576SOL    HW279788   7.498   0.796   4.027  1.2473 -0.0943 -2.0053
22577SOL     OW79789   6.361   3.169   4.351 -0.2249  0.2380 -0.3790
22577SOL    HW179790   6.384   3.148   4.256  1.9175 -1.5963  0.4794
22577SOL    HW279791   6.286   3.110   4.381  1.2977 -1.5431  0.0149
22578SOL     OW79792   7.831   1.825   2.662 -0.3237 -0.6240 -0.0978
22578SOL    HW179793   7.746   1.772   2.651 -0.8318  0.0491  0.5338
22578SOL    HW279794   7.828   1.873   2.750  1.1368 -1.3720  0.3683
22579SOL     OW79795   9.101   5.270   1.331  0.4825  0.5464 -0.0416
22579SOL    HW179796   9.160   5.259   1.251 -0.3475  0.2116 -0.6168
22579SOL    HW279797   9.061   5.362   1.331  0.0909  0.3800 -0.2921
22580SOL     OW79798   8.231   2.429   6.751 -0.5719 -0.3428 -0.0805
22580SOL    HW179799   8.157   2.361   6.758 -1.3989  0.6736  1.2996
22580SOL    HW279800   8.262   2.434   6.656 -1.5913 -1.5046 -0.4979
22581SOL     OW79801   6.218   9.167   7.014 -0.1499 -0.3342  0.3872
22581SOL    HW179802   6.215   9.180   6.915 -1.2893 -1.9626  0.1821
22581SOL    HW279803   6.297   9.216   7.052  0.6322 -0.1679 -1.3976
22582SOL     OW79804   9.521   9.159   5.286  0.6202  0.6648 -0.4587
22582SOL    HW179805   9.436   9.182   5.334  1.6569  3.2296  0.2327
22582SOL    HW279806   9.530   9.060   5.280 -1.0760  0.3176  1.8733
22583SOL     OW79807   4.907   8.001   7.305  0.5242 -0.0078  0.2141
22583SOL    HW179808   4.864   8.017   7.215 -0.3460  2.5922  1.0350
22583SOL    HW279809   5.005   8.015   7.298  0.5579 -0.5793 -0.4993
22584SOL     OW79810   3.384   3.530   8.470 -0.3478 -0.3599 -0.0638
22584SOL    HW179811   3.451   3.589   8.426 -0.8276 -0.2358 -0.6401
22584SOL    HW279812   3.295   3.576   8.472 -1.0656 -1.5984 -1.7829
22585SOL     OW79813   6.324   2.291   2.029 -0.0330  0.3052  0.1533
22585SOL    HW179814   6.373   2.274   1.944 -0.8937 -0.7842 -0.1222
22585SOL    HW279815   6.370   2.243   2.104 -1.4867 -1.9285 -0.3434
22586SOL     OW79816   6.608   8.502   6.974  0.2176  0.2164 -0.2828
22586SOL    HW179817   6.535   8.470   7.034  0.7977  0.0540  0.3416
22586SOL    HW279818   6.694   8.504   7.024  0.7647 -0.1845 -1.1852
22587SOL     OW79819   7.630   5.640   5.017 -0.0940 -0.5477  0.0606
22587SOL    HW179820   7.603   5.552   4.979 -3.1522  0.5446 -0.4702
22587SOL    HW279821   7.619   5.637   5.117  0.3803 -0.9506  0.1016
22588SOL     OW79822   7.399   3.700   2.760 -0.0684 -0.0464  0.2336
22588SOL    HW179823   7.435   3.610   2.786  2.4560  0.6269 -0.7818
22588SOL    HW279824   7.358   3.743   2.841  2.0277 -0.6009  1.6515
22589SOL     OW79825   5.633   4.468   5.539 -0.1171  0.1850 -0.1339
22589SOL    HW179826   5.693   4.535   5.582 -0.8625  1.5012 -1.1006
22589SOL    HW279827   5.578   4.512   5.468 -1.2607 -1.2649 -0.1981
22590SOL     OW79828   7.829   4.289   0.251  0.2157 -0.2787 -0.0226
22590SOL    HW179829   7.848   4.387   0.241 -1.0696 -0.1251 -1.1323
22590SOL    HW279830   7.749   4.276   0.310  0.7723 -0.6983  0.6511
22591SOL     OW79831   2.656   7.909   5.808  0.2017  0.0607  0.2376
22591SOL    HW179832   2.572   7.880   5.763  0.5243  1.3543 -1.2307
22591SOL    HW279833   2.706   7.828   5.839 -1.0009 -0.7623  0.0641
22592SOL     OW79834   6.534   6.328   2.957 -1.1664  0.3306 -0.0446
22592SOL    HW179835   6.590   6.286   3.029 -0.3793  0.9841 -0.2728
22592SOL    HW279836   6.524   6.264   2.881 -0.3044  0.3945 -0.2167
22593SOL     OW79837   7.245   5.797   0.829  0.4308 -0.0201  0.2016
22593SOL    HW179838   7.165   5.751   0.790  1.4770 -0.9552 -0.8526
22593SOL    HW279839   7.221   5.891   0.851 -0.8762 -0.1976 -0.4004
22594SOL     OW79840   7.652   2.036   5.007  0.2832  0.1950 -0.4678
22594SOL    HW179841   7.644   2.061   4.911 -2.2867  0.2655 -0.2915
22594SOL    HW279842   7.702   2.108   5.056  1.5733  0.1705 -1.7219
22595SOL     OW79843   9.041   9.316   4.318 -0.1670  0.4830  0.3505
22595SOL    HW179844   9.089   9.294   4.404  0.3101  0.1108 -0.0060
22595SOL    HW279845   8.945   9.334   4.338 -0.4888 -1.4947  0.7438
22596SOL     OW79846   5.839   4.581   3.719 -0.4222 -0.6047  0.3104
22596SOL    HW179847   5.764   4.633   3.759  0.6273 -0.4094  2.1180
22596SOL    HW279848   5.911   4.644   3.689 -0.8576 -0.8023 -1.1910
22597SOL     OW79849   7.616   7.729   4.982 -0.3127 -0.5641 -0.0442
22597SOL    HW179850   7.608   7.718   4.883  3.7971  0.3710 -0.5570
22597SOL    HW279851   7.542   7.788   5.015 -2.4536 -1.8927 -2.3429
22598SOL     OW79852   3.085   9.525   3.678 -0.3629 -0.0750 -0.2270
22598SOL    HW179853   3.081   9.527   3.778  1.6362 -0.0918 -0.1268
22598SOL    HW279854   3.078   9.431   3.646 -1.0635 -0.0640 -0.1045
22599SOL     OW79855   7.025   7.810   9.911 -0.4285  0.9434 -0.1237
22599SOL    HW179856   6.951   7.850   9.856 -1.9475  0.5774  1.5832
22599SOL    HW279857   7.017   7.841  10.005  0.6334 -0.3891  0.4256
22600SOL     OW79858   5.246   2.530   2.690 -0.1270 -0.3913 -0.2649
22600SOL    HW179859   5.179   2.542   2.616 -0.0400 -0.7633 -0.4038
22600SOL    HW279860   5.260   2.617   2.737 -2.3949 -0.7834  1.2059
22601SOL     OW79861   1.335   7.874   3.106 -0.2617 -0.3307  0.3779
22601SOL    HW179862   1.248   7.924   3.102 -0.2385  0.0439  3.3426
22601SOL    HW279863   1.400   7.915   3.042 -1.2310  1.4851  0.5286
22602SOL     OW79864   6.212   0.163   9.802 -0.1073 -0.1551 -0.0685
22602SOL    HW179865   6.153   0.128   9.875 -0.6316  1.6810  0.4403
22602SOL    HW279866   6.162   0.162   9.715 -0.8379  1.1643  0.3175
22603SOL     OW79867   6.647   4.220   9.871  0.4424 -0.0320 -0.2739
22603SOL    HW179868   6.692   4.133   9.853  0.4512  0.4087 -2.5411
22603SOL    HW279869   6.703   4.295   9.836 -0.5434  0.7406 -0.2393
22604SOL     OW79870   5.868   2.384   0.570  0.1278  0.1124 -0.1365
22604SOL    HW179871   5.774   2.417   0.555  0.0072 -0.4102 -0.5264
22604SOL    HW279872   5.898   2.331   0.490  1.0464  0.9475 -0.3620
22605SOL     OW79873   6.063   1.773   4.069  0.4782  0.5742 -0.5486
22605SOL    HW179874   6.144   1.797   4.017  0.3392  1.1739 -0.4910
22605SOL    HW279875   5.985   1.827   4.036  0.3201  0.7178  0.0597
22606SOL     OW79876   9.831   5.334   5.778 -0.0220 -0.1267 -0.0136
22606SOL    HW179877   9.904   5.307   5.716 -0.2630  1.7626 -1.1356
22606SOL    HW279878   9.744   5.295   5.747  0.1130 -0.4500  0.0130
22607SOL     OW79879   5.104   1.028   9.076 -0.5286 -0.4098 -0.2341
22607SOL    HW179880   5.123   1.008   8.980 -0.5524 -1.1795 -0.0761
22607SOL    HW279881   5.045   0.957   9.114 -0.3371 -0.2214  0.4173
22608SOL     OW79882   9.902   4.100   1.988 -0.3983  0.2634  0.0806
22608SOL    HW179883   9.915   4.032   1.916  0.7564  1.1507 -0.5729
22608SOL    HW279884   9.927   4.061   2.077  2.3038  0.4412 -0.5531
22609SOL     OW79885   6.719   9.280   6.399  0.1288  0.1034  0.3095
22609SOL    HW179886   6.704   9.209   6.468 -0.0280 -1.9137 -1.7344
22609SOL    HW279887   6.789   9.249   6.334  2.6408  3.2808  1.3249
22610SOL     OW79888   7.991   6.106   3.488 -0.1050 -0.3142  0.3866
22610SOL    HW179889   8.073   6.057   3.519 -0.1169 -1.0606 -0.7487
22610SOL    HW279890   7.914   6.083   3.548  0.0051 -1.3135  0.1575
22611SOL     OW79891   5.376   0.549   3.704  0.2956 -0.4862  0.0537
22611SOL    HW179892   5.358   0.567   3.607 -0.7104 -1.2352  0.0918
22611SOL    HW279893   5.299   0.498   3.743  0.0231  1.1070  1.6219
22612SOL     OW79894   4.889   3.521   5.452  0.4255  0.3715 -0.6361
22612SOL    HW179895   4.857   3.515   5.357  1.5466  1.3622 -1.0907
22612SOL    HW279896   4.819   3.484   5.513  0.9362 -3.3254 -2.0920
22613SOL     OW79897   9.200   4.315   2.664  0.1176 -0.0415  0.3317
22613SOL    HW179898   9.232   4.220   2.666 -1.1769 -0.5029  0.1479
22613SOL    HW279899   9.185   4.347   2.758 -0.4712 -0.3877  0.3587
22614SOL     OW79900   9.099   0.588   4.298 -0.0441  0.1638 -0.3629
22614SOL    HW179901   9.014   0.539   4.276 -1.5374  1.8255  1.5188
22614SOL    HW279902   9.105   0.670   4.241  0.3037  0.0579 -0.4807
22615SOL     OW79903   8.455   2.232   2.892 -0.0192  0.1213  0.4281
22615SOL    HW179904   8.518   2.236   2.815 -0.0656  1.1647  0.4416
22615SOL    HW279905   8.404   2.146   2.889  0.5836 -0.2171 -0.2240
22616SOL     OW79906   7.416   1.789   0.657 -0.1350  0.1189  0.5251
22616SOL    HW179907   7.420   1.746   0.567  0.9598  0.6905  0.2914
22616SOL    HW279908   7.322   1.819   0.676 -0.6027 -1.0693  0.0854
22617SOL     OW79909   0.857   3.168   6.387 -0.5830  0.3102 -0.8427
22617SOL    HW179910   0.854   3.077   6.429 -3.0107  1.6415  2.1072
22617SOL    HW279911   0.950   3.187   6.354  0.6148 -2.1947  0.9301
22618SOL     OW79912   6.906   3.708   9.764  0.0631 -0.1346 -0.5183
22618SOL    HW179913   6.881   3.737   9.672 -1.7964  0.0090  0.0045
22618SOL    HW279914   6.915   3.609   9.767 -1.3068 -0.2770 -0.5568
22619SOL     OW79915   6.862   6.590   4.385 -0.3862  0.8417  0.1447
22619SOL    HW179916   6.887   6.639   4.468  0.0080  2.0874 -0.7017
22619SOL    HW279917   6.762   6.581   4.381 -0.3717  0.1773  1.0797
22620SOL     OW79918   2.794   3.669   6.157 -0.3119 -0.2108  0.0795
22620SOL    HW179919   2.801   3.584   6.208  1.9762 -0.8114 -1.1683
22620SOL    HW279920   2.871   3.729   6.181 -2.1009  1.6897  1.2321
22621SOL     OW79921   6.930   3.802   7.337  0.7108  0.0682  0.2213
22621SOL    HW179922   6.942   3.720   7.281  0.4335  1.3530 -1.7612
22621SOL    HW279923   7.017   3.825   7.381  1.2677 -0.2233 -0.7049
22622SOL     OW79924   8.549   7.146   8.656  0.8373  0.0994 -0.1157
22622SOL    HW179925   8.634   7.199   8.657  1.0653 -0.2610  0.3571
22622SOL    HW279926   8.566   7.057   8.699 -0.4837  1.1077  2.6072
22623SOL     OW79927   6.071   0.468   3.496  0.2839 -0.5208  0.0949
22623SOL    HW179928   6.017   0.385   3.505  0.8054 -1.2589 -2.8081
22623SOL    HW279929   6.083   0.490   3.399  0.9414  2.4405  0.7772
22624SOL     OW79930   9.305   4.374   6.107  0.0894 -0.1796  0.5171
22624SOL    HW179931   9.282   4.427   6.188 -0.2715 -0.7852  0.8220
22624SOL    HW279932   9.221   4.352   6.057 -0.0331 -2.4321  1.6466
22625SOL     OW79933   9.951   5.615   4.614 -0.3108 -0.1518 -0.1117
22625SOL    HW179934  10.041   5.658   4.623 -0.5733  0.4197 -0.2193
22625SOL    HW279935   9.955   5.545   4.543  0.1120 -0.3006  0.0518
22626SOL     OW79936   7.504   3.747   7.578 -0.1854  0.2047  0.0274
22626SOL    HW179937   7.488   3.843   7.601  1.1687  0.4489 -0.0011
22626SOL    HW279938   7.427   3.692   7.610 -0.7243  1.2267  0.5226
22627SOL     OW79939   5.150   3.635   1.320 -0.6829  0.1129 -0.2672
22627SOL    HW179940   5.116   3.704   1.256 -0.7010  1.8680  1.5636
22627SOL    HW279941   5.212   3.573   1.273  0.3314  2.1590 -1.6722
22628SOL     OW79942   7.834   2.614   3.633 -0.6000 -0.4322  0.4737
22628SOL    HW179943   7.832   2.708   3.598  2.4672 -0.7685 -0.7761
22628SOL    HW279944   7.838   2.550   3.556 -2.8161 -1.6269  1.3148
22629SOL     OW79945   8.544   5.028   7.803  0.0361 -0.1238  0.6562
22629SOL    HW179946   8.593   4.999   7.721 -0.0886 -0.3152  0.6496
22629SOL    HW279947   8.529   5.127   7.799 -1.5580 -0.3929 -0.4098
22630SOL     OW79948   4.799   1.818   9.515 -0.3029  0.3211 -0.3393
22630SOL    HW179949   4.865   1.744   9.524 -0.4601  0.3703  1.4417
22630SOL    HW279950   4.714   1.782   9.476 -0.1629 -0.3084 -0.0769
22631SOL     OW79951   6.749   0.347   6.525 -0.1825  0.6539  0.1644
22631SOL    HW179952   6.676   0.381   6.465 -1.6603 -0.5481  1.2203
22631SOL    HW279953   6.777   0.256   6.495  1.4572  1.4213 -0.6974
22632SOL     OW79954   3.924   7.857   3.849  0.0878  0.0766 -0.2104
22632SOL    HW179955   4.023   7.859   3.831  0.1599 -0.9169  0.0247
22632SOL    HW279956   3.879   7.928   3.796  1.0285  1.0453  0.2543
22633SOL     OW79957   3.857   6.333   8.103  0.3641 -0.2120  0.6663
22633SOL    HW179958   3.888   6.262   8.041 -2.2918  0.9593 -2.1323
22633SOL    HW279959   3.813   6.291   8.183  1.6670 -1.7038  0.6269
22634SOL     OW79960   8.651   3.543   4.597 -0.3869  0.2671 -0.6639
22634SOL    HW179961   8.718   3.609   4.563 -0.1544  0.1214 -0.4949
22634SOL    HW279962   8.598   3.585   4.670  0.0244  0.1415 -0.2890
22635SOL     OW79963   5.141   2.859   2.980 -0.1637  0.6277  0.0544
22635SOL    HW179964   5.131   2.918   3.060  0.2521  0.2279  0.4023
22635SOL    HW279965   5.077   2.889   2.909 -0.7895  0.7578  0.6654
22636SOL     OW79966   0.561   1.860   3.457 -0.1010 -0.4885  0.3810
22636SOL    HW179967   0.615   1.859   3.541  0.5241  0.3372 -0.0100
22636SOL    HW279968   0.620   1.875   3.379 -0.6767 -1.3344 -0.2281
22637SOL     OW79969   0.716   2.076   6.377 -0.0179 -0.0366  0.5246
22637SOL    HW179970   0.735   2.044   6.470 -1.7990 -0.5370  0.7434
22637SOL    HW279971   0.617   2.078   6.362  0.2121  1.0789 -1.0084
22638SOL     OW79972   9.341   5.618   2.352 -0.3509 -0.2805  0.5114
22638SOL    HW179973   9.385   5.561   2.282 -0.0077 -0.7129  1.0727
22638SOL    HW279974   9.259   5.660   2.313  0.9145  1.0679 -0.7571
22639SOL     OW79975   8.023   6.780   5.829 -0.3522 -0.3339 -0.1884
22639SOL    HW179976   7.946   6.724   5.800  1.1404 -2.6825  0.2932
22639SOL    HW279977   8.102   6.764   5.768  0.4592  0.3169  0.6728
22640SOL     OW79978   0.282   7.336   0.325 -0.4295  0.1400 -0.1804
22640SOL    HW179979   0.303   7.339   0.423 -0.9471  1.7413 -0.0955
22640SOL    HW279980   0.234   7.420   0.299 -0.3254 -0.2846 -1.8059
22641SOL     OW79981   7.382   4.392   4.032 -0.4256  0.1386  0.0328
22641SOL    HW179982   7.411   4.316   4.090  1.6654 -0.4568 -1.6943
22641SOL    HW279983   7.289   4.376   3.999  0.1064 -1.8537 -0.5797
22642SOL     OW79984   0.399   9.621   4.991  0.1277  0.5291  0.3710
22642SOL    HW179985   0.358   9.641   5.080 -0.4028  1.8783 -0.1564
22642SOL    HW279986   0.350   9.546   4.947  1.5262 -1.3518  1.9801
22643SOL     OW79987   6.554   7.165   5.288  0.2043  0.0028  0.5710
22643SOL    HW179988   6.485   7.107   5.245  0.8526 -1.0779  0.9445
22643SOL    HW279989   6.521   7.198   5.376 -0.0203 -0.1241  0.5322
22644SOL     OW79990   0.500   7.197   0.157  0.0896 -0.3809  0.5370
22644SOL    HW179991   0.559   7.257   0.102  1.2079 -1.4767  0.5181
22644SOL    HW279992   0.433   7.252   0.206  1.6127  0.9767  1.1392
22645SOL     OW79993   9.558   6.610   7.322 -0.0661 -0.0098 -0.3658
22645SOL    HW179994   9.467   6.651   7.322 -0.2072 -0.3172 -0.4295
22645SOL    HW279995   9.585   6.589   7.416  0.2132  0.6753 -0.2903
22646SOL     OW79996   8.900   7.825   7.501  0.4184  0.9324  0.1501
22646SOL    HW179997   8.879   7.917   7.535  0.4761  1.2035 -0.5291
22646SOL    HW279998   8.994   7.802   7.523  0.5249  1.1994 -0.0189
22647SOL     OW79999   8.913   4.439   6.090  0.0741  0.3778 -0.4193
22647SOL    HW180000   8.911   4.525   6.039  1.0555  0.2469 -0.6966
22647SOL    HW280001   8.962   4.370   6.037  1.5243  0.3708  0.8941
22648SOL     OW80002   0.962   1.766   1.580 -0.0600  0.1617 -0.1191
22648SOL    HW180003   0.869   1.732   1.564  0.3103 -1.1247  0.4223
22648SOL    HW280004   0.963   1.821   1.663 -0.7429  1.8658 -1.2108
22649SOL     OW80005   7.816   2.847   7.157  0.3033  0.1072 -0.1214
22649SOL    HW180006   7.825   2.898   7.072  0.4674 -0.7859 -0.6433
22649SOL    HW280007   7.907   2.834   7.197  0.3488 -0.4863 -0.4126
22650SOL     OW80008   8.798   4.658   1.816 -0.3817 -0.2527 -0.7267
22650SOL    HW180009   8.892   4.630   1.801 -0.8694 -1.0908 -2.2589
22650SOL    HW280010   8.785   4.753   1.786  0.6749  0.9019  2.2522
22651SOL     OW80011   8.746   3.060   2.839 -0.5292 -0.3934  0.0253
22651SOL    HW180012   8.780   2.973   2.805 -0.2465 -0.1372 -0.3507
22651SOL    HW280013   8.763   3.132   2.772 -0.2774  0.0512  0.5522
22652SOL     OW80014   5.315   5.056   6.356 -0.3031 -0.0771 -0.2763
22652SOL    HW180015   5.273   5.147   6.357  0.7780  0.4379  0.1303
22652SOL    HW280016   5.245   4.986   6.342 -1.5083  0.6527  1.8960
22653SOL     OW80017   2.441   2.512   5.359 -0.0778 -0.2207  0.1399
22653SOL    HW180018   2.475   2.513   5.453 -1.0916  1.1219  0.5155
22653SOL    HW280019   2.463   2.599   5.315  0.8869 -1.0676 -1.0561
22654SOL     OW80020   8.767   0.326   6.338 -0.3043  0.1215  0.3598
22654SOL    HW180021   8.813   0.395   6.393  0.2985 -1.0341  1.3277
22654SOL    HW280022   8.678   0.305   6.377 -0.1588 -0.2105  0.5145
22655SOL     OW80023   6.385   2.411   0.148  0.8815  0.5670 -0.1696
22655SOL    HW180024   6.353   2.432   0.056  0.6297  1.7420  0.1769
22655SOL    HW280025   6.480   2.439   0.158  0.9392  0.3479 -0.0962
22656SOL     OW80026   3.790   0.749   3.114 -0.0034 -0.1767 -0.3974
22656SOL    HW180027   3.797   0.699   3.028  1.6254 -2.1900  0.8529
22656SOL    HW280028   3.858   0.714   3.178 -1.4166  1.0494  1.8328
22657SOL     OW80029   9.612   6.442   3.363  0.3731  0.1269 -0.2348
22657SOL    HW180030   9.580   6.348   3.355  0.0975  0.1216  0.8350
22657SOL    HW280031   9.691   6.456   3.303  0.4940 -0.8157 -0.3003
22658SOL     OW80032   7.519   0.360   4.216 -1.3299 -0.6827 -0.1724
22658SOL    HW180033   7.422   0.362   4.242 -1.1978 -1.2403  0.3722
22658SOL    HW280034   7.540   0.273   4.172 -0.7385 -1.1656  1.0436
22659SOL     OW80035   6.878   1.031   6.058 -0.3305 -0.7658 -0.7359
22659SOL    HW180036   6.846   0.936   6.067  0.0717 -0.7597  0.8074
22659SOL    HW280037   6.800   1.093   6.068 -0.0315 -0.7954  1.8841
22660SOL     OW80038   6.606   0.651   3.994  0.3366 -0.3492 -0.6602
22660SOL    HW180039   6.585   0.693   4.082  0.3397 -0.1778 -0.7419
22660SOL    HW280040   6.646   0.560   4.009 -1.2949 -1.0643 -0.5245
22661SOL     OW80041   3.658   5.037   8.474 -0.1141 -0.3792 -1.0028
22661SOL    HW180042   3.737   5.041   8.535  0.4707  2.4161 -1.8924
22661SOL    HW280043   3.574   5.040   8.528  0.3794 -0.7924 -0.1999
22662SOL     OW80044   1.971   0.736   1.676 -0.5611  0.0996  0.0093
22662SOL    HW180045   2.055   0.748   1.624 -0.9754  2.6182 -0.1352
22662SOL    HW280046   1.894   0.719   1.614 -0.6201  0.5375 -0.0381
22663SOL     OW80047   7.243   3.473   3.109 -0.0720 -0.1577  0.1289
22663SOL    HW180048   7.328   3.516   3.141  1.1830 -2.2375 -0.3464
22663SOL    HW280049   7.244   3.468   3.009 -1.3448  0.9517  0.0463
22664SOL     OW80050   0.480   1.736   3.030  0.6998  0.6834 -0.1996
22664SOL    HW180051   0.454   1.817   2.976  1.5979  1.7088  0.9021
22664SOL    HW280052   0.415   1.724   3.105  0.1580 -0.0548 -0.7616
22665SOL     OW80053   7.457   3.994   6.449  0.1689 -0.0709 -0.7222
22665SOL    HW180054   7.421   3.922   6.391 -0.1856  0.1301 -0.7503
22665SOL    HW280055   7.555   3.978   6.465 -0.2724 -1.4904  0.6494
22666SOL     OW80056   8.718   7.319   9.444 -0.5199  0.0811 -0.0266
22666SOL    HW180057   8.684   7.338   9.536  0.0918 -1.2559  0.4957
22666SOL    HW280058   8.793   7.381   9.423  0.7769 -1.0030  1.2446
22667SOL     OW80059   3.847   2.824   4.209 -0.3560  0.2305  0.1527
22667SOL    HW180060   3.869   2.785   4.120 -0.6624  0.0077  0.1751
22667SOL    HW280061   3.761   2.786   4.243  0.4823 -0.7952  1.1982
22668SOL     OW80062   7.401   8.865   8.134 -0.0627  0.3558 -0.1093
22668SOL    HW180063   7.337   8.812   8.190 -2.1946  3.0078  0.0652
22668SOL    HW280064   7.355   8.897   8.051  1.4425  1.1773 -0.6522
22669SOL     OW80065   6.856   6.410   0.898 -0.0256  0.2684  0.2417
22669SOL    HW180066   6.791   6.420   0.973 -1.6722 -0.5268 -1.0220
22669SOL    HW280067   6.936   6.467   0.915 -0.5876  0.4816  2.3379
22670SOL     OW80068   7.108   3.495   6.553  0.0682  0.6999 -0.8886
22670SOL    HW180069   7.155   3.583   6.550  0.9153  0.2501 -1.3091
22670SOL    HW280070   7.167   3.428   6.598 -0.5164  0.3229 -0.6812
22671SOL     OW80071   5.989   8.198   0.821  0.5108  0.0877 -0.2646
22671SOL    HW180072   5.965   8.114   0.771  0.8236 -0.9648  1.3361
22671SOL    HW280073   6.068   8.180   0.880  0.6779  1.5586 -0.0299
22672SOL     OW80074   2.885   0.864   7.478 -0.0155 -0.0008 -0.0407
22672SOL    HW180075   2.871   0.907   7.389  1.6472 -1.7627 -1.1642
22672SOL    HW280076   2.813   0.797   7.495  0.3118 -0.4911 -0.5761
22673SOL     OW80077   3.550   3.912   4.037  0.4238 -0.4914 -0.4292
22673SOL    HW180078   3.627   3.926   4.100  1.8336  0.6311 -2.3479
22673SOL    HW280079   3.530   3.814   4.032  1.0627 -0.7102  0.8365
22674SOL     OW80080   4.889   1.492   7.585  0.2710  0.7651  0.2325
22674SOL    HW180081   4.803   1.529   7.621 -0.1367 -0.5045  0.5673
22674SOL    HW280082   4.942   1.566   7.544 -1.4328  1.3934 -0.8813
22675SOL     OW80083   8.653   8.236   9.853  0.3419 -0.0352 -0.3756
22675SOL    HW180084   8.641   8.143   9.889 -1.0775  0.1004 -0.4731
22675SOL    HW280085   8.675   8.298   9.928 -0.8958 -0.0639  0.0229
22676SOL     OW80086   1.359   1.153   5.935  0.3284  0.0779  0.0845
22676SOL    HW180087   1.298   1.197   5.869  1.2142  1.1130 -0.0561
22676SOL    HW280088   1.451   1.149   5.898  0.4208 -1.1979  0.4265
22677SOL     OW80089   9.421   7.883   6.897  0.0193 -0.3147 -0.4380
22677SOL    HW180090   9.507   7.930   6.916  0.2818 -0.5109 -1.1478
22677SOL    HW280091   9.357   7.947   6.853  0.2911 -0.5538 -1.1835
22678SOL     OW80092   7.593   5.170   9.936 -0.3256 -0.2660 -0.6097
22678SOL    HW180093   7.651   5.231   9.991  0.7741  1.2760 -3.4161
22678SOL    HW280094   7.648   5.093   9.903 -0.8810 -0.9343 -0.0167
22679SOL     OW80095   8.086   2.616   5.881 -0.1944 -0.1363 -0.2711
22679SOL    HW180096   8.055   2.606   5.786  0.2681  0.9480 -0.5481
22679SOL    HW280097   8.055   2.704   5.917  0.1948 -0.2519  0.3611
22680SOL     OW80098   0.647   3.227   0.466  0.0065 -0.3608  0.1595
22680SOL    HW180099   0.647   3.291   0.542  0.4800  1.2822 -1.1974
22680SOL    HW280100   0.708   3.260   0.394 -3.0451 -0.0697 -2.4167
22681SOL     OW80101   1.310   4.688   4.180 -0.4003 -0.4758  0.2755
22681SOL    HW180102   1.373   4.755   4.220 -0.2784 -0.7192  0.4870
22681SOL    HW280103   1.230   4.736   4.144 -0.2766 -0.2058  0.3567
22682SOL     OW80104   6.003   3.970   1.783 -0.2677  0.0590  0.9002
22682SOL    HW180105   5.916   4.006   1.816 -0.0694  2.1354 -0.7648
22682SOL    HW280106   5.987   3.911   1.704 -0.3280 -1.1297  1.7941
22683SOL     OW80107   7.842   1.870   2.203 -0.0006  0.5075 -0.1724
22683SOL    HW180108   7.811   1.871   2.108  1.5891 -0.0592 -0.7115
22683SOL    HW280109   7.842   1.777   2.238  1.4938  0.4265 -0.3343
22684SOL     OW80110   8.580   7.217   7.850 -0.4914  0.3189 -0.2268
22684SOL    HW180111   8.606   7.139   7.907 -0.4086  0.3588 -0.2096
22684SOL    HW280112   8.482   7.235   7.860 -0.4231  0.5103  0.1357
22685SOL     OW80113   1.093   3.875   0.408  0.3217  0.8417  0.2478
22685SOL    HW180114   1.148   3.911   0.483  0.1370  1.2151  0.2065
22685SOL    HW280115   1.097   3.775   0.408  2.3475  0.8964 -0.7394
22686SOL     OW80116   6.917   3.683   8.024 -0.8558  0.1115 -0.3324
22686SOL    HW180117   7.002   3.702   8.073 -0.8471 -1.1062  0.1230
22686SOL    HW280118   6.854   3.633   8.083 -1.8208  0.8345 -0.7344
22687SOL     OW80119   0.642   6.577   3.409 -0.6830 -0.0268 -0.1442
22687SOL    HW180120   0.600   6.486   3.415 -1.0737  0.0674 -1.3441
22687SOL    HW280121   0.693   6.595   3.493 -2.0536 -0.6328  0.8368
22688SOL     OW80122   8.254   1.895   8.516 -0.3980 -0.1860  0.2792
22688SOL    HW180123   8.168   1.847   8.535 -0.3885 -0.6751 -0.8802
22688SOL    HW280124   8.277   1.954   8.594 -1.5113 -0.4465  0.8158
22689SOL     OW80125   6.753   3.474   5.840 -0.2039  0.3367  0.3560
22689SOL    HW180126   6.789   3.394   5.792 -1.9370 -1.1969  1.5148
22689SOL    HW280127   6.807   3.491   5.922 -0.4013 -0.2681  0.6200
22690SOL     OW80128   0.055   8.072   3.007  0.0315 -0.5266 -0.0077
22690SOL    HW180129   0.027   8.166   2.990  2.9699  0.2905 -0.5076
22690SOL    HW280130  -0.020   8.010   2.982 -1.3323  1.5564 -1.2341
22691SOL     OW80131   2.243   2.225   4.457 -0.1735  0.4882  0.4028
22691SOL    HW180132   2.216   2.300   4.517 -2.6844 -0.7303  0.8528
22691SOL    HW280133   2.209   2.243   4.364 -1.7587 -0.5961  0.7569
22692SOL     OW80134   7.951   1.744   5.894 -0.4702  0.6463 -1.0438
22692SOL    HW180135   8.039   1.738   5.941 -1.4748 -1.1478  0.6139
22692SOL    HW280136   7.936   1.839   5.866  1.9977  0.9847 -1.4237
22693SOL     OW80137   9.559   1.381   2.411 -0.0398 -0.4541  0.0570
22693SOL    HW180138   9.532   1.465   2.458  0.7359 -0.6876  0.9248
22693SOL    HW280139   9.487   1.313   2.419  1.0385 -1.3106  2.9444
22694SOL     OW80140   8.566   2.316   9.953 -0.2750 -0.6850  0.3778
22694SOL    HW180141   8.624   2.385   9.998 -1.7068  0.4469  0.5138
22694SOL    HW280142   8.608   2.226   9.963  1.8488  0.2132 -0.1720
22695SOL     OW80143   3.066   4.596   5.784  0.5226  0.4971  0.1590
22695SOL    HW180144   3.105   4.509   5.755 -0.1135 -0.3565  1.8380
22695SOL    HW280145   3.100   4.619   5.875  1.0927  2.2702 -0.4846
22696SOL     OW80146   3.890   5.989   5.226  0.2183  0.2259 -0.0191
22696SOL    HW180147   3.891   5.977   5.325 -0.6920 -1.6764 -0.2079
22696SOL    HW280148   3.939   5.913   5.183 -2.0435 -0.6655 -1.1360
22697SOL     OW80149   6.075   9.823   6.120 -0.1625 -0.4176  0.2438
22697SOL    HW180150   5.991   9.871   6.094  1.2341  1.5559 -0.7609
22697SOL    HW280151   6.122   9.875   6.192  0.6362 -1.0666  0.1994
22698SOL     OW80152   7.917   3.884   7.801 -0.1453 -0.3916 -0.0421
22698SOL    HW180153   8.000   3.934   7.826 -1.3531  1.1247  1.0370
22698SOL    HW280154   7.937   3.787   7.797  1.8967  0.0227 -0.6997
22699SOL     OW80155   8.986   2.262   5.021 -0.3171  0.1702 -0.2600
22699SOL    HW180156   8.917   2.332   4.999 -0.9163  0.1462  1.4549
22699SOL    HW280157   8.947   2.196   5.085  1.1358 -0.1722  0.2831
22700SOL     OW80158   7.521   6.989   4.266  0.3803  0.2577 -0.1683
22700SOL    HW180159   7.436   6.976   4.215  0.5484  0.4184 -0.4900
22700SOL    HW280160   7.550   6.901   4.305  0.0105  0.2250  0.0354
22701SOL     OW80161   9.842   5.525   2.014  0.0264 -0.2344 -0.1911
22701SOL    HW180162   9.942   5.516   2.019 -0.0087 -0.3144  0.4204
22701SOL    HW280163   9.799   5.441   2.047 -0.2490  0.0884  0.2741
22702SOL     OW80164   9.025   3.452   8.269 -0.5374  0.0414  0.0938
22702SOL    HW180165   9.035   3.358   8.237 -0.4997  0.2793 -0.6133
22702SOL    HW280166   9.075   3.513   8.207  1.3109  0.3104  1.7746
22703SOL     OW80167   7.140   3.705   7.109 -0.9333  0.4563  0.1093
22703SOL    HW180168   7.210   3.684   7.177  0.2795  0.4035 -1.1312
22703SOL    HW280169   7.155   3.650   7.027 -1.1163  2.0399 -1.0117
22704SOL     OW80170   7.792   9.639   5.172  0.0922  0.8488 -0.4681
22704SOL    HW180171   7.758   9.602   5.258 -0.5762 -1.8486 -1.8375
22704SOL    HW280172   7.883   9.679   5.186  0.5292 -0.7230  1.2080
22705SOL     OW80173   8.069   1.591   9.004  0.3540 -0.3581 -0.3140
22705SOL    HW180174   8.084   1.600   9.102  0.7397 -0.8577 -0.3204
22705SOL    HW280175   8.113   1.667   8.956 -0.5582  0.3480 -0.0418
22706SOL     OW80176   8.669   5.229   7.376  0.2971  0.4062 -0.3956
22706SOL    HW180177   8.761   5.269   7.372  0.0577  1.3087  2.1730
22706SOL    HW280178   8.603   5.301   7.399 -0.8347 -0.5299 -0.7259
22707SOL     OW80179   1.798   7.499   3.214  0.5102 -0.1491  0.1016
22707SOL    HW180180   1.748   7.428   3.164  0.9973  0.1560 -0.8367
22707SOL    HW280181   1.736   7.548   3.275 -0.1486 -0.3558 -0.3989
22708SOL     OW80182   0.428   7.594   6.880 -0.0995  0.1925  0.1566
22708SOL    HW180183   0.493   7.560   6.949 -0.4138 -0.6506  0.0360
22708SOL    HW280184   0.406   7.521   6.816 -1.9080  0.1856  0.7456
22709SOL     OW80185   7.438   3.110   8.774  0.1450  0.6179 -0.1635
22709SOL    HW180186   7.345   3.124   8.809  0.1106  1.7698 -0.6581
22709SOL    HW280187   7.461   3.013   8.777 -0.5579  0.4887  1.2508
22710SOL     OW80188   0.567   1.158   2.770 -0.4460  0.2493  0.1665
22710SOL    HW180189   0.565   1.060   2.790  0.1946 -0.0488 -1.1731
22710SOL    HW280190   0.619   1.206   2.841  2.2667 -0.8640 -1.0087
22711SOL     OW80191   0.569   2.478   2.364 -0.2097 -0.8947 -0.0218
22711SOL    HW180192   0.640   2.409   2.353  1.1179  0.3800  0.3604
22711SOL    HW280193   0.521   2.464   2.451  0.3838 -1.0426  0.2799
22712SOL     OW80194   8.207   0.397   4.225  0.1164 -0.3245 -0.8016
22712SOL    HW180195   8.137   0.468   4.220 -0.7320 -1.1489 -0.9296
22712SOL    HW280196   8.297   0.437   4.208 -0.0135  1.1889  1.7143
22713SOL     OW80197   1.344   3.844   6.381 -0.2145 -0.1539  0.1120
22713SOL    HW180198   1.333   3.880   6.288  0.9630  1.0617  0.4199
22713SOL    HW280199   1.254   3.836   6.424 -0.6743  0.4510 -0.7008
22714SOL     OW80200   7.697   9.641   5.672  0.0178 -0.3679 -0.3706
22714SOL    HW180201   7.662   9.630   5.766  0.1623 -2.5093 -0.5513
22714SOL    HW280202   7.668   9.730   5.637 -0.8824  0.0517  1.3535
22715SOL     OW80203   9.533   2.837   8.990  0.0132 -0.7705  0.3197
22715SOL    HW180204   9.463   2.890   9.039 -1.5749 -2.7130  0.2385
22715SOL    HW280205   9.523   2.740   9.013  3.6439 -0.9291  1.4059
22716SOL     OW80206   1.513   3.549   6.111 -0.0499  0.2292 -0.2202
22716SOL    HW180207   1.423   3.509   6.123 -0.0121  0.3856  0.6468
22716SOL    HW280208   1.578   3.506   6.174  0.2304  0.8574 -0.0641
22717SOL     OW80209   7.733   0.444   3.888 -0.2816  0.7082 -0.4849
22717SOL    HW180210   7.758   0.497   3.969  1.4077 -0.7301 -0.0096
22717SOL    HW280211   7.634   0.444   3.877 -0.5447  0.8326  1.6625
22718SOL     OW80212   5.732   5.624   7.133  0.7295 -0.0123 -1.1056
22718SOL    HW180213   5.676   5.542   7.127  0.4936  0.0432  0.1600
22718SOL    HW280214   5.808   5.608   7.197 -0.5906  1.4486  0.8904
22719SOL     OW80215   7.379   8.048   5.353  0.0527 -0.5642 -0.5058
22719SOL    HW180216   7.382   8.144   5.380  0.2908 -0.0809 -2.1757
22719SOL    HW280217   7.435   7.994   5.416  0.8769  0.5707 -0.2458
22720SOL     OW80218   5.271   4.594   9.162  0.2379 -0.6987 -0.3059
22720SOL    HW180219   5.301   4.687   9.143 -1.6324 -0.1262 -0.5395
22720SOL    HW280220   5.346   4.543   9.205  1.1499  1.0073  0.1762
22721SOL     OW80221   9.194   1.203   3.782  0.0105 -0.4653  0.2346
22721SOL    HW180222   9.176   1.110   3.751 -0.2680 -0.0103 -0.9720
22721SOL    HW280223   9.137   1.267   3.731  1.6101  0.5515 -0.3088
22722SOL     OW80224   7.175   3.730   7.788 -0.5253 -0.2298  0.2192
22722SOL    HW180225   7.137   3.679   7.865 -0.9668 -0.7160 -0.3168
22722SOL    HW280226   7.236   3.671   7.735 -1.2350 -0.2847 -0.5490
22723SOL     OW80227   7.895   4.173   8.360 -0.6971 -0.2569 -0.6303
22723SOL    HW180228   7.888   4.152   8.262  0.2451 -0.8781 -0.5687
22723SOL    HW280229   7.815   4.225   8.389 -0.4704  0.8680 -1.9749
22724SOL     OW80230   0.569   2.286   7.777  0.3743  0.2279 -0.1645
22724SOL    HW180231   0.544   2.248   7.866  0.9090 -0.7553 -0.4347
22724SOL    HW280232   0.609   2.215   7.720  3.0366  1.5695 -0.0546
22725SOL     OW80233   5.781   3.578   9.161 -0.2300  0.2681 -0.3414
22725SOL    HW180234   5.782   3.629   9.075  0.1030 -0.8189 -0.9769
22725SOL    HW280235   5.725   3.496   9.151 -1.3484  0.8331  0.8920
22726SOL     OW80236   0.614   6.112   8.730 -0.2304 -0.3003  0.4067
22726SOL    HW180237   0.554   6.114   8.650 -0.4656  0.1418  0.5876
22726SOL    HW280238   0.647   6.204   8.749 -0.1603 -0.4061  0.8043
22727SOL     OW80239   7.797   9.363   4.808 -0.0122  0.6216 -0.0548
22727SOL    HW180240   7.737   9.437   4.777  1.2337  1.8423  0.4304
22727SOL    HW280241   7.862   9.398   4.874  0.7848 -0.8595 -0.0301
22728SOL     OW80242   4.533   3.288   8.332  0.2606  0.7089  0.3596
22728SOL    HW180243   4.599   3.313   8.262  0.2881 -1.0500 -0.2772
22728SOL    HW280244   4.537   3.189   8.347 -1.3922  0.7476  1.1457
22729SOL     OW80245   6.115   6.597   9.854 -0.2922 -0.7549 -0.4355
22729SOL    HW180246   6.196   6.556   9.812 -0.2679  0.3198 -1.4529
22729SOL    HW280247   6.065   6.650   9.786 -0.3218  0.9201  0.8530
22730SOL     OW80248   3.972   4.473   1.730 -0.5677  0.1178  0.3393
22730SOL    HW180249   3.967   4.420   1.645  3.3276 -0.7628  0.5447
22730SOL    HW280250   4.015   4.561   1.710  3.0413 -1.2386  1.8105
22731SOL     OW80251   9.786   9.964   7.931  0.5941 -0.4175  0.7055
22731SOL    HW180252   9.815  10.053   7.896 -0.7766  0.2034  1.0995
22731SOL    HW280253   9.779   9.899   7.856  0.2580  0.1920  0.2016
22732SOL     OW80254   4.186   7.216   0.257  0.6121 -0.0362 -0.1515
22732SOL    HW180255   4.222   7.233   0.166 -0.0415  0.4158 -0.3244
22732SOL    HW280256   4.213   7.124   0.287  2.1903  0.4239 -0.1378
22733SOL     OW80257   9.560   9.553   5.771 -0.6920  0.2261  0.2429
22733SOL    HW180258   9.639   9.556   5.709 -1.0968 -0.2638 -0.3091
22733SOL    HW280259   9.514   9.464   5.761 -1.4578  0.6032  0.3722
22734SOL     OW80260   8.137   8.181   7.121  0.1254 -0.3545  0.1651
22734SOL    HW180261   8.138   8.136   7.032  0.2382  0.4136 -0.2265
22734SOL    HW280262   8.044   8.209   7.144 -0.4150 -3.1702  1.6419
22735SOL     OW80263   9.126   9.713   3.457 -0.0309  0.4203 -0.1048
22735SOL    HW180264   9.071   9.796   3.457 -1.7105 -0.6658  1.1565
22735SOL    HW280265   9.221   9.736   3.434 -0.8825  2.3830 -1.7891
22736SOL     OW80266   0.034   9.579   4.178 -0.3147  0.3343  0.7582
22736SOL    HW180267   0.121   9.602   4.133 -0.6515 -0.7959 -0.5136
22736SOL    HW280268  -0.033   9.651   4.158 -0.2593  0.1842  0.0024
22737SOL     OW80269   7.812   1.939   3.312 -0.1169  0.1601 -0.2344
22737SOL    HW180270   7.722   1.965   3.350  0.7063  2.1015  0.4563
22737SOL    HW280271   7.869   1.901   3.385  0.6903  1.8290  0.0302
22738SOL     OW80272   9.340   3.972   2.216  0.2400  0.3700 -0.2526
22738SOL    HW180273   9.297   4.033   2.283  0.0847  0.3939 -0.3722
22738SOL    HW280274   9.270   3.939   2.152  0.3853  0.3472 -0.4013
22739SOL     OW80275   6.761   0.383   3.332 -0.4133 -0.2925  0.0860
22739SOL    HW180276   6.815   0.321   3.390 -0.7608 -0.4848  0.2036
22739SOL    HW280277   6.665   0.356   3.335 -0.3941 -0.4752 -0.7970
22740SOL     OW80278   0.601   7.450   4.091  0.0189 -0.0813 -0.0070
22740SOL    HW180279   0.655   7.533   4.074 -0.2793 -0.2007 -1.6270
22740SOL    HW280280   0.533   7.440   4.018 -1.9566 -0.1343  1.7940
22741SOL     OW80281   1.145   6.695   9.188 -0.2325 -0.6787  0.2543
22741SOL    HW180282   1.048   6.719   9.201 -0.5470 -1.4441 -0.6468
22741SOL    HW280283   1.168   6.702   9.092  0.4569 -1.1117  0.3885
22742SOL     OW80284   1.707   0.835   4.120  0.1149 -0.2521  0.4492
22742SOL    HW180285   1.726   0.788   4.206 -1.3031 -1.2330  0.2545
22742SOL    HW280286   1.626   0.793   4.077 -0.2603  1.3899 -0.4721
22743SOL     OW80287   8.040   9.338   5.255  0.1333  0.1087  0.6632
22743SOL    HW180288   8.053   9.413   5.319  0.8128 -1.4506  2.3941
22743SOL    HW280289   8.093   9.356   5.172 -0.9001  2.2248  0.4350
22744SOL     OW80290   5.078   0.590   6.848  0.2777 -0.3872 -0.2690
22744SOL    HW180291   5.105   0.561   6.940  0.1468  0.2361 -0.0344
22744SOL    HW280292   5.152   0.569   6.783  0.6403 -0.2152  0.0899
22745SOL     OW80293   7.837   2.989   0.658 -0.0834 -0.3251 -0.2052
22745SOL    HW180294   7.837   2.958   0.753  0.3532  1.9877  0.5920
22745SOL    HW280295   7.745   3.019   0.632  0.5853  2.8394  0.8440
22746SOL     OW80296   8.294   3.293   2.083  0.0891  0.4440 -0.1053
22746SOL    HW180297   8.282   3.256   1.991 -2.3220 -1.7087  1.0317
22746SOL    HW280298   8.382   3.342   2.088  0.7211 -0.2668 -3.2311
22747SOL     OW80299   9.586   3.139   8.848 -0.6421 -0.3237  0.0216
22747SOL    HW180300   9.504   3.112   8.898  0.3064 -1.4593  0.9961
22747SOL    HW280301   9.593   3.086   8.764  1.1643 -3.2225  1.8795
22748SOL     OW80302   9.315   7.667   6.762  0.1078 -0.7422  0.4641
22748SOL    HW180303   9.343   7.584   6.812 -0.6440 -0.8312  0.7539
22748SOL    HW280304   9.359   7.747   6.803 -0.3112 -0.8425  1.1115
22749SOL     OW80305   7.128   4.611   6.404 -0.0558 -0.8355  0.1563
22749SOL    HW180306   7.154   4.515   6.417  3.5045  0.1084  0.5726
22749SOL    HW280307   7.077   4.643   6.484 -0.1784 -2.0324  0.5671
22750SOL     OW80308   1.550   3.007   8.242 -0.0907 -0.2629  0.1737
22750SOL    HW180309   1.625   3.074   8.242  0.7005 -1.1437  0.3856
22750SOL    HW280310   1.558   2.948   8.322 -0.3633 -1.0807 -0.3956
22751SOL     OW80311   7.878   3.145   2.587 -0.4580  0.3737 -0.0860
22751SOL    HW180312   7.814   3.169   2.660 -0.8482  0.0744 -0.3259
22751SOL    HW280313   7.920   3.057   2.607 -1.0862 -0.0383 -0.5631
22752SOL     OW80314   8.834   1.676   1.223 -0.3207  0.4083  0.3363
22752SOL    HW180315   8.907   1.620   1.185  0.5217  0.9542  1.1281
22752SOL    HW280316   8.805   1.744   1.155  0.6667  0.8998  0.3980
22753SOL     OW80317   8.489   3.687   4.358 -0.0752 -0.3957 -0.2062
22753SOL    HW180318   8.438   3.673   4.443  0.2841 -7.1473 -0.8949
22753SOL    HW280319   8.586   3.696   4.379 -0.2634  0.6667  0.2473
22754SOL     OW80320   3.872   5.507   3.162 -0.7175  0.2667  0.4130
22754SOL    HW180321   3.835   5.464   3.080 -0.8488  0.1515  0.5323
22754SOL    HW280322   3.853   5.449   3.242 -0.6730  0.4223  0.5371
22755SOL     OW80323   6.131   9.800   0.451  0.1540 -0.1769  0.5089
22755SOL    HW180324   6.054   9.815   0.388 -0.5490 -1.9519  0.9179
22755SOL    HW280325   6.142   9.880   0.510 -0.8223  0.4432 -0.1340
22756SOL     OW80326   1.436   3.317   7.752 -0.2056  0.1081  0.0903
22756SOL    HW180327   1.443   3.392   7.817 -0.0182 -0.1702  0.3900
22756SOL    HW280328   1.506   3.327   7.681  0.2719 -0.1684  0.5231
22757SOL     OW80329   7.425   2.075   4.008  0.0065  0.5634  0.5858
22757SOL    HW180330   7.370   1.998   3.976  2.1791 -1.1436  0.7990
22757SOL    HW280331   7.371   2.130   4.072 -1.3249 -1.2901  1.1106
22758SOL     OW80332   5.491   5.769   8.398  0.5603 -0.4926  0.0285
22758SOL    HW180333   5.487   5.787   8.300  1.1317 -1.5883 -0.1953
22758SOL    HW280334   5.502   5.856   8.447  0.8709  0.0044 -0.9093
22759SOL     OW80335   8.100   9.922   4.944 -0.5335  0.1725  0.2595
22759SOL    HW180336   8.099   9.838   4.891 -0.4576  0.4668 -0.2085
22759SOL    HW280337   8.182   9.975   4.921 -1.4832  1.2209 -0.7806
22760SOL     OW80338   9.123   8.624   6.137  0.2676  0.2401 -0.1327
22760SOL    HW180339   9.130   8.663   6.228 -0.8486  0.3189 -0.0779
22760SOL    HW280340   9.215   8.609   6.100  0.7329 -0.3956  1.2530
22761SOL     OW80341   1.576   2.023   8.279 -0.4991  0.5929  0.0051
22761SOL    HW180342   1.577   2.122   8.267  1.3022  0.6118  0.1101
22761SOL    HW280343   1.523   1.980   8.206  0.6188  1.4820 -1.3497
22762SOL     OW80344   7.153   8.462   2.695  0.9475  0.2843 -0.1868
22762SOL    HW180345   7.154   8.551   2.740  0.3300  0.7273 -1.0164
22762SOL    HW280346   7.147   8.389   2.763 -0.7166  0.9667  0.4276
22763SOL     OW80347   0.646   5.751   2.339  0.1133  0.5940 -0.9007
22763SOL    HW180348   0.647   5.851   2.346 -0.6077  0.4630  1.1497
22763SOL    HW280349   0.582   5.724   2.267  2.2280  1.6792 -3.2777
22764SOL     OW80350   7.476   0.626   5.707  0.1326  0.3711  0.2261
22764SOL    HW180351   7.442   0.703   5.653 -2.4246 -0.1416  1.0596
22764SOL    HW280352   7.441   0.632   5.800 -1.9406 -2.9675 -0.2658
22765SOL     OW80353   9.057   7.156   4.228 -0.1261 -0.1415  0.1851
22765SOL    HW180354   9.153   7.141   4.254 -0.4052  0.3469  1.5385
22765SOL    HW280355   9.047   7.249   4.192 -0.0665 -0.2333 -0.0682
22766SOL     OW80356   4.181   7.801   7.549  0.0947 -0.2125  0.0181
22766SOL    HW180357   4.215   7.866   7.482 -1.0260  1.8942  1.4415
22766SOL    HW280358   4.167   7.712   7.505 -1.9025  1.4529 -2.8869
22767SOL     OW80359   6.704   3.437   6.749  0.2999  0.1376 -0.9642
22767SOL    HW180360   6.642   3.494   6.696 -0.5205 -0.5854 -0.7890
22767SOL    HW280361   6.702   3.343   6.713 -0.2722 -0.3590  0.3416
22768SOL     OW80362   9.152   2.204   8.431 -0.1743 -0.1577  0.4230
22768SOL    HW180363   9.233   2.234   8.380 -1.4026  1.7968 -0.4082
22768SOL    HW280364   9.070   2.247   8.393 -1.4876 -1.2265  1.9811
22769SOL     OW80365   6.926   8.334   4.388 -0.0684 -0.3675  0.0016
22769SOL    HW180366   6.865   8.397   4.436  0.5894  0.9914 -0.9297
22769SOL    HW280367   6.928   8.246   4.436 -1.9697 -0.0979  0.5979
22770SOL     OW80368   2.632   3.188   6.721  0.1046 -0.3952  0.3219
22770SOL    HW180369   2.666   3.277   6.691  0.5078 -0.3460  0.9204
22770SOL    HW280370   2.693   3.116   6.689  0.0274 -0.4199  0.2288
22771SOL     OW80371   7.612   8.687   9.464 -0.0836 -0.4803 -0.1144
22771SOL    HW180372   7.620   8.680   9.365  0.1771 -3.3790  0.0689
22771SOL    HW280373   7.534   8.746   9.488 -1.7343 -1.8080 -2.0590
22772SOL     OW80374   4.070   2.978   6.215  0.1932  0.2764 -0.1531
22772SOL    HW180375   4.049   3.071   6.246  1.0312  0.5113 -0.2734
22772SOL    HW280376   4.143   2.982   6.147 -1.5652 -0.2528 -2.1023
22773SOL     OW80377   8.852   0.478   4.299 -0.1936  0.4558 -0.0483
22773SOL    HW180378   8.860   0.453   4.396  1.4133 -0.7699 -0.4628
22773SOL    HW280379   8.769   0.531   4.285 -2.1779 -2.1142  1.4277
22774SOL     OW80380   2.651   4.295   4.224  0.0005 -0.0209  0.0697
22774SOL    HW180381   2.711   4.315   4.301  1.9618 -3.1086 -0.5671
22774SOL    HW280382   2.577   4.234   4.254  0.3050 -0.5770 -0.3092
22775SOL     OW80383   4.561   7.547   8.450  0.2175  0.9186 -0.7834
22775SOL    HW180384   4.547   7.460   8.404 -1.3149  0.0839  1.1531
22775SOL    HW280385   4.501   7.616   8.409 -2.1408 -0.1462  0.7569
22776SOL     OW80386   7.181   6.088   9.571 -0.5734  0.1838 -0.1154
22776SOL    HW180387   7.236   6.136   9.502 -0.6827 -0.2378 -0.4994
22776SOL    HW280388   7.084   6.105   9.554 -0.7626 -2.3631 -1.9353
22777SOL     OW80389   4.015   2.687   0.536  0.4489 -0.2390  0.5177
22777SOL    HW180390   3.964   2.726   0.459  2.6951  1.0892 -0.3616
22777SOL    HW280391   4.007   2.747   0.615 -0.0054 -0.4507  0.6350
22778SOL     OW80392   3.472   0.975   8.709  0.3048  0.3369 -0.5929
22778SOL    HW180393   3.507   0.896   8.659 -0.2839 -0.3553  0.0745
22778SOL    HW280394   3.523   1.057   8.683  0.6380 -0.1886 -1.6009
22779SOL     OW80395   0.800   4.370   0.740  0.0451 -0.0635  0.3827
22779SOL    HW180396   0.737   4.415   0.804  1.3891  0.5280  1.3182
22779SOL    HW280397   0.827   4.281   0.777 -1.9230 -1.3001 -1.0542
22780SOL     OW80398   9.701   3.142   5.633 -0.1017  0.2607  0.1938
22780SOL    HW180399   9.752   3.067   5.592  0.9875  1.3261 -0.4465
22780SOL    HW280400   9.733   3.158   5.726  1.8195  1.8955 -0.7144
22781SOL     OW80401   0.945   3.612   1.847 -0.2762  0.3848  0.4022
22781SOL    HW180402   1.036   3.613   1.806  0.5584  0.1339  2.1650
22781SOL    HW280403   0.936   3.531   1.906 -2.6020 -1.0152 -1.7748
22782SOL     OW80404   9.996   5.545   2.307  0.1829  0.3864 -0.5968
22782SOL    HW180405  10.077   5.577   2.259  0.4413  0.3869 -0.1648
22782SOL    HW280406   9.917   5.598   2.278  0.2916  0.2312 -1.1931
22783SOL     OW80407   7.956   3.681   4.889 -0.4929 -0.0587 -0.1349
22783SOL    HW180408   7.966   3.611   4.959 -1.4143 -0.7922 -0.7228
22783SOL    HW280409   8.017   3.758   4.910 -0.1285 -0.6369  0.9942
22784SOL     OW80410   6.570   3.222   6.212 -0.4256  0.2143 -0.1038
22784SOL    HW180411   6.540   3.130   6.238  2.3387 -0.3128  1.5335
22784SOL    HW280412   6.570   3.281   6.293  0.3057  0.8952 -0.5909
22785SOL     OW80413   2.389   3.124   9.989  0.0784 -0.2788  0.2984
22785SOL    HW180414   2.385   3.026  10.009  1.3867 -0.1621  1.2093
22785SOL    HW280415   2.379   3.138   9.890 -1.8943 -1.1937  0.3461
22786SOL     OW80416   7.634   7.187   6.291  0.0885 -0.5207  0.1479
22786SOL    HW180417   7.731   7.163   6.287  0.3116  0.2152  1.0249
22786SOL    HW280418   7.620   7.280   6.257 -0.2889 -0.5700  0.1566
22787SOL     OW80419   7.300   2.117   7.388 -0.1218  0.2727 -0.2033
22787SOL    HW180420   7.271   2.026   7.357 -0.7238 -0.4206  2.2137
22787SOL    HW280421   7.219   2.170   7.413  0.3403  0.6569  0.4801
22788SOL     OW80422   0.201   7.230   1.192 -0.3934 -0.0370  0.4465
22788SOL    HW180423   0.196   7.328   1.176  1.1902 -0.1908 -1.1363
22788SOL    HW280424   0.193   7.211   1.290 -1.5114  1.5837  0.6842
22789SOL     OW80425   5.406   5.148   6.595  0.0399 -0.4536 -0.1560
22789SOL    HW180426   5.368   5.234   6.629 -0.9185 -0.3664 -1.4053
22789SOL    HW280427   5.361   5.123   6.510  2.6927 -0.4361 -1.6178
22790SOL     OW80428   6.610   7.276   6.493 -0.2691 -0.1241  0.2249
22790SOL    HW180429   6.606   7.376   6.495  0.0730 -0.0722 -1.0551
22790SOL    HW280430   6.530   7.238   6.539 -0.1301  0.7361  1.1998
22791SOL     OW80431   9.477   3.681   5.399 -0.4105  0.3994  0.0580
22791SOL    HW180432   9.462   3.585   5.425 -1.2037  0.5696  0.2410
22791SOL    HW280433   9.520   3.685   5.309 -0.5129 -0.1294 -0.0171
22792SOL     OW80434   7.026   5.756   7.208 -0.1932 -0.4064 -0.2282
22792SOL    HW180435   7.054   5.850   7.189 -0.7505 -0.0978  0.4231
22792SOL    HW280436   6.943   5.735   7.155  0.8381 -1.0760 -1.6047
22793SOL     OW80437   7.088   2.298   9.374 -0.5596 -0.2465  0.4596
22793SOL    HW180438   7.092   2.376   9.311 -1.4689  0.4470  1.2653
22793SOL    HW280439   7.174   2.294   9.426  0.5327 -1.2930 -1.3555
22794SOL     OW80440   9.162   6.389   7.552  0.0316 -0.1373 -0.0514
22794SOL    HW180441   9.130   6.474   7.511 -1.3125 -0.2824  0.6932
22794SOL    HW280442   9.091   6.351   7.611  1.3221 -0.8160  1.0793
22795SOL     OW80443   3.481   3.282   3.262 -0.1863  0.2188  0.2821
22795SOL    HW180444   3.537   3.348   3.313 -0.9495  0.9556  0.1887
22795SOL    HW280445   3.401   3.256   3.317  0.6958 -1.5064  0.7738
22796SOL     OW80446   9.814   6.844   1.050  0.4006 -0.2082 -0.3662
22796SOL    HW180447   9.844   6.872   0.959  1.6481 -0.5639 -0.0844
22796SOL    HW280448   9.885   6.869   1.117 -1.8846  3.0665  1.0077
22797SOL     OW80449   0.440   2.069   3.099 -0.3216  0.1245  0.2030
22797SOL    HW180450   0.534   2.047   3.071 -0.3061 -0.3889  0.6601
22797SOL    HW280451   0.439   2.096   3.195 -1.0486 -2.7534  1.0671
22798SOL     OW80452   1.889   9.524   7.276  0.1705 -0.3454 -0.3258
22798SOL    HW180453   1.949   9.473   7.215 -2.2834 -2.0187 -1.4202
22798SOL    HW280454   1.853   9.604   7.228  0.8685  0.2053  0.0599
22799SOL     OW80455   8.938   3.965   3.685  0.3711  0.0860 -0.0923
22799SOL    HW180456   8.969   3.976   3.779  3.3166  2.1411 -1.2444
22799SOL    HW280457   8.999   3.901   3.637  0.9094  1.6030 -1.4780
22800SOL     OW80458   3.600   4.961   7.192  0.6270 -0.5456  0.5542
22800SOL    HW180459   3.587   4.905   7.274 -0.1320 -1.2032  0.0030
22800SOL    HW280460   3.687   5.009   7.197 -0.7415  1.7914  3.1312
22801SOL     OW80461   2.507   1.955   7.858 -0.3145  0.0466 -0.5214
22801SOL    HW180462   2.486   1.867   7.901  0.4373  0.7428  1.3228
22801SOL    HW280463   2.421   2.003   7.837 -0.7208  0.4712  1.9115
22802SOL     OW80464   7.108   3.299   5.778  0.3108 -0.3169  0.1929
22802SOL    HW180465   7.146   3.208   5.762  0.2843 -0.1297 -1.0321
22802SOL    HW280466   7.098   3.315   5.876  0.6389 -1.4980  0.4254
22803SOL     OW80467   9.130   8.665   8.282 -0.3173  0.3031 -0.1254
22803SOL    HW180468   9.224   8.660   8.247 -0.4182 -0.7756 -0.2368
22803SOL    HW280469   9.096   8.758   8.270  0.3702  0.4461 -1.0320
22804SOL     OW80470   8.904   4.115   2.094  0.2731  0.5855  0.1018
22804SOL    HW180471   8.925   4.207   2.127 -0.2370  0.9973 -0.6929
22804SOL    HW280472   8.877   4.119   1.998 -0.9817 -0.2202  0.3981
22805SOL     OW80473   5.428   6.639   6.495 -0.0797  0.4140 -0.2077
22805SOL    HW180474   5.497   6.669   6.560 -1.1506  3.3439 -0.3710
22805SOL    HW280475   5.337   6.655   6.533 -0.7004 -0.0214 -1.4916
22806SOL     OW80476   1.877   0.734   5.895  0.4516 -0.2151 -0.5874
22806SOL    HW180477   1.918   0.645   5.916  1.0371  0.2117  0.1059
22806SOL    HW280478   1.790   0.743   5.943  0.5874 -0.2445 -0.3383
22807SOL     OW80479   6.856   2.238   4.008 -0.0146  0.1334  0.2593
22807SOL    HW180480   6.852   2.210   4.104 -0.9230  1.2173  0.5492
22807SOL    HW280481   6.915   2.175   3.957  1.0196 -0.0512  1.6621
22808SOL     OW80482   8.117   3.568   2.020  0.2914 -0.4553 -0.4337
22808SOL    HW180483   8.119   3.477   2.061  2.3053  0.5456  1.8490
22808SOL    HW280484   8.199   3.581   1.964 -0.2154 -0.2135 -1.1169
22809SOL     OW80485   7.838   6.318   4.285  0.7919  0.5222 -0.1886
22809SOL    HW180486   7.920   6.289   4.334 -0.2756 -0.0181  1.3064
22809SOL    HW280487   7.757   6.277   4.327 -0.1679  0.1472 -2.3404
22810SOL     OW80488   7.734   5.892   8.623 -0.0897 -0.8278 -0.0693
22810SOL    HW180489   7.701   5.949   8.699 -0.7028  0.1093 -1.0285
22810SOL    HW280490   7.666   5.822   8.602  0.6681 -1.9465  1.1173
22811SOL     OW80491   0.595   9.029   3.481  0.8392 -0.3411  0.4661
22811SOL    HW180492   0.586   9.037   3.581  4.4780  1.4277  0.7155
22811SOL    HW280493   0.597   8.932   3.456 -2.8492 -0.8395  1.7637
22812SOL     OW80494   0.645   1.087   8.743 -0.3145 -0.2368 -0.6102
22812SOL    HW180495   0.638   1.185   8.762 -2.8649 -0.3199 -0.8847
22812SOL    HW280496   0.732   1.067   8.700  0.4551  1.8309 -0.0745
22813SOL     OW80497   0.803   6.137   0.507  1.0312 -0.3095 -0.4120
22813SOL    HW180498   0.897   6.122   0.538  0.6321  0.4578  1.2562
22813SOL    HW280499   0.752   6.185   0.579 -0.4463 -0.1057 -1.5773
22814SOL     OW80500   8.321   2.852   9.060 -0.4194  0.0668  0.4286
22814SOL    HW180501   8.358   2.772   9.108  2.7739  0.9049 -0.5419
22814SOL    HW280502   8.271   2.822   8.979  0.5048 -0.9806  0.2365
22815SOL     OW80503   9.440   9.278   4.301  0.7307 -0.1722 -0.5753
22815SOL    HW180504   9.464   9.191   4.343  0.2925  0.0039  0.0547
22815SOL    HW280505   9.359   9.266   4.244 -1.3844  0.4789  2.1508
22816SOL     OW80506   9.969   3.863   7.327 -0.1035 -0.0719 -0.2672
22816SOL    HW180507   9.973   3.877   7.426  1.4921 -0.9457 -0.2026
22816SOL    HW280508  10.010   3.941   7.280 -0.1476 -0.0187 -0.2170
22817SOL     OW80509   4.749   8.011   9.288 -0.7100  0.3651  1.0668
22817SOL    HW180510   4.824   8.061   9.243 -0.2459  0.7152  2.2070
22817SOL    HW280511   4.785   7.925   9.324 -1.4129 -0.6129 -0.5090
22818SOL     OW80512   8.886   3.688   8.683 -0.0977 -0.4510  0.3218
22818SOL    HW180513   8.935   3.627   8.621 -0.6252 -0.6788  0.1208
22818SOL    HW280514   8.913   3.782   8.665  0.1328 -0.5580  0.0922
22819SOL     OW80515   9.497   3.531   5.869 -0.1651  0.3654  0.5746
22819SOL    HW180516   9.406   3.493   5.853 -1.3139  2.4247  1.9706
22819SOL    HW280517   9.517   3.599   5.798 -0.1785  0.7337  0.9259
22820SOL     OW80518   2.638   9.628   7.012 -0.0784 -0.0271 -0.1219
22820SOL    HW180519   2.665   9.629   7.108  1.3534 -0.3296 -0.5145
22820SOL    HW280520   2.665   9.540   6.971  0.4684  0.6057 -1.1290
22821SOL     OW80521   3.575   5.496   3.274  0.0738 -0.2483 -0.5041
22821SOL    HW180522   3.574   5.587   3.233 -0.4065 -0.1018 -0.1744
22821SOL    HW280523   3.669   5.471   3.298  0.1731  0.2902 -0.3204
22822SOL     OW80524   8.890   4.259   5.754 -0.4003  0.4518 -0.5897
22822SOL    HW180525   8.909   4.234   5.659  0.5629 -2.0216  0.2190
22822SOL    HW280526   8.803   4.219   5.783  0.1013 -0.1827  0.0559
22823SOL     OW80527   5.905   4.012   4.856 -0.1236 -0.5737 -0.3867
22823SOL    HW180528   5.965   4.006   4.777  1.0998 -1.5391  0.6011
22823SOL    HW280529   5.813   3.982   4.831  0.1243 -0.3606 -1.5647
22824SOL     OW80530   4.998   5.476   2.467 -0.2160  0.3430 -0.5133
22824SOL    HW180531   5.096   5.486   2.484 -0.0178  2.1095 -2.5584
22824SOL    HW280532   4.976   5.380   2.449  1.1926 -0.0034 -0.3744
22825SOL     OW80533   6.909   8.318   5.284 -0.1401 -0.6500  0.1473
22825SOL    HW180534   6.864   8.283   5.202  2.3138  0.7770 -1.8351
22825SOL    HW280535   6.885   8.414   5.298  0.3945 -0.5537  0.4327
22826SOL     OW80536   9.139   3.065   8.486  0.3616 -0.3797  0.2159
22826SOL    HW180537   9.201   3.074   8.408  1.1368 -1.2107  0.7255
22826SOL    HW280538   9.059   3.011   8.458  1.0736 -1.4626  0.2349
22827SOL     OW80539   6.967   7.323   4.439  0.3392  0.4024  0.2545
22827SOL    HW180540   6.878   7.304   4.480  0.9871 -0.5369  1.2725
22827SOL    HW280541   7.004   7.239   4.399  1.8042  0.1949  1.9443
22828SOL     OW80542   1.921   7.211   1.849  0.0057  0.5684  0.2258
22828SOL    HW180543   1.979   7.283   1.812  1.1163 -0.5260 -0.1848
22828SOL    HW280544   1.967   7.168   1.927  0.7647 -1.8049 -1.4754
22829SOL     OW80545   1.509   3.898   5.248 -0.1264  0.2361  0.5070
22829SOL    HW180546   1.592   3.921   5.298 -0.9092  3.4161  0.4327
22829SOL    HW280547   1.473   3.980   5.204 -2.3627 -1.4526 -0.8967
22830SOL     OW80548   5.927   8.544   4.018  0.2101 -0.1007  0.3313
22830SOL    HW180549   6.020   8.511   4.033  1.0609  1.3476 -1.5993
22830SOL    HW280550   5.893   8.512   3.930 -1.1263 -0.5913  1.0029
22831SOL     OW80551   8.143   4.732   5.592 -0.3086 -0.7807  0.3237
22831SOL    HW180552   8.170   4.806   5.530  2.1010 -1.9332 -0.0986
22831SOL    HW280553   8.073   4.676   5.548 -2.9470  1.8129  1.0846
22832SOL     OW80554   2.938   1.181   3.600  0.1274 -0.0959 -0.0293
22832SOL    HW180555   2.927   1.186   3.699 -0.5909  1.5578 -0.1750
22832SOL    HW280556   3.036   1.179   3.578  0.2901 -0.5092  0.7080
22833SOL     OW80557   3.236   3.346   0.694  0.0004  0.4061  0.8189
22833SOL    HW180558   3.218   3.430   0.643 -0.4007  0.0921  0.4379
22833SOL    HW280559   3.328   3.314   0.674  0.4472  1.2021  1.6002
22834SOL     OW80560   1.075   0.231   8.864  0.5543  0.1309 -0.1907
22834SOL    HW180561   1.064   0.179   8.780 -0.3478 -1.3038  0.7894
22834SOL    HW280562   1.171   0.256   8.875  0.6472  0.5080 -1.7273
22835SOL     OW80563   7.430   2.032   8.616 -0.2778  0.1892 -0.0317
22835SOL    HW180564   7.404   2.093   8.690 -1.3194 -0.1624 -0.0965
22835SOL    HW280565   7.456   2.085   8.535  0.9126  0.5712  0.5978
22836SOL     OW80566   7.364   0.249   9.636 -0.3806  0.3759  0.1758
22836SOL    HW180567   7.341   0.343   9.609 -1.5191 -0.1888 -0.9037
22836SOL    HW280568   7.280   0.201   9.662  0.0081 -0.7470 -0.5932
22837SOL     OW80569   0.882   3.578   6.770 -0.1442  0.0333  0.0924
22837SOL    HW180570   0.976   3.554   6.791 -0.2681 -0.9741 -0.4552
22837SOL    HW280571   0.871   3.587   6.671 -0.8925 -1.0819  0.0550
22838SOL     OW80572   7.562   4.179   8.259  0.6168 -0.2795  0.6275
22838SOL    HW180573   7.473   4.193   8.215  0.5214  1.6119  1.3782
22838SOL    HW280574   7.619   4.120   8.201 -0.5254 -0.1500 -0.6577
22839SOL     OW80575   8.955   3.283   3.200 -0.4132 -0.0839 -0.0556
22839SOL    HW180576   9.042   3.302   3.155 -0.8962  2.0492 -0.1348
22839SOL    HW280577   8.944   3.342   3.280 -1.6657 -0.5268  0.1225
22840SOL     OW80578   0.228   4.303   8.531  0.4310  0.3999 -0.2052
22840SOL    HW180579   0.157   4.247   8.573 -0.4457  1.9994  0.4964
22840SOL    HW280580   0.262   4.258   8.449  0.4525 -1.6216  0.8784
22841SOL     OW80581   8.445   7.464   7.058 -0.8610  0.4244  0.3247
22841SOL    HW180582   8.525   7.414   7.024 -0.0889  1.8247  0.0370
22841SOL    HW280583   8.380   7.400   7.099 -0.3443 -0.9292 -0.9222
22842SOL     OW80584   5.884   3.391   2.012 -0.2984 -0.6741 -0.1181
22842SOL    HW180585   5.820   3.358   1.944  0.1094 -2.8596  0.5259
22842SOL    HW280586   5.878   3.335   2.094  2.5545 -1.0390 -0.1001
22843SOL     OW80587   7.961   2.471   8.790 -0.3764 -0.1509 -0.0296
22843SOL    HW180588   8.038   2.418   8.824 -0.0398  0.3064 -0.0653
22843SOL    HW280589   7.904   2.414   8.731 -1.8596 -1.4318  2.5311
22844SOL     OW80590   2.125   0.529   9.864  0.3939 -0.4838  0.1037
22844SOL    HW180591   2.180   0.450   9.835  0.4022  0.2219 -1.8991
22844SOL    HW280592   2.034   0.523   9.822 -0.0780 -0.1202  1.0527
22845SOL     OW80593   4.024   0.421   5.870 -0.0437 -0.1329 -0.2997
22845SOL    HW180594   4.104   0.435   5.811 -0.0914 -2.1123 -0.8672
22845SOL    HW280595   4.023   0.327   5.904 -0.3718  0.8037  2.3800
22846SOL     OW80596   7.028   1.334   1.798  0.0964  0.5056 -0.3396
22846SOL    HW180597   7.010   1.426   1.762  1.1232  0.8071 -0.0911
22846SOL    HW280598   7.103   1.293   1.747 -1.8184 -1.1012 -1.9676
22847SOL     OW80599   9.763   7.094   5.531 -0.3133 -0.0165  0.9025
22847SOL    HW180600   9.806   7.051   5.611  0.0124 -0.5883  0.4281
22847SOL    HW280601   9.727   7.023   5.471 -1.0488  0.4337  0.8108
22848SOL     OW80602   7.116   3.325   5.354 -0.5421 -0.3183  0.1361
22848SOL    HW180603   7.176   3.369   5.287  2.2196 -1.4214  1.8143
22848SOL    HW280604   7.091   3.392   5.424 -2.5583  0.5485 -1.3740
22849SOL     OW80605   7.130   7.128   0.714  0.1198 -0.6702 -0.3940
22849SOL    HW180606   7.037   7.156   0.692  0.1258  0.0590  0.4687
22849SOL    HW280607   7.145   7.034   0.685 -1.2025 -1.1154  0.3622
22850SOL     OW80608   6.558   4.690   7.414  0.2907 -0.4884  0.2710
22850SOL    HW180609   6.485   4.750   7.446  0.8371  1.5706 -2.1615
22850SOL    HW280610   6.524   4.632   7.340  0.9980  0.2063 -0.6071
22851SOL     OW80611   8.050   8.010   3.332  0.3414  0.3765 -0.3125
22851SOL    HW180612   8.056   8.064   3.248 -0.1535 -0.2481 -0.7634
22851SOL    HW280613   7.972   8.042   3.386  0.4363  0.5369 -0.2697
22852SOL     OW80614   9.665   6.615   6.635  0.5159 -0.0342  0.0527
22852SOL    HW180615   9.713   6.583   6.717 -1.5178 -2.8605  0.2028
22852SOL    HW280616   9.717   6.589   6.554  0.5803 -0.7298  0.3105
22853SOL     OW80617   6.435   4.136   9.493  0.2641  0.2498  0.0471
22853SOL    HW180618   6.515   4.164   9.440 -1.1304  0.5008 -1.9901
22853SOL    HW280619   6.424   4.037   9.490  0.0589  0.2844 -0.3133
22854SOL     OW80620   9.198   6.473   0.480 -0.6032  0.2989  0.1980
22854SOL    HW180621   9.249   6.396   0.443 -0.3811  0.5903 -0.1064
22854SOL    HW280622   9.108   6.478   0.437 -1.3699 -0.9374  1.5948
22855SOL     OW80623   8.457   3.816   9.226  0.5410  0.1237  0.3323
22855SOL    HW180624   8.405   3.744   9.180  0.4589  0.1910  0.3194
22855SOL    HW280625   8.486   3.784   9.316 -0.6201  0.5433  0.8591
22856SOL     OW80626   6.734   0.330   9.851 -1.6325  0.1129  0.0238
22856SOL    HW180627   6.784   0.253   9.891  0.5244  0.3034 -2.1872
22856SOL    HW280628   6.683   0.378   9.923  0.9578 -0.3884  2.2817
22857SOL     OW80629   5.745   1.049   1.283 -0.5937 -0.2076  0.4934
22857SOL    HW180630   5.758   1.007   1.373 -0.3399  0.9992  1.0246
22857SOL    HW280631   5.655   1.094   1.281 -0.1451  0.6975  0.5220
22858SOL     OW80632   7.190   2.643   8.947  0.1536 -0.6497  0.3750
22858SOL    HW180633   7.234   2.691   9.023 -0.7796  4.0820 -1.9024
22858SOL    HW280634   7.091   2.655   8.953  0.0943  0.0967 -1.7187
22859SOL     OW80635   1.877   1.569   3.677  0.3674  0.5308  0.4098
22859SOL    HW180636   1.811   1.570   3.602  1.2610  0.2877 -0.3942
22859SOL    HW280637   1.829   1.573   3.765 -0.5959  3.6403 -0.2209
22860SOL     OW80638   9.128   9.681   6.263 -0.1331 -0.2968  0.1320
22860SOL    HW180639   9.144   9.769   6.307  0.0303 -0.5167  0.5185
22860SOL    HW280640   9.082   9.695   6.175  0.1250  0.1906  0.0736
22861SOL     OW80641   6.327   3.528   9.333  0.1552 -0.0239  0.6597
22861SOL    HW180642   6.297   3.621   9.312 -1.4454 -0.7872 -0.5859
22861SOL    HW280643   6.321   3.472   9.251  0.7253 -1.3394  1.4959
22862SOL     OW80644   3.156   9.244   0.731  0.7220 -0.2693  0.1026
22862SOL    HW180645   3.195   9.151   0.739  1.6809 -0.0678 -1.7061
22862SOL    HW280646   3.230   9.308   0.708  0.3741  1.2823  3.0801
22863SOL     OW80647   1.382   4.271   6.346 -0.1392  0.0710 -0.1297
22863SOL    HW180648   1.441   4.200   6.386 -0.4164 -1.4364 -2.3211
22863SOL    HW280649   1.384   4.352   6.404 -1.3414 -2.3826  3.4749
22864SOL     OW80650   6.792   4.301   1.988 -0.5635 -0.1873 -0.1772
22864SOL    HW180651   6.732   4.376   2.015 -0.4935 -0.3449  0.4231
22864SOL    HW280652   6.868   4.294   2.053 -0.2892 -0.4461 -0.5258
22865SOL     OW80653   8.308   7.654   9.045  0.0732  0.2131  0.6084
22865SOL    HW180654   8.324   7.701   9.132  0.7202  0.6804  0.2416
22865SOL    HW280655   8.227   7.692   9.000 -0.8191 -0.6632  1.4383
22866SOL     OW80656   7.605   5.396   4.893 -0.1544  0.1237 -0.5226
22866SOL    HW180657   7.688   5.374   4.841  0.3027  0.8343 -0.1213
22866SOL    HW280658   7.582   5.320   4.954 -0.9357 -0.8843 -2.0648
22867SOL     OW80659   8.575   7.078   9.225 -0.3789  0.0478  0.4927
22867SOL    HW180660   8.495   7.019   9.218 -0.8311  0.8298 -1.1761
22867SOL    HW280661   8.639   7.040   9.292 -1.7390 -1.0372  1.2048
22868SOL     OW80662   5.884   9.265   6.124  0.3342 -0.0656  0.2193
22868SOL    HW180663   5.893   9.268   6.024  0.0965 -1.2887  0.1539
22868SOL    HW280664   5.864   9.357   6.158  0.2621  0.3352 -0.8736
22869SOL     OW80665   9.495   4.760   7.215 -0.0715  0.2449  0.0130
22869SOL    HW180666   9.584   4.747   7.259  0.6132 -1.4006 -1.7880
22869SOL    HW280667   9.424   4.712   7.266  0.3533  0.1711  0.5283
22870SOL     OW80668   1.074   2.563   0.795  0.6589 -0.0409 -0.2410
22870SOL    HW180669   1.046   2.538   0.702  1.9262 -1.1800 -0.3152
22870SOL    HW280670   1.030   2.501   0.860 -1.5306  1.7571  0.0770
22871SOL     OW80671   7.632   0.525   9.746 -0.4402 -0.1723  0.1306
22871SOL    HW180672   7.612   0.446   9.688  3.4423 -0.3216 -1.1721
22871SOL    HW280673   7.602   0.506   9.840 -0.8864 -2.5903 -0.4682
22872SOL     OW80674   2.534   3.783   6.187  0.1277 -0.1923  0.3590
22872SOL    HW180675   2.454   3.743   6.141  0.6953 -1.7965  0.7226
22872SOL    HW280676   2.616   3.731   6.163  0.4477 -1.0582  3.1281
22873SOL     OW80677   8.079   4.797   6.733 -0.0254 -0.0335 -0.2006
22873SOL    HW180678   8.018   4.767   6.806 -0.8279  0.3816 -0.7029
22873SOL    HW280679   8.090   4.723   6.667 -0.9179  0.2837 -0.7183
22874SOL     OW80680   9.874   4.176   9.430  0.7247  0.3785 -0.5968
22874SOL    HW180681   9.838   4.236   9.359  1.1479  0.2666 -0.9056
22874SOL    HW280682   9.816   4.095   9.438 -0.2486  1.1520  0.3027
22875SOL     OW80683   6.772   6.735   8.701  0.0297  0.2492  0.1786
22875SOL    HW180684   6.837   6.810   8.690  1.0336 -1.0786 -3.8742
22875SOL    HW280685   6.694   6.749   8.641 -0.6730 -1.0514  0.7644
22876SOL     OW80686   0.798   6.502   7.986 -0.0328 -0.6222 -0.3929
22876SOL    HW180687   0.837   6.432   8.045 -0.0139 -1.9798 -1.9771
22876SOL    HW280688   0.771   6.461   7.899  0.9329  1.5401 -1.7530
22877SOL     OW80689   6.369   1.625   8.782  0.5158 -0.6096 -0.0105
22877SOL    HW180690   6.405   1.574   8.704  0.5317 -0.5102 -0.0698
22877SOL    HW280691   6.315   1.564   8.840 -1.0754 -0.2891 -1.1018
22878SOL     OW80692   9.010   4.277   3.958 -0.2083  0.1802 -0.0960
22878SOL    HW180693   9.004   4.285   4.057  0.7115  1.1872 -0.1131
22878SOL    HW280694   8.947   4.343   3.916  0.3076  0.6128 -0.1890
22879SOL     OW80695   0.690   3.051   7.984  0.1221 -0.0158 -0.2923
22879SOL    HW180696   0.684   2.993   8.066 -1.3051 -1.8442 -1.6297
22879SOL    HW280697   0.755   3.011   7.920  1.5739  1.6577  0.1072
22880SOL     OW80698   8.124   8.770   3.391  0.1526 -0.1474  0.2980
22880SOL    HW180699   8.068   8.837   3.341  1.6332  2.4425  1.9963
22880SOL    HW280700   8.106   8.779   3.489  0.1103 -2.5344  0.5300
22881SOL     OW80701   1.384   8.783   8.364  0.0444  0.1359 -0.0797
22881SOL    HW180702   1.399   8.821   8.456 -1.7677  1.7461 -0.4059
22881SOL    HW280703   1.368   8.685   8.371 -1.0321  0.3936  1.4630
22882SOL     OW80704   8.525   4.980   6.129 -0.1829  0.2415  0.3084
22882SOL    HW180705   8.493   4.917   6.057  0.5307 -0.0257  0.2230
22882SOL    HW280706   8.453   5.046   6.149 -0.6785 -0.1622 -0.1071
22883SOL     OW80707   8.136   2.504   9.326 -0.2856  0.3516  0.2384
22883SOL    HW180708   8.140   2.449   9.409  1.3814 -1.6419 -1.1084
22883SOL    HW280709   8.043   2.501   9.289 -0.3754 -1.0371  0.5444
22884SOL     OW80710   2.070   2.752   9.392  0.2323  0.2006 -0.1369
22884SOL    HW180711   2.102   2.843   9.421  0.5133 -0.3497  1.3354
22884SOL    HW280712   1.972   2.755   9.376  0.1583  0.6602  0.3723
22885SOL     OW80713   6.783   1.959   7.542 -0.6090 -0.3588  0.1912
22885SOL    HW180714   6.853   1.983   7.474 -1.4451  2.7674  0.3920
22885SOL    HW280715   6.828   1.930   7.627  0.4374 -1.3280 -0.6738
22886SOL     OW80716   6.666   4.320   6.455  0.0400  0.3105 -0.1196
22886SOL    HW180717   6.681   4.373   6.539  0.2182  2.1317 -1.2526
22886SOL    HW280718   6.749   4.268   6.434 -0.1685 -0.5137  1.0740
22887SOL     OW80719   6.019   4.625   0.904 -0.1441 -0.1545 -0.2228
22887SOL    HW180720   6.008   4.709   0.957  0.1689 -0.7600  0.8179
22887SOL    HW280721   5.947   4.620   0.835 -1.7030 -0.2639  1.3809
22888SOL     OW80722   5.284   0.604   2.871 -0.4169 -0.2589 -0.1335
22888SOL    HW180723   5.206   0.639   2.923 -0.6003 -0.8553 -0.0021
22888SOL    HW280724   5.282   0.504   2.870  1.2764 -0.3373  1.3068
22889SOL     OW80725   7.454   2.105   7.025  0.1998  0.1555 -0.5428
22889SOL    HW180726   7.452   2.192   7.075  0.9481 -0.3064  0.2955
22889SOL    HW280727   7.363   2.087   6.987 -0.1360  0.9693 -0.1502
22890SOL     OW80728   9.712   7.636   8.741  0.6325 -0.1833  0.0061
22890SOL    HW180729   9.738   7.599   8.830 -1.4320  2.3404  1.7155
22890SOL    HW280730   9.642   7.577   8.700 -0.3453  0.0593  1.2805
22891SOL     OW80731   3.104   2.068   1.554 -0.2477 -0.0635 -0.2836
22891SOL    HW180732   3.099   2.112   1.465 -0.6421  0.2739 -0.0951
22891SOL    HW280733   3.121   1.970   1.542  1.9217  0.3393 -0.6618
22892SOL     OW80734   0.309   9.035   8.754 -0.1514 -0.4982  0.6644
22892SOL    HW180735   0.329   9.090   8.835  1.0466  0.4403 -0.2268
22892SOL    HW280736   0.232   9.075   8.704  0.8346  0.5143 -0.0792
22893SOL     OW80737   5.921   3.505   3.285 -0.1204 -1.2837 -0.5978
22893SOL    HW180738   6.005   3.471   3.327 -0.1725 -0.4806  0.1684
22893SOL    HW280739   5.849   3.511   3.355 -0.5778 -1.1587 -1.0716
22894SOL     OW80740   4.736   3.643   7.517  0.5298  0.3345 -0.0827
22894SOL    HW180741   4.755   3.618   7.612  0.3353  1.7548  0.3355
22894SOL    HW280742   4.811   3.699   7.481 -0.5143  1.8347  0.0166
22895SOL     OW80743   0.962   7.706   2.967  0.0473  0.2566 -0.2799
22895SOL    HW180744   0.960   7.805   2.951  0.3848  0.3924  0.5015
22895SOL    HW280745   0.956   7.688   3.065 -0.5731 -0.5217 -0.4554
22896SOL     OW80746   3.652   1.389   9.865 -0.5617  0.4472 -0.6348
22896SOL    HW180747   3.626   1.293   9.862  0.5179  0.1205  0.2899
22896SOL    HW280748   3.661   1.424   9.771 -1.6833 -0.1434 -0.9656
22897SOL     OW80749   7.299   4.381   5.870  0.4242  0.3109  0.0932
22897SOL    HW180750   7.393   4.367   5.900  0.2031 -0.1961  0.5689
22897SOL    HW280751   7.293   4.370   5.771  0.8221  0.0963  0.0929
22898SOL     OW80752   8.929   4.409   4.954 -0.3724  0.0921  0.0598
22898SOL    HW180753   8.891   4.494   4.918  2.2237  1.3216  0.0378
22898SOL    HW280754   8.915   4.405   5.053 -1.1068  0.2055 -0.0397
22899SOL     OW80755   0.790   2.713   1.186 -0.4931  0.1233 -0.6753
22899SOL    HW180756   0.774   2.789   1.248  0.5271 -1.1987  1.2593
22899SOL    HW280757   0.846   2.743   1.109 -0.2544  1.3647 -0.0274
22900SOL     OW80758   7.995   1.767   5.022  0.0470  0.3147  0.4315
22900SOL    HW180759   8.059   1.724   5.086  1.3767 -1.6333 -2.1155
22900SOL    HW280760   7.903   1.766   5.062  0.3615 -3.3711  1.2316
22901SOL     OW80761   1.215   0.660   2.093  0.2597  0.2983  0.0887
22901SOL    HW180762   1.209   0.754   2.060 -0.8827  0.3431  0.4047
22901SOL    HW280763   1.277   0.656   2.172  1.2785  0.5620 -0.6792
22902SOL     OW80764   6.587   2.900   3.018  0.0818 -0.2484  0.3384
22902SOL    HW180765   6.619   2.994   3.025  1.9478 -0.8903  0.5664
22902SOL    HW280766   6.537   2.876   3.102  1.0230  0.0045  0.9760
22903SOL     OW80767   3.369   5.252   8.341 -0.2809  0.2568  0.0789
22903SOL    HW180768   3.456   5.269   8.387 -0.0587 -0.7369  0.0446
22903SOL    HW280769   3.342   5.333   8.289  2.0156 -0.3879 -2.1752
22904SOL     OW80770   6.919   1.937   8.864 -0.8961 -0.3931 -0.8600
22904SOL    HW180771   6.926   1.953   8.765 -1.3846  0.6628 -0.7349
22904SOL    HW280772   6.936   1.841   8.884 -0.5849 -0.5683 -1.9548
22905SOL     OW80773   8.375   3.324   8.916 -0.0540 -0.0484 -0.2780
22905SOL    HW180774   8.360   3.395   8.847 -1.6504 -0.4343 -0.3358
22905SOL    HW280775   8.333   3.352   9.002 -0.7069 -0.9089 -0.3052
22906SOL     OW80776   8.800   3.838   9.280  0.2050  0.4236  0.0546
22906SOL    HW180777   8.801   3.741   9.305 -2.4796  0.4836  0.4990
22906SOL    HW280778   8.754   3.850   9.192 -0.3018  1.4035  0.4479
22907SOL     OW80779   9.150   0.200   7.729 -0.1778 -0.3848 -0.1407
22907SOL    HW180780   9.098   0.146   7.663  0.2009 -0.5005 -0.3452
22907SOL    HW280781   9.244   0.164   7.736  0.5170  1.1574 -1.3588
22908SOL     OW80782   0.133   5.310   7.828  0.1015 -0.0676 -0.1812
22908SOL    HW180783   0.061   5.241   7.835  0.9451 -0.9307  0.2078
22908SOL    HW280784   0.093   5.398   7.804 -0.9513 -0.7654 -1.0444
22909SOL     OW80785   4.231   7.566   8.628 -0.2310 -0.2089 -0.2449
22909SOL    HW180786   4.219   7.630   8.552  0.7891 -0.4343 -0.5979
22909SOL    HW280787   4.250   7.475   8.592  2.3409  0.0775  0.2637
22910SOL     OW80788   4.474   5.499   6.200 -0.5014 -0.2643  0.4202
22910SOL    HW180789   4.384   5.532   6.229 -0.1926  1.9529 -0.9775
22910SOL    HW280790   4.531   5.577   6.175  1.8064 -1.6450  1.2008
22911SOL     OW80791   7.851   0.518   5.352  0.3538 -0.5969  0.1480
22911SOL    HW180792   7.838   0.615   5.372 -1.5295 -0.8562  0.2651
22911SOL    HW280793   7.875   0.470   5.436  0.8368 -0.3298  0.1722
22912SOL     OW80794   7.558   9.140   7.831  0.1567 -0.5128  0.2247
22912SOL    HW180795   7.624   9.072   7.799  0.8675  0.4711 -0.4365
22912SOL    HW280796   7.602   9.199   7.899  0.1667  0.5291 -0.6645
22913SOL     OW80797   9.693   4.438   9.757 -0.6975  0.5694  0.1092
22913SOL    HW180798   9.663   4.457   9.663 -0.8714  1.3651  0.3213
22913SOL    HW280799   9.714   4.340   9.766  0.2267  0.6518 -1.0052
22914SOL     OW80800   6.872   2.854   6.484  0.3533  0.6063  0.4041
22914SOL    HW180801   6.823   2.774   6.520  3.8502 -1.4345  0.8555
22914SOL    HW280802   6.849   2.865   6.387 -0.8076 -0.4733  0.5380
22915SOL     OW80803   7.769   2.216   8.816  0.2912  0.0289 -0.0478
22915SOL    HW180804   7.818   2.221   8.904 -0.7760 -0.6958  0.5957
22915SOL    HW280805   7.799   2.134   8.767  0.7124  0.3052 -0.2508
22916SOL     OW80806   3.170   0.678   2.639 -0.1135  0.2553  0.0391
22916SOL    HW180807   3.268   0.660   2.648 -0.1374 -0.0806 -0.3536
22916SOL    HW280808   3.122   0.592   2.624 -0.7883  0.0747  2.8673
22917SOL     OW80809   0.859   3.248   5.299 -0.3224  0.3845 -0.3390
22917SOL    HW180810   0.859   3.160   5.253 -0.7575  0.0311  0.3368
22917SOL    HW280811   0.788   3.250   5.369  1.5558  0.2246  1.6361
22918SOL     OW80812   8.150   3.880   2.445 -0.0331 -0.0037  0.4386
22918SOL    HW180813   8.064   3.924   2.419 -0.4289 -1.1111 -0.2022
22918SOL    HW280814   8.227   3.934   2.411 -0.5149 -0.1241 -0.8859
22919SOL     OW80815   6.662   7.579   4.780  0.1832  0.5215 -0.0839
22919SOL    HW180816   6.760   7.561   4.771  0.6534  2.6364  0.4318
22919SOL    HW280817   6.615   7.496   4.809  1.7506 -0.6300 -0.7475
22920SOL     OW80818   2.981   2.184   5.892 -0.4143  0.2135 -0.5707
22920SOL    HW180819   3.050   2.117   5.864 -2.2467 -0.9897 -2.3788
22920SOL    HW280820   3.021   2.248   5.957  1.5278 -2.3583  0.8761
22921SOL     OW80821   2.922   5.462   7.769  0.5707  0.5023  0.0495
22921SOL    HW180822   3.012   5.418   7.769  0.0265 -0.6286 -0.0597
22921SOL    HW280823   2.909   5.512   7.683  1.4043  1.3266  0.3975
22922SOL     OW80824   7.381   4.689   7.320  1.0616 -0.3818  0.3505
22922SOL    HW180825   7.311   4.692   7.249  0.1286 -0.9807  1.2273
22922SOL    HW280826   7.425   4.778   7.328  0.0607  0.1315  0.1345
22923SOL     OW80827   1.875   1.752   5.639  0.2360  0.3382 -0.2681
22923SOL    HW180828   1.852   1.827   5.577  1.1343  1.8269  1.1866
22923SOL    HW280829   1.971   1.756   5.663 -0.2426  0.1874  1.7604
22924SOL     OW80830   9.241   9.663   9.405  0.0145 -0.4965 -0.6133
22924SOL    HW180831   9.254   9.580   9.460  0.1451 -0.3247 -0.3866
22924SOL    HW280832   9.163   9.649   9.343 -0.9049 -0.2360  0.4698
22925SOL     OW80833   8.873   7.074   7.525  0.1792 -0.2177  0.3554
22925SOL    HW180834   8.952   7.085   7.464 -0.9124  0.6384 -0.9049
22925SOL    HW280835   8.815   7.155   7.520 -1.3198 -1.2604  0.5230
22926SOL     OW80836   7.584   5.827   4.824 -0.0319  0.4454  0.1390
22926SOL    HW180837   7.557   5.915   4.865 -0.0760  0.1812  0.6864
22926SOL    HW280838   7.598   5.760   4.897 -1.2279 -0.3530 -0.3384
22927SOL     OW80839   7.172   1.024   0.705 -0.1827 -0.3783 -0.4237
22927SOL    HW180840   7.259   1.026   0.754 -0.6051  0.2370  0.3037
22927SOL    HW280841   7.104   0.976   0.760 -0.1915 -1.2732 -1.1936
22928SOL     OW80842   2.234   2.050   7.406  0.0130 -0.1623 -0.9681
22928SOL    HW180843   2.162   2.117   7.386 -0.4779 -0.8741 -1.5949
22928SOL    HW280844   2.293   2.039   7.325 -0.3201 -0.9995 -1.0980
22929SOL     OW80845   3.775   3.436   6.539  0.0492  0.3988 -0.2271
22929SOL    HW180846   3.711   3.360   6.536  2.2564 -1.4942 -1.0621
22929SOL    HW280847   3.751   3.503   6.468 -1.1820 -0.1399 -0.3185
22930SOL     OW80848   8.636   5.343   7.046  0.1057  0.0358 -0.2049
22930SOL    HW180849   8.541   5.319   7.063  0.1371  0.5495  0.7055
22930SOL    HW280850   8.695   5.300   7.114  0.4466  0.3359 -0.3078
22931SOL     OW80851   9.949   3.169   8.648  0.1081  0.7407 -0.0076
22931SOL    HW180852   9.875   3.205   8.704  0.0157 -0.1539  0.4631
22931SOL    HW280853  10.016   3.241   8.630 -2.2577  2.3138 -2.8119
22932SOL     OW80854   6.548   7.092   4.778 -0.5008 -0.3248 -0.2600
22932SOL    HW180855   6.498   7.068   4.694  0.0099 -1.8761 -0.1430
22932SOL    HW280856   6.531   7.021   4.847  0.9993 -0.2943  0.1415
22933SOL     OW80857   9.617   0.973   2.196  0.3646  0.1340 -0.2130
22933SOL    HW180858   9.556   0.951   2.120  1.4501 -1.5359 -0.6345
22933SOL    HW280859   9.711   0.978   2.162  0.9425 -1.3180  1.1360
22934SOL     OW80860   1.697   3.887   7.887 -0.3260  0.4187  0.3646
22934SOL    HW180861   1.709   3.897   7.986 -1.5087 -3.3096  0.9836
22934SOL    HW280862   1.601   3.902   7.863 -0.7436 -1.9764  0.3555
22935SOL     OW80863   9.321   7.408   7.573 -0.0746 -0.0347  0.3542
22935SOL    HW180864   9.299   7.407   7.475 -2.1684  0.0272  0.8087
22935SOL    HW280865   9.380   7.487   7.593 -1.0927  0.9649 -0.5398
22936SOL     OW80866   5.756   3.793   4.533 -0.2879 -0.2603 -0.3544
22936SOL    HW180867   5.697   3.715   4.514  0.8442 -0.8672 -1.4309
22936SOL    HW280868   5.826   3.801   4.462  1.1708  0.2220  1.0895
22937SOL     OW80869   4.489   5.895   9.051 -0.8342  0.1075 -0.3118
22937SOL    HW180870   4.483   5.799   9.022  0.8980 -0.6600  1.7478
22937SOL    HW280871   4.423   5.949   9.000 -0.3159 -1.7925 -3.1354
22938SOL     OW80872   2.767   8.657   5.821 -0.8022 -0.2789  0.0022
22938SOL    HW180873   2.803   8.698   5.905  1.0572  0.4776 -1.1329
22938SOL    HW280874   2.673   8.688   5.806 -0.7011  0.5961  1.1258
22939SOL     OW80875   7.418   4.972   7.250  0.4233  0.1651 -0.6344
22939SOL    HW180876   7.348   5.023   7.201  0.7271  0.3416 -0.8774
22939SOL    HW280877   7.508   4.997   7.217  0.6495  0.5442  0.2507
22940SOL     OW80878   6.076   2.894   8.829  0.1627 -0.2472  0.0677
22940SOL    HW180879   6.139   2.820   8.805 -0.1854 -0.6211  0.3136
22940SOL    HW280880   6.034   2.875   8.918 -0.6457 -0.2133 -0.3116
22941SOL     OW80881   0.156   3.176   7.840  0.2252 -0.3556 -0.1751
22941SOL    HW180882   0.170   3.203   7.745 -1.0787  0.9761  0.0041
22941SOL    HW280883   0.070   3.214   7.874  1.4245  0.4961  2.0205
22942SOL     OW80884   2.496   5.364   8.832  0.1440 -0.4490 -0.3286
22942SOL    HW180885   2.559   5.428   8.790  1.7454 -0.5991  1.7646
22942SOL    HW280886   2.488   5.383   8.930 -1.9620 -1.3308 -0.2912
22943SOL     OW80887   7.786   8.628   0.490  0.5170  0.1109 -0.0460
22943SOL    HW180888   7.801   8.721   0.458 -0.9273  0.1710 -0.6072
22943SOL    HW280889   7.785   8.565   0.413 -0.4913 -0.0879  0.1211
22944SOL     OW80890   4.472   9.156   9.706 -0.0370  0.1776  0.1206
22944SOL    HW180891   4.554   9.156   9.763 -0.8186 -1.2575  1.3011
22944SOL    HW280892   4.430   9.246   9.706 -0.2808  0.0833  2.2235
22945SOL     OW80893   9.210   2.609   4.111  0.1518 -0.6581 -0.5970
22945SOL    HW180894   9.143   2.570   4.174  0.2329 -0.4258 -0.3635
22945SOL    HW280895   9.290   2.640   4.164 -1.0420  2.3039 -0.4737
22946SOL     OW80896   4.369   3.951   9.425 -0.0433  0.1790 -0.2768
22946SOL    HW180897   4.319   4.002   9.496 -0.8255  0.2379 -0.8622
22946SOL    HW280898   4.437   4.011   9.382 -0.2838  0.4450 -0.2892
22947SOL     OW80899   6.476   4.995   6.582 -0.0573 -0.6341 -0.0630
22947SOL    HW180900   6.576   5.004   6.590  0.0743 -0.8190 -1.3865
22947SOL    HW280901   6.447   4.910   6.624  0.5004 -1.1513 -0.6962
22948SOL     OW80902   3.105   2.671   0.507  0.3180 -0.2588 -0.3835
22948SOL    HW180903   3.179   2.605   0.498  1.1186  0.6078 -0.2178
22948SOL    HW280904   3.057   2.679   0.420  0.4117 -0.8241 -0.4908
22949SOL     OW80905   6.166   1.486   8.410 -0.4188  0.9216  0.5521
22949SOL    HW180906   6.140   1.390   8.417 -0.8278  0.9326 -0.5858
22949SOL    HW280907   6.243   1.496   8.347 -0.1600  1.3043  0.9225
22950SOL     OW80908   9.408   0.836   0.602  0.0680  0.8590  0.2601
22950SOL    HW180909   9.468   0.911   0.576 -0.1363  1.2582  0.9341
22950SOL    HW280910   9.405   0.828   0.702  2.3050 -1.8521  0.1624
22951SOL     OW80911   6.678   5.538   1.248 -0.5180  0.1801  0.1735
22951SOL    HW180912   6.758   5.527   1.188  1.2534  0.7890  2.3671
22951SOL    HW280913   6.692   5.486   1.332 -3.1620 -0.9824 -0.0803
22952SOL     OW80914   1.394   6.643   9.856 -0.6943  0.3963  0.2554
22952SOL    HW180915   1.454   6.615   9.782  0.0949  1.4761  0.4751
22952SOL    HW280916   1.320   6.700   9.820 -0.6136  0.4752  0.2138
22953SOL     OW80917   9.219   4.741   9.977 -0.0380  0.2193 -0.6834
22953SOL    HW180918   9.164   4.715   9.897  0.4426 -1.8749 -0.3632
22953SOL    HW280919   9.171   4.812  10.028 -1.5977 -0.2894 -1.4039
22954SOL     OW80920   7.784   2.352   7.604 -0.3347  0.2839  0.6948
22954SOL    HW180921   7.803   2.263   7.646  0.1024  0.8289  1.6580
22954SOL    HW280922   7.692   2.381   7.629 -0.4896  0.0913  0.3539
22955SOL     OW80923   4.006   8.566   8.035  0.4512  0.6870  0.3355
22955SOL    HW180924   4.006   8.617   8.121 -1.8374 -0.1304  0.8560
22955SOL    HW280925   3.920   8.514   8.027  0.8752  0.3185 -2.1791
22956SOL     OW80926   3.859   4.963   7.494 -0.5170 -0.2256 -0.1357
22956SOL    HW180927   3.914   4.881   7.483  0.4954  0.3230  0.6548
22956SOL    HW280928   3.903   5.024   7.561 -0.7913  1.3375 -1.3460
22957SOL     OW80929   9.497   2.344   0.521 -0.0877 -0.0884 -0.0094
22957SOL    HW180930   9.592   2.362   0.546  0.2177 -1.4925 -0.0945
22957SOL    HW280931   9.493   2.320   0.424 -0.8593  2.3655 -0.6033
22958SOL     OW80932   7.209   4.343   0.839 -0.5164  0.3923 -0.2071
22958SOL    HW180933   7.248   4.304   0.755 -1.1180  0.2738 -0.4356
22958SOL    HW280934   7.180   4.269   0.900  0.3481  0.4774  0.3079
22959SOL     OW80935   1.758   5.974   0.488  0.1199 -0.3158  0.2831
22959SOL    HW180936   1.775   5.889   0.538  1.6892 -0.6317 -0.7346
22959SOL    HW280937   1.678   6.020   0.526 -0.1853 -1.7777  1.4556
22960SOL     OW80938   6.118   2.630   8.228  0.1146  0.4553 -0.0162
22960SOL    HW180939   6.079   2.550   8.183  1.1041 -0.2117  0.2898
22960SOL    HW280940   6.182   2.675   8.166  2.5220 -1.2508  1.1532
22961SOL     OW80941   4.684   9.728   1.645 -0.1943  0.6226 -0.1784
22961SOL    HW180942   4.614   9.783   1.691 -0.6419 -0.6141  0.6735
22961SOL    HW280943   4.693   9.641   1.693 -0.0167 -0.3383 -1.9283
22962SOL     OW80944   9.896   3.773   1.343  0.4144 -0.5752  0.3422
22962SOL    HW180945   9.822   3.713   1.372 -1.0823  0.6097 -0.9166
22962SOL    HW280946   9.894   3.857   1.396 -0.8929  0.6216 -1.5260
22963SOL     OW80947   9.089   4.987   3.971 -0.1428  0.3509  0.1982
22963SOL    HW180948   9.005   5.039   3.956  0.6905  1.6689  0.0197
22963SOL    HW280949   9.084   4.939   4.059 -1.5023 -0.4211 -0.2979
22964SOL     OW80950   6.279   0.001   8.313 -0.1110  0.5808  0.1612
22964SOL    HW180951   6.179  -0.001   8.312 -0.1037  0.2064 -0.9292
22964SOL    HW280952   6.314  -0.090   8.290  0.4831  0.6488  0.7880
22965SOL     OW80953   0.833   4.279   7.881 -0.5148  0.6889 -0.1221
22965SOL    HW180954   0.875   4.359   7.839  1.1304  0.2653  0.6730
22965SOL    HW280955   0.787   4.306   7.966  1.3771  0.5758  0.9747
22966SOL     OW80956   5.074   8.664   9.774  0.2308 -0.0276  0.4699
22966SOL    HW180957   5.055   8.653   9.871  0.0882 -3.0354  0.1708
22966SOL    HW280958   5.173   8.661   9.759  0.1633 -2.7896  0.2666
22967SOL     OW80959   3.490   3.251   8.487  0.2855  0.2866  0.2130
22967SOL    HW180960   3.485   3.347   8.459 -1.2861  0.1044 -0.1529
22967SOL    HW280961   3.458   3.241   8.581 -0.1230  0.0352  0.0478
22968SOL     OW80962   1.583   7.740   8.796  0.0144 -0.1350 -0.2101
22968SOL    HW180963   1.493   7.697   8.802 -1.0751  1.8391 -1.6522
22968SOL    HW280964   1.621   7.751   8.888 -0.1609 -3.0473  0.2698
22969SOL     OW80965   0.815   8.095   3.711 -0.3359 -0.4469  0.1844
22969SOL    HW180966   0.878   8.167   3.742 -0.7432 -0.5489  1.2764
22969SOL    HW280967   0.862   8.036   3.646  0.4326 -0.0086  0.3274
22970SOL     OW80968   0.126   3.515   2.725 -0.1332 -0.5432 -0.0322
22970SOL    HW180969   0.034   3.538   2.692 -0.7416 -1.2676  1.1436
22970SOL    HW280970   0.121   3.434   2.783  1.0139  0.3969  1.4084
22971SOL     OW80971   1.255   3.355   9.203 -0.6711  0.6013 -0.0693
22971SOL    HW180972   1.228   3.259   9.212  0.8595  0.1137 -0.5760
22971SOL    HW280973   1.274   3.392   9.294 -1.5224  0.5035  0.1529
22972SOL     OW80974   6.667   2.981   4.808  0.1699  0.3375 -0.1565
22972SOL    HW180975   6.719   3.000   4.892  2.3571 -2.7910 -0.7513
22972SOL    HW280976   6.712   3.026   4.730 -1.1712  2.2002  0.0950
22973SOL     OW80977   8.084   0.445   6.752  0.3548 -0.4459  0.9902
22973SOL    HW180978   8.125   0.391   6.825 -0.4553  0.5514  2.2017
22973SOL    HW280979   7.990   0.415   6.738  0.3168 -0.2226  0.7721
22974SOL     OW80980   5.979   6.709   7.729  0.4422 -0.3487 -0.6387
22974SOL    HW180981   5.904   6.707   7.795  0.9956  1.3071  0.0713
22974SOL    HW280982   6.052   6.647   7.760  0.7470  0.5082  0.3836
22975SOL     OW80983   4.640   1.447   7.146  0.4737 -0.3586 -0.3708
22975SOL    HW180984   4.615   1.355   7.176  2.3241 -1.1316 -1.1546
22975SOL    HW280985   4.585   1.514   7.196 -0.3120 -1.8444  0.8034
22976SOL     OW80986   1.946   6.740   7.658 -0.6407 -0.4887  0.5144
22976SOL    HW180987   1.936   6.705   7.565 -0.5500 -0.1468  0.3768
22976SOL    HW280988   1.883   6.817   7.672  0.4445  0.4611  0.2373
22977SOL     OW80989   5.649   5.297   7.974 -0.2488  0.4620  0.5801
22977SOL    HW180990   5.627   5.275   8.069 -0.9541 -1.5267 -0.0118
22977SOL    HW280991   5.739   5.340   7.970 -0.5144  1.2301  2.2041
22978SOL     OW80992   1.922   1.759   6.621  0.2617 -0.9355 -0.0390
22978SOL    HW180993   1.979   1.774   6.701 -0.2346 -0.3136  0.1972
22978SOL    HW280994   1.962   1.686   6.565  1.3111 -0.4742  0.0963
22979SOL     OW80995   8.070   3.840   3.332 -0.2014 -0.1801  0.3113
22979SOL    HW180996   8.041   3.754   3.374  1.5910 -1.8181 -1.6544
22979SOL    HW280997   8.150   3.875   3.381 -0.4535 -0.0460  0.6294
22980SOL     OW80998   7.888   0.875   0.459  0.3948  0.5822  0.0379
22980SOL    HW180999   7.809   0.931   0.432 -1.0713 -0.5867  1.8167
22980SOL    HW281000   7.879   0.784   0.418 -0.4862 -0.3483  2.2291
22981SOL     OW81001   8.987   5.432   2.586  0.3665 -0.3884 -0.3992
22981SOL    HW181002   9.031   5.357   2.636  0.2181 -1.0739 -1.2979
22981SOL    HW281003   8.889   5.434   2.607  0.3359 -0.5603 -0.5299
22982SOL     OW81004   6.471   5.452   2.478  0.3054 -0.0981  0.6203
22982SOL    HW181005   6.516   5.431   2.392  1.2834  0.2724  1.0333
22982SOL    HW281006   6.503   5.388   2.548 -1.5109 -1.2890  0.4083
22983SOL     OW81007   2.565   5.027   7.683  0.2149  0.2499 -0.0663
22983SOL    HW181008   2.655   5.053   7.647  0.6365 -0.0626  0.7304
22983SOL    HW281009   2.541   5.088   7.758 -0.1492  0.2123 -0.1535
22984SOL     OW81010   9.127   0.306   8.408 -0.2366 -0.5814  0.3152
22984SOL    HW181011   9.041   0.282   8.363  0.8396  0.8199 -2.6195
22984SOL    HW281012   9.193   0.337   8.339  1.5092  1.5966  2.8691
22985SOL     OW81013   3.102   1.953   2.129 -0.3473  0.1275 -0.0814
22985SOL    HW181014   3.133   1.887   2.197  0.2334  0.9127  0.4268
22985SOL    HW281015   3.002   1.948   2.119 -0.1209 -2.1220 -1.4250
22986SOL     OW81016   2.298   4.990   0.536  0.0590  0.1910 -0.2237
22986SOL    HW181017   2.386   4.962   0.499  0.1681  2.8882 -2.1420
22986SOL    HW281018   2.294   5.090   0.541 -2.7799  0.1107  0.1403
22987SOL     OW81019   7.532   0.037   2.158 -0.2976 -0.4951 -0.1799
22987SOL    HW181020   7.450   0.092   2.174 -0.6167 -0.8943 -0.4152
22987SOL    HW281021   7.552  -0.016   2.240 -0.1009 -0.1710 -0.0195
22988SOL     OW81022   5.157   6.295   7.041  0.0037 -0.0232  0.3357
22988SOL    HW181023   5.102   6.276   7.123 -0.1940  1.3858  0.5336
22988SOL    HW281024   5.114   6.251   6.962 -0.4970 -0.3198  0.7691
22989SOL     OW81025   2.582   0.143   6.945 -0.2564  0.1296  0.4762
22989SOL    HW181026   2.567   0.232   6.987 -2.1266 -0.6080  1.4389
22989SOL    HW281027   2.510   0.125   6.877 -0.0904 -0.7726  0.5256
22990SOL     OW81028   7.095   5.730   2.662 -0.0560 -0.2218 -0.2059
22990SOL    HW181029   7.098   5.683   2.574  1.9798 -3.1184  1.3257
22990SOL    HW281030   7.186   5.765   2.685 -0.6131  0.6846  0.6785
22991SOL     OW81031   5.609   0.981   8.133 -0.3614  0.1318  0.0338
22991SOL    HW181032   5.697   1.025   8.114  0.6447 -1.6250  0.5297
22991SOL    HW281033   5.562   0.960   8.047  0.7038 -0.9224 -0.2863
22992SOL     OW81034   9.677   2.889   5.356 -0.0065  0.2017 -0.0082
22992SOL    HW181035   9.719   2.875   5.446 -0.1018  0.3105  0.0530
22992SOL    HW281036   9.669   2.801   5.309  1.9654  0.3861 -0.7700
22993SOL     OW81037   9.061   2.574   0.756 -0.1931 -0.1845 -0.5876
22993SOL    HW181038   9.124   2.496   0.761 -3.1420 -2.9287 -3.6691
22993SOL    HW281039   8.973   2.549   0.796 -0.1161  2.8155  1.5753
22994SOL     OW81040   4.948   1.341   1.664  0.2692  0.5501  0.1829
22994SOL    HW181041   5.024   1.406   1.660 -0.1421  1.0897  1.0172
22994SOL    HW281042   4.861   1.391   1.662 -0.1376 -0.1463 -3.1183
22995SOL     OW81043   1.432   8.194   9.392  0.1124  0.5757 -0.1947
22995SOL    HW181044   1.355   8.208   9.455  0.8451  1.3840  0.5261
22995SOL    HW281045   1.508   8.253   9.419  0.0784  1.7123 -2.4305
22996SOL     OW81046   6.963   9.284   9.109  0.1875 -0.3823 -0.6170
22996SOL    HW181047   7.013   9.346   9.170  0.1248  0.2245 -1.1719
22996SOL    HW281048   6.940   9.200   9.158  1.3589 -0.4825 -0.2124
22997SOL     OW81049   1.323   1.880   0.290 -1.1306 -0.2615  0.0147
22997SOL    HW181050   1.372   1.846   0.370 -2.7275 -1.1945  0.5977
22997SOL    HW281051   1.225   1.878   0.307 -1.4350  0.5844 -1.5604
22998SOL     OW81052   6.225   0.854   0.623  0.0875 -0.0087 -0.2515
22998SOL    HW181053   6.148   0.845   0.687  0.0370  0.3073 -0.2665
22998SOL    HW281054   6.245   0.765   0.582 -0.2916 -0.0878 -0.2700
22999SOL     OW81055   7.292   8.494   0.263  0.4147 -0.8661 -0.7276
22999SOL    HW181056   7.246   8.423   0.210  1.1659 -1.3391 -0.7559
22999SOL    HW281057   7.315   8.458   0.354 -0.9115 -0.0442 -0.0570
23000SOL     OW81058   1.745   2.385   3.131  0.4479  0.8332 -0.1828
23000SOL    HW181059   1.780   2.354   3.220 -1.2996  2.7702  1.2270
23000SOL    HW281060   1.646   2.378   3.129  0.5543 -0.5351 -2.5542
23001SOL     OW81061   0.631   2.351   0.543 -0.1271  0.0259  0.3018
23001SOL    HW181062   0.538   2.378   0.518 -0.3321 -0.5111  0.4796
23001SOL    HW281063   0.689   2.352   0.461 -0.1382  0.9838  0.3074
23002SOL     OW81064   0.612   5.048   9.315  0.6424  0.5304  0.5331
23002SOL    HW181065   0.658   5.136   9.304 -0.0954  0.9629  0.8217
23002SOL    HW281066   0.548   5.033   9.240  0.4394  0.4504  0.7182
23003SOL     OW81067   4.731   2.454   8.657 -0.3175 -0.0263  0.0621
23003SOL    HW181068   4.775   2.366   8.636  1.5388  0.6142  1.1360
23003SOL    HW281069   4.683   2.447   8.744  2.8971  1.0015  2.0162
23004SOL     OW81070   2.459   8.369   8.730  0.0344 -0.1919  0.4416
23004SOL    HW181071   2.488   8.353   8.635 -1.7810 -0.8798 -0.0159
23004SOL    HW281072   2.539   8.391   8.786  1.4164 -1.8809 -0.8071
23005SOL     OW81073   6.656   0.111   6.740  0.9989 -0.5387 -0.3689
23005SOL    HW181074   6.629   0.184   6.803  3.1793  0.0135 -0.0477
23005SOL    HW281075   6.575   0.079   6.690 -0.1905  1.2339  0.3600
23006SOL     OW81076   9.052   6.429   8.997  0.2445 -0.0838 -0.4296
23006SOL    HW181077   9.019   6.418   9.090  0.3999 -2.3495 -0.5998
23006SOL    HW281078   8.975   6.421   8.933  0.4928 -1.1243 -0.6111
23007SOL     OW81079   7.790   5.790   2.419 -0.0024  0.6130  0.0471
23007SOL    HW181080   7.884   5.822   2.431  0.5574 -0.6892 -0.7950
23007SOL    HW281081   7.736   5.862   2.376  1.6347 -0.1086 -3.3235
23008SOL     OW81082   7.187   4.263   6.898  0.0008  0.0383 -0.4313
23008SOL    HW181083   7.159   4.174   6.863 -0.8440  0.2721 -0.3639
23008SOL    HW281084   7.287   4.265   6.909 -0.2240 -1.8853  2.2766
23009SOL     OW81085   6.156   4.303   4.866 -0.2350 -0.4831 -0.3552
23009SOL    HW181086   6.087   4.340   4.928  2.6711  1.2996  1.9488
23009SOL    HW281087   6.194   4.219   4.905 -0.5252 -1.0469 -1.2594
23010SOL     OW81088   0.184   2.526   0.620  0.2416 -0.1862  0.5131
23010SOL    HW181089   0.148   2.548   0.529  2.1232 -0.6000 -0.3593
23010SOL    HW281090   0.162   2.599   0.684 -0.0710  0.6633 -0.5571
23011SOL     OW81091   9.731   1.450   7.611 -0.3153 -0.3842  0.2498
23011SOL    HW181092   9.746   1.464   7.513  2.1026  0.0966  0.6429
23011SOL    HW281093   9.672   1.521   7.647  0.5374  0.6941 -0.4602
23012SOL     OW81094   6.631   5.085   5.503 -0.0902  0.1781  0.0780
23012SOL    HW181095   6.612   5.033   5.586 -1.5618 -1.3965 -1.1984
23012SOL    HW281096   6.546   5.125   5.468  0.1943 -0.5730 -1.5447
23013SOL     OW81097   2.094   2.839   0.040  0.5533  0.0570  0.1414
23013SOL    HW181098   2.118   2.878   0.129  1.3364  0.2438 -0.1494
23013SOL    HW281099   2.178   2.820  -0.012  0.1942 -2.0221  0.2866
23014SOL     OW81100   8.368   6.116   4.383 -0.3633 -0.4441  0.0054
23014SOL    HW181101   8.360   6.214   4.403  0.1450 -0.0524 -1.6524
23014SOL    HW281102   8.295   6.089   4.320 -0.4621 -1.1243  0.4066
23015SOL     OW81103   8.590   1.912   8.804 -0.3125 -0.3952  0.1397
23015SOL    HW181104   8.595   1.917   8.705  0.8411 -0.8143  0.1746
23015SOL    HW281105   8.654   1.978   8.844  0.1187 -1.0852  0.6011
23016SOL     OW81106   6.721   9.891   2.063 -0.2737 -0.2004 -0.8716
23016SOL    HW181107   6.672   9.920   2.146 -1.1406 -0.6457 -1.2161
23016SOL    HW281108   6.804   9.843   2.088 -1.7930 -2.5620 -0.2097
23017SOL     OW81109   6.673   6.214   6.126 -0.0289 -0.4921  0.2055
23017SOL    HW181110   6.696   6.119   6.148 -0.8273 -0.4615  1.2175
23017SOL    HW281111   6.640   6.260   6.208 -1.0743  0.2337 -0.6021
23018SOL     OW81112   4.299   8.693   9.687  0.3180  0.0852 -0.3748
23018SOL    HW181113   4.312   8.604   9.643 -1.6848 -0.3922 -0.0434
23018SOL    HW281114   4.381   8.716   9.740  0.5998 -1.8793  0.0912
23019SOL     OW81115   8.380   4.366   8.373  0.1603  0.5028  0.1963
23019SOL    HW181116   8.403   4.405   8.462 -1.2955  0.0380  0.7878
23019SOL    HW281117   8.283   4.378   8.356 -0.2625 -2.4888  0.2307
23020SOL     OW81118   1.758   4.237   0.053  0.3124 -0.1000  0.1288
23020SOL    HW181119   1.723   4.325   0.021 -1.0902 -1.1627 -1.2648
23020SOL    HW281120   1.855   4.230   0.030  0.5879  1.3256  0.7905
23021SOL     OW81121   8.390   3.951   2.681  0.0194 -0.1644  0.0551
23021SOL    HW181122   8.420   3.901   2.762  0.3500  0.7060  0.4817
23021SOL    HW281123   8.293   3.932   2.664  0.0167 -0.5646  0.4926
23022SOL     OW81124   2.036   8.941   7.750 -0.8817  0.4050  0.0766
23022SOL    HW181125   1.977   8.902   7.679  0.4791  0.2220 -0.9865
23022SOL    HW281126   2.038   9.041   7.740 -0.4961  0.3614 -0.3177
23023SOL     OW81127   5.827   3.120   0.970  0.5401  0.4755 -0.3634
23023SOL    HW181128   5.748   3.163   1.015  0.6694  0.3387 -0.0010
23023SOL    HW281129   5.811   3.116   0.872 -0.9667 -1.7471 -0.0651
23024SOL     OW81130   0.946   9.932   4.810  0.3810  0.1578  0.4120
23024SOL    HW181131   0.906   9.851   4.768  1.3396 -0.5866  0.9065
23024SOL    HW281132   0.895   9.955   4.893 -0.3744  0.5263 -0.1564
23025SOL     OW81133   6.956   1.768   1.012  0.1493 -0.3720 -0.3839
23025SOL    HW181134   6.860   1.795   1.016  0.0482 -0.6180 -1.1016
23025SOL    HW281135   6.962   1.670   0.995  0.5262 -0.5295  0.5988
23026SOL     OW81136   9.966   2.556   8.445 -0.1223  0.3696  0.3189
23026SOL    HW181137  10.021   2.512   8.375  1.5782  1.9751  0.5898
23026SOL    HW281138   9.874   2.572   8.410  0.0548 -0.8633 -0.7434
23027SOL     OW81139   6.617   5.157   9.326 -1.0366  0.3337 -0.1469
23027SOL    HW181140   6.584   5.106   9.248 -2.8514  1.0254  0.1421
23027SOL    HW281141   6.539   5.187   9.382  0.2004  0.2449  1.6591
23028SOL     OW81142   0.429   5.080   7.435  0.2210 -0.4772 -0.1043
23028SOL    HW181143   0.515   5.046   7.473 -0.5896  0.6225  2.8717
23028SOL    HW281144   0.387   5.144   7.499 -2.1253  0.1120 -2.1395
23029SOL     OW81145   8.016   0.119   6.816 -0.9075  0.1164  0.2978
23029SOL    HW181146   7.964   0.195   6.777 -1.1480  0.1274  0.6295
23029SOL    HW281147   8.057   0.065   6.743  0.6319  1.5123  0.1092
23030SOL     OW81148   6.196   7.400   7.774  0.1514  0.7627  0.1694
23030SOL    HW181149   6.160   7.392   7.681  3.7606  0.0914 -1.2791
23030SOL    HW281150   6.147   7.472   7.823 -1.2053  1.7833 -2.5801
23031SOL     OW81151   6.136   5.159   9.731 -0.2814 -0.0286 -0.2388
23031SOL    HW181152   6.074   5.220   9.682 -0.0278  0.1914 -0.2882
23031SOL    HW281153   6.102   5.143   9.824 -0.7339 -0.3993 -0.4670
23032SOL     OW81154   4.925   6.706   1.649  0.6350 -0.1297  0.6065
23032SOL    HW181155   4.938   6.625   1.706  0.1143 -1.6534 -1.3578
23032SOL    HW281156   4.995   6.707   1.577 -0.4578  0.1705 -0.4720
23033SOL     OW81157   4.248   8.031   8.610  0.2226 -0.1022 -0.1156
23033SOL    HW181158   4.298   8.095   8.552  0.2156 -1.1793 -1.3533
23033SOL    HW281159   4.287   8.032   8.702  1.9596 -0.2684 -0.8216
23034SOL     OW81160   9.886   5.953   1.883 -0.1531  0.1357  0.0928
23034SOL    HW181161   9.945   6.029   1.910 -0.7230  0.9970 -1.0153
23034SOL    HW281162   9.791   5.981   1.890 -0.3924 -0.7779  0.5197
23035SOL     OW81163   7.686   3.585   6.073 -0.1294  0.1480 -0.1139
23035SOL    HW181164   7.741   3.614   5.995  0.1442 -0.8246 -0.2844
23035SOL    HW281165   7.619   3.517   6.043 -1.7682  1.6619 -0.0084
23036SOL     OW81166   2.464   7.241   8.990  0.2057  0.0206 -0.6955
23036SOL    HW181167   2.402   7.311   9.027  0.2318  0.0223 -0.6549
23036SOL    HW281168   2.416   7.189   8.919 -0.4976 -1.2436  0.6634
23037SOL     OW81169   0.235   3.072   9.976  0.0430  0.3773  0.4438
23037SOL    HW181170   0.138   3.079   9.951 -0.2437  2.7963  2.1264
23037SOL    HW281171   0.273   2.988   9.936 -2.2629  0.3059 -1.7750
23038SOL     OW81172   8.916   5.008   6.599 -0.1498 -0.1293  0.2540
23038SOL    HW181173   9.003   4.989   6.554 -0.1852  0.7288 -0.1927
23038SOL    HW281174   8.930   5.075   6.672 -0.3823 -0.2151  0.3789
23039SOL     OW81175   7.436   4.605   8.621 -0.5978 -0.1195 -0.1257
23039SOL    HW181176   7.405   4.660   8.698  0.9913  1.4930 -0.6123
23039SOL    HW281177   7.489   4.527   8.654 -0.7103  0.0505  0.4481
23040SOL     OW81178   0.518   6.364   0.597 -0.6127  0.2016  0.4379
23040SOL    HW181179   0.523   6.416   0.512  2.1076 -0.0417  0.3846
23040SOL    HW281180   0.493   6.270   0.578 -0.9555  0.3790  0.0150
23041SOL     OW81181   7.505   0.108   3.036 -0.3370 -0.2589  0.3171
23041SOL    HW181182   7.576   0.092   2.968 -2.4444 -2.0726 -1.5033
23041SOL    HW281183   7.474   0.021   3.074 -1.7979  0.4844  0.8675
23042SOL     OW81184   2.976   3.045   3.318  0.2938  0.3680 -0.1991
23042SOL    HW181185   3.052   3.101   3.350 -0.2392  1.2473 -0.4581
23042SOL    HW281186   2.890   3.089   3.342 -0.1229  0.1522 -1.3037
23043SOL     OW81187   5.143   8.484   6.862 -0.2325  0.2283  0.3369
23043SOL    HW181188   5.063   8.506   6.918 -0.1180 -1.3798  1.1494
23043SOL    HW281189   5.222   8.468   6.920  0.4310  0.7603 -0.4125
23044SOL     OW81190   0.106   9.363   6.652  0.2830 -0.2230 -0.0474
23044SOL    HW181191   0.039   9.294   6.625 -0.5308  0.3678  0.4383
23044SOL    HW281192   0.153   9.398   6.571 -1.9424  1.3340 -0.7173
23045SOL     OW81193   0.958   0.823   9.797  0.0466  0.1130 -0.6011
23045SOL    HW181194   1.000   0.842   9.886  1.1163  0.2351 -1.1214
23045SOL    HW281195   0.862   0.850   9.799  0.4710  1.5916  0.0165
23046SOL     OW81196   1.162   2.138   9.182 -0.0890 -0.3843 -0.0422
23046SOL    HW181197   1.193   2.150   9.276  0.5269  0.0246 -0.2968
23046SOL    HW281198   1.241   2.137   9.120 -0.5210 -0.1804 -0.6029
23047SOL     OW81199   4.048   2.138   6.353 -0.1943  0.0692  0.2163
23047SOL    HW181200   4.006   2.199   6.286 -0.2069 -1.0927 -0.8454
23047SOL    HW281201   4.109   2.074   6.306  1.2146  0.4178  1.5128
23048SOL     OW81202   0.491   1.776   9.939  0.0477 -0.0453 -0.0580
23048SOL    HW181203   0.488   1.728   9.852  1.6909  1.0963 -0.7632
23048SOL    HW281204   0.462   1.715  10.012  1.3904 -1.8672 -1.0230
23049SOL     OW81205   6.513   2.449   9.390 -0.1960  0.4546 -0.5138
23049SOL    HW181206   6.505   2.442   9.489 -0.8003  2.3756 -0.4098
23049SOL    HW281207   6.423   2.466   9.350  0.0403 -0.3436 -1.4131
23050SOL     OW81208   6.646   6.272   0.656  0.4584 -0.0218 -0.6949
23050SOL    HW181209   6.606   6.319   0.735  0.6700 -0.2330 -0.4621
23050SOL    HW281210   6.691   6.339   0.597 -0.6162  0.2826 -1.1905
23051SOL     OW81211   8.982   5.252   5.739  0.4703  0.1098  0.2036
23051SOL    HW181212   8.971   5.350   5.727 -0.0272  0.2988  2.0596
23051SOL    HW281213   9.063   5.235   5.795  0.8695 -0.5684 -0.5732
23052SOL     OW81214   7.418   8.436   2.632  0.0139 -0.0292  0.3373
23052SOL    HW181215   7.319   8.431   2.647  0.3316 -0.4355  2.5000
23052SOL    HW281216   7.458   8.502   2.697  0.9262  1.5843 -1.8170
23053SOL     OW81217   2.718   2.000   9.339 -0.1274  0.5669 -0.2499
23053SOL    HW181218   2.694   1.917   9.288 -1.8218  0.8580  0.0321
23053SOL    HW281219   2.689   1.989   9.434  2.5424  0.2321  0.5700
23054SOL     OW81220   6.939   2.797   8.982  0.0928 -0.4405 -0.5597
23054SOL    HW181221   6.984   2.820   9.069  1.2722 -1.3450 -0.9323
23054SOL    HW281222   6.858   2.855   8.971 -1.7150 -2.2304  2.4997
23055SOL     OW81223   6.548   4.498   6.826  0.0727 -0.0402  0.0294
23055SOL    HW181224   6.566   4.400   6.838  2.2913  0.2340 -0.7357
23055SOL    HW281225   6.475   4.511   6.759  1.5929 -1.1487 -1.8968
23056SOL     OW81226   3.005   0.443   7.998 -0.6531 -0.3791  0.3631
23056SOL    HW181227   3.086   0.500   7.985 -0.0832 -1.2135  0.2794
23056SOL    HW281228   2.948   0.447   7.916  0.2949 -1.3857 -0.3515
23057SOL     OW81229   7.729   8.441   6.435 -0.3927  0.1370 -0.4127
23057SOL    HW181230   7.776   8.354   6.416  0.3402  0.1830  1.0460
23057SOL    HW281231   7.683   8.473   6.353 -2.1408 -2.5379 -0.5460
23058SOL     OW81232   4.651   4.995   8.605  0.1896  0.1120  0.0925
23058SOL    HW181233   4.631   5.092   8.593  0.2779  0.0923 -0.2127
23058SOL    HW281234   4.655   4.950   8.516 -1.6187 -0.5231  0.3089
23059SOL     OW81235   8.001   3.984   8.525 -0.0346  0.0210 -0.1501
23059SOL    HW181236   7.941   3.904   8.525 -1.9891  1.4655 -0.7927
23059SOL    HW281237   7.969   4.050   8.458  1.6356  1.3195  0.2973
23060SOL     OW81238   3.617   8.803   0.787 -0.0425 -0.3220 -0.1228
23060SOL    HW181239   3.694   8.854   0.825  0.4061 -1.3395  0.3520
23060SOL    HW281240   3.648   8.750   0.708  0.0425 -1.7130  0.8244
23061SOL     OW81241   7.201   3.569   2.164  0.3920 -0.5013 -0.1815
23061SOL    HW181242   7.295   3.603   2.171  0.2840 -0.2129 -0.1554
23061SOL    HW281243   7.202   3.478   2.122  0.8826 -1.4343  1.7827
23062SOL     OW81244   1.976   3.220   2.890  0.0653  0.1768 -0.2365
23062SOL    HW181245   1.971   3.241   2.987  1.1478 -0.6465 -0.0024
23062SOL    HW281246   2.068   3.190   2.866  0.4683  2.5637 -1.9640
23063SOL     OW81247   3.290   3.460   8.787  1.0474 -0.3730  0.1643
23063SOL    HW181248   3.209   3.465   8.729  0.6455 -0.0957  0.7460
23063SOL    HW281249   3.348   3.540   8.770  0.6813 -0.0328  0.5114
23064SOL     OW81250   9.660   3.257   8.442  0.0129 -0.4202  0.5785
23064SOL    HW181251   9.568   3.254   8.482  0.2414  0.6857  1.2133
23064SOL    HW281252   9.705   3.170   8.458 -0.2892 -0.3673  1.8441
23065SOL     OW81253   3.979   6.496   0.136  1.1262 -0.0691 -0.0100
23065SOL    HW181254   3.942   6.525   0.225  1.5435 -0.7958  0.4105
23065SOL    HW281255   4.050   6.427   0.151  2.7297  1.3863 -0.8019
23066SOL     OW81256   9.701   5.440   3.554 -0.3294 -0.3052  0.2348
23066SOL    HW181257   9.684   5.364   3.491  2.0906 -0.8966  0.2331
23066SOL    HW281258   9.728   5.521   3.501 -1.5747  0.1702  0.3199
23067SOL     OW81259   6.765   0.625   0.891 -1.0672  0.0553  0.7230
23067SOL    HW181260   6.799   0.706   0.843 -0.2941  0.0473  1.2448
23067SOL    HW281261   6.696   0.653   0.958 -1.8409  0.1139 -0.0777
23068SOL     OW81262   5.863   8.432   1.477 -0.6766 -0.0096 -0.6224
23068SOL    HW181263   5.927   8.502   1.508  3.1071 -2.1687 -3.1598
23068SOL    HW281264   5.813   8.467   1.397  0.9766 -0.0333 -1.7008
23069SOL     OW81265   2.170   8.690   0.735  0.4014  0.7770  0.3755
23069SOL    HW181266   2.249   8.718   0.681 -0.8942  0.0807 -1.9850
23069SOL    HW281267   2.088   8.692   0.677 -0.6447 -2.4066  1.5991
23070SOL     OW81268   0.890   3.134   1.013  0.1566 -0.2568 -0.1138
23070SOL    HW181269   0.799   3.092   1.013  0.1874 -0.4738  3.6227
23070SOL    HW281270   0.960   3.063   1.019  0.5214  0.0254 -0.8784
23071SOL     OW81271   9.088   4.092   9.114  0.2201 -0.3337  0.0755
23071SOL    HW181272   9.061   4.174   9.165 -1.4429  0.2116 -1.6197
23071SOL    HW281273   9.056   4.011   9.162  2.1820 -0.0353  1.9507
23072SOL     OW81274   7.642   0.966   5.605  0.1232 -0.1067  0.0923
23072SOL    HW181275   7.558   0.919   5.576  0.1154 -0.3956  0.5727
23072SOL    HW281276   7.655   0.953   5.703  0.5644  0.2075  0.0762
23073SOL     OW81277   5.485   5.468   4.417  0.0394 -0.1221  0.2385
23073SOL    HW181278   5.546   5.532   4.465  0.2292 -1.3106  1.6245
23073SOL    HW281279   5.535   5.422   4.344 -0.3770  2.0590 -1.4883
23074SOL     OW81280   1.958   9.315   0.316 -0.0260 -0.4248 -0.5681
23074SOL    HW181281   2.024   9.389   0.327  0.0353 -0.4206 -0.9606
23074SOL    HW281282   1.989   9.234   0.365 -1.8205  0.8961  2.9089
23075SOL     OW81283   7.704   3.689   3.641  0.3387 -0.7491 -0.3513
23075SOL    HW181284   7.763   3.632   3.699  0.5405 -0.1226  0.0658
23075SOL    HW281285   7.608   3.667   3.658  0.3761 -0.2190  0.6005
23076SOL     OW81286   7.510   4.325   9.034 -0.1589 -0.8196  0.5611
23076SOL    HW181287   7.583   4.366   9.090 -0.8728 -0.2334  1.0810
23076SOL    HW281288   7.427   4.381   9.042 -0.6303 -1.4198 -0.1133
23077SOL     OW81289   3.690   1.396   1.415 -0.1105 -0.5600  0.0063
23077SOL    HW181290   3.672   1.404   1.317  0.1483 -2.0959 -0.1686
23077SOL    HW281291   3.626   1.330   1.455  0.6803 -0.9572  0.6212
23078SOL     OW81292   0.875   3.261   0.308  0.4951  0.2163 -0.0926
23078SOL    HW181293   0.895   3.173   0.266  1.0567  0.2066  0.1936
23078SOL    HW281294   0.960   3.312   0.321 -0.0053  1.5643 -1.9214
23079SOL     OW81295   7.909   5.223   5.378  0.3428 -0.5542  0.2687
23079SOL    HW181296   7.904   5.308   5.430 -1.7570 -0.7845  0.5068
23079SOL    HW281297   7.895   5.145   5.439 -1.1685 -0.8732 -0.4494
23080SOL     OW81298   9.901   3.935   9.748  0.1439  0.0435 -0.2839
23080SOL    HW181299   9.954   3.941   9.664  0.6013 -4.1746 -0.3860
23080SOL    HW281300   9.962   3.942   9.827  0.3033 -0.4126 -0.3650
23081SOL     OW81301   9.259   7.955   7.161 -0.4087 -0.4000 -0.1899
23081SOL    HW181302   9.304   7.882   7.212  0.2789  0.0114 -0.2011
23081SOL    HW281303   9.246   7.927   7.066 -0.5883 -0.6933 -0.0787
23082SOL     OW81304   0.766   7.998   1.425 -0.0149 -0.7120  0.4454
23082SOL    HW181305   0.848   7.945   1.401  0.3786  0.5172 -1.0607
23082SOL    HW281306   0.792   8.093   1.442 -0.7669 -0.8835  2.7119
23083SOL     OW81307   9.317   3.938   9.143 -0.3030  0.2770 -0.2736
23083SOL    HW181308   9.381   3.931   9.066 -0.3271 -0.4944 -0.2269
23083SOL    HW281309   9.240   3.996   9.116 -0.6470 -0.5392 -1.0695
23084SOL     OW81310   5.176   9.064   9.425  0.3780 -0.5727  0.7301
23084SOL    HW181311   5.079   9.085   9.415 -0.0402 -2.2219  1.2266
23084SOL    HW281312   5.195   8.974   9.385  1.9562  0.3170 -0.5672
23085SOL     OW81313   0.940   1.116   9.278 -0.1974  0.8419 -0.1244
23085SOL    HW181314   0.952   1.195   9.338  1.2976  1.4980 -1.2703
23085SOL    HW281315   0.860   1.064   9.307 -0.7451  2.3486  1.0990
23086SOL     OW81316   9.357   9.643   2.495 -0.4743  0.0609  0.5755
23086SOL    HW181317   9.455   9.630   2.507 -0.4408  2.1145  2.9110
23086SOL    HW281318   9.340   9.693   2.411  0.3718 -1.3765 -0.4725
23087SOL     OW81319   3.604   4.755   8.006 -0.2576  0.1613  0.3247
23087SOL    HW181320   3.661   4.675   7.989  0.9920  0.6785  1.9882
23087SOL    HW281321   3.661   4.834   8.029 -1.2876  2.2791 -3.8539
23088SOL     OW81322   6.907   7.943   3.510  0.4257 -0.1590  0.3691
23088SOL    HW181323   6.833   7.883   3.541 -0.3623  1.3318  1.4435
23088SOL    HW281324   6.939   7.999   3.587  0.8331  1.1239 -0.7130
23089SOL     OW81325   6.286   5.923   8.808 -0.5455  0.1355 -0.2542
23089SOL    HW181326   6.212   5.989   8.820 -0.7275 -0.0649 -0.2598
23089SOL    HW281327   6.370   5.958   8.849 -0.4167  0.7567 -1.0453
23090SOL     OW81328   3.462   4.905   6.973  0.1284 -0.2885  0.4150
23090SOL    HW181329   3.466   4.809   6.945 -0.1468 -0.3604  0.6234
23090SOL    HW281330   3.524   4.919   7.051  1.0075 -0.0543 -0.3168
23091SOL     OW81331   3.025   7.148   2.806 -0.6854 -0.3072 -0.0352
23091SOL    HW181332   2.961   7.074   2.829 -0.1101 -1.1162 -0.9728
23091SOL    HW281333   3.116   7.124   2.839 -0.7551  0.5920  0.8151
23092SOL     OW81334   9.439   4.570   7.824 -0.2223  0.4532  0.2036
23092SOL    HW181335   9.373   4.534   7.890  0.3928 -2.9388 -0.9390
23092SOL    HW281336   9.492   4.495   7.785  2.6440  2.8530 -0.7437
23093SOL     OW81337   0.462   5.518   9.059  0.7042 -0.7544  0.4927
23093SOL    HW181338   0.450   5.608   9.101  0.8654 -0.8021  0.6407
23093SOL    HW281339   0.403   5.452   9.106  1.9818 -1.1159  1.6223
23094SOL     OW81340   5.924   4.670   0.334  0.1205  0.5956 -0.3703
23094SOL    HW181341   5.967   4.683   0.423  2.7005  0.4564 -1.5591
23094SOL    HW281342   5.992   4.682   0.262 -1.2639 -2.1487 -2.2211
23095SOL     OW81343   4.903   3.651   2.865  0.2626 -0.3355  0.4995
23095SOL    HW181344   4.955   3.735   2.851 -0.3873 -0.1464 -0.8991
23095SOL    HW281345   4.806   3.669   2.849 -0.0296 -1.0682  1.4224
23096SOL     OW81346   7.986   6.118   5.158 -0.2766  0.1569 -0.6977
23096SOL    HW181347   7.927   6.076   5.228  0.3545 -1.0579 -0.8789
23096SOL    HW281348   7.976   6.217   5.162  0.4913  0.1898  1.8067
23097SOL     OW81349   5.443   7.025   1.397  0.5348 -0.4724  0.7458
23097SOL    HW181350   5.384   7.061   1.469  2.8135  0.8985  2.0018
23097SOL    HW281351   5.439   6.925   1.398 -1.7637 -0.4136  0.7586
23098SOL     OW81352   8.331   5.047   5.754 -0.2239 -0.7352  0.0500
23098SOL    HW181353   8.348   5.129   5.810 -1.3019 -0.2919 -0.2562
23098SOL    HW281354   8.237   5.016   5.769  0.7690 -3.0874  1.6618
23099SOL     OW81355   5.766   1.506   1.654 -0.2170  0.1228  0.0889
23099SOL    HW181356   5.821   1.444   1.710  0.0612  0.9559  0.7396
23099SOL    HW281357   5.778   1.600   1.686 -2.2333  0.2937  0.4230
23100SOL     OW81358   8.364   1.931   4.686  0.6486  0.4886  0.2923
23100SOL    HW181359   8.340   1.855   4.746 -0.0164 -0.7407 -1.4991
23100SOL    HW281360   8.312   2.012   4.712 -0.8131 -0.4631  0.3763
23101SOL     OW81361   6.365   6.111   0.985 -0.6474  0.0552  0.4251
23101SOL    HW181362   6.427   6.039   1.014 -0.1634  0.4946  0.4960
23101SOL    HW281363   6.418   6.192   0.960 -1.2444  1.0028  2.1102
23102SOL     OW81364   2.704   4.251   9.361 -0.2504 -0.2758  0.5033
23102SOL    HW181365   2.710   4.330   9.423  3.4570  0.4086 -0.5922
23102SOL    HW281366   2.727   4.168   9.412  0.7934  0.0227  0.5358
23103SOL     OW81367   5.625   6.253   1.007 -0.4364 -0.0731  0.3959
23103SOL    HW181368   5.638   6.284   0.913 -0.8401  1.3064  0.7858
23103SOL    HW281369   5.553   6.183   1.010 -1.7668  1.2551 -0.0683
23104SOL     OW81370   6.283   1.442   1.067  0.5201 -0.0947 -0.1564
23104SOL    HW181371   6.241   1.385   0.997 -1.9305 -0.2044  1.3467
23104SOL    HW281372   6.347   1.506   1.023  0.1801 -1.1615 -2.2989
23105SOL     OW81373   1.159   1.902   9.479  0.4953  0.0248 -0.6995
23105SOL    HW181374   1.085   1.870   9.420  1.1034 -0.7845 -1.0364
23105SOL    HW281375   1.133   1.888   9.575 -0.7355  1.8771 -0.7341
23106SOL     OW81376   8.611   4.132   0.041 -0.2796  0.1753  0.7620
23106SOL    HW181377   8.522   4.112   0.082  0.1096 -1.4635  0.8724
23106SOL    HW281378   8.665   4.189   0.103 -0.5226 -0.4624  1.5659
23107SOL     OW81379   8.536   5.400   2.355 -0.4032 -0.7168  0.1739
23107SOL    HW181380   8.590   5.375   2.435  2.8005 -0.2302 -1.7472
23107SOL    HW281381   8.486   5.319   2.323 -0.5571 -1.2780  1.7670
23108SOL     OW81382   8.995   4.198   7.546  0.1592 -0.6600 -0.1267
23108SOL    HW181383   9.059   4.197   7.623 -1.2246  1.1568  1.0874
23108SOL    HW281384   8.918   4.138   7.567 -0.1012 -0.3503 -0.2091
23109SOL     OW81385   7.961   6.914   2.136  0.0780  0.2776  0.3650
23109SOL    HW181386   7.985   6.820   2.160  0.8359  0.4387  0.2602
23109SOL    HW281387   8.015   6.978   2.191  0.3139  0.6504 -0.2914
23110SOL     OW81388   6.838   6.199   1.860  0.4189  0.1724 -0.0450
23110SOL    HW181389   6.832   6.099   1.866 -1.5421  0.1169 -2.1599
23110SOL    HW281390   6.829   6.238   1.951 -0.8952 -1.5187  0.5828
23111SOL     OW81391   8.006   3.807   5.203 -0.2197  0.2231  0.2694
23111SOL    HW181392   8.055   3.848   5.279 -0.6884  0.6421  0.3461
23111SOL    HW281393   8.040   3.844   5.117  1.8767 -1.8731  0.1250
23112SOL     OW81394   9.069   8.404   5.794  0.3672  0.4369  0.5511
23112SOL    HW181395   9.123   8.488   5.787 -0.7815  1.2997  1.6764
23112SOL    HW281396   8.978   8.426   5.829  0.3031 -1.3706  1.5940
23113SOL     OW81397   6.192   8.604   7.162  0.6505  0.1650 -0.1668
23113SOL    HW181398   6.264   8.653   7.113  0.8213  0.4694  0.3806
23113SOL    HW281399   6.193   8.508   7.136  2.4449 -0.2101  1.1791
23114SOL     OW81400   8.463   3.610   0.068  0.1263  0.1574 -0.1047
23114SOL    HW181401   8.446   3.696   0.117 -0.7887 -1.0030  1.6714
23114SOL    HW281402   8.546   3.567   0.105  0.3322  0.0376 -0.6918
23115SOL     OW81403   9.560   3.891   0.944 -0.9800  0.0238  0.2646
23115SOL    HW181404   9.599   3.881   0.853 -0.4356 -2.1470  0.7016
23115SOL    HW281405   9.522   3.804   0.974 -2.4072  1.0532  1.5712
23116SOL     OW81406   8.476   3.990   7.151  0.3212 -0.2955 -0.6731
23116SOL    HW181407   8.466   4.048   7.232 -1.1277 -1.2651 -0.1422
23116SOL    HW281408   8.515   3.902   7.178 -0.5959 -0.7889 -0.9663
23117SOL     OW81409   8.824   5.655   7.516  0.3543 -0.2573 -0.4695
23117SOL    HW181410   8.922   5.658   7.538  1.0758 -3.9112 -2.9052
23117SOL    HW281411   8.788   5.564   7.537 -1.9895  0.3194 -1.8674
23118SOL     OW81412   3.838   4.955   1.229  0.2953 -0.8053  0.2397
23118SOL    HW181413   3.738   4.966   1.226  0.5338  1.3435 -2.5459
23118SOL    HW281414   3.868   4.941   1.323 -2.4526  0.5259  1.3571
23119SOL     OW81415   1.650   4.020   1.890  0.3922 -0.0386 -0.0148
23119SOL    HW181416   1.629   4.118   1.899  0.5079  0.0162 -0.3556
23119SOL    HW281417   1.584   3.967   1.944  0.1660  0.2106 -0.0475
23120SOL     OW81418   1.857   8.585   4.265 -0.3547 -0.1730  0.3388
23120SOL    HW181419   1.909   8.644   4.328  0.6611 -0.4784 -0.2046
23120SOL    HW281420   1.919   8.548   4.196 -1.2424 -0.8332 -0.1042
23121SOL     OW81421   9.224   2.485   0.018  0.1121  0.3092  0.4020
23121SOL    HW181422   9.190   2.425  -0.054 -0.4326  0.8449  0.2082
23121SOL    HW281423   9.320   2.507  -0.000  0.7690 -1.7293  1.3119
23122SOL     OW81424   7.587   2.285   6.410  0.2560 -0.0618 -0.2336
23122SOL    HW181425   7.575   2.369   6.357  0.9152  0.7484  0.8979
23122SOL    HW281426   7.679   2.282   6.448 -0.3645 -0.4038  1.2714
23123SOL     OW81427   0.199   8.866   6.406  0.5938  0.1130  0.0785
23123SOL    HW181428   0.252   8.804   6.348 -1.6088 -1.0040 -0.8104
23123SOL    HW281429   0.110   8.883   6.363 -0.2922  0.8503  2.1679
23124SOL     OW81430   0.964   6.185   4.869  0.2039  0.2848  0.2820
23124SOL    HW181431   0.960   6.268   4.813 -1.4562 -0.8080 -1.2364
23124SOL    HW281432   0.972   6.105   4.810 -0.0008 -0.7773  1.6808
23125SOL     OW81433   9.086   5.033   7.649  0.0391  0.3558 -0.5295
23125SOL    HW181434   9.180   5.035   7.684  0.4623 -2.8734 -1.3584
23125SOL    HW281435   9.030   4.973   7.705 -0.8869  0.2225 -1.5802
23126SOL     OW81436   0.185   5.752   4.586  0.2932 -0.8846 -0.4705
23126SOL    HW181437   0.237   5.738   4.502  0.6706 -1.4079 -0.1500
23126SOL    HW281438   0.246   5.780   4.660 -0.0313 -0.4667 -0.3531
23127SOL     OW81439   7.681   3.303   8.199 -0.2240 -0.7604  0.0305
23127SOL    HW181440   7.757   3.262   8.249  2.8676  2.5958 -1.6278
23127SOL    HW281441   7.688   3.278   8.102 -0.4413  0.5791 -0.3466
23128SOL     OW81442   6.720   6.360   9.700  0.4738 -0.0903 -0.6534
23128SOL    HW181443   6.689   6.453   9.681  0.2308  0.0903  0.5441
23128SOL    HW281444   6.817   6.361   9.722  0.8622 -0.3631 -2.3209
23129SOL     OW81445   9.012   0.437   6.189  0.7691  0.5227 -0.0909
23129SOL    HW181446   8.973   0.461   6.278  0.6626  1.7524 -0.4601
23129SOL    HW281447   8.972   0.352   6.156 -1.1966  1.4839 -0.2226
23130SOL     OW81448   4.815   5.409   3.429 -0.7070  0.1990  0.1473
23130SOL    HW181449   4.755   5.410   3.509 -0.9016 -0.0901  0.0055
23130SOL    HW281450   4.910   5.414   3.459 -0.8057  0.8791  0.3672
23131SOL     OW81451   6.907   7.300   0.111 -0.0794 -0.2480  0.2402
23131SOL    HW181452   6.958   7.385   0.102 -0.5847 -0.0135 -0.4204
23131SOL    HW281453   6.953   7.228   0.060  0.6584 -0.5163  1.2667
23132SOL     OW81454   1.721   3.892   2.305 -0.1855  0.2481 -0.4694
23132SOL    HW181455   1.673   3.980   2.309  1.8090  1.3471  0.1626
23132SOL    HW281456   1.819   3.908   2.292  0.6049 -1.7632  2.4471
23133SOL     OW81457   9.487   6.265   7.818 -0.5646 -0.2105 -0.4140
23133SOL    HW181458   9.446   6.179   7.847 -1.2529  0.5567  0.9348
23133SOL    HW281459   9.479   6.274   7.718 -1.2095 -1.3256 -0.4717
23134SOL     OW81460   5.351   5.400   7.502 -0.2393 -0.0757 -0.4404
23134SOL    HW181461   5.305   5.335   7.562 -0.7203  0.2064 -0.5038
23134SOL    HW281462   5.396   5.471   7.557 -0.7821  0.2515 -0.4163
23135SOL     OW81463   6.496   5.816   3.071 -0.0073  0.4047 -0.1568
23135SOL    HW181464   6.568   5.802   3.139 -0.9426  0.1938  0.8129
23135SOL    HW281465   6.531   5.794   2.980  0.4770 -2.0524  0.5733
23136SOL     OW81466   9.619   3.129   0.849  0.1891  0.0366 -0.5282
23136SOL    HW181467   9.652   3.224   0.843  0.4128 -0.1362 -2.2331
23136SOL    HW281468   9.545   3.116   0.782 -0.5288 -0.7265  0.4025
23137SOL     OW81469   4.204   2.489   0.332 -0.4690  0.7162  0.0707
23137SOL    HW181470   4.146   2.546   0.274  0.5431 -0.6071 -2.3036
23137SOL    HW281471   4.166   2.397   0.337  0.4490  0.3260 -0.0332
23138SOL     OW81472   0.996   0.471   1.125 -0.6802 -0.0963 -0.1100
23138SOL    HW181473   1.023   0.509   1.036  0.6939  2.2184  1.2272
23138SOL    HW281474   1.065   0.405   1.155 -1.1599 -0.9019 -0.7569
23139SOL     OW81475   7.570   2.005   9.601 -0.5519  0.6984  0.6384
23139SOL    HW181476   7.546   2.055   9.518  0.5096  1.5426  0.8330
23139SOL    HW281477   7.556   1.907   9.585  0.0037  0.8162 -0.6595
23140SOL     OW81478   0.318   4.766   3.475 -0.0237 -0.0976 -0.0881
23140SOL    HW181479   0.227   4.762   3.433  0.6161  0.0217 -1.5229
23140SOL    HW281480   0.311   4.742   3.571 -1.4728 -0.8531 -0.3633
23141SOL     OW81481   5.182   0.876   8.630 -0.0393 -0.4704 -0.5498
23141SOL    HW181482   5.113   0.804   8.636  1.0335 -1.4806  0.0507
23141SOL    HW281483   5.255   0.846   8.568  0.1662  0.3207 -0.6925
23142SOL     OW81484   7.829   3.066   3.227 -0.0861 -0.5461  0.1716
23142SOL    HW181485   7.736   3.045   3.195 -0.2135 -1.6561  1.2435
23142SOL    HW281486   7.894   3.008   3.178 -0.0778 -0.6952  0.3603
23143SOL     OW81487   8.607   4.250   4.863  0.0076  0.2452 -0.5738
23143SOL    HW181488   8.542   4.178   4.888 -0.2852  1.1930  1.4679
23143SOL    HW281489   8.582   4.335   4.910  0.9621  1.4113 -2.1520
23144SOL     OW81490   8.935   3.390   2.837 -0.0095  0.6096 -0.1944
23144SOL    HW181491   8.861   3.350   2.783 -1.6985  1.6248  1.3134
23144SOL    HW281492   8.997   3.439   2.776 -0.5222 -0.3260 -1.4959
23145SOL     OW81493   6.085   6.672   7.430 -0.0823  0.1889  0.2679
23145SOL    HW181494   6.097   6.613   7.509 -0.7295  0.8830  0.8971
23145SOL    HW281495   6.063   6.617   7.350  2.7860 -0.7100  0.0535
23146SOL     OW81496   6.723   5.264   7.939  0.1240  1.3186 -0.1849
23146SOL    HW181497   6.755   5.211   7.860 -0.4082 -0.4399  0.7535
23146SOL    HW281498   6.799   5.317   7.977  0.8026  0.7914 -0.7982
23147SOL     OW81499   8.883   2.682   9.139  0.0816 -0.1580  0.4839
23147SOL    HW181500   8.884   2.584   9.158  1.0670 -0.3286 -0.3871
23147SOL    HW281501   8.790   2.711   9.119 -0.0617 -1.1459 -0.3457
23148SOL     OW81502   7.477   8.559   2.388 -0.1016  0.2408  0.3246
23148SOL    HW181503   7.447   8.521   2.475 -0.3857 -0.4959 -0.0946
23148SOL    HW281504   7.417   8.527   2.315  0.9013 -0.1600 -0.3315
23149SOL     OW81505   7.290   7.541   0.916 -0.1445  0.5993 -0.1248
23149SOL    HW181506   7.233   7.610   0.961  1.1539  0.5847  1.6195
23149SOL    HW281507   7.248   7.451   0.925 -0.7707  0.8559 -0.4930
23150SOL     OW81508   5.977   6.012   0.345 -0.1553  0.1761  0.1313
23150SOL    HW181509   5.910   5.983   0.413 -1.7773  4.5646  0.6050
23150SOL    HW281510   6.032   6.086   0.384  2.1378 -0.5204 -1.7335
23151SOL     OW81511   6.346   2.311   8.998 -0.4692 -0.1980  0.3111
23151SOL    HW181512   6.363   2.214   9.014  0.0232 -0.2606 -0.5791
23151SOL    HW281513   6.425   2.364   9.026  0.4525 -0.3205 -1.9874
23152SOL     OW81514   6.904   7.910   5.943 -0.7293 -0.2905  0.2146
23152SOL    HW181515   6.985   7.968   5.937 -1.1907  0.3301  0.0218
23152SOL    HW281516   6.928   7.826   5.992 -0.2263  0.3512  1.0920
23153SOL     OW81517   9.393   9.576   0.340 -0.2258  0.0439 -0.5591
23153SOL    HW181518   9.304   9.621   0.328 -0.9075 -1.2756 -0.5986
23153SOL    HW281519   9.454   9.636   0.390 -1.2136  0.9013 -0.3616
23154SOL     OW81520   0.558   3.276   8.299  0.6788 -0.3456 -0.1024
23154SOL    HW181521   0.635   3.324   8.339  0.1949  0.5506 -0.2170
23154SOL    HW281522   0.510   3.337   8.235  0.2824 -1.1067 -0.5471
23155SOL     OW81523   5.938   5.568   9.687  0.2573 -0.2180  0.4415
23155SOL    HW181524   5.970   5.598   9.777  1.0693 -1.5563  0.6187
23155SOL    HW281525   5.980   5.624   9.616 -0.8955  1.2680  0.9221
23156SOL     OW81526   6.114   4.730   1.327  0.1958  0.3217  0.0880
23156SOL    HW181527   6.180   4.759   1.257 -0.0356 -1.0294 -0.7031
23156SOL    HW281528   6.142   4.642   1.365 -2.0869 -1.1437 -1.5291
23157SOL     OW81529   8.027   3.446   3.227  0.2528  0.2001 -0.0507
23157SOL    HW181530   8.116   3.427   3.186  0.3418  2.1968 -0.8631
23157SOL    HW281531   7.979   3.515   3.171 -1.2937  0.0195  1.0270
23158SOL     OW81532   1.397   5.193   8.822  0.8548  0.1964  0.2820
23158SOL    HW181533   1.319   5.162   8.877  0.6142 -1.5037 -0.9644
23158SOL    HW281534   1.365   5.260   8.755  0.4223 -0.4809 -0.2144
23159SOL     OW81535   6.018   6.523   2.919  0.0540 -0.3562 -0.1317
23159SOL    HW181536   5.927   6.559   2.938 -0.5296 -2.0782  0.4717
23159SOL    HW281537   6.015   6.469   2.834  0.7101  0.2827 -0.5648
23160SOL     OW81538   0.732   1.558   4.477 -0.4272 -0.0951 -0.3380
23160SOL    HW181539   0.799   1.527   4.545 -0.7211 -0.9479 -0.4306
23160SOL    HW281540   0.774   1.558   4.386 -0.6666 -1.0188 -0.4531
23161SOL     OW81541   6.224   4.154   9.746  0.7765  0.7501 -0.5865
23161SOL    HW181542   6.169   4.154   9.663  0.0973  2.8042 -0.1566
23161SOL    HW281543   6.164   4.161   9.826  1.4711 -0.4131  0.0540
23162SOL     OW81544   7.826   6.123   8.079  0.5211 -0.3460  0.3165
23162SOL    HW181545   7.751   6.188   8.070  0.5243 -0.4561 -0.5735
23162SOL    HW281546   7.796   6.033   8.046  1.2982 -0.1883 -0.8686
23163SOL     OW81547   7.186   3.528   8.807  0.1969  0.2368 -0.7481
23163SOL    HW181548   7.115   3.472   8.850 -0.4396  2.9137  1.8634
23163SOL    HW281549   7.275   3.506   8.847  0.0909  0.3656 -0.4362
23164SOL     OW81550   0.852   3.490   2.773 -0.3192  0.0695 -0.2529
23164SOL    HW181551   0.775   3.475   2.711  0.1211 -0.9350 -0.5720
23164SOL    HW281552   0.904   3.405   2.781  1.2004  0.9589 -0.6350
23165SOL     OW81553   7.486   5.524   6.673  0.4796 -0.1389 -0.7384
23165SOL    HW181554   7.585   5.533   6.657  0.5253  0.7351 -0.0055
23165SOL    HW281555   7.440   5.506   6.587  1.2647 -0.3932 -1.1118
23166SOL     OW81556   2.198   2.790   6.236  0.4034  0.4194 -0.0386
23166SOL    HW181557   2.163   2.729   6.307 -0.0909 -1.4963 -1.8770
23166SOL    HW281558   2.295   2.769   6.219  0.0197 -0.4165 -1.2318
23167SOL     OW81559   7.379   5.648   7.868 -0.0109  0.2366  0.1460
23167SOL    HW181560   7.370   5.554   7.835  0.8185  0.1920  0.0442
23167SOL    HW281561   7.304   5.703   7.830  0.1465 -0.1272 -0.7112
23168SOL     OW81562   6.980   7.382   1.745 -0.4773  0.1918  0.2738
23168SOL    HW181563   6.970   7.425   1.655 -1.2807  0.8473  0.6684
23168SOL    HW281564   6.954   7.448   1.816  1.7787  0.2634  1.0886
23169SOL     OW81565   6.030   3.161   8.824  0.2443  0.2015 -0.1298
23169SOL    HW181566   5.953   3.161   8.888  0.9486  0.4621  0.7329
23169SOL    HW281567   6.060   3.067   8.808  0.6661  0.1973  0.6613
23170SOL     OW81568   1.108   5.408   1.837  0.1351  0.3764 -0.1062
23170SOL    HW181569   1.034   5.415   1.770 -1.2792  0.3712  1.4139
23170SOL    HW281570   1.136   5.313   1.846 -0.2420  0.2636 -0.0977
23171SOL     OW81571   6.403   1.782   1.702  0.3062 -0.2742 -0.0716
23171SOL    HW181572   6.444   1.700   1.742 -0.4980 -0.1681  0.9794
23171SOL    HW281573   6.313   1.758   1.665  1.2132 -0.4732 -2.2269
23172SOL     OW81574   7.483   6.289   3.182 -0.4333 -0.3173  0.0215
23172SOL    HW181575   7.423   6.211   3.197  0.0067 -0.5885  0.3757
23172SOL    HW281576   7.574   6.269   3.218  0.2152 -0.3828 -1.6173
23173SOL     OW81577   6.789   8.284   0.502 -0.2557  0.5903 -0.4134
23173SOL    HW181578   6.722   8.326   0.564 -2.1186  0.0118 -1.9961
23173SOL    HW281579   6.801   8.188   0.526 -1.7065  0.1146 -1.5109
23174SOL     OW81580   1.065   8.400   6.155  0.0912 -0.1371 -0.2703
23174SOL    HW181581   1.065   8.414   6.056 -0.9506  0.1638 -0.2342
23174SOL    HW281582   1.057   8.302   6.175 -1.3703 -0.0667 -0.4777
23175SOL     OW81583   4.633   6.944   7.928  0.2937 -0.0912  0.2948
23175SOL    HW181584   4.564   7.002   7.884  1.6013  0.3616 -1.1803
23175SOL    HW281585   4.597   6.851   7.937 -0.8032  0.3218  0.2316
23176SOL     OW81586   1.473   7.889   7.926 -0.4562 -0.0777  0.2753
23176SOL    HW181587   1.569   7.868   7.939 -0.3318  0.1534 -0.2680
23176SOL    HW281588   1.420   7.804   7.921 -0.1908 -0.2148 -0.1365
23177SOL     OW81589   2.802   3.115   8.824  0.2552 -0.3965  0.4201
23177SOL    HW181590   2.823   3.072   8.911 -0.2223 -0.2941  0.5887
23177SOL    HW281591   2.802   3.046   8.751  2.3836 -0.2043  0.2110
23178SOL     OW81592   5.097   1.988   9.255  0.2518 -0.1939  0.3215
23178SOL    HW181593   5.105   2.067   9.195  0.3982  0.6144  1.3890
23178SOL    HW281594   5.011   1.940   9.237  0.2465  0.1106 -0.4522
23179SOL     OW81595   0.934   5.280   2.228  0.2919  0.3843 -0.4006
23179SOL    HW181596   0.979   5.360   2.267  0.0761  1.0283 -1.4537
23179SOL    HW281597   1.003   5.220   2.189  0.3299  0.8452 -1.0492
23180SOL     OW81598   1.393   6.335   7.818  0.5016 -0.4879 -0.3147
23180SOL    HW181599   1.334   6.313   7.896  0.3360 -0.2741 -0.3810
23180SOL    HW281600   1.486   6.352   7.850  0.9023 -2.4034 -0.3667
23181SOL     OW81601   3.628   2.857   7.328  0.2396  0.3235  0.0220
23181SOL    HW181602   3.678   2.917   7.390 -2.0226  1.8421  0.4548
23181SOL    HW281603   3.652   2.880   7.233  0.6174  0.8099  0.2298
23182SOL     OW81604   7.502   6.273   9.122  0.1768 -0.2757 -0.4745
23182SOL    HW181605   7.591   6.263   9.167  0.4684  1.2957 -0.6750
23182SOL    HW281606   7.441   6.201   9.153  1.5499 -1.4237 -0.4015
23183SOL     OW81607   6.295   7.151   7.824 -0.3713 -0.4384 -0.1714
23183SOL    HW181608   6.272   7.243   7.794 -0.7278  0.0538  1.5554
23183SOL    HW281609   6.213   7.094   7.823 -0.2228 -0.6452 -0.8909
23184SOL     OW81610   5.956   9.288   0.052  0.2506 -0.2561 -0.3642
23184SOL    HW181611   6.036   9.229   0.064 -0.1051 -0.8281 -0.7799
23184SOL    HW281612   5.951   9.318  -0.043  0.8221  1.0258 -0.0044
23185SOL     OW81613   8.635   8.856   9.340  0.2518  0.2731 -0.2770
23185SOL    HW181614   8.732   8.840   9.359  0.5082  3.0144  0.8801
23185SOL    HW281615   8.621   8.858   9.242  1.3766 -0.0556 -0.4588
23186SOL     OW81616   3.335   9.788   1.801 -0.2832  1.2155 -0.0187
23186SOL    HW181617   3.256   9.736   1.832  0.0944  0.5162 -0.2329
23186SOL    HW281618   3.415   9.728   1.794  0.3267  1.9641  0.4188
23187SOL     OW81619   4.282   3.254   0.956  0.4695 -0.1822  0.1177
23187SOL    HW181620   4.200   3.200   0.979  0.5016  0.0136  0.6908
23187SOL    HW281621   4.339   3.263   1.037 -0.7262  2.8092  0.6663
23188SOL     OW81622   1.118   1.037   0.933 -0.0245 -0.5575  0.6473
23188SOL    HW181623   1.197   1.024   0.873 -0.5059 -1.8956  0.2783
23188SOL    HW281624   1.069   0.950   0.942 -1.4406  0.2545  0.8879
23189SOL     OW81625   4.737   2.952   2.407  0.0782  0.3886 -0.1614
23189SOL    HW181626   4.701   3.045   2.407 -0.4124  0.2220  1.5866
23189SOL    HW281627   4.746   2.919   2.313  2.4169  3.0155 -0.9097
23190SOL     OW81628   4.509   3.608   9.780 -0.1186 -0.4367 -0.1295
23190SOL    HW181629   4.449   3.632   9.703  0.0484  1.9478  0.4481
23190SOL    HW281630   4.454   3.567   9.853 -1.3743  2.9343  0.9372
23191SOL     OW81631   9.690   8.279   0.314 -0.0633  0.2028 -0.0782
23191SOL    HW181632   9.733   8.368   0.326  0.2892 -0.1002  0.9309
23191SOL    HW281633   9.627   8.262   0.390  1.2118 -1.1803  0.6941
23192SOL     OW81634   9.665   4.977   6.530  0.0566  0.1487  0.1157
23192SOL    HW181635   9.658   4.907   6.458  1.3310  1.1152 -0.9897
23192SOL    HW281636   9.696   4.934   6.615  0.2214 -0.7406 -0.3795
23193SOL     OW81637   2.760   7.311   3.177 -0.2475  0.2079  0.0633
23193SOL    HW181638   2.788   7.364   3.097 -1.8978  1.8499  0.5280
23193SOL    HW281639   2.762   7.213   3.156  4.1692  0.3330 -0.3991
23194SOL     OW81640   2.710   6.799   3.373  0.1990  0.0497  0.0906
23194SOL    HW181641   2.770   6.781   3.295  0.2314 -1.4883  0.4699
23194SOL    HW281642   2.637   6.863   3.345  1.6338  1.4472 -0.5296
23195SOL     OW81643   3.984   9.235   5.443 -0.4772  0.4337 -0.4723
23195SOL    HW181644   3.959   9.330   5.463 -1.1574 -0.4307  3.2661
23195SOL    HW281645   3.912   9.174   5.477  0.2393 -1.4828 -2.2663
23196SOL     OW81646   4.132   7.198   0.602  0.2657 -0.7101 -0.3634
23196SOL    HW181647   4.060   7.188   0.533  1.1323  0.3805 -1.4459
23196SOL    HW281648   4.206   7.254   0.565  0.9373 -0.4673  1.3122
23197SOL     OW81649   6.381   5.637   9.621  0.5610  0.3215 -0.2814
23197SOL    HW181650   6.437   5.669   9.697  1.2080 -2.6372  0.5340
23197SOL    HW281651   6.421   5.668   9.534  2.1966  0.1285  0.3901
23198SOL     OW81652   0.850   2.516   9.272  0.4753 -0.1349 -0.6685
23198SOL    HW181653   0.874   2.595   9.328  1.0338 -0.2940 -0.6812
23198SOL    HW281654   0.775   2.466   9.316  1.2124 -0.5172  0.1819
23199SOL     OW81655   9.287   4.331   6.683  0.0838 -0.2155  0.1980
23199SOL    HW181656   9.232   4.412   6.663 -0.1971 -0.6635 -0.8967
23199SOL    HW281657   9.326   4.295   6.598 -0.1263 -1.4542  0.6065
23200SOL     OW81658   0.931   3.142   5.637 -0.2617 -0.3931  0.5519
23200SOL    HW181659   0.923   3.131   5.538 -0.5132 -0.5633  0.5902
23200SOL    HW281660   0.872   3.075   5.683 -1.8073  1.1113  0.8003
23201SOL     OW81661   3.906   7.688   8.970  0.5400  0.2988 -0.2963
23201SOL    HW181662   3.865   7.778   8.981 -1.1713 -0.5434  0.4909
23201SOL    HW281663   3.914   7.667   8.872 -0.3136  0.7496 -0.4707
23202SOL     OW81664   0.801   3.904   2.174 -0.4188 -0.1202 -0.1902
23202SOL    HW181665   0.823   3.897   2.077 -0.2497 -0.2457 -0.1424
23202SOL    HW281666   0.885   3.912   2.227 -0.5680  1.4408 -0.1656
23203SOL     OW81667   6.847   2.667   3.498 -0.2394 -0.8463  0.3841
23203SOL    HW181668   6.774   2.657   3.566 -0.5328  0.8429  0.3556
23203SOL    HW281669   6.917   2.599   3.515 -1.2419 -1.7114  1.1746
23204SOL     OW81670   1.685   3.681   0.174  0.3009 -0.1220 -0.1071
23204SOL    HW181671   1.724   3.590   0.162  2.4815  0.7177  0.2267
23204SOL    HW281672   1.759   3.747   0.191 -1.1520  1.8399 -1.1105
23205SOL     OW81673   8.341   4.220   0.151  0.0186  0.3123 -0.0142
23205SOL    HW181674   8.308   4.165   0.228 -0.5002  0.9427  0.2161
23205SOL    HW281675   8.363   4.312   0.183 -1.1727  0.8855 -0.8115
23206SOL     OW81676   9.593   2.913   1.296 -0.7336 -0.0155 -0.0991
23206SOL    HW181677   9.534   2.921   1.216 -3.0281 -0.7791  1.4566
23206SOL    HW281678   9.600   3.002   1.341 -1.0354 -0.0077 -0.0645
23207SOL     OW81679   2.551   6.327   0.424 -0.0150  0.7733  0.6764
23207SOL    HW181680   2.500   6.347   0.507 -0.3087 -0.6598  0.8574
23207SOL    HW281681   2.649   6.332   0.443 -0.0713 -0.8301  1.4445
23208SOL     OW81682   6.587   6.519   1.643 -0.1898 -0.0427 -0.2744
23208SOL    HW181683   6.571   6.585   1.570  0.3369 -0.2990 -0.6252
23208SOL    HW281684   6.685   6.497   1.648 -0.1871  0.1777  0.6836
23209SOL     OW81685   7.189   5.284   2.707  0.2275 -0.3609  0.3068
23209SOL    HW181686   7.218   5.197   2.746  1.8220 -0.4850 -1.0733
23209SOL    HW281687   7.233   5.359   2.757 -1.1120 -0.3182  1.4671
23210SOL     OW81688   7.038   9.970   9.469 -0.0110 -0.6145 -0.5656
23210SOL    HW181689   7.059  10.043   9.405 -0.9358  1.9584  1.9595
23210SOL    HW281690   6.948   9.932   9.448 -0.8051  0.9894 -0.1430
23211SOL     OW81691   9.229   8.010   9.725  0.0878  0.1717  0.5728
23211SOL    HW181692   9.277   8.063   9.794  0.5765 -0.1200  0.4585
23211SOL    HW281693   9.295   7.956   9.672 -0.1822  1.1341 -0.7602
23212SOL     OW81694   6.485   1.164   0.512  0.2900  0.7816 -0.1592
23212SOL    HW181695   6.422   1.138   0.439  0.2401  0.7542 -0.1063
23212SOL    HW281696   6.479   1.099   0.587  0.4732  0.7084 -0.2073
23213SOL     OW81697   9.165   3.258   5.631  0.8019  0.3014  0.3545
23213SOL    HW181698   9.106   3.226   5.557  1.0043  0.3270  0.1807
23213SOL    HW281699   9.125   3.233   5.719  1.0964 -0.6734  0.2171
23214SOL     OW81700   6.112   8.844   8.217 -0.5630  0.2263 -0.0706
23214SOL    HW181701   6.147   8.854   8.311 -0.4883 -0.8967  0.0200
23214SOL    HW281702   6.187   8.820   8.156 -1.1970 -2.4426  0.1669
23215SOL     OW81703   6.141   4.624   8.884  0.2279 -0.3599 -0.3453
23215SOL    HW181704   6.166   4.713   8.845  0.5543  0.2404  1.1874
23215SOL    HW281705   6.149   4.553   8.814  2.3133  0.4320 -0.9509
23216SOL     OW81706   9.886   3.949   3.456 -0.1613  0.3716 -0.0385
23216SOL    HW181707   9.915   4.042   3.436  0.8783  0.3124  1.1281
23216SOL    HW281708   9.808   3.951   3.518  0.9096  0.4534  1.3251
23217SOL     OW81709   6.755   5.373   5.612  0.0393  0.0737 -0.4571
23217SOL    HW181710   6.776   5.277   5.592 -0.0599  0.0558 -0.4763
23217SOL    HW281711   6.676   5.401   5.557 -0.6592 -0.1710  0.4227
23218SOL     OW81712   8.541   3.735   6.692  0.3491 -0.3113 -0.0725
23218SOL    HW181713   8.471   3.801   6.665 -0.2802 -1.1569 -0.5300
23218SOL    HW281714   8.622   3.748   6.635  1.2884  1.8968  1.6906
23219SOL     OW81715   8.018   6.418   2.320  0.9662 -0.0877 -0.2342
23219SOL    HW181716   8.103   6.367   2.334  0.8231  0.3604  2.6772
23219SOL    HW281717   8.038   6.501   2.269  1.9762 -0.8509 -1.1056
23220SOL     OW81718   5.550   3.179   1.854 -0.0731 -0.1114  0.3225
23220SOL    HW181719   5.467   3.234   1.858 -0.2492 -0.3529  0.0609
23220SOL    HW281720   5.559   3.139   1.763  0.9406  0.8441 -0.0009
23221SOL     OW81721   5.713   3.141   2.503 -0.5042 -0.0587  0.0996
23221SOL    HW181722   5.693   3.043   2.503 -0.7642 -0.0148 -0.6259
23221SOL    HW281723   5.667   3.184   2.425 -0.7623  0.7191  0.6816
23222SOL     OW81724   5.436   9.441   0.999  0.1129 -0.0025 -0.1703
23222SOL    HW181725   5.366   9.460   1.067  0.7925 -0.9002  0.7986
23222SOL    HW281726   5.473   9.527   0.963  0.0933  0.4759  0.9468
23223SOL     OW81727   8.346   2.799   0.139  0.0360 -0.1604 -0.3335
23223SOL    HW181728   8.295   2.746   0.071  0.4906 -0.9276 -0.0897
23223SOL    HW281729   8.287   2.820   0.216  0.3166 -1.8167  0.3518
23224SOL     OW81730   5.131   4.981   4.142  0.4273  0.1447  0.7658
23224SOL    HW181731   5.190   4.931   4.206 -1.0055 -1.8279  0.5783
23224SOL    HW281732   5.124   5.076   4.171  2.0648 -0.0809  1.9441
23225SOL     OW81733   5.794   6.723   2.564  0.3129 -0.2582 -0.2072
23225SOL    HW181734   5.825   6.694   2.473 -2.3289  1.7568 -1.8492
23225SOL    HW281735   5.696   6.703   2.574 -0.2278  2.6031  0.8119
23226SOL     OW81736   1.728   6.981   1.266  0.0951 -0.5015 -0.0208
23226SOL    HW181737   1.649   7.021   1.312  1.0424  1.8532 -0.3815
23226SOL    HW281738   1.780   6.926   1.331 -1.1582 -1.0422  0.5289
23227SOL     OW81739   0.832   5.115   8.188  0.7318 -0.0082 -0.4000
23227SOL    HW181740   0.744   5.078   8.218  2.0485 -1.4439  1.8793
23227SOL    HW281741   0.846   5.205   8.229 -0.0786  0.6213 -1.5087
23228SOL     OW81742   9.300   0.331   3.990 -0.3266  0.2705  0.6049
23228SOL    HW181743   9.210   0.373   3.986  0.1298  1.1530 -0.5259
23228SOL    HW281744   9.303   0.267   4.067 -1.7417  0.6180  0.9669
23229SOL     OW81745   9.359   8.038   2.447 -0.0338 -0.1978 -0.3093
23229SOL    HW181746   9.433   7.974   2.427 -0.2339 -0.5974  0.2205
23229SOL    HW281747   9.324   8.021   2.539 -1.6403 -0.8555 -1.0143
23230SOL     OW81748   7.642   2.596   4.174  0.5506  0.0897 -0.2820
23230SOL    HW181749   7.657   2.498   4.185  1.7011 -0.0773 -2.8689
23230SOL    HW281750   7.713   2.633   4.114 -1.4822  1.9842 -1.5801
23231SOL     OW81751   7.278   5.062   2.827 -0.8232 -0.4857  0.6074
23231SOL    HW181752   7.302   5.096   2.918  0.1142  1.8750 -0.4740
23231SOL    HW281753   7.360   5.052   2.771 -1.5160 -0.5436 -0.4247
23232SOL     OW81754   7.179   3.712   8.124  0.6743  0.2415 -0.0184
23232SOL    HW181755   7.210   3.630   8.077  2.6371  0.2921  1.1244
23232SOL    HW281756   7.251   3.782   8.119 -1.0995  2.0484 -1.2986
23233SOL     OW81757   7.988   7.450   4.587  0.1524  0.1562  0.3565
23233SOL    HW181758   7.926   7.376   4.559  0.4549 -0.1516  0.4889
23233SOL    HW281759   7.936   7.534   4.601 -0.1257  0.0863 -0.2649
23234SOL     OW81760   8.574   6.247   5.432  0.4912 -0.2471 -0.0463
23234SOL    HW181761   8.516   6.328   5.435  0.1884 -0.4830  0.5339
23234SOL    HW281762   8.541   6.179   5.497  1.3960 -0.3915  0.2824
23235SOL     OW81763   6.505   3.439   7.187 -0.0818 -0.4571  0.2724
23235SOL    HW181764   6.599   3.422   7.157 -0.6320 -1.0322 -1.1370
23235SOL    HW281765   6.499   3.421   7.285  0.2645 -4.8486 -0.3976
23236SOL     OW81766   6.125   6.609   3.943 -0.1583 -0.0171  0.4208
23236SOL    HW181767   6.161   6.522   3.976  2.2021  0.7532 -0.0579
23236SOL    HW281768   6.151   6.622   3.847  0.2166  1.5980  0.7313
23237SOL     OW81769   7.402   4.711   1.977  0.3898  0.3765 -0.5541
23237SOL    HW181770   7.439   4.804   1.977  1.0102  0.1374  1.1047
23237SOL    HW281771   7.461   4.652   2.032 -0.8617 -0.6598 -0.3105
23238SOL     OW81772   1.183   2.597   3.187 -0.0713 -0.3568  0.0824
23238SOL    HW181773   1.117   2.622   3.258  0.9546  1.2410  0.5064
23238SOL    HW281774   1.177   2.664   3.112  0.8562 -0.3765 -0.0099
23239SOL     OW81775   7.610   1.537   2.096  0.0700  0.1338  0.2445
23239SOL    HW181776   7.682   1.485   2.050 -0.2241  0.4653 -0.5884
23239SOL    HW281777   7.530   1.544   2.036  0.4097  2.2570  0.0284
23240SOL     OW81778   5.597   0.957   8.977 -0.4161  0.4293  0.3135
23240SOL    HW181779   5.550   0.869   8.971 -0.4635  0.4201  0.8078
23240SOL    HW281780   5.623   0.987   8.885 -0.7459  0.0885  0.1084
23241SOL     OW81781   7.342   3.088   5.073 -0.3142  0.5005 -0.0640
23241SOL    HW181782   7.403   3.156   5.114 -0.8248  1.4812 -0.8967
23241SOL    HW281783   7.377   3.062   4.984 -0.3422 -0.0257  0.0802
23242SOL     OW81784   9.249   6.248   1.657 -0.2211  0.1579  0.2251
23242SOL    HW181785   9.150   6.244   1.675 -0.4005  1.1814 -0.4795
23242SOL    HW281786   9.299   6.247   1.743 -1.0142  3.6267  0.8293
23243SOL     OW81787   3.608   7.649   9.311 -0.2101  0.4037 -0.3080
23243SOL    HW181788   3.671   7.699   9.371 -1.6883  2.1003 -0.1297
23243SOL    HW281789   3.575   7.567   9.358  0.9376  0.1234  0.0386
23244SOL     OW81790   2.794   4.581   4.774  0.3737  0.0292 -0.1123
23244SOL    HW181791   2.867   4.523   4.737 -0.7821 -2.5037  1.4141
23244SOL    HW281792   2.743   4.622   4.698  0.9148 -1.3820 -1.2792
23245SOL     OW81793   6.071   4.964   2.221  0.1018  0.0784  0.5637
23245SOL    HW181794   6.050   5.022   2.300 -1.6890 -1.8113  1.5429
23245SOL    HW281795   6.003   4.981   2.149 -0.3359 -0.6637  0.7952
23246SOL     OW81796   3.210   3.497   4.669  0.3858  0.9334 -0.2189
23246SOL    HW181797   3.124   3.542   4.692  0.8839  1.6141  0.3541
23246SOL    HW281798   3.211   3.405   4.709 -0.3097  0.7123 -0.7142
23247SOL     OW81799   3.868   3.186   7.903  0.1378 -0.0551  0.2530
23247SOL    HW181800   3.962   3.164   7.931  0.3193  1.4239  0.8434
23247SOL    HW281801   3.870   3.242   7.820 -0.2084  0.3244  0.5006
23248SOL     OW81802   9.116   0.184   3.800 -0.3912  0.0492 -0.1611
23248SOL    HW181803   9.175   0.128   3.858 -1.4724 -1.6571 -0.6691
23248SOL    HW281804   9.049   0.232   3.856  0.1103  0.3061  0.2164
23249SOL     OW81805   5.636   4.547   4.008  0.2991 -0.1500  0.3303
23249SOL    HW181806   5.621   4.610   3.931  1.7518  0.9468  0.9409
23249SOL    HW281807   5.675   4.461   3.974  0.9279  0.3282 -0.1554
23250SOL     OW81808   5.826   6.024   3.200  0.1649  0.9978 -0.0335
23250SOL    HW181809   5.825   6.093   3.272  0.5308  1.0593 -0.0843
23250SOL    HW281810   5.919   6.015   3.164  0.3852 -0.4003  0.8352
23251SOL     OW81811   5.672   6.127   2.561 -0.0800 -0.2392  0.1792
23251SOL    HW181812   5.616   6.052   2.527  0.2823 -0.4741  0.0888
23251SOL    HW281813   5.616   6.209   2.571  0.1539  0.2873 -2.5404
23252SOL     OW81814   8.889   2.898   4.081 -0.1212 -0.3315 -0.1414
23252SOL    HW181815   8.985   2.920   4.062 -0.3529 -0.0353 -0.9939
23252SOL    HW281816   8.866   2.811   4.038  0.3245 -1.4171  1.7963
23253SOL     OW81817   5.577   3.492   4.068  0.2063  0.3539  0.0608
23253SOL    HW181818   5.631   3.467   4.148 -0.4970 -0.6155  0.2412
23253SOL    HW281819   5.632   3.548   4.007  0.4911  1.7575  1.5935
23254SOL     OW81820   8.103   0.579   3.306 -0.1393 -0.0529 -0.1593
23254SOL    HW181821   8.049   0.535   3.234 -3.2602  1.9443  0.8488
23254SOL    HW281822   8.124   0.512   3.378  0.1020 -1.2281 -1.3004
23255SOL     OW81823   8.378   3.560   5.276 -0.2657 -0.4188  0.5963
23255SOL    HW181824   8.372   3.460   5.283  1.1471 -0.4563  1.5019
23255SOL    HW281825   8.469   3.585   5.244  0.1899  0.6790  2.7275
23256SOL     OW81826   9.354   1.693   5.605  0.0964 -0.2031  1.0888
23256SOL    HW181827   9.453   1.701   5.611  0.2526 -1.1542 -0.0268
23256SOL    HW281828   9.311   1.775   5.644  1.3242  0.5605  0.8544
23257SOL     OW81829   6.545   5.645   0.279  0.2668  0.3656 -0.4753
23257SOL    HW181830   6.591   5.568   0.322 -0.0683  0.6698  0.4306
23257SOL    HW281831   6.614   5.712   0.249  0.4439  0.6425  0.5362
23258SOL     OW81832   9.816   3.128   2.962  0.0774 -0.0198  0.5802
23258SOL    HW181833   9.757   3.145   2.883 -0.6856 -0.4915  1.0404
23258SOL    HW281834   9.834   3.030   2.970  2.5043  0.2698 -0.6642
23259SOL     OW81835   7.134   4.156   3.149 -0.2999  0.6256 -0.3172
23259SOL    HW181836   7.041   4.150   3.112  0.1933 -0.5815 -1.4275
23259SOL    HW281837   7.185   4.227   3.099 -0.1567  0.1937 -0.7924
23260SOL     OW81838   8.916   2.810   1.479  0.5612 -0.2264  0.0773
23260SOL    HW181839   8.919   2.848   1.572  0.1090  1.1445 -0.4524
23260SOL    HW281840   8.821   2.807   1.448  0.3097 -4.0342  0.9792
23261SOL     OW81841   7.035   6.949   2.318 -0.3042 -0.1683 -0.3361
23261SOL    HW181842   6.936   6.953   2.331 -0.1519 -0.9707  1.1931
23261SOL    HW281843   7.055   6.926   2.223 -1.5960 -0.1578 -0.6226
23262SOL     OW81844   0.679   5.697   2.916  0.2402  0.0385 -0.7738
23262SOL    HW181845   0.631   5.617   2.881  0.2558  0.0174 -0.7473
23262SOL    HW281846   0.628   5.779   2.894 -0.2256 -0.0508 -0.0115
23263SOL     OW81847   8.736   6.539   4.893 -0.6312 -0.3995 -0.0950
23263SOL    HW181848   8.764   6.628   4.856 -1.2970 -0.9493 -1.9633
23263SOL    HW281849   8.756   6.536   4.991  2.8871  0.3872 -0.7383
23264SOL     OW81850   0.577   2.316   4.150 -0.1411 -0.2827 -0.2200
23264SOL    HW181851   0.676   2.324   4.166 -0.3064  0.5664  0.4484
23264SOL    HW281852   0.532   2.401   4.179 -0.8425  0.0898 -2.3119
23265SOL     OW81853   9.047   0.118   1.487  0.0973  0.4507 -0.7199
23265SOL    HW181854   8.958   0.149   1.519 -0.2516 -3.2685  2.2192
23265SOL    HW281855   9.119   0.174   1.529 -0.6858  0.8043  0.1698
23266SOL     OW81856   9.315   4.009   3.711  0.3262 -0.4627  0.4687
23266SOL    HW181857   9.344   4.098   3.745 -0.5300 -0.5867  1.5299
23266SOL    HW281858   9.291   3.950   3.787  0.8158 -1.5842 -0.2362
23267SOL     OW81859   7.468   4.672   1.709 -0.1401 -0.2149  0.4757
23267SOL    HW181860   7.424   4.678   1.798  0.6713 -0.2701  0.8790
23267SOL    HW281861   7.546   4.735   1.706  0.0893 -0.5214 -0.0506
23268SOL     OW81862   6.265   3.556   8.298  0.0299 -0.0457  0.4224
23268SOL    HW181863   6.225   3.501   8.225 -0.8610 -4.0863  3.7262
23268SOL    HW281864   6.193   3.611   8.341 -0.0361  0.0818  0.1496
23269SOL     OW81865   7.893   2.168   1.026 -0.3123 -0.3192  0.5181
23269SOL    HW181866   7.899   2.102   0.951 -1.3560  1.3989 -1.1255
23269SOL    HW281867   7.810   2.152   1.079 -0.2899 -0.6669  0.4452
23270SOL     OW81868   8.868   0.024   4.352  0.2453  0.2934 -0.7504
23270SOL    HW181869   8.943  -0.028   4.314 -0.7068 -0.8952 -1.0372
23270SOL    HW281870   8.898   0.071   4.435  0.8982 -1.4119 -0.0059
23271SOL     OW81871   7.604   5.961   0.986  0.3612 -0.1389 -0.2976
23271SOL    HW181872   7.616   5.956   1.085 -1.2136 -2.0021 -0.1679
23271SOL    HW281873   7.548   6.041   0.963  0.5634  0.1869  0.3467
23272SOL     OW81874   2.602   0.859   1.622  0.6602  0.1318  0.1866
23272SOL    HW181875   2.600   0.768   1.662 -0.9253 -0.5614 -1.4277
23272SOL    HW281876   2.588   0.927   1.693 -1.0245 -1.0219  0.9920
23273SOL     OW81877   0.403   2.439   8.393  0.2278  0.1826  0.7732
23273SOL    HW181878   0.471   2.406   8.458  1.4932  0.9632 -0.1237
23273SOL    HW281879   0.411   2.538   8.382 -0.4394  0.1634 -0.0287
23274SOL     OW81880   6.674   5.980   3.253  0.1614  0.0302 -0.8870
23274SOL    HW181881   6.727   5.913   3.201  0.5651 -0.4182  0.1010
23274SOL    HW281882   6.736   6.046   3.295  0.1262 -1.7013  1.9916
23275SOL     OW81883   6.156   0.953   3.064 -0.4033 -0.1303  0.1388
23275SOL    HW181884   6.139   1.022   2.993 -0.3197 -0.1614  0.0897
23275SOL    HW281885   6.121   0.865   3.033 -1.9071  0.2000  0.8221
23276SOL     OW81886   7.690   8.056   3.963  0.0667 -0.4380 -0.2806
23276SOL    HW181887   7.685   8.082   3.867 -1.4693 -0.0548 -0.1047
23276SOL    HW281888   7.671   8.136   4.021 -1.1428 -1.1331  0.3079
23277SOL     OW81889   7.975   5.054   0.659 -0.2958  0.1704  0.4401
23277SOL    HW181890   7.939   4.961   0.645  0.6962 -0.0190 -0.9702
23277SOL    HW281891   7.900   5.118   0.671 -1.0665 -0.5007 -0.7074
23278SOL     OW81892   6.577   8.484   0.683 -0.2278  0.2129 -0.1720
23278SOL    HW181893   6.502   8.443   0.735  0.0324 -2.1886 -1.6471
23278SOL    HW281894   6.642   8.526   0.747 -1.5793  0.2019  1.2467
23279SOL     OW81895   6.239   8.395   2.116 -0.0634  0.4486 -0.9418
23279SOL    HW181896   6.174   8.369   2.044 -0.7762 -1.6876  0.4438
23279SOL    HW281897   6.192   8.453   2.183  0.1195  0.9463 -1.2440
23280SOL     OW81898   4.718   7.677   1.432 -0.0761 -0.1035  0.3198
23280SOL    HW181899   4.698   7.733   1.352  1.0549 -2.2848 -1.5695
23280SOL    HW281900   4.811   7.697   1.464  0.8844 -1.8638 -1.2588
23281SOL     OW81901   5.444   5.006   4.938  0.4951 -0.2572 -0.6541
23281SOL    HW181902   5.353   4.991   4.978 -0.2456  0.4892 -2.0207
23281SOL    HW281903   5.434   5.053   4.850  2.2950  1.3299 -0.0434
23282SOL     OW81904   7.120   3.965   7.145  0.7166 -0.2660 -0.0382
23282SOL    HW181905   7.099   4.009   7.057 -0.8193 -0.0016  0.4448
23282SOL    HW281906   7.093   3.869   7.141 -1.6559  0.3217  0.9313
23283SOL     OW81907   5.506   5.559   9.608  0.2220 -0.2833  0.6216
23283SOL    HW181908   5.521   5.563   9.510 -1.3134 -0.9096  0.3500
23283SOL    HW281909   5.414   5.525   9.627  0.0826  0.8982  2.2521
23284SOL     OW81910   3.646   3.033   4.076  0.6234  0.7253 -0.2315
23284SOL    HW181911   3.728   3.002   4.028  1.3659  0.7079  1.0099
23284SOL    HW281912   3.631   2.976   4.157 -1.3996 -0.1269 -1.1887
23285SOL     OW81913   5.548   3.233   3.318  0.4935 -0.2176  0.2286
23285SOL    HW181914   5.645   3.233   3.294  0.5952 -1.2170  0.6084
23285SOL    HW281915   5.510   3.324   3.304  0.9727 -0.3284 -1.9992
23286SOL     OW81916   6.591   1.704   9.067 -0.0443 -0.0791 -0.5676
23286SOL    HW181917   6.633   1.707   8.977  1.7933 -0.8496  0.2352
23286SOL    HW281918   6.621   1.782   9.121  0.0242 -0.4034 -0.1333
23287SOL     OW81919   9.321   2.016   8.757 -0.7643  0.5466  0.1535
23287SOL    HW181920   9.332   2.087   8.827 -0.0322 -0.6113  1.2311
23287SOL    HW281921   9.411   1.992   8.720 -1.0816  0.6483 -0.6877
23288SOL     OW81922   0.663   5.964   3.957  0.0782  0.4237  0.3718
23288SOL    HW181923   0.703   5.985   3.868 -3.4768  0.6877 -1.2133
23288SOL    HW281924   0.604   6.039   3.986 -1.9433 -1.3703  1.0534
23289SOL     OW81925   0.285   7.163   4.578  0.2481 -0.2978 -0.5321
23289SOL    HW181926   0.331   7.207   4.656 -0.6315  0.0492 -0.1994
23289SOL    HW281927   0.257   7.233   4.512 -1.6132 -0.2859  0.2422
23290SOL     OW81928   3.458   4.923   9.298  0.2574  0.1853 -0.5889
23290SOL    HW181929   3.507   4.862   9.360 -1.7824 -2.3902 -1.4106
23290SOL    HW281930   3.436   4.874   9.213  0.2072  2.6626 -2.0707
23291SOL     OW81931   3.089   5.259   9.776  0.1836 -0.2375  0.3395
23291SOL    HW181932   3.170   5.317   9.776  0.3004 -0.3990  0.2770
23291SOL    HW281933   3.082   5.212   9.687  0.1384 -0.3836  0.4205
23292SOL     OW81934   3.972   8.514   1.671 -0.2600  0.0382  0.1476
23292SOL    HW181935   4.045   8.467   1.622  0.1285 -0.6354  1.3406
23292SOL    HW281936   3.925   8.577   1.609  1.5564  0.7505 -0.5433
23293SOL     OW81937   7.649   0.314   2.249 -0.1850  0.4169 -0.0860
23293SOL    HW181938   7.727   0.328   2.188  1.1845 -1.0926  1.2792
23293SOL    HW281939   7.571   0.279   2.197  0.5293  0.4608 -1.1847
23294SOL     OW81940   6.400   9.591   1.161 -0.4360  0.0850  0.0129
23294SOL    HW181941   6.325   9.601   1.226 -1.4880 -0.7925 -1.0367
23294SOL    HW281942   6.462   9.669   1.168  0.4468 -0.8581  3.2891
23295SOL     OW81943   5.604   1.321   4.670  0.2261  0.4517  0.0503
23295SOL    HW181944   5.626   1.242   4.612  0.1403 -0.3643  1.1232
23295SOL    HW281945   5.518   1.362   4.639 -0.0001 -0.1904 -0.1649
23296SOL     OW81946   7.438   2.204   2.226  0.1489  0.6535 -0.4510
23296SOL    HW181947   7.472   2.120   2.267  0.9112  1.1571 -0.0312
23296SOL    HW281948   7.496   2.281   2.255 -0.2710  1.2521 -1.1817
23297SOL     OW81949   6.929   1.035   5.355  0.2289 -0.2631 -0.4359
23297SOL    HW181950   6.962   1.120   5.395 -0.8193  1.0175 -2.1801
23297SOL    HW281951   6.849   1.055   5.297 -0.1118 -2.4504 -0.7418
23298SOL     OW81952   0.736   6.570   5.804 -0.5994 -0.0648  0.0214
23298SOL    HW181953   0.647   6.605   5.833 -0.0768  1.4902 -0.2498
23298SOL    HW281954   0.728   6.533   5.711 -1.1036 -0.5416  0.2467
23299SOL     OW81955   3.171   3.696   3.847 -0.0905 -0.4451  0.2852
23299SOL    HW181956   3.169   3.786   3.804  1.0618 -0.8090 -0.5452
23299SOL    HW281957   3.093   3.642   3.814 -1.5926  0.7082  1.8520
23300SOL     OW81958   5.074   4.150   6.466  0.6330  0.5171 -0.2119
23300SOL    HW181959   5.054   4.057   6.497 -0.2182  0.3118 -1.3334
23300SOL    HW281960   5.099   4.207   6.544  1.0731 -0.6305  0.4940
23301SOL     OW81961   2.239   0.337   1.123 -0.0508  0.2974  0.2364
23301SOL    HW181962   2.289   0.362   1.206  0.0828 -0.7509  0.4832
23301SOL    HW281963   2.303   0.302   1.055 -0.4222 -0.9013  0.4960
23302SOL     OW81964   6.832   1.899   2.033 -0.1162 -0.3227 -0.1806
23302SOL    HW181965   6.738   1.897   1.997 -0.5509 -0.5313  0.9406
23302SOL    HW281966   6.896   1.900   1.957 -1.0515  3.2223 -1.0108
23303SOL     OW81967   8.914   2.398   1.121  0.1196  0.0354  0.7799
23303SOL    HW181968   8.940   2.339   1.197  1.4059  0.2032  0.4911
23303SOL    HW281969   8.911   2.493   1.153 -2.1164 -0.1803  1.2860
23304SOL     OW81970   9.138   7.610   5.680  0.2325  0.3864 -0.5190
23304SOL    HW181971   9.082   7.638   5.602  2.1452  0.4750 -1.9070
23304SOL    HW281972   9.086   7.548   5.738 -1.7335  1.4840 -1.0565
23305SOL     OW81973   9.705   5.784   3.088  0.3675  0.5655  0.1112
23305SOL    HW181974   9.675   5.785   3.183  0.2060  0.9654  0.0567
23305SOL    HW281975   9.655   5.853   3.036  1.7480  1.6050  0.1276
23306SOL     OW81976   4.905   4.671   6.040 -0.2582 -0.4543  0.0541
23306SOL    HW181977   4.937   4.600   5.977 -0.0283  1.7248 -2.3480
23306SOL    HW281978   4.829   4.635   6.094 -0.9198 -2.1980 -1.9501
23307SOL     OW81979   8.808   7.100   3.595 -0.1967 -0.0969  0.6734
23307SOL    HW181980   8.817   7.031   3.667  1.4617 -0.3554  0.2522
23307SOL    HW281981   8.853   7.067   3.512  0.6458  1.4803  0.4814
23308SOL     OW81982   0.087   1.840   0.743  0.3986  0.3153 -0.4023
23308SOL    HW181983   0.039   1.899   0.808 -1.2016 -1.2938 -0.0891
23308SOL    HW281984   0.030   1.826   0.662  0.5669 -1.1552 -0.2799
23309SOL     OW81985   1.204   1.980   2.514  0.2923 -0.5145  0.4706
23309SOL    HW181986   1.124   2.011   2.564 -0.1194 -0.0697 -0.4419
23309SOL    HW281987   1.181   1.970   2.417  2.5173  4.2077 -0.6989
23310SOL     OW81988   5.897   5.436   7.971  0.0099 -0.0096 -0.2205
23310SOL    HW181989   5.834   5.512   7.983  0.9295  0.8230 -0.6268
23310SOL    HW281990   5.936   5.411   8.060  0.8976  1.0202 -0.3233
23311SOL     OW81991   6.588   2.387   1.455  0.3500 -0.3075 -0.4164
23311SOL    HW181992   6.573   2.486   1.450 -0.6384 -0.4552 -0.6946
23311SOL    HW281993   6.621   2.362   1.546 -2.2914 -0.0622  0.6643
23312SOL     OW81994   0.393   4.484   9.242  0.5213  0.2467  0.2364
23312SOL    HW181995   0.472   4.425   9.254  0.2735  0.2214  1.8726
23312SOL    HW281996   0.309   4.432   9.258  0.2539  0.7266  0.4259
23313SOL     OW81997   6.229   4.746   2.985  0.6320 -0.2033 -0.0203
23313SOL    HW181998   6.304   4.724   2.923  1.1309 -0.3880  0.6342
23313SOL    HW281999   6.191   4.661   3.022  1.2634 -0.0667  0.9922
23314SOL     OW82000   9.635   3.322   3.788  0.0085 -0.0229 -0.6851
23314SOL    HW182001   9.569   3.397   3.795  1.5537  1.4225 -1.2999
23314SOL    HW282002   9.615   3.253   3.858 -1.8391  0.6128 -0.5478
23315SOL     OW82003   6.668   8.499   2.155 -0.0675  0.9745 -0.4547
23315SOL    HW182004   6.571   8.507   2.180  0.4096 -0.5487  2.1325
23315SOL    HW282005   6.718   8.578   2.190  0.1974 -0.0082  1.4729
23316SOL     OW82006   8.385   9.697   7.192 -0.4594  0.2003 -0.1087
23316SOL    HW182007   8.328   9.652   7.261  0.0545 -1.3397 -0.6652
23316SOL    HW282008   8.422   9.628   7.129  1.7821  1.2124  0.0560
23317SOL     OW82009   8.385   1.722   1.227  0.4007 -0.0915 -0.3186
23317SOL    HW182010   8.422   1.636   1.263  0.6923  0.0115 -0.3658
23317SOL    HW282011   8.417   1.734   1.133 -0.5974 -0.5073 -0.7180
23318SOL     OW82012   8.949   8.034   3.102 -0.6529 -0.2742 -0.3437
23318SOL    HW182013   8.971   7.937   3.093  0.7337 -0.0502  0.4674
23318SOL    HW282014   8.922   8.054   3.196  0.2158  0.3471 -0.2218
23319SOL     OW82015   3.311   1.550   2.131 -0.3746 -0.0947 -0.4145
23319SOL    HW182016   3.371   1.626   2.157  0.9937 -1.1257 -0.5179
23319SOL    HW282017   3.350   1.464   2.164 -0.6058 -1.0161 -2.4902
23320SOL     OW82018   0.990   1.368   7.915 -0.0073 -0.4395 -0.6552
23320SOL    HW182019   1.014   1.428   7.992  0.5956 -0.3103 -0.9378
23320SOL    HW282020   1.041   1.282   7.923 -0.4326 -0.6862 -0.5637
23321SOL     OW82021   8.708   2.416   1.842  0.0311  0.0453 -0.4714
23321SOL    HW182022   8.787   2.355   1.842  1.5685  2.0294 -1.2982
23321SOL    HW282023   8.712   2.476   1.922 -0.3911  0.4820 -0.7730
23322SOL     OW82024   1.414   1.944   3.536 -0.4850 -0.2120 -0.4182
23322SOL    HW182025   1.469   2.025   3.515 -0.1417 -0.2029  0.4794
23322SOL    HW282026   1.403   1.889   3.453 -0.0655  0.3579 -0.8589
23323SOL     OW82027   3.578   5.599   7.021  0.1817 -0.1878 -0.7186
23323SOL    HW182028   3.655   5.659   6.997 -0.0841  0.7500  0.7137
23323SOL    HW282029   3.593   5.562   7.112 -1.4703  0.6618 -0.0924
23324SOL     OW82030   8.197   8.915   3.069  0.0108  0.2676 -0.0278
23324SOL    HW182031   8.245   8.827   3.079 -0.3215  0.0287 -0.5631
23324SOL    HW282032   8.116   8.915   3.128  0.4118  0.4965  0.5298
23325SOL     OW82033   6.443   4.714   2.153 -0.9988  0.2299  0.3035
23325SOL    HW182034   6.441   4.654   2.073  0.9319  0.8400 -0.2461
23325SOL    HW282035   6.537   4.719   2.188 -1.1677  2.6225  0.5245
23326SOL     OW82036   7.206   5.921   0.530  0.2407 -0.1697 -0.0725
23326SOL    HW182037   7.294   5.887   0.497 -0.0626  0.5055 -1.6225
23326SOL    HW282038   7.218   6.012   0.570 -0.1750  1.1254 -2.7935
23327SOL     OW82039   0.574   5.499   2.774  0.0588 -0.3155  0.3062
23327SOL    HW182040   0.502   5.447   2.821  0.8361 -1.1268  0.6015
23327SOL    HW282041   0.533   5.552   2.700 -1.0540  0.2668  1.3148
23328SOL     OW82042   5.985   3.844   4.367 -0.1342  0.3493 -0.9673
23328SOL    HW182043   6.049   3.899   4.314  2.0466 -0.2205  0.9603
23328SOL    HW282044   5.972   3.756   4.322  0.7173  0.3523 -1.2391
23329SOL     OW82045   1.104   2.225   1.878 -0.1947 -0.2298  0.2690
23329SOL    HW182046   1.172   2.151   1.872 -0.3115 -0.2241 -1.3164
23329SOL    HW282047   1.146   2.312   1.853 -0.7968 -0.2363 -0.7937
23330SOL     OW82048   7.988   2.907   4.918 -0.8359  0.1593  0.2468
23330SOL    HW182049   8.043   2.913   5.001 -1.4088  3.0052  0.4643
23330SOL    HW282050   8.048   2.905   4.838 -0.3029 -1.9716  0.6693
23331SOL     OW82051   2.634   7.333   3.923  0.1323 -0.2590 -0.3892
23331SOL    HW182052   2.722   7.288   3.912 -0.5123 -1.6103 -0.1672
23331SOL    HW282053   2.615   7.390   3.842  0.9519 -0.3798 -0.6700
23332SOL     OW82054   5.173   9.959   8.964  0.5975 -0.4843  0.3529
23332SOL    HW182055   5.171   9.968   8.864  0.1344  0.7376  0.4676
23332SOL    HW282056   5.157   9.864   8.989 -3.6164 -0.1060 -0.5945
23333SOL     OW82057   7.492   3.453   2.813  0.6136  0.4284 -0.5000
23333SOL    HW182058   7.541   3.380   2.861 -0.2501 -0.1431 -0.4646
23333SOL    HW282059   7.421   3.412   2.755 -0.2075  1.2666 -0.1014
23334SOL     OW82060   1.144   4.236   3.174  0.2229 -0.3940 -0.4256
23334SOL    HW182061   1.115   4.192   3.259  1.8138 -0.5366  0.0786
23334SOL    HW282062   1.115   4.332   3.175 -2.7743 -1.2482 -1.2917
23335SOL     OW82063   7.010   1.952   1.806  0.9354 -0.6886 -0.1515
23335SOL    HW182064   7.012   1.896   1.723  0.8559  0.8270 -1.2048
23335SOL    HW282065   7.100   1.952   1.849  1.6607  0.5040 -1.6260
23336SOL     OW82066   6.279   7.414   6.737 -0.3958  0.1032 -0.0365
23336SOL    HW182067   6.217   7.477   6.785  0.7185  0.1484  1.3575
23336SOL    HW282068   6.360   7.464   6.707  0.5575 -0.7008  1.2013
23337SOL     OW82069   6.892   5.437   0.420  0.2568 -0.0569  0.0079
23337SOL    HW182070   6.919   5.345   0.392 -0.1765 -0.2430  0.1874
23337SOL    HW282071   6.969   5.500   0.409  0.9709 -0.7182  1.1567
23338SOL     OW82072   0.663   4.070   0.180 -0.1164 -0.0866  0.2614
23338SOL    HW182073   0.756   4.041   0.204 -0.2109  0.0506  0.8109
23338SOL    HW282074   0.630   4.135   0.249 -1.3624 -1.6421  1.1789
23339SOL     OW82075   9.572   9.814   2.810 -0.1985 -0.0540 -0.4673
23339SOL    HW182076   9.547   9.834   2.905  0.5874 -0.1666 -0.2327
23339SOL    HW282077   9.515   9.869   2.748  0.0096  0.8099  0.1014
23340SOL     OW82078   0.923   1.040   8.925 -0.1791 -0.0647 -0.1193
23340SOL    HW182079   0.941   1.130   8.965 -1.0720 -0.2738  0.7888
23340SOL    HW282080   1.001   1.011   8.870 -0.2888  1.7164 -1.2557
23341SOL     OW82081   0.841   8.746   9.745  0.4171 -0.7657  0.2961
23341SOL    HW182082   0.936   8.732   9.717  0.4326 -0.1439  0.0274
23341SOL    HW282083   0.791   8.660   9.735  0.8524 -0.9947  0.0484
23342SOL     OW82084   6.307   9.676   3.674  0.2493  0.0490 -0.1959
23342SOL    HW182085   6.393   9.642   3.711  0.3385 -0.9748 -1.3019
23342SOL    HW282086   6.275   9.753   3.728  1.3323 -0.2275  0.8464
23343SOL     OW82087   3.812   6.200   1.568 -0.5088 -0.1272  0.6597
23343SOL    HW182088   3.840   6.201   1.665  0.9011  1.8736  0.2646
23343SOL    HW282089   3.894   6.202   1.511 -1.3873  0.6555 -0.5769
23344SOL     OW82090   7.261   4.375   3.017  0.5289  0.2133  0.6035
23344SOL    HW182091   7.269   4.367   2.917  1.2626 -1.5452  0.7768
23344SOL    HW282092   7.188   4.439   3.040  0.1571  0.4150 -1.0661
23345SOL     OW82093   5.709   5.850   2.978 -0.0442 -0.0436 -0.2398
23345SOL    HW182094   5.613   5.876   2.990  0.0039  0.0183  0.0250
23345SOL    HW282095   5.755   5.854   3.067  0.7604  2.1546 -0.7184
23346SOL     OW82096   7.263   0.001   8.936 -0.4232 -0.2091 -0.2855
23346SOL    HW182097   7.188   0.066   8.928  0.8035  1.2062 -0.3893
23346SOL    HW282098   7.271  -0.028   9.032 -0.5416  0.2961 -0.1227
23347SOL     OW82099   8.152   3.719   2.670 -0.2278  0.4217  0.4618
23347SOL    HW182100   8.115   3.761   2.753  0.2188 -0.7024  1.2523
23347SOL    HW282101   8.179   3.790   2.605 -1.8305  1.2848  0.7324
23348SOL     OW82102   6.853   3.569   0.468  0.3783  0.2214  0.1494
23348SOL    HW182103   6.936   3.580   0.523  0.8929 -1.5658 -0.2408
23348SOL    HW282104   6.877   3.527   0.381 -0.8896  0.0508 -0.1149
23349SOL     OW82105   1.181   0.432   8.283 -0.3273 -0.0396 -0.1593
23349SOL    HW182106   1.267   0.442   8.233 -0.5679 -1.5486 -0.9086
23349SOL    HW282107   1.104   0.446   8.220 -0.6399  1.3148  0.5110
23350SOL     OW82108   9.099   3.157   4.738 -0.4161  0.4103  0.1279
23350SOL    HW182109   9.159   3.221   4.690 -1.2293 -0.8601 -2.6906
23350SOL    HW282110   9.152   3.077   4.766  0.4689  1.9517  3.1202
23351SOL     OW82111   6.390   5.847   0.758  0.2368 -0.0105 -0.4810
23351SOL    HW182112   6.479   5.828   0.799  0.0014 -0.3507 -0.1220
23351SOL    HW282113   6.333   5.897   0.824  0.6622  1.4582 -1.2249
23352SOL     OW82114   0.769   1.274   1.961 -0.1326  0.1446  0.2722
23352SOL    HW182115   0.790   1.249   1.867  1.2669  0.8531  0.3768
23352SOL    HW282116   0.721   1.362   1.962  1.2109  0.8983  0.2820
23353SOL     OW82117   9.489   5.510   4.067  0.0320  0.7438 -0.2908
23353SOL    HW182118   9.475   5.582   4.135  2.5060  0.9596  0.0545
23353SOL    HW282119   9.473   5.546   3.976  2.0594  2.0236 -0.1809
23354SOL     OW82120   0.305   4.932   8.845  0.2787  0.2143  0.2042
23354SOL    HW182121   0.373   4.891   8.783 -0.5688 -0.8423 -0.0374
23354SOL    HW282122   0.343   4.936   8.937  1.3041  1.1884 -0.2456
23355SOL     OW82123   4.913   5.725   8.018  0.3880  0.3780 -0.3300
23355SOL    HW182124   5.005   5.723   7.977  0.7151  2.3650  0.2308
23355SOL    HW282125   4.913   5.670   8.101  1.2699  0.8865  0.0218
23356SOL     OW82126   1.549   4.716   3.104  0.0605 -0.4503  0.1042
23356SOL    HW182127   1.530   4.813   3.089  1.4063 -0.1163  0.5197
23356SOL    HW282128   1.644   4.696   3.077 -0.3354 -1.7382 -0.3824
23357SOL     OW82129   6.647   4.306   3.600  0.1652  0.2927 -0.0496
23357SOL    HW182130   6.715   4.379   3.602  2.4572 -1.7639  0.1529
23357SOL    HW282131   6.648   4.262   3.510  0.5228 -1.0262  0.5861
23358SOL     OW82132   3.885   9.502   8.567  0.2655 -0.2829 -0.1757
23358SOL    HW182133   3.955   9.450   8.518 -1.1252 -0.3983 -2.0830
23358SOL    HW282134   3.905   9.600   8.557 -0.2033 -0.2952 -1.2712
23359SOL     OW82135   2.616   3.722   2.154  0.2712 -0.5473 -0.3650
23359SOL    HW182136   2.691   3.737   2.090  1.0009 -2.6329 -0.0334
23359SOL    HW282137   2.623   3.630   2.192 -1.1736  0.0479  1.3813
23360SOL     OW82138   9.889   4.571   9.152  0.3270 -0.1795 -0.6061
23360SOL    HW182139   9.933   4.577   9.241 -0.9058  1.0573 -0.0697
23360SOL    HW282140   9.907   4.653   9.099  0.3571 -0.5446 -1.1728
23361SOL     OW82141   7.091   0.217   9.304  0.0882 -0.3353  0.0715
23361SOL    HW182142   7.169   0.273   9.333 -0.9846  3.1777 -3.2879
23361SOL    HW282143   7.113   0.173   9.216 -1.5150  0.3068 -0.6650
23362SOL     OW82144   6.015   2.826   3.431 -0.1897  0.3897 -0.1159
23362SOL    HW182145   6.052   2.741   3.469 -1.2521 -0.6106 -1.2596
23362SOL    HW282146   6.071   2.903   3.461  2.1131 -0.9474 -0.8457
23363SOL     OW82147   9.852   7.863   3.287  0.0281 -0.5240  0.2027
23363SOL    HW182148   9.830   7.831   3.195 -0.7315 -1.0988  0.5791
23363SOL    HW282149   9.935   7.918   3.284 -0.7643  0.6081 -1.0300
23364SOL     OW82150   2.054   7.575   3.146  0.0360 -0.5271  0.0111
23364SOL    HW182151   1.964   7.543   3.178  0.1299 -1.3743 -0.5718
23364SOL    HW282152   2.112   7.497   3.125  0.1057  0.0095 -1.8836
23365SOL     OW82153   9.780   5.271   1.389  0.2042  0.0462 -0.5030
23365SOL    HW182154   9.700   5.253   1.446  0.2915 -0.6181 -0.5814
23365SOL    HW282155   9.756   5.336   1.317 -0.5183 -0.8706 -1.0998
23366SOL     OW82156   1.682   5.234   2.373  0.3782 -0.3751  0.5837
23366SOL    HW182157   1.725   5.277   2.294  0.6228 -0.9417  0.4052
23366SOL    HW282158   1.582   5.232   2.359  0.3473  0.3303  0.6948
23367SOL     OW82159   9.081   2.807   3.159  0.2393 -0.0469  0.1062
23367SOL    HW182160   9.135   2.838   3.238  1.7007 -0.7455 -0.5956
23367SOL    HW282161   9.052   2.887   3.106  0.9802  0.3256  0.2435
23368SOL     OW82162   8.189   3.257   6.491  0.1809 -0.2865 -0.1883
23368SOL    HW182163   8.196   3.229   6.587  2.4785 -1.0961 -0.5796
23368SOL    HW282164   8.113   3.322   6.481  0.1765  0.1235  2.2449
23369SOL     OW82165   7.493   2.863   5.524  0.1756 -0.4768  0.9316
23369SOL    HW182166   7.440   2.895   5.445 -0.0567 -0.8866  0.9215
23369SOL    HW282167   7.434   2.810   5.584  0.5001 -0.6656  1.0815
23370SOL     OW82168   9.552   4.167   8.344  0.3918  0.3789  0.3303
23370SOL    HW182169   9.550   4.229   8.266 -1.6033  0.8325  0.7318
23370SOL    HW282170   9.490   4.200   8.416  1.7117 -0.3705  1.8549
23371SOL     OW82171   9.921   9.352   4.483  0.5153  0.5821 -0.3433
23371SOL    HW182172  10.002   9.408   4.468  1.2395 -0.3751 -0.0888
23371SOL    HW282173   9.943   9.278   4.547 -0.9024  1.0680  0.7456
23372SOL     OW82174   1.139   4.611   4.370 -0.4760  0.2247 -0.2054
23372SOL    HW182175   1.200   4.638   4.296 -0.4805 -0.4034 -0.4474
23372SOL    HW282176   1.192   4.567   4.443 -0.5766  0.1144 -0.1987
23373SOL     OW82177   4.477   0.110   3.066 -0.5886  0.5089  0.0839
23373SOL    HW182178   4.510   0.035   3.009 -0.5867  0.2357  0.4433
23373SOL    HW282179   4.382   0.131   3.042 -0.8956 -0.2400  0.6265
23374SOL     OW82180   3.798   4.681   1.282  0.2087 -0.6261 -0.6366
23374SOL    HW182181   3.853   4.695   1.364 -1.2275  0.0307  0.2387
23374SOL    HW282182   3.823   4.750   1.213  0.4794 -0.3242 -0.2407
23375SOL     OW82183   1.456   2.739   7.540  0.1029  0.6267 -0.3999
23375SOL    HW182184   1.400   2.730   7.457 -1.1156  0.4802  0.4339
23375SOL    HW282185   1.550   2.761   7.513  0.0941 -1.0233 -1.8929
23376SOL     OW82186   6.088   0.027   2.275  0.1695 -0.0096  0.0863
23376SOL    HW182187   5.993  -0.002   2.289 -0.3412  0.2225 -2.5213
23376SOL    HW282188   6.092   0.127   2.275  0.5499 -0.0225  0.9520
23377SOL     OW82189   3.828   4.075   2.500  0.0889  0.5044 -0.1065
23377SOL    HW182190   3.908   4.040   2.451 -0.7446 -0.6694 -0.6247
23377SOL    HW282191   3.798   4.008   2.567 -1.3452  0.3332 -0.9140
23378SOL     OW82192   6.243   3.341   0.186  0.5414  0.2421  0.1954
23378SOL    HW182193   6.192   3.389   0.114 -0.3774  0.0271  0.6853
23378SOL    HW282194   6.303   3.405   0.233  1.0389  0.4148 -0.6683
23379SOL     OW82195   6.055   0.108   0.041 -0.2466  0.3844 -0.6662
23379SOL    HW182196   5.979   0.116   0.105 -1.0048  3.0156 -1.8236
23379SOL    HW282197   6.100   0.019   0.053 -1.5770  0.0377  2.1335
23380SOL     OW82198   7.079   2.124   3.866  0.7516 -0.3211  0.0980
23380SOL    HW182199   7.050   2.030   3.852 -0.5269  0.2605 -1.3862
23380SOL    HW282200   7.137   2.153   3.790  0.2471  0.4010 -0.0284
23381SOL     OW82201   1.968   9.304   6.620 -0.0898  0.3203  0.0182
23381SOL    HW182202   1.909   9.237   6.663  0.4726  0.3055  0.7828
23381SOL    HW282203   1.970   9.387   6.675 -1.8206  1.4786 -1.5920
23382SOL     OW82204   1.024   8.890   5.681  0.1196 -0.0883  1.1113
23382SOL    HW182205   0.931   8.879   5.646 -0.2550 -0.3670  2.1858
23382SOL    HW282206   1.025   8.960   5.753  1.4018  2.6672 -1.4627
23383SOL     OW82207   1.914   2.767   2.923 -0.5388  0.2034  0.4461
23383SOL    HW182208   1.859   2.745   3.004  0.5929 -1.3528  0.8076
23383SOL    HW282209   1.925   2.686   2.867 -0.4415  1.0371 -0.7688
23384SOL     OW82210   6.058   4.904   0.575 -0.1647  0.3393  0.1938
23384SOL    HW182211   5.980   4.960   0.604 -0.8162 -0.7111  0.5019
23384SOL    HW282212   6.035   4.807   0.586  1.1634  0.0224  0.2265
23385SOL     OW82213   9.638   5.093   3.764  0.1932 -0.5435 -0.1335
23385SOL    HW182214   9.538   5.091   3.751  0.1335 -0.3627  0.2765
23385SOL    HW282215   9.662   5.173   3.820  0.6392 -0.1707 -0.8508
23386SOL     OW82216   9.428   1.226   3.203  0.7218 -0.0774 -0.4068
23386SOL    HW182217   9.380   1.167   3.138  0.3381  1.5643 -1.6170
23386SOL    HW282218   9.367   1.249   3.279  0.6796 -0.7287 -0.2389
23387SOL     OW82219   6.526   0.604   3.031  0.0312  0.0075 -0.5673
23387SOL    HW182220   6.470   0.653   2.964 -0.1499 -0.8774 -1.0639
23387SOL    HW282221   6.468   0.549   3.090  0.4187 -1.3094 -1.4080
23388SOL     OW82222   2.558   6.105   3.349  0.1815 -0.2475  0.0855
23388SOL    HW182223   2.506   6.177   3.304 -0.3017  0.7647  2.1958
23388SOL    HW282224   2.638   6.081   3.294 -0.0462  1.4027 -0.9712
23389SOL     OW82225   6.726   0.488   6.143  0.5281  0.4051  0.2307
23389SOL    HW182226   6.664   0.503   6.066  0.7381  0.8901  0.1508
23389SOL    HW282227   6.723   0.392   6.171 -1.1902  0.6932  1.0397
23390SOL     OW82228   6.345   4.794   7.197 -0.5911 -0.1710  0.8346
23390SOL    HW182229   6.406   4.716   7.184 -0.7650 -0.0639 -0.7452
23390SOL    HW282230   6.330   4.808   7.295 -0.0442 -1.7126  1.1667
23391SOL     OW82231   6.800   2.931   4.189 -0.0408 -0.0167 -0.3317
23391SOL    HW182232   6.767   2.842   4.161  1.2684 -0.3899 -0.7249
23391SOL    HW282233   6.894   2.923   4.224  0.3093  1.2813 -0.9228
23392SOL     OW82234   5.773   3.015   8.636  0.0831 -0.3114  0.2730
23392SOL    HW182235   5.866   3.044   8.656  0.1125 -0.6923  0.7007
23392SOL    HW282236   5.768   2.915   8.636 -0.2521 -0.2981 -0.0820
23393SOL     OW82237   8.039   8.511   6.601 -0.1305 -0.3037 -0.5942
23393SOL    HW182238   8.128   8.503   6.557 -0.2153 -1.6222 -0.5338
23393SOL    HW282239   7.972   8.455   6.552 -0.7707  0.1180 -0.2140
23394SOL     OW82240   4.716   9.694   2.947  0.6820 -0.8702  0.4367
23394SOL    HW182241   4.804   9.689   2.993 -0.0839 -1.4968  1.8600
23394SOL    HW282242   4.698   9.788   2.918  2.7812 -1.1132 -1.8270
23395SOL     OW82243   9.520   5.351   5.419 -0.6902  0.1601 -0.1690
23395SOL    HW182244   9.614   5.331   5.446  0.5059  4.0666 -1.1614
23395SOL    HW282245   9.475   5.406   5.490 -0.9857  1.4145 -1.3006
23396SOL     OW82246   5.222   1.980   0.362 -0.2659 -0.1997 -0.2889
23396SOL    HW182247   5.281   1.900   0.373 -0.9254 -0.7724 -0.9323
23396SOL    HW282248   5.133   1.962   0.403 -0.3488  0.2838 -0.2580
23397SOL     OW82249   8.278   2.791   2.736 -0.0875  0.0408 -0.0682
23397SOL    HW182250   8.363   2.842   2.750  0.3711 -0.9243  0.6614
23397SOL    HW282251   8.209   2.852   2.697  1.1110  0.6820 -1.2178
23398SOL     OW82252   5.245   4.570   7.065  0.0742  0.2077  0.0127
23398SOL    HW182253   5.160   4.622   7.064 -0.3762 -0.4606  1.8484
23398SOL    HW282254   5.307   4.608   7.134  0.3203 -0.7734  0.3368
23399SOL     OW82255   3.318   4.031   9.798  0.0641 -0.2218 -0.0554
23399SOL    HW182256   3.416   4.012   9.795  0.4112  1.3502  0.9338
23399SOL    HW282257   3.284   4.048   9.706  1.0338  0.7344 -0.2482
23400SOL     OW82258   9.430   2.432   4.325 -0.3571 -0.4800 -0.3281
23400SOL    HW182259   9.366   2.508   4.338  1.3214  0.8373  0.3936
23400SOL    HW282260   9.467   2.435   4.232  2.8613  2.1216  0.9656
23401SOL     OW82261   6.990   7.509   2.813 -0.8240 -0.1398  0.1208
23401SOL    HW182262   7.087   7.528   2.821 -0.7395  0.1053 -1.3657
23401SOL    HW282263   6.977   7.422   2.764 -1.3654  0.2264 -0.3881
23402SOL     OW82264   8.285   3.353   9.923 -0.0172 -0.0706 -0.6191
23402SOL    HW182265   8.257   3.274   9.979  1.2853  0.3882  0.7209
23402SOL    HW282266   8.356   3.403   9.971  1.2794  0.2315 -2.8032
23403SOL     OW82267   6.319   2.385   3.842 -0.3158  0.1845 -0.3089
23403SOL    HW182268   6.356   2.477   3.857  0.6466 -0.0990 -0.9202
23403SOL    HW282269   6.344   2.353   3.751 -1.4278 -0.3287 -0.4454
23404SOL     OW82270   8.732   2.861   5.438 -0.1963  0.5754  0.4555
23404SOL    HW182271   8.677   2.940   5.408  1.5825  2.2854  1.6110
23404SOL    HW282272   8.675   2.800   5.493 -1.8472  0.5471 -1.2095
23405SOL     OW82273   9.924   5.360   8.265 -0.0583  0.0220 -0.1455
23405SOL    HW182274   9.933   5.406   8.177 -0.7010  0.3747 -0.0344
23405SOL    HW282275   9.830   5.329   8.277  0.5434 -1.9807 -0.5231
23406SOL     OW82276   3.367   5.788   9.972 -0.4008 -0.4011  0.0199
23406SOL    HW182277   3.327   5.861  10.028 -1.7829 -1.2452  0.1456
23406SOL    HW282278   3.454   5.759  10.012  1.4660  2.9254 -1.4110
23407SOL     OW82279   6.788   0.795   7.128  0.8074 -0.1203 -0.3884
23407SOL    HW182280   6.767   0.698   7.119 -2.5604  0.0076  4.3104
23407SOL    HW282281   6.732   0.847   7.063  0.9774 -1.1639 -1.3856
23408SOL     OW82282   0.153   0.890   4.413  0.0839 -0.4384  0.0057
23408SOL    HW182283   0.172   0.970   4.470 -0.4062 -0.7684  0.6508
23408SOL    HW282284   0.097   0.916   4.335 -0.2113 -0.1847  0.3049
23409SOL     OW82285   7.942   3.672   8.151  0.1201 -0.3916 -0.2072
23409SOL    HW182286   8.005   3.600   8.181 -0.7624 -1.6614 -1.3478
23409SOL    HW282287   7.855   3.663   8.200  0.2638  0.3787  0.1985
23410SOL     OW82288   7.697   4.655   4.359 -0.0681  0.1152 -0.3703
23410SOL    HW182289   7.713   4.663   4.458 -0.1240 -1.2235 -0.2385
23410SOL    HW282290   7.693   4.558   4.334  0.6361  0.4430 -1.8066
23411SOL     OW82291   3.675   8.089   8.352  0.1365  0.5509 -0.7116
23411SOL    HW182292   3.763   8.105   8.396 -0.2856  0.6273  0.1309
23411SOL    HW282293   3.651   7.992   8.361 -0.8335  0.9112  0.9517
23412SOL     OW82294   5.210   3.971   5.356 -0.3188  0.2939  0.2370
23412SOL    HW182295   5.193   4.044   5.421  0.3617  0.7071 -0.0386
23412SOL    HW282296   5.231   3.886   5.405 -0.3410  0.4757  0.5589
23413SOL     OW82297   5.333   7.994   3.743 -0.2282  0.3412 -0.3084
23413SOL    HW182298   5.309   8.082   3.702  1.0282  0.8699  0.0388
23413SOL    HW282299   5.252   7.952   3.784 -0.8530  1.2981 -0.5592
23414SOL     OW82300   6.555   2.482   9.074  0.4841  0.3239  0.0043
23414SOL    HW182301   6.552   2.513   9.169  0.8169 -1.6276  0.6888
23414SOL    HW282302   6.650   2.476   9.044  0.4946 -1.1986  0.3040
23415SOL     OW82303   7.485   2.505   5.041  0.3247  0.1613 -0.2833
23415SOL    HW182304   7.530   2.499   5.130  1.2820  1.9717 -0.6157
23415SOL    HW282305   7.416   2.577   5.044 -0.6407 -0.7405 -0.5987
23416SOL     OW82306   7.821   2.356   1.406  0.3573  0.2252 -0.4180
23416SOL    HW182307   7.902   2.404   1.438  0.6907 -0.8892  0.4521
23416SOL    HW282308   7.745   2.372   1.470  0.3411 -0.0403 -0.3712
23417SOL     OW82309   2.447   5.453   5.433  0.0537  0.1751 -0.0747
23417SOL    HW182310   2.423   5.370   5.382 -1.1955 -0.7699  2.0193
23417SOL    HW282311   2.533   5.439   5.481 -0.5604 -0.1986  0.9218
23418SOL     OW82312   8.845   6.314   2.752 -0.1627 -0.2767  0.3797
23418SOL    HW182313   8.929   6.283   2.797 -0.3991 -1.3443  0.0983
23418SOL    HW282314   8.825   6.408   2.779  0.2754 -0.5533  1.6635
23419SOL     OW82315   1.178   7.426   7.113  0.1194 -0.1765 -0.6664
23419SOL    HW182316   1.265   7.437   7.162  0.0780  0.1239 -0.6610
23419SOL    HW282317   1.156   7.510   7.064 -0.0170 -0.3570 -0.9182
23420SOL     OW82318   0.809   3.766   3.619 -0.2714 -0.0819  0.5206
23420SOL    HW182319   0.859   3.849   3.592  0.4542 -0.6021  0.2555
23420SOL    HW282320   0.867   3.686   3.606 -1.0793 -0.6696  0.4761
23421SOL     OW82321   1.593   1.434   6.391 -0.3300 -0.1611  0.0945
23421SOL    HW182322   1.657   1.359   6.376 -0.5590 -0.2876 -0.2618
23421SOL    HW282323   1.638   1.521   6.366 -0.1199 -0.1955  0.3548
23422SOL     OW82324   6.298   4.211   0.221 -0.0225 -0.3698 -0.2555
23422SOL    HW182325   6.360   4.175   0.290 -0.4824 -1.7900 -0.5621
23422SOL    HW282326   6.348   4.225   0.135  0.0179 -0.8689 -0.3122
23423SOL     OW82327   5.671   5.591   0.804 -0.8663 -0.4433  0.9538
23423SOL    HW182328   5.729   5.636   0.871 -0.6229  0.3343  0.2349
23423SOL    HW282329   5.576   5.617   0.819 -0.4400  2.6502 -1.2124
23424SOL     OW82330   3.581   1.981   5.991  0.0161 -0.4734 -0.0593
23424SOL    HW182331   3.551   1.927   5.912 -0.2414 -1.1885  0.5229
23424SOL    HW282332   3.675   2.010   5.977 -0.6431  1.0814 -1.5309
23425SOL     OW82333   6.921   1.033   4.520 -0.0449  0.1352  0.1875
23425SOL    HW182334   6.831   1.001   4.550  0.4034 -0.3511  1.0508
23425SOL    HW282335   6.941   0.997   4.429  0.1289 -1.4607  0.8315
23426SOL     OW82336   6.646   8.734   1.409 -0.8410 -0.4838 -0.3308
23426SOL    HW182337   6.548   8.736   1.431 -0.7364  0.7926  0.0662
23426SOL    HW282338   6.681   8.828   1.405  0.2284 -0.9097 -1.1200
23427SOL     OW82339   7.159   0.570   4.190  0.5574  0.0046 -0.1523
23427SOL    HW182340   7.105   0.585   4.274  0.0943  0.0971 -0.4643
23427SOL    HW282341   7.183   0.473   4.183  2.5483  0.3548  1.2603
23428SOL     OW82342   8.609   5.995   3.365  0.6334  0.5764  0.4493
23428SOL    HW182343   8.602   5.895   3.366 -1.4130  0.6893 -0.4752
23428SOL    HW282344   8.691   6.022   3.315  0.4012 -0.6147 -0.6040
23429SOL     OW82345   7.072   8.021   6.378 -0.3719  0.3755 -0.2874
23429SOL    HW182346   6.983   8.009   6.332 -1.6692  1.0760  1.9875
23429SOL    HW282347   7.116   8.104   6.344 -0.5566  0.0110 -1.4467
23430SOL     OW82348   6.279   5.179   6.455 -0.2093  0.1660 -0.2347
23430SOL    HW182349   6.303   5.154   6.361 -0.5606  0.8695 -0.5146
23430SOL    HW282350   6.328   5.120   6.519 -0.4614 -0.7550 -0.8741
23431SOL     OW82351   7.260   3.868   3.608 -0.8455 -0.1532 -0.6324
23431SOL    HW182352   7.228   3.789   3.555  0.0421 -3.0619  2.9252
23431SOL    HW282353   7.348   3.898   3.572  0.4539 -3.0029 -0.0307
23432SOL     OW82354   6.569   3.367   2.174  0.7102 -0.1186 -0.3530
23432SOL    HW182355   6.517   3.315   2.241 -1.1589  0.2837 -1.4479
23432SOL    HW282356   6.577   3.462   2.204  1.3985 -0.3322  0.1396
23433SOL     OW82357   1.345   6.376   3.380  0.5085 -0.0801 -0.0898
23433SOL    HW182358   1.300   6.290   3.403  3.5087 -2.1873 -1.6887
23433SOL    HW282359   1.382   6.370   3.287 -1.5543  3.9830 -1.2912
23434SOL     OW82360   6.795   5.928   8.499  0.5530 -0.3703 -0.6198
23434SOL    HW182361   6.698   5.932   8.475 -0.9323 -0.5312  4.5965
23434SOL    HW282362   6.832   6.021   8.504  0.7021 -0.3101 -2.6309
23435SOL     OW82363   8.587   3.555   9.564 -0.2369 -0.0785 -0.4034
23435SOL    HW182364   8.597   3.474   9.506  1.8589 -0.1888  0.0428
23435SOL    HW282365   8.642   3.543   9.647 -2.3655  0.5012  1.1487
23436SOL     OW82366   0.824   5.342   3.303  0.3316 -0.2207  0.2609
23436SOL    HW182367   0.872   5.254   3.296 -1.2106 -1.1289  0.8815
23436SOL    HW282368   0.767   5.355   3.222  2.8269  1.6184 -1.2600
23437SOL     OW82369   9.946   1.648   4.355  0.1360 -0.1624 -0.3558
23437SOL    HW182370  10.039   1.653   4.319  0.5821 -0.1051  0.7875
23437SOL    HW282371   9.903   1.738   4.350 -0.1545 -0.3529 -1.6181
23438SOL     OW82372   4.764   2.972   8.781 -0.8217 -0.7403 -0.6048
23438SOL    HW182373   4.748   3.067   8.807  0.5703 -0.4423 -0.8223
23438SOL    HW282374   4.857   2.945   8.806 -0.3688 -1.2901 -2.7646
23439SOL     OW82375   6.566   5.504   0.830 -0.1111  0.2431  0.1001
23439SOL    HW182376   6.527   5.542   0.746 -0.8907 -1.7123 -0.4513
23439SOL    HW282377   6.579   5.406   0.819 -0.4164 -0.0807  2.3527
23440SOL     OW82378   7.906   6.927   6.431  0.0370 -0.4064  0.2136
23440SOL    HW182379   7.928   6.959   6.523  1.8535 -0.7629 -0.0627
23440SOL    HW282380   7.862   6.837   6.437  2.1914 -1.4849  0.6916
23441SOL     OW82381   8.859   3.669   2.404  0.1684 -0.0333  0.9262
23441SOL    HW182382   8.782   3.688   2.343  0.7380 -0.2718  0.1170
23441SOL    HW282383   8.909   3.753   2.422  1.5398 -0.3726 -1.0775
23442SOL     OW82384   6.035   5.210   3.573  0.9793  0.4725 -0.0260
23442SOL    HW182385   6.057   5.126   3.623 -0.0777  0.6354  0.7056
23442SOL    HW282386   5.946   5.201   3.529  1.3071  0.8381 -0.7838
23443SOL     OW82387   8.219   7.944   2.993 -0.4681 -0.0594 -0.4916
23443SOL    HW182388   8.137   7.972   3.043 -0.8196 -0.8361 -0.6331
23443SOL    HW282389   8.277   7.889   3.053  1.1115  2.4858  0.3789
23444SOL     OW82390   0.508   5.567   1.324 -0.2959 -0.1272  0.2493
23444SOL    HW182391   0.525   5.582   1.421 -0.9899  0.5386  0.2743
23444SOL    HW282392   0.482   5.472   1.309 -1.8221  0.1576  0.9569
23445SOL     OW82393   9.106   1.769   1.476 -0.0972  0.3661  0.3542
23445SOL    HW182394   9.150   1.842   1.529  2.7911 -0.5855 -0.6845
23445SOL    HW282395   9.087   1.691   1.536  2.6235 -0.4778  0.1803
23446SOL     OW82396   3.714   7.268   9.557 -0.3246 -0.0371  0.1027
23446SOL    HW182397   3.765   7.242   9.475  1.0392 -0.6953  1.1272
23446SOL    HW282398   3.683   7.186   9.604  0.3155  0.2809  1.1016
23447SOL     OW82399   2.986   4.178   6.857  0.0087 -0.2260  0.0563
23447SOL    HW182400   2.899   4.133   6.836  1.8532 -3.2921 -1.4476
23447SOL    HW282401   2.990   4.197   6.955 -2.3777  0.0133  0.1392
23448SOL     OW82402   9.652   0.477   5.585  0.6121  0.7415  0.5460
23448SOL    HW182403   9.633   0.525   5.500  0.3069  0.0692  0.2297
23448SOL    HW282404   9.708   0.396   5.567 -1.2350 -0.6063  0.6766
23449SOL     OW82405   4.641   4.999   5.592 -0.5355  0.3432  0.1604
23449SOL    HW182406   4.633   4.946   5.676 -0.0351  0.5148  0.3166
23449SOL    HW282407   4.651   4.937   5.514  2.6833  0.2178  0.6070
23450SOL     OW82408   3.214   0.127   0.588 -0.3540  0.1540 -0.0920
23450SOL    HW182409   3.273   0.158   0.513  0.7972 -4.3175 -1.2148
23450SOL    HW282410   3.220   0.191   0.664  2.6420  2.0537 -1.8256
23451SOL     OW82411   8.888   1.073   6.749 -0.2645  0.5786  0.1386
23451SOL    HW182412   8.802   1.070   6.699 -0.5674 -2.4270  0.7248
23451SOL    HW282413   8.870   1.070   6.848  0.4782  0.7190  0.2851
23452SOL     OW82414   3.269   4.307   6.916 -0.2271  0.0681  0.0096
23452SOL    HW182415   3.180   4.272   6.887 -0.7755  1.6939 -0.3197
23452SOL    HW282416   3.333   4.301   6.839 -0.5720  0.6101 -0.3288
23453SOL     OW82417   9.281   2.353   5.903  0.0954 -0.5601  0.0474
23453SOL    HW182418   9.296   2.287   5.830 -0.5567 -0.7023  0.0370
23453SOL    HW282419   9.233   2.308   5.979 -0.2640 -0.1268  0.0793
23454SOL     OW82420   3.357   4.273   4.614  0.2093  0.4552 -0.4012
23454SOL    HW182421   3.307   4.280   4.528  1.4083  0.6766 -1.1002
23454SOL    HW282422   3.416   4.192   4.611  0.3039  0.5023  0.1841
23455SOL     OW82423   9.200   1.904   5.677  0.1632  0.3302 -0.6137
23455SOL    HW182424   9.142   1.907   5.596 -0.8706  0.2187  0.0988
23455SOL    HW282425   9.144   1.880   5.757  1.0953  0.7442  0.1823
23456SOL     OW82426   7.562   4.663   4.095 -0.3789 -0.3426  0.2015
23456SOL    HW182427   7.607   4.661   4.184 -0.0499 -0.9745  0.0254
23456SOL    HW282428   7.503   4.582   4.086  0.1289 -0.6427 -0.4339
23457SOL     OW82429   7.194   7.054   4.611  0.7610  0.3329  0.0337
23457SOL    HW182430   7.231   7.097   4.693 -0.0073  0.1682  0.4742
23457SOL    HW282431   7.166   7.125   4.546 -0.6333  0.5156  0.8186
23458SOL     OW82432   9.302   6.813   4.263  0.6230 -0.5975  0.0157
23458SOL    HW182433   9.251   6.817   4.349  0.9462  2.6370  0.1213
23458SOL    HW282434   9.245   6.772   4.192 -1.8847  2.1062  0.3522
23459SOL     OW82435   8.283   4.916   7.781 -0.4401  0.2697  0.0973
23459SOL    HW182436   8.278   4.816   7.778  0.4430  0.2468 -1.2459
23459SOL    HW282437   8.376   4.945   7.755 -1.1684  1.4870 -1.2052
23460SOL     OW82438   9.239   7.567   4.965 -0.4003  0.6159  0.0544
23460SOL    HW182439   9.289   7.600   5.045  0.2004 -0.1613  0.0128
23460SOL    HW282440   9.295   7.499   4.917 -0.6992  1.1677 -1.0934
23461SOL     OW82441   5.616   2.698   3.789 -0.5193 -0.0412 -0.0615
23461SOL    HW182442   5.632   2.659   3.880  1.8630  0.7712 -0.0765
23461SOL    HW282443   5.625   2.797   3.794 -0.7185  0.0340 -1.1298
23462SOL     OW82444   2.592   2.777   4.743 -0.2350  0.2558  0.2420
23462SOL    HW182445   2.676   2.831   4.743 -0.3031  0.3694  2.1518
23462SOL    HW282446   2.567   2.755   4.648  1.2515  1.2775 -0.4041
23463SOL     OW82447   5.224   4.584   4.710 -0.2470  0.4805  0.4233
23463SOL    HW182448   5.318   4.575   4.676 -0.9984 -0.3208 -1.5283
23463SOL    HW282449   5.214   4.673   4.755  0.7274  1.7757 -1.7954
23464SOL     OW82450   2.147   3.039   7.330 -0.1466  0.3466  0.3893
23464SOL    HW182451   2.215   2.977   7.290 -0.9509 -0.0824 -0.2957
23464SOL    HW282452   2.094   3.082   7.258  0.3887  1.8188  0.8691
23465SOL     OW82453   2.489   0.825   0.472 -0.5957 -0.0511 -0.2405
23465SOL    HW182454   2.515   0.756   0.540 -0.6598 -0.8211 -0.9817
23465SOL    HW282455   2.462   0.779   0.388  1.2788  0.9568 -1.4172
23466SOL     OW82456   5.976   3.864   9.981  0.2944  0.0037  0.0136
23466SOL    HW182457   5.910   3.857  10.057 -0.7661  1.0479 -0.7865
23466SOL    HW282458   5.937   3.923   9.910  1.0475 -1.4329 -1.5877
23467SOL     OW82459   4.144   9.023   1.996  0.1263  0.1605  0.6931
23467SOL    HW182460   4.048   8.998   2.008  0.5429 -1.9933 -0.3744
23467SOL    HW282461   4.149   9.114   1.955 -1.4346  0.4854  1.1615
23468SOL     OW82462   8.325   9.123   7.030 -0.5557  0.4010 -0.5048
23468SOL    HW182463   8.235   9.165   7.022 -0.6192  0.1352 -1.2129
23468SOL    HW282464   8.364   9.145   7.119 -1.4669  0.2191 -0.0640
23469SOL     OW82465   2.168   6.177   7.613  0.3269  0.3281 -0.0086
23469SOL    HW182466   2.102   6.252   7.626 -1.0012 -0.7637 -0.3798
23469SOL    HW282467   2.121   6.098   7.574  1.4560 -1.1211  1.5118
23470SOL     OW82468   5.892   3.290   3.848  0.0241 -0.1130  0.2334
23470SOL    HW182469   5.799   3.327   3.848  0.3951  0.8159 -0.5355
23470SOL    HW282470   5.919   3.270   3.942 -1.2215 -1.0930  0.4092
23471SOL     OW82471   5.869   1.535   3.787  0.2221  0.0503  0.6538
23471SOL    HW182472   5.857   1.552   3.689  0.7418 -1.0446  0.3855
23471SOL    HW282473   5.966   1.536   3.809  0.0331  1.6703  1.4311
23472SOL     OW82474   9.127   4.923   5.780  0.2510  0.7169 -0.1589
23472SOL    HW182475   9.081   4.875   5.705  0.1572 -1.5000  1.2541
23472SOL    HW282476   9.150   4.857   5.852  1.2642  2.6255  1.3113
23473SOL     OW82477   0.790   4.816   5.248 -0.5546 -0.4320  0.1172
23473SOL    HW182478   0.725   4.889   5.225 -0.1406 -0.3566 -0.8580
23473SOL    HW282479   0.762   4.731   5.204 -0.1971 -0.4862 -0.0088
23474SOL     OW82480   3.685   6.280   1.309  0.2022 -0.0338 -0.4841
23474SOL    HW182481   3.672   6.257   1.405 -0.0108 -0.6025 -0.6461
23474SOL    HW282482   3.689   6.196   1.255  0.3391  0.2823 -0.9678
23475SOL     OW82483   7.585   7.219   2.340  0.3902 -0.4853  0.4693
23475SOL    HW182484   7.560   7.260   2.427 -0.1805 -0.4377  0.2824
23475SOL    HW282485   7.526   7.140   2.321  0.3860 -0.3818  0.0413
23476SOL     OW82486   9.445   4.233   4.622 -0.4871  0.1895 -0.1976
23476SOL    HW182487   9.448   4.139   4.589  1.0092  1.5096 -4.1607
23476SOL    HW282488   9.353   4.270   4.611 -0.9269 -0.5945  0.7850
23477SOL     OW82489   6.484   1.328   8.117 -0.4016  0.0116 -0.1915
23477SOL    HW182490   6.401   1.323   8.061 -0.3444  0.5715 -0.3302
23477SOL    HW282491   6.559   1.282   8.069 -1.3074 -3.0356  1.1901
23478SOL     OW82492   8.622   0.180   4.891  0.1077 -0.0713 -0.2179
23478SOL    HW182493   8.720   0.165   4.904  0.1628  0.4285 -0.0253
23478SOL    HW282494   8.571   0.126   4.958  0.3201  0.9615  0.8102
23479SOL     OW82495   7.580   5.930   5.247 -0.3572 -0.0181 -0.0343
23479SOL    HW182496   7.578   6.011   5.190  0.3196  0.4776  0.6366
23479SOL    HW282497   7.487   5.906   5.276 -0.3480  1.8186  1.5897
23480SOL     OW82498   9.938   3.710   2.050 -0.2093 -0.4497 -0.3818
23480SOL    HW182499   9.957   3.682   1.956 -0.4733  0.8336 -0.8360
23480SOL    HW282500  10.018   3.692   2.107  0.1865 -0.6442 -0.9919
23481SOL     OW82501   8.226   3.356   8.583 -0.1065 -0.6845 -0.4122
23481SOL    HW182502   8.275   3.424   8.638 -0.8384 -0.2967 -0.2344
23481SOL    HW282503   8.127   3.369   8.594 -0.2590 -0.8707 -1.4830
23482SOL     OW82504   5.179   1.736   1.987 -0.2022  0.7237 -0.1648
23482SOL    HW182505   5.231   1.783   1.916 -0.4546  1.0633 -0.1276
23482SOL    HW282506   5.206   1.640   1.991  0.4433  0.9038 -0.1243
23483SOL     OW82507   7.552   4.652   3.107 -0.3247  0.0241  0.1395
23483SOL    HW182508   7.523   4.693   3.193  0.0091  0.9882 -0.2068
23483SOL    HW282509   7.651   4.659   3.098 -0.5202  1.5533 -1.1433
23484SOL     OW82510   7.982   0.698   3.575  0.1950  0.6833  0.1327
23484SOL    HW182511   7.884   0.681   3.588  0.0372  1.4789 -0.0286
23484SOL    HW282512   8.003   0.699   3.477 -0.2888  4.1155  0.0020
23485SOL     OW82513   9.907   9.884   3.301  0.0128  0.5859  0.5793
23485SOL    HW182514   9.903   9.851   3.396  0.7750 -3.2358 -0.6374
23485SOL    HW282515  10.002   9.897   3.274 -0.2075  1.7237  0.3130
23486SOL     OW82516   6.535   5.101   7.099  0.1449 -0.4774  0.2888
23486SOL    HW182517   6.476   5.098   7.180  0.2052  0.3695  0.3653
23486SOL    HW282518   6.504   5.032   7.033 -0.5373 -0.4759  0.6036
23487SOL     OW82519   1.816   4.309   0.811 -0.1266  0.5423  0.4621
23487SOL    HW182520   1.870   4.377   0.762 -0.9938 -0.2419 -1.6245
23487SOL    HW282521   1.858   4.291   0.900  1.6724  1.7063 -0.1345
23488SOL     OW82522   0.862   3.481   9.573 -0.3637 -0.4572  0.1580
23488SOL    HW182523   0.878   3.447   9.480  0.1897 -1.9143  0.7729
23488SOL    HW282524   0.923   3.434   9.637  1.4031  2.6891  0.8727
23489SOL     OW82525   6.656   5.601   5.752 -0.2295  0.4572 -0.4669
23489SOL    HW182526   6.663   5.646   5.664 -0.5312 -0.2056 -0.8333
23489SOL    HW282527   6.711   5.517   5.752  1.6947  1.6737  0.7702
23490SOL     OW82528   8.285   2.282   6.496 -0.1702  0.4033 -0.2635
23490SOL    HW182529   8.285   2.376   6.460  2.7176  0.3495 -0.5127
23490SOL    HW282530   8.264   2.218   6.422  1.8282  0.5799 -1.0113
23491SOL     OW82531   0.963   5.458   5.981 -0.1722  0.1490 -0.4842
23491SOL    HW182532   1.053   5.492   5.955  0.2723  0.6999  1.7029
23491SOL    HW282533   0.955   5.458   6.081 -2.2450 -0.7978 -0.6361
23492SOL     OW82534   0.695   2.027   2.964  0.4058  0.1534  1.1368
23492SOL    HW182535   0.648   2.010   2.878  0.4584  0.6764  1.0046
23492SOL    HW282536   0.793   2.040   2.946  0.8723 -2.4929  1.5727
23493SOL     OW82537   5.630   1.476   9.519 -0.2231  0.4303 -0.0412
23493SOL    HW182538   5.613   1.473   9.420 -0.6984  0.9602  0.0206
23493SOL    HW282539   5.627   1.571   9.550 -3.1778  0.0613  1.0071
23494SOL     OW82540   8.459   2.513   8.722  0.0742  0.0145 -0.0706
23494SOL    HW182541   8.423   2.502   8.815 -1.4555 -0.1860 -0.6689
23494SOL    HW282542   8.538   2.574   8.724  0.7172 -0.8276  1.5090
23495SOL     OW82543   7.253   6.340   9.921  0.1711 -0.3638  0.2191
23495SOL    HW182544   7.287   6.246   9.919  2.2909  0.3527  0.9799
23495SOL    HW282545   7.230   6.365  10.015  1.9023  0.6525  0.3824
23496SOL     OW82546   3.075   8.956   5.157 -0.3251 -0.2728  0.2508
23496SOL    HW182547   3.083   8.857   5.167 -1.5267 -0.3016  1.1202
23496SOL    HW282548   2.995   8.978   5.101  0.9208  0.1686 -1.3721
23497SOL     OW82549   1.882   9.807   4.878  0.2004  0.4920  0.0217
23497SOL    HW182550   1.863   9.716   4.915  1.9509  0.3348  0.5603
23497SOL    HW282551   1.896   9.800   4.779 -0.5008  0.3110 -0.0679
23498SOL     OW82552   7.967   4.631   1.989  0.1057  0.1710 -0.2811
23498SOL    HW182553   8.043   4.576   1.955  0.4143  0.1019  0.5003
23498SOL    HW282554   7.998   4.725   2.004 -0.3753  0.5205 -1.4531
23499SOL     OW82555   8.412   5.261   5.342  0.1071  0.4382 -0.4602
23499SOL    HW182556   8.335   5.232   5.399 -0.3666 -0.5375 -1.5691
23499SOL    HW282557   8.496   5.258   5.396 -0.1983 -1.2924 -0.0353
23500SOL     OW82558   7.078   6.655   3.616 -0.5639 -0.2225 -0.4602
23500SOL    HW182559   7.146   6.625   3.550  0.3050 -1.9559  1.1764
23500SOL    HW282560   7.110   6.738   3.661 -0.0821 -0.3608 -0.5459
23501SOL     OW82561   2.551   5.681   7.870 -0.5145 -0.1354  0.8096
23501SOL    HW182562   2.577   5.749   7.802  0.1073 -0.5373  0.6365
23501SOL    HW282563   2.576   5.589   7.838 -0.8348 -0.3956  1.2786
23502SOL     OW82564   9.350   5.975   4.336  0.0015  0.2267 -0.3010
23502SOL    HW182565   9.260   5.974   4.378 -0.3066  0.0646 -0.9599
23502SOL    HW282566   9.341   5.986   4.237  0.7297  0.9540 -0.2951
23503SOL     OW82567   5.309   2.341   0.978  0.1654 -0.0489  0.0952
23503SOL    HW182568   5.300   2.253   1.025  0.0790  0.9231  1.9093
23503SOL    HW282569   5.250   2.342   0.897 -2.5056 -0.3569  1.9953
23504SOL     OW82570   3.924   8.741   2.698 -0.5996 -0.3183  0.3757
23504SOL    HW182571   3.925   8.737   2.798 -0.1454 -1.1491  0.3432
23504SOL    HW282572   3.840   8.700   2.664 -0.0325 -1.4917  0.3661
23505SOL     OW82573   3.617   8.474   9.053 -0.0724 -0.6299  0.1247
23505SOL    HW182574   3.543   8.541   9.057 -0.2981 -0.8856  0.2324
23505SOL    HW282575   3.579   8.383   9.036  0.0912 -0.9839  1.6435
23506SOL     OW82576   8.328   0.683   5.627  0.1241 -0.0731  0.1780
23506SOL    HW182577   8.385   0.616   5.580 -0.7738 -1.0361  0.4421
23506SOL    HW282578   8.254   0.713   5.567  0.1393  0.1879  0.2878
23507SOL     OW82579   8.585   3.062   5.308 -0.2958 -0.7085 -0.0515
23507SOL    HW182580   8.485   3.074   5.308 -0.3307 -0.9842 -0.7670
23507SOL    HW282581   8.623   3.100   5.224  0.0850 -1.5696 -0.2754
23508SOL     OW82582   3.791   2.166   6.158 -0.4969  0.3417  0.4786
23508SOL    HW182583   3.702   2.210   6.161 -0.6224  0.1220  0.0221
23508SOL    HW282584   3.783   2.071   6.189  0.0209  1.0423  2.7782
23509SOL     OW82585   5.453   4.743   9.355 -0.8928 -0.2355  0.5725
23509SOL    HW182586   5.550   4.753   9.330 -1.1334 -1.5919 -0.9528
23509SOL    HW282587   5.396   4.793   9.290 -1.2934 -0.2784  0.8870
23510SOL     OW82588   1.194   6.479   8.391 -0.2882 -0.1635  0.1364
23510SOL    HW182589   1.236   6.436   8.311 -1.1503 -2.0723  0.6864
23510SOL    HW282590   1.119   6.538   8.361 -0.4969 -0.7320 -0.4889
23511SOL     OW82591   2.692   2.989   2.828  0.3847 -0.7411  0.0614
23511SOL    HW182592   2.645   3.039   2.900  0.1545 -0.7622 -0.0740
23511SOL    HW282593   2.728   2.903   2.865 -1.0420 -1.4638 -0.2063
23512SOL     OW82594   8.416   0.921   4.272  0.1875  0.1019  0.4498
23512SOL    HW182595   8.339   0.973   4.237 -0.1325  0.1282  1.1730
23512SOL    HW282596   8.437   0.952   4.365 -0.3861 -1.4456  1.1076
23513SOL     OW82597   9.604   4.219   1.590  0.0997  0.0138 -0.3514
23513SOL    HW182598   9.663   4.300   1.592  0.3622 -0.1925  0.6927
23513SOL    HW282599   9.513   4.244   1.558  0.3490  0.6139 -0.5919
23514SOL     OW82600   2.062   7.641   9.492  0.9003  0.1473  0.8333
23514SOL    HW182601   2.132   7.712   9.499  0.4633  0.8302 -1.4805
23514SOL    HW282602   2.052   7.596   9.581  1.9727  2.2148  2.0529
23515SOL     OW82603   2.004   9.799   3.808  0.2484 -0.0088  0.3816
23515SOL    HW182604   1.941   9.772   3.736 -1.6417  0.9538  1.6321
23515SOL    HW282605   2.069   9.866   3.773  1.1287 -1.6278 -1.1334
23516SOL     OW82606   4.300   3.316   1.548  0.2469  0.7478 -0.2684
23516SOL    HW182607   4.377   3.303   1.486 -0.4417  1.2142 -1.2351
23516SOL    HW282608   4.246   3.394   1.517  0.2873  1.4090  1.3244
23517SOL     OW82609   9.195   2.895   4.520  0.5925  0.1489  0.0501
23517SOL    HW182610   9.209   2.910   4.618 -2.8540 -0.5208  0.7059
23517SOL    HW282611   9.254   2.956   4.468  2.4109  0.5689  2.5248
23518SOL     OW82612   3.051   4.287   3.836 -0.2279 -0.2769  0.2357
23518SOL    HW182613   3.048   4.193   3.870  0.2361 -0.6786 -0.8069
23518SOL    HW282614   3.043   4.350   3.913  0.7592 -1.1657  1.0976
23519SOL     OW82615   8.456   4.987   6.836  0.1259  0.3190  1.0186
23519SOL    HW182616   8.407   4.994   6.923  1.8252  1.2176  1.9360
23519SOL    HW282617   8.540   5.042   6.841 -0.3906  1.4131 -1.6316
23520SOL     OW82618   8.838   5.743   4.190 -0.1659 -0.7971  0.3087
23520SOL    HW182619   8.792   5.816   4.240 -0.8422 -0.6082 -0.5743
23520SOL    HW282620   8.816   5.655   4.232 -0.1934 -0.5817  0.7453
23521SOL     OW82621   0.871   2.974   3.875 -0.1024 -0.7585  0.3092
23521SOL    HW182622   0.882   2.967   3.974 -1.0267  0.1429  0.4827
23521SOL    HW282623   0.936   3.041   3.839  0.8828 -1.7641  0.1628
23522SOL     OW82624   5.560   1.505   0.950  0.4518  0.2369  0.2391
23522SOL    HW182625   5.475   1.559   0.956  0.0320 -0.4012  0.0509
23522SOL    HW282626   5.614   1.538   0.873  1.4013  2.0964  1.6670
23523SOL     OW82627   4.778   4.647   2.444  0.0784 -0.5092 -0.0414
23523SOL    HW182628   4.862   4.658   2.391 -0.4235  3.3328 -0.1571
23523SOL    HW282629   4.747   4.736   2.478 -3.2810 -1.9920  1.0767
23524SOL     OW82630   7.691   9.413   9.438 -0.0973  0.1607 -0.5120
23524SOL    HW182631   7.591   9.417   9.430  0.0110  1.3776 -1.4345
23524SOL    HW282632   7.729   9.373   9.355  0.3273  2.2359 -1.3643
23525SOL     OW82633   7.194   4.020   6.316  0.8780 -0.0606  0.0785
23525SOL    HW182634   7.287   4.042   6.346  0.4962 -0.6813  1.7797
23525SOL    HW282635   7.191   3.926   6.282  0.5553 -0.6005  1.5441
23526SOL     OW82636   7.901   8.349   6.122  0.0213 -0.1928 -0.2122
23526SOL    HW182637   7.978   8.352   6.187 -0.8149 -0.3094  0.8052
23526SOL    HW282638   7.935   8.323   6.032  1.0092 -1.4538  0.4892
23527SOL     OW82639   5.880   3.665   2.962 -0.2662  0.0499  0.5122
23527SOL    HW182640   5.850   3.737   3.024 -0.2422 -1.8781  2.8313
23527SOL    HW282641   5.828   3.582   2.979  0.6010 -0.8718 -1.2088
23528SOL     OW82642   9.731   2.845   0.149  0.2942  0.1150  0.1452
23528SOL    HW182643   9.675   2.924   0.173  0.1536  0.3253 -0.8732
23528SOL    HW282644   9.689   2.762   0.186 -0.9328  0.2160 -1.0071
23529SOL     OW82645   1.498   2.911   2.891  0.4531  0.4400 -0.1799
23529SOL    HW182646   1.467   3.006   2.900  1.9196  0.7871  1.4163
23529SOL    HW282647   1.595   2.911   2.865 -0.0472 -0.6298 -2.1198
23530SOL     OW82648   8.633   5.782   4.551  0.4889  0.1787 -0.2259
23530SOL    HW182649   8.707   5.835   4.591 -0.3630 -2.1814  4.9537
23530SOL    HW282650   8.545   5.824   4.574 -0.0023 -0.6360 -0.5696
23531SOL     OW82651   4.052   8.441   6.524  0.0003  0.3404  0.2160
23531SOL    HW182652   4.020   8.361   6.575 -1.3475  0.3317 -0.6267
23531SOL    HW282653   3.990   8.458   6.447  1.4991  0.8833 -0.8886
23532SOL     OW82654   4.720   3.675   1.717 -0.0893  0.1588 -0.5984
23532SOL    HW182655   4.787   3.731   1.767  0.1673 -0.7908  0.1156
23532SOL    HW282656   4.632   3.678   1.764 -0.5947  1.4735 -1.5818
23533SOL     OW82657   5.447   4.614   3.033  0.0976  0.4396 -0.1861
23533SOL    HW182658   5.435   4.557   2.952 -1.6632  0.4286  0.0597
23533SOL    HW282659   5.482   4.559   3.109  0.9430  0.2718 -0.6942
23534SOL     OW82660   6.343   8.826   0.742 -0.4077 -0.0405 -0.6799
23534SOL    HW182661   6.243   8.825   0.729 -0.2713 -1.5959 -1.7341
23534SOL    HW282662   6.383   8.745   0.699  1.3385  0.6420 -0.3830
23535SOL     OW82663   3.023   4.601   3.780 -0.6096  0.0983 -0.1023
23535SOL    HW182664   3.002   4.589   3.877 -1.7392 -0.4964 -0.4076
23535SOL    HW282665   2.948   4.649   3.735 -0.9985 -1.3394 -1.0554
23536SOL     OW82666   2.364   4.478   4.826 -0.3790  0.5214  0.2735
23536SOL    HW182667   2.316   4.565   4.832 -1.2487 -0.0036  1.1779
23536SOL    HW282668   2.446   4.481   4.882  0.4747  1.2983 -0.9846
23537SOL     OW82669   0.463   5.894   6.857  0.2345 -0.1438 -0.7489
23537SOL    HW182670   0.539   5.918   6.917 -0.5670  2.0460 -0.5825
23537SOL    HW282671   0.406   5.824   6.901  0.4835  0.3817  0.4046
23538SOL     OW82672   7.895   2.077   5.535  0.3415  0.8589  0.8122
23538SOL    HW182673   7.969   2.013   5.514  0.7140  1.7419 -0.5786
23538SOL    HW282674   7.808   2.037   5.505  0.4712  0.6631  0.6939
23539SOL     OW82675   2.921   5.429   2.969 -0.0852 -0.0942 -0.0901
23539SOL    HW182676   3.015   5.457   2.987  0.1131 -1.6169  1.2768
23539SOL    HW282677   2.920   5.354   2.903 -0.1643 -1.8081  1.8222
23540SOL     OW82678   2.030   4.864   2.229 -0.2958 -0.1257  0.2013
23540SOL    HW182679   2.086   4.873   2.312 -0.8847 -0.1426  0.6006
23540SOL    HW282680   1.984   4.775   2.230  0.0514 -0.3135 -0.3638
23541SOL     OW82681   8.144   2.906   4.702 -0.4816 -0.2397  0.0375
23541SOL    HW182682   8.220   2.843   4.714  0.5885  1.1065  0.3600
23541SOL    HW282683   8.159   2.961   4.620 -0.1789  1.3238  1.1208
23542SOL     OW82684   1.280   8.925   7.106  0.1436  0.0716 -0.7650
23542SOL    HW182685   1.241   8.981   7.032 -2.6238 -0.7668 -0.0222
23542SOL    HW282686   1.335   8.983   7.166 -0.8901  1.5775 -1.2283
23543SOL     OW82687   9.158   6.508   8.092 -0.2008 -0.9108 -0.4328
23543SOL    HW182688   9.079   6.499   8.153  1.1834 -0.4711  1.4707
23543SOL    HW282689   9.216   6.583   8.123  0.4407 -0.5462 -2.4255
23544SOL     OW82690   0.045   8.476   6.318  0.4268  0.4356 -0.0552
23544SOL    HW182691   0.125   8.490   6.260  1.7467  0.9691  1.8335
23544SOL    HW282692  -0.007   8.562   6.324  0.0656  0.2733 -0.7294
23545SOL     OW82693   9.693   9.668   6.841 -0.1160  0.2591 -0.0827
23545SOL    HW182694   9.620   9.605   6.869 -0.4636  0.9579  0.5946
23545SOL    HW282695   9.780   9.618   6.837 -0.1272  0.0428  1.8649
23546SOL     OW82696   6.273   4.889   5.284  0.1900  0.6563  0.2943
23546SOL    HW182697   6.338   4.959   5.313  1.6221 -0.8248  0.7478
23546SOL    HW282698   6.299   4.854   5.194 -0.2179  0.3414  0.2958
23547SOL     OW82699   8.548   5.853   6.077 -0.0554 -0.1799  0.6424
23547SOL    HW182700   8.591   5.763   6.080  0.0488 -0.2430 -1.6596
23547SOL    HW282701   8.619   5.923   6.083  0.1514 -0.2741 -0.6354
23548SOL     OW82702   0.775   2.202   7.573  0.1117  0.1228  0.2463
23548SOL    HW182703   0.729   2.181   7.487 -0.6460  0.3636  0.5882
23548SOL    HW282704   0.852   2.263   7.556 -0.7644  1.1512 -0.1181
23549SOL     OW82705   9.299   8.118   7.807 -0.0526 -0.1556  0.1491
23549SOL    HW182706   9.304   8.194   7.743  2.0084  1.3949  2.0621
23549SOL    HW282707   9.382   8.062   7.798  0.8724  0.8124  2.2912
23550SOL     OW82708   0.024   8.415   7.811  0.2199 -0.1301  0.4237
23550SOL    HW182709   0.072   8.336   7.849 -1.5986 -1.1701  0.6215
23550SOL    HW282710   0.040   8.420   7.713 -0.0782 -1.0613  0.3194
23551SOL     OW82711   8.508   5.289   3.739  0.1577  0.0186 -0.3559
23551SOL    HW182712   8.434   5.354   3.722  0.5398  1.0263  1.6875
23551SOL    HW282713   8.470   5.197   3.748 -0.7763  0.4223 -0.0952
23552SOL     OW82714   0.531   3.858   8.945  0.0351  1.1765  0.1204
23552SOL    HW182715   0.552   3.760   8.949  2.2200  1.6127  0.0162
23552SOL    HW282716   0.584   3.900   8.871  1.6314  3.0054  2.2254
23553SOL     OW82717   0.277   2.225   4.659  0.0051 -0.4254  0.2783
23553SOL    HW182718   0.259   2.281   4.740  3.3083  1.7563 -0.3899
23553SOL    HW282719   0.212   2.249   4.587  0.2562  1.3142  0.6052
23554SOL     OW82720   7.235   3.710   5.949  0.2276  0.1170 -0.1258
23554SOL    HW182721   7.226   3.621   5.993  0.5924 -0.1489 -0.5929
23554SOL    HW282722   7.169   3.718   5.874  1.6591 -0.5992 -1.4833
23555SOL     OW82723   4.162   3.239   9.263 -0.1149 -0.2885 -0.1224
23555SOL    HW182724   4.108   3.164   9.225 -0.2685 -0.0691 -0.3371
23555SOL    HW282725   4.243   3.254   9.207 -0.4908  0.2273 -0.5314
23556SOL     OW82726   9.747   8.334   5.533  0.0970 -0.4715  0.3125
23556SOL    HW182727   9.815   8.261   5.536  1.0292  0.2718 -1.6205
23556SOL    HW282728   9.793   8.422   5.541 -0.5137  0.0839 -2.0314
23557SOL     OW82729   8.135   0.310   2.183  0.4692  0.0181 -1.0083
23557SOL    HW182730   8.162   0.256   2.263  1.3295  0.0971 -1.2356
23557SOL    HW282731   8.160   0.261   2.100 -0.7437 -0.2206 -1.2379
23558SOL     OW82732   8.657   6.484   9.030  0.2978 -0.3203 -0.4268
23558SOL    HW182733   8.729   6.461   8.965  1.6751  2.0810  0.1759
23558SOL    HW282734   8.686   6.459   9.122  0.0236 -0.0722 -0.2708
23559SOL     OW82735   5.870   2.842   9.359 -0.0903 -0.4758 -0.4774
23559SOL    HW182736   5.775   2.814   9.340  0.1403 -0.6784 -1.3394
23559SOL    HW282737   5.874   2.884   9.449 -0.5120 -3.0226  0.7846
23560SOL     OW82738   3.100   1.532   5.475 -0.2997  0.8353  0.7699
23560SOL    HW182739   3.039   1.498   5.546 -1.4904  0.3497 -0.4753
23560SOL    HW282740   3.056   1.607   5.426 -0.0798  0.2148 -0.3968
23561SOL     OW82741   0.905   4.820   7.208 -0.0916  0.1866 -0.0764
23561SOL    HW182742   0.808   4.838   7.197 -0.0563  1.0849  1.0271
23561SOL    HW282743   0.942   4.879   7.280  1.4527  0.5115 -1.1121
23562SOL     OW82744   6.673   6.388   3.480  0.5324  0.0356 -0.3207
23562SOL    HW182745   6.644   6.380   3.576 -0.9590 -1.3024 -0.8492
23562SOL    HW282746   6.773   6.394   3.476  0.6041  0.3159  1.3287
23563SOL     OW82747   4.221   4.716   7.094  0.1296 -0.6009 -0.4125
23563SOL    HW182748   4.250   4.755   7.007 -0.6851 -3.0859 -1.8591
23563SOL    HW282749   4.139   4.660   7.080 -0.7340 -0.0524  2.1775
23564SOL     OW82750   6.749   7.239   4.576  0.3151 -0.1003 -0.0507
23564SOL    HW182751   6.724   7.150   4.538  0.3655 -0.0914 -0.1048
23564SOL    HW282752   6.737   7.238   4.675 -1.5976  0.4612 -0.2606
23565SOL     OW82753   9.979   7.501   7.940  0.1660 -0.3648 -0.1046
23565SOL    HW182754  10.052   7.489   8.007  1.5777 -2.2187 -1.9024
23565SOL    HW282755   9.892   7.471   7.980  0.9567 -1.2565  0.9724
23566SOL     OW82756   0.089   5.165   6.099 -0.3764  0.4524  0.0552
23566SOL    HW182757   0.068   5.069   6.120 -1.2504  0.3970 -0.9846
23566SOL    HW282758   0.005   5.219   6.102  0.1615  1.2410  0.9198
23567SOL     OW82759   0.521   4.315   7.969  0.0251  0.0668 -0.8217
23567SOL    HW182760   0.443   4.377   7.961 -0.4134 -0.4153 -0.3829
23567SOL    HW282761   0.577   4.341   8.047  0.8247  0.9779 -1.6897
23568SOL     OW82762   9.025   1.549   2.660  0.3913 -0.0181  0.1174
23568SOL    HW182763   9.081   1.601   2.595 -2.2848  1.7099 -0.8715
23568SOL    HW282764   8.972   1.611   2.716 -0.6035 -1.6325  1.0133
23569SOL     OW82765   6.248   8.503   8.066  0.8815  0.6607  0.7669
23569SOL    HW182766   6.165   8.496   8.010  0.7975  2.1486  0.6884
23569SOL    HW282767   6.298   8.417   8.062  0.0715  0.2322 -0.3472
23570SOL     OW82768   4.281   5.366   4.737 -0.6213 -0.5580  0.1552
23570SOL    HW182769   4.287   5.267   4.734 -1.8936 -0.6037 -1.3039
23570SOL    HW282770   4.370   5.404   4.762  0.5808 -1.9530 -1.9048
23571SOL     OW82771   8.164   3.081   9.077 -0.1886 -0.5498  0.4461
23571SOL    HW182772   8.187   2.985   9.094 -0.5892 -0.5580  0.9645
23571SOL    HW282773   8.145   3.094   8.980 -2.9892 -1.6162  0.8183
23572SOL     OW82774   9.211   7.909   8.548  0.6133 -0.0858  0.0793
23572SOL    HW182775   9.130   7.930   8.494  0.8024 -1.2949 -0.6951
23572SOL    HW282776   9.250   7.994   8.585 -0.2712  0.6134 -0.5847
23573SOL     OW82777   3.731   9.677   0.860  0.3404  0.4740  0.1074
23573SOL    HW182778   3.689   9.641   0.943 -1.2535  1.2110 -0.3434
23573SOL    HW282779   3.731   9.607   0.789 -0.5230  0.5846 -0.0106
23574SOL     OW82780   1.920   6.071   4.576  0.4743 -0.3846 -0.4792
23574SOL    HW182781   1.917   6.124   4.491  0.4656 -1.6586 -1.2848
23574SOL    HW282782   1.847   6.003   4.576  0.5615 -0.4846  0.4953
23575SOL     OW82783   7.738   3.501   6.323 -0.2588  0.2355 -0.2097
23575SOL    HW182784   7.703   3.510   6.230  0.9594 -0.9865 -0.7954
23575SOL    HW282785   7.797   3.578   6.345 -0.8087  0.6919 -0.3183
23576SOL     OW82786   0.461   7.400   6.676 -0.1871 -0.0630  0.2410
23576SOL    HW182787   0.472   7.492   6.637 -1.8372 -0.7263 -1.9007
23576SOL    HW282788   0.536   7.341   6.644  0.3061  0.2656  0.7877
23577SOL     OW82789   6.032   6.747   6.664  0.2342  0.0632  0.0266
23577SOL    HW182790   6.085   6.698   6.595  0.0309  0.5215 -0.4561
23577SOL    HW282791   6.087   6.756   6.748  0.7111  0.0560 -0.2824
23578SOL     OW82792   4.427   3.293   8.624  0.3760 -0.6421  0.2112
23578SOL    HW182793   4.527   3.294   8.629  0.4407 -3.1023  0.3226
23578SOL    HW282794   4.397   3.323   8.534  1.1863  0.8096  0.4203
23579SOL     OW82795   9.577   1.412   2.151  0.2602  1.0425 -0.1635
23579SOL    HW182796   9.576   1.443   2.246  2.6883 -1.3630  0.7120
23579SOL    HW282797   9.672   1.407   2.119 -0.4527  0.3647 -2.2182
23580SOL     OW82798   6.719   1.374   8.914  0.1169  0.7269 -0.5355
23580SOL    HW182799   6.626   1.341   8.895 -0.9004  1.8165  2.2289
23580SOL    HW282800   6.720   1.474   8.913  0.2510  0.8550  3.4761
23581SOL     OW82801   9.085   8.277   7.979 -0.5214 -0.1320 -0.2608
23581SOL    HW182802   9.068   8.252   8.075 -1.0379  0.1877 -0.2646
23581SOL    HW282803   9.175   8.246   7.951 -0.3582 -0.1992  0.3440
23582SOL     OW82804   6.864   5.299   8.834 -0.0537 -0.1712  0.4128
23582SOL    HW182805   6.873   5.391   8.798 -0.5827 -0.0173  0.6756
23582SOL    HW282806   6.888   5.298   8.932  1.2394 -0.5614  0.1081
23583SOL     OW82807   0.997   4.857   4.889  1.1303 -0.2998  0.6042
23583SOL    HW182808   1.081   4.873   4.836  1.1743 -0.1378  0.7219
23583SOL    HW282809   1.010   4.890   4.982  0.1088  1.9237 -0.0149
23584SOL     OW82810   5.894   1.154   3.858 -0.2464  0.1821  0.7515
23584SOL    HW182811   5.950   1.092   3.913 -2.0480 -0.8725  1.4678
23584SOL    HW282812   5.892   1.245   3.901 -1.1363 -0.4680  2.1461
23585SOL     OW82813   0.786   3.838   4.785 -0.2133  0.3239  0.3776
23585SOL    HW182814   0.796   3.894   4.867  0.2337 -0.0211  0.5649
23585SOL    HW282815   0.755   3.746   4.811 -3.7296  1.2880 -0.1633
23586SOL     OW82816   2.464   6.798   8.201  0.1405  0.0396 -0.1140
23586SOL    HW182817   2.448   6.844   8.288 -0.5256  0.8552 -0.6610
23586SOL    HW282818   2.412   6.712   8.199 -0.8048  0.6037 -0.1777
23587SOL     OW82819   4.686   7.255   1.679 -0.3419  0.3805  0.2156
23587SOL    HW182820   4.785   7.243   1.675 -0.2928  0.8295 -0.0042
23587SOL    HW282821   4.641   7.178   1.634 -0.1004  0.0359  0.5633
23588SOL     OW82822   0.128   7.117   7.284  0.2184  0.0525 -0.2599
23588SOL    HW182823   0.223   7.134   7.259 -0.1971 -0.1459 -2.0169
23588SOL    HW282824   0.070   7.189   7.246 -0.7374 -1.6420 -2.0889
23589SOL     OW82825   6.694   1.975   8.189  0.3377  0.2766 -0.2558
23589SOL    HW182826   6.722   2.036   8.264  1.7378  0.8715 -1.2364
23589SOL    HW282827   6.626   2.020   8.133  1.9336  1.2893 -1.4322
23590SOL     OW82828   9.765   5.347   8.650 -0.2147  0.2578 -0.4171
23590SOL    HW182829   9.675   5.389   8.636 -0.5425  0.2662  1.5929
23590SOL    HW282830   9.817   5.401   8.716  0.7060 -0.5713 -0.4626
23591SOL     OW82831   6.109   4.971   4.709 -0.0703  0.1419 -0.0982
23591SOL    HW182832   6.182   5.012   4.764 -0.2762  1.2242 -0.6205
23591SOL    HW282833   6.079   5.036   4.640 -0.7239 -0.7337 -0.6472
23592SOL     OW82834   6.984   5.081   6.282  0.0750  0.0027  0.7114
23592SOL    HW182835   6.963   5.172   6.244 -1.6158 -0.7822 -0.3005
23592SOL    HW282836   7.049   5.035   6.222 -0.7519 -0.2939  0.0255
23593SOL     OW82837   9.448   4.953   7.676  0.2105 -0.3969  0.0214
23593SOL    HW182838   9.395   4.940   7.760 -0.9502  0.4641 -0.5669
23593SOL    HW282839   9.543   4.923   7.691  0.0308 -0.1740  1.6529
23594SOL     OW82840   5.449   2.223   1.566  0.3968 -0.2137  0.4117
23594SOL    HW182841   5.501   2.308   1.574  0.8310 -0.1427 -2.4532
23594SOL    HW282842   5.355   2.245   1.538  0.8692 -0.6850 -1.6631
23595SOL     OW82843   0.213   9.175   6.865 -0.0891 -0.4359 -0.2184
23595SOL    HW182844   0.164   9.244   6.811  2.8323  1.2852 -0.7496
23595SOL    HW282845   0.225   9.093   6.809 -1.7080 -0.6148 -0.3263
23596SOL     OW82846   0.802   6.837   8.864 -0.5456 -0.6732 -0.1394
23596SOL    HW182847   0.716   6.786   8.863 -0.8241 -0.2168  0.2094
23596SOL    HW282848   0.782   6.935   8.867 -0.0153 -0.5696 -0.0004
23597SOL     OW82849   3.620   6.889   3.348 -0.4629 -0.6241  0.4027
23597SOL    HW182850   3.591   6.937   3.431 -2.1302 -1.0465  0.0708
23597SOL    HW282851   3.621   6.791   3.365  1.0016 -0.6148  0.4667
23598SOL     OW82852   9.101   7.024   6.272  0.1917 -0.1926  0.4155
23598SOL    HW182853   9.047   6.947   6.304  0.1945 -0.2100  0.3761
23598SOL    HW282854   9.148   7.000   6.187 -0.8585  0.2919 -0.3097
23599SOL     OW82855   9.887   8.737   9.072 -0.5543  0.2816  0.1245
23599SOL    HW182856   9.917   8.793   8.995  0.6642 -0.2064  0.2323
23599SOL    HW282857   9.794   8.762   9.097 -0.6408  1.0575 -0.9371
23600SOL     OW82858   2.467   3.070   0.684  0.4050 -0.3218  0.1975
23600SOL    HW182859   2.368   3.073   0.699  0.5955 -2.4614  2.1275
23600SOL    HW282860   2.514   3.080   0.772  1.8725 -0.6796 -0.5319
23601SOL     OW82861   9.815   0.230   7.447 -0.2872  0.0258  0.5613
23601SOL    HW182862   9.805   0.329   7.439  0.4425  0.1472  1.1621
23601SOL    HW282863   9.878   0.197   7.376 -1.7239 -0.2178 -0.6307
23602SOL     OW82864   6.285   4.170   8.456  0.1572  0.2210  0.1985
23602SOL    HW182865   6.319   4.202   8.545  1.3883 -1.4543  0.3702
23602SOL    HW282866   6.361   4.134   8.402 -1.1203 -2.6691  0.1837
23603SOL     OW82867   3.033   5.441   6.785  0.2047 -0.6714  0.1388
23603SOL    HW182868   3.052   5.518   6.724  1.1047 -0.1409  1.0676
23603SOL    HW282869   3.090   5.449   6.867  1.1666 -2.9308 -0.2683
23604SOL     OW82870   9.637   7.780   0.071 -0.0907 -0.2294 -0.0664
23604SOL    HW182871   9.544   7.815   0.066  0.5735  1.5785  0.0301
23604SOL    HW282872   9.690   7.833   0.137  1.8203  0.6890 -2.2486
23605SOL     OW82873   0.564   8.735   6.099  0.1601  0.2452  0.2688
23605SOL    HW182874   0.547   8.736   6.198  0.2827  1.9622  0.2904
23605SOL    HW282875   0.481   8.765   6.051  0.5436  0.7678 -0.0690
23606SOL     OW82876   0.019   4.315   4.903 -0.6387 -0.1000  0.5683
23606SOL    HW182877  -0.058   4.344   4.959 -0.3567  0.5267  0.6432
23606SOL    HW282878   0.069   4.396   4.871  1.0404 -0.5263  2.0069
23607SOL     OW82879   0.938   1.309   9.006  0.1112  0.0110 -0.2144
23607SOL    HW182880   0.979   1.314   9.098 -0.5693  0.5908  0.0549
23607SOL    HW282881   0.839   1.313   9.013  0.0418 -0.3309 -0.9547
23608SOL     OW82882   8.049   2.970   7.038  0.4349 -0.1471  0.1014
23608SOL    HW182883   7.966   3.008   7.079  0.6780 -0.0288  0.4935
23608SOL    HW282884   8.070   3.018   6.953 -0.3734 -0.7519 -0.4356
23609SOL     OW82885   1.171   0.778   5.940 -0.8098  0.0528 -0.0615
23609SOL    HW182886   1.188   0.838   5.862  0.1739 -0.3754 -0.1862
23609SOL    HW282887   1.074   0.781   5.964 -0.8216  1.4763 -0.2433
23610SOL     OW82888   2.415   3.775   5.894 -0.1228 -0.3924 -0.7325
23610SOL    HW182889   2.504   3.742   5.924 -0.4095  0.1947  0.8030
23610SOL    HW282890   2.408   3.873   5.911 -1.8045 -0.7833  1.1285
23611SOL     OW82891   9.328   6.237   0.453 -0.0560 -0.4213  0.4467
23611SOL    HW182892   9.391   6.217   0.528  0.1460  0.5667  0.5460
23611SOL    HW282893   9.258   6.166   0.449 -0.2055 -0.3625  1.7344
23612SOL     OW82894   5.191   5.649   1.302 -0.1443  0.0124  0.0638
23612SOL    HW182895   5.134   5.569   1.318  1.0357 -0.2182  3.5587
23612SOL    HW282896   5.279   5.620   1.264  0.1402 -0.3357  0.9706
23613SOL     OW82897   8.751   6.339   5.750 -0.0813  0.4254  0.4601
23613SOL    HW182898   8.714   6.407   5.686 -0.5986 -0.3615 -0.0770
23613SOL    HW282899   8.782   6.386   5.833 -0.0343  1.3734 -0.0789
23614SOL     OW82900   8.069   7.674   8.295  0.2269 -0.4178  0.4008
23614SOL    HW182901   8.073   7.727   8.210 -0.3159  0.1126  0.7007
23614SOL    HW282902   8.162   7.659   8.329  0.5095 -1.3300 -0.7031
23615SOL     OW82903   9.841   6.291   7.125 -0.0877  0.0393 -0.2919
23615SOL    HW182904   9.933   6.275   7.088 -0.3845  1.1544 -1.5656
23615SOL    HW282905   9.849   6.322   7.220  0.7932 -0.9620 -0.0286
23616SOL     OW82906   1.602   1.911   8.983 -0.0469  0.2673 -0.6379
23616SOL    HW182907   1.624   1.874   9.073 -0.9667  0.1749 -0.4474
23616SOL    HW282908   1.570   1.838   8.923 -0.6255  0.5406 -0.6597
23617SOL     OW82909   5.948   4.777   4.001  0.0690  0.3925 -0.0328
23617SOL    HW182910   5.953   4.712   4.077 -1.0581  1.2393  0.7806
23617SOL    HW282911   5.972   4.868   4.034  1.9804  0.3491 -1.2442
23618SOL     OW82912   3.247   3.982   7.832  0.0224 -0.1400 -0.3015
23618SOL    HW182913   3.297   4.052   7.782  0.6218 -1.0678 -1.0196
23618SOL    HW282914   3.223   4.017   7.923  2.0472  0.3092  0.1006
23619SOL     OW82915   7.061   3.971   1.859  0.4736  0.3161 -0.3117
23619SOL    HW182916   7.100   3.914   1.787 -1.3674  2.1819 -2.8357
23619SOL    HW282917   7.073   4.067   1.836  0.6190  0.9869  2.3320
23620SOL     OW82918   2.196   4.612   4.130 -0.2089 -0.1125 -0.1895
23620SOL    HW182919   2.192   4.586   4.227 -0.1040  0.7615  0.0500
23620SOL    HW282920   2.166   4.707   4.119  1.4112  0.3389 -0.7960
23621SOL     OW82921   9.476   6.750   3.960  0.8459  0.2979  0.8501
23621SOL    HW182922   9.381   6.763   3.989  0.6157 -1.1935  0.8202
23621SOL    HW282923   9.533   6.823   3.999 -0.4368  1.6742  0.1803
23622SOL     OW82924   8.123   3.318   5.859 -0.2020  0.1035  0.7787
23622SOL    HW182925   8.211   3.366   5.862  0.7560 -1.6009  0.3868
23622SOL    HW282926   8.067   3.355   5.785  1.2608 -0.5901 -0.7122
23623SOL     OW82927   7.969   9.158   7.836 -0.4048  0.1067  0.6294
23623SOL    HW182928   8.043   9.138   7.900  0.4266 -1.2614 -0.7193
23623SOL    HW282929   8.000   9.226   7.770 -0.5862  0.0508  0.4870
23624SOL     OW82930   8.370   5.601   4.853 -0.7199  0.4008  0.1168
23624SOL    HW182931   8.363   5.565   4.946  0.7035  0.4141  0.2360
23624SOL    HW282932   8.368   5.701   4.857 -0.1565  0.4094  0.1746
23625SOL     OW82933   5.614   5.017   7.642 -0.0443 -0.0829  0.0313
23625SOL    HW182934   5.559   4.995   7.722 -1.2723  0.5756 -0.6219
23625SOL    HW282935   5.597   4.951   7.570 -0.4276  0.4614 -0.3803
23626SOL     OW82936   8.350   8.139   3.761 -0.0807  0.1674  0.7331
23626SOL    HW182937   8.353   8.078   3.840  1.6337 -0.6085  0.0913
23626SOL    HW282938   8.436   8.132   3.710 -0.6257  1.6824 -0.4296
23627SOL     OW82939   8.811   5.772   5.513 -0.4140 -0.4123  0.0310
23627SOL    HW182940   8.770   5.817   5.434 -1.6532  0.9517  1.4131
23627SOL    HW282941   8.898   5.731   5.487 -0.5319  0.5151 -1.8941
23628SOL     OW82942   0.030   4.737   3.811 -0.4171 -0.0319  0.2649
23628SOL    HW182943  -0.044   4.718   3.747 -0.0388  2.3037 -0.9520
23628SOL    HW282944   0.000   4.807   3.876  0.3011  0.0182  0.5446
23629SOL     OW82945   8.747   4.453   7.852  0.1263 -0.0893 -0.2481
23629SOL    HW182946   8.793   4.512   7.786 -0.4959  0.5804 -0.0893
23629SOL    HW282947   8.671   4.503   7.895 -0.7229 -1.1501 -0.4739
23630SOL     OW82948   1.995   8.325   8.768  0.2624  0.1714  0.2947
23630SOL    HW182949   2.015   8.257   8.839 -0.5208  0.4938  0.8431
23630SOL    HW282950   2.033   8.295   8.681  2.1388  0.2680  1.0601
23631SOL     OW82951   1.094   7.739   4.511 -0.4888 -0.9126 -0.4626
23631SOL    HW182952   1.165   7.680   4.472  0.2987  1.2211 -2.3051
23631SOL    HW282953   1.012   7.736   4.454 -0.6227 -0.5834 -0.2899
23632SOL     OW82954   5.962   7.509   2.707  0.2455 -0.1336  0.4652
23632SOL    HW182955   6.051   7.482   2.742  0.5629  0.1637 -0.1051
23632SOL    HW282956   5.974   7.572   2.630 -0.4682  0.9320  1.2078
23633SOL     OW82957   8.808   6.037   2.622 -0.5188  0.1821  0.2929
23633SOL    HW182958   8.819   6.112   2.687  0.2385 -1.2433  1.8760
23633SOL    HW282959   8.898   6.007   2.590 -0.8737  0.6360 -1.1442
23634SOL     OW82960   7.409   2.334   9.203 -0.7546 -0.2552  0.8383
23634SOL    HW182961   7.371   2.331   9.295  0.2987  0.0513  1.2864
23634SOL    HW282962   7.386   2.250   9.155 -1.7011 -0.2237  1.2193
23635SOL     OW82963   9.939   5.056   7.452  0.3595  0.2995 -0.0992
23635SOL    HW182964  10.011   5.006   7.404 -1.1886 -1.1989 -0.9292
23635SOL    HW282965   9.943   5.037   7.550 -0.3370 -1.6805 -0.4239
23636SOL     OW82966   7.755   2.076   7.695  0.3069 -0.5337  0.1117
23636SOL    HW182967   7.805   2.064   7.781  0.5023  0.2954  0.1175
23636SOL    HW282968   7.816   2.058   7.618  0.0852 -1.4486  0.1449
23637SOL     OW82969   0.651   2.777   4.751 -0.6414  0.5039 -0.1525
23637SOL    HW182970   0.614   2.685   4.768 -0.0801  0.0371 -1.4309
23637SOL    HW282971   0.576   2.841   4.739 -1.0525  0.3855  1.5488
23638SOL     OW82972   0.102   9.353   9.697  0.2533 -0.1319 -0.4207
23638SOL    HW182973   0.107   9.378   9.600  0.7232  1.2572 -0.0439
23638SOL    HW282974   0.184   9.299   9.721  0.7770  0.6254 -0.4898
23639SOL     OW82975   7.009   0.449   6.453  0.7250  0.4723 -0.4482
23639SOL    HW182976   7.020   0.544   6.422  1.9883 -0.5695 -3.3269
23639SOL    HW282977   6.913   0.432   6.476  0.0125  1.7083 -2.4269
23640SOL     OW82978   1.998   8.540   8.918 -0.1566 -0.2672  0.6542
23640SOL    HW182979   1.916   8.593   8.895  1.1905  0.5465 -2.6055
23640SOL    HW282980   2.011   8.468   8.851  1.7547 -0.4262  1.1594
23641SOL     OW82981   9.403   4.857   6.559 -0.1700 -0.4942  0.2789
23641SOL    HW182982   9.391   4.842   6.657  0.8584  0.5058  0.5830
23641SOL    HW282983   9.476   4.924   6.545 -0.1049 -0.8508 -1.1841
23642SOL     OW82984   6.731   2.892   5.653 -0.2622  0.5176 -0.1211
23642SOL    HW182985   6.690   2.819   5.707  0.6312 -0.1117 -0.2872
23642SOL    HW282986   6.824   2.911   5.686 -0.7776  2.1433  0.4472
23643SOL     OW82987   1.760   6.105   7.572 -0.5317 -0.4043  0.2334
23643SOL    HW182988   1.705   6.135   7.650 -2.0946 -1.9687 -0.2431
23643SOL    HW282989   1.759   6.177   7.502 -0.7017  0.2097  0.8521
23644SOL     OW82990   2.115   1.328   6.493  0.0578  0.1552 -0.2785
23644SOL    HW182991   2.162   1.405   6.536  1.5841 -0.1959 -1.2919
23644SOL    HW282992   2.180   1.255   6.474 -1.1167 -0.8128 -0.6435
23645SOL     OW82993   6.976   6.114   7.881 -0.0399 -0.2963  0.0285
23645SOL    HW182994   7.033   6.047   7.834 -1.2090 -0.5192 -1.1072
23645SOL    HW282995   7.030   6.160   7.951  1.0645 -1.6927  0.1301
23646SOL     OW82996   5.995   5.513   3.612  0.8560  0.7345 -0.1142
23646SOL    HW182997   6.042   5.560   3.537  0.9472  0.0991 -0.4589
23646SOL    HW282998   5.988   5.415   3.591  0.2302  0.6704  0.3736
23647SOL     OW82999   9.270   5.923   5.077  0.6342  0.1008  0.1834
23647SOL    HW183000   9.344   5.871   5.120  1.0907 -0.3997 -1.1918
23647SOL    HW283001   9.302   5.962   4.991 -1.0199 -1.1092 -1.0247
23648SOL     OW83002   3.302   1.442   5.820  0.4375 -0.6078 -0.3126
23648SOL    HW183003   3.306   1.342   5.812  0.0156 -0.7430  1.0253
23648SOL    HW283004   3.216   1.475   5.782  0.2655 -0.8256 -0.1133
23649SOL     OW83005   6.732   9.027   8.065 -0.4247  0.1493 -0.4134
23649SOL    HW183006   6.753   9.120   8.097 -1.1517  0.2238 -0.1219
23649SOL    HW283007   6.650   8.994   8.113  0.7568 -1.2622  0.6787
23650SOL     OW83008   1.095   7.617   3.235  0.5256  0.3457  0.8078
23650SOL    HW183009   1.075   7.537   3.292 -1.8838 -0.7814 -1.4602
23650SOL    HW283010   1.180   7.602   3.186  0.1404 -0.8257  0.4698
23651SOL     OW83011   1.184   1.777   3.574  0.5452  0.3529  0.5344
23651SOL    HW183012   1.102   1.833   3.564  1.0453  0.6328 -2.5573
23651SOL    HW283013   1.265   1.835   3.566  1.0646 -0.6977 -2.0980
23652SOL     OW83014   2.594   2.953   0.370  0.1736 -0.0934 -0.2187
23652SOL    HW183015   2.524   2.880   0.370 -0.3367  0.3793  1.7114
23652SOL    HW283016   2.594   2.999   0.458  1.7237  1.1056 -0.8287
23653SOL     OW83017   9.783   2.726   4.345 -0.1757 -0.0832 -0.6239
23653SOL    HW183018   9.824   2.657   4.404 -0.0245  1.5236  1.2335
23653SOL    HW283019   9.696   2.756   4.384 -0.1470  0.9006 -1.2890
23654SOL     OW83020   2.761   6.002   8.731  0.3974  0.3300 -0.3978
23654SOL    HW183021   2.851   5.975   8.697 -0.5148 -2.4872 -0.7497
23654SOL    HW283022   2.754   5.978   8.828 -0.2249 -0.1986 -0.5664
23655SOL     OW83023   7.696   4.148   4.829  0.2160  0.1272 -0.1052
23655SOL    HW183024   7.721   4.167   4.734 -0.1221  1.2954  0.0309
23655SOL    HW283025   7.710   4.230   4.884  0.4099 -0.5416  0.8623
23656SOL     OW83026   9.111   5.209   8.243 -0.0038  0.8011  0.6749
23656SOL    HW183027   9.191   5.223   8.300  1.0799 -1.6056 -0.1849
23656SOL    HW283028   9.124   5.127   8.187 -1.2187  2.7803 -2.6523
23657SOL     OW83029   6.891   2.183   4.578 -0.0017  0.6244  0.1478
23657SOL    HW183030   6.980   2.137   4.575 -0.4529 -0.2518 -0.2386
23657SOL    HW283031   6.847   2.165   4.666 -1.1071 -1.5305 -0.7893
23658SOL     OW83032   0.085   4.178   0.430 -0.0105 -0.5231 -0.0753
23658SOL    HW183033  -0.010   4.150   0.417 -0.0869  0.3186 -1.4040
23658SOL    HW283034   0.130   4.187   0.342  0.7231  1.0426  0.4279
23659SOL     OW83035   0.490   2.339   5.767  0.2196 -0.1806 -0.6828
23659SOL    HW183036   0.523   2.386   5.849 -0.1458 -0.3498 -0.4374
23659SOL    HW283037   0.479   2.405   5.693 -0.0182  0.0714 -0.4247
23660SOL     OW83038   8.465   1.371   5.040 -0.3317  0.2103  0.2987
23660SOL    HW183039   8.505   1.300   5.097 -1.2969  1.6005  2.8080
23660SOL    HW283040   8.365   1.369   5.049 -0.4307  1.1457 -0.4975
23661SOL     OW83041   9.081   6.553   6.321  0.3588 -0.2051 -0.1526
23661SOL    HW183042   9.079   6.460   6.357  1.9677 -1.2626 -2.6812
23661SOL    HW283043   9.031   6.556   6.234 -1.9987  1.9147  1.2159
23662SOL     OW83044   4.632   2.386   5.184  0.2144 -0.0864 -0.6651
23662SOL    HW183045   4.611   2.389   5.282  1.9470 -1.0719 -0.2505
23662SOL    HW283046   4.673   2.473   5.156  0.1360  0.0288 -0.4259
23663SOL     OW83047   9.707   7.319   5.675 -0.3622 -0.3137 -0.7584
23663SOL    HW183048   9.786   7.333   5.735 -0.7346 -0.6495 -0.1859
23663SOL    HW283049   9.721   7.238   5.619 -0.2749 -0.3383 -0.7007
23664SOL     OW83050   6.235   9.349   1.824  0.1761  0.2752  0.3268
23664SOL    HW183051   6.214   9.276   1.889 -0.2594  0.8995  0.9008
23664SOL    HW283052   6.197   9.327   1.735 -0.3313 -0.0010  0.6069
23665SOL     OW83053   6.054   2.241   2.872  0.0405 -0.6279 -0.8234
23665SOL    HW183054   5.992   2.316   2.851  0.7741  0.4991  0.8762
23665SOL    HW283055   6.147   2.264   2.842  0.7792  0.3094  2.0544
23666SOL     OW83056   8.258   1.827   3.363 -0.5294  0.5366 -0.1038
23666SOL    HW183057   8.295   1.871   3.445 -1.3041  1.5370 -0.2901
23666SOL    HW283058   8.304   1.739   3.350  0.4192  0.8869  0.7512
23667SOL     OW83059   8.887   3.805   1.932 -0.2794 -0.1661  0.1499
23667SOL    HW183060   8.850   3.892   1.899 -1.5402 -0.5967  0.4081
23667SOL    HW283061   8.942   3.763   1.860 -0.8601  0.1593 -0.4920
23668SOL     OW83062   7.323   9.887   4.602 -0.7615  0.2982  0.5503
23668SOL    HW183063   7.380   9.805   4.611  1.3439  1.6049 -0.5298
23668SOL    HW283064   7.351   9.954   4.670 -2.4324  0.1592  1.3820
23669SOL     OW83065   1.316   5.400   8.651 -0.2789  0.1511 -0.3510
23669SOL    HW183066   1.231   5.376   8.605 -0.1682 -1.0293  0.0424
23669SOL    HW283067   1.340   5.495   8.630 -1.0752  0.1256 -1.4046
23670SOL     OW83068   0.728   5.786   5.950 -0.0955  0.1359 -0.3496
23670SOL    HW183069   0.659   5.778   6.023  2.8496 -0.3697  2.4639
23670SOL    HW283070   0.716   5.875   5.904 -3.0923 -0.2689 -0.4921
23671SOL     OW83071   7.702   8.208   5.200  0.4118 -0.0292 -0.0295
23671SOL    HW183072   7.698   8.117   5.159  1.7655  0.3043 -0.9231
23671SOL    HW283073   7.609   8.241   5.217 -0.0757 -2.5197  2.4598
23672SOL     OW83074   7.100   4.487   9.758 -0.1220  0.0008  0.0540
23672SOL    HW183075   7.102   4.416   9.828  0.1426 -0.0588 -0.0130
23672SOL    HW283076   7.192   4.521   9.742 -0.3088  0.7151  0.4471
23673SOL     OW83077   1.825   9.406   3.578 -0.1953  0.6411  0.3875
23673SOL    HW183078   1.878   9.364   3.505  2.0194 -0.0020  2.3068
23673SOL    HW283079   1.867   9.385   3.666 -3.2867  0.6981  1.9323
23674SOL     OW83080   1.319   8.494   6.176 -0.2279 -0.5151 -0.3668
23674SOL    HW183081   1.222   8.473   6.190 -0.2873  0.3920  0.6330
23674SOL    HW283082   1.373   8.411   6.190 -0.8041 -0.9133 -0.4385
23675SOL     OW83083   6.383   2.636   7.504 -0.0544  0.4408 -0.2505
23675SOL    HW183084   6.447   2.560   7.492  0.7176  1.1753 -0.8226
23675SOL    HW283085   6.310   2.608   7.568  0.6266 -0.5179  0.1256
23676SOL     OW83086   9.653   3.949   5.329  0.3115 -0.4196 -0.6014
23676SOL    HW183087   9.703   3.892   5.395 -0.7786 -1.3852 -0.6090
23676SOL    HW283088   9.653   4.044   5.362  2.1823 -0.3881 -0.6242
23677SOL     OW83089   6.541   4.065   7.803 -0.9874  0.5340  0.2030
23677SOL    HW183090   6.579   4.141   7.751 -1.2534 -0.1574 -1.0169
23677SOL    HW283091   6.555   4.081   7.901 -2.4669  2.9328  0.0554
23678SOL     OW83092   8.284   4.074   4.111  0.3964 -0.1755  0.2814
23678SOL    HW183093   8.296   4.146   4.180 -0.5236 -0.2852  0.5686
23678SOL    HW283094   8.192   4.034   4.121  1.2926 -2.1332  0.8265
23679SOL     OW83095   9.254   1.285   1.856 -0.3182  0.0176  0.0592
23679SOL    HW183096   9.190   1.362   1.856 -0.1420  0.1640  0.2959
23679SOL    HW283097   9.282   1.265   1.763 -1.0459 -0.3237 -0.0883
23680SOL     OW83098   0.151   3.097   1.094  0.6747  0.0935  0.3666
23680SOL    HW183099   0.248   3.079   1.105  0.5909 -0.8271 -0.3262
23680SOL    HW283100   0.099   3.013   1.108  0.0176  0.4492  0.1298
23681SOL     OW83101   8.440   1.008   6.618  0.0312  0.0784  0.7168
23681SOL    HW183102   8.381   1.070   6.670  0.6268 -0.2911  1.8301
23681SOL    HW283103   8.527   1.054   6.597 -0.0264  0.0640  0.4429
23682SOL     OW83104   7.871   6.773   5.135  0.3747 -0.1023 -0.6734
23682SOL    HW183105   7.847   6.864   5.170 -0.4731 -0.0530 -1.3476
23682SOL    HW283106   7.945   6.782   5.068  1.5164 -0.1199  0.5688
23683SOL     OW83107   6.158   0.794   5.823 -0.2017 -0.3086  0.2550
23683SOL    HW183108   6.065   0.783   5.857 -0.9070  0.3125 -1.4183
23683SOL    HW283109   6.191   0.707   5.787  0.0210 -0.6169  1.1720
23684SOL     OW83110   7.687   8.004   3.210  0.3167  0.3146  0.2011
23684SOL    HW183111   7.755   7.977   3.143  0.7237 -1.4976  1.3180
23684SOL    HW283112   7.714   8.091   3.252  0.5906  0.9232 -1.1926
23685SOL     OW83113   7.086   4.149   7.588 -0.3050  0.3523 -0.1802
23685SOL    HW183114   7.026   4.227   7.575 -0.6108  0.4291  1.5591
23685SOL    HW283115   7.033   4.071   7.621  0.5501  0.4801  1.5703
23686SOL     OW83116   7.265   2.329   8.342 -0.5207  0.4063 -0.6608
23686SOL    HW183117   7.284   2.425   8.324 -0.5307  0.6355  0.5034
23686SOL    HW283118   7.167   2.312   8.335 -0.3567  0.1325 -2.4516
23687SOL     OW83119   2.008   0.791   0.608  0.1164  0.9762  0.5350
23687SOL    HW183120   2.044   0.771   0.517 -0.0189 -3.2281  1.2981
23687SOL    HW283121   1.913   0.822   0.600 -0.7251 -1.8027 -0.6528
23688SOL     OW83122   8.391   5.667   8.895  0.2811 -0.8730 -0.3445
23688SOL    HW183123   8.318   5.599   8.901 -0.0101 -0.6034 -0.8006
23688SOL    HW283124   8.438   5.656   8.807  1.2410 -1.5001  0.2388
23689SOL     OW83125   9.479   4.208   3.352 -0.0043 -0.0531  0.3880
23689SOL    HW183126   9.487   4.117   3.393  0.5649  0.8548  2.3481
23689SOL    HW283127   9.395   4.213   3.299 -0.5957 -1.3627  1.1696
23690SOL     OW83128   6.072   8.261   1.936 -0.3752  0.2529  0.3422
23690SOL    HW183129   6.050   8.213   2.021 -0.2963 -2.9354 -1.3538
23690SOL    HW283130   5.989   8.298   1.895 -1.2227 -2.6995 -0.7485
23691SOL     OW83131   0.788   5.984   9.502  0.1288  0.1961 -0.7154
23691SOL    HW183132   0.786   5.921   9.579  1.2077 -2.6459 -2.9367
23691SOL    HW283133   0.710   5.965   9.442 -0.3444  1.9578 -0.6864
23692SOL     OW83134   0.689   8.103   6.207 -0.3068 -0.1475 -0.0742
23692SOL    HW183135   0.655   8.010   6.221 -1.0567  0.2644  0.9495
23692SOL    HW283136   0.760   8.102   6.138  1.1971 -1.8073  1.4232
23693SOL     OW83137   8.321   5.625   7.934  0.7728  0.3325 -0.4805
23693SOL    HW183138   8.240   5.572   7.959  2.2124 -1.7192 -0.0158
23693SOL    HW283139   8.295   5.698   7.870 -1.4321 -0.2360 -0.2668
23694SOL     OW83140   9.363   5.559   4.614  0.9289 -0.1538  0.0384
23694SOL    HW183141   9.372   5.657   4.598  1.5706 -0.4741 -1.6836
23694SOL    HW283142   9.323   5.516   4.533  2.6473 -1.6000 -0.0600
23695SOL     OW83143   0.887   3.546   6.046  0.0819 -0.3030  0.0109
23695SOL    HW183144   0.796   3.577   6.019  0.9071  0.7313 -1.6986
23695SOL    HW283145   0.915   3.471   5.987  0.7310  0.0330 -0.1118
23696SOL     OW83146   1.282   4.677   0.253 -0.3005 -0.5395 -0.3094
23696SOL    HW183147   1.336   4.675   0.337 -1.0710  0.3885  0.2073
23696SOL    HW283148   1.344   4.667   0.174  0.5591 -0.0824  0.2973
23697SOL     OW83149   1.435   4.606   6.747 -0.8253  0.2500  0.2743
23697SOL    HW183150   1.505   4.594   6.818  1.2592  3.0151 -1.2133
23697SOL    HW283151   1.357   4.654   6.786  0.0630  1.2456  0.8611
23698SOL     OW83152   8.442   4.286   7.754 -0.2933  0.3995  0.0439
23698SOL    HW183153   8.415   4.252   7.845  1.9768 -0.5000  0.4096
23698SOL    HW283154   8.361   4.296   7.697 -1.3957 -2.2870  1.0756
23699SOL     OW83155   0.492   7.141   7.520  0.4207 -0.1949  0.2855
23699SOL    HW183156   0.478   7.115   7.616  1.7218 -0.8087  0.3229
23699SOL    HW283157   0.490   7.241   7.513 -0.0395 -0.1567  0.9002
23700SOL     OW83158   6.906   3.228   7.812  0.7159 -0.5523 -0.1216
23700SOL    HW183159   6.813   3.190   7.820  0.2042  1.0972  2.0444
23700SOL    HW283160   6.913   3.281   7.727 -0.0326 -1.4248 -0.7438
23701SOL     OW83161   6.285   5.797   7.511  0.2593  0.0694  0.8188
23701SOL    HW183162   6.348   5.875   7.507  3.6567 -2.5449  0.6139
23701SOL    HW283163   6.262   5.778   7.606  1.3546 -0.1167  1.0556
23702SOL     OW83164   5.180   7.814   3.371 -0.1876 -1.0093  0.2479
23702SOL    HW183165   5.265   7.785   3.413 -0.0361 -0.4162  0.3555
23702SOL    HW283166   5.107   7.815   3.439 -0.3593 -1.8529  0.0776
23703SOL     OW83167   9.351   1.648   8.558  0.4945  0.0644  0.2962
23703SOL    HW183168   9.380   1.628   8.651  0.2841 -0.0819  0.3305
23703SOL    HW283169   9.306   1.568   8.519 -1.4587  0.8482  0.8674
23704SOL     OW83170   7.853   4.913   7.800  0.2155 -0.2929  0.2112
23704SOL    HW183171   7.771   4.926   7.745  0.8153  2.9832 -0.0018
23704SOL    HW283172   7.915   4.850   7.753 -1.3978 -1.4027 -0.4636
23705SOL     OW83173   8.681   5.192   6.827  0.0065  0.2534 -0.3689
23705SOL    HW183174   8.741   5.132   6.881  2.0637  0.7598 -2.0099
23705SOL    HW283175   8.642   5.263   6.885 -0.4383 -1.1616  1.0878
23706SOL     OW83176   7.619   7.226   8.006  0.4587 -0.1195 -0.2305
23706SOL    HW183177   7.625   7.164   7.928  0.1682 -0.0327 -0.3222
23706SOL    HW283178   7.633   7.320   7.974  0.9345 -0.1404 -0.0850
23707SOL     OW83179   9.215   4.445   0.752  0.0953 -0.1239 -0.1641
23707SOL    HW183180   9.154   4.507   0.803 -1.2728 -1.4183 -0.1943
23707SOL    HW283181   9.309   4.476   0.762 -0.6076  2.2698 -0.5867
23708SOL     OW83182   6.496   3.878   0.507  0.6152  0.0749  0.0584
23708SOL    HW183183   6.510   3.965   0.460 -0.4995  0.7409  0.9439
23708SOL    HW283184   6.407   3.878   0.552  1.4496 -0.7464  1.7515
23709SOL     OW83185   1.197   5.625   2.167  0.0121  0.2682  0.4361
23709SOL    HW183186   1.257   5.688   2.118 -0.3436  0.1649 -0.1326
23709SOL    HW283187   1.222   5.531   2.144  1.6706  0.1291  2.5938
23710SOL     OW83188   9.306   9.485   7.324 -0.1285 -0.9113  0.3762
23710SOL    HW183189   9.327   9.388   7.313  0.8459 -0.9046  2.0890
23710SOL    HW283190   9.346   9.519   7.409  0.4104  1.2329 -0.6852
23711SOL     OW83191   2.336   3.810   8.587 -0.0419  0.3884 -0.0865
23711SOL    HW183192   2.409   3.879   8.582 -0.0384  0.2959 -1.7201
23711SOL    HW283193   2.376   3.719   8.592 -0.0466  0.4565  1.2203
23712SOL     OW83194   5.640   7.293   4.184 -0.3647  0.7104 -0.2041
23712SOL    HW183195   5.693   7.368   4.146  1.9472  0.3281  2.1632
23712SOL    HW283196   5.597   7.322   4.269 -0.9058 -0.1104 -0.1911
23713SOL     OW83197   0.702   8.673   7.293  0.1845  0.1033  0.2734
23713SOL    HW183198   0.696   8.582   7.334 -1.6947  0.4399  0.7870
23713SOL    HW283199   0.629   8.730   7.329 -0.9834  0.6964 -2.8841
23714SOL     OW83200   8.177   3.240   5.086 -0.2024  0.1241 -0.5242
23714SOL    HW183201   8.077   3.245   5.084 -0.1215  2.1808 -0.8235
23714SOL    HW283202   8.210   3.197   5.001 -0.8161 -0.4696 -0.4644
23715SOL     OW83203   3.130   2.694   8.896  0.3939  0.5190 -0.4050
23715SOL    HW183204   3.037   2.720   8.920 -0.0917  0.0199 -1.6491
23715SOL    HW283205   3.195   2.754   8.941 -0.5044  0.4325  1.0359
23716SOL     OW83206   9.831   7.605   2.575  0.9615  0.0363 -0.1047
23716SOL    HW183207   9.810   7.600   2.672  2.8084  1.7519  0.4195
23716SOL    HW283208   9.747   7.596   2.522 -0.7094  3.5743  1.7940
23717SOL     OW83209   9.507   8.808   0.199  0.3333  0.6356 -0.0976
23717SOL    HW183210   9.606   8.818   0.212  0.4676  0.7545 -1.2154
23717SOL    HW283211   9.463   8.897   0.210  0.4036  0.6730 -0.1144
23718SOL     OW83212   6.752   8.140   5.985  0.8380  0.3573  0.6842
23718SOL    HW183213   6.659   8.124   6.015  0.0369  0.3979 -1.6460
23718SOL    HW283214   6.801   8.053   5.977  0.7050  0.2528  1.0467
23719SOL     OW83215   6.500   3.260   7.692  0.0840  0.8033 -0.1386
23719SOL    HW183216   6.488   3.331   7.622 -0.2425  0.0149 -0.8882
23719SOL    HW283217   6.438   3.278   7.768  0.8600  2.0037  0.2443
23720SOL     OW83218   0.214   6.302   8.734 -0.2308 -0.2410  0.2260
23720SOL    HW183219   0.191   6.267   8.644  0.3563  0.3190 -0.1440
23720SOL    HW283220   0.177   6.240   8.804  1.3142 -1.9293 -0.4202
23721SOL     OW83221   3.312   4.542   7.857  0.4578  0.1232 -0.1350
23721SOL    HW183222   3.397   4.495   7.835  0.3874 -0.1760  0.2341
23721SOL    HW283223   3.237   4.499   7.807  0.4739  0.1985 -0.2265
23722SOL     OW83224   4.630   4.620   7.609  0.0401 -0.0793 -0.1824
23722SOL    HW183225   4.659   4.561   7.684 -0.3931  0.5432  0.4766
23722SOL    HW283226   4.587   4.565   7.538 -0.6775 -0.5133  0.5847
23723SOL     OW83227   0.828   4.454   8.461  0.2571  0.2663  0.3652
23723SOL    HW183228   0.764   4.414   8.395  0.8231 -0.7916  0.4521
23723SOL    HW283229   0.815   4.410   8.551  1.5190 -0.3890  0.2352
23724SOL     OW83230   9.637   4.446   9.478  0.3350 -0.3603 -0.1916
23724SOL    HW183231   9.612   4.535   9.439 -0.2038 -0.2843  0.3231
23724SOL    HW283232   9.681   4.390   9.408 -1.1130 -0.4286 -1.0610
23725SOL     OW83233   5.471   3.414   9.508 -0.1174 -0.2520  0.8168
23725SOL    HW183234   5.402   3.380   9.443 -1.0225  1.7622  0.6728
23725SOL    HW283235   5.535   3.474   9.460 -0.0068  0.1848  1.5018
23726SOL     OW83236   9.885   3.613   0.448  0.8426 -0.4965  0.1603
23726SOL    HW183237   9.935   3.700   0.454  0.5100 -0.1923 -1.2756
23726SOL    HW283238   9.787   3.631   0.457  0.6727 -0.5482 -1.3512
23727SOL     OW83239   8.836   8.584   9.206  0.1831 -0.6400 -0.4266
23727SOL    HW183240   8.892   8.550   9.283 -1.1052 -1.8060  0.0260
23727SOL    HW283241   8.882   8.662   9.164  0.2249  0.9791  2.4535
23728SOL     OW83242   1.064   7.650   0.203 -0.2358  0.4456  0.3921
23728SOL    HW183243   1.033   7.640   0.108  3.6907 -0.1107 -0.9272
23728SOL    HW283244   1.061   7.562   0.249  4.1394 -0.7184 -1.3535
23729SOL     OW83245   9.853   5.674   1.389 -1.1355 -0.5818 -0.1435
23729SOL    HW183246   9.876   5.771   1.391 -0.8598 -0.5842 -2.3350
23729SOL    HW283247   9.938   5.620   1.387 -1.2955 -0.8569  0.3740
23730SOL     OW83248   2.662   3.083   2.282 -0.5154  0.5550  0.2240
23730SOL    HW183249   2.563   3.090   2.280 -0.5435  0.7879  1.5697
23730SOL    HW283250   2.689   3.010   2.345  0.1729  0.8380  0.2647
23731SOL     OW83251   0.571   4.875   9.788  0.1485  0.0152 -0.5619
23731SOL    HW183252   0.597   4.901   9.695  2.4425  1.9630  0.5427
23731SOL    HW283253   0.636   4.808   9.824  0.4501  0.7672  0.3192
23732SOL     OW83254   8.676   7.002   5.248 -0.4288 -0.0798 -0.2501
23732SOL    HW183255   8.748   6.937   5.272  0.9945  1.0696 -1.4015
23732SOL    HW283256   8.696   7.091   5.289  0.0054  0.8572 -2.4418
23733SOL     OW83257   9.765   0.570   1.573  0.1398 -0.0842  0.2481
23733SOL    HW183258   9.862   0.577   1.592  0.0626  1.7583  0.1169
23733SOL    HW283259   9.750   0.519   1.488  0.9924 -0.2964  0.2298
23734SOL     OW83260   7.310   3.483   7.979 -0.2316 -0.4974  0.0611
23734SOL    HW183261   7.318   3.409   8.046 -0.6493  0.2638  0.9652
23734SOL    HW283262   7.400   3.525   7.966  0.1568 -1.6054 -0.9915
23735SOL     OW83263   3.144   5.919   8.897  0.2052 -0.2619  0.5822
23735SOL    HW183264   3.128   6.008   8.855  0.8719 -0.1697  0.5064
23735SOL    HW283265   3.241   5.912   8.924 -0.0312 -0.6269  1.3726
23736SOL     OW83266   1.637   3.584   5.382  0.0510 -0.4793 -0.2445
23736SOL    HW183267   1.628   3.488   5.355  2.9198 -0.3710 -1.7365
23736SOL    HW283268   1.694   3.590   5.465  1.2599  0.0224 -1.0961
23737SOL     OW83269   4.038   4.767   6.582  0.4966 -0.3678  0.7613
23737SOL    HW183270   4.058   4.702   6.655  0.9812 -0.6968  0.3385
23737SOL    HW283271   3.969   4.832   6.613 -0.6686 -1.6336  0.8821
23738SOL     OW83272   5.031   6.884   2.454 -0.0047  0.4801  0.1729
23738SOL    HW183273   5.066   6.949   2.520  2.9284 -1.4465  0.6230
23738SOL    HW283274   4.962   6.826   2.497  0.2376  0.7216  0.8839
23739SOL     OW83275   8.588   7.714   6.422 -0.3629  0.2310  0.6303
23739SOL    HW183276   8.628   7.758   6.503 -0.2215  1.0166  0.1410
23739SOL    HW283277   8.578   7.782   6.349  0.8117 -0.7837 -0.4916
23740SOL     OW83278   0.027   6.725   6.629  0.5270  0.0520  0.5340
23740SOL    HW183279   0.040   6.794   6.557 -2.4910 -0.1111 -0.2246
23740SOL    HW283280  -0.009   6.769   6.711 -1.4873 -0.5718  0.0204
23741SOL     OW83281   2.710   1.797   2.394 -0.0399 -0.1238  0.1025
23741SOL    HW183282   2.648   1.735   2.346  1.0235 -1.4651  0.3999
23741SOL    HW283283   2.665   1.833   2.475 -0.9084  0.0072 -0.4351
23742SOL     OW83284   4.744   1.423   8.802  0.1448  0.3595  0.4182
23742SOL    HW183285   4.802   1.345   8.777  0.3431  0.4334  0.6458
23742SOL    HW283286   4.796   1.508   8.790  0.3071  0.3846  1.2525
23743SOL     OW83287   8.064   3.365   4.789  0.6034  0.0095  0.1479
23743SOL    HW183288   8.025   3.302   4.857 -0.5376  0.6943  0.1302
23743SOL    HW283289   7.990   3.413   4.742  1.4530  0.7592 -0.4196
23744SOL     OW83290   6.294   3.882   4.534 -0.0392  0.7167  0.5064
23744SOL    HW183291   6.352   3.832   4.599 -1.4296 -0.1586  1.0971
23744SOL    HW283292   6.198   3.865   4.556 -0.5396  0.0274 -2.0663
23745SOL     OW83293   4.749   5.322   7.565 -0.3726 -0.8310  0.2350
23745SOL    HW183294   4.804   5.255   7.615 -0.4950 -0.0863  1.3910
23745SOL    HW283295   4.800   5.354   7.485  0.5785 -0.6983  0.8826
23746SOL     OW83296   7.482   6.932   2.865  0.2473  0.3586  0.4010
23746SOL    HW183297   7.546   6.957   2.937  1.3957 -0.0216 -0.4764
23746SOL    HW283298   7.525   6.947   2.776 -0.6258 -0.5944 -0.1875
23747SOL     OW83299   2.019   6.839   1.651  0.0726 -0.0694 -0.5489
23747SOL    HW183300   2.083   6.762   1.654  1.0330  0.7781  1.0052
23747SOL    HW283301   2.046   6.907   1.718 -2.2598  0.4841 -0.1433
23748SOL     OW83302   1.274   3.856   3.824 -0.3799  0.3111  0.3930
23748SOL    HW183303   1.341   3.789   3.856 -0.9110  0.5931  2.1519
23748SOL    HW283304   1.218   3.815   3.753  0.9040 -0.2999 -0.2979
23749SOL     OW83305   6.379   5.960   9.444  0.0586 -0.5634 -0.8540
23749SOL    HW183306   6.295   6.005   9.473  0.6242  0.5330 -0.8621
23749SOL    HW283307   6.408   5.997   9.355  0.4144 -1.1036 -0.9664
23750SOL     OW83308   7.902   2.531   8.048  0.4296  0.1790 -0.1253
23750SOL    HW183309   7.993   2.491   8.045  0.5437  0.4487 -0.4390
23750SOL    HW283310   7.834   2.462   8.023  0.4202 -0.3672  1.4000
23751SOL     OW83311   8.863   4.153   0.650 -0.4689 -0.1305 -0.6277
23751SOL    HW183312   8.879   4.223   0.581 -0.7099 -0.1606 -0.7122
23751SOL    HW283313   8.935   4.158   0.720 -0.1801 -0.1578 -0.9242
23752SOL     OW83314   7.853   5.114   5.830 -0.2815 -0.4623 -0.4358
23752SOL    HW183315   7.929   5.049   5.836  1.0719  0.8840 -2.2254
23752SOL    HW283316   7.888   5.207   5.842 -1.4069  0.2817 -2.6194
23753SOL     OW83317   1.692   6.157   6.312 -0.6973  0.1365 -0.9257
23753SOL    HW183318   1.758   6.195   6.377  2.0418 -2.2862 -2.1804
23753SOL    HW283319   1.640   6.085   6.357  1.0533 -1.3964 -1.2740
23754SOL     OW83320   9.382   1.805   8.343 -0.2046 -0.1004  0.4271
23754SOL    HW183321   9.361   1.775   8.436  1.1768 -0.3145  0.6855
23754SOL    HW283322   9.469   1.854   8.343 -0.6922  0.7913 -0.5932
23755SOL     OW83323   8.781   9.303   7.184  1.2134 -0.5455 -0.4173
23755SOL    HW183324   8.857   9.291   7.248  0.9172  2.1456  0.5054
23755SOL    HW283325   8.698   9.263   7.223  1.2285  0.3108  0.5303
23756SOL     OW83326   1.355   8.462   7.007 -0.2682  0.2185 -0.2313
23756SOL    HW183327   1.290   8.395   6.970 -0.4720 -0.0191  0.5642
23756SOL    HW283328   1.305   8.534   7.055 -0.0453  0.9059 -1.0048
23757SOL     OW83329   4.623   9.220   7.953 -0.1621 -0.8793 -0.8040
23757SOL    HW183330   4.681   9.204   7.873  1.4192  0.8501 -0.0656
23757SOL    HW283331   4.664   9.176   8.033 -0.3980 -0.5037 -0.4721
23758SOL     OW83332   0.868   7.123   0.319  0.1722  0.1370 -0.0561
23758SOL    HW183333   0.827   7.034   0.338 -1.7854  1.2399  1.0973
23758SOL    HW283334   0.946   7.138   0.380  0.3857 -0.7002 -0.1181
23759SOL     OW83335   7.577   8.214   0.735  0.4085 -0.4163 -0.0997
23759SOL    HW183336   7.657   8.271   0.717  0.0593 -0.4655 -1.9539
23759SOL    HW283337   7.587   8.126   0.688 -2.2617  0.9033 -3.3851
23760SOL     OW83338   2.482   1.618   0.048  0.3086 -0.1789  0.2112
23760SOL    HW183339   2.485   1.711   0.085 -1.8278 -0.1159  0.2633
23760SOL    HW283340   2.416   1.614  -0.027  1.2500 -1.3847 -0.5756
23761SOL     OW83341   9.018   5.803   1.203  0.4597 -0.0833 -0.4457
23761SOL    HW183342   9.094   5.740   1.188  0.0373 -0.8789  0.6610
23761SOL    HW283343   9.039   5.861   1.282  0.5056  0.6222 -0.9769
23762SOL     OW83344   6.052   6.702   3.619 -0.3190  0.5690  0.2161
23762SOL    HW183345   5.994   6.715   3.538 -1.7983  0.4482  1.2286
23762SOL    HW283346   6.012   6.751   3.696  0.6009 -0.0460  1.0963
23763SOL     OW83347   3.980   6.705   7.785 -0.0556  0.0129 -0.0622
23763SOL    HW183348   3.934   6.791   7.762  1.0293  0.6672  0.1612
23763SOL    HW283349   3.949   6.673   7.874  0.8561  1.1263  0.6682
23764SOL     OW83350   7.674   6.426   8.604  0.4442 -0.8790  0.4679
23764SOL    HW183351   7.727   6.355   8.651 -1.9616 -1.4806  2.3685
23764SOL    HW283352   7.735   6.498   8.572  2.4745 -1.9311  1.8995
23765SOL     OW83353   0.764   5.595   1.658 -0.1716  0.2500 -0.3720
23765SOL    HW183354   0.682   5.647   1.637 -1.3382 -2.6799 -3.4829
23765SOL    HW283355   0.843   5.657   1.664 -1.5413  2.3915 -3.5767
23766SOL     OW83356   5.435   1.707   0.249 -0.3576  0.4531 -0.5360
23766SOL    HW183357   5.416   1.726   0.152  0.0929  0.0091 -0.7164
23766SOL    HW283358   5.409   1.613   0.270 -0.1644  0.4511 -0.3076
23767SOL     OW83359   6.216   4.701   8.182  0.2742  0.0494  0.2447
23767SOL    HW183360   6.187   4.789   8.220  1.3182 -0.2451  1.7918
23767SOL    HW283361   6.277   4.655   8.247 -0.3586 -1.8786 -0.4783
23768SOL     OW83362   6.267   1.887   9.041  0.1308 -0.0422  0.2744
23768SOL    HW183363   6.322   1.955   9.089  0.3137  0.7356 -1.0108
23768SOL    HW283364   6.315   1.799   9.039  0.9720  0.4178 -0.1234
23769SOL     OW83365   2.178   8.977   8.597  0.4060  0.1073 -0.1678
23769SOL    HW183366   2.089   9.001   8.558  0.2697  0.2988  0.2578
23769SOL    HW283367   2.164   8.925   8.681  0.6989 -0.0684 -0.2263
23770SOL     OW83368   0.878   9.523   6.825  0.6114  0.1599  0.5082
23770SOL    HW183369   0.867   9.434   6.870 -0.7375 -0.6378 -1.3045
23770SOL    HW283370   0.965   9.525   6.776  2.5808  1.4208  3.8781
23771SOL     OW83371   2.187   3.704   8.994 -0.0008  0.2923 -0.5280
23771SOL    HW183372   2.269   3.761   8.988  0.6030 -0.4926  0.1303
23771SOL    HW283373   2.211   3.608   8.981 -0.8837  0.0994 -0.7837
23772SOL     OW83374   1.551   6.540   3.483 -0.0947  0.0111 -0.3327
23772SOL    HW183375   1.583   6.612   3.421  0.2297 -0.5109 -0.7831
23772SOL    HW283376   1.463   6.505   3.450 -2.0057  2.5883  1.8266
23773SOL     OW83377   9.167   8.695   7.113  0.0659  0.5085  1.1151
23773SOL    HW183378   9.102   8.761   7.076  0.1541 -0.1612 -0.2887
23773SOL    HW283379   9.129   8.603   7.103  1.3252  0.0878  0.0367
23774SOL     OW83380   9.667   9.065   2.606 -0.5413  0.7877  0.0147
23774SOL    HW183381   9.702   9.156   2.628 -1.1285  0.7924  0.9713
23774SOL    HW283382   9.669   9.007   2.688 -1.5721  0.4040 -0.2143
23775SOL     OW83383   6.587   6.608   9.624  0.0875 -0.0772 -0.0811
23775SOL    HW183384   6.515   6.585   9.690  1.1224 -1.8679  0.4483
23775SOL    HW283385   6.619   6.701   9.641 -0.9601  0.1499  0.7293
23776SOL     OW83386   8.765   1.798   1.458 -0.1494 -0.1291  0.1557
23776SOL    HW183387   8.790   1.759   1.369 -0.8022  1.6577 -0.8576
23776SOL    HW283388   8.680   1.851   1.448 -0.0759  0.3124  1.7862
23777SOL     OW83389   9.894   6.805   8.853 -0.4357 -0.2419 -0.0425
23777SOL    HW183390   9.933   6.759   8.932  1.2812  1.1817 -0.0382
23777SOL    HW283391   9.967   6.849   8.800 -1.8252  0.8343 -1.1105
23778SOL     OW83392   7.000   3.722   5.811 -0.7022 -0.1569 -0.3788
23778SOL    HW183393   6.990   3.814   5.850  0.0470 -1.0344  1.9965
23778SOL    HW283394   6.921   3.702   5.754 -1.7806  1.2820  0.5526
23779SOL     OW83395   0.292   6.795   6.781  0.2830  0.9813  0.0316
23779SOL    HW183396   0.220   6.726   6.771 -0.9334  2.0180  1.3376
23779SOL    HW283397   0.375   6.752   6.815 -0.4172  0.1334  0.6963
23780SOL     OW83398   5.561   4.988   6.735  0.8118  0.0197  0.0392
23780SOL    HW183399   5.504   5.058   6.691  0.7487  0.2700  0.5211
23780SOL    HW283400   5.636   5.031   6.784 -0.4643 -0.0967  2.1611
23781SOL     OW83401   8.489   7.646   0.066 -0.4239 -0.2782  0.0927
23781SOL    HW183402   8.402   7.640   0.117  0.6824 -0.5985  1.9977
23781SOL    HW283403   8.514   7.742   0.053 -0.0010 -0.2028  1.4231
23782SOL     OW83404   6.522   9.337   1.767  0.2032 -0.1819 -0.4213
23782SOL    HW183405   6.601   9.382   1.725 -0.6569  2.9525  1.1638
23782SOL    HW283406   6.452   9.405   1.788 -1.0099 -2.2030  2.4718
23783SOL     OW83407   5.813   4.159   9.607  0.3860  0.3854 -0.0745
23783SOL    HW183408   5.756   4.238   9.584 -2.2969 -1.5731 -0.4302
23783SOL    HW283409   5.760   4.075   9.595  2.4922 -1.3669  2.3747
23784SOL     OW83410   8.038   6.166   6.001  0.0216  0.1990  0.2983
23784SOL    HW183411   7.950   6.194   5.962 -0.8338 -1.7403  0.7876
23784SOL    HW283412   8.069   6.083   5.955  0.3539 -0.5516  1.8448
23785SOL     OW83413   3.733   4.518   0.490  0.4723 -0.0489 -0.1303
23785SOL    HW183414   3.686   4.499   0.576 -0.6455  1.3606 -0.4014
23785SOL    HW283415   3.827   4.548   0.509  0.2836  0.0885  0.5952
23786SOL     OW83416   7.970   3.567   0.536 -0.1556  0.0784 -0.2917
23786SOL    HW183417   7.993   3.644   0.476  0.0041  0.5695  0.3940
23786SOL    HW283418   8.054   3.521   0.566 -0.1880  0.3689  0.2510
23787SOL     OW83419   0.077   8.961   9.701  0.1633 -0.1415  0.5576
23787SOL    HW183420   0.106   8.943   9.607  1.3236  2.3812  0.3980
23787SOL    HW283421   0.153   8.941   9.763  0.2509  0.6472  0.7073
23788SOL     OW83422   9.969   0.516   6.215  0.9402 -0.3107  0.1784
23788SOL    HW183423   9.915   0.579   6.270  0.0510 -0.4577 -0.5269
23788SOL    HW283424   9.972   0.547   6.120  2.8643  0.1924  0.3896
23789SOL     OW83425   0.256   3.896   7.664  0.8466 -0.1691  0.3004
23789SOL    HW183426   0.289   3.858   7.750  0.2406 -2.2139 -0.3307
23789SOL    HW283427   0.293   3.843   7.588  1.0769  1.3818 -0.7022
23790SOL     OW83428   7.019   2.989   5.707  0.0357 -0.0292 -0.5416
23790SOL    HW183429   6.964   3.061   5.750  1.1455  0.7987 -0.4856
23790SOL    HW283430   7.109   2.986   5.751  0.1205 -1.2143 -0.7887
23791SOL     OW83431   0.049   3.598   0.931  0.8590  0.0514 -0.1277
23791SOL    HW183432   0.104   3.635   1.005  0.5716  0.4968 -0.1375
23791SOL    HW283433  -0.037   3.563   0.969  0.9072 -0.1358 -0.1895
23792SOL     OW83434   8.305   3.596   0.305  0.4385  0.8014 -0.0527
23792SOL    HW183435   8.350   3.539   0.236 -0.0665  0.8552 -0.4326
23792SOL    HW283436   8.364   3.673   0.328  0.4775  0.9638 -0.6698
23793SOL     OW83437   9.359   4.018   2.916 -0.5287 -0.4127 -0.4170
23793SOL    HW183438   9.379   4.116   2.927  0.1581 -0.6952  0.9239
23793SOL    HW283439   9.261   4.004   2.911 -0.7253  0.1490  1.4684
23794SOL     OW83440   3.626   7.309   3.760  0.0773 -0.6358  0.3349
23794SOL    HW183441   3.685   7.381   3.795 -0.1471 -0.7786  1.0123
23794SOL    HW283442   3.573   7.345   3.682  0.2870 -0.2016  0.3896
23795SOL     OW83443   4.921   9.403   5.517  0.1499 -0.4288  0.2355
23795SOL    HW183444   4.841   9.379   5.461  0.1367 -1.6192  0.7446
23795SOL    HW283445   4.901   9.485   5.570 -0.0790  0.3227 -0.9905
23796SOL     OW83446   9.379   1.621   5.906 -0.8268 -0.1658  0.0922
23796SOL    HW183447   9.397   1.720   5.899 -1.1336 -0.0710  0.6263
23796SOL    HW283448   9.323   1.592   5.829 -0.1056 -0.0661 -0.4760
23797SOL     OW83449   4.629   6.846   1.322 -0.2505  0.2103 -0.2737
23797SOL    HW183450   4.546   6.793   1.336 -0.1733  0.0880 -0.2842
23797SOL    HW283451   4.643   6.862   1.224 -0.0190 -0.1535 -0.3002
23798SOL     OW83452   9.910   3.800   4.192 -0.0674 -0.4188  0.5649
23798SOL    HW183453   9.926   3.723   4.131 -0.9799 -0.4808  0.3956
23798SOL    HW283454   9.853   3.868   4.146  0.4063  0.1705  0.8515
23799SOL     OW83455   6.890   4.666   9.101  0.2386  0.0447 -0.4438
23799SOL    HW183456   6.956   4.637   9.031  0.3073  0.8157 -0.6990
23799SOL    HW283457   6.860   4.586   9.153  0.2388 -0.5290 -1.3102
23800SOL     OW83458   1.556   0.403   1.957  0.2782  0.2577  0.1387
23800SOL    HW183459   1.631   0.344   1.927  0.8009  1.5214 -1.0630
23800SOL    HW283460   1.469   0.364   1.927  0.6272  0.1291 -0.7302
23801SOL     OW83461   7.624   3.662   7.023  0.1248  0.1035  0.4485
23801SOL    HW183462   7.638   3.685   7.120 -0.9793  1.3764  0.3157
23801SOL    HW283463   7.588   3.569   7.016  2.3686 -0.8623  1.1218
23802SOL     OW83464   2.062   4.697   5.529 -0.0431  0.4041  0.3342
23802SOL    HW183465   2.039   4.606   5.495  1.2438  0.1005  0.2684
23802SOL    HW283466   1.992   4.762   5.500  0.3236 -0.1009 -1.7409
23803SOL     OW83467   7.583   3.966   7.168 -0.3620 -0.3881 -0.0518
23803SOL    HW183468   7.598   3.875   7.206  1.8155  0.6196  1.6328
23803SOL    HW283469   7.667   3.999   7.126 -0.5566  1.5847  1.0399
23804SOL     OW83470   3.768   7.603   5.357  0.7334  0.1169 -0.3386
23804SOL    HW183471   3.705   7.638   5.288  0.9044  2.1772  0.5043
23804SOL    HW283472   3.719   7.589   5.443  0.8107 -1.1302 -0.4899
23805SOL     OW83473   8.966   7.988   9.635 -0.1966 -0.3393 -0.5045
23805SOL    HW183474   8.946   8.038   9.720  0.3771  0.2898 -0.7382
23805SOL    HW283475   9.061   7.956   9.636  0.1260  0.5763 -1.3656
23806SOL     OW83476   6.761   6.492   0.548  0.3641 -0.0325  0.4599
23806SOL    HW183477   6.666   6.520   0.533  0.5764  1.2944  1.4499
23806SOL    HW283478   6.821   6.570   0.530  1.4393 -1.4175 -2.0815
23807SOL     OW83479   5.104   2.538   6.790 -0.7414  0.5657  0.8436
23807SOL    HW183480   5.156   2.573   6.713 -0.8171 -1.6651 -0.2643
23807SOL    HW283481   5.166   2.522   6.867 -0.1795  0.1763  0.3179
23808SOL     OW83482   0.664   3.607   8.611 -0.4035  0.2454  0.4438
23808SOL    HW183483   0.641   3.704   8.602 -0.6497  0.1119 -0.4883
23808SOL    HW283484   0.707   3.591   8.699 -0.3471  1.2083  0.6001
23809SOL     OW83485   7.519   2.679   5.975  0.9145  0.4077  0.6328
23809SOL    HW183486   7.533   2.582   5.957  0.8516  0.2774  1.2851
23809SOL    HW283487   7.423   2.702   5.959  1.1678  0.6292 -0.7082
23810SOL     OW83488   6.288   8.605   5.417  0.3818 -0.0694 -0.0532
23810SOL    HW183489   6.334   8.638   5.499  0.1779 -0.3729  0.1863
23810SOL    HW283490   6.299   8.671   5.343 -0.9548  1.0507  0.7235
23811SOL     OW83491   9.216   7.231   7.796 -0.0767  0.9532  0.5705
23811SOL    HW183492   9.192   7.295   7.868  0.7095  0.6873  1.0818
23811SOL    HW283493   9.274   7.276   7.728  0.3158  0.8448  0.8283
23812SOL     OW83494   7.433   8.864   3.706 -0.2007  0.4543 -0.8760
23812SOL    HW183495   7.500   8.841   3.636 -0.3231  0.0011 -0.8474
23812SOL    HW283496   7.379   8.943   3.677 -0.3870  0.1441 -1.3822
23813SOL     OW83497   7.033   6.739   1.583  0.0020  0.1184 -0.2174
23813SOL    HW183498   6.959   6.792   1.626  0.0847 -0.0733  0.1607
23813SOL    HW283499   7.121   6.770   1.619  0.0508 -0.2796  0.0044
23814SOL     OW83500   5.711   6.348   6.188 -0.0025  0.7165  0.2800
23814SOL    HW183501   5.663   6.430   6.155 -0.2422  1.1340  1.6435
23814SOL    HW283502   5.683   6.269   6.133 -1.4465  1.1527  0.3751
23815SOL     OW83503   8.370   6.896   3.981  0.2886  0.1698  0.2528
23815SOL    HW183504   8.384   6.797   3.991 -0.7837 -0.0974 -0.6631
23815SOL    HW283505   8.424   6.929   3.904  1.0177  0.3891  0.8586
23816SOL     OW83506   7.551   4.298   9.366 -0.0146  0.2222  0.1231
23816SOL    HW183507   7.457   4.332   9.376  0.0578  0.1596  1.1038
23816SOL    HW283508   7.568   4.228   9.435  0.1718 -1.0835 -1.2427
23817SOL     OW83509   0.795   4.498   3.117  0.0177 -0.5296 -0.1016
23817SOL    HW183510   0.707   4.487   3.071  0.5834 -0.6418 -1.1744
23817SOL    HW283511   0.830   4.409   3.144 -0.4251 -0.4442  0.7670
23818SOL     OW83512   7.221   6.158   8.478 -0.1145 -0.0949  0.1399
23818SOL    HW183513   7.146   6.162   8.545 -0.5839 -0.2011 -0.3783
23818SOL    HW283514   7.294   6.219   8.507 -1.6013  2.2061 -0.8069
23819SOL     OW83515   1.505   6.075   0.478 -0.3698 -0.4457 -0.1932
23819SOL    HW183516   1.521   6.173   0.482  2.1314 -0.8891  2.3416
23819SOL    HW283517   1.430   6.051   0.540  0.1888 -0.3290  0.5341
23820SOL     OW83518   2.322   4.096   1.421 -0.0243 -0.0163 -0.5721
23820SOL    HW183519   2.333   4.155   1.342  0.1260  2.0119  0.9370
23820SOL    HW283520   2.407   4.047   1.438  0.4982  0.8652 -0.6192
23821SOL     OW83521   1.782   8.454   2.828 -0.0935 -0.7296  1.3402
23821SOL    HW183522   1.847   8.487   2.760 -1.7239 -1.3956 -0.5942
23821SOL    HW283523   1.732   8.532   2.867 -1.2699 -0.5758 -0.4407
23822SOL     OW83524   8.524   6.756   6.203  0.2730  0.2097  0.7330
23822SOL    HW183525   8.609   6.705   6.190  0.3539  0.7811 -1.0918
23822SOL    HW283526   8.503   6.809   6.120 -2.2000 -0.4357  0.9047
23823SOL     OW83527   9.329   0.540   9.466 -0.0623  0.2986  0.1877
23823SOL    HW183528   9.251   0.600   9.485  1.1734  1.6556  1.1323
23823SOL    HW283529   9.345   0.480   9.544 -0.8035 -0.7355 -0.4372
23824SOL     OW83530   8.901   7.967   5.673  0.2798  0.2561  0.0745
23824SOL    HW183531   8.808   7.962   5.707  0.2897  1.6469  0.3340
23824SOL    HW283532   8.958   7.901   5.721 -0.9718 -2.0144 -1.4674
23825SOL     OW83533   5.805   5.232   6.599  0.4220  0.0320  0.2724
23825SOL    HW183534   5.743   5.269   6.668 -0.7474 -0.1304 -0.6843
23825SOL    HW283535   5.756   5.169   6.540  1.1232  1.0461 -1.4400
23826SOL     OW83536   2.650   3.427   2.154  0.0647  0.1473  0.5623
23826SOL    HW183537   2.660   3.339   2.201  0.0631  0.1669  0.5990
23826SOL    HW283538   2.662   3.413   2.055 -1.2009 -0.0984  0.4451
23827SOL     OW83539   5.282   1.129   2.075 -0.1130 -0.1013  0.0832
23827SOL    HW183540   5.263   1.217   2.119 -0.3152  0.1724 -0.5378
23827SOL    HW283541   5.306   1.144   1.979 -0.6393 -0.7565 -0.1633
23828SOL     OW83542   5.804   9.412   1.373 -0.2605  0.0356 -0.1614
23828SOL    HW183543   5.848   9.498   1.397  0.9876 -0.3351 -1.0745
23828SOL    HW283544   5.819   9.392   1.276 -0.5731 -1.1991  0.0278
23829SOL     OW83545   8.118   5.076   6.222 -0.1960 -0.2189  0.3957
23829SOL    HW183546   8.207   5.118   6.202 -0.8148  1.3067  0.7309
23829SOL    HW283547   8.102   5.076   6.320 -1.3747  1.2795  0.2250
23830SOL     OW83548   1.807   0.021   3.863 -0.3215 -0.3496  0.3951
23830SOL    HW183549   1.881  -0.044   3.843 -0.4458 -0.5738  0.6683
23830SOL    HW283550   1.735   0.010   3.794 -0.2721 -0.3940  0.3503
23831SOL     OW83551   4.935   7.868   3.539 -0.3982  0.1190 -0.7689
23831SOL    HW183552   4.844   7.863   3.496 -0.2463 -0.6413 -1.0111
23831SOL    HW283553   4.946   7.791   3.602 -0.0618  0.4196 -0.4613
23832SOL     OW83554   7.493   3.346   5.689 -0.8197  0.1032  0.5114
23832SOL    HW183555   7.510   3.284   5.613  0.5563 -1.4811  2.0499
23832SOL    HW283556   7.453   3.431   5.655  0.5922 -0.2090 -2.0815
23833SOL     OW83557   3.365   6.566   3.027 -0.1712  0.1633  0.2306
23833SOL    HW183558   3.305   6.496   3.065  0.1844  0.2191  0.9180
23833SOL    HW283559   3.460   6.547   3.055  0.1186  0.1475 -0.7296
23834SOL     OW83560   8.769   2.666   1.241  0.7849 -0.4343 -0.0549
23834SOL    HW183561   8.715   2.745   1.270  0.1241 -0.6161 -0.7819
23834SOL    HW283562   8.766   2.595   1.312  0.7098 -0.1382  0.2383
23835SOL     OW83563   6.869   7.702   5.580 -0.4831 -0.3466  0.3651
23835SOL    HW183564   6.917   7.772   5.527  1.8862 -1.9321  0.3519
23835SOL    HW283565   6.812   7.747   5.650 -0.5138  1.6236 -0.8842
23836SOL     OW83566   7.384   1.433   9.729  0.0125 -0.3517 -0.1158
23836SOL    HW183567   7.344   1.342   9.733 -0.7780  0.0245  0.7879
23836SOL    HW283568   7.313   1.501   9.745  1.0205  0.3333  1.5111
23837SOL     OW83569   6.990   6.620   0.538  0.2896 -0.4177 -0.4658
23837SOL    HW183570   7.006   6.680   0.616  0.0063 -0.0478 -0.6878
23837SOL    HW283571   7.008   6.525   0.564 -0.3092 -0.3580  0.2031
23838SOL     OW83572   0.734   9.344   2.928  0.0222 -0.0761 -0.0746
23838SOL    HW183573   0.833   9.351   2.918 -0.1709  1.2508 -1.1715
23838SOL    HW283574   0.707   9.384   3.016  0.6218 -2.1345  1.0921
23839SOL     OW83575   5.544   3.940   8.321 -0.7767  0.0887  0.2855
23839SOL    HW183576   5.598   3.911   8.400  0.3145  2.3604  0.4010
23839SOL    HW283577   5.450   3.959   8.351 -0.1725  1.7182  1.2197
23840SOL     OW83578   7.430   4.798   0.240 -0.1373  0.0923 -0.3289
23840SOL    HW183579   7.498   4.830   0.174 -1.1757  0.2056 -1.3612
23840SOL    HW283580   7.354   4.755   0.192 -0.7188 -0.2028  0.8236
23841SOL     OW83581   0.196   4.130   4.859 -0.1058 -0.0304 -0.1760
23841SOL    HW183582   0.132   4.205   4.876 -0.8196 -0.0699 -2.5382
23841SOL    HW283583   0.234   4.138   4.767  1.6679 -1.2191  0.4349
23842SOL     OW83584   4.480   1.785   8.890  0.8839 -0.3124  0.2420
23842SOL    HW183585   4.553   1.778   8.822 -1.6068 -1.9352 -2.3593
23842SOL    HW283586   4.401   1.732   8.860 -0.9890  0.4681  3.5468
23843SOL     OW83587   7.251   1.859   9.209  0.1613  0.3544 -0.2432
23843SOL    HW183588   7.303   1.932   9.164 -0.3504  0.6587 -0.3409
23843SOL    HW283589   7.179   1.900   9.265 -1.2168 -0.1384 -1.6346
23844SOL     OW83590   1.971   7.671   2.893  0.7147 -0.1245 -0.2021
23844SOL    HW183591   2.011   7.639   2.979  1.9142  0.5715 -0.4966
23844SOL    HW283592   2.043   7.686   2.826 -0.1687 -0.1378 -1.1647
23845SOL     OW83593   2.365   4.664   1.818 -0.4115 -0.1050  0.1880
23845SOL    HW183594   2.392   4.645   1.912  0.3113  0.2485  0.0525
23845SOL    HW283595   2.332   4.579   1.775  2.7910 -1.1199 -0.4082
23846SOL     OW83596   8.226   3.219   8.207 -0.4829  0.1492  0.5091
23846SOL    HW183597   8.139   3.228   8.257 -0.9280 -0.8504 -0.0668
23846SOL    HW283598   8.225   3.134   8.155  0.8814  0.1005  0.5529
23847SOL     OW83599   7.232   4.990   2.194 -0.4352 -0.3969  0.2226
23847SOL    HW183600   7.278   4.941   2.268 -0.7251  0.4261  0.9470
23847SOL    HW283601   7.194   4.923   2.129 -0.5619 -1.1330  1.0392
23848SOL     OW83602   9.107   3.846   1.206 -0.0950 -0.0594  0.3046
23848SOL    HW183603   9.096   3.921   1.140 -3.9697 -1.2830 -0.6244
23848SOL    HW283604   9.159   3.772   1.164 -1.2126 -0.1954 -0.8868
23849SOL     OW83605   7.686   7.396   7.682  0.2984 -0.0578 -0.4489
23849SOL    HW183606   7.738   7.312   7.695  0.7172  0.2695  0.0374
23849SOL    HW283607   7.670   7.411   7.585  1.9268  0.3118 -0.6796
23850SOL     OW83608   1.011   4.017   7.582 -0.3297  0.2838  0.1187
23850SOL    HW183609   0.983   4.113   7.585  1.9443  0.9772  0.1674
23850SOL    HW283610   1.106   4.011   7.554 -0.5334 -2.0026 -0.1896
23851SOL     OW83611   1.046   3.979   8.450 -0.0849  0.2193 -0.2647
23851SOL    HW183612   1.010   3.923   8.524  3.3780  0.3908  1.6634
23851SOL    HW283613   1.069   3.921   8.372 -1.0796 -0.3532 -0.1368
23852SOL     OW83614   0.169   3.756   1.151 -0.1103 -0.2865  0.7235
23852SOL    HW183615   0.198   3.810   1.230 -0.6767  0.9017  0.1239
23852SOL    HW283616   0.186   3.808   1.067  0.8353 -1.6913  0.0236
23853SOL     OW83617   9.606   6.772   8.894 -0.2066  0.0231 -0.0259
23853SOL    HW183618   9.584   6.676   8.909  1.2423 -0.3502 -0.1600
23853SOL    HW283619   9.700   6.789   8.925 -0.2181  1.2280 -0.6540
23854SOL     OW83620   9.743   5.419   7.225 -0.1104 -0.0340 -0.3886
23854SOL    HW183621   9.841   5.432   7.210  0.0521 -0.1422  0.5286
23854SOL    HW283622   9.696   5.417   7.138  0.7078  0.0232 -0.8389
23855SOL     OW83623   1.916   0.389   0.736  0.2020  0.4284  0.6461
23855SOL    HW183624   1.895   0.339   0.820 -0.2515  0.9551  0.8470
23855SOL    HW283625   2.003   0.356   0.699 -0.7570 -1.4688  0.0211
23856SOL     OW83626   4.310   1.199   6.238  0.5012  0.3479  0.0401
23856SOL    HW183627   4.344   1.153   6.156  0.9847  0.3370  0.2479
23856SOL    HW283628   4.237   1.144   6.279  0.5255  0.1645 -0.1648
23857SOL     OW83629   5.659   1.107   0.182 -0.0041  0.0313  0.0038
23857SOL    HW183630   5.597   1.141   0.253  0.0469  0.0720  0.0285
23857SOL    HW283631   5.727   1.046   0.224  2.1143  2.6607  0.5379
23858SOL     OW83632   9.194   6.749   9.419 -0.0290 -0.1852 -0.1589
23858SOL    HW183633   9.140   6.796   9.349  0.4788  0.3229 -0.2069
23858SOL    HW283634   9.270   6.701   9.376 -1.0650 -1.8102 -0.2157
23859SOL     OW83635   0.418   3.852   0.274  0.1034 -0.4859  0.2444
23859SOL    HW183636   0.325   3.878   0.251  0.3422 -0.8926 -1.2314
23859SOL    HW283637   0.481   3.889   0.205  0.7411 -2.4336 -0.2507
23860SOL     OW83638   5.914   9.274   0.331 -0.1988  0.3823  0.8256
23860SOL    HW183639   5.912   9.241   0.237 -2.5906  1.0912  0.6021
23860SOL    HW283640   5.951   9.367   0.333 -3.6386  1.8294  0.0695
23861SOL     OW83641   0.812   3.445   7.195  0.1751  0.0214  0.1887
23861SOL    HW183642   0.785   3.506   7.120  1.2762  0.0513 -0.1924
23861SOL    HW283643   0.901   3.404   7.174 -0.0477 -0.8603  0.9568
23862SOL     OW83644   5.327   6.837   9.399  0.4613 -0.4756 -0.1427
23862SOL    HW183645   5.250   6.829   9.462  0.9207 -0.8796  0.3678
23862SOL    HW283646   5.399   6.774   9.426  0.4212 -1.0873 -1.4334
23863SOL     OW83647   1.670   7.233   7.124  0.3232 -0.0204  0.3068
23863SOL    HW183648   1.650   7.220   7.027 -1.1777 -0.6710  0.6860
23863SOL    HW283649   1.756   7.187   7.147  0.1533 -0.7422 -0.4886
23864SOL     OW83650   5.627   7.743   7.272  0.0138 -0.1959 -0.5325
23864SOL    HW183651   5.583   7.655   7.286  0.8418 -0.2755  1.8422
23864SOL    HW283652   5.616   7.799   7.354 -0.0022  1.7004 -1.7911
23865SOL     OW83653   9.430   1.045   1.385  0.6157 -0.1293  0.1776
23865SOL    HW183654   9.372   1.123   1.409 -0.1876 -1.1672  1.7244
23865SOL    HW283655   9.373   0.962   1.381  1.5994 -0.7664 -0.5891
23866SOL     OW83656   6.018   4.341   9.263  0.2488 -0.0330 -0.0981
23866SOL    HW183657   5.949   4.400   9.222  0.0829 -0.5969 -0.6443
23866SOL    HW283658   6.102   4.344   9.208 -0.0751 -1.0231 -0.6536
23867SOL     OW83659   0.476   5.049   0.267  0.1776  0.3375  0.5702
23867SOL    HW183660   0.451   4.971   0.210  2.1698 -0.2345  0.4320
23867SOL    HW283661   0.499   5.126   0.207  1.3315  0.0311  0.6044
23868SOL     OW83662   0.846   2.142   3.177  0.0965 -0.1709  0.2595
23868SOL    HW183663   0.874   2.055   3.216  1.5084 -0.5144 -1.4129
23868SOL    HW283664   0.767   2.128   3.117  0.8861 -0.4949 -0.7319
23869SOL     OW83665   7.524   6.777   0.315 -0.0914 -0.0390 -0.1490
23869SOL    HW183666   7.428   6.803   0.317  0.2258  1.0502  0.9960
23869SOL    HW283667   7.543   6.730   0.228 -1.1761  1.5489 -1.2701
23870SOL     OW83668   7.731   1.767   0.740  0.1130 -0.0891  0.2292
23870SOL    HW183669   7.706   1.670   0.752  2.7087 -0.9350 -0.7926
23870SOL    HW283670   7.678   1.806   0.665 -1.8200 -0.3652  1.4296
23871SOL     OW83671   6.141   0.287   0.574 -0.0891  0.2116  0.3091
23871SOL    HW183672   6.091   0.355   0.628 -1.0856 -0.8381  0.7243
23871SOL    HW283673   6.111   0.292   0.479  1.8790  2.2649 -0.2577
23872SOL     OW83674   5.024   3.769   0.598  0.5660  0.4739  0.3559
23872SOL    HW183675   5.082   3.689   0.582  0.9829  0.8188  0.1577
23872SOL    HW283676   5.010   3.818   0.513 -0.2219  0.2540  0.3564
23873SOL     OW83677   9.635   6.959   5.054  0.3364  0.0741  0.1217
23873SOL    HW183678   9.574   6.892   5.097  1.5602  0.7213  3.0056
23873SOL    HW283679   9.723   6.916   5.035  0.2239  0.1412 -0.5411
23874SOL     OW83680   6.115   2.812   0.722  0.0886  0.4352 -0.1295
23874SOL    HW183681   6.072   2.722   0.715  0.7353  0.0384  0.7675
23874SOL    HW283682   6.184   2.822   0.651  0.0427  0.2024 -0.2068
23875SOL     OW83683   0.262   6.423   9.116  0.5689 -0.2623 -0.0925
23875SOL    HW183684   0.308   6.379   9.039 -1.0443 -0.1027 -1.1716
23875SOL    HW283685   0.225   6.353   9.177 -1.4688 -0.4300 -1.4908
23876SOL     OW83686   2.478   9.387   6.588  0.3698 -0.1010  0.1917
23876SOL    HW183687   2.430   9.307   6.623  0.0483  0.3638  0.8140
23876SOL    HW283688   2.457   9.466   6.644  0.6718  0.4311 -0.4354
23877SOL     OW83689   6.672   3.453   0.812 -0.5088  0.3589  0.3328
23877SOL    HW183690   6.595   3.391   0.831 -0.3651 -0.4135 -1.4958
23877SOL    HW283691   6.639   3.531   0.760  0.1460 -0.6737 -1.7002
23878SOL     OW83692   5.706   4.545   9.863 -0.4128  0.6616  0.0479
23878SOL    HW183693   5.680   4.562   9.958 -0.4786  2.1259 -0.2185
23878SOL    HW283694   5.805   4.553   9.854 -0.4776  1.2425 -0.1481
23879SOL     OW83695   3.223   3.600   5.657 -0.0480 -0.5895  0.4698
23879SOL    HW183696   3.141   3.589   5.714  0.2022  1.1626  1.2061
23879SOL    HW283697   3.295   3.645   5.711  0.9075 -0.8046 -0.6073
23880SOL     OW83698   8.594   1.918   8.526 -0.5743  0.2225  0.2033
23880SOL    HW183699   8.671   1.887   8.471 -0.1033 -0.6283  1.3341
23880SOL    HW283700   8.512   1.924   8.468  1.0094  4.3598 -1.8127
23881SOL     OW83701   8.034   2.365   9.567 -0.2564 -0.6066  0.1349
23881SOL    HW183702   8.106   2.305   9.599  1.3451  2.1642  1.9337
23881SOL    HW283703   8.012   2.432   9.638 -1.6694  1.2116 -1.9480
23882SOL     OW83704   9.370   1.800   1.351 -0.2570 -0.4072  0.4556
23882SOL    HW183705   9.283   1.829   1.312  0.0775 -0.9409 -0.7012
23882SOL    HW283706   9.407   1.873   1.408 -0.3773  0.6764 -0.8397
23883SOL     OW83707   4.100   3.335   4.765 -0.0001  0.2933 -0.2154
23883SOL    HW183708   4.097   3.379   4.675  0.3747 -1.0492 -0.8884
23883SOL    HW283709   4.031   3.378   4.825  2.1038  3.5643 -0.0176
23884SOL     OW83710   9.960   4.540   9.662  0.0011  0.2069 -0.6032
23884SOL    HW183711  10.020   4.573   9.734  0.2834  0.0321 -0.7603
23884SOL    HW283712   9.878   4.499   9.703 -0.0948  0.5979 -0.3949
23885SOL     OW83713   3.415   3.827   9.225 -0.5336 -0.3194  0.2917
23885SOL    HW183714   3.389   3.738   9.188 -1.1218 -0.3682  0.8240
23885SOL    HW283715   3.341   3.893   9.210 -0.5715 -0.2120  0.9321
23886SOL     OW83716   8.638   5.720   8.404 -0.0302 -0.1190  0.2912
23886SOL    HW183717   8.677   5.630   8.383  1.1348  0.7860 -1.5680
23886SOL    HW283718   8.551   5.731   8.356  0.1479 -0.0117 -0.0095
23887SOL     OW83719   5.703   4.717   9.239  0.1262  0.3317 -0.2927
23887SOL    HW183720   5.775   4.684   9.178 -0.2293  1.5148 -1.3775
23887SOL    HW283721   5.740   4.732   9.330  0.9226 -0.4069 -0.4945
23888SOL     OW83722   8.412   3.566   6.118  0.7198 -0.4250 -0.4593
23888SOL    HW183723   8.370   3.477   6.140 -1.4268  0.4464 -0.8344
23888SOL    HW283724   8.439   3.611   6.203 -0.0912 -0.5599 -0.1182
23889SOL     OW83725   0.233   3.354   9.539 -0.5833 -0.6148  0.4992
23889SOL    HW183726   0.294   3.329   9.614 -2.2571 -3.4898  0.9602
23889SOL    HW283727   0.174   3.429   9.568  0.3579 -0.1538  1.2433
23890SOL     OW83728   6.819   2.041   8.615 -0.4974 -0.3961 -0.0902
23890SOL    HW183729   6.807   2.110   8.686 -1.3899 -0.1326 -0.4958
23890SOL    HW283730   6.735   2.034   8.561  0.4135 -0.1237 -1.5416
23891SOL     OW83731   7.865   7.009   6.981  0.1559  0.6919 -0.6246
23891SOL    HW183732   7.921   7.089   6.963  0.6223  0.3310 -0.8075
23891SOL    HW283733   7.770   7.028   6.958 -0.1904  2.0423  1.7764
23892SOL     OW83734   9.041   0.498   1.652  0.2311 -0.4094  0.4610
23892SOL    HW183735   9.021   0.406   1.617 -0.4620  0.0541 -0.4040
23892SOL    HW283736   9.126   0.531   1.611 -0.6463  0.1833 -0.9490
23893SOL     OW83737   7.730   6.673   3.184 -0.5007  0.2569  0.2992
23893SOL    HW183738   7.711   6.639   3.276  0.4831 -0.2710  0.3130
23893SOL    HW283739   7.826   6.655   3.160 -0.9273 -0.2548 -1.0947
23894SOL     OW83740   8.303   2.101   2.398  0.0778 -0.0257 -0.8084
23894SOL    HW183741   8.252   2.071   2.479  1.2200  0.7130  0.2024
23894SOL    HW283742   8.306   2.200   2.395 -1.5833  0.0075 -2.8229
23895SOL     OW83743   9.378   6.804   9.074 -0.3547  0.0807  0.0534
23895SOL    HW183744   9.443   6.825   9.000  1.5188 -1.3528  1.2432
23895SOL    HW283745   9.297   6.760   9.035 -0.3853  1.3695 -1.3921
23896SOL     OW83746   7.294   0.390   9.343 -0.7825  0.1391  0.4788
23896SOL    HW183747   7.390   0.417   9.337 -0.9016  0.9903  2.0588
23896SOL    HW283748   7.256   0.421   9.431 -2.2506 -0.9830  0.2619
23897SOL     OW83749   5.155   5.952   8.533 -0.4414  0.2824 -0.3086
23897SOL    HW183750   5.249   5.981   8.518 -0.4388  0.9811  1.0148
23897SOL    HW283751   5.153   5.882   8.605 -0.8819 -0.0682 -0.6617
23898SOL     OW83752   9.735   1.194   9.491 -0.0547  0.1478  0.9181
23898SOL    HW183753   9.639   1.169   9.500  0.3213 -1.5014  0.4661
23898SOL    HW283754   9.792   1.122   9.529  0.9889  1.7462  2.4570
23899SOL     OW83755   8.275   0.817   1.928 -0.0539 -0.5322  0.2437
23899SOL    HW183756   8.357   0.870   1.908 -0.6801  0.2292 -0.3433
23899SOL    HW283757   8.212   0.873   1.983 -0.5044 -0.8294  0.0355
23900SOL     OW83758   2.712   2.111   9.883 -0.5224  0.0107  0.2852
23900SOL    HW183759   2.753   2.027   9.848 -1.3582 -1.1121  1.9538
23900SOL    HW283760   2.772   2.188   9.862  1.7354 -1.3941  1.3829
23901SOL     OW83761   7.500   6.603   0.088  0.2468 -0.6583  1.0163
23901SOL    HW183762   7.529   6.514   0.124  0.2135 -0.7082  0.9183
23901SOL    HW283763   7.544   6.619  -0.000  0.0790 -0.6746  0.9302
23902SOL     OW83764   8.923   6.270   4.126  0.5301 -0.1331 -0.5459
23902SOL    HW183765   8.868   6.237   4.049 -0.2714 -0.5883  0.2146
23902SOL    HW283766   8.875   6.252   4.211  1.7236 -0.2434  0.1166
23903SOL     OW83767   0.945   8.092   4.633 -0.7919 -0.2247 -0.1235
23903SOL    HW183768   0.930   8.119   4.538 -1.3685 -0.4976 -0.1091
23903SOL    HW283769   1.011   8.155   4.675 -0.2256 -0.3487 -0.8182
23904SOL     OW83770   6.217   7.437   2.783  0.2074  0.2060  0.4542
23904SOL    HW183771   6.254   7.345   2.774  1.6349  0.8435 -0.2401
23904SOL    HW283772   6.227   7.469   2.877  1.2593  0.3069  0.3071
23905SOL     OW83773   2.732   7.007   6.927 -0.2049  0.6479  0.6083
23905SOL    HW183774   2.697   6.927   6.975  0.4199 -0.2122 -0.3407
23905SOL    HW283775   2.698   7.007   6.833 -0.7968  1.8949  0.8207
23906SOL     OW83776   9.955   5.039   0.051  0.0005 -0.2066 -0.3084
23906SOL    HW183777   9.894   5.033  -0.028  1.2788  1.1200 -1.4173
23906SOL    HW283778  10.016   4.960   0.052  1.1602  0.6575 -1.6549
23907SOL     OW83779   7.829   1.033   1.929 -0.1634 -0.5013 -0.4207
23907SOL    HW183780   7.833   1.031   1.829  0.2534 -2.5377 -0.4022
23907SOL    HW283781   7.749   0.981   1.959 -0.8617  0.9756  0.2836
23908SOL     OW83782   6.065   6.719   1.364  0.7945  0.1936 -0.1074
23908SOL    HW183783   6.011   6.786   1.416  1.7014  1.0510 -0.2711
23908SOL    HW283784   6.052   6.734   1.266  0.2476 -0.4907 -0.1488
23909SOL     OW83785   1.458   0.743   5.942 -0.3978 -0.5458  0.5506
23909SOL    HW183786   1.473   0.725   5.844 -2.1181 -1.4834  0.4505
23909SOL    HW283787   1.364   0.773   5.956  0.2158  0.8686  1.7681
23910SOL     OW83788   6.817   9.367   4.368 -0.1988  0.5365 -0.5475
23910SOL    HW183789   6.896   9.365   4.307 -1.6004  0.4835 -2.3905
23910SOL    HW283790   6.808   9.279   4.414  0.6030  0.4422 -0.5573
23911SOL     OW83791   2.962   5.870   9.101  0.4288 -0.3433 -0.2385
23911SOL    HW183792   2.895   5.945   9.098 -0.1005 -0.7533  1.0172
23911SOL    HW283793   3.044   5.897   9.051 -0.4611  0.3833 -1.3204
23912SOL     OW83794   1.776   8.807   8.224  0.8306 -0.3337 -0.0495
23912SOL    HW183795   1.863   8.824   8.269  0.6798 -1.2608  0.5968
23912SOL    HW283796   1.787   8.813   8.125  1.6473 -0.5882  0.0279
23913SOL     OW83797   8.311   7.398   6.508  0.4221  0.6198  0.1709
23913SOL    HW183798   8.369   7.427   6.583 -0.0394  1.1045  0.3417
23913SOL    HW283799   8.223   7.367   6.544  1.2472 -1.9229  0.0904
23914SOL     OW83800   7.812   5.993   4.788 -0.1651 -0.0567 -0.0699
23914SOL    HW183801   7.803   5.902   4.829 -0.1649  0.5828  1.3929
23914SOL    HW283802   7.722   6.023   4.754 -0.2022 -0.5288 -0.3828
23915SOL     OW83803   0.019   4.617   1.830 -0.3236  0.0771 -0.4892
23915SOL    HW183804   0.016   4.518   1.845  1.1447  0.1331  0.3252
23915SOL    HW283805   0.033   4.663   1.917  0.4599  0.9057 -1.0437
23916SOL     OW83806   6.045   7.211   2.477 -0.0110  0.0204 -0.4837
23916SOL    HW183807   6.040   7.119   2.439  0.7213 -0.0676 -0.3721
23916SOL    HW283808   5.977   7.221   2.550  0.8479 -0.8732  0.4457
23917SOL     OW83809   5.850   4.572   3.126 -0.0467 -0.5900 -0.3458
23917SOL    HW183810   5.762   4.567   3.173 -0.0171 -0.0265 -0.2307
23917SOL    HW283811   5.860   4.662   3.083  0.4920 -0.6401 -0.3288
23918SOL     OW83812   2.692   1.263   2.751 -0.2377  0.9063 -0.7231
23918SOL    HW183813   2.656   1.304   2.835 -0.3864  2.1332 -1.3633
23918SOL    HW283814   2.761   1.195   2.773  0.7907  2.2899  0.3461
23919SOL     OW83815   7.366   5.875   1.352 -0.4467  0.2775  0.0513
23919SOL    HW183816   7.275   5.882   1.393  0.0876 -1.9274  1.7134
23919SOL    HW283817   7.366   5.802   1.284  0.3852 -0.5688  0.9507
23920SOL     OW83818   7.126   0.397   8.580  1.0489 -0.0311 -0.4646
23920SOL    HW183819   7.153   0.461   8.653  3.0343 -0.0852 -1.1334
23920SOL    HW283820   7.118   0.305   8.618 -0.1640  0.3200  0.1534
23921SOL     OW83821   0.349   4.428   4.051  0.8664  0.0238 -0.9534
23921SOL    HW183822   0.338   4.329   4.040  2.8956 -0.2901 -0.3269
23921SOL    HW283823   0.375   4.449   4.145 -2.5464  1.4615 -0.2646
23922SOL     OW83824   3.849   8.673   9.689  0.3937 -0.4270 -0.1616
23922SOL    HW183825   3.814   8.741   9.753  1.6373 -0.2380  0.3316
23922SOL    HW283826   3.786   8.595   9.685 -0.2758  0.0774  0.4018
23923SOL     OW83827   2.294   4.390   1.196  0.2682  0.6319 -0.2595
23923SOL    HW183828   2.241   4.452   1.254 -0.1332 -0.7825  0.9295
23923SOL    HW283829   2.245   4.375   1.110 -0.1121  1.1857 -0.1426
23924SOL     OW83830   6.391   0.807   5.029  0.1764  0.0874  0.0847
23924SOL    HW183831   6.427   0.900   5.040 -2.0342  1.0569 -0.6067
23924SOL    HW283832   6.424   0.769   4.942  0.3715  0.5611 -0.0480
23925SOL     OW83833   5.642   5.750   4.241 -0.2984 -0.2749 -0.7040
23925SOL    HW183834   5.643   5.726   4.338 -0.0428  0.9489 -0.3917
23925SOL    HW283835   5.583   5.830   4.227 -1.8825 -1.6208 -1.8500
23926SOL     OW83836   0.567   5.176   9.673  0.5547 -0.0406  0.3856
23926SOL    HW183837   0.570   5.090   9.622 -0.1392 -0.6017  1.2867
23926SOL    HW283838   0.658   5.219   9.670  0.8941 -0.7738 -0.1025
23927SOL     OW83839   6.542   1.720   3.890 -0.1509 -0.4736 -0.3183
23927SOL    HW183840   6.453   1.761   3.867  0.8723  1.4785 -0.9517
23927SOL    HW283841   6.598   1.714   3.807  1.2878  0.8405  0.5305
23928SOL     OW83842   0.766   0.211   4.239  0.0008  0.0213 -0.1527
23928SOL    HW183843   0.809   0.132   4.284  1.7958 -1.0062 -3.5268
23928SOL    HW283844   0.829   0.249   4.171 -2.6870  1.4422 -1.9218
23929SOL     OW83845   8.595   9.423   7.445 -0.1227 -0.0168 -0.2162
23929SOL    HW183846   8.689   9.447   7.465 -0.4540  2.5033 -1.4254
23929SOL    HW283847   8.541   9.422   7.529  0.4949  0.8996  0.1900
23930SOL     OW83848   5.788   6.354   3.120  0.0224  0.0233  0.1042
23930SOL    HW183849   5.709   6.339   3.181 -0.4696  0.9584 -0.3053
23930SOL    HW283850   5.794   6.278   3.055 -0.5030 -0.0897  0.1837
23931SOL     OW83851   8.732   3.644   8.892  0.0943 -0.3254 -0.0336
23931SOL    HW183852   8.789   3.650   8.810  0.9847 -0.1508  0.6055
23931SOL    HW283853   8.716   3.736   8.928  0.3948 -0.4748  0.4752
23932SOL     OW83854   5.816   5.997   3.859 -0.0724  0.5640  0.2308
23932SOL    HW183855   5.872   6.061   3.806 -1.9674  2.6609  0.6379
23932SOL    HW283856   5.824   5.905   3.821  2.8052  1.0029 -0.3175
23933SOL     OW83857   9.287   3.982   1.363  0.2352  0.4809  0.2072
23933SOL    HW183858   9.382   3.951   1.358  0.4818  1.3977 -1.1259
23933SOL    HW283859   9.232   3.933   1.294 -0.5527 -1.0210  1.8768
23934SOL     OW83860   5.127   3.459   2.387 -0.1451 -0.5403 -0.2914
23934SOL    HW183861   5.152   3.421   2.476 -2.1405 -1.2873 -0.0327
23934SOL    HW283862   5.030   3.479   2.385  0.2092  1.1681 -1.7013
23935SOL     OW83863   1.960   5.088   9.031  0.3463  0.3949 -0.0624
23935SOL    HW183864   2.036   5.070   9.094 -1.0963  1.5964  2.0743
23935SOL    HW283865   1.970   5.180   8.993  0.4646  0.1935 -0.5184
23936SOL     OW83866   2.243   9.353   9.785 -0.0779 -0.2001  0.1751
23936SOL    HW183867   2.327   9.359   9.730  0.5435  0.1004  1.1338
23936SOL    HW283868   2.181   9.427   9.760  0.2050 -0.0617 -0.1175
23937SOL     OW83869   1.909   0.221   0.958  0.0155 -0.0166 -0.0042
23937SOL    HW183870   1.953   0.146   0.909  0.6861  1.6777 -2.0284
23937SOL    HW283871   1.950   0.229   1.049  1.6834 -0.4751 -0.7070
23938SOL     OW83872   7.353   8.159   3.088 -0.2476  0.1795 -0.5479
23938SOL    HW183873   7.421   8.113   3.030  1.1861  1.0839  0.3882
23938SOL    HW283874   7.332   8.102   3.167 -0.1534  0.1553 -0.5411
23939SOL     OW83875   4.014   4.658   5.780  0.0121  0.0834  0.1278
23939SOL    HW183876   4.069   4.697   5.706 -1.9121  0.6632 -1.0383
23939SOL    HW283877   4.063   4.669   5.867  1.9420  0.1233 -0.9349
23940SOL     OW83878   7.856   3.118   8.934  0.6488  0.0308 -0.2016
23940SOL    HW183879   7.949   3.109   8.899  0.0355 -0.6375 -1.6968
23940SOL    HW283880   7.831   3.035   8.985 -0.0237 -0.9029 -2.0045
23941SOL     OW83881   5.782   0.718   0.984 -0.3473  0.4954  0.2416
23941SOL    HW183882   5.755   0.639   0.928  1.0411  1.0326 -1.2168
23941SOL    HW283883   5.705   0.780   0.993 -1.7723 -1.5057  2.2585
23942SOL     OW83884   8.210   7.660   0.107  0.8078 -0.2728 -0.1712
23942SOL    HW183885   8.189   7.635   0.202  0.6571 -1.6118 -0.5447
23942SOL    HW283886   8.125   7.685   0.060  0.9131  0.6344  0.1011
23943SOL     OW83887   0.954   9.029   0.753  0.7753 -0.2865  0.3845
23943SOL    HW183888   0.949   8.982   0.665  1.3642 -0.2056  0.3046
23943SOL    HW283889   0.915   8.971   0.824 -0.9330  0.1862 -0.1399
23944SOL     OW83890   7.659   5.769   3.093 -0.6145 -0.6010  0.4893
23944SOL    HW183891   7.581   5.777   3.032 -0.8175 -0.4195  0.7706
23944SOL    HW283892   7.735   5.726   3.045 -0.0895  1.3644 -0.5197
23945SOL     OW83893   5.662   2.984   3.746 -0.1989 -0.2963  0.1042
23945SOL    HW183894   5.623   3.042   3.674  1.4528 -1.1196 -1.4924
23945SOL    HW283895   5.721   3.039   3.805 -0.1970  0.0367 -0.2051
23946SOL     OW83896   5.582   6.121   8.070  0.0279  0.5110 -0.4133
23946SOL    HW183897   5.547   6.210   8.100  1.5466  0.6206  1.1498
23946SOL    HW283898   5.527   6.048   8.111 -0.6215  0.7154 -0.9149
23947SOL     OW83899   8.033   5.762   8.762  0.4679 -0.1418 -0.5495
23947SOL    HW183900   7.937   5.787   8.747  0.5585  2.4608  2.5584
23947SOL    HW283901   8.092   5.825   8.711  0.5513  0.1967 -0.0402
23948SOL     OW83902   7.182   5.237   3.138  0.2513 -0.7143  0.8052
23948SOL    HW183903   7.186   5.310   3.070 -1.1295 -0.8825  0.5433
23948SOL    HW283904   7.193   5.276   3.229  0.1021 -0.2599  0.6292
23949SOL     OW83905   5.151   6.886   2.028 -0.1980  0.7575  0.2220
23949SOL    HW183906   5.215   6.962   2.020 -0.6853  1.2755  1.1085
23949SOL    HW283907   5.151   6.833   1.943  0.5466  1.4233 -0.2024
23950SOL     OW83908   6.388   3.258   6.980  0.0726 -0.6649  0.3326
23950SOL    HW183909   6.314   3.325   6.986  0.3069 -0.4292  0.6226
23950SOL    HW283910   6.446   3.266   7.062  0.7460 -0.4644 -0.1624
23951SOL     OW83911   7.022   5.319   9.921 -0.3815  0.3489 -0.8221
23951SOL    HW183912   7.029   5.328   9.822 -0.0418 -1.3856 -0.9631
23951SOL    HW283913   7.069   5.236   9.951 -0.2866  0.9721  0.8191
23952SOL     OW83914   7.253   8.681   8.926 -0.2261  0.0571 -0.6717
23952SOL    HW183915   7.347   8.667   8.895  1.3142 -0.4774  3.8795
23952SOL    HW283916   7.249   8.764   8.983 -1.9844 -1.2644  1.1836
23953SOL     OW83917   1.650   6.974   3.093  0.4264  0.2978  0.1222
23953SOL    HW183918   1.711   7.053   3.099  1.5608 -0.6006  0.5516
23953SOL    HW283919   1.625   6.943   3.185 -1.0425  0.9201 -0.0482
23954SOL     OW83920   7.409   1.017   0.871 -0.6746  0.0532 -0.0248
23954SOL    HW183921   7.452   1.092   0.822 -0.8563  1.0197  1.2459
23954SOL    HW283922   7.476   0.974   0.932 -1.3531  1.3056  1.6610
23955SOL     OW83923   7.539   5.756   1.584  0.1367 -0.5439  0.0656
23955SOL    HW183924   7.575   5.677   1.535 -0.8560 -1.4189  0.7292
23955SOL    HW283925   7.483   5.810   1.522  0.4631 -0.5911 -0.2746
23956SOL     OW83926   8.111   3.931   3.663 -0.2132  0.2409  0.1381
23956SOL    HW183927   8.150   3.953   3.574  1.1212  0.4993  0.7759
23956SOL    HW283928   8.184   3.913   3.728 -1.2133 -1.2319  0.8672
23957SOL     OW83929   0.090   0.251   3.305 -0.2779  0.4410  0.1482
23957SOL    HW183930   0.051   0.233   3.215  0.3785 -1.7476  0.2645
23957SOL    HW283931   0.022   0.234   3.376 -0.4790  1.1286  0.1215
23958SOL     OW83932   2.042   9.723   7.104  0.1966 -0.5008  0.6481
23958SOL    HW183933   2.052   9.625   7.118 -0.1949 -0.2699  2.6294
23958SOL    HW283934   2.093   9.750   7.022 -1.8502 -2.7640 -1.4443
23959SOL     OW83935   1.065   8.052   7.860 -0.1307 -0.3001 -0.2873
23959SOL    HW183936   0.977   8.100   7.854 -0.4800 -1.0062 -0.7638
23959SOL    HW283937   1.137   8.118   7.882 -0.4540  0.6173 -1.8938
23960SOL     OW83938   7.765   7.483   1.990 -0.4798 -0.1413  0.0812
23960SOL    HW183939   7.729   7.400   2.033 -0.1997 -0.7565 -0.8814
23960SOL    HW283940   7.726   7.493   1.898  1.3606 -0.4876 -0.7405
23961SOL     OW83941   8.999   6.211   3.684 -0.6229 -0.0520  0.1208
23961SOL    HW183942   9.081   6.267   3.692 -0.2899  0.0086 -3.1290
23961SOL    HW283943   8.924   6.267   3.649 -1.0661 -0.9654 -0.3976
23962SOL     OW83944   0.464   6.851   9.928 -0.3404  0.3384 -0.3828
23962SOL    HW183945   0.486   6.760   9.893 -0.4032  1.0571 -2.3450
23962SOL    HW283946   0.466   6.917   9.853 -0.8448  1.8663  0.9224
23963SOL     OW83947   5.084   9.632   0.049  0.7286 -0.1781 -0.4972
23963SOL    HW183948   5.073   9.564   0.121  0.7929 -0.7973 -1.0716
23963SOL    HW283949   5.094   9.723   0.091 -0.5532 -0.3544  0.2401
23964SOL     OW83950   3.441   1.212   7.320 -0.2673  0.0793 -0.1502
23964SOL    HW183951   3.514   1.145   7.315 -0.1478  0.0997  1.1080
23964SOL    HW283952   3.385   1.194   7.401 -0.6649  1.0489 -0.2045
23965SOL     OW83953   2.753   5.952   8.180  0.2819  0.1010 -0.1076
23965SOL    HW183954   2.706   6.036   8.151 -0.2105 -0.8182 -2.0405
23965SOL    HW283955   2.751   5.886   8.106  3.5684 -0.4130  0.1846
23966SOL     OW83956   0.860   1.836   6.656 -0.2363  0.1940 -0.7958
23966SOL    HW183957   0.920   1.764   6.693 -0.5164 -0.5226 -1.7252
23966SOL    HW283958   0.799   1.796   6.588  0.6894  1.6346 -2.4853
23967SOL     OW83959   1.443   8.901   2.715 -0.4126  0.3720  0.3622
23967SOL    HW183960   1.379   8.968   2.753 -0.2232  1.6107 -1.4044
23967SOL    HW283961   1.528   8.948   2.690 -0.7670 -0.2592 -2.1161
23968SOL     OW83962   3.654   7.369   8.264  0.2019 -0.2243 -0.1960
23968SOL    HW183963   3.712   7.422   8.202  1.6104  1.4093  2.3728
23968SOL    HW283964   3.712   7.311   8.322 -0.9437 -0.6521  0.5261
23969SOL     OW83965   1.309   9.101   9.700  0.1185 -0.1332 -0.0054
23969SOL    HW183966   1.214   9.082   9.675  0.0806  0.0247  0.0201
23969SOL    HW283967   1.312   9.139   9.792  0.4300 -2.5523  1.0004
23970SOL     OW83968   7.802   9.264   9.218 -0.3008 -0.5157  0.3078
23970SOL    HW183969   7.860   9.272   9.137  1.0466 -2.5037  1.0184
23970SOL    HW283970   7.738   9.188   9.205 -2.3364  1.2594 -0.2088
23971SOL     OW83971   5.790   6.614   2.975 -0.1979  0.4742  0.4141
23971SOL    HW183972   5.813   6.561   3.057 -0.1168 -0.6255 -0.3184
23971SOL    HW283973   5.702   6.582   2.938 -1.2904  2.4027  1.2825
23972SOL     OW83974   6.109   2.175   1.198 -0.5764  0.2903 -0.1072
23972SOL    HW183975   6.137   2.079   1.200 -0.0093  0.4775  0.9255
23972SOL    HW283976   6.022   2.185   1.246 -1.4552  0.0338 -1.6178
23973SOL     OW83977   1.077   9.415   7.916 -0.1626 -0.1534  0.2901
23973SOL    HW183978   1.075   9.315   7.913 -1.0183 -0.2345  2.5732
23973SOL    HW283979   1.162   9.445   7.959  0.1057  0.1065 -0.4203
23974SOL     OW83980   8.465   1.464   2.562 -0.8476  0.0270 -0.1886
23974SOL    HW183981   8.446   1.371   2.529 -2.0947  0.8389 -1.8657
23974SOL    HW283982   8.446   1.529   2.489  0.0920  1.6063  0.9506
23975SOL     OW83983   8.395   4.039   9.412 -0.1040 -0.3147 -0.2226
23975SOL    HW183984   8.360   3.982   9.337  2.8779 -3.5534  0.6919
23975SOL    HW283985   8.430   3.979   9.484  0.5966  2.7716  2.0647
23976SOL     OW83986   4.642   0.341   3.108 -0.2521 -0.1822  0.4005
23976SOL    HW183987   4.588   0.262   3.080  0.6715 -1.2400  1.5523
23976SOL    HW283988   4.715   0.311   3.170  0.9698  1.3801 -0.2619
23977SOL     OW83989   8.844   5.902   2.035 -0.4705 -0.3566  0.1945
23977SOL    HW183990   8.898   5.980   2.070 -1.2796  0.4234 -0.2787
23977SOL    HW283991   8.747   5.918   2.055 -0.5687 -1.5958  0.7376
23978SOL     OW83992   9.528   5.564   0.184 -0.1789  0.4162 -0.5353
23978SOL    HW183993   9.459   5.631   0.210 -0.2512 -0.0235  0.4376
23978SOL    HW283994   9.495   5.472   0.202  1.7066  0.2858  2.6894
23979SOL     OW83995   1.792   6.798   2.514 -0.2545  0.3071  0.3795
23979SOL    HW183996   1.800   6.816   2.612 -0.6601  0.4538  0.3870
23979SOL    HW283997   1.728   6.722   2.500 -0.3402  0.4079  0.2193
23980SOL     OW83998   4.209   4.781   9.734 -0.4944 -0.2543 -0.1726
23980SOL    HW183999   4.239   4.768   9.639 -0.1260 -0.7072  0.0084
23980SOL    HW284000   4.208   4.879   9.755 -0.1512 -0.1782 -0.5056
23981SOL     OW84001   1.944   8.022   1.871  0.0456  0.3206 -0.0207
23981SOL    HW184002   1.963   8.071   1.785 -1.6665  1.0043 -0.0349
23981SOL    HW284003   2.007   8.054   1.942  1.8058 -0.6092 -1.1419
23982SOL     OW84004   7.629   5.094   0.912  0.6161  0.0839 -0.5875
23982SOL    HW184005   7.619   5.185   0.952 -0.0123 -0.2001 -0.0833
23982SOL    HW284006   7.629   5.025   0.985  0.2757 -0.3777 -1.0120
23983SOL     OW84007   6.431   6.849   1.755 -0.1053  0.3104  0.5170
23983SOL    HW184008   6.496   6.860   1.680 -0.3187 -0.0712  0.2756
23983SOL    HW284009   6.453   6.766   1.806  0.2518  0.7581  1.0874
23984SOL     OW84010   7.751   8.736   0.186 -0.3432  0.4675 -0.3383
23984SOL    HW184011   7.755   8.833   0.207 -0.8238  0.2747  0.6541
23984SOL    HW284012   7.655   8.707   0.175 -0.2567 -0.1142  0.4112
23985SOL     OW84013   0.247   5.697   5.325 -0.0861  0.0907 -0.2397
23985SOL    HW184014   0.267   5.711   5.422 -0.3075  1.1926 -0.3505
23985SOL    HW284015   0.164   5.643   5.315 -0.2869  0.3223  0.1827
23986SOL     OW84016   9.356   7.906   7.512 -0.5747 -0.1217  0.3634
23986SOL    HW184017   9.386   7.838   7.445 -0.4884 -1.4592  1.7179
23986SOL    HW284018   9.425   7.977   7.521  0.5690 -1.2720  0.8513
23987SOL     OW84019   6.730   6.823   5.281  0.0152 -0.1795 -0.3952
23987SOL    HW184020   6.776   6.735   5.277 -0.0352 -0.2869  1.2530
23987SOL    HW284021   6.797   6.897   5.284  0.1115 -0.3511  2.3781
23988SOL     OW84022   7.194   2.261   1.107  0.0671 -0.4404 -0.1363
23988SOL    HW184023   7.201   2.164   1.130  2.0489 -0.7833 -2.0041
23988SOL    HW284024   7.179   2.314   1.190 -2.6178 -2.4707  0.7356
23989SOL     OW84025   7.440   3.325   3.457  0.2104  0.3170 -0.0645
23989SOL    HW184026   7.528   3.308   3.412  0.6691  0.4493  0.7545
23989SOL    HW284027   7.420   3.423   3.455  0.2349  0.3242  0.0088
23990SOL     OW84028   1.776   0.236   1.859  0.7561 -0.2895  0.1361
23990SOL    HW184029   1.837   0.315   1.862  0.5112 -0.0474 -1.0618
23990SOL    HW284030   1.826   0.154   1.889  0.6923  0.4912  2.4990
23991SOL     OW84031   0.475   0.836   1.046 -0.8038 -0.4688 -0.4169
23991SOL    HW184032   0.474   0.794   1.136  0.5969  0.6265  0.1256
23991SOL    HW284033   0.382   0.843   1.011 -1.5177  0.6479  1.6656
23992SOL     OW84034   9.696   6.218   2.686  0.0658  0.6791 -0.3644
23992SOL    HW184035   9.731   6.289   2.625 -1.6437  0.7227 -1.3300
23992SOL    HW284036   9.740   6.131   2.666 -0.1437  0.7987 -1.3526
23993SOL     OW84037   7.805   8.226   7.280 -0.2189 -0.1357 -0.2567
23993SOL    HW184038   7.809   8.157   7.352  0.2168 -1.0137 -1.1014
23993SOL    HW284039   7.731   8.291   7.299 -1.3478 -1.4738 -0.0101
23994SOL     OW84040   0.904   5.689   2.562 -0.0600 -0.3200 -0.2977
23994SOL    HW184041   0.951   5.712   2.647 -1.1852  2.5232 -0.3619
23994SOL    HW284042   0.834   5.620   2.580  0.3200 -0.4001  0.9087
23995SOL     OW84043   0.862   5.894   2.107  0.6836  0.6192  0.2178
23995SOL    HW184044   0.878   5.916   2.203  0.4143  0.3291  0.3284
23995SOL    HW284045   0.892   5.800   2.089 -1.0331  0.0072  0.4642
23996SOL     OW84046   8.727   2.995   1.812  0.0380 -0.4291 -0.2911
23996SOL    HW184047   8.790   2.937   1.759  1.1167 -0.7858  1.3602
23996SOL    HW284048   8.779   3.055   1.873 -1.1855  0.0516  0.2969
23997SOL     OW84049   4.284   4.691   9.484 -0.4030  0.7857  0.0086
23997SOL    HW184050   4.278   4.594   9.460 -0.8793  0.9702 -0.6264
23997SOL    HW284051   4.300   4.745   9.401 -0.7553  1.3056  0.2739
23998SOL     OW84052   6.034   5.460   0.141 -0.0105 -0.0123  0.5558
23998SOL    HW184053   5.970   5.442   0.216  1.1602 -2.1726  1.0663
23998SOL    HW284054   6.125   5.478   0.178  0.3534 -0.0730 -0.2920
23999SOL     OW84055   9.323   8.012   2.721 -0.5727 -0.1022 -0.1206
23999SOL    HW184056   9.266   8.026   2.802 -0.7207 -0.9302 -0.0795
23999SOL    HW284057   9.316   7.917   2.691 -0.4355  0.1722 -1.0436
24000SOL     OW84058   6.056   5.756   1.021 -0.5280 -0.3810  0.3960
24000SOL    HW184059   6.048   5.736   0.923 -3.2447  1.2912  0.2317
24000SOL    HW284060   6.069   5.854   1.034 -0.6294 -0.5406  1.7168
24001SOL     OW84061   3.696   1.497   5.167 -0.1674  0.4941 -0.2716
24001SOL    HW184062   3.699   1.435   5.089 -2.0263  1.4727 -1.1543
24001SOL    HW284063   3.749   1.458   5.243 -0.7164 -1.8294 -1.0333
24002SOL     OW84064   0.509   6.942   0.199 -0.2514  0.1967  0.2346
24002SOL    HW184065   0.490   6.906   0.108 -1.1464  0.5925  0.2607
24002SOL    HW284066   0.507   7.042   0.196 -0.6010  0.2049  0.7528
24003SOL     OW84067   6.926   9.860   2.653  0.5594 -0.2293 -0.1934
24003SOL    HW184068   6.888   9.832   2.741  1.1938 -0.2010  0.0945
24003SOL    HW284069   6.889   9.801   2.581  0.3748 -0.5354  0.1511
24004SOL     OW84070   1.020   6.793   4.419  1.0463 -0.2103 -0.3409
24004SOL    HW184071   1.022   6.739   4.335  1.1429 -1.2275  0.2987
24004SOL    HW284072   1.063   6.881   4.403 -0.8911  0.4812 -1.9380
24005SOL     OW84073   5.449   4.313   3.666 -0.5840  0.3698  0.1501
24005SOL    HW184074   5.449   4.386   3.735 -4.2221  1.2325 -0.6881
24005SOL    HW284075   5.412   4.348   3.580 -2.3664 -2.4575 -0.2659
24006SOL     OW84076   3.159   4.931   7.906 -0.4989 -0.4760 -0.0209
24006SOL    HW184077   3.134   4.989   7.829  0.8442 -0.3079 -0.3355
24006SOL    HW284078   3.245   4.883   7.886 -1.0886 -1.8372  0.6248
24007SOL     OW84079   6.186   9.968   5.335 -0.4620  0.3003  0.1758
24007SOL    HW184080   6.116  10.013   5.390 -0.1570 -0.5007  1.2417
24007SOL    HW284081   6.206  10.024   5.254 -2.8725  0.1460 -0.5631
24008SOL     OW84082   5.518   8.396   9.764  0.4615 -0.8647  0.1577
24008SOL    HW184083   5.507   8.440   9.854 -1.4061 -0.9206 -0.0121
24008SOL    HW284084   5.587   8.445   9.711  0.1898  0.3717  0.9070
24009SOL     OW84085   6.833   4.281   2.474 -0.2797  0.5862  0.4259
24009SOL    HW184086   6.762   4.244   2.534  0.0026 -1.7047 -0.5918
24009SOL    HW284087   6.922   4.245   2.501  0.0092  0.5361 -0.5732
24010SOL     OW84088   8.709   5.848   3.627  0.4185  0.2795  0.1237
24010SOL    HW184089   8.782   5.820   3.565  0.0668  1.7926 -0.9915
24010SOL    HW284090   8.639   5.899   3.577 -0.6660  0.1569  1.4658
24011SOL     OW84091   9.221   7.678   3.254 -0.8217  0.0376 -0.2190
24011SOL    HW184092   9.301   7.653   3.307 -2.1790  0.2329  1.9942
24011SOL    HW284093   9.182   7.763   3.291 -1.1948  0.7746 -2.2185
24012SOL     OW84094   7.265   8.040   4.866 -0.3673  0.5929 -0.2139
24012SOL    HW184095   7.183   8.091   4.891 -0.5076  0.1120  0.2998
24012SOL    HW284096   7.345   8.099   4.873 -0.5891  0.8777 -0.0982
24013SOL     OW84097   5.995   8.339   8.196 -0.0617  0.0014 -0.2602
24013SOL    HW184098   6.092   8.334   8.217  0.2402  0.8600 -1.4001
24013SOL    HW284099   5.944   8.368   8.277  0.8071  1.0010 -0.0653
24014SOL     OW84100   3.627   7.790   3.321 -0.4238 -0.8283 -0.0406
24014SOL    HW184101   3.644   7.728   3.244  1.0431  1.0195 -1.2808
24014SOL    HW284102   3.533   7.781   3.352 -1.1176 -1.4471 -2.2525
24015SOL     OW84103   0.708   6.374   8.803 -0.4628  0.3291 -0.3930
24015SOL    HW184104   0.662   6.448   8.754  0.8580  0.4259 -1.4943
24015SOL    HW284105   0.751   6.411   8.886 -0.3911  0.6747 -0.5825
24016SOL     OW84106   8.191   8.351   8.936  0.3268  0.3417  0.2390
24016SOL    HW184107   8.266   8.378   8.996  0.8633 -1.5794  0.4873
24016SOL    HW284108   8.218   8.269   8.885 -0.9723  0.6307 -0.9503
24017SOL     OW84109   4.560   7.104   5.518  0.2731 -0.2708  0.7260
24017SOL    HW184110   4.610   7.017   5.512  0.0536 -0.2857 -1.2736
24017SOL    HW284111   4.464   7.085   5.540  0.1871 -0.5536  0.1174
24018SOL     OW84112   3.572   8.036   8.002  0.1114  0.3563 -0.8052
24018SOL    HW184113   3.510   8.115   8.003 -0.8189 -0.3879  1.8013
24018SOL    HW284114   3.657   8.060   8.048  0.1129  0.0413 -0.6467
24019SOL     OW84115   7.648   3.153   0.480  0.5153  0.3108 -0.0987
24019SOL    HW184116   7.726   3.215   0.491  0.5287  0.8012 -2.5314
24019SOL    HW284117   7.581   3.195   0.418 -1.9252  0.0993  2.2715
24020SOL     OW84118   5.708   1.276   0.848 -0.4597 -0.0070  1.0832
24020SOL    HW184119   5.714   1.359   0.902 -1.3504  1.4510 -0.9944
24020SOL    HW284120   5.792   1.265   0.794 -0.1812 -0.6925  1.6352
24021SOL     OW84121   5.122   6.368   2.813  0.1624  0.0848  1.1338
24021SOL    HW184122   5.186   6.404   2.745  0.8887  0.3540  1.9459
24021SOL    HW284123   5.028   6.379   2.780  0.6035 -2.2665 -1.0158
24022SOL     OW84124   8.497   4.926   4.982  0.0905 -0.5031  0.2497
24022SOL    HW184125   8.518   4.953   5.076 -0.8225  0.1593  0.2661
24022SOL    HW284126   8.565   4.966   4.920 -0.9465  1.4303  0.3282
24023SOL     OW84127   3.304   6.111   6.939  0.0113  0.7457 -0.0485
24023SOL    HW184128   3.326   6.115   7.037  3.3208 -0.6409 -0.6530
24023SOL    HW284129   3.205   6.115   6.927 -0.4745  0.7595  3.3713
24024SOL     OW84130   0.179   5.207   9.649  0.4376  0.6587 -0.2873
24024SOL    HW184131   0.159   5.115   9.683  0.8518  0.1675 -1.3494
24024SOL    HW284132   0.233   5.257   9.718 -0.4773  0.3987  0.6305
24025SOL     OW84133   4.515   4.116   2.437 -0.1439  0.4367 -0.1396
24025SOL    HW184134   4.474   4.158   2.356 -3.2262  1.6415  1.9430
24025SOL    HW284135   4.452   4.048   2.475 -1.3084  3.6799  4.2449
24026SOL     OW84136   5.840   6.594   8.402  0.0059  0.0289  0.7321
24026SOL    HW184137   5.909   6.641   8.457  0.7585  1.3064 -1.2608
24026SOL    HW284138   5.750   6.633   8.420  0.1543  0.0166  1.5120
24027SOL     OW84139   3.854   9.244   0.467 -0.1832 -0.4944  0.0369
24027SOL    HW184140   3.778   9.204   0.415 -0.7046  0.4801  0.0382
24027SOL    HW284141   3.839   9.227   0.564 -1.7136  1.8505  0.2456
24028SOL     OW84142   8.350   8.768   5.279  0.0485 -0.2378 -0.2455
24028SOL    HW184143   8.418   8.725   5.220  0.4091  0.2736 -0.2053
24028SOL    HW284144   8.266   8.784   5.227  0.4483  0.4334 -0.6882
24029SOL     OW84145   4.492   6.207   4.295 -0.2634  0.2759  0.2441
24029SOL    HW184146   4.426   6.252   4.356  0.8387  0.7757  1.0924
24029SOL    HW284147   4.443   6.152   4.228 -1.6815  2.6280 -0.7437
24030SOL     OW84148   6.091   6.023   1.065  0.2349  0.6135  1.0325
24030SOL    HW184149   6.175   6.077   1.070  0.0363  0.8847  1.4414
24030SOL    HW284150   6.012   6.084   1.068  0.0394  0.5232 -1.3985
24031SOL     OW84151   3.212   6.726   4.250 -0.3125 -0.0840 -0.2793
24031SOL    HW184152   3.209   6.814   4.201 -0.2671 -0.6149 -1.2417
24031SOL    HW284153   3.240   6.654   4.187  3.5732 -0.1748  1.4360
24032SOL     OW84154   7.022   5.460   8.427  0.2910  0.5672  0.0424
24032SOL    HW184155   6.987   5.460   8.521  0.5122  0.7141  0.1236
24032SOL    HW284156   6.969   5.525   8.372  0.5095  0.8754  0.1935
24033SOL     OW84157   5.653   5.101   5.641  0.3650 -0.0113  0.2056
24033SOL    HW184158   5.628   5.054   5.556  0.2995 -0.0018  0.2200
24033SOL    HW284159   5.660   5.199   5.625  0.4910 -0.0244  0.1782
24034SOL     OW84160   6.875   7.763   0.726  0.4120 -0.2524  0.0353
24034SOL    HW184161   6.865   7.729   0.632 -0.0515  1.3198 -0.5091
24034SOL    HW284162   6.928   7.847   0.725 -1.2566  0.8400  0.9418
24035SOL     OW84163   4.594   7.330   9.997  0.0224 -0.2661  0.1851
24035SOL    HW184164   4.693   7.329   9.980 -0.0057 -1.8247  0.0632
24035SOL    HW284165   4.559   7.236   9.997 -1.6674  0.3324 -0.9552
24036SOL     OW84166   0.023   9.701   6.991 -0.7094 -0.3504 -0.5528
24036SOL    HW184167  -0.010   9.658   6.907 -0.9456 -0.0657 -0.6078
24036SOL    HW284168  -0.025   9.662   7.069  0.1035 -1.2066 -0.4754
24037SOL     OW84169   2.203   6.424   5.157  0.1909 -0.0275  0.1820
24037SOL    HW184170   2.181   6.489   5.230  0.9362  1.6328 -1.0606
24037SOL    HW284171   2.125   6.414   5.096  0.5645  0.7379 -0.4122
24038SOL     OW84172   5.145   6.094   0.332 -0.2626 -0.5008  0.0177
24038SOL    HW184173   5.157   6.144   0.417  0.2542 -0.2384 -0.2064
24038SOL    HW284174   5.166   6.154   0.255  0.6728 -1.1425 -0.2457
24039SOL     OW84175   0.214   4.539   2.832  0.3396  0.1319  0.0626
24039SOL    HW184176   0.203   4.631   2.795 -0.6762  0.6072  1.4994
24039SOL    HW284177   0.254   4.480   2.762 -0.6136  1.2233 -1.4480
24040SOL     OW84178   2.031   8.073   6.416  0.6326  0.4500  0.4369
24040SOL    HW184179   1.991   8.037   6.332  5.2434  0.9644 -2.1480
24040SOL    HW284180   2.048   7.998   6.480 -0.5044 -0.2987 -0.1120
24041SOL     OW84181   6.519   3.611   1.311  0.4218  0.0258  0.5771
24041SOL    HW184182   6.489   3.606   1.406 -0.5607 -1.4319  0.1946
24041SOL    HW284183   6.551   3.704   1.291 -2.1139  1.1192  1.4914
24042SOL     OW84184   5.278   6.376   3.521 -0.5120 -0.7231  0.5081
24042SOL    HW184185   5.341   6.453   3.504  0.6627 -2.1917 -2.1857
24042SOL    HW284186   5.278   6.353   3.618  1.1658  0.9473  0.9361
24043SOL     OW84187   1.899   7.525   9.057  0.3544 -0.5973 -0.6401
24043SOL    HW184188   1.855   7.552   8.972 -2.1062 -2.3376  0.0345
24043SOL    HW284189   1.885   7.427   9.072  1.4706 -0.4732  1.3614
24044SOL     OW84190   9.197   4.904   3.714  0.0238  0.2826  0.4064
24044SOL    HW184191   9.171   4.923   3.809 -0.0186 -1.4058  0.7453
24044SOL    HW284192   9.125   4.853   3.669  0.4390  0.2837 -0.2647
24045SOL     OW84193   2.539   7.018   1.213 -0.2415 -0.1527  0.4130
24045SOL    HW184194   2.566   7.037   1.308 -1.1549 -2.6909  1.2491
24045SOL    HW284195   2.439   7.020   1.206 -0.1176  2.3722 -1.0721
24046SOL     OW84196   3.220   6.336   0.845  0.0909 -0.3824 -0.1240
24046SOL    HW184197   3.140   6.287   0.809 -0.5918  0.0956  0.7398
24046SOL    HW284198   3.251   6.292   0.929  0.2864 -0.1109 -0.0547
24047SOL     OW84199   0.709   5.019   2.098  0.4900  0.1218  0.9543
24047SOL    HW184200   0.630   5.041   2.041  1.0245 -1.7058 -0.5676
24047SOL    HW284201   0.784   5.081   2.077  0.9192 -0.9774 -0.9317
24048SOL     OW84202   1.013   0.234   0.372 -0.6819 -0.1680  0.0142
24048SOL    HW184203   0.961   0.159   0.413 -0.7721 -0.4431 -0.6060
24048SOL    HW284204   1.070   0.198   0.298 -1.0589  0.4546 -0.5722
24049SOL     OW84205   0.176   4.510   1.271  0.6825 -0.2903 -0.2751
24049SOL    HW184206   0.196   4.607   1.277 -0.2415 -0.1479  0.8006
24049SOL    HW284207   0.228   4.461   1.341 -1.3912 -0.1151  1.4638
24050SOL     OW84208   9.891   4.210   3.177 -0.1618  0.0371  0.1778
24050SOL    HW184209   9.811   4.267   3.198  1.1794  1.8952  0.3640
24050SOL    HW284210   9.936   4.184   3.262 -0.8259 -1.4121  0.0950
24051SOL     OW84211   3.392   1.161   1.319 -0.8951 -0.2416 -0.1664
24051SOL    HW184212   3.307   1.212   1.312 -0.6741  0.3001  0.9621
24051SOL    HW284213   3.373   1.063   1.322 -1.3750 -0.1829 -1.4939
24052SOL     OW84214   0.675   4.346   4.209 -0.8468 -0.1278 -0.0346
24052SOL    HW184215   0.752   4.397   4.170 -0.1150 -1.2522 -0.0731
24052SOL    HW284216   0.630   4.294   4.136  0.5271 -2.2418  0.5771
24053SOL     OW84217   8.213   6.684   5.602  0.1981  0.2888 -0.4568
24053SOL    HW184218   8.246   6.724   5.517 -2.6894  1.2992 -1.1396
24053SOL    HW284219   8.209   6.584   5.592  0.0962  0.3852 -1.4127
24054SOL     OW84220   6.906   7.852   3.252  0.4822 -0.2255  0.1256
24054SOL    HW184221   6.900   7.864   3.351  0.6993 -0.5524  0.1791
24054SOL    HW284222   6.840   7.782   3.223  0.2393  0.0522  0.0058
24055SOL     OW84223   3.363   8.421   9.819 -0.3469  0.3827  0.0733
24055SOL    HW184224   3.358   8.372   9.905 -1.9234  0.2696 -0.0675
24055SOL    HW284225   3.325   8.365   9.746  0.6300  0.6258 -0.6402
24056SOL     OW84226   9.898   8.743   3.056  0.0757 -0.0854 -0.2330
24056SOL    HW184227   9.883   8.646   3.074  0.4228 -0.3893 -1.5535
24056SOL    HW284228   9.847   8.771   2.975 -0.1487  0.8784  0.2307
24057SOL     OW84229   7.655   9.184   1.393  0.5613  0.0298  0.3214
24057SOL    HW184230   7.742   9.219   1.359  0.8891 -2.3013 -1.3889
24057SOL    HW284231   7.580   9.239   1.357  1.0659 -0.9375 -2.3447
24058SOL     OW84232   5.406   5.915   5.626 -0.2346  0.0930  0.0377
24058SOL    HW184233   5.431   5.981   5.555 -0.8209  0.8358  0.5138
24058SOL    HW284234   5.350   5.961   5.696  0.1974 -0.6644  0.8899
24059SOL     OW84235   6.881   5.426   4.944  0.7581 -0.6143 -0.4785
24059SOL    HW184236   6.923   5.340   4.918 -0.4142 -1.6967  1.0722
24059SOL    HW284237   6.836   5.415   5.033 -0.4981  1.2350 -0.8578
24060SOL     OW84238   0.215   7.406   8.422  0.0309 -0.6701  0.1868
24060SOL    HW184239   0.299   7.356   8.398 -0.9584 -1.5892 -1.4369
24060SOL    HW284240   0.234   7.504   8.420  0.9228 -0.8470 -0.7760
24061SOL     OW84241   5.269   6.099   2.599 -0.1151  0.0549  0.0968
24061SOL    HW184242   5.181   6.111   2.646 -0.3455  0.5859 -0.4667
24061SOL    HW284243   5.282   6.002   2.578 -0.9959  0.0854 -0.6344
24062SOL     OW84244   9.793   4.448   1.589 -0.2540 -0.2853  0.4320
24062SOL    HW184245   9.797   4.494   1.677  1.0312 -0.2290  0.3540
24062SOL    HW284246   9.776   4.515   1.517 -1.1031 -0.3051  0.6019
24063SOL     OW84247   6.228   6.832   5.582  0.1301 -0.1258 -0.3588
24063SOL    HW184248   6.251   6.858   5.488  0.4674 -2.2619 -0.8993
24063SOL    HW284249   6.184   6.742   5.581  0.0630 -0.1178  1.5262
24064SOL     OW84250   1.104   3.732   8.300 -0.3261  0.5069  0.0616
24064SOL    HW184251   1.092   3.672   8.379 -0.5399  0.3809 -0.0631
24064SOL    HW284252   1.073   3.684   8.218 -1.1149  1.0213  0.0504
24065SOL     OW84253   2.025   6.384   1.168  0.2452  1.3397 -0.0498
24065SOL    HW184254   2.071   6.300   1.199 -1.3704 -0.2445 -1.7923
24065SOL    HW284255   2.038   6.456   1.236 -0.0468 -0.9076  2.5174
24066SOL     OW84256   7.968   3.779   6.713  0.4947 -0.0370 -0.2403
24066SOL    HW184257   8.045   3.717   6.701  0.1993 -0.1484 -1.5807
24066SOL    HW284258   7.965   3.844   6.638 -0.9407 -0.2699 -0.4056
24067SOL     OW84259   2.804   7.461   0.102 -0.3346 -0.0190 -0.4756
24067SOL    HW184260   2.720   7.459   0.156  0.9582  0.6019  1.6164
24067SOL    HW284261   2.864   7.386   0.131 -0.1019 -0.3909 -1.8756
24068SOL     OW84262   6.397   5.293   1.733  0.2325  0.7318 -0.4337
24068SOL    HW184263   6.317   5.350   1.751 -0.4674 -0.4395  0.2224
24068SOL    HW284264   6.392   5.210   1.789  1.6344  0.3939 -0.7882
24069SOL     OW84265   1.399   5.350   7.030  0.0799 -0.4638  0.1839
24069SOL    HW184266   1.493   5.374   7.007 -0.7542  1.2039 -1.6421
24069SOL    HW284267   1.358   5.421   7.087  0.0926 -1.4674  1.4700
24070SOL     OW84268   5.627   5.901   7.197 -0.3004  0.1651 -0.0041
24070SOL    HW184269   5.645   5.803   7.204  3.1735  0.5662 -2.4213
24070SOL    HW284270   5.576   5.920   7.113  1.6417  0.7146 -1.0829
24071SOL     OW84271   3.070   3.999   4.813 -0.3562  0.5288  0.6936
24071SOL    HW184272   3.105   4.093   4.806 -0.5018  0.5553  0.2509
24071SOL    HW284273   3.121   3.949   4.883  1.8242  0.0266 -1.1922
24072SOL     OW84274   5.713   4.198   3.625 -0.2610 -0.3136 -0.2511
24072SOL    HW184275   5.722   4.200   3.525  0.1318  0.2987 -0.2112
24072SOL    HW284276   5.630   4.246   3.652 -1.3504 -2.0827 -0.3768
24073SOL     OW84277   0.130   2.106   5.025 -0.3865  0.2273 -0.2579
24073SOL    HW184278   0.130   2.174   4.952  0.1864 -0.1783 -0.6289
24073SOL    HW284279   0.192   2.031   5.003 -1.2327 -0.5724  0.0166
24074SOL     OW84280   2.755   1.687   0.794  0.1247  0.4425 -0.2030
24074SOL    HW184281   2.806   1.695   0.708  0.7356 -0.5943  0.0625
24074SOL    HW284282   2.817   1.698   0.871 -0.4787  1.7256  0.1250
24075SOL     OW84283   2.275   3.414   8.992  0.4909  0.3211  0.4530
24075SOL    HW184284   2.269   3.340   8.924  0.6789  0.4601  0.2848
24075SOL    HW284285   2.361   3.464   8.980  0.2950  0.6648  0.4664
24076SOL     OW84286   7.467   5.174   3.962  0.2306  0.6237 -0.2355
24076SOL    HW184287   7.465   5.079   3.990  2.6489  0.7665  0.5438
24076SOL    HW284288   7.493   5.180   3.865  0.9514  0.5196 -0.0507
24077SOL     OW84289   5.606   4.409   8.582 -0.2264  0.2907 -0.0563
24077SOL    HW184290   5.646   4.485   8.634 -0.0454  0.3686 -0.3080
24077SOL    HW284291   5.579   4.336   8.645  1.3576 -0.2398  0.0412
24078SOL     OW84292   9.351   6.998   6.641  0.1703  0.4446 -0.3919
24078SOL    HW184293   9.267   6.947   6.659  0.6278 -0.2245 -0.1405
24078SOL    HW284294   9.415   6.940   6.591  1.0618  0.4560  0.7113
24079SOL     OW84295   1.330   0.108   4.556 -0.6392  0.6406 -0.1412
24079SOL    HW184296   1.293   0.020   4.586 -0.7192  0.1913 -1.5128
24079SOL    HW284297   1.255   0.173   4.541 -0.6769  0.5672 -0.2774
24080SOL     OW84298   6.054   6.137   6.914 -0.0049  0.2927 -0.2687
24080SOL    HW184299   5.986   6.209   6.900  0.7990  1.1080 -0.0180
24080SOL    HW284300   6.038   6.094   7.003 -0.0036  0.6892 -0.0761
24081SOL     OW84301   8.606   0.728   3.949 -0.3602  0.5202  0.3445
24081SOL    HW184302   8.593   0.638   3.907 -0.8188  0.5146  0.4956
24081SOL    HW284303   8.696   0.764   3.924 -0.4892  0.3655 -0.3609
24082SOL     OW84304   3.329   4.709   0.171  0.2057 -0.1294 -0.4477
24082SOL    HW184305   3.401   4.643   0.191 -1.4936 -0.6629  4.6537
24082SOL    HW284306   3.248   4.661   0.138  0.5386 -0.0273 -1.4425
24083SOL     OW84307   0.019   2.336   1.284  0.2341 -0.3095  0.0701
24083SOL    HW184308  -0.026   2.248   1.267  1.0540 -0.5591 -0.8835
24083SOL    HW284309   0.012   2.359   1.381 -2.3041 -0.1367 -0.1250
24084SOL     OW84310   6.021   1.641   1.460  0.1622  0.2455 -0.0563
24084SOL    HW184311   5.977   1.551   1.464  0.0466  0.3511  1.4095
24084SOL    HW284312   6.099   1.638   1.397 -0.7318 -0.4749 -1.1468
24085SOL     OW84313   0.299   9.023   3.139  0.1155  0.5761  0.1664
24085SOL    HW184314   0.348   9.111   3.140 -0.8060  1.0940  1.9078
24085SOL    HW284315   0.361   8.951   3.171 -0.1761  1.2017  2.1966
24086SOL     OW84316   0.062   5.621   8.592 -0.3619 -0.3401 -0.1552
24086SOL    HW184317   0.097   5.531   8.620 -2.6389 -0.7971  1.3210
24086SOL    HW284318   0.123   5.692   8.628  0.5999 -1.2284  0.0091
24087SOL     OW84319   9.585   0.088   4.782  0.2270 -0.0510  0.2276
24087SOL    HW184320   9.531   0.160   4.826  0.0271  0.6797 -1.1558
24087SOL    HW284321   9.616   0.120   4.692  1.5233 -1.1020  0.2862
24088SOL     OW84322   6.163   6.234   0.487  0.3198 -0.3933  0.3258
24088SOL    HW184323   6.166   6.214   0.585  0.5845 -1.4681  0.1084
24088SOL    HW284324   6.253   6.264   0.456  0.1261  0.3638  0.4957
24089SOL     OW84325   3.894   9.345   6.212  0.1612 -0.1300 -0.2765
24089SOL    HW184326   3.895   9.245   6.215 -0.2743 -0.1558 -0.9144
24089SOL    HW284327   3.803   9.378   6.187  0.6176  0.3827 -1.3063
24090SOL     OW84328   2.097   8.196   3.890 -0.0884  0.1392 -0.2483
24090SOL    HW184329   2.029   8.253   3.844  0.1043 -0.4488 -1.2819
24090SOL    HW284330   2.077   8.193   3.988 -2.0033 -0.6153 -0.6333
24091SOL     OW84331   6.102   1.675   1.918 -0.4794  0.4248 -0.4181
24091SOL    HW184332   6.135   1.758   1.963 -1.8924  0.5070  0.4915
24091SOL    HW284333   6.030   1.633   1.973 -0.2082 -1.0727 -1.1825
24092SOL     OW84334   6.563   5.840   1.957 -0.2011 -0.5534  0.3270
24092SOL    HW184335   6.555   5.796   1.868 -2.4019  0.4281  0.0312
24092SOL    HW284336   6.472   5.851   1.998  0.6431  0.3964  2.0196
24093SOL     OW84337   7.732   3.892   4.187 -0.5958 -0.2394  0.3555
24093SOL    HW184338   7.667   3.846   4.127  2.2182 -1.2324 -2.0353
24093SOL    HW284339   7.792   3.950   4.133  0.2413  1.0265  2.5639
24094SOL     OW84340   0.447   8.483   0.217 -0.0295 -0.1007 -0.0234
24094SOL    HW184341   0.419   8.393   0.250 -0.8573  0.0237 -0.3943
24094SOL    HW284342   0.450   8.483   0.117 -1.6928  0.7786 -0.0916
24095SOL     OW84343   5.963   3.066   2.557  0.3421 -0.1035 -0.0345
24095SOL    HW184344   6.033   3.120   2.604  1.1576 -2.6103  1.7472
24095SOL    HW284345   5.882   3.123   2.543  1.7301  2.0426  0.3116
24096SOL     OW84346   9.687   6.168   2.375 -0.0579 -0.0185 -0.2106
24096SOL    HW184347   9.669   6.263   2.399 -0.0182 -0.1348  0.2987
24096SOL    HW284348   9.756   6.164   2.303  1.1125  0.3034  0.8650
24097SOL     OW84349   5.593   8.004   0.675  0.4317 -0.1197 -0.0543
24097SOL    HW184350   5.546   7.937   0.618  0.8057 -0.0148 -0.4804
24097SOL    HW284351   5.584   7.977   0.771  1.1937 -1.1683 -0.2739
24098SOL     OW84352   8.676   5.838   3.904 -0.2717 -0.1489  0.2061
24098SOL    HW184353   8.706   5.749   3.938 -1.4112 -0.7379 -0.3071
24098SOL    HW284354   8.703   5.849   3.809 -0.4362 -0.0895  0.1663
24099SOL     OW84355   5.828   8.156   8.094  0.0041  0.6146  1.3561
24099SOL    HW184356   5.893   8.092   8.053 -0.0441  0.4079  1.6015
24099SOL    HW284357   5.876   8.215   8.159 -0.0370  0.5194  1.4728
24100SOL     OW84358   7.738   6.098   5.871  0.3541 -0.5091 -0.0005
24100SOL    HW184359   7.646   6.074   5.839  0.1396  0.4119 -0.0919
24100SOL    HW284360   7.733   6.182   5.925  1.1833 -0.2855 -0.2699
24101SOL     OW84361   5.920   2.641   1.206 -0.0434 -0.0740  0.1367
24101SOL    HW184362   5.870   2.578   1.265 -0.4726 -2.2041 -2.4068
24101SOL    HW284363   5.862   2.721   1.186 -0.3973  0.0162  1.4587
24102SOL     OW84364   6.826   2.912   5.067  0.2591  0.2322 -0.9849
24102SOL    HW184365   6.924   2.934   5.066  0.0777  1.1471 -0.0209
24102SOL    HW284366   6.780   2.970   5.134 -0.9118 -0.3574 -1.2684
24103SOL     OW84367   8.521   6.523   4.182 -0.0381 -0.6276  0.2780
24103SOL    HW184368   8.428   6.554   4.163  0.8348  1.4914 -0.7399
24103SOL    HW284369   8.528   6.425   4.164 -1.5300 -0.4008 -1.7571
24104SOL     OW84370   9.619   6.673   2.620  0.0414 -0.6522 -0.3546
24104SOL    HW184371   9.599   6.579   2.594 -0.8966 -0.3187 -0.8657
24104SOL    HW284372   9.657   6.675   2.713 -0.1026 -1.5072 -0.2743
24105SOL     OW84373   9.790   7.617   3.762  0.5624 -0.2150  0.3159
24105SOL    HW184374   9.757   7.536   3.810 -0.5665 -0.5005 -0.8885
24105SOL    HW284375   9.889   7.623   3.770  0.8562 -2.6255 -0.9127
24106SOL     OW84376   0.121   8.380   5.374  0.3330 -0.0654  0.6139
24106SOL    HW184377   0.159   8.472   5.384  0.1757  0.1103 -0.3652
24106SOL    HW284378   0.075   8.373   5.286 -0.7940 -0.6774  1.2504
24107SOL     OW84379   8.914   2.707   3.566 -0.3961  0.0553  0.3852
24107SOL    HW184380   8.906   2.737   3.471  0.2607 -2.2750 -0.4560
24107SOL    HW284381   8.856   2.627   3.581  2.5179 -2.1093  0.7761
24108SOL     OW84382   2.847   9.662   9.333 -0.6766 -0.1442 -0.8359
24108SOL    HW184383   2.754   9.667   9.297 -0.9603  0.9386  0.0266
24108SOL    HW284384   2.866   9.569   9.364 -2.3491  0.1721  1.2656
24109SOL     OW84385   5.892   1.217   3.584  0.8678 -0.5603  0.0641
24109SOL    HW184386   5.934   1.306   3.567  0.4659 -0.3680  0.0772
24109SOL    HW284387   5.887   1.201   3.683  0.8284 -0.5433  0.0650
24110SOL     OW84388   5.947   9.312   9.777 -0.3695  0.3288 -0.9637
24110SOL    HW184389   6.027   9.371   9.778  0.1574 -0.3776 -0.1002
24110SOL    HW284390   5.908   9.309   9.685  1.2648 -0.1975 -1.6512
24111SOL     OW84391   4.299   4.362   8.448 -0.2376  0.1980  0.3203
24111SOL    HW184392   4.329   4.435   8.509  1.8074  0.7109 -1.2584
24111SOL    HW284393   4.230   4.306   8.495  0.1155  1.5204  2.4997
24112SOL     OW84394   9.085   8.418   4.882 -0.0219  0.1627 -0.0712
24112SOL    HW184395   9.027   8.340   4.905 -1.5844  1.6610  1.1367
24112SOL    HW284396   9.171   8.411   4.931 -0.2301 -0.6991  0.1788
24113SOL     OW84397   8.730   7.438   5.300  0.5519  0.1935 -0.1857
24113SOL    HW184398   8.769   7.359   5.253 -0.6317 -0.5156  0.0038
24113SOL    HW284399   8.760   7.438   5.396  0.2924 -0.2015 -0.1054
24114SOL     OW84400   7.238   7.820   5.969  0.2494  0.3250  0.8906
24114SOL    HW184401   7.244   7.824   6.069 -0.9478  2.2408  0.9150
24114SOL    HW284402   7.204   7.908   5.934 -3.2786 -1.6668 -0.9207
24115SOL     OW84403   0.029   2.599   2.751 -0.0883 -0.0529 -0.1296
24115SOL    HW184404   0.090   2.642   2.685  1.9413 -1.4690  0.7650
24115SOL    HW284405   0.054   2.503   2.762 -1.4175 -0.2383  1.5111
24116SOL     OW84406   1.147   9.055   3.652 -0.8279 -0.0813 -0.0205
24116SOL    HW184407   1.115   9.121   3.719 -0.5705 -0.9660  0.9810
24116SOL    HW284408   1.117   8.963   3.677 -1.2686 -0.3466 -1.4521
24117SOL     OW84409   9.910   7.620   6.655 -0.2188 -0.3392 -0.1762
24117SOL    HW184410   9.998   7.614   6.700  0.2658  0.0296 -1.0546
24117SOL    HW284411   9.878   7.715   6.656  0.2188 -0.1671 -1.3764
24118SOL     OW84412   9.410   8.500   4.426  0.3961  0.5800  0.1031
24118SOL    HW184413   9.310   8.501   4.425  0.3948  0.7105  0.4924
24118SOL    HW284414   9.443   8.475   4.335  0.0010 -0.1654  0.1617
24119SOL     OW84415   8.536   2.510   9.376 -0.1230  0.5261  0.4663
24119SOL    HW184416   8.550   2.569   9.456 -0.0834  0.6526  0.3655
24119SOL    HW284417   8.620   2.505   9.323  0.3316 -0.8457  1.2990
24120SOL     OW84418   2.752   8.251   1.564  0.1688  0.0689 -0.1358
24120SOL    HW184419   2.796   8.162   1.554 -0.5244 -0.2034 -0.8811
24120SOL    HW284420   2.770   8.307   1.484 -1.8756 -0.5247 -1.0542
24121SOL     OW84421   1.484   6.321   9.257 -0.2383 -0.1312  0.5127
24121SOL    HW184422   1.389   6.338   9.283  0.2580  1.6249  1.2879
24121SOL    HW284423   1.527   6.261   9.324 -0.2716  0.6336  1.2279
24122SOL     OW84424   4.271   8.113   6.448  0.2239 -0.3057  0.0040
24122SOL    HW184425   4.272   8.160   6.536  0.6088 -1.5303  0.6736
24122SOL    HW284426   4.343   8.151   6.389  1.0068 -0.5394  0.7978
24123SOL     OW84427   6.213   4.449   0.420  0.6835 -0.6404  0.1023
24123SOL    HW184428   6.172   4.433   0.330  0.2038 -2.4990  0.6128
24123SOL    HW284429   6.299   4.498   0.409  0.1257  0.0793 -1.2783
24124SOL     OW84430   9.757   8.113   8.237  0.0343 -0.0276  0.1595
24124SOL    HW184431   9.808   8.084   8.317  1.0367  2.2070  0.3624
24124SOL    HW284432   9.815   8.171   8.179 -1.2229 -0.1812 -1.2907
24125SOL     OW84433   1.436   0.993   5.624  0.4745 -0.0182 -0.6972
24125SOL    HW184434   1.475   1.058   5.689  0.6705  0.9247 -1.7498
24125SOL    HW284435   1.467   0.900   5.647  1.3774  0.4329 -0.0745
24126SOL     OW84436   7.706   1.539   4.664 -0.3154  0.3509 -0.1302
24126SOL    HW184437   7.797   1.524   4.625 -0.5423 -0.2175 -0.4450
24126SOL    HW284438   7.688   1.637   4.669  0.7690  0.5023  0.9812
24127SOL     OW84439   5.427   6.559   5.646  0.3156 -0.1842  0.1093
24127SOL    HW184440   5.449   6.463   5.664 -0.6438 -0.6109 -0.9093
24127SOL    HW284441   5.328   6.570   5.642  0.3986  1.0037  0.9912
24128SOL     OW84442   2.623   7.839   4.332 -0.3531 -0.2967 -0.0603
24128SOL    HW184443   2.660   7.879   4.248 -0.0143 -1.8323 -0.6414
24128SOL    HW284444   2.551   7.774   4.310 -0.9190 -0.0136  0.8985
24129SOL     OW84445   9.118   1.921   2.709 -0.2030 -0.7769  0.2196
24129SOL    HW184446   9.190   1.871   2.758 -0.6883 -0.7625  0.9447
24129SOL    HW284447   9.032   1.871   2.717 -1.0798  0.9919  2.3708
24130SOL     OW84448   7.672   4.162   7.800 -0.3351 -0.5455  0.0776
24130SOL    HW184449   7.623   4.244   7.827  0.1227  0.5871 -2.3949
24130SOL    HW284450   7.769   4.172   7.820 -0.3941 -0.8087  0.5011
24131SOL     OW84451   5.415   8.465   7.582 -0.1191  0.2763  0.0450
24131SOL    HW184452   5.421   8.414   7.496 -1.5642 -0.1733  0.1942
24131SOL    HW284453   5.343   8.533   7.576 -1.7392 -1.2284  1.6167
24132SOL     OW84454   8.529   6.626   2.915  0.4163 -1.2329  0.3099
24132SOL    HW184455   8.521   6.638   3.014  1.3733  2.9334 -0.0109
24132SOL    HW284456   8.442   6.648   2.872  0.2858 -2.0382  0.1704
24133SOL     OW84457   8.997   8.141   2.693 -0.0448  0.2664  0.2467
24133SOL    HW184458   9.074   8.177   2.745 -0.6988  2.6270 -0.3461
24133SOL    HW284459   8.999   8.178   2.600 -1.0962 -0.7721 -0.2073
24134SOL     OW84460   1.489   5.960   6.724 -0.4382  0.1475  0.6942
24134SOL    HW184461   1.409   5.945   6.783 -0.9193  1.0276  0.2711
24134SOL    HW284462   1.533   5.872   6.705 -0.7210 -0.2320  1.7445
24135SOL     OW84463   8.118   1.351   3.541  0.4768  0.6065  0.2891
24135SOL    HW184464   8.041   1.345   3.477  1.2807  0.9648 -0.7360
24135SOL    HW284465   8.177   1.271   3.528  1.2337  1.2421 -0.2060
24136SOL     OW84466   0.794   9.221   8.143  0.0696  0.1538 -0.1099
24136SOL    HW184467   0.868   9.155   8.123 -0.1570 -0.6903  1.7724
24136SOL    HW284468   0.818   9.310   8.104  2.1422 -0.0815  0.5717
24137SOL     OW84469   7.104   7.111   2.754 -0.0837  0.3260 -0.0960
24137SOL    HW184470   7.154   7.106   2.668 -0.3873  1.1067 -0.3280
24137SOL    HW284471   7.022   7.167   2.741  0.0709  0.7695  0.7930
24138SOL     OW84472   2.639   9.312   2.454 -0.1167 -0.0132 -0.6340
24138SOL    HW184473   2.653   9.284   2.359 -2.4800 -1.0878 -0.7011
24138SOL    HW284474   2.637   9.232   2.513 -0.5233  0.5036  0.0678
24139SOL     OW84475   2.322   3.914   6.341  0.6559  0.2673  0.2141
24139SOL    HW184476   2.308   3.999   6.289  0.8921 -0.4957 -1.1041
24139SOL    HW284477   2.376   3.850   6.287  2.0796 -0.0252  1.9553
24140SOL     OW84478   5.476   7.302   4.406 -0.2963 -0.2291 -0.1270
24140SOL    HW184479   5.466   7.252   4.492 -1.6924 -0.1975 -0.2548
24140SOL    HW284480   5.406   7.272   4.342 -0.1220  0.7231 -0.7805
24141SOL     OW84481   0.489   2.929   4.114  0.4000  0.3628  0.1899
24141SOL    HW184482   0.391   2.911   4.107  0.3076  0.4856  1.0950
24141SOL    HW284483   0.528   2.939   4.022 -0.3551 -0.0928 -0.1869
24142SOL     OW84484   7.769   6.865   8.115 -0.4826  0.2251  0.1865
24142SOL    HW184485   7.678   6.904   8.129  0.3866  2.1911  0.5518
24142SOL    HW284486   7.816   6.858   8.203  0.0444  0.0605 -0.1047
24143SOL     OW84487   9.373   5.515   0.598  0.0035 -0.4644 -0.3515
24143SOL    HW184488   9.454   5.484   0.547 -0.5450  0.1510 -1.6256
24143SOL    HW284489   9.402   5.561   0.682  0.9211 -1.7555  0.0644
24144SOL     OW84490   1.725   5.670   3.936  0.0945  0.2905  0.3678
24144SOL    HW184491   1.763   5.763   3.941  1.9908 -0.4001 -0.4812
24144SOL    HW284492   1.800   5.604   3.931 -1.2249 -1.3565  1.7250
24145SOL     OW84493   6.400   7.510   1.838  0.0990 -0.2874  0.1494
24145SOL    HW184494   6.412   7.546   1.745  1.3266 -1.2778 -0.0847
24145SOL    HW284495   6.399   7.586   1.903 -1.3988  0.4709 -0.7217
24146SOL     OW84496   5.009   5.256   5.044  0.5113  0.2620  0.2001
24146SOL    HW184497   5.001   5.284   5.139  1.0861  0.1598  0.2778
24146SOL    HW284498   5.083   5.307   5.000  0.6570 -0.1381 -0.0212
24147SOL     OW84499   0.055   3.222   0.357 -0.0312  0.0724 -0.0392
24147SOL    HW184500   0.055   3.295   0.426 -2.2351  0.7115 -0.6686
24147SOL    HW284501   0.135   3.232   0.298 -1.8779  3.9069 -2.0508
24148SOL     OW84502   4.607   2.364   3.819 -0.7706  0.1782  0.0612
24148SOL    HW184503   4.556   2.371   3.733 -1.0497  1.5793  0.3221
24148SOL    HW284504   4.544   2.335   3.892 -0.3535 -1.8085 -0.3662
24149SOL     OW84505   8.371   4.886   3.106  0.3134  0.3430 -0.2497
24149SOL    HW184506   8.427   4.954   3.152  1.0161  0.5046 -1.3217
24149SOL    HW284507   8.314   4.838   3.173  1.4725  0.4223  0.8024
24150SOL     OW84508   9.930   6.937   1.803 -0.0005 -0.1141 -0.1207
24150SOL    HW184509   9.915   6.917   1.706 -2.3840  0.8702  0.0268
24150SOL    HW284510   9.948   7.034   1.814  0.1565 -0.2085  0.4528
24151SOL     OW84511   0.026   2.823   5.080 -0.0653 -0.0685 -0.1809
24151SOL    HW184512  -0.026   2.893   5.129 -1.7899 -0.8161 -0.9147
24151SOL    HW284513   0.019   2.839   4.982  3.4862  1.4996 -0.2578
24152SOL     OW84514   9.877   4.596   1.369  0.1463  0.0183 -0.7409
24152SOL    HW184515   9.943   4.617   1.441 -0.5527 -0.4704  0.0500
24152SOL    HW284516   9.925   4.556   1.291  0.8344  0.0005 -0.3131
24153SOL     OW84517   9.074   1.458   3.679  0.2799 -0.3297 -0.3682
24153SOL    HW184518   9.037   1.516   3.752 -0.9019 -1.1867 -0.2677
24153SOL    HW284519   9.007   1.451   3.605  1.6736  0.9599 -1.7945
24154SOL     OW84520   9.835   6.716   2.872  0.6421  0.1064  0.4622
24154SOL    HW184521   9.819   6.810   2.904 -1.2165 -0.1077  0.2148
24154SOL    HW284522   9.756   6.660   2.894  0.2988 -0.6021 -2.4137
24155SOL     OW84523   2.745   7.970   6.116 -0.5089  0.2684 -0.0535
24155SOL    HW184524   2.838   7.969   6.153 -0.8214 -0.5465  0.7330
24155SOL    HW284525   2.740   8.037   6.042  0.9228 -0.2497 -0.6598
24156SOL     OW84526   8.650   0.409   2.565  0.3284 -0.4854  0.2329
24156SOL    HW184527   8.712   0.392   2.641  1.2013 -3.0159 -1.0135
24156SOL    HW284528   8.561   0.368   2.585  0.4018 -0.7006  0.1210
24157SOL     OW84529   6.394   8.839   6.237  0.0966 -0.7533  0.1528
24157SOL    HW184530   6.434   8.748   6.227  0.9049 -0.5204  1.1993
24157SOL    HW284531   6.460   8.908   6.205 -0.5681 -0.5408 -0.7723
24158SOL     OW84532   7.673   4.979   2.420  0.4918  0.1984 -0.0217
24158SOL    HW184533   7.740   5.023   2.480  1.1269 -0.2162 -0.4201
24158SOL    HW284534   7.688   5.008   2.325  1.6216 -1.7230 -0.4395
24159SOL     OW84535   8.237   4.875   3.986  0.1582 -0.2043 -0.7065
24159SOL    HW184536   8.200   4.860   3.895  1.8636 -0.4119 -1.3867
24159SOL    HW284537   8.216   4.797   4.044 -1.1004  0.0129 -0.8517
24160SOL     OW84538   6.721   9.843   4.116  0.3604  0.2197  0.2014
24160SOL    HW184539   6.674   9.756   4.100  0.4045  0.1824  0.2732
24160SOL    HW284540   6.681   9.889   4.195  1.5029 -0.5636  1.2408
24161SOL     OW84541   7.317   4.713   6.919  0.5012 -0.7802 -0.1623
24161SOL    HW184542   7.324   4.698   7.017  0.2287  2.2682  0.3802
24161SOL    HW284543   7.222   4.734   6.894  0.9881  0.9561 -0.6430
24162SOL     OW84544   0.686   3.844   0.440  0.1122 -0.0876  0.2195
24162SOL    HW184545   0.622   3.887   0.376  1.3383  2.7766  0.8146
24162SOL    HW284546   0.777   3.885   0.428  0.7020 -0.5454  2.7486
24163SOL     OW84547   6.705   6.038   1.604  0.1185 -0.1876 -0.9333
24163SOL    HW184548   6.703   5.955   1.548  1.5292  0.2434 -1.6298
24163SOL    HW284549   6.751   6.019   1.690  0.3306 -0.1527 -1.0402
24164SOL     OW84550   8.151   5.487   4.207 -0.2640  0.1351 -0.0770
24164SOL    HW184551   8.230   5.433   4.237 -0.7676 -0.1200  0.7957
24164SOL    HW284552   8.082   5.426   4.168 -0.0664  0.3490 -0.7612
24165SOL     OW84553   6.687   4.674   1.037 -0.1600 -0.0048  0.7814
24165SOL    HW184554   6.750   4.625   0.976 -1.7572 -1.0231 -0.0932
24165SOL    HW284555   6.640   4.746   0.985 -0.7216 -0.1483  1.0831
24166SOL     OW84556   8.032   6.275   7.059 -0.1576  0.1915 -0.5235
24166SOL    HW184557   7.986   6.287   7.147 -0.5222 -1.2134 -0.4958
24166SOL    HW284558   8.129   6.257   7.074  0.0591  1.3536 -0.4897
24167SOL     OW84559   4.909   6.502   5.361 -0.0644  0.5182 -0.0368
24167SOL    HW184560   4.835   6.565   5.339 -1.1429 -0.8182 -0.2532
24167SOL    HW284561   4.995   6.537   5.323 -0.7251  1.6509 -0.4948
24168SOL     OW84562   3.672   4.400   9.289 -0.0684  0.3608 -0.1052
24168SOL    HW184563   3.655   4.498   9.273  1.2218  0.9188  1.7463
24168SOL    HW284564   3.680   4.384   9.387 -0.0614 -1.5791 -0.4184
24169SOL     OW84565   8.389   5.207   0.623  0.3657 -0.4155  0.0380
24169SOL    HW184566   8.480   5.250   0.622  0.5466 -0.7759  0.3819
24169SOL    HW284567   8.319   5.276   0.609  0.7350 -0.2459 -1.0204
24170SOL     OW84568   0.261   6.575   8.724  0.2517 -0.3581  0.1462
24170SOL    HW184569   0.214   6.615   8.646  1.5282  1.5611  0.3246
24170SOL    HW284570   0.230   6.480   8.737 -1.9047  0.1509 -1.0456
24171SOL     OW84571   4.368   6.807   2.055 -0.2797  0.3453 -0.3722
24171SOL    HW184572   4.321   6.784   2.141  2.7252  0.6228  1.4288
24171SOL    HW284573   4.398   6.723   2.010  0.4005  0.2556  0.2200
24172SOL     OW84574   4.020   7.597   9.942 -0.2807  0.0602 -0.6179
24172SOL    HW184575   3.970   7.654   9.877  0.2185 -0.7657 -1.7598
24172SOL    HW284576   4.118   7.598   9.918 -0.4025 -2.1267 -1.3355
24173SOL     OW84577   4.759   0.786   2.362 -0.6676 -0.0768 -0.3167
24173SOL    HW184578   4.751   0.835   2.449 -0.9387  0.7369 -0.7995
24173SOL    HW284579   4.733   0.690   2.376 -1.2473  0.1769  0.3802
24174SOL     OW84580   1.602   7.500   3.667  0.1331  0.7736  0.3037
24174SOL    HW184581   1.519   7.539   3.709 -0.8471 -0.1084 -0.7742
24174SOL    HW284582   1.586   7.403   3.646  1.8493  0.2880  1.1265
24175SOL     OW84583   5.390   0.193   2.492  0.2897 -0.2488  0.1254
24175SOL    HW184584   5.474   0.220   2.539  0.4180  0.0810 -0.2791
24175SOL    HW284585   5.329   0.147   2.555  0.8726 -0.6910  0.3680
24176SOL     OW84586   7.516   8.283   3.443  0.3973  0.3594  0.1893
24176SOL    HW184587   7.495   8.378   3.468 -0.7004 -0.1889  1.4178
24176SOL    HW284588   7.440   8.224   3.470  0.9869 -0.8503 -0.7532
24177SOL     OW84589   9.515   0.699   6.248 -0.0041 -0.0392 -0.6586
24177SOL    HW184590   9.547   0.670   6.158  1.0429  0.6606 -0.5257
24177SOL    HW284591   9.557   0.641   6.318 -0.1308 -0.0275 -0.5734
24178SOL     OW84592   7.253   5.142   7.105  0.4017 -0.3342  0.1257
24178SOL    HW184593   7.165   5.105   7.075 -0.0751  0.0627  1.0158
24178SOL    HW284594   7.244   5.240   7.120  0.5254 -0.5716  1.9024
24179SOL     OW84595   0.719   6.762   8.314  0.2187 -0.0591  0.4323
24179SOL    HW184596   0.696   6.859   8.320  0.9697  0.0584  1.5126
24179SOL    HW284597   0.666   6.720   8.241  0.9016  1.4608 -0.9663
24180SOL     OW84598   0.733   2.515   7.745  0.3426 -0.3623  0.0398
24180SOL    HW184599   0.698   2.580   7.677 -1.0769  0.8505  1.8968
24180SOL    HW284600   0.675   2.434   7.747  0.5363 -0.5115 -0.3710
24181SOL     OW84601   8.628   8.090   3.685 -0.3423 -0.0747 -0.0755
24181SOL    HW184602   8.713   8.097   3.738 -0.5901 -0.1182  0.3352
24181SOL    HW284603   8.629   8.006   3.632 -0.4910 -0.5040  0.5892
24182SOL     OW84604   2.993   5.985   1.770  0.2847 -0.3138  0.3644
24182SOL    HW184605   3.016   6.023   1.859  0.7818  1.7037 -0.5796
24182SOL    HW284606   3.063   5.919   1.742  1.1481  0.4699  0.6507
24183SOL     OW84607   7.264   3.830   2.367  0.2912 -0.4570  0.2663
24183SOL    HW184608   7.273   3.793   2.274  1.1884 -1.5369  0.7748
24183SOL    HW284609   7.225   3.760   2.427  1.5859 -0.4480  1.1386
24184SOL     OW84610   7.055   8.741   3.527 -0.0154 -0.0023 -0.6690
24184SOL    HW184611   7.072   8.774   3.620 -0.9227  0.7938 -0.7757
24184SOL    HW284612   7.111   8.660   3.510  2.2198  1.4173 -0.3621
24185SOL     OW84613   6.994   3.784   0.305 -0.1088  0.1409  0.3816
24185SOL    HW184614   6.990   3.819   0.211  0.3560  1.6841  0.9166
24185SOL    HW284615   6.907   3.741   0.328 -0.7293  1.0189 -0.2744
24186SOL     OW84616   9.951   4.041   7.942  0.5312  0.5005 -0.4063
24186SOL    HW184617   9.926   3.951   7.905 -0.2265  0.2611  0.6833
24186SOL    HW284618  10.040   4.035   7.987  0.2789  0.1905  0.0537
24187SOL     OW84619   9.601   5.819   3.332 -0.2091  0.3472  0.4164
24187SOL    HW184620   9.537   5.752   3.369 -1.7106  1.8625  0.6036
24187SOL    HW284621   9.600   5.901   3.388  0.0686  1.3297 -0.9799
24188SOL     OW84622   2.349   7.548   3.100 -0.3491 -0.3266 -0.1207
24188SOL    HW184623   2.407   7.481   3.146  1.0868  1.6408  1.0172
24188SOL    HW284624   2.364   7.544   3.001  1.3075 -0.2109  0.1187
24189SOL     OW84625   3.046   7.082   9.577 -0.1868  0.1206 -0.0957
24189SOL    HW184626   3.145   7.079   9.567  0.1239  2.1600  1.8728
24189SOL    HW284627   3.023   7.116   9.668 -2.6978  0.0004 -0.6520
24190SOL     OW84628   3.732   3.580   2.665 -0.2202  0.1169  0.5459
24190SOL    HW184629   3.811   3.543   2.713 -0.2828 -1.1572 -0.3159
24190SOL    HW284630   3.728   3.542   2.572 -1.9482  0.0034  0.6490
24191SOL     OW84631   5.657   8.570   1.765  0.1303 -0.1041  0.2214
24191SOL    HW184632   5.703   8.659   1.759 -1.8699  1.0393  1.3445
24191SOL    HW284633   5.726   8.498   1.774  1.7884  1.3129 -0.7747
24192SOL     OW84634   4.620   3.450   6.052 -0.1410 -1.0255 -0.1224
24192SOL    HW184635   4.699   3.425   6.109 -0.4275 -0.8732  0.3477
24192SOL    HW284636   4.617   3.391   5.971 -0.7528 -2.4667  0.9278
24193SOL     OW84637   0.228   7.502   8.124 -0.1503  0.0334  0.5407
24193SOL    HW184638   0.255   7.583   8.071  1.1851 -0.2130  0.8323
24193SOL    HW284639   0.235   7.522   8.221  1.9485 -0.9911  0.6263
24194SOL     OW84640   6.649   8.330   3.883 -0.1608 -0.2392 -0.5355
24194SOL    HW184641   6.727   8.316   3.945 -1.0567 -1.9608  0.2507
24194SOL    HW284642   6.682   8.367   3.796  2.0639 -4.1704 -1.5133
24195SOL     OW84643   2.006   4.759   9.903 -0.4142 -0.0567  0.4060
24195SOL    HW184644   1.955   4.823   9.845 -0.8908 -1.1998 -0.4577
24195SOL    HW284645   2.101   4.753   9.871 -1.2503 -2.5105 -1.8577
24196SOL     OW84646   5.061   7.313   4.613 -0.0201  0.2704 -0.6379
24196SOL    HW184647   4.981   7.326   4.673 -0.3064 -1.5689 -0.5908
24196SOL    HW284648   5.088   7.217   4.614  2.0940  0.8345 -0.8194
24197SOL     OW84649   2.420   7.036   3.091 -0.5013  0.0522  0.2994
24197SOL    HW184650   2.380   7.110   3.037 -1.0716  0.7582  1.6593
24197SOL    HW284651   2.357   6.959   3.093 -0.9634  0.4376  0.8480
24198SOL     OW84652   0.214   5.668   9.849 -0.2211 -0.2251  0.2303
24198SOL    HW184653   0.311   5.643   9.849  0.1367  1.1085  0.4391
24198SOL    HW284654   0.161   5.597   9.802  0.8431 -0.9976  0.1783
24199SOL     OW84655   0.341   6.471   4.520  0.0909 -0.0747 -0.5133
24199SOL    HW184656   0.381   6.421   4.442  0.8514  0.0515 -0.2147
24199SOL    HW284657   0.329   6.567   4.495 -0.9204 -0.3047 -0.9256
24200SOL     OW84658   8.818   2.787   4.568 -0.0498 -0.5162 -0.0226
24200SOL    HW184659   8.845   2.838   4.487 -2.6200 -0.5318 -0.9321
24200SOL    HW284660   8.788   2.850   4.639  0.0884 -0.6182  0.1296
24201SOL     OW84661   9.589   4.641   0.391  0.4094 -0.6016 -0.3913
24201SOL    HW184662   9.512   4.692   0.429  0.9216 -0.4123  0.4023
24201SOL    HW284663   9.574   4.625   0.293  0.4272  1.4495 -0.7592
24202SOL     OW84664   1.108   8.409   8.447  0.3076 -0.2667  0.4558
24202SOL    HW184665   1.037   8.456   8.395  0.8258 -0.5383 -0.5011
24202SOL    HW284666   1.121   8.317   8.410 -0.1685 -0.9096  1.8370
24203SOL     OW84667   1.186   7.007   4.511 -0.4913  0.2372 -0.0175
24203SOL    HW184668   1.137   7.094   4.511 -1.0553 -0.0772 -0.2057
24203SOL    HW284669   1.212   6.984   4.605  1.0915  1.3943 -0.1480
24204SOL     OW84670   9.521   7.247   7.660  0.5218 -0.1091 -0.2862
24204SOL    HW184671   9.464   7.315   7.614 -1.8785 -2.0991 -0.3399
24204SOL    HW284672   9.556   7.285   7.746  2.4678  2.5192 -2.1562
24205SOL     OW84673   6.070   5.572   6.951 -0.6094 -0.9838  0.3836
24205SOL    HW184674   6.164   5.578   6.982 -0.7331 -0.5153  0.6771
24205SOL    HW284675   6.063   5.506   6.876 -0.1898 -1.5976  0.8812
24206SOL     OW84676   5.975   9.759   8.506 -0.0579  0.3097 -0.1562
24206SOL    HW184677   5.930   9.742   8.594  2.2353  0.7584  1.1203
24206SOL    HW284678   6.025   9.678   8.478 -1.6181 -0.1872 -1.5885
24207SOL     OW84679   9.811   7.305   2.456 -0.6542 -0.2050 -0.3422
24207SOL    HW184680   9.883   7.373   2.470 -0.5096 -0.5604  0.6640
24207SOL    HW284681   9.850   7.224   2.413 -0.6310 -0.0551 -0.6070
24208SOL     OW84682   7.481   9.134   0.218 -0.7007 -0.3262  0.2590
24208SOL    HW184683   7.576   9.146   0.189 -0.9741 -2.2917 -1.5776
24208SOL    HW284684   7.420   9.162   0.144 -1.5403 -0.5239  0.8693
24209SOL     OW84685   2.365   1.841   3.081 -0.0445  0.0226  0.0226
24209SOL    HW184686   2.342   1.747   3.106  1.1480 -0.0285  0.9550
24209SOL    HW284687   2.289   1.880   3.028 -0.5109 -1.4906 -0.4876
24210SOL     OW84688   3.848   9.783   1.587  0.3000 -0.0600 -0.4047
24210SOL    HW184689   3.865   9.805   1.491 -1.2367  1.1059 -0.4373
24210SOL    HW284690   3.848   9.684   1.599  0.4823 -0.2176 -1.6225
24211SOL     OW84691   3.755   0.379   3.336 -0.5688 -0.0926 -0.1024
24211SOL    HW184692   3.767   0.466   3.384 -1.6917  0.4308 -0.7511
24211SOL    HW284693   3.659   0.351   3.342 -0.1463 -1.4825  0.4219
24212SOL     OW84694   6.779   2.847   2.587  0.0998  0.3528 -0.1225
24212SOL    HW184695   6.855   2.787   2.560 -1.1604 -0.8437 -1.0675
24212SOL    HW284696   6.700   2.827   2.530 -1.7556 -0.2156  2.5612
24213SOL     OW84697   3.845   7.419   2.585  0.1185  0.2804  0.3313
24213SOL    HW184698   3.843   7.398   2.488 -0.5708  1.2952  0.1159
24213SOL    HW284699   3.766   7.378   2.630  1.0856 -1.2400  0.7069
24214SOL     OW84700   6.965   5.271   6.113  0.0594 -0.4612  0.0517
24214SOL    HW184701   6.977   5.369   6.103  1.0566 -0.4297  1.4813
24214SOL    HW284702   6.891   5.240   6.053  0.5693  0.9560 -1.3146
24215SOL     OW84703   2.451   4.208   6.349 -0.2501 -0.3518  0.8566
24215SOL    HW184704   2.472   4.239   6.442 -0.8541 -0.7872  1.1357
24215SOL    HW284705   2.423   4.286   6.293  1.1346  0.0905  0.7453
24216SOL     OW84706   4.198   6.848   5.650  0.1729  0.6427  0.8783
24216SOL    HW184707   4.132   6.777   5.624  1.9783 -0.7583  0.0586
24216SOL    HW284708   4.209   6.848   5.749  1.1199 -1.1096  0.7915
24217SOL     OW84709   5.039   8.508   3.607  0.1192  0.7084 -0.3598
24217SOL    HW184710   5.076   8.600   3.620 -0.2510  0.7624  0.3658
24217SOL    HW284711   5.086   8.444   3.668  0.1428  0.4801 -0.6176
24218SOL     OW84712   3.235   4.671   3.166 -0.2783  0.4918  0.6183
24218SOL    HW184713   3.313   4.613   3.188 -1.4425 -2.4398 -2.4242
24218SOL    HW284714   3.154   4.638   3.216 -0.8756 -0.3544 -0.8794
24219SOL     OW84715   8.934   7.920   2.286 -0.4008  0.6086  1.2212
24219SOL    HW184716   8.998   7.993   2.311 -0.5194  0.8753  0.7562
24219SOL    HW284717   8.844   7.959   2.268 -0.1725  0.5061 -0.1993
24220SOL     OW84718   2.727   0.064   3.001 -0.3677 -0.1961  0.1407
24220SOL    HW184719   2.807   0.084   2.946  0.0219  1.2743  1.2039
24220SOL    HW284720   2.750  -0.005   3.070  0.0300  0.3235  0.5325
24221SOL     OW84721   0.825   8.123   9.103 -0.3007 -0.7783  0.1163
24221SOL    HW184722   0.736   8.080   9.115 -0.3560 -0.7019 -0.0163
24221SOL    HW284723   0.875   8.122   9.190 -1.4370  1.4126  0.8597
24222SOL     OW84724   1.076   4.020   1.358  0.1038  0.5132  0.0497
24222SOL    HW184725   1.101   3.948   1.293  0.7583  0.1531  0.6923
24222SOL    HW284726   1.146   4.091   1.358  1.0455 -0.3914  1.6982
24223SOL     OW84727   4.534   8.360   4.734  0.3121 -0.4867  0.4281
24223SOL    HW184728   4.547   8.282   4.673  0.6773 -0.3686  0.3573
24223SOL    HW284729   4.474   8.427   4.690 -1.5810 -1.5876  1.2488
24224SOL     OW84730   8.110   7.501   5.381 -0.2912 -0.2932  0.3071
24224SOL    HW184731   8.203   7.535   5.391 -0.5482  0.1848  1.0794
24224SOL    HW284732   8.049   7.576   5.358 -0.6072 -0.4753  0.5433
24225SOL     OW84733   7.876   1.971   0.858 -0.3329 -0.5165  0.2670
24225SOL    HW184734   7.806   1.907   0.826  0.5218  0.2247 -3.3052
24225SOL    HW284735   7.895   2.037   0.786  3.8059 -0.4945  1.3027
24226SOL     OW84736   4.792   5.883   1.603 -0.6487 -0.0890  0.4697
24226SOL    HW184737   4.775   5.873   1.701  0.3117  0.4159  0.6899
24226SOL    HW284738   4.891   5.881   1.586 -0.6878  2.6976 -0.1758
24227SOL     OW84739   5.420   7.565   4.300  0.2785  0.6203 -0.4042
24227SOL    HW184740   5.415   7.647   4.357 -0.5524  0.3319 -0.0606
24227SOL    HW284741   5.376   7.488   4.347  1.9295 -0.2812 -0.2974
24228SOL     OW84742   6.788   7.789   3.874 -0.0857 -0.5254  0.1374
24228SOL    HW184743   6.811   7.743   3.960 -0.7183  0.0465  0.6185
24228SOL    HW284744   6.806   7.887   3.883  1.5614 -0.6922 -0.9880
24229SOL     OW84745   1.168   3.435   3.486  0.0313 -0.3148 -0.1643
24229SOL    HW184746   1.189   3.479   3.574  0.0802  0.3143 -0.4882
24229SOL    HW284747   1.106   3.358   3.502 -0.7916  0.4224  0.3144
24230SOL     OW84748   7.963   8.495   2.092 -0.4489 -0.1227 -0.0503
24230SOL    HW184749   7.925   8.466   2.004  0.5122 -0.4082 -0.3754
24230SOL    HW284750   7.914   8.576   2.124 -0.1780  0.5511 -1.3184
24231SOL     OW84751   3.102   4.750   5.423 -0.0641  0.0838 -0.3892
24231SOL    HW184752   3.183   4.782   5.375  1.3677 -2.1312  0.4688
24231SOL    HW284753   3.098   4.793   5.513 -0.1231  0.5635 -0.6184
24232SOL     OW84754   7.519   9.534   9.750  0.0399  0.0243  0.6419
24232SOL    HW184755   7.471   9.472   9.812  1.4086 -0.2369  1.4608
24232SOL    HW284756   7.477   9.529   9.659 -1.7427  0.1375  1.4445
24233SOL     OW84757   5.797   5.666   9.225  0.7283 -0.2236  0.5139
24233SOL    HW184758   5.798   5.695   9.321 -0.4924  0.0294  0.4546
24233SOL    HW284759   5.721   5.710   9.177  1.8912  0.3911 -0.8066
24234SOL     OW84760   8.505   6.861   2.589 -0.1958 -0.2506 -0.4279
24234SOL    HW184761   8.588   6.915   2.601 -0.8781  0.7567 -0.2344
24234SOL    HW284762   8.528   6.776   2.541  0.6028  0.9835 -2.2839
24235SOL     OW84763   0.436   5.537   6.030  0.1004  0.0663 -0.4198
24235SOL    HW184764   0.470   5.449   5.996  0.5667  0.4653 -1.0064
24235SOL    HW284765   0.488   5.611   5.987 -1.2269  0.6784 -1.0073
24236SOL     OW84766   7.387   8.121   9.906 -0.5463  0.1716  0.1485
24236SOL    HW184767   7.435   8.207   9.891  1.6630 -0.9822  0.4501
24236SOL    HW284768   7.289   8.134   9.889  0.0913  2.1099 -2.2658
24237SOL     OW84769   8.333   7.068   5.674  0.2443  0.3345  0.0620
24237SOL    HW184770   8.368   6.976   5.688  0.0065  0.2412  0.0358
24237SOL    HW284771   8.305   7.106   5.762 -0.0451  0.2281  0.0148
24238SOL     OW84772   1.798   6.362   6.540  0.1120 -0.1400 -0.0485
24238SOL    HW184773   1.868   6.398   6.478  0.6692  0.0624  0.6956
24238SOL    HW284774   1.842   6.322   6.620 -0.6821  1.7554  1.3684
24239SOL     OW84775   1.424   2.073   2.149 -0.4946 -0.5852 -0.5680
24239SOL    HW184776   1.369   2.105   2.226  1.1279 -1.6523  1.0814
24239SOL    HW284777   1.520   2.096   2.166  0.3226 -3.7469 -0.7159
24240SOL     OW84778   2.852   7.529   3.396 -0.0274  0.4704 -0.1375
24240SOL    HW184779   2.920   7.530   3.322  2.9390  0.4554  2.4734
24240SOL    HW284780   2.828   7.435   3.418 -0.5745  0.4598 -0.7780
24241SOL     OW84781   1.621   6.524   7.775 -0.0774 -0.2955 -0.3975
24241SOL    HW184782   1.612   6.487   7.683  1.1281  2.6074 -1.7624
24241SOL    HW284783   1.695   6.477   7.823  0.5537 -0.5500 -1.6065
24242SOL     OW84784   9.623   7.903   2.686  0.3732  0.0973 -0.4440
24242SOL    HW184785   9.671   7.947   2.611 -0.1906  0.6281 -0.4975
24242SOL    HW284786   9.525   7.924   2.680 -0.2125 -2.6503 -1.5677
24243SOL     OW84787   4.403   1.717   6.758 -0.1769 -0.4211 -0.5128
24243SOL    HW184788   4.355   1.718   6.670 -1.4859 -1.4148  0.1740
24243SOL    HW284789   4.376   1.797   6.811 -0.5815 -0.6319 -0.3960
24244SOL     OW84790   7.306   0.937   6.398 -0.3840  0.0055 -0.2556
24244SOL    HW184791   7.349   0.997   6.466  0.3001  1.0264 -1.5684
24244SOL    HW284792   7.217   0.975   6.372 -0.1926  0.1611 -0.6858
24245SOL     OW84793   9.956   4.402   8.940 -0.1124  0.7637  0.2418
24245SOL    HW184794   9.898   4.387   8.859 -0.1512  0.6274  0.2951
24245SOL    HW284795   9.908   4.463   9.003  0.8919  2.7968 -0.9012
24246SOL     OW84796   1.083   1.745   1.332  0.3477 -0.1003  0.1425
24246SOL    HW184797   1.024   1.737   1.252  0.1283 -2.7802  0.5320
24246SOL    HW284798   1.027   1.759   1.414  0.5926  3.0779 -0.1753
24247SOL     OW84799   2.687   6.889   2.191  0.4671  0.0134 -0.2328
24247SOL    HW184800   2.709   6.797   2.222  0.9462  0.0902 -0.3364
24247SOL    HW284801   2.640   6.939   2.264  0.3689 -0.2518 -0.1145
24248SOL     OW84802   9.105   5.771   4.273 -0.1662  0.1700 -0.5342
24248SOL    HW184803   9.171   5.757   4.199 -1.7988 -0.7836 -1.8476
24248SOL    HW284804   9.013   5.785   4.234 -0.9949  0.0236  1.3033
24249SOL     OW84805   9.567   7.473   4.380  0.1234  0.5100 -0.0730
24249SOL    HW184806   9.473   7.504   4.365  0.1426  0.4354 -0.3368
24249SOL    HW284807   9.590   7.484   4.477  0.5460  2.5274 -0.3688
24250SOL     OW84808   3.193   0.448   5.106 -0.2505 -0.2198 -0.6398
24250SOL    HW184809   3.284   0.412   5.090  0.1494  0.1972  0.7090
24250SOL    HW284810   3.125   0.375   5.098  0.2651 -0.6648 -0.9057
24251SOL     OW84811   6.121   3.200   3.185 -0.7956 -0.4654  0.0353
24251SOL    HW184812   6.105   3.260   3.106 -2.2495 -1.6316 -0.5703
24251SOL    HW284813   6.209   3.153   3.173 -0.9793 -0.5872 -0.8567
24252SOL     OW84814   8.185   7.244   7.664 -0.0801  0.4985 -0.6619
24252SOL    HW184815   8.217   7.311   7.597  1.1877  1.0448  0.4645
24252SOL    HW284816   8.234   7.158   7.652  0.0785  0.5657 -0.4887
24253SOL     OW84817   7.329   6.339   6.655 -0.5094 -0.0458 -0.3279
24253SOL    HW184818   7.370   6.293   6.576 -0.0240 -1.6056  0.7997
24253SOL    HW284819   7.263   6.278   6.698  0.9546 -0.1344  1.8615
24254SOL     OW84820   9.335   2.844   4.226 -0.0774 -0.3248 -0.0200
24254SOL    HW184821   9.340   2.924   4.286  1.0604  0.0080 -0.5475
24254SOL    HW284822   9.254   2.850   4.168 -0.4242  0.0477  0.5055
24255SOL     OW84823   0.211   3.755   6.644  0.0910 -0.9814 -0.5790
24255SOL    HW184824   0.291   3.790   6.596  1.3710 -1.3705  1.2186
24255SOL    HW284825   0.237   3.729   6.737 -2.3073 -0.3587  0.2862
24256SOL     OW84826   7.394   7.711   3.811 -0.1419  0.5215  0.6096
24256SOL    HW184827   7.378   7.671   3.720 -0.9921  1.6827  0.2383
24256SOL    HW284828   7.332   7.668   3.877 -0.3561  0.5279  0.4119
24257SOL     OW84829   7.634   4.967   7.661 -0.1182  0.1278  0.0310
24257SOL    HW184830   7.552   5.022   7.677  1.6674  2.2748  2.1660
24257SOL    HW284831   7.690   5.011   7.591 -0.7307 -1.3244 -1.4057
24258SOL     OW84832   0.142   3.496   0.407  0.2412 -0.0681  0.0045
24258SOL    HW184833   0.043   3.507   0.397  0.1799  1.5573  2.1197
24258SOL    HW284834   0.187   3.523   0.321 -1.0980  0.0877 -0.6597
24259SOL     OW84835   8.384   6.316   4.980  0.4405 -0.0571  0.8279
24259SOL    HW184836   8.473   6.273   4.997  0.7324 -0.1546 -0.8430
24259SOL    HW284837   8.396   6.414   4.968  0.2408  0.0091  1.1700
24260SOL     OW84838   9.374   8.496   6.125 -0.2246  0.1861  0.3011
24260SOL    HW184839   9.383   8.446   6.039 -0.0645  2.5341 -1.1003
24260SOL    HW284840   9.348   8.433   6.198  0.7784 -2.0493 -1.2179
24261SOL     OW84841   9.542   9.119   9.123  0.1073  0.0694  0.5387
24261SOL    HW184842   9.610   9.152   9.058  1.2593 -0.5920  1.3813
24261SOL    HW284843   9.573   9.138   9.216 -2.3964  2.7257  0.9136
24262SOL     OW84844   3.900   7.094   3.942 -0.5503  0.1741 -0.4558
24262SOL    HW184845   3.872   7.187   3.918  0.7141  0.9918  1.1979
24262SOL    HW284846   3.995   7.080   3.916 -0.3185 -0.1961  0.5712
24263SOL     OW84847   9.835   5.093   1.119  0.1927  0.1800 -0.1655
24263SOL    HW184848   9.868   5.150   1.043 -0.4033  0.4165 -0.2462
24263SOL    HW284849   9.753   5.134   1.158  0.5113  0.0637  0.6207
24264SOL     OW84850   7.642   8.305   9.638  0.2072 -0.0232 -0.0457
24264SOL    HW184851   7.624   8.324   9.734  1.3078 -1.9302  0.5681
24264SOL    HW284852   7.556   8.294   9.588 -0.3618 -0.5499  1.0500
24265SOL     OW84853   0.314   3.856   0.592 -0.4111  0.0062 -0.0274
24265SOL    HW184854   0.234   3.797   0.592 -0.4509  0.0607  0.7738
24265SOL    HW284855   0.301   3.930   0.526 -0.3070 -0.9403 -1.1152
24266SOL     OW84856   9.215   0.456   3.629  0.0961  0.2948  0.0415
24266SOL    HW184857   9.237   0.372   3.677 -0.6078  1.0167  1.6558
24266SOL    HW284858   9.143   0.438   3.561  0.5049 -0.5506 -0.1643
24267SOL     OW84859   9.122   6.188   4.824  0.1013  0.2902  0.1782
24267SOL    HW184860   9.205   6.174   4.877  1.5303  0.8386 -1.8740
24267SOL    HW284861   9.092   6.101   4.785  0.4097  0.3144 -0.1086
24268SOL     OW84862   6.185   4.432   6.170 -0.4825  0.3652 -0.3793
24268SOL    HW184863   6.113   4.498   6.191 -0.0157  1.2985 -1.6651
24268SOL    HW284864   6.270   4.481   6.151  0.2717 -0.6890  0.2067
24269SOL     OW84865   1.931   7.563   4.536  0.0174  0.4665 -0.1744
24269SOL    HW184866   2.008   7.560   4.472 -0.0637  4.3859 -0.6013
24269SOL    HW284867   1.964   7.539   4.628  1.3239  0.1719 -0.7068
24270SOL     OW84868   2.250   2.569   3.906  0.3521 -0.4199  0.9706
24270SOL    HW184869   2.158   2.567   3.944  0.4970 -0.9111  1.3121
24270SOL    HW284870   2.246   2.557   3.806  0.0744 -0.8907  1.0392
24271SOL     OW84871   8.388   7.896   7.377  0.0202 -0.4793  0.1856
24271SOL    HW184872   8.294   7.898   7.342 -0.1719 -0.2999  0.7042
24271SOL    HW284873   8.429   7.806   7.358 -0.6134 -0.9209  0.8836
24272SOL     OW84874   7.416   2.488   6.744 -0.1202  0.3731 -0.2527
24272SOL    HW184875   7.398   2.490   6.842 -1.5998 -2.1234 -0.4491
24272SOL    HW284876   7.514   2.504   6.728 -0.0105  1.6728  1.5347
24273SOL     OW84877   1.203   1.482   1.933  0.2672 -0.2280  1.0036
24273SOL    HW184878   1.197   1.546   1.856  0.5972  0.5334  1.5902
24273SOL    HW284879   1.285   1.504   1.987 -0.3588 -0.2823  1.9819
24274SOL     OW84880   5.941   5.203   3.225  0.3292  0.8791  0.3161
24274SOL    HW184881   5.888   5.178   3.306  0.9623  1.0531  0.7954
24274SOL    HW284882   6.027   5.245   3.254  0.8617  0.3221 -0.4461
24275SOL     OW84883   9.413   4.215   6.469  0.0445  0.1344 -0.1732
24275SOL    HW184884   9.501   4.223   6.422  0.8069 -0.3560  1.1315
24275SOL    HW284885   9.356   4.149   6.421  0.8103 -0.3601 -0.4252
24276SOL     OW84886   6.431   3.456   1.514 -0.5715  0.3738 -0.3375
24276SOL    HW184887   6.450   3.471   1.611 -1.0706  0.8727 -0.3106
24276SOL    HW284888   6.336   3.482   1.494 -1.4973 -2.7964 -0.3159
24277SOL     OW84889   0.936   5.787   1.783  0.5807  0.0812 -0.1434
24277SOL    HW184890   0.880   5.869   1.801  0.8314  0.3879 -0.7566
24277SOL    HW284891   0.942   5.733   1.867 -1.5300 -0.5020 -0.3277
24278SOL     OW84892   7.483   6.596   5.978 -0.2344 -0.6040  0.5238
24278SOL    HW184893   7.577   6.565   5.964 -0.5791 -1.5818  0.3718
24278SOL    HW284894   7.431   6.583   5.894 -0.1274  1.3306  0.1317
24279SOL     OW84895   6.383   5.774   6.021  0.0437 -0.1608 -0.6015
24279SOL    HW184896   6.380   5.702   5.951  0.3946 -1.3671  0.6110
24279SOL    HW284897   6.358   5.735   6.110 -0.1583  1.3132 -0.0051
24280SOL     OW84898   5.844   7.141   3.555 -0.0235  0.1544 -0.3226
24280SOL    HW184899   5.857   7.176   3.462  0.2753 -1.6637 -0.9849
24280SOL    HW284900   5.750   7.109   3.566 -0.5849  2.0698  0.6030
24281SOL     OW84901   5.705   6.117   8.378 -0.4752 -0.2726  0.3393
24281SOL    HW184902   5.703   6.045   8.308 -2.0701 -0.0694  0.1458
24281SOL    HW284903   5.738   6.202   8.336  1.7168 -0.9400  0.6449
24282SOL     OW84904   7.540   6.325   7.484  0.4479  0.2643 -0.3699
24282SOL    HW184905   7.522   6.399   7.549  1.5979 -0.4332  0.7549
24282SOL    HW284906   7.636   6.299   7.489  0.0044 -1.4548 -0.5923
24283SOL     OW84907   5.471   2.937   3.250 -0.4161 -0.9072  0.4009
24283SOL    HW184908   5.537   2.929   3.175 -1.5087  0.3242 -0.7123
24283SOL    HW284909   5.482   3.026   3.294 -1.9132 -0.3361 -0.3600
24284SOL     OW84910   9.370   6.447   6.343 -0.0374  0.4949 -0.2388
24284SOL    HW184911   9.373   6.546   6.360 -2.0179  0.3644  1.0340
24284SOL    HW284912   9.394   6.399   6.428 -0.1168 -0.1189 -0.5657
24285SOL     OW84913   2.632   7.226   5.770  0.0459  0.0659  1.0331
24285SOL    HW184914   2.539   7.248   5.740  0.1162  0.7977  1.3345
24285SOL    HW284915   2.663   7.296   5.835  0.9569  0.0362  0.6280
24286SOL     OW84916   7.025   5.715   1.287  0.2628 -0.0663  0.3978
24286SOL    HW184917   6.989   5.773   1.213 -0.6934 -1.0323  0.0970
24286SOL    HW284918   7.061   5.773   1.360 -1.8058  0.9573  0.6658
24287SOL     OW84919   3.070   1.866   3.837  0.3959 -0.1073 -0.0733
24287SOL    HW184920   3.097   1.909   3.751  0.3889  0.5869  0.2662
24287SOL    HW284921   3.141   1.881   3.905  0.7864 -1.3877 -0.1937
24288SOL     OW84922   7.780   5.261   6.374  0.0060 -0.4329  0.1673
24288SOL    HW184923   7.739   5.201   6.443  0.6429  0.2234  1.1382
24288SOL    HW284924   7.743   5.353   6.383  0.1573 -0.3248 -0.3068
24289SOL     OW84925   9.514   2.806   3.271  0.4637  1.0747  0.4746
24289SOL    HW184926   9.426   2.848   3.291  0.5261  0.4856  2.0525
24289SOL    HW284927   9.533   2.735   3.340  0.7997 -0.8449 -1.5300
24290SOL     OW84928   1.235   8.723   7.485 -1.0174 -0.1197  0.3441
24290SOL    HW184929   1.225   8.683   7.393  0.0942  1.2208 -0.3719
24290SOL    HW284930   1.227   8.651   7.553 -0.1538 -1.4001 -0.8783
24291SOL     OW84931   0.661   6.132   0.769  0.2152  0.5165 -0.7088
24291SOL    HW184932   0.627   6.224   0.751 -2.7831 -0.4809 -0.3346
24291SOL    HW284933   0.586   6.074   0.800  1.9952 -2.1396 -1.2166
24292SOL     OW84934   9.936   6.247   4.046 -0.3482  0.2301 -0.0275
24292SOL    HW184935   9.998   6.261   4.123 -0.9162 -0.4305  0.5456
24292SOL    HW284936   9.849   6.293   4.064  0.0323  1.3239 -0.9188
24293SOL     OW84937   9.337   8.630   5.414  0.3945 -0.1065 -0.3512
24293SOL    HW184938   9.369   8.563   5.480 -1.4454 -0.2510  0.4166
24293SOL    HW284939   9.334   8.588   5.323  0.0592 -0.8183 -0.0153
24294SOL     OW84940   0.877   1.918   2.329 -0.0052  0.1635  0.3987
24294SOL    HW184941   0.897   1.821   2.336 -2.8809 -0.5777 -1.0396
24294SOL    HW284942   0.780   1.934   2.348  0.6159  2.8757  1.5381
24295SOL     OW84943   2.242   0.649   3.822 -0.3995 -0.8118  0.1997
24295SOL    HW184944   2.150   0.685   3.803 -1.2230 -2.4608  0.9353
24295SOL    HW284945   2.286   0.623   3.736 -0.5839  0.0501 -0.1623
24296SOL     OW84946   7.489   5.820   7.339 -0.0233 -0.1084 -0.2632
24296SOL    HW184947   7.528   5.739   7.295 -0.3800  0.4497 -1.6402
24296SOL    HW284948   7.563   5.880   7.370  0.2638  1.2021 -3.3364
24297SOL     OW84949   7.262   5.603   1.036 -0.1310  0.5974 -0.0116
24297SOL    HW184950   7.257   5.523   0.978  4.1384 -0.5305  0.9593
24297SOL    HW284951   7.273   5.685   0.980  1.2723 -0.1932 -0.9195
24298SOL     OW84952   1.124   0.417   9.744 -0.7092  0.1125  0.0165
24298SOL    HW184953   1.136   0.515   9.734  0.7540 -0.0522 -0.0114
24298SOL    HW284954   1.033   0.391   9.714 -1.6110  1.6437  1.3544
24299SOL     OW84955   1.086   7.108   7.135  0.0523 -0.3605 -0.3042
24299SOL    HW184956   0.999   7.136   7.177 -0.4122 -1.3075 -0.6356
24299SOL    HW284957   1.134   7.190   7.102 -0.6018  0.1880  0.0769
24300SOL     OW84958   7.888   9.536   4.482 -0.3997 -0.1585 -0.0619
24300SOL    HW184959   7.835   9.596   4.542  0.2161 -0.2929  0.6266
24300SOL    HW284960   7.871   9.441   4.506 -0.6416 -0.2313 -0.5203
24301SOL     OW84961   9.810   1.327   9.267 -0.6975 -0.1685  0.1617
24301SOL    HW184962   9.785   1.276   9.349  0.2608  0.0769  0.6208
24301SOL    HW284963   9.741   1.397   9.248 -0.7860 -0.0509  0.9140
24302SOL     OW84964   4.864   8.843   7.388 -0.3574  0.0003  0.3948
24302SOL    HW184965   4.795   8.800   7.330 -1.5312  1.0978  0.9651
24302SOL    HW284966   4.933   8.888   7.330  1.1583 -2.9673 -0.2346
24303SOL     OW84967   7.886   4.829   8.237  0.5671  0.5467  0.5586
24303SOL    HW184968   7.859   4.846   8.332 -0.8699 -0.9431  0.4432
24303SOL    HW284969   7.819   4.871   8.176  0.8557  0.5077  0.2158
24304SOL     OW84970   7.193   5.597   2.428 -0.0081  0.3253 -0.0209
24304SOL    HW184971   7.148   5.524   2.377 -2.0572 -0.3505  2.6443
24304SOL    HW284972   7.194   5.680   2.372 -1.6919 -0.5402 -1.3960
24305SOL     OW84973   0.001   6.047   5.937 -0.2314 -0.5111 -0.2552
24305SOL    HW184974  -0.008   6.010   5.845  0.1150 -0.6920 -0.2203
24305SOL    HW284975   0.010   5.971   6.002  1.3498 -0.3608 -0.2804
24306SOL     OW84976   0.000   3.167   5.097 -0.6834 -0.7115  0.4492
24306SOL    HW184977  -0.006   3.234   5.024  1.5434 -0.2664  0.6310
24306SOL    HW284978  -0.081   3.109   5.097 -1.8661  0.9275 -0.7477
24307SOL     OW84979   0.658   8.382   7.353  0.2127  0.0935  0.8249
24307SOL    HW184980   0.623   8.317   7.421 -2.1355  1.0859  0.5926
24307SOL    HW284981   0.609   8.370   7.267  2.1659 -0.1450 -0.2901
24308SOL     OW84982   7.539   7.173   4.491  0.5881 -0.3433 -0.2859
24308SOL    HW184983   7.620   7.136   4.536  1.7304  1.1236 -1.0674
24308SOL    HW284984   7.519   7.120   4.409  0.7176 -0.7414 -0.0627
24309SOL     OW84985   9.763   7.238   6.747  0.3932 -0.2224  0.1503
24309SOL    HW184986   9.737   7.334   6.759  0.3642 -0.2263  0.1132
24309SOL    HW284987   9.802   7.224   6.657 -2.1608 -0.8100 -0.9283
24310SOL     OW84988   9.203   8.844   5.786 -0.4333 -0.1147  0.0710
24310SOL    HW184989   9.271   8.913   5.761  0.3818 -0.8688  0.1924
24310SOL    HW284990   9.160   8.869   5.872 -0.6868  0.6337 -0.2648
24311SOL     OW84991   1.592   2.995   6.311 -0.5880 -0.2013 -0.4154
24311SOL    HW184992   1.692   2.990   6.314 -0.5973  0.8281  2.7519
24311SOL    HW284993   1.553   2.912   6.352 -1.0111  0.8114  1.2440
24312SOL     OW84994   3.262   5.824   1.718 -0.5107  0.4067  0.1207
24312SOL    HW184995   3.357   5.820   1.685 -0.3663 -0.5629  0.6140
24312SOL    HW284996   3.202   5.782   1.650 -0.4177 -0.1149  0.3518
24313SOL     OW84997   6.815   8.548   4.033  0.7085  0.3035 -0.6777
24313SOL    HW184998   6.823   8.449   4.044 -2.2816  0.0608 -0.1604
24313SOL    HW284999   6.838   8.574   3.939  0.1046 -1.0967 -1.2300
24314SOL     OW85000   1.497   7.935   6.372  0.3098 -0.0680  0.5205
24314SOL    HW185001   1.427   7.864   6.375 -1.4020  1.5923  0.7242
24314SOL    HW285002   1.469   8.012   6.428  1.8928  0.9962 -0.1150
24315SOL     OW85003   6.093   0.591   4.127 -0.4358  0.1256  0.2220
24315SOL    HW185004   6.070   0.682   4.161  0.6003  0.7216 -0.6361
24315SOL    HW285005   6.165   0.599   4.057 -0.5317 -1.3217 -0.0493
24316SOL     OW85006   7.366   6.217   5.413  0.0494  0.1324  0.0385
24316SOL    HW185007   7.278   6.174   5.434  0.3216 -0.0374  0.8601
24316SOL    HW285008   7.357   6.316   5.423  0.0471  0.0883  0.5124
24317SOL     OW85009   4.449   0.335   8.443 -0.9021  0.2727  0.0769
24317SOL    HW185010   4.470   0.328   8.541  0.3881 -2.7520 -0.3398
24317SOL    HW285011   4.360   0.378   8.431 -0.4276  2.0504  2.5010
24318SOL     OW85012   8.486   1.338   3.360  0.2781 -0.1780 -0.1977
24318SOL    HW185013   8.475   1.436   3.344  0.5005 -0.1248 -0.0326
24318SOL    HW285014   8.569   1.305   3.314  0.8214 -0.0564  0.6757
24319SOL     OW85015   0.402   8.739   3.678 -0.2945 -0.0761  0.6726
24319SOL    HW185016   0.329   8.807   3.686  1.1201  1.5676  0.0492
24319SOL    HW285017   0.478   8.765   3.736  0.1746 -1.2699  0.6029
24320SOL     OW85018   8.303   4.942   7.060 -0.5713  0.6588 -0.7769
24320SOL    HW185019   8.341   5.025   7.100  0.1174  0.1955 -0.4662
24320SOL    HW285020   8.207   4.932   7.088  0.1689 -0.1642  1.5571
24321SOL     OW85021   0.917   4.942   9.057  0.1986  0.5514 -0.4695
24321SOL    HW185022   0.931   5.020   9.117  0.7157 -0.0046  0.1459
24321SOL    HW285023   1.003   4.892   9.046 -0.3974 -0.6633  0.1942
24322SOL     OW85024   5.373   0.040   0.094 -0.0161  0.2687  0.1651
24322SOL    HW185025   5.420  -0.035   0.050  0.9149  1.0544 -0.2025
24322SOL    HW285026   5.360   0.115   0.029  1.6459  1.5578  1.2342
24323SOL     OW85027   4.642   2.050   7.288 -0.3698  0.1673  0.4360
24323SOL    HW185028   4.701   1.984   7.240 -0.8143  0.3543 -0.3797
24323SOL    HW285029   4.597   2.109   7.221 -2.0195 -0.4128  1.0169
24324SOL     OW85030   5.339   0.961   3.035  0.1451  0.0134 -0.2467
24324SOL    HW185031   5.429   0.929   3.008  0.5316 -0.0328  1.0741
24324SOL    HW285032   5.342   1.059   3.054 -0.1165  0.0374 -0.3174
24325SOL     OW85033   6.623   2.081   0.105 -0.2735 -0.0515 -0.1605
24325SOL    HW185034   6.701   2.031   0.142  1.7193  2.0564 -1.3176
24325SOL    HW285035   6.595   2.041   0.018  0.2382 -0.1485 -0.2805
24326SOL     OW85036   4.394   7.211   3.252 -0.2247  0.1846 -0.7069
24326SOL    HW185037   4.373   7.168   3.339 -0.1304 -0.5985 -1.0692
24326SOL    HW285038   4.331   7.178   3.182 -1.1121  1.7528 -0.6794
24327SOL     OW85039   0.594   9.494   6.633 -0.2885 -0.1818  0.0043
24327SOL    HW185040   0.658   9.422   6.606  2.1125  0.7075  3.0437
24327SOL    HW285041   0.543   9.465   6.713 -0.0160  1.0844  0.6499
24328SOL     OW85042   6.318   9.208   7.444  0.0337  0.3642 -0.2277
24328SOL    HW185043   6.297   9.257   7.529 -0.6351 -0.6370  0.1836
24328SOL    HW285044   6.252   9.135   7.429  2.0723 -1.6225  0.1162
24329SOL     OW85045   9.390   3.714   6.053 -0.4795 -0.8521  0.0390
24329SOL    HW185046   9.439   3.645   5.999  1.2446  0.7944 -0.5693
24329SOL    HW285047   9.358   3.786   5.992  0.6706  0.5635  1.0923
24330SOL     OW85048   3.318   6.917   8.437  0.6178  0.0403 -0.7175
24330SOL    HW185049   3.308   6.996   8.498  0.8004 -0.2164 -0.3502
24330SOL    HW285050   3.261   6.842   8.470  1.5737 -0.4763 -0.2128
24331SOL     OW85051   2.699   9.679   6.375  0.0562  0.1867  0.3544
24331SOL    HW185052   2.606   9.694   6.341  0.1240 -0.7318 -0.2520
24331SOL    HW285053   2.717   9.743   6.450 -1.0772  0.3491  0.5121
24332SOL     OW85054   6.643   6.239   5.153 -0.4390  0.3610  0.1752
24332SOL    HW185055   6.545   6.259   5.151 -0.5382 -0.0847  0.6990
24332SOL    HW285056   6.663   6.175   5.227 -0.1001 -1.4139 -1.4169
24333SOL     OW85057   8.882   5.792   1.575 -0.0664 -0.0309  0.1638
24333SOL    HW185058   8.909   5.768   1.669 -0.6459  0.4385  0.4595
24333SOL    HW285059   8.955   5.844   1.532  0.2221 -0.2843  0.3439
24334SOL     OW85060   7.867   3.081   2.903  0.0837 -0.2725  0.7379
24334SOL    HW185061   7.791   3.034   2.858 -0.2076 -0.2192  1.1787
24334SOL    HW285062   7.837   3.171   2.933  1.0262  0.7629 -1.3565
24335SOL     OW85063   4.637   8.783   8.266  0.1619  0.7339 -0.4972
24335SOL    HW185064   4.576   8.838   8.209 -1.0581  1.0178  1.0654
24335SOL    HW285065   4.588   8.704   8.302  1.4984 -0.5919 -1.4999
24336SOL     OW85066   1.882   0.683   8.052  0.0189 -0.3117 -0.0450
24336SOL    HW185067   1.971   0.642   8.034  0.0099 -0.3298 -0.0460
24336SOL    HW285068   1.840   0.638   8.131 -0.0500 -0.3968 -0.1297
24337SOL     OW85069   9.333   7.179   4.337  0.0803  0.1721 -0.3034
24337SOL    HW185070   9.340   7.254   4.271  1.2125 -1.0791 -1.6600
24337SOL    HW285071   9.299   7.214   4.424 -0.5422  2.0346 -1.2646
24338SOL     OW85072   9.178   7.247   8.126  0.7611 -0.0163 -0.4054
24338SOL    HW185073   9.116   7.297   8.066 -0.8815  0.0955  1.3409
24338SOL    HW285074   9.230   7.312   8.182  0.7494 -0.1756 -0.2079
24339SOL     OW85075   9.618   5.062   2.211 -0.1518 -0.1411 -0.1916
24339SOL    HW185076   9.536   5.005   2.223 -0.2145 -0.0805 -0.3234
24339SOL    HW285077   9.699   5.011   2.238 -0.3018  0.0496  0.6107
24340SOL     OW85078   9.668   9.759   9.835  0.0980 -0.0010  0.2980
24340SOL    HW185079   9.711   9.704   9.906 -1.4139 -1.4912  0.1019
24340SOL    HW285080   9.569   9.745   9.838 -0.1720  1.5781 -0.7135
24341SOL     OW85081   4.647   6.541   1.004 -0.1164  0.0839  0.4591
24341SOL    HW185082   4.665   6.449   0.970 -1.9512 -0.1746  0.1133
24341SOL    HW285083   4.691   6.608   0.944  2.7769 -0.5955  1.7482
24342SOL     OW85084   0.019   3.972   9.108  0.2374  0.1180  0.2276
24342SOL    HW185085   0.097   4.028   9.136 -0.6632  1.2221  0.5803
24342SOL    HW285086   0.010   3.893   9.169  2.2718 -1.1181 -1.0288
24343SOL     OW85087   8.121   2.472   0.841  0.4070  0.8674  0.5943
24343SOL    HW185088   8.195   2.407   0.821  1.4255  1.2010  3.1072
24343SOL    HW285089   8.082   2.452   0.930 -1.0269  2.1112  0.2683
24344SOL     OW85090   4.742   5.115   2.687  0.0450 -0.2947 -0.6732
24344SOL    HW185091   4.799   5.162   2.755  0.7815 -1.7699 -0.2534
24344SOL    HW285092   4.661   5.170   2.669  0.1425  0.4288  0.9403
24345SOL     OW85093   7.853   6.450   7.501  0.7598  0.1592 -0.1215
24345SOL    HW185094   7.835   6.447   7.600 -3.3729  0.1548 -0.8093
24345SOL    HW285095   7.873   6.544   7.474  2.0331  0.1446  0.7008
24346SOL     OW85096   7.117   2.980   4.711 -0.3190 -0.6170 -0.3006
24346SOL    HW185097   7.202   2.980   4.658  0.7099 -1.9466  1.3143
24346SOL    HW285098   7.052   2.918   4.668 -0.1429 -0.3334 -1.0011
24347SOL     OW85099   8.697   6.487   7.102 -0.5701 -0.0636  0.3214
24347SOL    HW185100   8.789   6.493   7.140  0.8471 -1.2458 -2.7765
24347SOL    HW285101   8.653   6.403   7.134  0.1838 -0.4883  0.2466
24348SOL     OW85102   9.051   6.566   4.942 -0.2672 -0.2875  0.0715
24348SOL    HW185103   9.012   6.487   4.989  1.3600  0.1467  2.1761
24348SOL    HW285104   9.020   6.650   4.985  1.9821  0.0954  1.0078
24349SOL     OW85105   7.274   6.467   7.391 -0.4913 -0.7031 -0.0394
24349SOL    HW185106   7.182   6.482   7.426 -1.7835 -2.6471 -2.4396
24349SOL    HW285107   7.301   6.372   7.408  1.2403 -0.0429  1.0015
24350SOL     OW85108   6.497   5.772   8.054 -0.2680 -0.1056  0.2870
24350SOL    HW185109   6.493   5.852   7.995  0.0618 -0.5951 -0.4127
24350SOL    HW285110   6.538   5.696   8.004 -3.2808 -1.5835 -0.0472
24351SOL     OW85111   0.517   6.406   5.016  0.7373 -0.2368 -0.5647
24351SOL    HW185112   0.523   6.306   5.018 -1.9722 -0.4269 -0.2958
24351SOL    HW285113   0.456   6.434   4.943  0.1193  1.1523  0.4703
24352SOL     OW85114   1.796   6.471   8.129  0.3140  0.6144 -0.1308
24352SOL    HW185115   1.775   6.470   8.227  0.4662 -1.8423 -0.0837
24352SOL    HW285116   1.718   6.433   8.078  1.2595 -0.5893 -0.7048
24353SOL     OW85117   2.440   6.697   4.784 -0.4128  0.7464 -0.1409
24353SOL    HW185118   2.446   6.773   4.849 -0.1607  3.5692 -3.3089
24353SOL    HW285119   2.349   6.656   4.790 -0.1949  0.5098  2.3782
24354SOL     OW85120   1.366   8.280   5.823  0.4197 -0.1685  0.2589
24354SOL    HW185121   1.274   8.306   5.854  1.0109  1.2813  0.8313
24354SOL    HW285122   1.426   8.360   5.826  1.2614 -0.6933 -1.8126
24355SOL     OW85123   7.081   4.445   3.474  0.1843 -0.1034  0.2941
24355SOL    HW185124   7.036   4.480   3.392 -0.0423 -1.3368 -0.1164
24355SOL    HW285125   7.086   4.345   3.470  1.5958 -0.0766  1.0557
24356SOL     OW85126   5.581   8.054   7.219 -0.1237 -0.3804  0.0559
24356SOL    HW185127   5.576   7.980   7.151  1.1357  0.4027 -0.9098
24356SOL    HW285128   5.652   8.119   7.192  0.1698  0.1079  1.9814
24357SOL     OW85129   9.893   8.019   7.652  0.1637 -0.1471  0.0416
24357SOL    HW185130   9.822   8.089   7.661 -0.0083 -0.0473 -1.8288
24357SOL    HW285131   9.895   7.986   7.557  2.0017 -0.8028  0.2893
24358SOL     OW85132   7.317   4.347   1.889  0.2543  0.3407  0.0555
24358SOL    HW185133   7.303   4.269   1.949 -0.5766 -0.9660 -1.7933
24358SOL    HW285134   7.414   4.371   1.886  0.3741  0.0276  1.4234
24359SOL     OW85135   4.814   7.473   1.056  0.1130  0.2157  0.6690
24359SOL    HW185136   4.886   7.489   1.124 -0.6518  0.6913  1.3806
24359SOL    HW285137   4.751   7.551   1.056  0.5335  0.5734 -1.1360
24360SOL     OW85138   6.382   3.197   9.527 -0.8608  0.4158 -0.4219
24360SOL    HW185139   6.295   3.241   9.504 -0.6696  1.4365  0.7345
24360SOL    HW285140   6.393   3.197   9.626 -0.3492 -1.2937 -0.4780
24361SOL     OW85141   8.882   4.926   2.570 -0.1295 -0.4761 -0.3162
24361SOL    HW185142   8.972   4.920   2.614  0.4322  0.1304 -1.3647
24361SOL    HW285143   8.816   4.872   2.623  0.8505 -0.9616  0.4446
24362SOL     OW85144   5.609   4.342   2.230  0.1462 -0.0178 -0.3240
24362SOL    HW185145   5.654   4.397   2.300 -1.6957 -1.3101  1.9452
24362SOL    HW285146   5.516   4.376   2.214 -0.3616 -1.3127 -0.2411
24363SOL     OW85147   0.411   0.063   5.875  0.3123 -0.1077  0.2891
24363SOL    HW185148   0.328   0.064   5.931 -0.8417  0.5053 -1.3968
24363SOL    HW285149   0.490   0.045   5.933 -0.8856  0.2596  2.0689
24364SOL     OW85150   7.317   5.600   5.050  0.0264 -0.3925 -0.3990
24364SOL    HW185151   7.386   5.673   5.052 -0.4596  0.0783  2.7586
24364SOL    HW285152   7.322   5.547   5.135 -1.4469 -2.3193 -1.4723
24365SOL     OW85153   9.820   8.190   6.717 -0.0408 -0.0139 -0.0997
24365SOL    HW185154   9.857   8.241   6.640  1.0416 -1.9341 -0.8886
24365SOL    HW285155   9.790   8.254   6.788  1.5142  1.6925 -0.9364
24366SOL     OW85156   1.892   0.011   1.999  0.1648  0.9327  0.2742
24366SOL    HW185157   1.925  -0.081   2.018 -1.8717 -0.1567 -1.1902
24366SOL    HW285158   1.928   0.075   2.067  2.2806 -0.7751  0.8195
24367SOL     OW85159   7.892   7.561   4.282  0.3482 -0.1846  0.0848
24367SOL    HW185160   7.803   7.516   4.279 -0.0147  0.5096  0.2588
24367SOL    HW285161   7.895   7.625   4.359  0.2447  1.2935 -1.0919
24368SOL     OW85162   9.620   7.766   5.081  0.2125  0.6228 -0.0537
24368SOL    HW185163   9.645   7.845   5.137 -1.1862  1.1733 -0.1731
24368SOL    HW285164   9.525   7.741   5.100  0.3595 -0.4548 -0.7063
24369SOL     OW85165   6.190   1.080   4.975 -0.3074 -0.1038  0.0648
24369SOL    HW185166   6.250   1.000   4.980  0.0525  0.1161 -0.6729
24369SOL    HW285167   6.123   1.067   4.902 -0.6000  0.0332  0.3061
24370SOL     OW85168   9.723   6.897   2.457  0.3213  0.8515 -0.2688
24370SOL    HW185169   9.776   6.948   2.524 -0.5184  1.5936 -0.1515
24370SOL    HW285170   9.672   6.824   2.504  1.6342 -0.2076 -0.4577
24371SOL     OW85171   5.392   3.239   0.242 -0.2198  0.3246 -0.1498
24371SOL    HW185172   5.325   3.167   0.262  0.5874 -0.4607 -0.2191
24371SOL    HW285173   5.483   3.208   0.270  0.1426  1.3092 -0.2201
24372SOL     OW85174   1.709   7.997   9.449  0.1189 -0.3016  0.6918
24372SOL    HW185175   1.801   7.971   9.479  1.6631  0.2061 -3.2929
24372SOL    HW285176   1.661   7.916   9.416 -0.0387 -0.1989  0.6682
24373SOL     OW85177   4.494   4.689   6.660 -0.3946  0.3981 -0.1929
24373SOL    HW185178   4.418   4.624   6.663  0.7810 -0.9784  0.6455
24373SOL    HW285179   4.545   4.677   6.575 -0.0044 -0.0008  0.0918
24374SOL     OW85180   9.183   7.030   5.807  0.0590 -0.2180 -0.0855
24374SOL    HW185181   9.178   6.961   5.879 -0.5313 -0.3373 -0.2420
24374SOL    HW285182   9.241   6.997   5.733  0.4110 -0.2257  0.1919
24375SOL     OW85183   8.816   9.423   4.406  0.2090  0.4941  0.1739
24375SOL    HW185184   8.737   9.394   4.460  0.0678 -0.9080 -0.7651
24375SOL    HW285185   8.889   9.452   4.468 -0.0300 -0.8850  1.1309
24376SOL     OW85186   9.485   2.406   9.095 -0.2101 -0.0133 -0.5729
24376SOL    HW185187   9.564   2.422   9.037  0.8978 -1.4713  0.5081
24376SOL    HW285188   9.432   2.491   9.104  2.1479  1.4379  0.0782
24377SOL     OW85189   9.636   8.112   3.020 -0.1516 -0.3996  0.3351
24377SOL    HW185190   9.594   8.172   2.952 -2.7231 -0.8645  1.4720
24377SOL    HW285191   9.713   8.064   2.979 -0.7706  0.4063 -1.8245
24378SOL     OW85192   9.734   7.646   6.234  0.4560  0.2915 -0.3464
24378SOL    HW185193   9.751   7.688   6.146  0.3468 -1.2749 -1.1355
24378SOL    HW285194   9.653   7.588   6.228  0.7439 -0.2309  0.6454
24379SOL     OW85195   6.557   8.572   0.218 -0.3231  0.0455  0.3373
24379SOL    HW185196   6.459   8.585   0.209 -0.4213 -0.1369  1.1428
24379SOL    HW285197   6.576   8.490   0.272  0.2814 -1.4415 -2.0446
24380SOL     OW85198   0.812   4.807   0.208 -0.0104 -0.8550  0.0397
24380SOL    HW185199   0.873   4.831   0.284 -0.8677 -0.3828  0.5791
24380SOL    HW285200   0.865   4.806   0.123  0.9573 -1.4092  0.6408
24381SOL     OW85201   2.285   6.269   4.918  0.4802  0.2748  0.0437
24381SOL    HW185202   2.229   6.290   4.838 -1.7330  0.4942  1.5946
24381SOL    HW285203   2.286   6.347   4.980  0.7716 -0.5009  1.0338
24382SOL     OW85204   8.251   4.337   5.077  0.1094  0.5369 -0.9966
24382SOL    HW185205   8.331   4.394   5.058  0.2843  1.2159  1.5448
24382SOL    HW285206   8.282   4.250   5.117 -0.4088  0.9294  0.2810
24383SOL     OW85207   2.980   2.225   7.276  0.5490  0.1341 -0.1860
24383SOL    HW185208   2.999   2.227   7.178 -0.1341  1.1547 -0.3009
24383SOL    HW285209   2.913   2.296   7.299 -0.0015 -0.7064  0.8661
24384SOL     OW85210   8.742   6.256   6.280  0.7825  0.0696 -0.2178
24384SOL    HW185211   8.652   6.220   6.254  0.6855  0.1088  0.0573
24384SOL    HW285212   8.730   6.338   6.336  1.0217  1.4659 -2.1609
24385SOL     OW85213   6.779   8.639   3.503 -1.0673 -1.0326 -0.3305
24385SOL    HW185214   6.856   8.692   3.468 -0.9885 -0.2698  0.9800
24385SOL    HW285215   6.698   8.658   3.449 -0.5135 -1.3003 -1.2753
24386SOL     OW85216   9.670   8.430   6.362 -0.1629  0.6110  0.1538
24386SOL    HW185217   9.634   8.347   6.320 -0.0029  0.5930  0.0509
24386SOL    HW285218   9.738   8.406   6.431 -1.9641  0.5375  1.9785
24387SOL     OW85219   0.386   4.389   2.132 -0.0023 -0.6343  0.0543
24387SOL    HW185220   0.316   4.345   2.188 -1.1346  0.6177 -0.3542
24387SOL    HW285221   0.343   4.442   2.059  1.3670  0.0497 -0.2882
24388SOL     OW85222   2.690   5.470   7.075  0.4343  0.7707  0.1075
24388SOL    HW185223   2.716   5.412   7.152 -0.0925  0.4270  0.0244
24388SOL    HW285224   2.689   5.416   6.991 -1.4467  0.5467  0.2429
24389SOL     OW85225   3.008   4.613   9.700  0.1428  0.3409 -0.8305
24389SOL    HW185226   3.041   4.623   9.794 -0.8252 -2.3043 -0.1612
24389SOL    HW285227   3.047   4.686   9.643  0.7843  1.9452  1.5879
24390SOL     OW85228   7.168   8.282   2.910 -0.1055 -0.1082  0.2005
24390SOL    HW185229   7.230   8.239   2.975 -0.4874 -0.5191  0.2922
24390SOL    HW285230   7.115   8.353   2.956 -0.9283 -0.9179  0.5246
24391SOL     OW85231   5.606   2.972   9.034  0.0182 -0.1822  0.0551
24391SOL    HW185232   5.693   2.997   8.991 -1.2951  2.2578 -1.3218
24391SOL    HW285233   5.531   2.989   8.970 -1.4632 -2.6749  1.0551
24392SOL     OW85234   7.591   4.963   2.990 -0.0653  0.4630 -0.3923
24392SOL    HW185235   7.525   4.904   3.037  0.6968  1.4587  1.9950
24392SOL    HW285236   7.557   5.057   2.989 -0.5017  0.3232 -2.7157
24393SOL     OW85237   7.498   4.520   8.058  0.4932 -0.0718  0.3350
24393SOL    HW185238   7.456   4.483   8.140  2.5863  1.4150  2.1480
24393SOL    HW285239   7.466   4.613   8.042  0.1415 -0.3319 -0.4959
24394SOL     OW85240   2.546   1.966   4.443 -0.0497 -0.2775 -0.7112
24394SOL    HW185241   2.593   1.878   4.428  1.2181  0.4546 -1.1372
24394SOL    HW285242   2.515   1.972   4.537 -0.4828 -1.3477 -0.7797
24395SOL     OW85243   9.035   3.997   3.921  0.1364 -0.3823 -0.3154
24395SOL    HW185244   9.117   3.971   3.973 -0.0431  1.0919  0.7290
24395SOL    HW285245   9.039   4.095   3.899 -0.0148 -0.8834 -2.7007
24396SOL     OW85246   3.722   6.394   9.983  0.3962 -0.1409  0.3604
24396SOL    HW185247   3.654   6.360  10.048 -0.5569  1.1688  0.0569
24396SOL    HW285248   3.800   6.430  10.034  0.3780 -0.6173  0.7354
24397SOL     OW85249   7.706   5.484   0.677  0.1891  0.1159  0.1990
24397SOL    HW185250   7.726   5.581   0.671 -0.3525  0.4047  2.4372
24397SOL    HW285251   7.620   5.471   0.727  0.5257 -1.5189  0.3854
24398SOL     OW85252   0.457   6.320   8.945  0.2859  0.2314  0.0195
24398SOL    HW185253   0.514   6.398   8.918 -0.1353  0.3612 -0.5054
24398SOL    HW285254   0.423   6.274   8.862  2.3118 -1.8173  0.2633
24399SOL     OW85255   8.820   6.058   3.967  0.2432  0.0873 -0.2168
24399SOL    HW185256   8.913   6.049   3.930 -0.0156  1.5496 -1.2576
24399SOL    HW285257   8.771   5.972   3.954  0.6624  0.0767 -1.8789
24400SOL     OW85258   5.487   9.417   9.039 -0.3829 -0.0490  0.4391
24400SOL    HW185259   5.474   9.354   9.116 -0.8410  0.1742  0.5460
24400SOL    HW285260   5.398   9.443   9.002 -0.1411 -0.5643 -0.5035
24401SOL     OW85261   2.126   0.904   7.758  0.2471 -0.0468  0.3347
24401SOL    HW185262   2.072   0.977   7.799 -0.6589 -0.7188  0.3682
24401SOL    HW285263   2.086   0.879   7.670 -1.2077 -2.4350  1.5881
24402SOL     OW85264   9.436   8.823   8.441 -0.0021  0.4315  0.4682
24402SOL    HW185265   9.419   8.765   8.361 -1.0172  1.3410  0.0156
24402SOL    HW285266   9.416   8.771   8.524 -0.5029 -0.0076  0.0808
24403SOL     OW85267   1.331   4.841   3.273  0.0860 -0.3487 -0.4808
24403SOL    HW185268   1.372   4.932   3.262 -0.8749 -0.0210 -1.4364
24403SOL    HW285269   1.237   4.843   3.241 -0.6595 -1.1222  1.5576
24404SOL     OW85270   8.724   8.116   2.775 -0.1303 -0.3872  0.4212
24404SOL    HW185271   8.823   8.124   2.770 -0.1047  0.0029  1.4695
24404SOL    HW285272   8.683   8.208   2.775 -0.6167 -0.5562 -2.0954
24405SOL     OW85273   3.113   5.073   5.927 -0.3150  0.8434  0.7695
24405SOL    HW185274   3.061   5.147   5.884  0.0945  0.2418 -0.8153
24405SOL    HW285275   3.187   5.046   5.866  0.7002  0.4091  2.1767
24406SOL     OW85276   5.639   1.943   8.499 -0.4710  0.8652 -0.2538
24406SOL    HW185277   5.668   1.883   8.424  0.2254  0.2003  0.5389
24406SOL    HW285278   5.668   2.037   8.479 -2.8148  1.2109 -2.1743
24407SOL     OW85279   8.972   3.124   4.447  0.2232 -0.1493  0.3753
24407SOL    HW185280   8.908   3.051   4.420  1.4507 -1.2599  0.4321
24407SOL    HW285281   9.042   3.086   4.507  1.4352  0.8695 -0.3722
24408SOL     OW85282   7.169   8.735   2.767  0.1612  0.1584 -0.1286
24408SOL    HW185283   7.251   8.724   2.822  0.7260 -0.9876 -1.1724
24408SOL    HW285284   7.157   8.831   2.743  0.5104  0.5048  1.0667
24409SOL     OW85285   4.000   7.893   5.778 -0.4069  0.1325 -0.4204
24409SOL    HW185286   4.051   7.979   5.787  2.5655 -1.6665  0.4826
24409SOL    HW285287   4.055   7.827   5.728 -0.9147 -2.5923  2.4776
24410SOL     OW85288   9.949   7.132   8.652 -0.3911  0.6108 -0.6708
24410SOL    HW185289   9.967   7.229   8.669 -0.1181  0.7336 -1.5791
24410SOL    HW285290   9.935   7.118   8.554  1.1959 -0.5084 -0.7723
24411SOL     OW85291   8.279   7.840   7.775  0.5557 -0.0416  0.3204
24411SOL    HW185292   8.320   7.751   7.756 -0.4770 -0.6909  1.1313
24411SOL    HW285293   8.212   7.862   7.704 -0.7815 -0.9132  1.2829
24412SOL     OW85294   6.292   4.532   7.465  0.1157  0.2017 -0.6753
24412SOL    HW185295   6.296   4.478   7.381  1.7031 -0.4955 -0.1714
24412SOL    HW285296   6.294   4.471   7.544 -0.2669  0.9052 -0.1171
24413SOL     OW85297   2.401   4.569   3.955 -0.2005  0.1492  0.4125
24413SOL    HW185298   2.345   4.592   4.035 -0.4990 -0.1976  0.3045
24413SOL    HW285299   2.460   4.492   3.978 -0.6517 -0.2814  0.1403
24414SOL     OW85300   3.254   0.180   5.476  0.5300 -0.1412 -0.1529
24414SOL    HW185301   3.290   0.256   5.423 -1.5626  1.9395  1.3551
24414SOL    HW285302   3.159   0.162   5.450  0.1717 -0.4998  1.3139
24415SOL     OW85303   0.049   3.569   8.142  0.2017  0.4362  0.3293
24415SOL    HW185304   0.107   3.535   8.216  0.9754  0.2059 -0.3827
24415SOL    HW285305   0.101   3.572   8.057 -0.7165  0.6091 -0.2326
24416SOL     OW85306   5.561   0.643   1.488 -0.7485  0.2612  0.2137
24416SOL    HW185307   5.534   0.552   1.519  1.6486 -0.2490  0.8856
24416SOL    HW285308   5.619   0.635   1.407 -0.4217  1.1754  0.3551
24417SOL     OW85309   7.833   1.333   5.999 -0.0220 -0.1149 -0.5227
24417SOL    HW185310   7.882   1.265   5.943 -1.7731 -1.6032 -0.2804
24417SOL    HW285311   7.893   1.364   6.073  0.2399 -2.6809  0.3978
24418SOL     OW85312   8.412   0.780   4.626 -0.0894 -0.7636 -0.1476
24418SOL    HW185313   8.457   0.810   4.710  0.6372 -2.2452  0.0199
24418SOL    HW285314   8.313   0.786   4.637  0.0148 -0.3396  0.5792
24419SOL     OW85315   6.321   0.304   0.793  0.4387 -0.3200  0.3094
24419SOL    HW185316   6.274   0.315   0.706 -3.9082 -0.1715  2.5500
24419SOL    HW285317   6.320   0.208   0.820 -0.4718 -0.0287  1.3545
24420SOL     OW85318   7.092   1.497   1.267 -0.2459 -0.9083 -0.2729
24420SOL    HW185319   7.094   1.472   1.363 -0.3953 -0.9008 -0.2671
24420SOL    HW285320   7.059   1.591   1.258  0.9989 -0.4620 -0.2437
24421SOL     OW85321   9.103   4.001   5.617  0.4216 -0.0813  0.2465
24421SOL    HW185322   9.026   4.036   5.564  1.1056  0.9080 -0.0974
24421SOL    HW285323   9.078   3.913   5.657 -0.2260 -0.6681 -1.4014
24422SOL     OW85324   8.659   8.387   7.938  0.3540  0.1153 -0.2335
24422SOL    HW185325   8.640   8.313   8.003  0.2794 -0.6956 -1.1525
24422SOL    HW285326   8.676   8.472   7.987 -0.6903 -0.2617  0.7947
24423SOL     OW85327   0.057   5.791   3.035 -0.3835 -0.2863  0.2138
24423SOL    HW185328   0.157   5.799   3.034 -0.0931 -2.8865 -3.0415
24423SOL    HW285329   0.020   5.833   2.952 -1.7360 -1.3737  0.2533
24424SOL     OW85330   0.307   5.520   6.737  0.7186 -0.1267  0.3938
24424SOL    HW185331   0.315   5.585   6.813  1.6967 -1.5148  1.5224
24424SOL    HW285332   0.355   5.436   6.762  0.2752 -0.9204 -1.4279
24425SOL     OW85333   9.539   2.290   3.847  0.2660 -0.1367  0.0544
24425SOL    HW185334   9.568   2.354   3.918  1.6754 -0.7397  0.0423
24425SOL    HW285335   9.587   2.311   3.761 -0.2987 -0.3457 -0.3200
24426SOL     OW85336   3.598   7.389   5.152 -0.4502  0.0785 -0.2955
24426SOL    HW185337   3.649   7.462   5.107  0.9957 -0.8724 -0.2436
24426SOL    HW285338   3.508   7.381   5.111 -0.8195  2.2196  0.0334
24427SOL     OW85339   9.332   4.986   1.164 -0.3405 -0.3521  0.1491
24427SOL    HW185340   9.378   4.978   1.252  0.7526 -2.3315 -0.5644
24427SOL    HW285341   9.262   4.915   1.157 -1.3123  0.6335 -0.0422
24428SOL     OW85342   4.074   5.148   5.123  0.1173  0.3556 -0.1339
24428SOL    HW185343   4.107   5.105   5.038 -0.6538  0.3095 -0.4248
24428SOL    HW285344   4.007   5.087   5.166  0.9823  0.0949  0.8495
24429SOL     OW85345   1.668   5.421   6.194 -0.5163 -0.0098 -0.0712
24429SOL    HW185346   1.684   5.512   6.233 -0.0409 -0.7022  1.3751
24429SOL    HW285347   1.589   5.379   6.238 -0.0688 -0.7427  0.0382
24430SOL     OW85348   3.408   7.316   3.106 -0.0793  0.5265 -0.3600
24430SOL    HW185349   3.436   7.391   3.046  1.6154  0.7253  0.6407
24430SOL    HW285350   3.411   7.347   3.201  0.1218 -0.6603  0.0250
24431SOL     OW85351   0.860   4.483   2.589 -0.4939  0.2566 -0.0475
24431SOL    HW185352   0.786   4.427   2.628 -1.3501  0.9128 -0.7166
24431SOL    HW285353   0.929   4.500   2.659 -0.8471 -0.5873  0.5150
24432SOL     OW85354   7.116   7.571   5.899  0.3670 -0.3140 -0.8626
24432SOL    HW185355   7.174   7.648   5.922  0.7578 -0.6615 -0.6761
24432SOL    HW285356   7.034   7.571   5.957 -0.6034  1.0693 -2.1892
24433SOL     OW85357   0.938   2.044   8.240  0.4926  0.0718  0.0865
24433SOL    HW185358   0.912   2.011   8.330 -0.5754  0.7755  0.0393
24433SOL    HW285359   1.032   2.078   8.243  0.1265  1.0069  1.1849
24434SOL     OW85360   1.675   8.854   7.234 -0.4176 -0.2051 -0.4281
24434SOL    HW185361   1.679   8.759   7.267  0.5265  0.6608  2.0691
24434SOL    HW285362   1.597   8.901   7.276  0.0045  0.5511 -0.4850
24435SOL     OW85363   4.099   8.499   3.865  0.1034  0.2546 -0.0695
24435SOL    HW185364   4.113   8.514   3.767 -0.3953 -1.5567 -0.4177
24435SOL    HW285365   4.022   8.438   3.879  0.7967 -0.2905  1.4273
24436SOL     OW85366   7.058   8.540   8.508  0.3044 -0.2897  0.1411
24436SOL    HW185367   7.019   8.502   8.424  1.1783 -1.3546  0.2043
24436SOL    HW285368   7.010   8.624   8.532  0.7338  0.5991 -2.0078
24437SOL     OW85369   5.394   7.611   3.185 -0.6500 -0.4911 -0.1784
24437SOL    HW185370   5.373   7.707   3.166  1.8666  0.0729 -0.2044
24437SOL    HW285371   5.448   7.573   3.111 -0.0011 -1.3698  0.7339
24438SOL     OW85372   8.383   6.534   9.089  0.5798 -0.0340  0.5196
24438SOL    HW185373   8.342   6.443   9.095 -0.6922  0.3395 -1.8647
24438SOL    HW285374   8.481   6.525   9.068  0.5983 -0.8534  0.9361
24439SOL     OW85375   7.320   6.318   2.935  0.4925  0.1232 -0.2543
24439SOL    HW185376   7.357   6.289   2.847  0.2929 -1.0507  0.0371
24439SOL    HW285377   7.396   6.333   2.999  0.5157 -1.7408  0.1795
24440SOL     OW85378   1.154   5.290   5.176  0.3976 -0.2071  0.1581
24440SOL    HW185379   1.100   5.270   5.094  0.8379  0.2038 -0.2407
24440SOL    HW285380   1.211   5.211   5.198  0.0141 -0.4534  0.2826
24441SOL     OW85381   9.493   0.734   3.854 -0.4364 -0.0514  0.6347
24441SOL    HW185382   9.554   0.699   3.783 -0.6815 -0.1417  0.4650
24441SOL    HW285383   9.500   0.833   3.859 -0.0569 -0.0883  0.8201
24442SOL     OW85384   9.093   6.146   5.868  0.4344 -0.5538 -0.2523
24442SOL    HW185385   9.101   6.240   5.833  1.7772 -0.8062 -0.6509
24442SOL    HW285386   9.000   6.112   5.852 -0.5352  1.2758  1.3413
24443SOL     OW85387   4.856   4.777   6.390 -0.9053 -0.7420  0.4182
24443SOL    HW185388   4.943   4.823   6.378 -0.2346 -2.1577 -0.1558
24443SOL    HW285389   4.790   4.810   6.322 -0.5680 -0.2975  0.3091
24444SOL     OW85390   1.614   0.613   3.513  0.2255 -0.5964 -0.3099
24444SOL    HW185391   1.577   0.613   3.419 -0.4069 -2.2012 -0.0808
24444SOL    HW285392   1.538   0.602   3.578  0.5272  1.7359  0.4672
24445SOL     OW85393   8.895   6.690   8.772 -0.0593  0.1284 -0.2044
24445SOL    HW185394   8.826   6.635   8.726  0.6484 -0.2723 -0.7877
24445SOL    HW285395   8.871   6.700   8.869 -1.9404  1.5943 -0.7987
24446SOL     OW85396   7.072   7.765   8.640 -0.0201 -0.2528 -0.0006
24446SOL    HW185397   7.036   7.758   8.733  0.2070  0.8671  0.1797
24446SOL    HW285398   7.044   7.853   8.600  0.8570 -0.2267 -0.5689
24447SOL     OW85399   8.646   5.852   5.255 -0.2840 -0.0979  0.4744
24447SOL    HW185400   8.663   5.950   5.256  2.1402 -0.4614 -1.2525
24447SOL    HW285401   8.548   5.835   5.243 -0.6640  2.0946  0.3528
24448SOL     OW85402   8.424   3.074   7.395 -0.5954 -0.2971 -0.1829
24448SOL    HW185403   8.368   3.157   7.400 -3.9419 -2.5773  1.5045
24448SOL    HW285404   8.403   3.025   7.311  0.6918  0.0515 -0.7192
24449SOL     OW85405   7.471   5.385   4.631  0.3889 -0.9015  0.2492
24449SOL    HW185406   7.393   5.384   4.693  0.1240 -0.1233 -0.0555
24449SOL    HW285407   7.554   5.411   4.681 -0.0068  0.7266  0.0935
24450SOL     OW85408   3.960   4.707   9.086 -0.5139 -0.3607  0.4530
24450SOL    HW185409   3.950   4.771   9.010 -0.3487 -0.1302  0.6229
24450SOL    HW285410   3.898   4.630   9.074  2.2157 -2.2986 -1.9355
24451SOL     OW85411   7.858   4.069   9.396 -0.2947 -0.6380 -0.8040
24451SOL    HW185412   7.892   3.979   9.425  0.9540  0.7761  2.3916
24451SOL    HW285413   7.928   4.115   9.342  1.7324  0.9408  2.9986
24452SOL     OW85414   8.683   7.652   6.070  0.5366 -0.0166  0.1993
24452SOL    HW185415   8.778   7.683   6.064  1.1323 -1.2008  2.6482
24452SOL    HW285416   8.679   7.572   6.130 -1.9342 -0.3256 -0.3561
24453SOL     OW85417   0.879   7.121   8.378  0.5662 -0.2332  0.0555
24453SOL    HW185418   0.788   7.102   8.343  0.8149  1.4805 -1.5986
24453SOL    HW285419   0.891   7.075   8.466 -1.1051 -2.2385 -0.7191
24454SOL     OW85420   6.635   5.772   4.746 -0.1335  0.6281 -0.2220
24454SOL    HW185421   6.712   5.729   4.794 -1.6069 -0.4958  1.1987
24454SOL    HW285422   6.659   5.865   4.719  0.9690  1.0418  2.1343
24455SOL     OW85423   1.886   8.214   5.223 -0.0282 -0.5876 -0.0384
24455SOL    HW185424   1.895   8.189   5.320 -1.2560 -1.6491 -0.1943
24455SOL    HW285425   1.973   8.251   5.191  0.4486 -0.4060  1.4256
24456SOL     OW85426   9.871   4.217   5.785  0.1927 -0.4439  0.5616
24456SOL    HW185427   9.900   4.299   5.736 -1.7883  0.8518  1.4603
24456SOL    HW285428   9.881   4.233   5.883  0.0129 -1.3739  0.7273
24457SOL     OW85429   8.391   7.713   8.138 -0.3853  0.0931  0.1004
24457SOL    HW185430   8.486   7.720   8.109  0.2760  0.4417  2.2074
24457SOL    HW285431   8.356   7.804   8.161 -1.5261  0.0785 -1.5284
24458SOL     OW85432   6.337   7.890   9.766 -0.3582  0.5249 -0.3117
24458SOL    HW185433   6.291   7.906   9.853 -1.9695  1.7117 -1.3379
24458SOL    HW285434   6.422   7.839   9.781 -0.1108  1.5727  2.0306
24459SOL     OW85435   3.974   3.770   7.291  0.5665 -0.7536 -0.0537
24459SOL    HW185436   3.970   3.673   7.316 -1.1647 -0.3177  1.4291
24459SOL    HW285437   3.914   3.786   7.213 -0.0314 -0.6570  0.4271
24460SOL     OW85438   5.934   7.363   7.220 -0.0501 -0.3632 -0.2804
24460SOL    HW185439   6.001   7.356   7.146  1.2109 -0.9478  0.9211
24460SOL    HW285440   5.960   7.436   7.282 -0.4957 -0.6359  0.2271
24461SOL     OW85441   1.006   6.123   7.353 -0.0111 -0.8824 -0.9023
24461SOL    HW185442   1.025   6.025   7.359 -0.7757 -1.0131 -0.4431
24461SOL    HW285443   1.091   6.173   7.338  0.5579 -1.5177  0.1323
24462SOL     OW85444   0.443   2.581   0.457  0.2041 -0.0063  0.8649
24462SOL    HW185445   0.344   2.570   0.462 -0.0749  0.8522 -2.0062
24462SOL    HW285446   0.473   2.642   0.530 -1.6282  1.2696  0.5825
24463SOL     OW85447   3.618   4.365   6.086  0.3240 -0.1333  0.1199
24463SOL    HW185448   3.687   4.323   6.146  0.1255 -2.3235 -1.1190
24463SOL    HW285449   3.605   4.307   6.006 -0.7893  1.8074 -1.1272
24464SOL     OW85450   7.297   7.284   4.448  0.3802  0.5752 -0.0924
24464SOL    HW185451   7.277   7.316   4.356 -1.9964  1.1031  0.5797
24464SOL    HW285452   7.383   7.232   4.448  0.2546  0.3453 -2.6247
24465SOL     OW85453   8.830   5.184   7.869  0.0486 -0.0360  0.2650
24465SOL    HW185454   8.914   5.238   7.862  0.8141 -1.2029  0.2671
24465SOL    HW285455   8.849   5.089   7.843 -1.7860  0.1724 -1.9520
24466SOL     OW85456   7.456   7.488   7.779 -0.4340  0.0258  0.1704
24466SOL    HW185457   7.471   7.549   7.857 -1.8587  0.6453 -0.0096
24466SOL    HW285458   7.543   7.463   7.739  0.2262  1.1594  0.8621
24467SOL     OW85459   0.627   3.813   4.561  0.1477  0.4248 -0.0872
24467SOL    HW185460   0.692   3.828   4.636 -0.3277 -1.4934  0.7470
24467SOL    HW285461   0.665   3.747   4.496 -1.4607 -1.7601  1.1107
24468SOL     OW85462   9.124   8.263   9.725  0.0816 -0.0704 -0.5547
24468SOL    HW185463   9.112   8.256   9.824  1.6418  1.5970 -0.2229
24468SOL    HW285464   9.173   8.183   9.692 -1.2955 -1.1100 -0.1449
24469SOL     OW85465   1.176   4.422   9.446 -0.3406  0.4745  0.2537
24469SOL    HW185466   1.177   4.354   9.519 -0.2821  0.7152  0.4794
24469SOL    HW285467   1.111   4.394   9.375 -0.6407  0.4003  0.5555
24470SOL     OW85468   0.638   7.933   2.322 -0.4499  0.2095  0.5278
24470SOL    HW185469   0.721   7.878   2.332  1.2748  1.9647 -3.3874
24470SOL    HW285470   0.579   7.891   2.254 -0.8255  1.2435  0.2161
24471SOL     OW85471   0.666   6.015   7.363  0.1536 -0.2034  0.6767
24471SOL    HW185472   0.568   6.034   7.363  0.0356 -0.6309 -2.1083
24471SOL    HW285473   0.716   6.097   7.334  0.6132 -0.1045  1.7107
24472SOL     OW85474   9.794   1.021   9.163  0.3384  0.6029  0.2474
24472SOL    HW185475   9.806   0.945   9.227 -2.3860 -0.0710 -0.0048
24472SOL    HW285476   9.764   1.102   9.212  0.1426  0.6306  0.0822
24473SOL     OW85477   9.502   0.368   3.113 -0.0208  0.1634 -0.3870
24473SOL    HW185478   9.458   0.314   3.040 -0.5255  0.6601 -0.4524
24473SOL    HW285479   9.463   0.460   3.114  2.5202  1.2954 -1.8434
24474SOL     OW85480   3.326   7.640   8.291 -0.5380  1.0402  0.0666
24474SOL    HW185481   3.292   7.727   8.254  0.3646  0.3243 -2.5602
24474SOL    HW285482   3.296   7.566   8.231  1.3178 -0.1334  0.5745
24475SOL     OW85483   5.761   5.126   3.852 -0.1233 -0.4766 -0.4971
24475SOL    HW185484   5.755   5.221   3.882  0.6982  0.4151 -3.0087
24475SOL    HW285485   5.669   5.092   3.830 -0.4681 -0.4321  0.8356
24476SOL     OW85486   5.163   4.912   5.352  0.0808  0.1741 -0.1058
24476SOL    HW185487   5.231   4.963   5.406  0.1047  0.4082 -0.3590
24476SOL    HW285488   5.165   4.816   5.380  0.5942  0.1601 -0.1864
24477SOL     OW85489   2.506   7.929   8.189  0.6050  0.5266  0.4989
24477SOL    HW185490   2.547   7.988   8.259  0.1976  1.0107  0.3362
24477SOL    HW285491   2.453   7.856   8.234  1.7427 -0.1814  0.7038
24478SOL     OW85492   9.975   2.600   7.584  0.3386 -0.2071  0.1890
24478SOL    HW185493   9.976   2.503   7.562  0.6956  0.0293 -0.8707
24478SOL    HW285494   9.892   2.622   7.636 -0.6063 -0.7554 -1.0762
24479SOL     OW85495   0.267   6.812   3.093  0.4421  0.2268 -0.7161
24479SOL    HW185496   0.239   6.821   3.189  0.1685 -0.1994 -0.7581
24479SOL    HW285497   0.350   6.756   3.088 -0.7291 -1.5308 -0.9105
24480SOL     OW85498   1.043   7.462   7.357 -1.0323 -0.1452 -0.5747
24480SOL    HW185499   0.981   7.416   7.420  0.2050 -2.2765 -0.8400
24480SOL    HW285500   1.039   7.417   7.268  0.2850  0.1762 -0.8126
24481SOL     OW85501   8.157   2.430   8.083  0.3896 -0.1536  0.1441
24481SOL    HW185502   8.178   2.377   8.002 -1.4918 -0.9860  0.1809
24481SOL    HW285503   8.179   2.377   8.165  2.2250  0.6603  0.2134
24482SOL     OW85504   0.415   7.925   6.679 -0.4538 -0.6056  0.1498
24482SOL    HW185505   0.450   7.967   6.595 -0.4374  0.3076  0.6079
24482SOL    HW285506   0.470   7.954   6.757 -0.1388 -1.8869  0.4045
24483SOL     OW85507   9.549   3.571   8.682 -0.6286 -0.0565  0.0421
24483SOL    HW185508   9.527   3.666   8.660 -0.1992  0.5943  2.3249
24483SOL    HW285509   9.616   3.537   8.616 -2.2290  0.5683 -1.9672
24484SOL     OW85510   1.384   6.030   1.079  0.2114 -0.0126 -0.1764
24484SOL    HW185511   1.473   6.004   1.118 -0.2560  0.6402  1.3558
24484SOL    HW285512   1.399   6.095   1.005  1.0266 -0.1117 -0.1118
24485SOL     OW85513   4.909   7.027   7.887  0.2441 -0.4053 -0.2016
24485SOL    HW185514   4.837   6.961   7.910  0.0113 -0.0326  0.1575
24485SOL    HW285515   4.887   7.115   7.929  0.7035 -0.1797 -0.4367
24486SOL     OW85516   8.639   4.437   3.307  0.1423 -0.2821  0.3191
24486SOL    HW185517   8.674   4.402   3.221 -0.1254  0.6849 -0.1973
24486SOL    HW285518   8.711   4.433   3.377  0.4191 -0.8872 -0.0017
24487SOL     OW85519   8.561   4.931   8.070  0.0688  0.8345 -0.1476
24487SOL    HW185520   8.560   4.964   7.975  0.6131 -0.0980 -0.4829
24487SOL    HW285521   8.483   4.969   8.119 -0.5262  0.8897 -1.1267
24488SOL     OW85522   0.363   1.926   5.264  0.0189  0.0464  0.4523
24488SOL    HW185523   0.369   1.894   5.169  1.9558 -1.0386  0.9100
24488SOL    HW285524   0.384   2.024   5.267 -3.3007  0.8736 -0.6111
24489SOL     OW85525   2.730   4.883   7.048  0.7702  0.4013 -0.0625
24489SOL    HW185526   2.802   4.911   7.111 -0.3690 -0.5262  1.7059
24489SOL    HW285527   2.698   4.791   7.073 -0.8721  0.7151 -0.9435
24490SOL     OW85528   0.795   0.719   5.305 -0.4984 -0.1572 -0.0945
24490SOL    HW185529   0.699   0.733   5.327 -0.7035  0.7126 -1.4743
24490SOL    HW285530   0.827   0.633   5.346 -1.3057  0.5249  2.0649
24491SOL     OW85531   1.351   9.669   9.054 -0.5483  0.6603  0.1387
24491SOL    HW185532   1.370   9.571   9.041 -1.6699  0.5851 -1.0555
24491SOL    HW285533   1.325   9.685   9.149 -1.2861 -0.3621  0.1196
24492SOL     OW85534   7.775   1.408   5.194  0.1548 -0.3829  0.3643
24492SOL    HW185535   7.759   1.341   5.267  1.1616 -1.8865 -0.7613
24492SOL    HW285536   7.865   1.449   5.205  0.3817 -0.7400 -0.1132
24493SOL     OW85537   3.703   7.402   1.761  0.1121  0.1080 -0.3031
24493SOL    HW185538   3.713   7.463   1.682  3.2910  1.0065  0.7150
24493SOL    HW285539   3.793   7.369   1.789 -1.0022 -0.6039  2.6428
24494SOL     OW85540   7.950   3.366   5.347  0.0578 -0.0750 -0.0731
24494SOL    HW185541   7.967   3.360   5.445 -4.7721  0.4171  0.9290
24494SOL    HW285542   7.944   3.274   5.308 -0.3959 -0.3439  0.6201
24495SOL     OW85543   8.731   3.899   4.797  0.5719  0.3637  0.2610
24495SOL    HW185544   8.663   3.886   4.870  1.0209 -1.5267  0.3461
24495SOL    HW285545   8.684   3.924   4.713 -0.1357  0.2903  0.6230
24496SOL     OW85546   8.539   9.063   6.840 -0.0674  0.1164 -0.1813
24496SOL    HW185547   8.460   9.072   6.900 -0.1802  3.1029 -0.6945
24496SOL    HW285548   8.515   9.094   6.748  1.8332  1.7045 -0.1935
24497SOL     OW85549   3.232   4.548   7.022  0.4622  0.2169  0.1316
24497SOL    HW185550   3.329   4.566   7.039  0.0897 -0.2031  2.9708
24497SOL    HW285551   3.222   4.458   6.980  1.2970  0.2650 -0.1863
24498SOL     OW85552   8.484   6.595   6.880 -0.1559 -0.2112 -0.2594
24498SOL    HW185553   8.502   6.582   6.782  2.5436 -1.6048  0.3894
24498SOL    HW285554   8.568   6.579   6.932 -2.1269 -1.8435  2.5160
24499SOL     OW85555   6.209   8.580   3.876  0.6233 -0.1743  0.6308
24499SOL    HW185556   6.231   8.500   3.820  1.1818  1.6002 -1.8218
24499SOL    HW285557   6.159   8.646   3.820 -1.3528  0.4749  3.1022
24500SOL     OW85558   9.878   5.325   6.044 -0.0333  0.4928 -0.5725
24500SOL    HW185559   9.860   5.330   5.946  0.7196 -1.5097 -0.8553
24500SOL    HW285560   9.793   5.341   6.095 -1.5269 -3.1105 -1.7160
24501SOL     OW85561   8.682   7.953   2.558  0.5502  0.3036 -0.0291
24501SOL    HW185562   8.759   7.889   2.560  2.1261  2.1945  0.0512
24501SOL    HW285563   8.693   8.021   2.631 -1.6656  0.0680  0.5662
24502SOL     OW85564   1.837   6.328   3.973  0.2951 -0.1348  0.1302
24502SOL    HW185565   1.923   6.277   3.985  0.2685 -0.3938 -0.7311
24502SOL    HW285566   1.857   6.424   3.958  0.4882 -0.3285 -0.9111
24503SOL     OW85567   4.538   4.987   5.936 -0.3010  0.4571  0.1851
24503SOL    HW185568   4.552   4.918   5.866 -1.7223 -0.3198  0.6446
24503SOL    HW285569   4.574   4.954   6.023  0.3670  0.9214  0.0904
24504SOL     OW85570   3.632   4.033   7.106  0.1364  0.0071  0.5560
24504SOL    HW185571   3.640   4.036   7.206 -0.3753 -0.3309  0.6114
24504SOL    HW285572   3.711   4.078   7.065  0.7935 -0.6315  1.1001
24505SOL     OW85573   6.111   6.341   8.339 -0.0671  0.1417  0.4782
24505SOL    HW185574   6.067   6.398   8.269 -0.2390 -0.5475  0.0242
24505SOL    HW285575   6.064   6.354   8.426  0.1359  0.9902  0.4707
24506SOL     OW85576   9.665   9.942   8.808  0.4420 -0.5442 -0.1564
24506SOL    HW185577   9.761   9.939   8.779  0.8878 -0.2714  1.2458
24506SOL    HW285578   9.614   9.870   8.761  1.0697  0.0472 -1.7949
24507SOL     OW85579   8.191   7.345   6.254  0.0310  0.4418 -0.4008
24507SOL    HW185580   8.221   7.254   6.226 -0.4648  0.1671 -0.0704
24507SOL    HW285581   8.258   7.384   6.317  0.5521  0.5651 -1.0294
24508SOL     OW85582   4.865   1.970   3.454 -0.7098 -0.8380 -0.2298
24508SOL    HW185583   4.853   1.883   3.502  0.6006 -1.0059 -0.1886
24508SOL    HW285584   4.888   1.952   3.358 -1.1293 -0.5259 -0.3909
24509SOL     OW85585   2.090   9.443   7.092 -0.1782 -0.1531  0.7399
24509SOL    HW185586   2.141   9.372   7.140 -0.7442 -1.1940 -0.1748
24509SOL    HW285587   2.132   9.461   7.003  1.0267  1.9602  1.6812
24510SOL     OW85588   5.946   4.345   2.985 -0.6333 -0.5521 -0.3670
24510SOL    HW185589   6.027   4.361   2.929 -1.7379 -2.0294 -2.4071
24510SOL    HW285590   5.895   4.431   2.994  1.6809  0.6876  1.8974
24511SOL     OW85591   0.518   3.414   7.023  0.2505 -0.4515  0.1106
24511SOL    HW185592   0.503   3.408   7.122 -2.6312 -0.7827 -0.3044
24511SOL    HW285593   0.508   3.323   6.982 -1.3680  0.1333 -0.8225
24512SOL     OW85594   0.713   6.520   9.303 -0.3135  0.4434 -0.6800
24512SOL    HW185595   0.794   6.470   9.332 -1.5669 -1.1261  0.1393
24512SOL    HW285596   0.648   6.527   9.378 -0.5753  2.4957 -1.0541
24513SOL     OW85597   5.576   0.847   4.064 -0.5251 -0.1243  0.2164
24513SOL    HW185598   5.541   0.935   4.031 -0.4664 -0.4507 -0.7443
24513SOL    HW285599   5.668   0.833   4.030 -0.1087 -0.0600  1.2972
24514SOL     OW85600   0.349   8.564   4.362 -0.2180  0.7030  0.3526
24514SOL    HW185601   0.279   8.586   4.430 -0.9326  1.3883 -0.5745
24514SOL    HW285602   0.349   8.465   4.345  0.6786  0.4013  2.0900
24515SOL     OW85603   0.257   7.974   8.262 -1.0178 -0.1367 -0.0124
24515SOL    HW185604   0.247   8.011   8.355 -2.6834  1.9515 -0.9942
24515SOL    HW285605   0.192   7.899   8.249  0.6130 -1.8020  1.1411
24516SOL     OW85606   5.956   8.792   5.660  0.3249  0.4152  0.1308
24516SOL    HW185607   5.990   8.815   5.570  0.6500  1.7086  0.5769
24516SOL    HW285608   5.863   8.826   5.671  0.6441  1.1477  0.6303
24517SOL     OW85609   1.796   5.506   9.887  0.0375 -0.2551 -0.0189
24517SOL    HW185610   1.858   5.584   9.874  0.9789 -1.0441 -0.3188
24517SOL    HW285611   1.703   5.540   9.897  0.9075  1.2403  4.1072
24518SOL     OW85612   0.237   3.178   3.952  0.2714  0.6308  0.6833
24518SOL    HW185613   0.199   3.260   3.994  0.7100  0.6736  0.9961
24518SOL    HW285614   0.241   3.104   4.019 -0.8469  0.1147  0.1987
24519SOL     OW85615   7.919   3.995   7.533  0.1608 -0.5509  0.3974
24519SOL    HW185616   7.930   3.954   7.624  2.3713 -0.9418 -0.0132
24519SOL    HW285617   8.000   4.050   7.512 -0.5759 -0.0325 -1.1366
24520SOL     OW85618   9.433   3.861   1.870  0.1562 -0.7722  0.3593
24520SOL    HW185619   9.527   3.833   1.889  0.4812 -0.2169 -0.4159
24520SOL    HW285620   9.433   3.942   1.812 -0.7900  0.1475  1.6112
24521SOL     OW85621   4.489   2.180   0.693 -0.4173 -0.2871  0.5111
24521SOL    HW185622   4.427   2.102   0.684 -0.4921  0.0880 -2.7523
24521SOL    HW285623   4.440   2.258   0.731 -1.4662 -0.5628 -0.2625
24522SOL     OW85624   1.092   8.858   4.993  0.0419  0.2938 -0.3260
24522SOL    HW185625   1.113   8.950   5.025  1.7294 -0.7888  1.7906
24522SOL    HW285626   1.124   8.848   4.899 -0.1792  1.8608 -0.5875
24523SOL     OW85627   4.539   5.868   5.005 -0.5812  0.5707  0.0648
24523SOL    HW185628   4.456   5.921   4.988 -0.1982  1.5532  1.1591
24523SOL    HW285629   4.522   5.800   5.076 -0.6071  0.3643 -0.1376
24524SOL     OW85630   7.811   4.842   6.555 -0.2948  0.2445 -0.5159
24524SOL    HW185631   7.781   4.772   6.619  0.7238  1.8933  1.8632
24524SOL    HW285632   7.875   4.803   6.489  0.0353 -1.1146  0.6028
24525SOL     OW85633   4.078   8.444   4.301 -0.1981 -0.3763 -0.6418
24525SOL    HW185634   4.132   8.467   4.219 -1.2140 -3.4533 -2.2668
24525SOL    HW285635   3.993   8.496   4.301  0.9441  1.5099 -0.2006
24526SOL     OW85636   8.683   6.229   8.505  0.1330 -0.1199  0.1103
24526SOL    HW185637   8.670   6.150   8.445 -0.3252  1.2272 -1.6173
24526SOL    HW285638   8.714   6.307   8.450 -1.8587  1.6007  1.3640
24527SOL     OW85639   3.520   7.844   6.082 -0.1042 -0.4052 -0.7583
24527SOL    HW185640   3.506   7.779   6.157 -0.6370 -0.8677 -1.2521
24527SOL    HW285641   3.604   7.821   6.033 -0.0979 -0.4983 -0.7046
24528SOL     OW85642   2.801   8.264   8.363 -0.3672  0.1445  0.3670
24528SOL    HW185643   2.881   8.206   8.378 -0.0655  0.0189 -1.5360
24528SOL    HW285644   2.828   8.360   8.368 -0.2739  0.1002  0.6627
24529SOL     OW85645   5.729   6.447   7.355 -0.5473 -0.4590 -0.3650
24529SOL    HW185646   5.783   6.408   7.280  0.1304 -1.3282  0.5546
24529SOL    HW285647   5.712   6.376   7.423 -1.3277  0.2761  0.2130
24530SOL     OW85648   4.484   4.473   7.422  0.2288  0.2059  0.3442
24530SOL    HW185649   4.558   4.406   7.417 -1.4871 -1.7359  0.2195
24530SOL    HW285650   4.482   4.527   7.337 -0.5814 -1.9986 -1.0645
24531SOL     OW85651   4.417   6.209   1.195  0.3647 -0.6330 -0.1463
24531SOL    HW185652   4.513   6.195   1.221  0.8184  2.2376 -0.0618
24531SOL    HW285653   4.413   6.268   1.115 -1.3288 -1.7333 -0.8968
24532SOL     OW85654   2.158   4.454   7.630 -0.0100  0.1647 -0.0151
24532SOL    HW185655   2.193   4.389   7.698  0.2408 -0.1567 -0.4468
24532SOL    HW285656   2.201   4.435   7.541 -1.7837 -0.6703 -0.7096
24533SOL     OW85657   6.987   8.132   3.686  0.0496  0.2562  0.0288
24533SOL    HW185658   7.081   8.159   3.706  0.6084 -0.3741 -1.6263
24533SOL    HW285659   6.924   8.181   3.746  1.3070  2.1412 -0.1604
24534SOL     OW85660   8.924   2.587   8.334 -0.0628  0.7323  0.4291
24534SOL    HW185661   8.892   2.492   8.337  1.3901  0.2528  1.1444
24534SOL    HW285662   8.938   2.614   8.239  0.7313 -0.2012  0.2659
24535SOL     OW85663   0.534   5.497   6.290 -0.1553  0.4444  0.9411
24535SOL    HW185664   0.512   5.512   6.194 -0.0078  1.3015  1.0439
24535SOL    HW285665   0.450   5.501   6.344 -0.5150 -1.8724  0.6376
24536SOL     OW85666   9.472   7.526   7.914  0.3773 -0.5811 -0.2106
24536SOL    HW185667   9.450   7.440   7.959  0.2807  0.0967  1.0762
24536SOL    HW285668   9.432   7.528   7.823  0.3221 -1.8598 -0.2190
24537SOL     OW85669   4.611   3.293   5.201  0.3440 -0.1379  0.7450
24537SOL    HW185670   4.570   3.206   5.173  0.4693  0.1781 -0.4733
24537SOL    HW285671   4.587   3.364   5.134  1.6027  0.3857  0.8328
24538SOL     OW85672   6.724   6.876   2.078 -0.3842  0.2652  0.0492
24538SOL    HW185673   6.723   6.793   2.021  1.3702 -0.3753  0.9107
24538SOL    HW285674   6.750   6.852   2.171  1.6181  1.9766 -0.0375
24539SOL     OW85675   0.858   0.296   7.112  0.4006 -0.0379 -0.4722
24539SOL    HW185676   0.902   0.246   7.038 -0.0748 -0.2810 -0.5954
24539SOL    HW285677   0.830   0.232   7.184  0.9310  0.2052 -0.0437
24540SOL     OW85678   3.157   5.032   7.283  0.1623 -0.3783 -0.0939
24540SOL    HW185679   3.184   5.003   7.191  0.7757  0.4572 -0.1766
24540SOL    HW285680   3.237   5.033   7.343  0.7272  3.7895 -0.7735
24541SOL     OW85681   5.368   4.051   3.239  0.1880 -0.2481 -0.6935
24541SOL    HW185682   5.344   4.096   3.325 -0.5685 -1.7098 -0.1142
24541SOL    HW285683   5.317   4.092   3.164  0.2180  0.4798 -0.3134
24542SOL     OW85684   9.483   7.278   6.497 -0.3442  0.2560  0.4998
24542SOL    HW185685   9.389   7.280   6.463 -0.5141 -0.5450  0.9014
24542SOL    HW285686   9.494   7.201   6.560  0.4347  0.6715  0.8828
24543SOL     OW85687   7.282   0.867   4.448  0.0132  0.6674 -0.0777
24543SOL    HW185688   7.304   0.935   4.518 -0.4288 -0.9121  1.5936
24543SOL    HW285689   7.226   0.795   4.487 -0.3765 -0.1539 -2.1017
24544SOL     OW85690   9.615   4.330   6.328 -0.0338 -0.9136 -0.7951
24544SOL    HW185691   9.690   4.264   6.339  0.4759 -0.1817  0.2087
24544SOL    HW285692   9.589   4.336   6.232  0.6807 -1.7428 -1.0438
24545SOL     OW85693   0.751   7.352   0.296  0.2818 -0.3985 -0.4023
24545SOL    HW185694   0.786   7.260   0.307 -0.2476 -0.6589 -0.8581
24545SOL    HW285695   0.695   7.357   0.213  0.1697  0.2850 -0.2912
24546SOL     OW85696   0.794   0.017   5.514 -0.5051  0.4293  0.4535
24546SOL    HW185697   0.801  -0.061   5.577  1.8421 -0.2629 -0.5746
24546SOL    HW285698   0.719   0.001   5.450 -1.7934  0.3175  1.9609
24547SOL     OW85699   0.911   9.667   3.834  0.5150 -0.2605  0.3873
24547SOL    HW185700   0.912   9.587   3.893 -1.0354 -0.8776 -0.3822
24547SOL    HW285701   0.880   9.747   3.886  0.0303 -0.6036  0.6216
24548SOL     OW85702   7.089   6.036   4.424 -0.3004 -0.2029  0.4880
24548SOL    HW185703   7.189   6.036   4.421 -0.3298  0.2457 -0.6994
24548SOL    HW285704   7.055   6.129   4.410 -0.8868 -0.3671  0.7973
24549SOL     OW85705   5.318   1.356   3.770 -0.2754 -0.2297 -0.2959
24549SOL    HW185706   5.293   1.274   3.718 -2.1047 -0.6891  1.2512
24549SOL    HW285707   5.346   1.328   3.862  0.1381  0.8029 -0.1120
24550SOL     OW85708   1.544   0.219   4.714 -0.3816  0.4658  0.0840
24550SOL    HW185709   1.522   0.254   4.805  1.3728 -0.6292  0.9544
24550SOL    HW285710   1.463   0.174   4.676 -0.4216 -1.4067  2.2299
24551SOL     OW85711   5.653   6.279   4.437 -0.8442  0.1831  0.2672
24551SOL    HW185712   5.705   6.254   4.519 -0.4340  1.3716  0.3814
24551SOL    HW285713   5.615   6.371   4.448  1.2018  1.3373 -1.8036
24552SOL     OW85714   0.298   4.487   7.923  0.0723  0.2151  0.8092
24552SOL    HW185715   0.343   4.566   7.965  0.3255 -0.0649  1.0631
24552SOL    HW285716   0.251   4.517   7.839 -1.2872  0.9779  1.8059
24553SOL     OW85717   8.851   8.306   7.506  0.0082 -0.1554 -0.1910
24553SOL    HW185718   8.890   8.312   7.597  0.6896 -0.7438 -0.4345
24553SOL    HW285719   8.752   8.290   7.513 -0.1970  1.3617  0.4231
24554SOL     OW85720   9.992   2.365   7.383 -0.0653  0.4858  0.5070
24554SOL    HW185721   9.929   2.348   7.307  0.8964  0.0575 -0.1972
24554SOL    HW285722  10.053   2.441   7.358  0.1819  0.4131  0.8995
24555SOL     OW85723   2.921   1.633   3.115  0.6587 -0.0990  0.0404
24555SOL    HW185724   2.932   1.542   3.154 -1.4695  0.0974  1.1987
24555SOL    HW285725   2.848   1.631   3.046 -0.6285  1.0557  1.3253
24556SOL     OW85726   1.022   3.065   8.747  0.0297 -0.0713  0.0684
24556SOL    HW185727   1.111   3.108   8.733 -0.6372  1.3830  0.1996
24556SOL    HW285728   1.034   2.981   8.800  1.1101  1.2980  2.0941
24557SOL     OW85729   6.946   6.982   6.490  0.2244 -0.1667 -0.4148
24557SOL    HW185730   6.919   6.945   6.579  0.3507  0.1150 -0.2588
24557SOL    HW285731   6.990   7.071   6.502 -0.5719  0.2875 -0.8322
24558SOL     OW85732   1.709   9.853   8.232 -0.2094 -0.8055 -0.8817
24558SOL    HW185733   1.785   9.860   8.296 -0.9569  0.0885 -0.0641
24558SOL    HW285734   1.743   9.855   8.138  0.7875 -0.6719 -0.5187
24559SOL     OW85735   7.162   5.527   7.398  0.4707 -0.1471 -0.3555
24559SOL    HW185736   7.262   5.532   7.398  0.6200 -1.4826 -3.6382
24559SOL    HW285737   7.126   5.597   7.336 -0.6028 -0.0369  0.3934
24560SOL     OW85738   0.165   8.187   2.277 -0.0413 -0.5266  0.5181
24560SOL    HW185739   0.193   8.235   2.360  0.3596  0.4144 -0.1579
24560SOL    HW285740   0.077   8.142   2.292 -0.9877  1.3700  0.8029
24561SOL     OW85741   9.475   6.441   3.948  0.0164 -0.6431  0.2066
24561SOL    HW185742   9.467   6.537   3.974  1.7528 -0.7849  1.3718
24561SOL    HW285743   9.418   6.423   3.868 -0.6300  1.2563  0.2130
24562SOL     OW85744   7.278   5.160   6.714  0.2134 -0.2457 -0.0734
24562SOL    HW185745   7.290   5.137   6.618 -0.4111  0.1122 -0.2390
24562SOL    HW285746   7.328   5.094   6.771  1.4075  0.1285 -0.6764
24563SOL     OW85747   1.887   9.031   6.869  0.3141  0.0294 -0.0985
24563SOL    HW185748   1.931   9.011   6.781 -0.2730 -1.9797  0.0277
24563SOL    HW285749   1.848   9.123   6.867 -0.7087 -0.4158 -2.3983
24564SOL     OW85750   2.060   4.895   7.495 -0.3056  0.5488  0.1975
24564SOL    HW185751   2.073   4.976   7.437 -1.8576 -0.6027 -1.7643
24564SOL    HW285752   1.963   4.877   7.507  0.0254 -1.5484 -0.0946
24565SOL     OW85753   8.015   2.067   3.652  0.3200  0.0096 -0.1346
24565SOL    HW185754   7.923   2.108   3.653  0.3067  0.0182 -1.1250
24565SOL    HW285755   8.011   1.978   3.608  1.0378  0.6439 -1.5152
24566SOL     OW85756   7.984   7.257   7.304  0.1227  0.5813  0.5424
24566SOL    HW185757   7.947   7.324   7.369  2.0713 -0.2571  2.5823
24566SOL    HW285758   7.936   7.170   7.314 -1.1575  1.1010 -0.8235
24567SOL     OW85759   8.991   0.255   9.899  0.0062 -0.5782  0.4785
24567SOL    HW185760   9.021   0.233   9.806 -0.1438 -0.9581  0.5176
24567SOL    HW285761   8.988   0.171   9.954  0.4143 -0.3086  0.9213
24568SOL     OW85762   0.305   9.307   2.888  0.1556  0.3186  0.2958
24568SOL    HW185763   0.340   9.361   2.964 -0.4470  1.0904  0.0352
24568SOL    HW285764   0.236   9.242   2.922 -0.7447  1.2621  0.2879
24569SOL     OW85765   0.405   3.087   1.180  0.8409 -0.2245 -0.3017
24569SOL    HW185766   0.415   3.080   1.279  2.2284  0.0798 -0.4117
24569SOL    HW285767   0.468   3.156   1.145 -0.8485  0.8937 -1.2013
24570SOL     OW85768   9.323   8.728   4.629  0.6790  0.2776 -0.5943
24570SOL    HW185769   9.345   8.660   4.559 -0.7897 -0.2562 -0.5519
24570SOL    HW285770   9.277   8.806   4.586  0.6247  0.3727 -0.3669
24571SOL     OW85771   2.993   6.451   1.973 -0.2758 -0.1575 -0.2665
24571SOL    HW185772   2.929   6.524   1.952 -0.0963  0.0172 -0.2133
24571SOL    HW285773   2.956   6.393   2.045 -1.9548 -2.1763 -2.6842
24572SOL     OW85774   5.927   5.211   5.837  0.2159  0.5254 -0.4528
24572SOL    HW185775   5.880   5.292   5.873 -0.5523  0.4447 -1.2756
24572SOL    HW285776   6.025   5.231   5.828  1.1394 -0.6205  5.1742
24573SOL     OW85777   9.250   7.455   8.337  0.4870  0.2301  0.1329
24573SOL    HW185778   9.246   7.439   8.435 -2.6654  0.3779  0.0664
24573SOL    HW285779   9.267   7.552   8.319  0.5822  0.2842  0.5097
24574SOL     OW85780   3.587   3.322   0.892 -0.0229 -0.0745 -0.8702
24574SOL    HW185781   3.512   3.366   0.942  0.6539  0.3252 -0.1984
24574SOL    HW285782   3.668   3.381   0.894  0.5771 -0.8857 -0.8582
24575SOL     OW85783   6.824   7.478   5.270 -0.4518 -0.1782 -0.5467
24575SOL    HW185784   6.782   7.436   5.190  0.9626 -1.0576 -0.8287
24575SOL    HW285785   6.754   7.529   5.321 -1.6442 -0.7803 -1.5605
24576SOL     OW85786   1.660   7.859   6.161 -0.1852  0.0231  0.0268
24576SOL    HW185787   1.646   7.775   6.109  1.5054 -0.4946  0.3965
24576SOL    HW285788   1.599   7.859   6.241 -0.1792 -0.8552  0.0386
24577SOL     OW85789   7.142   6.871   7.643 -0.5292  0.1793 -0.5246
24577SOL    HW185790   7.167   6.964   7.668 -0.5353  0.0411  0.0055
24577SOL    HW285791   7.193   6.806   7.700 -2.5377 -0.0977  1.0414
24578SOL     OW85792   3.046   8.165   3.736  0.2051 -0.2387  0.1092
24578SOL    HW185793   3.117   8.138   3.802 -0.1837 -0.8159  0.2945
24578SOL    HW285794   2.972   8.098   3.737 -0.8315  0.8781  0.6497
24579SOL     OW85795   7.781   3.242   9.338  0.0385  0.1878 -0.1265
24579SOL    HW185796   7.865   3.208   9.380 -0.4908 -1.0092 -0.0116
24579SOL    HW285797   7.793   3.338   9.312  0.8297  0.5521  1.5236
24580SOL     OW85798   7.150   0.462   9.843 -0.2818  0.2680  0.5245
24580SOL    HW185799   7.150   0.385   9.907 -2.6329 -1.1166 -1.0768
24580SOL    HW285800   7.098   0.537   9.882 -1.9484 -0.6758  0.1583
24581SOL     OW85801   8.358   5.937   3.115 -0.1229  0.2750 -0.3330
24581SOL    HW185802   8.291   5.977   3.177  0.4770  0.0211  0.4895
24581SOL    HW285803   8.370   5.840   3.137  0.2825  0.2442 -0.6744
24582SOL     OW85804   6.955   6.440   3.515 -0.4136 -0.1106  0.3141
24582SOL    HW185805   6.992   6.516   3.569  1.9366 -1.5945  0.8474
24582SOL    HW285806   6.978   6.455   3.418  1.6069 -0.9850  0.6302
24583SOL     OW85807   4.690   6.875   1.051  0.1292 -0.2341  0.4992
24583SOL    HW185808   4.698   6.891   0.953 -0.0673  0.5755  0.6092
24583SOL    HW285809   4.756   6.933   1.100 -0.4684  0.1190  0.8973
24584SOL     OW85810   1.632   9.541   6.659 -0.6571  0.3223  0.1325
24584SOL    HW185811   1.633   9.450   6.617 -1.9873 -0.8741  2.5899
24584SOL    HW285812   1.537   9.568   6.679 -0.1756  1.5897  0.7955
24585SOL     OW85813   4.418   7.672   2.009  0.1410 -0.1858  0.0420
24585SOL    HW185814   4.504   7.625   2.026  0.6100  0.8972  0.6822
24585SOL    HW285815   4.432   7.771   2.016 -1.7983 -0.0681  3.2200
24586SOL     OW85816   5.472   6.499   4.745  0.4174  0.1085 -0.8074
24586SOL    HW185817   5.549   6.442   4.774  0.0578  0.1896  0.3564
24586SOL    HW285818   5.394   6.441   4.723 -0.4523  0.1583  1.8783
24587SOL     OW85819   9.076   7.674   8.024  0.3839  0.4935  0.0156
24587SOL    HW185820   8.981   7.661   8.054  0.6136  1.8400  1.4266
24587SOL    HW285821   9.085   7.764   7.981  1.1149  0.5950  0.3637
24588SOL     OW85822   0.532   0.162   3.664  0.1397 -0.0812  0.1612
24588SOL    HW185823   0.502   0.250   3.626  1.7205  0.4609  0.1282
24588SOL    HW285824   0.602   0.178   3.734 -1.1506 -1.1995  1.7743
24589SOL     OW85825   8.296   3.726   8.344  1.1262 -0.6360  0.3115
24589SOL    HW185826   8.279   3.792   8.417  0.8548  1.2170 -1.3648
24589SOL    HW285827   8.210   3.680   8.321  0.8385  0.0371  0.0022
24590SOL     OW85828   6.564   2.516   4.497 -0.2895  0.5551 -0.1541
24590SOL    HW185829   6.513   2.599   4.520  0.3265  1.5509 -2.2136
24590SOL    HW285830   6.645   2.509   4.555 -0.8739  0.8723  0.7031
24591SOL     OW85831   9.144   3.181   4.252 -0.3750  0.1559  0.1871
24591SOL    HW185832   9.064   3.165   4.310 -0.5290 -0.2194 -0.1248
24591SOL    HW285833   9.115   3.197   4.158 -0.1800  1.6662  0.3786
24592SOL     OW85834   9.404   4.694   8.407  0.2608  0.5198  0.3975
24592SOL    HW185835   9.378   4.651   8.321  0.9632  0.9479 -0.0335
24592SOL    HW285836   9.453   4.628   8.464  0.9583  0.6135 -0.0838
24593SOL     OW85837   8.376   8.868   3.446 -0.3604 -0.0905 -0.5862
24593SOL    HW185838   8.409   8.871   3.540  0.3083  0.2477 -0.8310
24593SOL    HW285839   8.287   8.822   3.443 -0.9454  0.9497  0.3743
24594SOL     OW85840   6.635   6.871   1.045  0.0884  0.4959  0.5349
24594SOL    HW185841   6.715   6.905   0.995  0.0120  2.0971  1.4782
24594SOL    HW285842   6.554   6.878   0.986  0.6192 -1.0826 -0.4026
24595SOL     OW85843   4.548   7.023   2.966 -0.2075  0.0190 -0.0557
24595SOL    HW185844   4.458   7.050   2.999 -0.8205 -1.0003 -0.8756
24595SOL    HW285845   4.613   7.024   3.042 -0.9291  0.6390  0.5640
24596SOL     OW85846   7.547   6.486   5.006 -0.2396 -0.0986  0.2053
24596SOL    HW185847   7.615   6.431   4.958  1.1265  2.2420 -0.6134
24596SOL    HW285848   7.469   6.504   4.945  0.9088  1.7814 -0.7628
24597SOL     OW85849   4.669   1.983   7.543 -0.3016  0.6562 -0.0626
24597SOL    HW185850   4.646   2.016   7.452  2.1089 -0.2335 -1.0137
24597SOL    HW285851   4.667   2.060   7.607 -3.4952  1.0268 -0.5131
24598SOL     OW85852   9.554   8.360   9.038  0.0807  0.3217  0.6295
24598SOL    HW185853   9.562   8.289   9.108  0.1638  0.6390  0.9449
24598SOL    HW285854   9.478   8.339   8.977 -1.4668  1.2253  2.1939
24599SOL     OW85855   4.767   6.889   4.142  0.2154 -0.4578 -0.7551
24599SOL    HW185856   4.822   6.846   4.070 -1.4360 -0.9032 -1.7894
24599SOL    HW285857   4.793   6.852   4.231  0.3386 -1.9640 -1.4088
24600SOL     OW85858   7.524   6.004   6.084  0.0044 -0.7715 -0.1796
24600SOL    HW185859   7.506   6.019   5.987 -0.3456  0.2154  0.0358
24600SOL    HW285860   7.617   6.035   6.106 -0.4428  0.3682  0.1063
24601SOL     OW85861   1.283   8.823   0.021 -0.1511 -0.4062  0.0672
24601SOL    HW185862   1.196   8.795   0.063 -1.5034  1.1912 -1.5930
24601SOL    HW285863   1.310   8.756  -0.047 -2.5884  1.4234 -2.8093
24602SOL     OW85864   2.668   0.977   9.897 -0.4188  0.3403  0.2128
24602SOL    HW185865   2.618   0.902   9.854  1.1807 -1.3952  1.3184
24602SOL    HW285866   2.655   1.060   9.844 -2.5403 -0.6259 -0.8208
24603SOL     OW85867   9.911   6.277   3.299 -0.1563  0.4855 -0.0858
24603SOL    HW185868   9.892   6.328   3.382 -1.5852 -0.5311  0.2288
24603SOL    HW285869   9.868   6.323   3.221 -1.2463 -0.1202  0.1623
24604SOL     OW85870   9.546   0.231   7.289  0.2130  0.4537 -0.2845
24604SOL    HW185871   9.530   0.168   7.214  0.2282 -0.1223  0.1925
24604SOL    HW285872   9.611   0.190   7.354 -0.2461  0.7056  0.3398
24605SOL     OW85873   6.816   5.250   9.532 -0.3348  0.1084 -0.7104
24605SOL    HW185874   6.783   5.313   9.602 -0.1704 -1.2277  0.5998
24605SOL    HW285875   6.748   5.240   9.460 -1.5658 -0.4076  0.5155
24606SOL     OW85876   7.356   2.011   3.209  0.3071 -1.2536  0.4624
24606SOL    HW185877   7.256   2.015   3.202  0.3747 -0.9359 -0.3716
24606SOL    HW285878   7.391   1.945   3.143  0.6765 -1.1301  0.5356
24607SOL     OW85879   8.939   5.159   0.797 -0.4830  0.4275  0.0178
24607SOL    HW185880   8.895   5.099   0.730  0.4854 -0.4515  0.1400
24607SOL    HW285881   8.929   5.254   0.769  0.9428  0.0068 -2.0226
24608SOL     OW85882   3.506   0.463   7.828 -0.7170 -0.3287 -0.1266
24608SOL    HW185883   3.441   0.465   7.753 -0.1154 -2.2634 -0.7415
24608SOL    HW285884   3.593   0.424   7.796  0.8410  2.4275  0.6185
24609SOL     OW85885   8.655   5.947   8.973 -0.1687 -0.1576 -0.1096
24609SOL    HW185886   8.570   5.942   9.026  0.1179 -2.7642  0.1820
24609SOL    HW285887   8.635   5.981   8.881 -1.6523 -1.3108 -0.2395
24610SOL     OW85888   0.151   6.941   0.803  0.5170  0.0944 -0.5343
24610SOL    HW185889   0.066   6.977   0.767  0.2306 -1.4255 -1.4154
24610SOL    HW285890   0.133   6.886   0.885  0.9861  2.1480  1.0007
24611SOL     OW85891   8.377   5.568   3.698  0.0761  0.0114 -0.7121
24611SOL    HW185892   8.360   5.661   3.666  0.5070  1.0717  2.0114
24611SOL    HW285893   8.343   5.558   3.791  1.2945 -2.1724 -0.4593
24612SOL     OW85894   3.907   8.244   2.979  0.1762  0.1152  0.8876
24612SOL    HW185895   3.979   8.174   2.986 -0.2663 -0.8585 -3.0057
24612SOL    HW285896   3.947   8.329   2.946 -0.5617 -0.8411 -2.7097
24613SOL     OW85897   1.120   1.688   0.401 -0.2214  0.2626  0.1928
24613SOL    HW185898   1.052   1.728   0.340 -1.6406 -0.9163  0.9729
24613SOL    HW285899   1.078   1.666   0.488  0.4597 -3.0121 -0.2390
24614SOL     OW85900   2.273   9.190   0.535  0.4950 -0.2241 -0.7652
24614SOL    HW185901   2.182   9.159   0.506 -0.2583  1.7036 -0.5284
24614SOL    HW285902   2.309   9.255   0.468  0.3146  1.4659  0.7505
24615SOL     OW85903   8.580   4.176   3.443  0.4131 -0.4230  0.4210
24615SOL    HW185904   8.625   4.262   3.417 -0.2027  0.0014  0.7324
24615SOL    HW285905   8.624   4.139   3.525  0.9255 -0.6104  0.0664
24616SOL     OW85906   2.454   1.506   0.302  0.1515 -0.5324  0.1144
24616SOL    HW185907   2.366   1.533   0.341  0.8560 -0.2131  1.4852
24616SOL    HW285908   2.457   1.534   0.206 -0.1362  1.9791  0.8022
24617SOL     OW85909   9.019   6.167   8.490 -0.3124  0.0451  0.2959
24617SOL    HW185910   9.094   6.124   8.542 -0.7283 -0.3195  0.6031
24617SOL    HW285911   8.940   6.106   8.492 -0.2171 -0.1271 -1.0682
24618SOL     OW85912   0.589   7.897   1.663  0.2790 -0.1877  0.6582
24618SOL    HW185913   0.668   7.929   1.611 -0.0490 -1.2723 -0.5230
24618SOL    HW285914   0.610   7.900   1.761  1.7770 -0.5005  0.3489
24619SOL     OW85915   9.077   8.928   2.955 -0.0515 -0.4208  0.0130
24619SOL    HW185916   9.030   8.857   2.904 -0.2569 -0.9979  0.9957
24619SOL    HW285917   9.110   8.891   3.042  0.5032  0.4851  0.1984
24620SOL     OW85918   0.344   3.784   7.899  0.6040  0.1541  0.7609
24620SOL    HW185919   0.437   3.767   7.869  1.8837  1.5049  3.7146
24620SOL    HW285920   0.308   3.702   7.945  0.7642  0.0226  0.6510
24621SOL     OW85921   8.464   6.868   9.580 -0.4076 -0.4255 -0.5434
24621SOL    HW185922   8.413   6.786   9.554  0.6846 -0.4901 -2.6085
24621SOL    HW285923   8.522   6.847   9.659 -0.7642 -1.4240 -0.5451
24622SOL     OW85924   7.268   2.581   8.021  0.9420  0.1649  0.3381
24622SOL    HW185925   7.301   2.493   7.987 -1.5918 -0.9858  0.7520
24622SOL    HW285926   7.256   2.575   8.120  0.1761  0.7834  0.2845
24623SOL     OW85927   7.310   7.866   8.952  0.0773 -0.1361  0.0930
24623SOL    HW185928   7.313   7.942   8.886 -2.1914  0.5328  0.7091
24623SOL    HW285929   7.312   7.779   8.903 -1.6119  0.3557 -0.8938
24624SOL     OW85930   7.416   0.888   6.707 -0.9038  0.3428 -0.1693
24624SOL    HW185931   7.511   0.903   6.679 -0.4013  0.4671  1.5509
24624SOL    HW285932   7.372   0.975   6.725 -0.0594  0.1615  3.0944
24625SOL     OW85933   5.580   3.425   0.407 -0.4284 -0.0849  0.4362
24625SOL    HW185934   5.580   3.485   0.327  0.6428 -0.8442 -0.1535
24625SOL    HW285935   5.675   3.404   0.432 -0.7865 -1.2902  0.8162
24626SOL     OW85936   4.403   4.933   6.354  0.4089  0.1535  1.0962
24626SOL    HW185937   4.336   5.001   6.324 -1.1674 -0.6331  2.7519
24626SOL    HW285938   4.456   4.970   6.431 -0.0550 -0.2586  1.6194
24627SOL     OW85939   8.442   7.979   3.962  0.6507  0.1445 -0.2448
24627SOL    HW185940   8.507   8.036   4.011  2.1084 -1.5083 -0.1997
24627SOL    HW285941   8.462   7.883   3.979 -1.0853 -0.4145 -1.1743
24628SOL     OW85942   9.231   6.028   3.300  0.1622  0.0837 -0.1625
24628SOL    HW185943   9.145   6.036   3.351 -0.4250  0.1949 -1.1632
24628SOL    HW285944   9.279   6.116   3.302 -0.9348  0.7209 -1.6920
24629SOL     OW85945   6.984   0.136   2.710 -0.9113  0.0650  0.0292
24629SOL    HW185946   6.969   0.059   2.648 -0.2564 -0.3669  0.4022
24629SOL    HW285947   7.064   0.188   2.680 -0.9004  0.1579  0.2165
24630SOL     OW85948   7.021   7.045   4.341 -0.1626  0.2474 -0.2675
24630SOL    HW185949   6.973   6.979   4.399 -0.8401  0.2421 -0.8262
24630SOL    HW285950   7.098   7.000   4.295 -0.9707 -0.3118 -1.1007
24631SOL     OW85951   8.576   1.862   4.163  0.2304 -0.3351  0.1102
24631SOL    HW185952   8.552   1.798   4.236 -1.0094 -2.0394 -1.7585
24631SOL    HW285953   8.497   1.919   4.141  1.1170  1.3782  1.2693
24632SOL     OW85954   3.676   3.593   7.080  0.2932 -0.2541 -0.1525
24632SOL    HW185955   3.642   3.614   7.172 -0.0739 -2.3828  0.2309
24632SOL    HW285956   3.743   3.518   7.086  0.5793 -0.1147 -1.5720
24633SOL     OW85957   6.894   2.015   3.538  0.4060 -0.3090  0.2401
24633SOL    HW185958   6.959   2.090   3.529  0.7665 -0.7293 -0.7017
24633SOL    HW285959   6.917   1.960   3.618  0.3502  0.3818  0.7272
24634SOL     OW85960   8.275   4.707   2.249 -0.2271 -0.3376 -0.5361
24634SOL    HW185961   8.281   4.612   2.219 -0.1059 -0.2420 -0.8216
24634SOL    HW285962   8.311   4.716   2.342 -1.4933 -0.8067  0.0009
24635SOL     OW85963   4.167   3.010   8.283  0.6330  0.3917  0.5520
24635SOL    HW185964   4.096   3.081   8.283 -0.4854 -0.6477  3.1387
24635SOL    HW285965   4.147   2.943   8.213 -0.2737  0.7595  0.4505
24636SOL     OW85966   5.291   6.152   6.688 -0.4482 -0.4008  0.0686
24636SOL    HW185967   5.333   6.240   6.671 -3.0957  0.8705 -0.1512
24636SOL    HW285968   5.252   6.116   6.603  0.5278 -1.7586  0.1734
24637SOL     OW85969   7.213   6.899   0.591 -0.2367 -0.0004  0.0361
24637SOL    HW185970   7.309   6.929   0.586 -0.6981  1.4511 -0.2855
24637SOL    HW285971   7.201   6.816   0.535  0.4013  0.9660 -1.5782
24638SOL     OW85972   8.987   6.633   9.873  0.0698 -0.4412  0.1358
24638SOL    HW185973   8.922   6.563   9.905 -0.1880 -1.3869 -2.3018
24638SOL    HW285974   8.991   6.630   9.773  2.5332  0.8406  0.1699
24639SOL     OW85975   6.989   4.339   7.105  0.0008 -0.6937 -0.3504
24639SOL    HW185976   7.029   4.338   7.013 -0.2944  0.5703 -0.5061
24639SOL    HW285977   7.063   4.333   7.172  0.3824  0.3352 -0.6554
24640SOL     OW85978   6.318   5.238   0.273  0.1842 -0.0820  1.0712
24640SOL    HW185979   6.226   5.208   0.296 -0.2627 -0.0894 -0.6240
24640SOL    HW285980   6.316   5.335   0.247  0.7742  0.0998  1.6856
24641SOL     OW85981   9.967   0.238   0.401  0.1204 -0.5294 -0.6638
24641SOL    HW185982   9.995   0.305   0.331 -1.2471  1.2161  0.4085
24641SOL    HW285983   9.962   0.284   0.490 -1.4872 -1.9100 -0.0277
24642SOL     OW85984   4.085   9.825   7.452  0.3375  0.5579 -0.7409
24642SOL    HW185985   4.159   9.880   7.412 -0.2255  2.2180  0.4735
24642SOL    HW285986   4.019   9.885   7.496 -0.3056 -1.1039  0.5942
24643SOL     OW85987   6.639   7.847   0.887  0.4778  0.0709 -0.0286
24643SOL    HW185988   6.701   7.791   0.831  0.7672 -1.7172  1.9873
24643SOL    HW285989   6.603   7.791   0.961  0.6044  2.5366  1.9544
24644SOL     OW85990   4.061   6.537   3.996 -0.2194 -0.4477  0.1009
24644SOL    HW185991   4.084   6.582   3.910 -1.4585 -1.0878 -0.5810
24644SOL    HW285992   3.979   6.481   3.983 -0.1430 -0.9152  1.5794
24645SOL     OW85993   5.621   7.760   1.060  0.1351  0.4877 -0.3517
24645SOL    HW185994   5.683   7.713   0.997 -0.2614  1.1392 -1.2321
24645SOL    HW285995   5.609   7.704   1.143 -0.2086 -0.8822 -1.3105
24646SOL     OW85996   3.692   3.962   5.898 -0.3259 -0.4913  0.2875
24646SOL    HW185997   3.638   4.045   5.879  1.8430  1.2786  1.5743
24646SOL    HW285998   3.765   3.954   5.831  0.9030 -0.0380  1.5520
24647SOL     OW85999   0.412   1.385   9.794 -0.1359  1.0053  0.2856
24647SOL    HW186000   0.419   1.461   9.729  2.4722 -1.3326 -2.3502
24647SOL    HW286001   0.504   1.363   9.829 -0.8888 -0.7537  1.2234
24648SOL     OW86002   7.554   6.856   7.043 -0.1383  0.4931  0.0995
24648SOL    HW186003   7.591   6.763   7.043  1.0503  0.9584  0.0474
24648SOL    HW286004   7.562   6.895   7.134 -1.6814  0.1473  0.3967
24649SOL     OW86005   7.496   0.843   5.285  0.9230  0.3408 -0.0450
24649SOL    HW186006   7.478   0.754   5.243  1.9227  0.2436 -0.2872
24649SOL    HW286007   7.567   0.891   5.232  0.5947  1.1573  0.2469
24650SOL     OW86008   3.888   9.849   7.055  0.1140 -0.3446  0.0966
24650SOL    HW186009   3.939   9.929   7.088  0.6834 -0.4731 -0.4386
24650SOL    HW286010   3.862   9.791   7.132  1.7054 -0.8139  0.3021
24651SOL     OW86011   1.973   7.308   7.367  0.1712 -0.4831 -0.2166
24651SOL    HW186012   1.878   7.340   7.369 -0.0804 -1.1592 -1.3502
24651SOL    HW286013   1.989   7.248   7.446 -0.0741  0.3720  0.4930
24652SOL     OW86014   7.091   5.548   0.119  0.0642  0.6547  0.2049
24652SOL    HW186015   7.103   5.474   0.052 -1.9105 -0.1800  0.7512
24652SOL    HW286016   7.174   5.554   0.175  0.7407 -0.3119 -0.6566
24653SOL     OW86017   6.253   6.499   0.687  0.1738 -0.1756 -0.0615
24653SOL    HW186018   6.214   6.563   0.753  2.4925  0.2996  0.9090
24653SOL    HW286019   6.248   6.406   0.723  0.4915 -0.0401  0.3308
24654SOL     OW86020   9.772   6.351   9.605 -0.9482  0.4849 -0.0760
24654SOL    HW186021   9.812   6.270   9.648  0.2833  0.3632 -1.4048
24654SOL    HW286022   9.805   6.433   9.652  1.4649  0.4218 -1.5595
24655SOL     OW86023   7.074   9.316   6.562 -0.3762 -0.2791 -0.4522
24655SOL    HW186024   7.123   9.293   6.477 -1.5038 -0.5539 -1.0435
24655SOL    HW286025   7.083   9.241   6.627 -0.2460 -0.4488 -0.6650
24656SOL     OW86026   5.846   8.696   0.186  0.5377  0.2908 -0.0590
24656SOL    HW186027   5.895   8.768   0.136  0.2458  0.8983  0.5132
24656SOL    HW286028   5.823   8.730   0.277 -0.0228 -0.3686  0.0445
24657SOL     OW86029   9.462   9.631   7.546 -0.4583 -0.1717 -0.1144
24657SOL    HW186030   9.547   9.585   7.519 -0.4865 -0.3810  0.1559
24657SOL    HW286031   9.474   9.673   7.636 -0.0191  1.4286 -0.9017
24658SOL     OW86032   9.423   8.560   2.390  0.1009 -0.1014 -0.7464
24658SOL    HW186033   9.436   8.584   2.486 -1.3004 -0.9508 -0.3184
24658SOL    HW286034   9.511   8.533   2.350  0.5488 -0.5835  0.5359
24659SOL     OW86035   7.747   6.449   5.627  0.2504  0.4867  0.3099
24659SOL    HW186036   7.770   6.352   5.629 -0.1189  0.3339 -1.8648
24659SOL    HW286037   7.647   6.459   5.631  0.1901  0.6821 -1.4603
24660SOL     OW86038   5.270   7.229   4.229  0.3047 -0.2256 -0.6447
24660SOL    HW186039   5.226   7.166   4.165  0.7929  0.3416 -1.5441
24660SOL    HW286040   5.199   7.284   4.274  0.0325  0.1117 -1.4814
24661SOL     OW86041   5.129   1.010   2.295 -0.5254 -0.2067  0.0066
24661SOL    HW186042   5.075   0.955   2.231 -1.8646  2.3522 -1.1167
24661SOL    HW286043   5.193   1.068   2.244  0.7990 -0.5827  1.1784
24662SOL     OW86044   1.004   6.734   2.864 -0.0315 -0.2746 -0.2740
24662SOL    HW186045   1.081   6.756   2.923  0.1632 -0.2195 -0.5504
24662SOL    HW286046   0.990   6.807   2.798 -2.2393  1.1856  1.7201
24663SOL     OW86047   7.362   7.375   1.698 -0.3325  0.0680 -0.0548
24663SOL    HW186048   7.423   7.339   1.768  0.9487  0.5324 -0.9181
24663SOL    HW286049   7.317   7.457   1.732  0.3542  0.3462  0.1969
24664SOL     OW86050   5.337   7.488   1.227 -0.6698 -0.1558  0.2966
24664SOL    HW186051   5.300   7.580   1.237 -0.9208 -0.2349  0.0905
24664SOL    HW286052   5.437   7.492   1.232 -0.5988  0.3354 -1.2305
24665SOL     OW86053   3.814   9.220   8.342  0.6175 -0.5539 -1.0386
24665SOL    HW186054   3.908   9.221   8.307  1.3553  1.0544  0.8803
24665SOL    HW286055   3.777   9.313   8.339 -0.7800 -1.1139 -1.3859
24666SOL     OW86056   2.399   3.781   0.490  0.9001 -0.3085 -0.1410
24666SOL    HW186057   2.371   3.841   0.566 -0.0270  0.7191 -1.2815
24666SOL    HW286058   2.421   3.690   0.526  1.2518  0.3983  1.4668
24667SOL     OW86059   4.658   5.367   6.344 -0.4387 -0.4654  0.0531
24667SOL    HW186060   4.617   5.283   6.379 -2.2611  1.2722  2.2793
24667SOL    HW286061   4.593   5.414   6.285 -0.1598  0.2900  0.3416
24668SOL     OW86062   7.049   7.735   4.422 -0.5066 -0.2431 -0.4149
24668SOL    HW186063   7.128   7.792   4.398 -0.6732 -0.8485 -2.4843
24668SOL    HW286064   7.003   7.774   4.502  0.1072  1.8173 -1.0400
24669SOL     OW86065   3.343   3.825   7.644 -0.5414 -0.0561 -0.1089
24669SOL    HW186066   3.285   3.881   7.704 -0.7216 -0.0679 -0.2707
24669SOL    HW286067   3.319   3.844   7.549  0.0378  0.2819 -0.1897
24670SOL     OW86068   6.669   4.571   8.573  0.1468 -0.6345 -0.2723
24670SOL    HW186069   6.762   4.535   8.574 -0.3287 -1.9837 -1.9961
24670SOL    HW286070   6.672   4.671   8.578  1.6217 -0.7154  0.8618
24671SOL     OW86071   4.828   6.861   3.336 -0.5082  0.7460 -0.6579
24671SOL    HW186072   4.872   6.774   3.314 -2.4474 -0.9198  1.7309
24671SOL    HW286073   4.879   6.907   3.409 -0.4049  0.7855 -0.7564
24672SOL     OW86074   3.937   9.464   8.149  0.0656  0.2619 -0.1758
24672SOL    HW186075   3.981   9.493   8.234 -0.4694 -1.3454  0.6722
24672SOL    HW286076   3.842   9.493   8.149 -0.1546 -0.4445  0.1501
24673SOL     OW86077   8.192   9.289   8.316 -0.0794  0.4797 -0.2603
24673SOL    HW186078   8.285   9.320   8.336 -0.1998  1.3961 -1.1053
24673SOL    HW286079   8.149   9.257   8.401  1.5690 -1.5201 -0.1247
24674SOL     OW86080   7.944   7.417   6.353  0.2748 -0.1624  0.4185
24674SOL    HW186081   7.881   7.371   6.416 -0.0287  1.6742  1.4899
24674SOL    HW286082   8.026   7.361   6.342 -1.2030 -2.2528 -0.4376
24675SOL     OW86083   9.404   0.343   8.631  0.1686 -0.1265  0.3826
24675SOL    HW186084   9.481   0.345   8.695 -0.3119  0.5729  0.9554
24675SOL    HW286085   9.400   0.430   8.581  0.3152 -0.5280 -0.3217
24676SOL     OW86086   5.617   5.307   7.649  0.1579  0.3164 -0.2173
24676SOL    HW186087   5.647   5.341   7.738  1.1157  0.6588 -0.6568
24676SOL    HW286088   5.615   5.207   7.650  0.0164  0.3242  0.2380
24677SOL     OW86089   7.951   9.085   8.802  0.3733  0.5937  0.2563
24677SOL    HW186090   8.013   9.008   8.789  0.2564  0.1321  2.3089
24677SOL    HW286091   7.950   9.141   8.719 -0.1918 -2.0494 -1.5723
24678SOL     OW86092   0.317   5.379   2.829 -0.2158  0.0473  0.0964
24678SOL    HW186093   0.263   5.456   2.866 -0.7135  0.0677 -0.6640
24678SOL    HW286094   0.264   5.333   2.758 -0.3808 -1.7140  1.3389
24679SOL     OW86095   9.591   7.517   3.606 -0.0994 -0.4311 -0.6413
24679SOL    HW186096   9.615   7.423   3.581 -0.9549 -0.5876 -0.8876
24679SOL    HW286097   9.668   7.559   3.653  0.0673 -1.4601  0.0170
24680SOL     OW86098   1.715   4.334   6.474  0.3916  0.1462  0.0614
24680SOL    HW186099   1.708   4.235   6.488 -0.4070  0.0072 -1.1856
24680SOL    HW286100   1.781   4.353   6.401 -0.6329  0.4216 -0.8149
24681SOL     OW86101   2.995   5.572   0.036 -0.2805 -0.1366 -0.1217
24681SOL    HW186102   3.002   5.476   0.062 -0.9387 -0.6732 -1.9271
24681SOL    HW286103   2.920   5.585  -0.028  0.9488  1.2759 -1.3274
24682SOL     OW86104   9.256   4.012   6.381  0.3334  0.1310 -0.1717
24682SOL    HW186105   9.248   3.998   6.480  0.6964  0.1166 -0.1444
24682SOL    HW286106   9.250   3.924   6.334 -0.0902  0.1616 -0.1827
24683SOL     OW86107   2.990   7.517   9.495 -0.1836 -0.0705 -0.1470
24683SOL    HW186108   3.040   7.507   9.581  0.5760  2.4484 -0.2464
24683SOL    HW286109   2.902   7.562   9.513  0.2965  1.1322 -0.7755
24684SOL     OW86110   6.220   3.847   9.628 -0.1520 -0.1018  0.1709
24684SOL    HW186111   6.210   3.811   9.721 -0.2883  0.5799  0.4182
24684SOL    HW286112   6.194   3.943   9.626  1.8929  0.4579 -0.1483
24685SOL     OW86113   6.590   7.312   0.943  0.0116  0.2315 -0.1332
24685SOL    HW186114   6.522   7.383   0.926  0.9359  0.7835 -1.6841
24685SOL    HW286115   6.610   7.307   1.041 -0.4751  1.7480  0.0511
24686SOL     OW86116   8.582   9.099   8.447  0.3097 -0.1459 -0.1293
24686SOL    HW186117   8.594   9.010   8.403  0.2674 -0.1118 -0.2118
24686SOL    HW286118   8.669   9.130   8.484  0.2551 -0.3767  0.1933
24687SOL     OW86119   0.824   6.011   4.481  0.3237 -0.5804  0.0737
24687SOL    HW186120   0.815   6.080   4.410 -0.5375 -1.4039 -0.6245
24687SOL    HW286121   0.794   5.922   4.446  1.2002 -1.2676  1.0338
24688SOL     OW86122   6.846   0.434   2.654  0.2324 -0.7470 -0.7042
24688SOL    HW186123   6.878   0.403   2.743 -1.2656  0.9898  0.4554
24688SOL    HW286124   6.876   0.369   2.584  1.4246 -2.1227  1.0367
24689SOL     OW86125   6.942   6.805   7.499  0.0110 -0.3211 -0.4659
24689SOL    HW186126   7.010   6.828   7.568  1.2690 -1.8176 -1.1981
24689SOL    HW286127   6.904   6.714   7.517 -0.2345 -0.3913 -1.2815
24690SOL     OW86128   7.609   5.998   6.441  0.2963  0.5111  0.0039
24690SOL    HW186129   7.670   5.964   6.513  0.4710  0.6604 -0.0738
24690SOL    HW286130   7.598   5.929   6.370  1.0124  0.7929 -0.3791
24691SOL     OW86131   6.754   7.967   7.231  0.2200  0.6002 -0.0241
24691SOL    HW186132   6.748   7.913   7.314  1.9603  0.9647  0.3699
24691SOL    HW286133   6.701   8.051   7.242  1.2973  1.1489  1.1409
24692SOL     OW86134   9.222   3.037   0.389  0.6069  0.2666  0.1779
24692SOL    HW186135   9.273   3.118   0.360 -1.0043  1.0414 -0.5550
24692SOL    HW286136   9.179   3.054   0.478  0.8235 -0.0323  0.3410
24693SOL     OW86137   2.595   0.362   1.663  0.0797  0.3859  0.2538
24693SOL    HW186138   2.622   0.285   1.721 -0.2139 -0.5516 -0.8370
24693SOL    HW286139   2.640   0.354   1.574 -0.2928  1.2418 -0.0144
24694SOL     OW86140   1.394   6.181   7.262 -0.2554 -0.1386  0.1086
24694SOL    HW186141   1.391   6.264   7.206 -2.0573 -0.5155 -0.3862
24694SOL    HW286142   1.391   6.206   7.359 -1.9136  0.3675 -0.0478
24695SOL     OW86143   2.355   6.327   0.620 -0.2824 -0.2222 -0.2728
24695SOL    HW186144   2.305   6.240   0.617 -0.7586  0.0322  0.0987
24695SOL    HW286145   2.409   6.332   0.704  0.6718 -0.6579 -0.8562
24696SOL     OW86146   6.412   5.163   5.378  0.5631  0.2415  0.1036
24696SOL    HW186147   6.420   5.192   5.282  1.3052 -0.8242 -0.1607
24696SOL    HW286148   6.318   5.180   5.410  0.3874  0.8511 -0.7285
24697SOL     OW86149   6.593   0.752   8.457  0.7330  0.5097  0.4718
24697SOL    HW186150   6.626   0.805   8.379 -1.6119 -1.6030 -2.0730
24697SOL    HW286151   6.630   0.659   8.452 -1.0112 -0.2243  0.7335
24698SOL     OW86152   6.228   7.466   6.462 -0.3594 -0.0520  0.0385
24698SOL    HW186153   6.205   7.414   6.544 -0.6581  0.9125  0.5823
24698SOL    HW286154   6.267   7.555   6.489  1.6347 -0.6186 -0.8613
24699SOL     OW86155   5.261   6.082   3.913 -0.0728  0.2861 -0.2148
24699SOL    HW186156   5.309   5.994   3.908  1.1134  0.8272  1.1678
24699SOL    HW286157   5.164   6.069   3.895  0.0317 -1.3762  0.3779
24700SOL     OW86158   2.379   7.854   7.320 -0.1443  0.1331  0.3351
24700SOL    HW186159   2.328   7.905   7.390  0.4440 -0.0618  0.9097
24700SOL    HW286160   2.345   7.880   7.230 -1.6010 -0.3477  0.7265
24701SOL     OW86161   5.905   8.859   7.778 -0.3170  0.5239 -0.7855
24701SOL    HW186162   5.840   8.786   7.755 -0.3651  0.5614 -0.7679
24701SOL    HW286163   5.888   8.938   7.718 -0.9061  0.8794 -0.1598
24702SOL     OW86164   7.355   7.264   0.608  0.1675  0.2979 -0.1681
24702SOL    HW186165   7.412   7.194   0.566  0.6026  0.0381  0.8522
24702SOL    HW286166   7.274   7.222   0.648 -0.4729  0.6004 -1.1277
24703SOL     OW86167   9.533   3.854   1.350 -0.1050  0.1658 -0.1381
24703SOL    HW186168   9.540   3.755   1.361 -1.1362  0.1804  0.7150
24703SOL    HW286169   9.608   3.899   1.397  0.0699 -0.1866 -0.0866
24704SOL     OW86170   7.624   8.530   8.442 -0.2316  0.8340 -0.0855
24704SOL    HW186171   7.532   8.513   8.477  0.9404  0.9542  3.2635
24704SOL    HW286172   7.668   8.444   8.418  0.4477  0.2473  2.9558
24705SOL     OW86173   4.040   5.437   4.845 -0.1843  0.2990 -0.2293
24705SOL    HW186174   4.118   5.433   4.783 -1.4616 -0.0096 -1.8660
24705SOL    HW286175   3.962   5.480   4.799 -0.9210  0.7889  1.4334
24706SOL     OW86176   6.874   8.486   9.664 -0.2449 -0.3475 -0.3535
24706SOL    HW186177   6.780   8.452   9.659 -0.5899  0.1657  1.8059
24706SOL    HW286178   6.876   8.583   9.643  0.0572 -0.7125 -2.0318
24707SOL     OW86179   8.130   4.736   2.766 -0.0167 -0.2789 -0.5986
24707SOL    HW186180   8.061   4.807   2.781  0.6390  0.7552 -2.2747
24707SOL    HW286181   8.221   4.776   2.777  0.3494 -0.9970 -1.0260
24708SOL     OW86182   9.912   2.671   1.724  0.2152  0.1181 -0.3229
24708SOL    HW186183   9.884   2.748   1.666  1.8251  0.7842 -0.2311
24708SOL    HW286184   9.883   2.688   1.818 -0.4509  0.0592 -0.5117
24709SOL     OW86185   2.460   3.437   7.885  0.3311  0.5134 -0.6765
24709SOL    HW186186   2.409   3.365   7.932  2.0518 -0.6535 -0.5187
24709SOL    HW286187   2.541   3.397   7.841  1.2663  2.3315 -0.6808
24710SOL     OW86188   4.275   9.402   8.779  0.4804 -0.1656 -0.5198
24710SOL    HW186189   4.307   9.496   8.768 -2.5639  0.9905 -0.0495
24710SOL    HW286190   4.256   9.385   8.876  0.2056 -0.9779 -0.7093
24711SOL     OW86191   7.357   4.881   0.666  0.3603  0.2770  0.7184
24711SOL    HW186192   7.344   4.783   0.681 -0.3633  0.0142 -1.4520
24711SOL    HW286193   7.280   4.931   0.706 -0.5291 -0.2463 -0.3127
24712SOL     OW86194   4.862   1.306   9.538  0.4230 -0.1812  0.2519
24712SOL    HW186195   4.880   1.273   9.630  0.4026 -0.0378  0.3081
24712SOL    HW286196   4.882   1.234   9.472 -0.0896 -0.4642  0.4067
24713SOL     OW86197   7.250   9.768   7.401  0.2170 -0.3396 -0.0578
24713SOL    HW186198   7.262   9.714   7.484 -1.1633 -0.9935 -0.2814
24713SOL    HW286199   7.309   9.849   7.405  0.1874 -0.3931  1.5248
24714SOL     OW86200   4.544   1.366   8.645 -0.0754 -0.3335 -0.6215
24714SOL    HW186201   4.615   1.389   8.711  1.2218 -2.2030 -1.3356
24714SOL    HW286202   4.542   1.436   8.573  0.4479  0.1840 -0.1370
24715SOL     OW86203   9.817   1.521   7.023  0.1448 -0.2881  0.3914
24715SOL    HW186204   9.750   1.593   7.004 -1.2672 -1.4357  0.9284
24715SOL    HW286205   9.781   1.433   6.992  1.1113 -1.0284  1.3548
24716SOL     OW86206   5.257   6.652   0.074 -0.6069  0.2889  0.0709
24716SOL    HW186207   5.196   6.682   0.001 -1.1890  1.1975  0.9120
24716SOL    HW286208   5.326   6.590   0.037 -1.7036 -0.3162 -0.9955
24717SOL     OW86209   5.853   9.403   7.802 -0.6505 -0.3710  0.9634
24717SOL    HW186210   5.754   9.397   7.804 -0.7355  0.9700  1.0431
24717SOL    HW286211   5.881   9.488   7.758  0.4592 -0.5957  1.2034
24718SOL     OW86212   4.870   1.406   9.180 -0.4481 -0.5336 -0.2011
24718SOL    HW186213   4.772   1.400   9.159 -0.7795 -2.6652  1.6813
24718SOL    HW286214   4.896   1.327   9.236  2.4306 -0.1404 -0.9338
24719SOL     OW86215   6.442   9.903   7.702 -0.1825 -0.1278  0.2066
24719SOL    HW186216   6.356   9.944   7.734 -0.1757  0.4801 -0.5399
24719SOL    HW286217   6.422   9.818   7.653 -0.4112  0.2740 -0.4094
24720SOL     OW86218   4.169   8.860   0.367 -0.2550  0.3471  0.8296
24720SOL    HW186219   4.082   8.836   0.410 -0.5938  0.6093  0.2917
24720SOL    HW286220   4.159   8.947   0.319 -0.5866 -1.1898 -1.9668
24721SOL     OW86221   0.574   1.957   1.217  0.5981 -0.4247  0.3645
24721SOL    HW186222   0.492   1.996   1.174 -0.7846 -2.3586  1.2124
24721SOL    HW286223   0.640   1.931   1.146 -0.1924 -0.3405 -0.4039
24722SOL     OW86224   6.764   8.270   6.858  0.0450 -0.0245  0.3524
24722SOL    HW186225   6.671   8.242   6.882 -0.6953  2.2452  0.2665
24722SOL    HW286226   6.804   8.322   6.934  0.6275  0.3860 -0.2250
24723SOL     OW86227   4.371   8.051   3.800 -0.0670  0.2269  0.2429
24723SOL    HW186228   4.357   8.049   3.701  1.5819  0.0071 -0.0011
24723SOL    HW286229   4.337   8.138   3.837 -1.2097  0.0723 -0.4154
24724SOL     OW86230   5.712   6.611   3.836 -0.0639  0.1096  0.2609
24724SOL    HW186231   5.771   6.533   3.817 -0.6018 -0.1570 -0.3386
24724SOL    HW286232   5.700   6.665   3.752 -0.2445  0.4568  0.5076
24725SOL     OW86233   7.686   8.887   4.783  0.0757 -0.5462 -0.2898
24725SOL    HW186234   7.673   8.964   4.845 -1.0501 -0.7222 -0.3041
24725SOL    HW286235   7.721   8.808   4.834  0.6995 -0.1981 -0.1762
24726SOL     OW86236   7.012   7.572   7.247  0.4123 -0.3832  0.2093
24726SOL    HW186237   7.052   7.578   7.155 -1.5898 -0.3913 -0.7050
24726SOL    HW286238   6.912   7.568   7.239  0.1336  1.2180  2.4646
24727SOL     OW86239   3.652   0.274   9.510  0.1177 -0.2453 -0.0091
24727SOL    HW186240   3.667   0.305   9.415 -0.0750 -0.8309 -0.2298
24727SOL    HW286241   3.701   0.188   9.525  0.0604 -0.2069  0.3938
24728SOL     OW86242   6.348   8.252   0.322  0.1292  0.3456  0.2069
24728SOL    HW186243   6.437   8.284   0.290  0.6434 -0.2681  1.0136
24728SOL    HW286244   6.342   8.264   0.421 -0.6994  0.4192  0.1512
24729SOL     OW86245   7.980   9.058   5.538 -0.2286 -0.1577  0.4651
24729SOL    HW186246   8.022   8.990   5.477 -1.5097 -0.6641  0.1334
24729SOL    HW286247   7.991   9.029   5.633  1.1860  0.2979  0.4548
24730SOL     OW86248   3.670   0.400   9.254 -0.1444 -0.0421  0.1856
24730SOL    HW186249   3.675   0.500   9.260 -0.6466  0.0082 -0.2620
24730SOL    HW286250   3.744   0.367   9.196 -0.4393  0.1325 -0.2940
24731SOL     OW86251   3.398   2.839   0.653  0.2503 -0.1934  0.2484
24731SOL    HW186252   3.418   2.767   0.586 -0.5550 -0.5198  0.3543
24731SOL    HW286253   3.402   2.928   0.607 -0.0210 -0.3968 -0.1789
24732SOL     OW86254   0.054   8.107   7.354  0.0007 -0.2563 -0.0887
24732SOL    HW186255   0.029   8.132   7.261 -0.1999 -1.4486 -0.3695
24732SOL    HW286256   0.059   8.007   7.362  0.3572 -0.1639  1.0876
24733SOL     OW86257   6.331   6.007   2.954  0.0557  0.0401  0.0845
24733SOL    HW186258   6.389   5.950   3.012  0.0827  0.3665  0.3785
24733SOL    HW286259   6.305   6.089   3.004 -1.4667 -0.5614  0.3005
24734SOL     OW86260   0.335   4.736   7.145 -0.3440 -0.0238  0.0646
24734SOL    HW186261   0.374   4.774   7.061  3.3461  0.9320  2.1077
24734SOL    HW286262   0.300   4.644   7.126  0.0639  0.3232 -2.6003
24735SOL     OW86263   7.823   0.636   0.322 -0.6068  0.1252 -0.0767
24735SOL    HW186264   7.895   0.572   0.294 -0.2220  0.1572  0.8134
24735SOL    HW286265   7.742   0.584   0.348 -0.6015  0.0443 -0.2197
24736SOL     OW86266   7.945   5.999   7.065 -0.1513  0.3712  0.0257
24736SOL    HW186267   7.882   5.967   6.994 -0.5874  0.2985  0.4504
24736SOL    HW286268   7.894   6.031   7.144  0.3607 -1.1809  1.0091
24737SOL     OW86269   5.247   8.805   5.927  0.3192  0.1307  0.0672
24737SOL    HW186270   5.190   8.809   5.845  1.3014  1.7483 -0.5578
24737SOL    HW286271   5.193   8.833   6.007  0.3178  1.9622 -0.5669
24738SOL     OW86272   8.519   7.253   6.330 -0.3523  0.0810  0.2394
24738SOL    HW186273   8.449   7.288   6.394 -0.2951 -2.8089  1.9732
24738SOL    HW286274   8.474   7.218   6.248 -0.6830  0.8908  0.0637
24739SOL     OW86275   8.885   7.501   9.253 -0.0625  0.0733 -0.3525
24739SOL    HW186276   8.939   7.541   9.179  2.2250 -1.8930  0.2152
24739SOL    HW286277   8.852   7.411   9.225 -0.3149 -0.1076  0.5123
24740SOL     OW86278   0.241   7.096   1.450  0.2865 -0.1645 -1.0217
24740SOL    HW186279   0.337   7.113   1.432 -0.1371  0.8644 -2.3545
24740SOL    HW286280   0.221   7.116   1.546  0.9682  1.6356 -1.2388
24741SOL     OW86281   8.882   8.212   8.215 -0.0768 -0.1234 -0.2704
24741SOL    HW186282   8.786   8.197   8.190  0.4878 -1.1484 -1.9257
24741SOL    HW286283   8.905   8.308   8.202 -0.7971  0.0600 -0.1984
24742SOL     OW86284   7.305   3.302   6.608  0.5640 -0.5734 -0.0807
24742SOL    HW186285   7.276   3.237   6.678 -0.4437  1.0020  0.9838
24742SOL    HW286286   7.355   3.378   6.650 -0.2238  0.4973 -1.0273
24743SOL     OW86287   2.917   1.667   7.946 -0.1825  0.7206  0.0436
24743SOL    HW186288   2.859   1.737   7.905  0.9985  1.3696 -0.5412
24743SOL    HW286289   3.006   1.707   7.970  0.4475 -0.5348 -0.1486
24744SOL     OW86290   9.489   8.424   8.341  0.1110  0.4271 -1.1164
24744SOL    HW186291   9.559   8.401   8.409  0.6527  1.3875 -1.3302
24744SOL    HW286292   9.418   8.354   8.340  0.0599  0.4564  0.4899
24745SOL     OW86293   9.367   6.612   5.420 -0.4650  0.1276  0.3907
24745SOL    HW186294   9.398   6.583   5.329 -0.0891  1.4234  0.1057
24745SOL    HW286295   9.269   6.595   5.429 -0.9484  2.0762 -1.0734
24746SOL     OW86296   5.638   6.034   9.225  0.4871 -0.3062  0.3037
24746SOL    HW186297   5.619   5.946   9.182  1.5563 -0.3727 -0.0446
24746SOL    HW286298   5.561   6.096   9.211 -0.1264 -1.0774  0.2594
24747SOL     OW86299   1.779   1.665   9.944 -0.5102 -0.3609  0.4684
24747SOL    HW186300   1.862   1.684   9.892 -0.3463 -1.2019  0.4112
24747SOL    HW286301   1.699   1.684   9.888 -0.3527  0.3339  0.4817
24748SOL     OW86302   1.389   8.619   7.825 -0.3452 -0.0880  0.0538
24748SOL    HW186303   1.385   8.621   7.925  1.8220  0.2441  0.1588
24748SOL    HW286304   1.432   8.534   7.795 -0.9770 -0.1798 -0.5887
24749SOL     OW86305   7.010   4.205   6.415 -0.2698 -0.1238 -0.4007
24749SOL    HW186306   7.066   4.141   6.364  2.4751  1.1882  0.8864
24749SOL    HW286307   6.982   4.164   6.502 -1.5492 -0.8631 -1.1443
24750SOL     OW86308   7.283   5.238   0.066  0.4919 -0.2647 -0.8245
24750SOL    HW186309   7.361   5.288   0.106  1.0276  0.4983 -2.7570
24750SOL    HW286310   7.314   5.185  -0.013 -0.4917 -2.0058 -0.0742
24751SOL     OW86311   8.366   9.220   7.937 -0.0462  0.1333  0.2032
24751SOL    HW186312   8.370   9.208   8.036  0.2645 -0.4194  0.1268
24751SOL    HW286313   8.379   9.131   7.893  2.0674  0.7215 -0.3786
24752SOL     OW86314   3.398   1.864   0.774  0.1050 -0.4199 -0.0715
24752SOL    HW186315   3.349   1.946   0.804 -1.2862 -1.2515 -0.0537
24752SOL    HW286316   3.404   1.799   0.850  1.3622 -0.2797 -0.0360
24753SOL     OW86317   5.391   8.292   0.273  0.0303  0.3950 -0.1542
24753SOL    HW186318   5.381   8.374   0.329 -0.0721  0.4035 -0.1854
24753SOL    HW286319   5.324   8.224   0.301  2.1803 -0.8935  2.0330
24754SOL     OW86320   8.540   4.935   0.611  0.2989 -0.2040 -0.3590
24754SOL    HW186321   8.480   4.889   0.546  0.7928 -0.8398 -0.3620
24754SOL    HW286322   8.494   5.017   0.646 -1.1084 -1.3865  0.6412
24755SOL     OW86323   5.909   8.414   7.266 -0.0103 -0.2492  0.7119
24755SOL    HW186324   5.922   8.476   7.189 -0.6422 -1.4637 -0.3981
24755SOL    HW286325   5.851   8.458   7.334 -0.8187  0.2150 -0.2607
24756SOL     OW86326   3.945   8.942   9.419 -1.0425  0.1702 -0.6907
24756SOL    HW186327   4.002   8.888   9.481 -2.3360  0.0658  0.4219
24756SOL    HW286328   3.860   8.892   9.400 -1.1506  0.7002 -1.6728
24757SOL     OW86329   7.537   8.929   3.960 -0.7229  0.3662  0.1278
24757SOL    HW186330   7.498   9.013   3.998  0.9819  1.4667 -0.4882
24757SOL    HW286331   7.508   8.918   3.865 -0.3965  0.6342 -0.0052
24758SOL     OW86332   6.593   7.774   9.932 -0.3255  0.3686  0.0743
24758SOL    HW186333   6.542   7.826  10.001 -0.7875  0.5133 -0.3699
24758SOL    HW286334   6.636   7.695   9.975  2.1970  2.2905  1.1847
24759SOL     OW86335   2.173   4.346   8.946  0.2195 -0.1084  0.0742
24759SOL    HW186336   2.156   4.347   8.847  1.0498  0.0485 -0.0716
24759SOL    HW286337   2.098   4.298   8.992 -1.0152  1.2716 -0.4664
24760SOL     OW86338   5.427   5.337   1.800  0.1475 -0.6295  0.4489
24760SOL    HW186339   5.488   5.318   1.724  0.0185 -0.5755  0.3320
24760SOL    HW286340   5.470   5.309   1.886 -0.4141 -2.2990  0.1947
24761SOL     OW86341   9.027   2.939   9.006  0.8228 -0.1107  0.6102
24761SOL    HW186342   9.011   2.847   9.043  1.1821 -0.3001  0.2889
24761SOL    HW286343   9.008   3.007   9.077 -0.5683 -0.3717  0.5132
24762SOL     OW86344   1.806   5.686   2.376  0.0120 -0.5298  0.2675
24762SOL    HW186345   1.749   5.754   2.330  0.6790 -0.7792 -0.9284
24762SOL    HW286346   1.780   5.681   2.473 -0.3194  1.1399  0.2759
24763SOL     OW86347   8.371   7.482   9.362  0.2780  0.1752  0.7901
24763SOL    HW186348   8.466   7.496   9.334 -0.5716  1.7425 -1.4533
24763SOL    HW286349   8.358   7.387   9.388  1.7092 -0.8898 -2.0864
24764SOL     OW86350   9.947   7.067   0.688 -0.5550 -0.7027  0.1365
24764SOL    HW186351   9.911   7.068   0.595 -1.8973 -0.2679  0.6581
24764SOL    HW286352   9.909   7.144   0.740 -0.4503 -1.4203  1.2987
24765SOL     OW86353   6.661   9.979   2.344  0.0761 -0.4163 -0.3537
24765SOL    HW186354   6.657   9.921   2.426  1.1945 -1.4004 -0.9668
24765SOL    HW286355   6.612  10.064   2.360 -0.2559 -0.8767  1.1208
24766SOL     OW86356   8.993   8.771   8.902 -0.1386 -0.3550 -0.1083
24766SOL    HW186357   8.985   8.871   8.909  0.0509 -0.4334  1.3171
24766SOL    HW286358   8.906   8.733   8.872  0.1506  0.3454 -1.9048
24767SOL     OW86359   1.967   2.310   8.797  0.2448 -0.2191  0.0628
24767SOL    HW186360   1.904   2.263   8.859  0.1407 -1.7240 -1.1366
24767SOL    HW286361   2.044   2.249   8.775  0.7698  0.6383 -0.5398
24768SOL     OW86362   6.797   5.303   2.055  0.7368  0.5221  0.0804
24768SOL    HW186363   6.861   5.360   2.003  0.2340 -0.9192 -2.2031
24768SOL    HW286364   6.835   5.212   2.065 -0.4904 -0.0514 -0.3858
24769SOL     OW86365   7.186   6.778   0.341 -0.7276  0.3083  0.7068
24769SOL    HW186366   7.217   6.750   0.250 -0.8484  1.7549  0.2008
24769SOL    HW286367   7.091   6.752   0.353 -0.8075  0.3901  0.2808
24770SOL     OW86368   6.965   1.060   7.567 -0.2983  0.2814  0.0096
24770SOL    HW186369   6.952   0.999   7.490 -0.8246 -1.0702  1.1458
24770SOL    HW286370   6.941   1.154   7.540 -2.1006 -0.4387 -0.9908
24771SOL     OW86371   5.055   0.089   9.345  0.2078 -0.1796 -0.2758
24771SOL    HW186372   5.085   0.170   9.396  0.6017 -0.2046 -0.4675
24771SOL    HW286373   5.135   0.038   9.314 -0.0284  0.0123 -1.2069
24772SOL     OW86374   7.567   6.577   2.936  0.5558  0.2501  0.1222
24772SOL    HW186375   7.614   6.610   3.017  0.0245 -0.0826  0.5668
24772SOL    HW286376   7.491   6.518   2.963 -0.7082  1.5258 -0.5434
24773SOL     OW86377   0.318   6.105   0.053  0.2711 -0.2042 -0.1152
24773SOL    HW186378   0.345   6.009   0.049 -0.3556 -0.4744  1.7246
24773SOL    HW286379   0.219   6.112   0.042  0.2188  0.1668  0.5937
24774SOL     OW86380   7.445   8.089   1.793 -1.0157 -0.7821  1.2236
24774SOL    HW186381   7.384   8.102   1.715 -0.5019  1.5214  1.1857
24774SOL    HW286382   7.513   8.019   1.771 -0.7474  0.0033 -0.4627
24775SOL     OW86383   6.239   7.973   0.337  0.2780  0.1222 -0.0769
24775SOL    HW186384   6.265   8.046   0.401 -2.5362  0.3410  0.8662
24775SOL    HW286385   6.151   7.995   0.295 -1.0309 -3.0858  0.8606
24776SOL     OW86386   3.154   4.942   9.810 -0.1895 -0.3690 -0.4061
24776SOL    HW186387   3.221   4.998   9.858 -1.5687  0.6646  0.3324
24776SOL    HW286388   3.088   4.905   9.875  0.3168 -2.3454 -0.9699
24777SOL     OW86389   0.414   4.369   1.067 -0.1468 -0.3358 -0.0896
24777SOL    HW186390   0.348   4.386   1.141 -0.1978 -1.4276  0.1205
24777SOL    HW286391   0.466   4.286   1.087  0.6891  0.0307 -0.6915
24778SOL     OW86392   5.080   0.228   8.695 -0.1204  0.5157 -0.7885
24778SOL    HW186393   5.116   0.218   8.787 -0.8483 -1.5230 -0.6953
24778SOL    HW286394   5.098   0.320   8.661  0.0489  1.3034  1.4221
24779SOL     OW86395   0.766   5.926   0.187 -0.3950 -0.4464 -0.1271
24779SOL    HW186396   0.852   5.874   0.187 -0.9138 -1.3133  0.0991
24779SOL    HW286397   0.786   6.024   0.186  0.6015 -0.6308  1.3432
24780SOL     OW86398   5.106   3.753   8.770 -0.0315  0.3731  0.1806
24780SOL    HW186399   5.188   3.749   8.713  0.9292  0.7920  1.5036
24780SOL    HW286400   5.091   3.848   8.800 -1.0454  0.3139 -0.0957
24781SOL     OW86401   7.836   8.183   6.320  0.4686 -0.5890 -0.0652
24781SOL    HW186402   7.739   8.161   6.317  0.3816 -0.2255  0.0039
24781SOL    HW286403   7.862   8.230   6.235  0.3205  0.3757  0.4167
24782SOL     OW86404   8.471   2.302   2.213 -0.0733  0.1366 -0.2121
24782SOL    HW186405   8.482   2.251   2.127 -1.3671 -2.8375  1.3311
24782SOL    HW286406   8.546   2.279   2.275  1.4891  3.1425 -0.8833
24783SOL     OW86407   9.200   1.341   4.564 -0.2393 -0.2768  0.7565
24783SOL    HW186408   9.166   1.251   4.592  0.2955 -0.5071  0.6794
24783SOL    HW286409   9.247   1.383   4.641  3.2110 -1.8627 -0.3623
24784SOL     OW86410   7.679   5.561   5.553  0.6288 -0.2073  0.3268
24784SOL    HW186411   7.686   5.660   5.557  0.0437 -0.1089 -0.7420
24784SOL    HW286412   7.617   5.529   5.625 -0.1405  0.3178 -0.0977
24785SOL     OW86413   9.393   5.547   7.170  0.2115  0.2155 -0.3707
24785SOL    HW186414   9.356   5.580   7.083 -0.6386 -0.2433 -0.1933
24785SOL    HW286415   9.373   5.612   7.242  2.9250  1.7142 -0.9094
24786SOL     OW86416   2.603   0.808   0.747 -0.3806  0.2529 -0.8231
24786SOL    HW186417   2.679   0.796   0.684  0.8252 -1.0996  0.8601
24786SOL    HW286418   2.618   0.890   0.802  0.6260 -0.8482  0.5583
24787SOL     OW86419   7.672   9.315   8.652  0.0230 -0.6058  0.1272
24787SOL    HW186420   7.759   9.356   8.679 -0.4090  1.3274 -1.3124
24787SOL    HW286421   7.680   9.215   8.656  1.9976 -0.4464  0.9036
24788SOL     OW86422   8.642   8.973   7.976 -0.3059 -0.3821  0.2279
24788SOL    HW186423   8.694   9.038   7.921  0.1086 -0.7630  0.1657
24788SOL    HW286424   8.645   8.883   7.933 -1.8570 -0.1891 -0.2980
24789SOL     OW86425   6.160   6.674   0.490  0.6623  0.4682  0.4264
24789SOL    HW186426   6.192   6.612   0.562  1.0549  0.0348 -0.1175
24789SOL    HW286427   6.106   6.622   0.423  0.4487  0.8359  0.3094
24790SOL     OW86428   9.669   1.855   0.993 -0.2312  0.5639 -0.5204
24790SOL    HW186429   9.663   1.784   0.922  0.1458 -1.3480  1.2928
24790SOL    HW286430   9.627   1.821   1.077 -1.5485  3.1684 -0.0768
24791SOL     OW86431   5.863   7.464   1.885 -0.0782  0.1243 -0.3252
24791SOL    HW186432   5.954   7.422   1.884  0.1480  0.6351 -0.9721
24791SOL    HW286433   5.803   7.411   1.945  1.0370  0.6089  1.2515
24792SOL     OW86434   5.189   9.561   0.685 -0.1301  0.1343  0.3577
24792SOL    HW186435   5.146   9.477   0.718 -1.6841  0.1479 -1.5675
24792SOL    HW286436   5.190   9.562   0.585  2.9343  0.8895  0.3400
24793SOL     OW86437   4.091   5.542   7.712 -0.1465 -0.8751 -0.2736
24793SOL    HW186438   4.087   5.534   7.612 -1.5047 -1.2695 -0.1915
24793SOL    HW286439   4.174   5.591   7.738  0.0713 -0.5157 -1.6141
24794SOL     OW86440   7.167   8.744   4.060  0.2471 -0.2927 -0.3943
24794SOL    HW186441   7.254   8.732   4.108 -1.1615 -3.7822  1.4668
24794SOL    HW286442   7.109   8.664   4.075 -3.1300  1.7182 -2.0217
24795SOL     OW86443   3.928   6.298   6.759 -0.0033  0.1021 -0.5374
24795SOL    HW186444   3.961   6.364   6.691  3.4939 -0.4515  0.5070
24795SOL    HW286445   3.956   6.327   6.850 -1.3078 -1.1349  0.2716
24796SOL     OW86446   3.240   6.823   9.755  0.0028  0.2896  0.4565
24796SOL    HW186447   3.155   6.821   9.702 -0.4601  0.5850  1.1734
24796SOL    HW286448   3.221   6.862   9.845  0.4276 -1.7698  1.4670
24797SOL     OW86449   5.573   0.695   2.847 -0.5954 -0.3079  0.2899
24797SOL    HW186450   5.482   0.696   2.807  0.8307 -0.7603 -3.0962
24797SOL    HW286451   5.591   0.783   2.892 -2.6245 -0.1884  0.8968
24798SOL     OW86452   9.643   3.861   6.466  0.0072  0.2584 -0.1460
24798SOL    HW186453   9.724   3.826   6.514 -0.5177  0.1788  0.6959
24798SOL    HW286454   9.607   3.941   6.514 -0.2854  0.4233 -0.6363
24799SOL     OW86455   0.744   5.641   0.867 -0.2728 -0.8021  0.3947
24799SOL    HW186456   0.772   5.728   0.826  0.5065 -1.3556 -0.2820
24799SOL    HW286457   0.651   5.649   0.903 -1.2376 -0.4511 -2.0460
24800SOL     OW86458   1.932   8.853   7.212 -0.3359 -0.2763  0.1252
24800SOL    HW186459   1.933   8.878   7.116  2.6724  0.0250  0.1721
24800SOL    HW286460   1.838   8.855   7.247 -1.5695 -1.3914 -3.0191
24801SOL     OW86461   7.832   8.337   9.930 -0.6292 -0.0302 -0.0273
24801SOL    HW186462   7.926   8.332   9.897  0.1895 -0.9304  2.3351
24801SOL    HW286463   7.796   8.429   9.915  0.1886 -0.0249 -2.0686
24802SOL     OW86464   5.648   5.466   7.415 -0.1591  0.3274 -0.1711
24802SOL    HW186465   5.742   5.488   7.441  0.0174  0.4437 -0.8992
24802SOL    HW286466   5.616   5.387   7.469  0.3188  0.3544  0.1493
24803SOL     OW86467   4.432   9.291   7.613  0.0260  0.3045 -0.5071
24803SOL    HW186468   4.445   9.232   7.693 -0.3738  1.1456  0.1924
24803SOL    HW286469   4.363   9.251   7.553 -1.5832  0.9436  0.8691
24804SOL     OW86470   7.703   2.741   1.184 -0.0784  0.1226 -0.4950
24804SOL    HW186471   7.727   2.838   1.193  0.3493  0.0415 -0.7378
24804SOL    HW286472   7.673   2.706   1.272  0.2070  0.3599 -0.3013
24805SOL     OW86473   2.518   7.260   9.965  0.3637 -0.2814 -0.4171
24805SOL    HW186474   2.525   7.305  10.054  1.2871 -1.0562 -0.0924
24805SOL    HW286475   2.447   7.190   9.969  0.6830 -0.5942 -0.1614
24806SOL     OW86476   7.696   5.605   1.425  0.0501 -0.4056  0.3117
24806SOL    HW186477   7.665   5.572   1.336 -0.0170 -0.0182  0.1917
24806SOL    HW286478   7.769   5.673   1.412 -0.0172 -0.2864  0.5495
24807SOL     OW86479   4.765   4.655   8.954  0.2534 -0.1357 -0.1635
24807SOL    HW186480   4.747   4.745   8.915  0.2491  0.1324  0.4560
24807SOL    HW286481   4.749   4.585   8.885  0.1441  0.3306 -0.6091
24808SOL     OW86482   2.637   7.731   8.888  0.2644  0.2445  0.1210
24808SOL    HW186483   2.615   7.796   8.962  2.0347 -0.2594  1.1052
24808SOL    HW286484   2.724   7.756   8.846  0.3259 -0.7516 -0.3613
24809SOL     OW86485   8.427   5.562   5.166  0.0341  0.1701  0.3725
24809SOL    HW186486   8.378   5.622   5.229  0.4020  1.1907 -0.2861
24809SOL    HW286487   8.474   5.490   5.217 -1.3721 -0.2505  1.0809
24810SOL     OW86488   3.344   6.315   3.378  0.2077 -0.0262 -0.1233
24810SOL    HW186489   3.442   6.331   3.393  0.4092 -1.5536  0.3690
24810SOL    HW286490   3.331   6.221   3.345 -1.1151  0.1264 -0.0639
24811SOL     OW86491   6.392   7.611   2.657 -0.3273  0.1986 -0.0408
24811SOL    HW186492   6.320   7.557   2.699 -1.6617  0.7934 -1.5187
24811SOL    HW286493   6.450   7.552   2.601 -0.3038 -0.0931  0.2883
24812SOL     OW86494   1.566   4.513   2.013 -0.2173 -0.1690 -0.6030
24812SOL    HW186495   1.651   4.561   1.992 -0.6025 -1.1294 -4.7518
24812SOL    HW286496   1.489   4.576   2.004 -0.2695 -0.2550 -0.7619
24813SOL     OW86497   7.267   5.598   4.464 -0.1009  0.2643  0.3838
24813SOL    HW186498   7.198   5.527   4.476  1.9463 -2.1421 -1.7398
24813SOL    HW286499   7.271   5.624   4.368  0.6642  1.7741  0.8067
24814SOL     OW86500   8.789   0.758   7.080  0.1462  0.0801  0.3068
24814SOL    HW186501   8.729   0.749   7.000  1.7418 -0.8389 -0.8301
24814SOL    HW286502   8.829   0.850   7.082 -0.3565  0.2973  0.3794
24815SOL     OW86503   7.439   4.969   6.338 -0.9399 -0.6667 -0.5450
24815SOL    HW186504   7.447   4.870   6.347  0.7182 -0.6481 -1.5715
24815SOL    HW286505   7.512   5.003   6.279 -2.6798  0.9254 -1.8623
24816SOL     OW86506   4.927   6.993   1.162 -0.0596 -0.0570  0.3768
24816SOL    HW186507   4.939   7.082   1.119  1.3921 -0.7196 -0.6051
24816SOL    HW286508   4.943   7.001   1.261 -0.8675  0.9444  0.4325
24817SOL     OW86509   6.610   7.998   1.254  0.3580 -0.2726  0.5635
24817SOL    HW186510   6.629   8.087   1.294  1.6364  0.0064 -0.6111
24817SOL    HW286511   6.532   8.005   1.192  0.6875  0.1444  0.1827
24818SOL     OW86512   4.719   6.065   2.168 -0.1122  0.6426  0.4199
24818SOL    HW186513   4.701   5.997   2.239  1.5937  1.1281  1.3471
24818SOL    HW286514   4.654   6.054   2.093  0.1928 -2.0739  0.5210
24819SOL     OW86515   8.316   3.301   9.201 -0.2312  0.3679 -0.3060
24819SOL    HW186516   8.253   3.242   9.152 -0.0551  0.0552 -0.1578
24819SOL    HW286517   8.291   3.303   9.298 -0.7374  1.1877 -0.4479
24820SOL     OW86518   5.303   6.078   7.575  0.1136  0.0621 -0.8247
24820SOL    HW186519   5.349   6.118   7.654  0.0895  1.5419 -1.5458
24820SOL    HW286520   5.370   6.031   7.518  0.3883  0.3695 -0.7558
24821SOL     OW86521   9.506   4.183   0.208  0.2523  0.2757  0.3711
24821SOL    HW186522   9.461   4.207   0.122  0.6733 -1.5173 -0.3809
24821SOL    HW286523   9.457   4.108   0.252  1.5404 -0.6183  0.3348
24822SOL     OW86524   4.933   5.425   6.356  0.5843  0.4529  0.6128
24822SOL    HW186525   4.995   5.348   6.343  0.3216  0.5139 -1.1640
24822SOL    HW286526   4.839   5.395   6.340  0.1286  0.3800  3.2065
24823SOL     OW86527   7.527   8.579   0.188 -0.0994 -0.1295 -0.1334
24823SOL    HW186528   7.435   8.561   0.221  0.1107 -1.6839 -0.3422
24823SOL    HW286529   7.574   8.492   0.170  0.5931  0.6502 -2.3017
24824SOL     OW86530   8.633   6.725   7.241 -0.5320  0.0621 -0.4296
24824SOL    HW186531   8.654   6.651   7.177 -3.3791 -0.0950 -1.2535
24824SOL    HW286532   8.538   6.718   7.271 -0.2494  2.1789  1.1097
24825SOL     OW86533   8.555   4.214   0.536 -0.3126 -0.3693  0.1001
24825SOL    HW186534   8.597   4.294   0.579 -2.7959  0.5971  0.8721
24825SOL    HW286535   8.605   4.131   0.561  2.1713  0.9153 -0.5510
24826SOL     OW86536   1.934   4.638   0.428  0.0357  0.3562  0.0460
24826SOL    HW186537   1.891   4.549   0.416  1.6443 -0.6441  1.4610
24826SOL    HW286538   1.945   4.683   0.340  0.1813 -1.3156 -0.7927
24827SOL     OW86539   9.339   4.847   6.832 -0.6663  0.6335 -0.2031
24827SOL    HW186540   9.347   4.928   6.891 -2.5997  0.9756 -0.3671
24827SOL    HW286541   9.265   4.789   6.865 -0.6769 -0.0093 -1.3280
24828SOL     OW86542   9.672   5.113   5.443 -0.3325 -0.0146  0.0483
24828SOL    HW186543   9.698   5.017   5.437  1.1382  0.4631 -2.0059
24828SOL    HW286544   9.602   5.133   5.374 -0.0651  0.5575 -0.0568
24829SOL     OW86545   7.729   9.656   9.612 -0.0752 -0.0195 -0.4480
24829SOL    HW186546   7.733   9.588   9.539  1.1521  0.0154 -0.4272
24829SOL    HW286547   7.711   9.611   9.699 -1.8194 -0.0340 -0.7882
24830SOL     OW86548   8.602   0.079   9.021 -0.0742  0.2229 -0.2472
24830SOL    HW186549   8.527   0.081   8.954 -0.5735 -0.0733  0.2989
24830SOL    HW286550   8.662   0.001   9.001 -1.0165 -0.7131  0.4950
24831SOL     OW86551   7.257   8.040   7.835  0.1098 -0.0971  0.4058
24831SOL    HW186552   7.230   7.945   7.822 -0.5353 -0.0634  1.4411
24831SOL    HW286553   7.209   8.078   7.914  1.7865  0.5325  1.1490
24832SOL     OW86554   1.037   3.927   3.407  0.1807  0.1070  0.4818
24832SOL    HW186555   1.088   4.013   3.406  0.0988  0.1616  0.9585
24832SOL    HW286556   1.100   3.851   3.414  0.2560  0.1238  0.0218
24833SOL     OW86557   7.136   1.831   3.486  0.0794 -0.4020  0.6320
24833SOL    HW186558   7.061   1.777   3.524 -0.6646 -0.7810 -1.2982
24833SOL    HW286559   7.105   1.925   3.471  0.3393 -0.2739  0.9027
24834SOL     OW86560   9.485   5.790   5.166  0.1990  0.2471 -0.3053
24834SOL    HW186561   9.520   5.823   5.253  1.4049  0.7197 -0.9560
24834SOL    HW286562   9.525   5.700   5.145 -1.9792 -1.0264  0.7800
24835SOL     OW86563   0.017   1.362   3.549  0.2737 -0.0106 -0.3933
24835SOL    HW186564   0.111   1.392   3.536 -0.3321  1.8543 -0.6114
24835SOL    HW286565  -0.040   1.440   3.576 -0.8869 -1.4345  1.3955
24836SOL     OW86566   9.573   7.024   0.776  0.1398  0.1051 -0.4784
24836SOL    HW186567   9.496   7.060   0.829  2.4041  2.1012  1.6069
24836SOL    HW286568   9.580   7.073   0.689 -0.2910  0.6813 -0.1900
24837SOL     OW86569   4.869   6.189   0.039  0.2026 -0.0871  0.0545
24837SOL    HW186570   4.863   6.113   0.104  0.8390 -1.1083 -1.0912
24837SOL    HW286571   4.913   6.267   0.084 -0.4729 -0.3734  1.2363
24838SOL     OW86572   7.950   5.653   3.701 -0.4939 -0.2917  0.4094
24838SOL    HW186573   7.962   5.718   3.625  1.4647  1.1625  1.9165
24838SOL    HW286574   7.897   5.696   3.774  1.2609 -0.1632  1.6396
24839SOL     OW86575   0.718   7.033   9.414 -0.1520 -0.0047  0.1781
24839SOL    HW186576   0.660   7.041   9.495  0.6152 -2.7459  1.0619
24839SOL    HW286577   0.782   7.109   9.411 -2.4144  1.9817  0.2761
24840SOL     OW86578   5.721   7.231   2.858  0.4701  0.0767 -0.4045
24840SOL    HW186579   5.626   7.263   2.867  0.3554 -0.4834  0.4078
24840SOL    HW286580   5.778   7.279   2.924  1.2964  2.4852 -2.7878
24841SOL     OW86581   0.930   6.927   0.508  0.1755 -0.3348  0.0187
24841SOL    HW186582   0.903   6.867   0.433  2.2993  0.5607 -1.5020
24841SOL    HW286583   1.029   6.922   0.522  0.1743  1.6210  0.9035
24842SOL     OW86584   7.712   2.414   0.064  0.0252 -0.4547  0.0131
24842SOL    HW186585   7.730   2.344   0.133 -0.1184  2.1997  2.8675
24842SOL    HW286586   7.618   2.445   0.072 -0.1170 -0.4233 -1.7028
24843SOL     OW86587   7.940   7.588   7.723 -0.5157  0.0000 -0.4074
24843SOL    HW186588   7.878   7.512   7.707  0.0222 -0.5081 -0.1010
24843SOL    HW286589   7.983   7.578   7.813 -1.3347  1.2893  0.1481
24844SOL     OW86590   0.895   6.792   9.114 -0.2921  0.2732 -0.2957
24844SOL    HW186591   0.819   6.817   9.175  0.4919  2.1833 -0.0885
24844SOL    HW286592   0.872   6.819   9.020  0.2342  1.0440 -0.1982
24845SOL     OW86593   4.060   6.233   8.415  0.1700  0.8610  0.2039
24845SOL    HW186594   3.963   6.210   8.407  0.6053 -1.8029  1.7359
24845SOL    HW286595   4.083   6.246   8.511  1.2841  1.6433 -0.1664
24846SOL     OW86596   4.990   8.401   0.127 -0.1302 -0.1834 -0.1347
24846SOL    HW186597   4.893   8.381   0.129 -0.2044  0.1233 -0.6631
24846SOL    HW286598   5.032   8.358   0.047  0.0591  0.1803 -0.2331
24847SOL     OW86599   4.327   9.680   2.742 -0.4491 -0.2187  0.0970
24847SOL    HW186600   4.336   9.707   2.838 -3.7119 -0.1084  0.4397
24847SOL    HW286601   4.350   9.758   2.683  0.9825 -0.1001  0.8009
24848SOL     OW86602   1.759   4.310   1.124  0.0061  0.6229 -0.1348
24848SOL    HW186603   1.679   4.295   1.066 -0.4476 -2.0680  1.0984
24848SOL    HW286604   1.755   4.403   1.163 -2.4757  0.5592 -0.1607
24849SOL     OW86605   7.361   1.857   3.648  0.4313  0.2737 -0.2645
24849SOL    HW186606   7.337   1.826   3.740  1.5620 -0.5525 -0.2432
24849SOL    HW286607   7.279   1.858   3.591 -0.0145 -0.5746  0.3596
24850SOL     OW86608   6.908   6.204   9.978  0.4205  0.0944  0.4033
24850SOL    HW186609   6.965   6.122   9.986  2.3197  1.1670 -1.6703
24850SOL    HW286610   6.950   6.268   9.915 -2.6961  1.3095 -0.5459
24851SOL     OW86611   6.577   8.714   3.984 -0.2070 -0.6239 -0.2937
24851SOL    HW186612   6.482   8.691   3.965 -0.3643 -0.5745  0.4036
24851SOL    HW286613   6.628   8.631   4.005 -0.2946 -0.5640  0.1651
24852SOL     OW86614   7.555   7.958   5.597  0.6239 -0.5482  0.1658
24852SOL    HW186615   7.534   7.882   5.536  0.1948  0.0851 -0.4722
24852SOL    HW286616   7.644   7.997   5.573 -1.0666  1.9419 -2.3389
24853SOL     OW86617   4.884   0.080   9.122 -0.7325  0.0534 -0.0681
24853SOL    HW186618   4.930   0.084   9.211 -1.7434  1.0869  0.4101
24853SOL    HW286619   4.931   0.013   9.064  1.4677  1.1652  0.3583
24854SOL     OW86620   9.624   9.576   9.235 -0.0578  0.1937  0.3986
24854SOL    HW186621   9.701   9.578   9.170 -0.6810 -0.2146 -0.3686
24854SOL    HW286622   9.569   9.495   9.217 -0.3768  0.2183  1.2869
24855SOL     OW86623   1.197   4.395   0.456 -0.4478  0.3715 -0.3324
24855SOL    HW186624   1.261   4.409   0.381  1.3045  0.2373  1.0998
24855SOL    HW286625   1.128   4.328   0.430 -0.6920  1.3538 -2.3009
24856SOL     OW86626   8.975   9.233   6.187  0.2107  0.1938 -0.1467
24856SOL    HW186627   8.954   9.138   6.165 -0.0880  0.1628  0.2725
24856SOL    HW286628   8.930   9.259   6.272  1.7981  0.1577  0.7198
24857SOL     OW86629   7.250   9.686   9.993 -0.1298 -0.1551  0.6142
24857SOL    HW186630   7.186   9.721  10.062 -2.1705 -0.1336 -1.2127
24857SOL    HW286631   7.295   9.763   9.948 -0.6465 -0.0566  0.2544
24858SOL     OW86632   2.506   9.882   2.031 -0.2978 -0.8280  0.5653
24858SOL    HW186633   2.550   9.884   2.121 -0.7515 -1.5541  0.8089
24858SOL    HW286634   2.415   9.921   2.038  0.5789  1.4352 -0.1097
24859SOL     OW86635   1.175   1.076   3.438  0.3984  0.1880 -0.6458
24859SOL    HW186636   1.215   1.134   3.367  1.0623  1.2115  0.5451
24859SOL    HW286637   1.247   1.038   3.496 -0.3011  2.2885  1.6949
24860SOL     OW86638   4.212   9.950   5.728 -0.3832  0.2851 -0.0186
24860SOL    HW186639   4.234   9.947   5.630  1.7122  0.7644  0.4119
24860SOL    HW286640   4.275  10.013   5.774 -0.5982 -0.8212  1.8236
24861SOL     OW86641   9.199   8.184   3.616  0.1485  0.1336  0.0373
24861SOL    HW186642   9.273   8.121   3.639 -0.1938 -0.2831  0.0218
24861SOL    HW286643   9.187   8.250   3.690 -1.1503 -1.3930  1.2451
24862SOL     OW86644   6.470   8.315   1.476 -0.6897  0.0233  0.3996
24862SOL    HW186645   6.392   8.256   1.454 -0.5255  0.2933 -0.9410
24862SOL    HW286646   6.555   8.271   1.445 -0.4549  0.4548  0.4305
24863SOL     OW86647   8.475   3.242   4.779  0.1520 -0.0550  0.1949
24863SOL    HW186648   8.528   3.206   4.701  1.9167 -1.0258  1.8117
24863SOL    HW286649   8.406   3.176   4.805  1.6021 -1.1079  1.4194
24864SOL     OW86650   4.359   0.144   9.915  0.0582  1.0015 -0.2597
24864SOL    HW186651   4.303   0.207   9.970 -2.0303 -0.0852 -1.1015
24864SOL    HW286652   4.299   0.084   9.862  2.0442 -0.5791 -0.7526
24865SOL     OW86653   4.616   6.549   5.601  0.6540 -0.6927 -0.1588
24865SOL    HW186654   4.544   6.617   5.584  0.1828 -1.3205 -0.6965
24865SOL    HW286655   4.705   6.593   5.593  0.3373  0.1082  0.5730
24866SOL     OW86656   7.576   7.790   6.263 -0.2704 -0.2826  0.4342
24866SOL    HW186657   7.502   7.851   6.234  0.2244  0.2641  0.3112
24866SOL    HW286658   7.656   7.806   6.207  0.1004 -0.5264  0.8912
24867SOL     OW86659   9.381   8.190   7.194  0.3575 -0.1262 -0.4645
24867SOL    HW186660   9.313   8.244   7.244 -1.3602 -0.6735 -2.1600
24867SOL    HW286661   9.346   8.097   7.180 -0.2924  0.6520 -4.7487
24868SOL     OW86662   1.606   5.692   1.291  0.5102  0.1356  0.3689
24868SOL    HW186663   1.512   5.687   1.322  0.3224  0.7086 -0.0984
24868SOL    HW286664   1.629   5.786   1.269  0.7543 -0.1941 -0.8481
24869SOL     OW86665   9.288   3.517   0.368  0.1309  0.3483 -0.6839
24869SOL    HW186666   9.332   3.428   0.355 -1.3920 -0.4195 -0.6812
24869SOL    HW286667   9.302   3.573   0.287 -0.0359 -0.3999 -1.2404
24870SOL     OW86668   5.344   4.672   7.293  0.4171 -0.2705 -0.2965
24870SOL    HW186669   5.428   4.620   7.309 -0.7878 -2.9839 -2.4592
24870SOL    HW286670   5.273   4.641   7.356 -0.2237 -1.1088 -1.4076
24871SOL     OW86671   1.817   1.731   2.442 -0.2634 -0.0497 -0.3063
24871SOL    HW186672   1.805   1.821   2.485 -0.7669  0.2749 -1.0920
24871SOL    HW286673   1.892   1.736   2.376  0.7535 -0.6469  0.8005
24872SOL     OW86674   4.302   0.597   6.376  0.1628  0.2191  1.1957
24872SOL    HW186675   4.301   0.517   6.316  0.1530  0.9705  0.1805
24872SOL    HW286676   4.396   0.630   6.385  0.3678 -0.6869  2.6984
24873SOL     OW86677   9.593   6.085   0.125 -0.0876 -0.5166 -0.0235
24873SOL    HW186678   9.629   5.992   0.117 -1.7174 -1.0503 -1.4722
24873SOL    HW286679   9.540   6.108   0.044 -1.1917  1.0323  1.0888
24874SOL     OW86680   4.307   8.829   8.711 -0.0160  0.4768 -0.6863
24874SOL    HW186681   4.331   8.908   8.655 -1.8884  0.9816 -0.8068
24874SOL    HW286682   4.208   8.826   8.724  0.1237 -1.3117  0.1281
24875SOL     OW86683   1.637   8.965   1.867 -0.4427  0.0967 -0.2173
24875SOL    HW186684   1.725   9.012   1.876 -1.0427  0.9293  1.5397
24875SOL    HW286685   1.616   8.917   1.952 -0.6402 -2.0186 -1.4001
24876SOL     OW86686   0.704   0.037   8.035  0.1409 -0.2415 -0.0317
24876SOL    HW186687   0.684  -0.060   8.022 -2.5764 -0.0146  2.0033
24876SOL    HW286688   0.641   0.075   8.102  0.5117  3.1934 -1.5354
24877SOL     OW86689   6.460   1.131   7.740 -0.3142  0.2218  0.3043
24877SOL    HW186690   6.489   1.145   7.645 -0.6036 -1.3999 -0.0365
24877SOL    HW286691   6.380   1.072   7.742  2.0888 -3.1596  1.7250
24878SOL     OW86692   8.974   8.053   7.653 -0.1559  0.8500 -0.0506
24878SOL    HW186693   8.938   8.140   7.685 -0.7018  1.1710 -1.5063
24878SOL    HW286694   9.046   8.069   7.586 -0.0381  0.1749 -0.0933
24879SOL     OW86695   3.562   0.748   1.961 -0.2047 -0.2350 -0.5192
24879SOL    HW186696   3.629   0.677   1.936  1.1209  1.3573 -1.5654
24879SOL    HW286697   3.554   0.752   2.060  1.7934  0.0118 -0.3434
24880SOL     OW86698   1.924   4.652   2.751  0.3213 -0.1989 -0.2072
24880SOL    HW186699   1.964   4.605   2.830  0.4716 -1.9372 -1.2753
24880SOL    HW286700   1.832   4.615   2.733  0.0242  0.6464 -0.4384
24881SOL     OW86701   9.959   1.864   8.315 -0.1392  0.0536 -0.5006
24881SOL    HW186702   9.943   1.955   8.352 -0.9207 -0.8807  1.5889
24881SOL    HW286703  10.035   1.866   8.251  2.7676  1.4292  2.8053
24882SOL     OW86704   7.154   9.233   5.513  0.1999 -0.6122 -0.1474
24882SOL    HW186705   7.153   9.312   5.452  0.2706 -0.6036 -0.1371
24882SOL    HW286706   7.060   9.211   5.540  0.2499  0.0309  0.5808
24883SOL     OW86707   9.535   7.424   2.041  0.0384 -0.4010 -0.0590
24883SOL    HW186708   9.581   7.399   2.126  0.3443  1.0972  0.2300
24883SOL    HW286709   9.597   7.412   1.964  0.9909  1.7319  0.3436
24884SOL     OW86710   6.023   9.428   2.801  0.2960  0.0033 -0.1317
24884SOL    HW186711   5.932   9.417   2.761 -0.8086  0.7633  2.0445
24884SOL    HW286712   6.076   9.492   2.747 -0.4641 -0.4376 -1.4225
24885SOL     OW86713   5.573   9.147   6.089  0.3692 -0.4582  0.0445
24885SOL    HW186714   5.543   9.062   6.132  1.1134 -0.8379 -0.1744
24885SOL    HW286715   5.574   9.134   5.989  0.2787 -0.1222  0.0009
24886SOL     OW86716   6.491   0.809   2.182  0.5888 -0.4601  0.4841
24886SOL    HW186717   6.561   0.765   2.239  1.7596 -3.9502 -3.4276
24886SOL    HW286718   6.534   0.875   2.121 -0.3943  1.7651  2.1410
24887SOL     OW86719   5.410   0.135   0.642 -0.0179 -0.1727 -0.2785
24887SOL    HW186720   5.415   0.130   0.742 -2.4716  2.4112  0.0345
24887SOL    HW286721   5.317   0.111   0.612  0.5763 -0.5055 -1.9127
24888SOL     OW86722   9.486   0.502   0.214  0.4885 -0.0307 -0.1916
24888SOL    HW186723   9.491   0.403   0.201 -0.8904 -0.1959  0.3995
24888SOL    HW286724   9.471   0.547   0.126  1.2595 -0.3410 -0.4808
24889SOL     OW86725   9.992   5.024   0.320  0.3999 -0.3348 -0.5092
24889SOL    HW186726   9.991   5.041   0.221  1.8190 -0.7864 -0.6146
24889SOL    HW286727   9.945   4.938   0.339 -1.7033  0.7793 -0.5640
24890SOL     OW86728   9.621   9.983   2.496  0.1884  0.4066  0.0704
24890SOL    HW186729   9.701   9.928   2.517 -0.0123  0.2061  0.3139
24890SOL    HW286730   9.545   9.955   2.556  0.2114  1.2261  0.4909
24891SOL     OW86731   1.162   8.456   0.275  0.2555 -0.5095 -0.4403
24891SOL    HW186732   1.139   8.405   0.357 -1.8787  2.2135  0.7596
24891SOL    HW286733   1.247   8.507   0.290 -0.4209  0.4141  0.3060
24892SOL     OW86734   8.104   8.133   5.247  0.4050 -0.0244 -0.5307
24892SOL    HW186735   8.046   8.155   5.169 -0.3476  1.1365  0.3483
24892SOL    HW286736   8.193   8.177   5.236  0.3363  0.0504 -0.7829
24893SOL     OW86737   6.508   0.708   6.767 -0.0831 -0.2566  0.4147
24893SOL    HW186738   6.547   0.782   6.712 -0.4541  0.2309  0.7923
24893SOL    HW286739   6.571   0.631   6.771  1.3721  0.9736  2.0015
24894SOL     OW86740   0.054   9.164   5.253 -0.8858  0.5990 -0.1084
24894SOL    HW186741   0.105   9.250   5.253  0.0528  0.0853 -2.6521
24894SOL    HW286742   0.052   9.126   5.345  1.0860  1.9366  0.5082
24895SOL     OW86743   9.824   5.663   3.429 -0.4394  0.1189  0.0864
24895SOL    HW186744   9.761   5.733   3.396 -0.1900 -0.1628 -1.0157
24895SOL    HW286745   9.890   5.703   3.493  0.9427  1.3203 -2.0397
24896SOL     OW86746   0.843   9.168   9.525 -0.0784  0.0664 -0.1193
24896SOL    HW186747   0.883   9.254   9.557  0.5509  0.0085 -0.7543
24896SOL    HW286748   0.815   9.177   9.429  0.6228 -0.6526 -0.3958
24897SOL     OW86749   8.006   8.576   4.740  0.1727  0.0180 -0.3164
24897SOL    HW186750   8.008   8.507   4.668  0.8785  0.1923 -0.4664
24897SOL    HW286751   8.058   8.656   4.711 -1.0823  0.8391 -0.3614
24898SOL     OW86752   8.782   3.748   4.469  0.0360  0.0867  0.3471
24898SOL    HW186753   8.808   3.764   4.374  1.1668 -2.0734  0.2531
24898SOL    HW286754   8.737   3.829   4.505  0.3696  1.2582 -1.7598
24899SOL     OW86755   6.400   9.430   4.070  0.5366 -0.4514  0.5301
24899SOL    HW186756   6.455   9.372   4.130  0.7832  1.1323  1.8518
24899SOL    HW286757   6.303   9.417   4.090  0.4363 -2.6174 -1.2266
24900SOL     OW86758   2.225   4.791   9.283 -0.6565  0.1744  0.0615
24900SOL    HW186759   2.187   4.782   9.374  0.1195  0.3447  0.4041
24900SOL    HW286760   2.263   4.704   9.253  0.8130  0.5842  0.6822
24901SOL     OW86761   5.592   4.912   1.911 -0.6777  0.0045 -0.8414
24901SOL    HW186762   5.493   4.911   1.923 -0.5484  0.8045  0.4452
24901SOL    HW286763   5.620   4.839   1.849 -1.9190 -1.2356  0.0480
24902SOL     OW86764   4.287   0.985   9.506 -0.6230 -0.2668 -0.0932
24902SOL    HW186765   4.266   0.958   9.412 -0.2176  1.8476 -0.8218
24902SOL    HW286766   4.335   0.911   9.552  0.2628 -0.8833 -1.9502
24903SOL     OW86767   0.628   2.786   9.361  0.1381 -0.6752 -0.2944
24903SOL    HW186768   0.533   2.754   9.358 -0.5843  1.3166  0.3825
24903SOL    HW286769   0.643   2.851   9.287  0.7438 -0.3468  0.1140
24904SOL     OW86770   5.684   5.513   1.434  0.0309 -0.1406 -0.0473
24904SOL    HW186771   5.647   5.594   1.389 -0.5287 -0.3946 -0.0467
24904SOL    HW286772   5.744   5.541   1.509 -0.1753  0.2749 -0.0386
24905SOL     OW86773   0.686   6.277   7.807 -0.8791  0.7673  0.1499
24905SOL    HW186774   0.733   6.191   7.787 -0.1660  1.0736  0.4940
24905SOL    HW286775   0.610   6.259   7.869 -0.9690  0.3275 -0.0834
24906SOL     OW86776   0.508   1.557   6.900 -0.3309  0.2395 -0.0674
24906SOL    HW186777   0.409   1.570   6.887 -0.6570  0.7102  2.6399
24906SOL    HW286778   0.526   1.465   6.934  0.1231  0.2752 -0.2073
24907SOL     OW86779   6.250   8.833   5.696 -0.8334  0.3574  0.2472
24907SOL    HW186780   6.244   8.865   5.601 -0.4218  0.7939  0.3660
24907SOL    HW286781   6.230   8.909   5.758 -1.1993  0.0475  0.5089
24908SOL     OW86782   6.427   0.289   3.856 -0.0384  0.3440  0.1514
24908SOL    HW186783   6.516   0.324   3.825  0.6412 -1.3468  0.1548
24908SOL    HW286784   6.383   0.241   3.780 -0.0964 -0.4706  0.6994
24909SOL     OW86785   9.499   2.927   5.906  0.5228 -0.1616 -0.3300
24909SOL    HW186786   9.423   2.876   5.948  0.6036  0.5690  0.7175
24909SOL    HW286787   9.463   2.986   5.834  0.2513 -0.7012 -0.6379
24910SOL     OW86788   7.167   8.636   1.168  0.2172  0.3074  0.5688
24910SOL    HW186789   7.209   8.546   1.159  0.6687  0.5257  0.5000
24910SOL    HW286790   7.141   8.652   1.263 -0.0567  0.0185  0.5426
24911SOL     OW86791   2.889   2.693   8.249 -0.3979 -0.4202  0.3222
24911SOL    HW186792   2.898   2.787   8.216 -1.1884  0.8946  3.5963
24911SOL    HW286793   2.980   2.651   8.256  0.2660  1.1667  1.6439
24912SOL     OW86794   1.938   7.535   2.646 -0.1203 -0.1097  0.2004
24912SOL    HW186795   1.948   7.437   2.629  0.6035 -0.2105  1.2255
24912SOL    HW286796   1.949   7.554   2.743 -1.5498  0.8262  0.1985
24913SOL     OW86797   7.009   2.977   7.725  0.3084 -0.3085  0.1121
24913SOL    HW186798   6.976   3.070   7.736 -0.0978 -0.3763 -0.4666
24913SOL    HW286799   7.108   2.977   7.714  0.3268  0.0410  0.2976
24914SOL     OW86800   1.679   7.383   1.321  0.3036 -0.2380 -0.4998
24914SOL    HW186801   1.601   7.340   1.278  1.2996 -1.9030 -0.6797
24914SOL    HW286802   1.685   7.355   1.417 -1.8254  3.3376  0.7769
24915SOL     OW86803   9.821   6.012   2.539  0.0730 -0.3464 -0.3262
24915SOL    HW186804   9.895   5.979   2.480 -1.0381 -0.0270 -1.9340
24915SOL    HW286805   9.762   6.074   2.487 -0.9161 -0.0305  1.1391
24916SOL     OW86806   7.561   8.794   9.040 -0.5416  0.1903  0.3660
24916SOL    HW186807   7.599   8.742   9.116  0.3933 -0.9758 -0.8834
24916SOL    HW286808   7.537   8.732   8.966 -2.4987  1.1916  0.1284
24917SOL     OW86809   8.805   9.220   5.278 -0.3627 -0.2257  0.6606
24917SOL    HW186810   8.751   9.138   5.297 -0.5567 -0.1319  0.5029
24917SOL    HW286811   8.760   9.299   5.319  0.0110 -0.2509  1.1219
24918SOL     OW86812   3.590   2.178   7.638  0.2655  0.0320  0.4918
24918SOL    HW186813   3.518   2.204   7.702  0.2888  0.6408  0.2783
24918SOL    HW286814   3.680   2.197   7.679  0.2688  1.4877 -0.1401
24919SOL     OW86815   7.478   9.432   1.583  0.2688 -0.3421  0.1040
24919SOL    HW186816   7.513   9.342   1.610 -0.5293 -1.0422 -1.1336
24919SOL    HW286817   7.431   9.424   1.495 -3.1178  0.4859  1.7232
24920SOL     OW86818   1.821   6.572   1.416  0.0858  0.3143 -0.7649
24920SOL    HW186819   1.810   6.531   1.506  1.0264  1.1568 -0.2546
24920SOL    HW286820   1.753   6.534   1.353 -0.0914 -0.8335  0.1010
24921SOL     OW86821   4.722   2.144   2.056 -0.6727  0.6042  0.0331
24921SOL    HW186822   4.633   2.186   2.067 -0.2164  1.8903 -1.0553
24921SOL    HW286823   4.759   2.118   2.145 -2.0311  0.2662  0.4996
24922SOL     OW86824   8.749   0.950   5.493 -0.1948  0.1778 -0.2280
24922SOL    HW186825   8.652   0.939   5.474 -0.2729  2.1526 -1.0828
24922SOL    HW286826   8.801   0.940   5.408  0.2841 -0.2404  0.1137
24923SOL     OW86827   2.943   4.130   0.270 -0.0852 -0.0732 -0.3289
24923SOL    HW186828   2.858   4.111   0.221  0.0281 -1.0801 -0.1342
24923SOL    HW286829   2.927   4.201   0.338 -1.0112 -0.9576  0.3892
24924SOL     OW86830   3.911   8.348   0.547 -0.1146  0.0184  0.0451
24924SOL    HW186831   3.847   8.389   0.612 -0.2473  0.7392 -0.5264
24924SOL    HW286832   3.861   8.316   0.467  0.2356  0.5621 -0.3935
24925SOL     OW86833   2.791   0.358   3.857  0.0526  0.0170 -0.0806
24925SOL    HW186834   2.727   0.333   3.784  0.3811  0.1394 -0.4092
24925SOL    HW286835   2.741   0.403   3.931 -0.3391 -0.4382 -0.0626
24926SOL     OW86836   6.142   1.594   2.284 -0.3676 -0.4112  0.0244
24926SOL    HW186837   6.062   1.654   2.287 -0.6160 -0.5851 -2.5715
24926SOL    HW286838   6.221   1.647   2.252  0.4394 -0.4239  1.8866
24927SOL     OW86839   8.688   9.182   3.312 -0.0068  0.0825 -0.5570
24927SOL    HW186840   8.637   9.099   3.289 -0.9874  0.7247 -0.7206
24927SOL    HW286841   8.633   9.262   3.290  0.1421  0.7519  1.4709
24928SOL     OW86842   4.421   8.467   9.979 -0.4606 -0.6545 -0.0713
24928SOL    HW186843   4.418   8.369  10.002  1.5576 -0.0159  3.3136
24928SOL    HW286844   4.516   8.494   9.965 -1.1386  0.5149 -2.5583
24929SOL     OW86845   3.124   8.795   9.426 -0.1185 -0.2332 -0.0142
24929SOL    HW186846   3.034   8.791   9.383  1.0947  0.6409 -2.8001
24929SOL    HW286847   3.137   8.715   9.485 -2.7420 -0.2836  0.5441
24930SOL     OW86848   4.754   7.791   4.675  0.3391  0.2171 -0.2010
24930SOL    HW186849   4.732   7.798   4.577  0.1782  1.2128 -0.0927
24930SOL    HW286850   4.688   7.730   4.719 -0.6957  1.2092 -0.3621
24931SOL     OW86851   8.824   1.172   0.451  0.3269  0.1568  0.0480
24931SOL    HW186852   8.790   1.091   0.499 -1.8675  1.1495  0.2231
24931SOL    HW286853   8.832   1.248   0.516  0.8844  0.5133 -0.4295
24932SOL     OW86854   0.046   6.140   8.907 -0.0051  0.0249  0.1681
24932SOL    HW186855   0.066   6.053   8.953  0.9683  0.4671  0.5954
24932SOL    HW286856  -0.044   6.172   8.935  0.7595  0.5185  2.1541
24933SOL     OW86857   4.427   9.898   2.593  0.3265  0.5771  0.2312
24933SOL    HW186858   4.340   9.925   2.635  1.1522  1.5579  1.3492
24933SOL    HW286859   4.425   9.923   2.496 -0.9878 -0.2466  0.0316
24934SOL     OW86860   8.125   2.911   3.431  0.3482 -0.2933 -0.3965
24934SOL    HW186861   8.142   2.988   3.370  1.5061 -0.0743  0.1953
24934SOL    HW286862   8.132   2.941   3.526 -0.1650 -0.9133 -0.1567
24935SOL     OW86863   6.635   0.031   4.300 -0.1864  0.0190  0.5326
24935SOL    HW186864   6.723   0.051   4.343  1.0067 -3.3199 -0.1922
24935SOL    HW286865   6.595   0.115   4.263  2.4373  1.6458  1.3128
24936SOL     OW86866   1.156   9.388   9.895 -0.0948  0.1174  0.2012
24936SOL    HW186867   1.251   9.409   9.921  0.0236  0.0634 -0.1872
24936SOL    HW286868   1.117   9.465   9.845 -0.3997  0.3110  0.7381
24937SOL     OW86869   0.683   5.196   2.682 -0.2440  0.0889  0.3049
24937SOL    HW186870   0.734   5.122   2.638 -2.1878 -1.6638  0.8612
24937SOL    HW286871   0.615   5.232   2.619  0.8125  1.5346 -0.0157
24938SOL     OW86872   1.643   1.156   9.058 -0.4890  0.5522 -1.1193
24938SOL    HW186873   1.617   1.159   9.154  2.7790 -0.8671 -0.1235
24938SOL    HW286874   1.571   1.108   9.006 -1.4591 -0.2635  0.9085
24939SOL     OW86875   5.984   8.165   2.155 -0.2614 -0.2648 -0.2010
24939SOL    HW186876   5.889   8.140   2.139 -0.3383  0.9335 -1.7022
24939SOL    HW286877   5.991   8.213   2.243 -1.3931  1.4717 -1.0436
24940SOL     OW86878   1.627   0.220   0.990 -0.8973  0.2692 -0.0383
24940SOL    HW186879   1.715   0.206   0.945  0.7243  3.5891  1.8991
24940SOL    HW286880   1.555   0.179   0.935  1.5824 -0.4478 -2.9038
24941SOL     OW86881   6.628   8.756   0.440  0.3607 -0.1254 -0.1946
24941SOL    HW186882   6.683   8.725   0.519  1.0708  2.8139  0.5365
24941SOL    HW286883   6.653   8.703   0.360  0.7994 -2.0935  1.2022
24942SOL     OW86884   2.212   4.418   7.903 -0.3905  0.4501  0.3136
24942SOL    HW186885   2.304   4.389   7.928 -0.0622  0.9726 -0.2747
24942SOL    HW286886   2.184   4.493   7.962 -0.8547 -0.3969  1.1840
24943SOL     OW86887   7.814   7.023   2.415 -0.3389 -0.7318 -0.3404
24943SOL    HW186888   7.751   7.094   2.382  0.7684 -0.5123 -2.0500
24943SOL    HW286889   7.901   7.031   2.367  0.6343 -1.7369  1.2053
24944SOL     OW86890   1.915   6.145   0.807 -0.9037 -0.3401 -0.1494
24944SOL    HW186891   1.823   6.104   0.801 -1.4176  0.7515  0.1900
24944SOL    HW286892   1.958   6.143   0.717 -1.3336 -0.6833 -0.3522
24945SOL     OW86893   5.699   2.951   2.838 -0.5607 -0.0253  0.6732
24945SOL    HW186894   5.632   3.018   2.870 -0.7703  0.5649 -0.9571
24945SOL    HW286895   5.679   2.926   2.743  1.2714 -0.1877  0.3071
24946SOL     OW86896   6.188   8.474   8.838 -0.6971 -0.0019 -0.5462
24946SOL    HW186897   6.178   8.528   8.922 -1.7447  0.3574 -0.8865
24946SOL    HW286898   6.172   8.377   8.859  1.5368 -0.2396  0.1298
24947SOL     OW86899   8.975   5.668   6.950 -0.3810  0.0916 -0.0326
24947SOL    HW186900   8.886   5.629   6.925  0.2934 -0.5298 -1.4756
24947SOL    HW286901   9.020   5.608   7.016 -0.5469 -0.1658 -0.1521
24948SOL     OW86902   6.871   9.384   2.569 -0.0822  0.5951  0.2488
24948SOL    HW186903   6.952   9.368   2.513 -1.1329 -1.5506 -0.6982
24948SOL    HW286904   6.806   9.440   2.519 -0.2279  0.2570  0.0628
24949SOL     OW86905   6.474   7.649   0.563  0.3265  0.7722  0.2332
24949SOL    HW186906   6.537   7.597   0.621 -0.0269 -2.5150 -2.2163
24949SOL    HW286907   6.380   7.632   0.593  0.3543  2.9958  1.7327
24950SOL     OW86908   4.749   2.376   9.798 -0.5720  0.0511 -0.0583
24950SOL    HW186909   4.687   2.405   9.725  1.1555 -0.8872 -1.9475
24950SOL    HW286910   4.843   2.403   9.775  0.0436 -0.5058  1.7030
24951SOL     OW86911   1.121   4.778   3.992  0.8044  0.2980 -0.7172
24951SOL    HW186912   1.108   4.771   3.893  2.1248 -1.2682 -0.8095
24951SOL    HW286913   1.055   4.841   4.030 -1.0016 -0.5612 -2.3500
24952SOL     OW86914   8.249   3.267   5.563 -0.7425  0.4546 -0.2060
24952SOL    HW186915   8.154   3.290   5.580 -0.5268  1.2112  0.0001
24952SOL    HW286916   8.305   3.350   5.564  0.1263 -0.1199  1.0484
24953SOL     OW86917   0.010   7.022   4.567  0.1296  0.5134  0.0337
24953SOL    HW186918  -0.078   6.991   4.601 -0.0149 -0.2994 -1.0693
24953SOL    HW286919   0.080   7.007   4.637 -0.4033  0.1428  0.4899
24954SOL     OW86920   6.764   6.031   2.417  0.4269 -0.3141 -0.0057
24954SOL    HW186921   6.726   6.109   2.466  1.6865 -0.2842  0.9685
24954SOL    HW286922   6.702   5.953   2.425 -0.6408  0.4522 -0.6400
24955SOL     OW86923   8.848   8.731   8.490 -0.1441 -0.0315  0.4849
24955SOL    HW186924   8.897   8.684   8.416  0.4871 -1.3413  1.7053
24955SOL    HW286925   8.911   8.791   8.539  0.2127 -1.5196  1.8926
24956SOL     OW86926   7.868   8.507   0.272  0.0173  0.2863 -0.0366
24956SOL    HW186927   7.807   8.429   0.260 -0.8742  0.9053  0.3531
24956SOL    HW286928   7.828   8.588   0.229 -0.4608  1.1824  1.9937
24957SOL     OW86929   6.485   9.472   4.445 -0.6703  0.0762  0.1648
24957SOL    HW186930   6.422   9.540   4.482  0.6354  1.4675 -0.0862
24957SOL    HW286931   6.578   9.510   4.444 -0.0859 -1.3198 -0.9977
24958SOL     OW86932   1.660   6.098   2.552 -0.2764  0.1209  0.1978
24958SOL    HW186933   1.723   6.023   2.573 -1.6418 -0.8842  0.7591
24958SOL    HW286934   1.713   6.181   2.533  1.2491 -0.9099 -0.1878
24959SOL     OW86935   4.521   7.540   7.653 -0.5723  0.1843  0.3097
24959SOL    HW186936   4.485   7.450   7.629 -2.9757  0.8814  1.1791
24959SOL    HW286937   4.527   7.548   7.753  1.0869  0.4347  0.1927
24960SOL     OW86938   8.841   8.434   0.133 -0.2142  0.2162 -0.5717
24960SOL    HW186939   8.934   8.440   0.167  0.7975 -4.6660 -2.1491
24960SOL    HW286940   8.778   8.426   0.210  1.0427 -0.3584  0.4136
24961SOL     OW86941   5.481   7.966   9.889  0.2887 -0.2350  0.1540
24961SOL    HW186942   5.392   8.000   9.918  0.1215 -0.1231 -0.4922
24961SOL    HW286943   5.472   7.872   9.854  0.5899 -0.5960  1.0245
24962SOL     OW86944   7.482   9.291   3.307 -0.0521 -0.2389  0.4642
24962SOL    HW186945   7.550   9.260   3.374 -0.6005  0.0982  1.1769
24962SOL    HW286946   7.439   9.375   3.340 -0.8574 -0.4816  0.0300
24963SOL     OW86947   6.751   0.556   8.797 -0.5839  0.3059  0.0184
24963SOL    HW186948   6.745   0.579   8.700  2.2178 -0.5652 -0.4025
24963SOL    HW286949   6.728   0.460   8.810  2.3675 -0.5050 -0.3150
24964SOL     OW86950   0.906   4.038   0.978 -0.5025  0.1409 -0.5283
24964SOL    HW186951   0.982   4.001   0.924  0.4895  0.5682  0.5455
24964SOL    HW286952   0.821   3.993   0.950  0.1659 -0.4924 -1.6115
24965SOL     OW86953   7.631   0.973   0.341 -0.0244 -0.4560  0.4952
24965SOL    HW186954   7.557   0.911   0.365  0.5474 -1.8584 -1.1821
24965SOL    HW286955   7.597   1.044   0.279 -0.0437 -0.9748 -0.1037
24966SOL     OW86956   6.973   2.214   2.017 -0.2344 -0.8828 -0.0203
24966SOL    HW186957   6.922   2.164   1.947 -0.0284  0.1063 -0.8923
24966SOL    HW286958   7.048   2.263   1.974 -0.0640 -0.3182  0.9138
24967SOL     OW86959   5.848   1.122   2.207 -1.0853 -0.2568  0.0197
24967SOL    HW186960   5.816   1.203   2.159  0.2580  0.4564  0.3032
24967SOL    HW286961   5.801   1.116   2.295 -1.4731  0.0052 -0.1667
24968SOL     OW86962   4.783   1.928   1.268 -0.0190 -0.4299  0.2141
24968SOL    HW186963   4.825   1.990   1.334 -0.6703  0.2597 -0.0097
24968SOL    HW286964   4.776   1.837   1.308  1.0601 -0.3923  0.4988
24969SOL     OW86965   9.422   2.380   9.404  0.0282  0.0422 -0.5678
24969SOL    HW186966   9.449   2.380   9.308  0.0707  0.2833 -0.5555
24969SOL    HW286967   9.479   2.317   9.455  0.5614  0.5398 -0.5462
24970SOL     OW86968   8.137   1.419   0.343 -0.1463 -0.1587  0.0172
24970SOL    HW186969   8.084   1.378   0.418 -1.4197 -2.3287 -2.0058
24970SOL    HW286970   8.090   1.403   0.256  0.7993  3.1806 -1.1838
24971SOL     OW86971   6.503   4.537   1.196 -0.4322 -0.0118 -0.4668
24971SOL    HW186972   6.419   4.540   1.142  0.1325  1.2840 -1.2959
24971SOL    HW286973   6.578   4.578   1.144  0.0397  1.5622  1.4002
24972SOL     OW86974   9.042   6.092   0.122  0.0676  0.3396  0.6242
24972SOL    HW186975   9.046   5.994   0.143 -3.1166  0.3550  1.5204
24972SOL    HW286976   9.045   6.144   0.208  2.2175  1.0712  0.1263
24973SOL     OW86977   4.257   7.715   8.863 -0.1409  0.0792  0.3776
24973SOL    HW186978   4.260   7.662   8.778  2.2782  0.9284 -0.1096
24973SOL    HW286979   4.183   7.782   8.857  1.1622  1.3814 -1.8703
24974SOL     OW86980   9.735   9.060   8.695 -0.0150 -0.2995 -0.3575
24974SOL    HW186981   9.653   9.012   8.726 -1.6490  1.8378 -1.2603
24974SOL    HW286982   9.809   9.045   8.761 -1.9537  0.0285  1.9769
24975SOL     OW86983   6.583   6.956   1.553  0.7811 -0.3054  0.4588
24975SOL    HW186984   6.576   7.041   1.605 -0.5704 -0.1839  0.0979
24975SOL    HW286985   6.569   6.976   1.456 -2.0376 -1.2636  0.6173
24976SOL     OW86986   6.435   5.336   1.464  0.3163  0.4012 -0.0349
24976SOL    HW186987   6.418   5.329   1.562 -1.8167  0.8536 -0.3491
24976SOL    HW286988   6.407   5.426   1.432 -0.0677 -0.1465 -1.2659
24977SOL     OW86989   3.973   7.673   2.613  0.0942 -0.0090 -0.0367
24977SOL    HW186990   4.018   7.680   2.702 -1.8516 -1.7496  1.1330
24977SOL    HW286991   3.928   7.584   2.605 -0.2430  0.3440 -2.5404
24978SOL     OW86992   9.450   6.224   8.682 -0.7355  0.0131  0.0581
24978SOL    HW186993   9.387   6.267   8.617 -1.4594  0.0084  0.7494
24978SOL    HW286994   9.534   6.278   8.687 -0.0977 -0.7536 -1.9197
24979SOL     OW86995   1.511   0.250   1.688 -0.1036 -0.7358  0.4520
24979SOL    HW186996   1.601   0.232   1.728 -0.5906 -0.2448  1.7995
24979SOL    HW286997   1.490   0.179   1.621  0.6260 -1.7330  1.2520
24980SOL     OW86998   7.097   9.429   0.350 -0.0983 -0.0230 -0.1617
24980SOL    HW186999   7.061   9.382   0.270  0.0217 -1.1581  0.4319
24980SOL    HW287000   7.186   9.469   0.328 -0.0211 -0.4150 -0.5638
24981SOL     OW87001   7.692   0.819   6.363  0.2513 -0.2574 -0.1064
24981SOL    HW187002   7.666   0.722   6.360 -0.6063 -0.0325 -0.0509
24981SOL    HW287003   7.705   0.847   6.458  0.9943 -0.4428 -0.1489
24982SOL     OW87004   8.282   6.142   5.209 -0.4983 -0.3316  0.0641
24982SOL    HW187005   8.309   6.210   5.141  0.3708 -0.2101  0.5355
24982SOL    HW287006   8.182   6.134   5.208 -0.6979  1.6580  0.6664
24983SOL     OW87007   9.190   1.011   0.659  0.3521  0.1364  0.8906
24983SOL    HW187008   9.231   0.932   0.704 -0.2832 -0.3053  0.7035
24983SOL    HW287009   9.262   1.075   0.632  0.9298 -0.6722  0.4774
24984SOL     OW87010   6.931   8.575   1.611  0.1163 -0.1137  0.5438
24984SOL    HW187011   6.840   8.534   1.606  0.8421 -1.7111  0.1057
24984SOL    HW287012   6.985   8.529   1.682  0.6017  0.8234  0.8037
24985SOL     OW87013   0.097   7.540   0.237  0.3725 -0.3664  0.1977
24985SOL    HW187014  -0.002   7.545   0.253  0.7413  3.1078  1.7583
24985SOL    HW287015   0.116   7.553   0.140 -0.7325 -2.3973 -0.3277
24986SOL     OW87016   4.082   7.906   9.603  0.1329  0.1560 -0.1692
24986SOL    HW187017   4.150   7.847   9.561 -0.8136  0.5876 -2.3634
24986SOL    HW287018   4.032   7.854   9.673  0.3281 -1.1976 -1.0129
24987SOL     OW87019   8.077   4.865   2.116 -0.5170 -0.2418  0.1723
24987SOL    HW187020   8.143   4.811   2.168  1.3672  0.0959 -1.7863
24987SOL    HW287021   8.062   4.953   2.161 -2.2771 -1.6697  2.4568
24988SOL     OW87022   0.556   0.110   1.671 -0.0325  0.6847  0.2882
24988SOL    HW187023   0.605   0.152   1.748  1.5755 -0.6414  0.0190
24988SOL    HW287024   0.469   0.073   1.703  0.4650  0.4608  1.4112
24989SOL     OW87025   0.165   7.897   2.460 -0.1642  0.2890 -0.0037
24989SOL    HW187026   0.190   7.976   2.404  1.5400 -0.8195 -0.8467
24989SOL    HW287027   0.248   7.858   2.501 -0.6726 -2.4928 -1.5454
24990SOL     OW87028   7.563   6.141   9.861  0.2103  0.1112 -0.3495
24990SOL    HW187029   7.468   6.110   9.858 -0.0457  0.8912 -0.3953
24990SOL    HW287030   7.587   6.184   9.774  0.6283 -0.1514 -0.3648
24991SOL     OW87031   7.923   8.956   5.010 -0.3967 -0.0051  0.1262
24991SOL    HW187032   7.862   9.014   5.064 -0.3520  0.2107 -0.0557
24991SOL    HW287033   7.890   8.862   5.012 -1.3900  0.3000 -0.9015
24992SOL     OW87034   9.131   9.472   2.506 -0.4009 -0.0565 -0.3360
24992SOL    HW187035   9.072   9.524   2.445 -0.2178  0.2599 -0.2471
24992SOL    HW287036   9.210   9.528   2.531 -0.1832 -0.3910 -0.2685
24993SOL     OW87037   4.165   2.915   5.816  0.3181 -0.4816 -0.0920
24993SOL    HW187038   4.120   2.833   5.851 -0.8020 -0.5166 -1.5690
24993SOL    HW287039   4.238   2.889   5.754  0.7892 -0.3802  0.4184
24994SOL     OW87040   0.283   1.660   2.650  0.3746 -0.0195  0.0044
24994SOL    HW187041   0.190   1.628   2.632  0.5762 -0.1687 -0.8105
24994SOL    HW287042   0.339   1.583   2.681  0.2530  0.0469  0.3865
24995SOL     OW87043   0.481   1.927   5.509  0.3229  0.2289  0.5841
24995SOL    HW187044   0.408   1.922   5.441  0.8631 -0.5370  0.0523
24995SOL    HW287045   0.446   1.970   5.592 -0.8576 -0.4989  0.4748
24996SOL     OW87046   1.838   7.595   8.510 -0.1152 -0.3419  0.3934
24996SOL    HW187047   1.924   7.543   8.512 -0.4860 -0.9969 -0.7165
24996SOL    HW287048   1.787   7.577   8.594 -0.8108 -2.7619 -0.4902
24997SOL     OW87049   7.415   7.795   1.884  0.1883  0.4884  0.2067
24997SOL    HW187050   7.429   7.878   1.938  1.0473 -0.0223  0.7885
24997SOL    HW287051   7.502   7.765   1.845  0.2081 -1.0276  1.3409
24998SOL     OW87052   1.689   0.609   1.799  0.5351  0.3732 -0.5073
24998SOL    HW187053   1.640   0.554   1.866  1.7573  1.8809  1.6873
24998SOL    HW287054   1.768   0.557   1.765 -0.1223 -0.4198 -0.8386
24999SOL     OW87055   9.652   8.077   9.515 -0.3112  0.4816 -0.0654
24999SOL    HW187056   9.672   8.158   9.570 -1.4145 -0.0509  1.1587
24999SOL    HW287057   9.723   8.008   9.530 -1.5157 -0.3376  2.0983
25000SOL     OW87058   9.863   4.452   4.178 -0.3293 -0.0666  0.1819
25000SOL    HW187059   9.958   4.425   4.167 -0.3957 -1.2139  2.1736
25000SOL    HW287060   9.803   4.373   4.166 -0.8870  0.2378  0.8553
25001SOL     OW87061   9.591   1.933   4.933 -0.5220  0.1828  0.3916
25001SOL    HW187062   9.643   2.017   4.918 -0.0840  0.0177  0.9670
25001SOL    HW287063   9.579   1.885   4.846 -0.1404  0.4772  0.1746
25002SOL     OW87064   8.278   1.622   6.667 -0.3236 -0.5824 -0.2548
25002SOL    HW187065   8.296   1.525   6.657  0.3184 -0.7217  2.0924
25002SOL    HW287066   8.325   1.657   6.748  0.1985  1.8775 -1.5731
25003SOL     OW87067   0.222   6.056   2.585 -0.1915  0.3019 -0.1402
25003SOL    HW187068   0.163   6.092   2.513  1.3348  0.4225 -1.3496
25003SOL    HW287069   0.199   5.960   2.602  0.6968 -0.2861 -2.1358
25004SOL     OW87070   6.481   5.882   6.321 -0.3343  0.3345  0.1402
25004SOL    HW187071   6.434   5.881   6.410 -1.9956  0.2988 -0.7206
25004SOL    HW287072   6.429   5.938   6.257 -0.0048 -0.9437 -1.2710
25005SOL     OW87073   9.816   8.070   3.797 -0.0379 -0.5423  0.4178
25005SOL    HW187074   9.738   8.132   3.799 -0.7742 -1.4889  3.2285
25005SOL    HW287075   9.784   7.975   3.792  1.0502 -0.8137 -2.6487
25006SOL     OW87076   8.718   4.911   3.710 -0.3711  0.3316  0.2944
25006SOL    HW187077   8.768   4.825   3.724 -0.4140  0.4803  1.4070
25006SOL    HW287078   8.674   4.909   3.621  0.1312 -0.5534  0.0519
25007SOL     OW87079   6.915   9.466   2.826 -0.2680 -0.2908 -0.3055
25007SOL    HW187080   6.858   9.461   2.744  0.0586  0.8962 -0.6039
25007SOL    HW287081   7.000   9.416   2.810 -0.4306 -0.5112 -0.4953
25008SOL     OW87082   2.869   9.931   7.334 -0.3736  0.0191  0.2621
25008SOL    HW187083   2.871   9.870   7.255  0.9128 -0.2929  0.5369
25008SOL    HW287084   2.859   9.877   7.417  3.4459 -0.0505  0.7365
25009SOL     OW87085   3.037   9.676   1.835  0.3324 -0.0628  0.8052
25009SOL    HW187086   2.992   9.661   1.923  0.1692 -0.6479  0.6211
25009SOL    HW287087   3.037   9.592   1.782 -0.4026  0.5256 -0.1471
25010SOL     OW87088   0.438   6.314   4.303  0.1552  0.3898 -0.2924
25010SOL    HW187089   0.383   6.235   4.328 -0.2523  0.9727  0.7091
25010SOL    HW287090   0.507   6.288   4.235 -0.0423 -0.7901 -0.0438
25011SOL     OW87091   0.673   0.026   9.017 -0.4048  0.5875  0.2838
25011SOL    HW187092   0.753   0.086   9.018  0.8262 -1.0083  0.7412
25011SOL    HW287093   0.683  -0.040   8.943 -1.2053  0.2531  0.4719
25012SOL     OW87094   2.001   7.348   5.791 -0.0338  0.4510 -0.7611
25012SOL    HW187095   1.968   7.438   5.763 -0.6548  0.8049  1.0643
25012SOL    HW287096   1.967   7.327   5.882  2.3444 -0.4641 -0.0492
25013SOL     OW87097   9.107   7.794   2.827 -0.2038  0.1080  0.1335
25013SOL    HW187098   9.040   7.805   2.754  0.7427  2.8466 -0.3729
25013SOL    HW287099   9.063   7.805   2.915 -0.8764 -0.6582 -0.0992
25014SOL     OW87100   0.751   4.119   3.812 -0.2613 -0.5452  0.2317
25014SOL    HW187101   0.811   4.102   3.734 -2.7062 -1.8841 -1.4419
25014SOL    HW287102   0.756   4.042   3.875 -0.6483 -0.9377 -0.2105
25015SOL     OW87103   2.166   8.041   1.339  0.1001  0.8725 -0.4206
25015SOL    HW187104   2.125   7.996   1.260  1.0510 -0.5269 -0.1513
25015SOL    HW287105   2.097   8.093   1.388 -1.1104 -0.5511 -0.5820
25016SOL     OW87106   1.371   1.107   8.872 -0.6483 -0.1817 -0.1558
25016SOL    HW187107   1.295   1.044   8.886 -0.3400 -0.2256  1.4344
25016SOL    HW287108   1.448   1.057   8.831 -0.7299 -0.6344  0.2349
25017SOL     OW87109   0.045   0.284   2.320 -0.5946  0.4811 -0.4141
25017SOL    HW187110   0.048   0.186   2.338 -0.8938  0.5093 -0.2138
25017SOL    HW287111   0.034   0.299   2.221  0.2647  0.3231 -0.5322
25018SOL     OW87112   0.921   9.345   6.311 -0.0175  0.4263  0.2081
25018SOL    HW187113   1.004   9.330   6.365  0.0064  0.3285  0.1443
25018SOL    HW287114   0.867   9.418   6.353 -2.3905 -2.8468  3.1394
25019SOL     OW87115   5.339   7.345   3.672 -0.2066  0.0004 -0.1506
25019SOL    HW187116   5.331   7.273   3.603 -0.2289 -0.4101  0.2863
25019SOL    HW287117   5.432   7.346   3.710 -0.2682  0.0621  0.0001
25020SOL     OW87118   7.988   8.078   2.128 -0.3171 -0.0535 -0.5862
25020SOL    HW187119   8.060   8.016   2.097 -0.0124 -1.1741  2.2438
25020SOL    HW287120   7.899   8.035   2.114 -0.1501 -0.8046  0.5916
25021SOL     OW87121   6.654   7.521   5.894 -0.1902 -0.0881  0.1320
25021SOL    HW187122   6.723   7.500   5.825  0.6867  1.4331  0.5155
25021SOL    HW287123   6.611   7.437   5.926  1.5386 -1.0574 -0.0574
25022SOL     OW87124   7.802   7.814   2.458  0.1796 -0.0527  0.1145
25022SOL    HW187125   7.786   7.781   2.365  0.9491 -0.1765  0.0228
25022SOL    HW287126   7.820   7.913   2.455 -0.3429  0.0419  0.1887
25023SOL     OW87127   9.789   1.114   4.077 -0.1761  0.5996 -0.1056
25023SOL    HW187128   9.795   1.121   3.977 -0.7485 -1.1171 -0.2901
25023SOL    HW287129   9.745   1.196   4.114 -0.4394  1.0174 -1.3148
25024SOL     OW87130   9.702   6.345   4.544  0.0124 -0.5941  0.4801
25024SOL    HW187131   9.792   6.310   4.570  0.9541 -0.8801 -2.9612
25024SOL    HW287132   9.713   6.435   4.501 -1.3201 -0.6534  0.0116
25025SOL     OW87133   6.103   6.141   2.056  0.2767 -0.4708 -0.2517
25025SOL    HW187134   6.170   6.070   2.033  1.0984  0.3452 -0.3991
25025SOL    HW287135   6.061   6.175   1.972  0.3695 -0.3184 -0.2377
25026SOL     OW87136   7.906   8.673   9.957  0.1419  0.6939 -0.3132
25026SOL    HW187137   7.991   8.622   9.974 -0.2699  0.0263 -0.2357
25026SOL    HW287138   7.869   8.705  10.044  0.9219  1.9799 -0.4505
25027SOL     OW87139   8.170   4.681   4.388 -0.2831 -0.1959 -0.1285
25027SOL    HW187140   8.102   4.719   4.325  1.6990  1.4272 -1.3539
25027SOL    HW287141   8.192   4.749   4.458 -0.6608 -1.1038  0.8979
25028SOL     OW87142   8.987   7.699   6.489 -0.2358 -0.2324 -0.0646
25028SOL    HW187143   9.077   7.670   6.455 -0.0154 -0.9054  1.0857
25028SOL    HW287144   8.922   7.625   6.474 -0.7689  0.5067 -1.5166
25029SOL     OW87145   1.763   6.730   5.078 -0.2523 -0.5644 -0.1841
25029SOL    HW187146   1.793   6.712   5.172  0.9911 -0.9706 -0.6598
25029SOL    HW287147   1.698   6.807   5.079  0.4073 -0.0006  0.9091
25030SOL     OW87148   1.183   0.357   4.588  0.4741 -0.3398 -0.0769
25030SOL    HW187149   1.250   0.422   4.623 -1.7415  1.8291  0.2695
25030SOL    HW287150   1.111   0.406   4.539 -0.7593 -2.6229 -0.6141
25031SOL     OW87151   2.429   8.788   1.805 -0.2061 -0.3019  0.1448
25031SOL    HW187152   2.365   8.847   1.755 -0.6353 -0.9140 -0.0231
25031SOL    HW287153   2.470   8.840   1.880 -0.8530  0.1093  0.2196
25032SOL     OW87154   6.193   6.166   5.557  0.2457  0.4114  0.1031
25032SOL    HW187155   6.102   6.142   5.523 -0.0210  1.0323  0.3656
25032SOL    HW287156   6.190   6.173   5.657  0.7350 -0.2011  0.1635
25033SOL     OW87157   3.154   5.405   3.118 -1.0189 -0.4099  0.3998
25033SOL    HW187158   3.200   5.429   3.033 -1.3881  0.0581  0.3322
25033SOL    HW287159   3.211   5.431   3.196 -1.0438 -0.0940  0.3124
25034SOL     OW87160   1.501   3.180   8.663  0.2511  0.2542  0.2967
25034SOL    HW187161   1.509   3.262   8.607  0.5584  0.5373  0.7447
25034SOL    HW287162   1.526   3.203   8.757  1.0704 -0.5166  0.2739
25035SOL     OW87163   5.565   0.036   8.815  0.4212  0.3178  0.3687
25035SOL    HW187164   5.604   0.074   8.899 -0.5567  0.5596  0.7305
25035SOL    HW287165   5.562  -0.064   8.822 -0.4163  0.3787  0.9774
25036SOL     OW87166   6.671   9.402   5.331  0.5637  0.1332  0.3660
25036SOL    HW187167   6.691   9.443   5.241  2.4033 -3.4071 -0.9255
25036SOL    HW287168   6.746   9.425   5.394  0.9407 -0.1232  0.0191
25037SOL     OW87169   8.854   0.307   1.539  0.2249  0.1892 -0.0423
25037SOL    HW187170   8.808   0.340   1.457 -0.8053  0.5335  0.6596
25037SOL    HW287171   8.807   0.342   1.620  2.5858  1.7142  0.7234
25038SOL     OW87172   6.700   1.704   3.252 -0.1195  0.2167  0.2835
25038SOL    HW187173   6.631   1.631   3.252 -0.9981  1.0182 -1.0004
25038SOL    HW287174   6.761   1.693   3.173  1.1713 -0.4239  1.3521
25039SOL     OW87175   2.128   0.515   8.641 -0.2965 -0.5022  0.3945
25039SOL    HW187176   2.095   0.457   8.567  0.5838  0.1340 -0.5146
25039SOL    HW287177   2.067   0.593   8.653 -1.4639 -1.5659  1.5967
25040SOL     OW87178   7.632   1.010   5.868 -0.4856 -0.1984 -0.1216
25040SOL    HW187179   7.602   1.104   5.884  1.9448  0.5638  0.2048
25040SOL    HW287180   7.665   0.971   5.953 -0.8785 -1.1182 -0.3924
25041SOL     OW87181   7.212   4.859   1.502 -0.0744 -0.5326 -0.1454
25041SOL    HW187182   7.162   4.843   1.587  1.3227 -0.2353  0.7549
25041SOL    HW287183   7.302   4.814   1.507  0.7349  0.9770 -0.7390
25042SOL     OW87184   1.671   2.501   2.656  0.1060 -0.4280  0.1900
25042SOL    HW187185   1.575   2.517   2.678 -0.3277 -2.7752  0.0548
25042SOL    HW287186   1.701   2.415   2.696  1.6398 -0.6586 -1.3901
25043SOL     OW87187   8.388   8.072   5.648 -0.0886  0.0570  0.5643
25043SOL    HW187188   8.406   8.165   5.617  1.1182 -0.0698  0.8734
25043SOL    HW287189   8.300   8.042   5.613  0.1322  0.8144 -0.6536
25044SOL     OW87190   9.087   3.903   2.122 -0.1239  0.4475  0.7237
25044SOL    HW187191   9.072   3.859   2.034 -2.1821  1.5161  0.5035
25044SOL    HW287192   9.019   3.975   2.135  2.3674  2.7211  1.6136
25045SOL     OW87193   2.096   6.386   3.599  0.1251  0.4182  0.5241
25045SOL    HW187194   2.095   6.439   3.683 -0.6001  0.7674  0.2992
25045SOL    HW287195   2.029   6.311   3.605 -1.3999  1.6573 -0.5000
25046SOL     OW87196   4.849   4.920   1.719 -0.3658  0.3439  0.3261
25046SOL    HW187197   4.892   5.002   1.683 -1.0486 -0.0536 -1.4267
25046SOL    HW287198   4.880   4.840   1.668 -1.7305 -0.1656  0.2551
25047SOL     OW87199   6.707   5.435   9.729 -0.7207  0.5567 -0.9564
25047SOL    HW187200   6.730   5.521   9.684  0.1831  0.6637 -0.3223
25047SOL    HW287201   6.650   5.453   9.809  1.0258  0.7862  0.2882
25048SOL     OW87202   8.072   8.225   1.886 -0.8857  0.3600 -0.5166
25048SOL    HW187203   8.042   8.234   1.981 -2.7061 -0.3275 -1.0092
25048SOL    HW287204   8.154   8.167   1.882 -1.3996 -0.4431  0.5153
25049SOL     OW87205   7.791   6.581   5.335  0.4121 -0.2523 -0.1794
25049SOL    HW187206   7.841   6.651   5.286  0.9713 -0.6708 -0.2080
25049SOL    HW287207   7.763   6.615   5.425 -2.6269  1.3443 -1.6394
25050SOL     OW87208   9.514   1.141   1.802  0.0385  0.5675 -0.8195
25050SOL    HW187209   9.454   1.081   1.855 -0.4742  2.4001  0.7303
25050SOL    HW287210   9.580   1.085   1.750  0.4521 -1.3037  1.6068
25051SOL     OW87211   6.515   6.959   0.217 -0.3733 -0.0253  0.1079
25051SOL    HW187212   6.497   6.860   0.216  1.7838 -0.4458  1.0064
25051SOL    HW287213   6.500   6.996   0.126 -1.1328 -1.1964 -0.2556
25052SOL     OW87214   5.441   9.406   8.490  0.3604 -0.0324  0.0901
25052SOL    HW187215   5.521   9.346   8.490 -0.7592 -1.5626  1.3092
25052SOL    HW287216   5.467   9.495   8.527  1.2616 -0.8809  1.5632
25053SOL     OW87217   9.628   9.071   3.918 -0.3713  0.3899  0.8171
25053SOL    HW187218   9.631   9.001   3.990 -0.1369 -1.2191 -0.7037
25053SOL    HW287219   9.533   9.088   3.892 -0.3519 -0.5855  0.0666
25054SOL     OW87220   9.134   6.415   5.830 -0.2908  0.4700  0.3830
25054SOL    HW187221   9.223   6.424   5.785 -0.7070  0.1208 -0.5261
25054SOL    HW287222   9.066   6.470   5.782 -0.2689  1.8480  1.9209
25055SOL     OW87223   2.685   7.084   2.386  0.2612  0.3268  0.1189
25055SOL    HW187224   2.712   7.178   2.363 -0.7486  0.2206 -1.6464
25055SOL    HW287225   2.626   7.086   2.467 -0.5326  1.3379 -0.4584
25056SOL     OW87226   2.804   9.190   9.519  0.7282  0.7899  0.4170
25056SOL    HW187227   2.784   9.166   9.614  2.2437 -0.4910  0.4286
25056SOL    HW287228   2.789   9.111   9.460  1.6537  1.0201 -0.1470
25057SOL     OW87229   0.136   6.369   0.712  0.1735 -0.2085  0.2736
25057SOL    HW187230   0.162   6.437   0.644 -1.4586  0.3580  0.1864
25057SOL    HW287231   0.147   6.408   0.804  0.1714 -0.1681  0.2570
25058SOL     OW87232   1.291   6.397   4.420 -0.1797 -0.0701  0.1124
25058SOL    HW187233   1.322   6.351   4.337 -0.8832 -0.6917  0.1886
25058SOL    HW287234   1.201   6.362   4.445 -1.1184  1.9981 -0.3260
25059SOL     OW87235   3.886   0.628   1.600 -0.4783  0.1159  0.0877
25059SOL    HW187236   3.822   0.687   1.649 -0.3787  0.9950 -0.8307
25059SOL    HW287237   3.979   0.662   1.612 -0.4259  0.1924 -0.5006
25060SOL     OW87238   0.328   0.117   3.191 -0.7149  0.6151  0.0345
25060SOL    HW187239   0.261   0.170   3.243 -1.0764  1.4887 -1.3174
25060SOL    HW287240   0.418   0.159   3.199 -0.3712 -0.3241  1.5009
25061SOL     OW87241   8.873   2.953   3.676 -0.0014 -0.0106 -0.0344
25061SOL    HW187242   8.893   2.868   3.628  1.4889  0.6402 -0.5641
25061SOL    HW287243   8.784   2.945   3.721  0.6582 -2.2881  0.9229
25062SOL     OW87244   6.998   6.303   4.385 -0.2521 -0.5977 -0.1824
25062SOL    HW187245   6.936   6.375   4.355  1.3572  1.4686  1.2978
25062SOL    HW287246   7.092   6.334   4.375  0.4991 -2.7742 -0.1498
25063SOL     OW87247   2.232   6.062   0.651  0.5693  0.2905  0.1354
25063SOL    HW187248   2.299   6.061   0.725  0.8100 -2.4554 -0.0430
25063SOL    HW287249   2.158   5.998   0.672 -0.9818  1.7959 -0.5961
25064SOL     OW87250   8.735   4.758   3.147  0.1829  0.6063  0.1354
25064SOL    HW187251   8.670   4.742   3.221  0.9025  1.2153  0.9029
25064SOL    HW287252   8.805   4.823   3.176  2.0404 -1.2098 -0.1398
25065SOL     OW87253   1.020   0.264   5.051 -0.3702  0.2826 -0.1224
25065SOL    HW187254   1.016   0.237   5.147 -1.7500 -0.6748 -0.4392
25065SOL    HW287255   1.111   0.243   5.014 -0.0211  0.1383  0.8024
25066SOL     OW87256   6.543   3.273   4.749  0.2576 -0.4379  0.0690
25066SOL    HW187257   6.596   3.225   4.679 -2.9308  0.1522 -2.9031
25066SOL    HW287258   6.584   3.363   4.766  2.3540 -1.4790  0.6774
25067SOL     OW87259   7.637   9.457   3.045  0.0590  0.2148  0.0658
25067SOL    HW187260   7.701   9.382   3.060  1.2679  1.0054 -1.0941
25067SOL    HW287261   7.625   9.473   2.947  0.3378  1.9716  0.2978
25068SOL     OW87262   6.405   8.750   7.002 -0.3054  0.0449  0.4716
25068SOL    HW187263   6.455   8.693   6.938  1.0233  0.0640  1.4651
25068SOL    HW287264   6.461   8.828   7.028 -0.1726 -0.7938  2.8632
25069SOL     OW87265   7.885   0.915   6.213 -0.5352  0.2166 -0.4931
25069SOL    HW187266   7.862   0.905   6.116 -1.0256  0.0193 -0.3564
25069SOL    HW287267   7.814   0.874   6.269 -0.1522  0.1476 -0.0488
25070SOL     OW87268   2.658   9.094   2.618  0.0762 -0.7397 -0.1391
25070SOL    HW187269   2.729   9.103   2.687 -0.5559 -1.2954  0.5878
25070SOL    HW287270   2.580   9.044   2.656 -1.3477  1.1663 -0.4221
25071SOL     OW87271   0.785   1.098   0.143  0.0099 -0.1738 -0.0600
25071SOL    HW187272   0.798   1.129   0.049  2.0241  0.2565  0.3387
25071SOL    HW287273   0.767   1.000   0.144  0.5895 -0.2940 -0.8723
25072SOL     OW87274   2.272   8.910   0.914  0.9306 -0.2445 -0.2116
25072SOL    HW187275   2.246   8.833   0.855 -1.8364  0.8375 -0.5052
25072SOL    HW287276   2.307   8.984   0.857 -3.1751  1.3792 -0.7701
25073SOL     OW87277   8.502   4.290   4.384  0.1996 -0.1449 -0.1469
25073SOL    HW187278   8.544   4.318   4.298  0.1003  0.0292 -0.1394
25073SOL    HW287279   8.563   4.314   4.460  0.6812 -1.0728 -0.2244
25074SOL     OW87280   6.302   0.540   3.630 -0.5312 -0.1107 -0.2056
25074SOL    HW187281   6.288   0.607   3.703  0.6986 -0.0302 -0.0385
25074SOL    HW287282   6.213   0.507   3.598 -1.1300  1.1703  0.1081
25075SOL     OW87283   6.522   4.965   4.792  0.2961 -0.0431  0.1151
25075SOL    HW187284   6.435   5.014   4.795  1.0048  1.2183  0.6094
25075SOL    HW287285   6.506   4.869   4.771 -1.4603 -0.3850  2.7876
25076SOL     OW87286   7.313   6.486   3.316 -0.1646  0.3508 -0.2714
25076SOL    HW187287   7.267   6.505   3.230  1.7771 -0.1441 -1.4566
25076SOL    HW287288   7.379   6.412   3.303 -1.7965 -1.6551  2.3273
25077SOL     OW87289   9.863   7.353   4.942  0.2372  0.5935  0.1288
25077SOL    HW187290   9.783   7.298   4.915  0.5885  0.6316 -0.9973
25077SOL    HW287291   9.843   7.401   5.027 -0.7689  0.2172  0.1100
25078SOL     OW87292   7.918   8.100   2.428 -1.2847 -0.2271 -0.4518
25078SOL    HW187293   7.845   8.167   2.443 -0.1597  1.0135 -0.5269
25078SOL    HW287294   7.954   8.109   2.336 -0.9197 -0.7413 -0.3615
25079SOL     OW87295   9.383   5.986   3.096  0.3337  1.2172 -0.5075
25079SOL    HW187296   9.323   5.980   3.176  1.3488  0.5860  0.2155
25079SOL    HW287297   9.426   6.077   3.093 -0.8401  1.7558 -1.1641
25080SOL     OW87298   7.148   8.420   4.050 -0.3244  0.5927  0.2258
25080SOL    HW187299   7.151   8.420   4.150  0.3097  1.3931  0.2129
25080SOL    HW287300   7.239   8.397   4.015 -0.4138  0.8549 -0.1698
25081SOL     OW87301   2.801   7.050   3.144  0.2174 -0.0778 -0.1228
25081SOL    HW187302   2.897   7.035   3.171  0.3758 -0.3207 -0.8171
25081SOL    HW287303   2.757   6.962   3.126  0.1455  0.0845 -0.7636
25082SOL     OW87304   0.306   4.868   7.583 -0.3848  0.4397  0.0372
25082SOL    HW187305   0.296   4.778   7.541  0.7642 -0.6217  1.9348
25082SOL    HW287306   0.319   4.937   7.512  0.8586 -1.1868 -1.3676
25083SOL     OW87307   6.173   0.243   2.055 -0.2621 -0.1098  0.3873
25083SOL    HW187308   6.264   0.281   2.038 -1.4375  2.4424 -0.4874
25083SOL    HW287309   6.140   0.275   2.144 -0.0288 -1.6225  1.0298
25084SOL     OW87310   0.885   0.692   6.566  0.6814  0.6182  0.0907
25084SOL    HW187311   0.950   0.662   6.636  0.8575  0.6497 -0.0603
25084SOL    HW287312   0.804   0.732   6.611  1.3553  1.8178  0.2525
25085SOL     OW87313   3.793   6.595   3.940  0.3518 -0.0884  0.0099
25085SOL    HW187314   3.715   6.622   3.884  0.7964 -0.5024 -0.8258
25085SOL    HW287315   3.761   6.569   4.031 -0.5206 -0.5443 -0.4189
25086SOL     OW87316   0.863   5.667   6.836 -0.4634  0.2984 -0.1608
25086SOL    HW187317   0.831   5.723   6.912  0.9657  0.2160  0.5019
25086SOL    HW287318   0.798   5.592   6.820 -1.7825  1.4510 -0.3127
25087SOL     OW87319   1.966   6.586   4.948 -0.0123 -0.7829  0.0354
25087SOL    HW187320   1.927   6.498   4.975  0.0392 -0.8594 -0.1348
25087SOL    HW287321   1.899   6.659   4.964  0.2135 -0.7585  0.8592
25088SOL     OW87322   1.197   8.316   3.410 -0.6535 -0.2730  0.0296
25088SOL    HW187323   1.232   8.242   3.468 -0.7456  2.0778  3.2434
25088SOL    HW287324   1.099   8.328   3.428 -0.2414  1.8222  0.9654
25089SOL     OW87325   5.145   5.930   3.542  0.1012  0.3289 -0.0429
25089SOL    HW187326   5.200   5.995   3.594  0.4413  0.6944 -0.8503
25089SOL    HW287327   5.157   5.947   3.444  1.2128 -1.8088 -0.3030
25090SOL     OW87328   0.050   3.921   3.011  0.4779  0.2917 -0.0759
25090SOL    HW187329   0.013   3.874   3.091 -0.8087  0.7071 -0.4080
25090SOL    HW287330   0.118   3.862   2.966 -0.7574 -1.0810 -0.2163
25091SOL     OW87331   8.239   7.349   6.846 -0.1156 -0.4385  0.0831
25091SOL    HW187332   8.168   7.387   6.788  0.4523  0.2058 -0.1973
25091SOL    HW287333   8.287   7.423   6.893  0.8697 -0.8051 -0.3218
25092SOL     OW87334   8.559   6.655   5.319  0.0427  0.2241  0.1093
25092SOL    HW187335   8.566   6.726   5.249  1.5365  1.9394  1.9182
25092SOL    HW287336   8.640   6.597   5.315 -0.4965 -0.4888 -0.4399
25093SOL     OW87337   2.871   8.762   0.126  0.1874 -0.2528  0.2692
25093SOL    HW187338   2.787   8.794   0.082  0.7709 -1.3273 -1.7019
25093SOL    HW287339   2.939   8.835   0.125 -1.2429  1.2397  3.4802
25094SOL     OW87340   1.565   2.584   5.319  0.1500  0.1909 -0.0932
25094SOL    HW187341   1.481   2.564   5.269  0.4189 -0.7477 -0.1782
25094SOL    HW287342   1.544   2.595   5.416  0.0300 -0.7413 -0.0144
25095SOL     OW87343   1.534   9.648   5.611  0.0431  0.1645 -0.0248
25095SOL    HW187344   1.463   9.617   5.675 -0.1929 -1.1988 -0.9393
25095SOL    HW287345   1.498   9.648   5.518  0.9812  0.3065 -0.3964
25096SOL     OW87346   6.853   8.981   6.676  0.0536  0.2900 -0.2600
25096SOL    HW187347   6.945   9.019   6.686  0.5460 -1.4479  2.0760
25096SOL    HW287348   6.849   8.891   6.720 -2.4697 -0.1473 -1.3097
25097SOL     OW87349   0.269   6.979   4.318  0.9828  0.4156  0.2683
25097SOL    HW187350   0.235   7.013   4.231 -0.2527 -0.5731  0.3445
25097SOL    HW287351   0.273   7.053   4.384 -0.4708  0.6703  0.0809
25098SOL     OW87352   9.191   6.250   5.386 -0.0801 -0.0970  0.1169
25098SOL    HW187353   9.156   6.344   5.380 -2.2442 -0.7860  1.4998
25098SOL    HW287354   9.114   6.186   5.385  1.3448 -1.8317 -0.1259
25099SOL     OW87355   0.090   7.894   6.456  0.0867 -0.0787 -0.3284
25099SOL    HW187356   0.006   7.850   6.422  0.5572 -0.1160 -1.4644
25099SOL    HW287357   0.083   7.993   6.444  0.5483 -0.1477 -1.2259
25100SOL     OW87358   6.945   2.523   2.867  0.1244 -0.1287  0.3376
25100SOL    HW187359   6.933   2.618   2.894 -1.1731 -0.5939  1.4363
25100SOL    HW287360   6.885   2.503   2.789 -0.8691 -0.4912  1.1850
25101SOL     OW87361   2.285   2.207   8.042 -0.3868 -0.0875 -0.1683
25101SOL    HW187362   2.281   2.157   7.956 -1.0077 -1.4529  0.6335
25101SOL    HW287363   2.215   2.171   8.105  0.2164  0.7210  0.9844
25102SOL     OW87364   7.680   1.427   2.993  0.5378  0.4039 -0.3883
25102SOL    HW187365   7.588   1.426   3.031 -0.1712 -0.7315 -2.0330
25102SOL    HW287366   7.715   1.333   2.989  1.1722  0.6633 -1.1048
25103SOL     OW87367   7.444   5.289   5.752  0.3893  0.3174  0.1803
25103SOL    HW187368   7.465   5.380   5.786  1.5253 -0.9258  2.9595
25103SOL    HW287369   7.515   5.260   5.687  2.0098  0.0028  2.0641
25104SOL     OW87370   8.311   6.525   6.029 -0.0335  0.0093 -0.0649
25104SOL    HW187371   8.261   6.607   6.058  1.7900  0.7944  0.9558
25104SOL    HW287372   8.276   6.446   6.078 -1.0523  0.3599 -0.2195
25105SOL     OW87373   4.035   3.558   3.140  0.3491 -0.4197  0.1134
25105SOL    HW187374   4.110   3.565   3.074 -0.6865 -0.7057 -1.1210
25105SOL    HW287375   3.989   3.647   3.148  2.0282  0.2781  2.3528
25106SOL     OW87376   8.737   6.637   2.569 -1.0715 -0.3022  0.0491
25106SOL    HW187377   8.770   6.728   2.545  0.2057 -0.6440  0.4917
25106SOL    HW287378   8.739   6.626   2.668  0.3474 -1.3899 -0.0863
25107SOL     OW87379   6.009   8.150   3.329 -0.3540 -0.1054  0.1298
25107SOL    HW187380   6.103   8.116   3.323 -0.2700  0.2915 -0.9439
25107SOL    HW287381   5.983   8.160   3.425  0.5825 -0.5472  0.4337
25108SOL     OW87382   1.911   2.352   1.976 -0.0816 -0.2874 -0.1288
25108SOL    HW187383   1.941   2.341   1.882  0.1285 -1.5274  0.0759
25108SOL    HW287384   1.826   2.300   1.990  0.2176 -0.6073  0.5180
25109SOL     OW87385   5.591   4.652   4.785 -0.0191  0.4270 -0.4190
25109SOL    HW187386   5.572   4.576   4.848  3.4172  0.8446  1.2354
25109SOL    HW287387   5.554   4.629   4.695  0.4655 -3.0289  0.1563
25110SOL     OW87388   6.031   5.644   9.940 -0.1158  0.2695  0.0769
25110SOL    HW187389   6.027   5.583  10.019  0.7634 -0.5435 -0.4873
25110SOL    HW287390   6.024   5.739   9.970  0.9327  0.0077  1.1981
25111SOL     OW87391   8.735   8.469   2.527  0.1461  0.0948  0.0949
25111SOL    HW187392   8.660   8.533   2.540  1.3525  1.7332 -0.8577
25111SOL    HW287393   8.723   8.419   2.441 -0.2080 -0.1544  0.2886
25112SOL     OW87394   7.334   9.229   3.082 -0.0916 -0.5335 -0.0733
25112SOL    HW187395   7.377   9.267   3.163 -1.6134 -1.5028  1.2181
25112SOL    HW287396   7.404   9.197   3.018  1.1239  0.8970  0.5212
25113SOL     OW87397   3.337   1.820   6.145  0.3972 -0.1246 -0.3719
25113SOL    HW187398   3.387   1.906   6.133 -2.4044  1.5581 -0.6929
25113SOL    HW287399   3.381   1.748   6.091  2.4178  1.2601 -0.6445
25114SOL     OW87400   9.840   7.832   5.764 -0.4134 -0.1748  0.0263
25114SOL    HW187401   9.939   7.847   5.765 -0.3994 -0.2829  0.7589
25114SOL    HW287402   9.820   7.742   5.724 -0.0782 -1.0122  1.6819
25115SOL     OW87403   7.357   2.926   5.296 -0.5713 -0.0402  0.6558
25115SOL    HW187404   7.337   2.957   5.204 -0.2164 -1.4915  0.0655
25115SOL    HW287405   7.314   2.986   5.363 -2.4522 -0.1067 -0.4861
25116SOL     OW87406   8.858   1.956   4.581  0.2548 -0.1454  0.0946
25116SOL    HW187407   8.948   1.933   4.543  0.0494 -1.0460  0.1507
25116SOL    HW287408   8.866   2.040   4.635  1.2238 -0.6143  0.7105
25117SOL     OW87409   0.504   3.004   6.728  0.0261 -0.3202  0.5063
25117SOL    HW187410   0.553   3.089   6.711  0.1332 -0.3798  0.5128
25117SOL    HW287411   0.471   2.966   6.641  0.8741 -0.8041  0.3864
25118SOL     OW87412   9.290   6.697   5.873 -0.1176 -0.3482 -0.0572
25118SOL    HW187413   9.376   6.744   5.850 -1.2735  1.8939  0.0447
25118SOL    HW287414   9.308   6.628   5.943  1.7689 -0.5873 -0.7321
25119SOL     OW87415   1.518   2.030   4.603  0.1311  0.0905  0.0587
25119SOL    HW187416   1.616   2.046   4.608  0.1351 -0.3457  1.9183
25119SOL    HW287417   1.473   2.111   4.564  1.4026 -0.5394 -2.8270
25120SOL     OW87418   9.095   2.757   5.544  0.0468 -0.4200 -0.2470
25120SOL    HW187419   8.998   2.778   5.556  0.1358 -0.2096  0.1309
25120SOL    HW287420   9.127   2.703   5.622  0.5683  0.7010  0.3258
25121SOL     OW87421   5.315   0.042   5.651  0.1261 -0.4457  0.1039
25121SOL    HW187422   5.330   0.070   5.746 -1.1308 -1.9386  0.7495
25121SOL    HW287423   5.403   0.030   5.605  0.8025 -2.1573  1.8060
25122SOL     OW87424   0.186   5.322   2.189  0.2552  0.0756  0.1075
25122SOL    HW187425   0.276   5.343   2.229  1.1151 -2.0386 -0.6505
25122SOL    HW287426   0.178   5.368   2.101  0.3786  0.6593  0.3935
25123SOL     OW87427   9.081   8.226   4.324 -0.3836  0.1229 -0.3122
25123SOL    HW187428   9.114   8.157   4.389  0.1735 -1.1373 -1.9080
25123SOL    HW287429   9.123   8.314   4.346 -0.1948 -0.2809  1.0225
25124SOL     OW87430   9.809   5.362   3.032  0.0280 -0.0343 -0.7583
25124SOL    HW187431   9.825   5.269   3.067  2.7743 -0.6272 -3.3751
25124SOL    HW287432   9.848   5.428   3.096  0.1124 -0.8114  0.0110
25125SOL     OW87433   6.423   9.543   9.904 -0.0133  0.1251 -0.0239
25125SOL    HW187434   6.521   9.533   9.884 -0.1152  2.0547 -1.7564
25125SOL    HW287435   6.409   9.620   9.966 -0.3962 -0.3865  0.5225
25126SOL     OW87436   6.790   5.243   8.294  0.4367 -0.6985 -0.0143
25126SOL    HW187437   6.719   5.278   8.355 -0.6415 -2.4735 -0.2465
25126SOL    HW287438   6.865   5.206   8.348  1.4663  1.6221  0.2357
25127SOL     OW87439   3.251   4.093   5.944  0.4688  0.0603 -0.1067
25127SOL    HW187440   3.224   4.014   5.888 -1.7752  1.7956 -1.5395
25127SOL    HW287441   3.184   4.107   6.016  1.7719 -0.3330  1.2033
25128SOL     OW87442   6.721   7.183   2.479 -0.0067  0.6472 -0.0356
25128SOL    HW187443   6.668   7.219   2.402 -0.6510 -1.0088 -0.4058
25128SOL    HW287444   6.674   7.103   2.516 -0.4001  2.2103  2.9700
25129SOL     OW87445   5.963   5.180   6.147  0.2413  0.4506  0.0074
25129SOL    HW187446   5.987   5.228   6.231  0.3721 -1.1516  0.9238
25129SOL    HW287447   6.043   5.177   6.086  0.2157  1.4008 -0.0800
25130SOL     OW87448   1.084   6.936   7.796 -0.3596  0.4734  0.0045
25130SOL    HW187449   1.165   6.991   7.813  0.9349 -1.5336  0.4956
25130SOL    HW287450   1.053   6.895   7.881 -0.3815 -0.8015 -0.6028
25131SOL     OW87451   9.373   5.108   3.691  0.4817  0.3972 -0.6381
25131SOL    HW187452   9.319   5.190   3.707 -0.4662 -0.0134 -1.7148
25131SOL    HW287453   9.316   5.027   3.702  0.8267 -0.0358 -1.9137
25132SOL     OW87454   1.708   7.177   2.743  0.4812 -0.5431  0.1639
25132SOL    HW187455   1.696   7.199   2.646 -0.2741  1.1937  0.6122
25132SOL    HW287456   1.746   7.086   2.753  0.7808 -0.6461 -1.7768
25133SOL     OW87457   6.256   9.789   8.564  0.0930  0.1051  0.6466
25133SOL    HW187458   6.180   9.754   8.509 -0.7778  1.2248  1.1193
25133SOL    HW287459   6.223   9.863   8.623  1.3028 -0.2073  1.7164
25134SOL     OW87460   1.508   8.675   6.116  0.0340 -0.5431  0.4834
25134SOL    HW187461   1.476   8.769   6.108  1.3599  0.0484  1.8271
25134SOL    HW287462   1.436   8.619   6.157 -0.2976  0.1548  0.8740
25135SOL     OW87463   0.859   7.525   6.390 -0.4307 -0.5015  0.4245
25135SOL    HW187464   0.796   7.538   6.467 -0.7233  0.3104  0.0588
25135SOL    HW287465   0.935   7.468   6.419 -1.5005 -1.7816  0.7841
25136SOL     OW87466   6.471   2.897   1.560  0.3907  0.0785  0.3113
25136SOL    HW187467   6.440   2.858   1.647 -0.1943  1.3233  0.6667
25136SOL    HW287468   6.539   2.968   1.579 -0.1189  0.7086 -0.2173
25137SOL     OW87469   2.064   8.943   6.100 -0.2527  0.3062 -0.4986
25137SOL    HW187470   2.050   9.040   6.080  0.2937  0.4631 -0.1374
25137SOL    HW287471   2.131   8.934   6.173 -1.9887 -0.2537  1.0619
25138SOL     OW87472   0.953   2.905   3.285  0.4545 -0.0971 -0.2809
25138SOL    HW187473   0.912   2.948   3.365 -0.6096  1.2390 -1.5094
25138SOL    HW287474   0.943   2.966   3.206  1.1786 -1.5399 -1.5096
25139SOL     OW87475   2.688   5.714   9.590  0.3270 -0.0021  0.0341
25139SOL    HW187476   2.667   5.739   9.685  2.9036  0.4637  0.5019
25139SOL    HW287477   2.715   5.618   9.586 -1.4299 -0.4912 -0.5087
25140SOL     OW87478   3.237   0.135   6.439 -0.6010  0.3410 -0.1298
25140SOL    HW187479   3.187   0.196   6.378 -0.5370 -0.8283 -1.3506
25140SOL    HW287480   3.333   0.132   6.411 -0.6647 -0.5543 -0.2456
25141SOL     OW87481   8.717   8.623   2.941  0.2507 -0.2617  0.0419
25141SOL    HW187482   8.783   8.556   2.974 -0.3269 -0.8595 -0.0001
25141SOL    HW287483   8.663   8.658   3.017 -2.2754 -2.9369 -0.4339
25142SOL     OW87484   6.222   8.824   2.853  0.0020 -0.0368 -0.6097
25142SOL    HW187485   6.291   8.881   2.807 -0.4821  0.8057 -0.3026
25142SOL    HW287486   6.131   8.853   2.823 -0.3452  0.8741  1.2695
25143SOL     OW87487   9.775   1.572   1.604  0.1271  0.1247  0.0863
25143SOL    HW187488   9.831   1.579   1.687 -1.2550 -0.7261  1.0995
25143SOL    HW287489   9.700   1.508   1.619 -0.3430  0.2208 -1.7174
25144SOL     OW87490   8.528   6.260   4.108 -0.5380 -0.3981  0.6293
25144SOL    HW187491   8.541   6.171   4.151 -0.7428 -0.7365  0.0035
25144SOL    HW287492   8.604   6.277   4.045 -0.9180 -0.5002  0.1353
25145SOL     OW87493   2.011   7.858   3.127  0.1284 -0.5638  0.2064
25145SOL    HW187494   1.912   7.873   3.125  0.2502  0.3499  0.4766
25145SOL    HW287495   2.031   7.768   3.166 -0.5571 -0.3008  1.1920
25146SOL     OW87496   6.216   6.233   2.374 -0.3682  0.4721  0.0256
25146SOL    HW187497   6.190   6.308   2.435 -4.0927 -0.1826 -0.6350
25146SOL    HW287498   6.204   6.263   2.279 -0.2284 -0.4120 -0.2678
25147SOL     OW87499   2.360   7.536   0.707  0.4715  0.0529 -0.1686
25147SOL    HW187500   2.378   7.457   0.766 -1.7562 -1.3926 -1.3378
25147SOL    HW287501   2.422   7.533   0.628 -0.3630 -1.2264 -0.8064
25148SOL     OW87502   5.379   7.858   5.289  0.7810  0.3371 -0.4730
25148SOL    HW187503   5.467   7.887   5.251  0.6658 -0.8448 -1.7100
25148SOL    HW287504   5.389   7.766   5.328  0.3318  0.6132  0.3021
25149SOL     OW87505   1.810   0.535   8.274  0.4008 -0.5151 -1.0968
25149SOL    HW187506   1.750   0.455   8.278  0.1239 -0.3567 -1.9985
25149SOL    HW287507   1.764   0.614   8.314  0.7479 -0.8363 -0.0229
25150SOL     OW87508   9.943   6.114   5.187 -0.3790 -0.2359 -0.1273
25150SOL    HW187509   9.984   6.041   5.132  0.8296  0.7975 -0.6315
25150SOL    HW287510  10.013   6.182   5.209 -1.5233  0.8543  0.1872
25151SOL     OW87511   8.634   7.470   3.475 -0.3475  0.2873 -0.6727
25151SOL    HW187512   8.599   7.545   3.417  2.5761  1.1017 -1.4400
25151SOL    HW287513   8.690   7.507   3.548  0.4863 -1.1134 -0.5806
25152SOL     OW87514   1.269   1.276   9.239  0.1682 -0.2126  0.3417
25152SOL    HW187515   1.174   1.308   9.238  0.7817  1.6514 -2.0757
25152SOL    HW287516   1.302   1.273   9.333 -2.3225 -1.0959  1.2469
25153SOL     OW87517   6.376   8.691   1.886 -0.2314  0.0554  0.2335
25153SOL    HW187518   6.420   8.752   1.952 -0.3486  0.0503  0.3160
25153SOL    HW287519   6.446   8.636   1.840  0.0793  1.6885 -1.3070
25154SOL     OW87520   9.484   8.487   5.212 -0.4716  0.3977 -0.4629
25154SOL    HW187521   9.552   8.422   5.245  0.2540  1.4898  0.2443
25154SOL    HW287522   9.519   8.533   5.130 -0.7677  0.2656 -0.6655
25155SOL     OW87523   9.906   0.172   3.486 -0.1782  0.5139 -0.1672
25155SOL    HW187524   9.826   0.210   3.438 -0.8376 -0.7845 -0.1074
25155SOL    HW287525   9.925   0.227   3.567 -2.2588 -0.3627  0.9340
25156SOL     OW87526   3.568   8.477   1.704 -0.3279 -0.1677 -0.1766
25156SOL    HW187527   3.598   8.565   1.667  2.7154 -0.7289  0.8386
25156SOL    HW287528   3.545   8.487   1.801 -1.0503 -0.2774 -0.3327
25157SOL     OW87529   1.022   3.772   6.078  0.1247 -0.3779  0.3674
25157SOL    HW187530   1.120   3.753   6.083  0.1853 -0.0020  0.5761
25157SOL    HW287531   0.972   3.686   6.071  0.4457 -0.5853  0.6406
25158SOL     OW87532   7.468   3.285   9.210  0.0684  0.4512  0.0262
25158SOL    HW187533   7.525   3.366   9.219 -0.3455  0.7593 -0.1493
25158SOL    HW287534   7.503   3.228   9.136  1.1277 -0.1646  0.9790
25159SOL     OW87535   8.020   0.411   2.526 -0.2712 -0.1553  0.3933
25159SOL    HW187536   8.042   0.481   2.458 -0.1951 -0.0014  0.5768
25159SOL    HW287537   8.030   0.449   2.618 -1.6084 -0.0003  0.4772
25160SOL     OW87538   6.058   4.912   7.983  0.5374  0.4139 -0.3121
25160SOL    HW187539   6.109   4.846   7.928  1.6237  1.0933 -0.1381
25160SOL    HW287540   6.088   5.005   7.961 -0.5801  0.8232 -0.1468
25161SOL     OW87541   2.214   2.863   1.634 -0.2271 -0.3143 -0.0513
25161SOL    HW187542   2.141   2.920   1.673  0.1711 -0.1839  0.5015
25161SOL    HW287543   2.195   2.848   1.537 -1.1727 -0.5671  0.1646
25162SOL     OW87544   0.391   2.042   9.621 -0.0038 -0.2596 -0.5347
25162SOL    HW187545   0.351   1.985   9.549  0.6912  0.5161 -1.5578
25162SOL    HW287546   0.472   2.089   9.585  0.6072 -0.1942  0.8892
25163SOL     OW87547   5.825   6.106   2.802  0.1742  0.3741  0.0404
25163SOL    HW187548   5.753   6.081   2.737 -0.1084  1.3325 -0.0260
25163SOL    HW287549   5.810   6.059   2.888  0.0218 -0.1866 -0.2929
25164SOL     OW87550   9.602   6.179   6.427 -0.0354  0.0703 -0.7164
25164SOL    HW187551   9.691   6.202   6.465  0.0233  1.3679 -1.5967
25164SOL    HW287552   9.602   6.085   6.395  0.3080 -0.6503  1.3027
25165SOL     OW87553   0.317   7.314   7.789  0.0632 -0.1370 -0.0472
25165SOL    HW187554   0.396   7.255   7.776 -0.3460 -0.6932 -0.0387
25165SOL    HW287555   0.274   7.332   7.701 -1.7407 -2.5569  0.2864
25166SOL     OW87556   2.741   4.207   1.140 -0.2786 -0.2385 -0.8361
25166SOL    HW187557   2.789   4.120   1.129  0.7373  0.1908  0.0650
25166SOL    HW287558   2.646   4.190   1.167 -0.4377 -1.0823 -1.9268
25167SOL     OW87559   8.214   6.771   6.067 -0.0124  0.3253  0.2665
25167SOL    HW187560   8.133   6.823   6.041  0.0434  1.5933  2.5589
25167SOL    HW287561   8.295   6.829   6.055  0.2193  0.1895  1.1417
25168SOL     OW87562   0.182   8.971   6.009  0.0819 -0.2624 -0.1783
25168SOL    HW187563   0.114   9.026   5.961 -0.8475 -0.5540  0.7670
25168SOL    HW287564   0.252   9.030   6.048  1.0933 -0.0628 -2.2557
25169SOL     OW87565   9.599   0.107   3.247  0.3096  0.1225 -0.1796
25169SOL    HW187566   9.563   0.193   3.211 -0.7057 -0.0121  0.4789
25169SOL    HW287567   9.614   0.116   3.345  0.0098 -0.5005 -0.0707
25170SOL     OW87568   6.265   5.323   5.694  0.0791 -0.0288 -0.6775
25170SOL    HW187569   6.228   5.247   5.640  0.0899  1.7147 -3.2233
25170SOL    HW287570   6.362   5.305   5.713 -0.0307 -0.8624 -0.8689
25171SOL     OW87571   9.482   0.201   6.520  0.1245  0.1281  0.1420
25171SOL    HW187572   9.578   0.186   6.544 -0.8040 -1.6474  3.0398
25171SOL    HW287573   9.460   0.298   6.529  1.2755  0.3212  1.0139
25172SOL     OW87574   4.123   8.435   3.596  0.3654  0.2669 -0.0432
25172SOL    HW187575   4.125   8.509   3.529  1.0332  0.5036  0.2427
25172SOL    HW287576   4.029   8.402   3.606  0.5380 -1.0525 -2.4918
25173SOL     OW87577   7.345   5.837   5.365 -0.2142 -0.6341 -0.1106
25173SOL    HW187578   7.250   5.847   5.334 -0.9135 -0.7976  1.9269
25173SOL    HW287579   7.349   5.768   5.438  1.0693  1.1620  1.5563
25174SOL     OW87580   7.305   9.554   7.567 -0.2695 -0.8102  0.3875
25174SOL    HW187581   7.387   9.564   7.510  0.0759 -1.0945  0.8350
25174SOL    HW287582   7.332   9.531   7.660 -0.8514 -0.6496  0.5947
25175SOL     OW87583   7.733   4.927   8.054 -0.0597  0.4069 -0.5960
25175SOL    HW187584   7.690   5.017   8.048 -0.8033  0.0950 -0.0258
25175SOL    HW287585   7.761   4.897   7.963 -1.0768  0.5981 -0.9707
25176SOL     OW87586   1.149   4.478   8.272  0.3034  0.0136  0.1412
25176SOL    HW187587   1.192   4.423   8.343 -0.6677 -0.4736  0.3556
25176SOL    HW287588   1.119   4.565   8.311  0.2906 -0.0149  0.1962
25177SOL     OW87589   5.401   7.216   3.106  0.2689  0.2444 -0.0542
25177SOL    HW187590   5.390   7.217   3.007 -1.2824  0.6675  0.1065
25177SOL    HW287591   5.484   7.267   3.131  0.2446  0.8038 -1.0841
25178SOL     OW87592   9.290   6.397   7.225 -0.1054 -0.1657 -0.3218
25178SOL    HW187593   9.259   6.491   7.212  0.4840  0.2905  1.3874
25178SOL    HW287594   9.390   6.395   7.222 -0.1013 -0.6574  0.1182
25179SOL     OW87595   3.123   0.450   4.802  0.2856 -0.1281 -0.1567
25179SOL    HW187596   3.112   0.457   4.902 -1.5597 -0.7537 -0.3073
25179SOL    HW287597   3.066   0.519   4.758 -2.6808 -2.9584 -0.9338
25180SOL     OW87598   2.180   7.533   3.408  0.7252  0.3047  0.0023
25180SOL    HW187599   2.179   7.631   3.388 -0.5383  0.4690  0.8347
25180SOL    HW287600   2.164   7.482   3.323  3.0046  0.7380 -0.7321
25181SOL     OW87601   6.668   5.951   7.297  0.1943  0.0199 -0.4747
25181SOL    HW187602   6.604   6.003   7.352 -1.1586 -2.1078  0.0183
25181SOL    HW287603   6.710   6.011   7.229 -2.1846  1.4793 -0.7057
25182SOL     OW87604   2.096   5.863   4.169  0.4613 -0.1352 -0.0282
25182SOL    HW187605   2.053   5.891   4.254 -1.5046 -0.9880 -0.7188
25182SOL    HW287606   2.164   5.791   4.188 -1.0189 -1.3889  0.6699
25183SOL     OW87607   8.450   1.695   5.220 -0.3120  0.1880  0.0504
25183SOL    HW187608   8.512   1.741   5.156 -0.3489 -1.0935 -0.9373
25183SOL    HW287609   8.490   1.607   5.248 -0.4701  0.5659  1.5099
25184SOL     OW87610   7.512   2.345   4.407 -0.2961 -0.1376 -0.8327
25184SOL    HW187611   7.443   2.282   4.442 -0.3813  1.0878  1.2831
25184SOL    HW287612   7.575   2.295   4.347 -2.5392 -1.4302 -2.1828
25185SOL     OW87613   6.191   1.273   3.283 -0.1116  0.4161 -0.3286
25185SOL    HW187614   6.116   1.210   3.264 -0.5990  1.2554 -1.2677
25185SOL    HW287615   6.272   1.245   3.232 -0.1821  0.2770 -0.3645
25186SOL     OW87616   8.104   8.791   8.078 -0.2468  0.2940 -0.1998
25186SOL    HW187617   8.107   8.728   8.155 -0.4383 -0.6672 -0.9684
25186SOL    HW287618   8.129   8.882   8.108  0.6274 -0.2751  0.8088
25187SOL     OW87619   2.390   1.853   5.170 -0.7477  0.4972  0.0727
25187SOL    HW187620   2.409   1.951   5.165  1.6945  0.0228 -0.7394
25187SOL    HW287621   2.372   1.818   5.078  1.9664 -0.4585 -0.1181
25188SOL     OW87622   8.652   0.094   8.224 -0.0961  1.3397  0.3123
25188SOL    HW187623   8.712   0.026   8.181 -1.2120 -0.2024  1.1385
25188SOL    HW287624   8.609   0.150   8.154 -2.2403 -1.4401 -0.6722
25189SOL     OW87625   0.793   5.123   7.358 -0.0286  1.1088 -0.1708
25189SOL    HW187626   0.893   5.120   7.366 -0.2209 -1.8804  1.9308
25189SOL    HW287627   0.768   5.132   7.262  2.2537 -0.5790 -0.9834
25190SOL     OW87628   4.065   9.584   2.974  0.0346  0.4028  0.0064
25190SOL    HW187629   4.130   9.539   2.913  0.1583  0.1004  0.3624
25190SOL    HW287630   4.105   9.668   3.011 -0.3538  1.0494 -0.9949
25191SOL     OW87631   3.517   6.533   1.384  0.5600  0.1099  0.1531
25191SOL    HW187632   3.576   6.472   1.331 -0.0242 -0.7951  0.5430
25191SOL    HW287633   3.491   6.488   1.470 -3.7766 -1.0520 -1.6640
25192SOL     OW87634   8.396   6.636   8.594 -0.0393 -0.1146 -0.3208
25192SOL    HW187635   8.360   6.686   8.673  1.5675  0.7728 -0.1216
25192SOL    HW287636   8.322   6.618   8.529 -0.6820  2.5724 -0.4073
25193SOL     OW87637   0.513   2.112   3.359  0.0583 -0.5974 -0.2448
25193SOL    HW187638   0.530   2.024   3.403 -1.4992 -1.5970 -1.5784
25193SOL    HW287639   0.581   2.178   3.389  0.9863 -2.1392  1.1139
25194SOL     OW87640   0.481   6.657   3.132 -0.0449  0.2918 -0.1166
25194SOL    HW187641   0.519   6.649   3.224 -1.5194  3.1995  0.8089
25194SOL    HW287642   0.552   6.688   3.069  0.5210  0.1142  0.4259
25195SOL     OW87643   1.500   6.216   2.812  0.4364 -0.1880 -0.1053
25195SOL    HW187644   1.487   6.230   2.713 -0.2532  0.7637  0.1193
25195SOL    HW287645   1.423   6.164   2.849  0.4642 -0.1410  0.0180
25196SOL     OW87646   0.565   6.626   8.144  0.6688  0.2044 -0.4525
25196SOL    HW187647   0.627   6.582   8.079  0.2985 -2.0888  0.6923
25196SOL    HW287648   0.498   6.681   8.094 -0.3953 -2.5122 -2.1488
25197SOL     OW87649   6.066   0.430   3.803  0.1423 -0.0074 -0.7013
25197SOL    HW187650   6.051   0.335   3.776 -0.5097 -0.6031  1.6156
25197SOL    HW287651   6.020   0.447   3.890  2.4854  1.6996  0.2484
25198SOL     OW87652   9.563   9.152   3.341 -0.0468 -0.0188 -0.2492
25198SOL    HW187653   9.516   9.088   3.281 -0.5146 -0.3079  0.4190
25198SOL    HW287654   9.544   9.129   3.436 -1.0756  1.7451 -0.0107
25199SOL     OW87655   3.812   3.675   6.064 -0.2318  0.5811  0.4274
25199SOL    HW187656   3.718   3.707   6.053 -0.2046  0.4713 -0.1563
25199SOL    HW287657   3.847   3.644   5.975 -0.5489 -1.9199  1.1376
25200SOL     OW87658   3.315   9.464   4.463  0.0654  0.1876  0.3690
25200SOL    HW187659   3.375   9.459   4.543  2.2771  0.4633 -1.1967
25200SOL    HW287660   3.269   9.377   4.450 -0.4543  0.2091  2.0532
25201SOL     OW87661   7.006   0.141   5.383 -0.1324 -0.8521 -0.2476
25201SOL    HW187662   6.943   0.219   5.386  0.0872 -0.7123  0.9099
25201SOL    HW287663   7.022   0.115   5.287 -1.2334 -0.3200 -0.5831
25202SOL     OW87664   0.111   1.980   2.182  0.2151 -0.1265  0.0124
25202SOL    HW187665   0.192   1.925   2.164  0.0944 -0.5003  0.6107
25202SOL    HW287666   0.038   1.922   2.217  0.2820  0.5108  1.2143
25203SOL     OW87667   5.045   4.698   5.232  0.9502  0.0572 -0.4530
25203SOL    HW187668   5.111   4.629   5.202 -1.1750 -1.6337 -1.3744
25203SOL    HW287669   4.953   4.666   5.211 -0.3492  1.0431  3.4012
25204SOL     OW87670   9.357   7.608   4.304 -0.4582 -0.5247 -0.5852
25204SOL    HW187671   9.375   7.612   4.206  0.1741 -1.7007 -0.5237
25204SOL    HW287672   9.368   7.700   4.343  1.3577 -0.4228 -1.2710
25205SOL     OW87673   2.184   3.209   4.213 -0.5712  0.7223  0.5415
25205SOL    HW187674   2.120   3.153   4.267 -1.0387  0.2162 -0.5237
25205SOL    HW287675   2.132   3.277   4.161  0.0826  2.8975  2.6818
25206SOL     OW87676   8.510   0.360   4.454 -0.6683 -0.4313  0.0944
25206SOL    HW187677   8.497   0.368   4.355 -1.9591 -0.6508  0.2372
25206SOL    HW287678   8.560   0.440   4.487 -0.1050 -0.4233 -0.7538
25207SOL     OW87679   6.889   0.434   1.382 -0.0128 -0.2376 -0.2880
25207SOL    HW187680   6.947   0.353   1.393  0.9926  0.5296  0.1279
25207SOL    HW287681   6.847   0.458   1.470 -1.4297 -1.1260 -0.7053
25208SOL     OW87682   0.650   8.979   7.770 -0.2593 -0.3987  0.1973
25208SOL    HW187683   0.587   8.911   7.732  0.1116 -0.0445 -1.0923
25208SOL    HW287684   0.702   8.938   7.845 -0.3981 -1.3887 -0.2344
25209SOL     OW87685   7.398   6.511   7.154  0.2362 -0.5724 -0.3200
25209SOL    HW187686   7.345   6.472   7.229 -1.2608 -0.4447 -1.2956
25209SOL    HW287687   7.429   6.603   7.180 -0.1317 -0.5959  0.2086
25210SOL     OW87688   9.369   3.130   5.374 -0.2948  0.3487 -0.1110
25210SOL    HW187689   9.364   3.055   5.440 -1.6575  0.0431 -0.5471
25210SOL    HW287690   9.427   3.203   5.411  3.0593 -1.8767 -0.6947
25211SOL     OW87691   2.492   9.089   4.940  0.0422  0.1706  0.5461
25211SOL    HW187692   2.409   9.097   4.995 -0.4892  0.5148 -0.2744
25211SOL    HW287693   2.466   9.071   4.845  1.0156 -2.5965  0.7935
25212SOL     OW87694   2.442   4.052   1.890  0.3870 -0.3997  0.3063
25212SOL    HW187695   2.439   4.098   1.979  0.2161  0.5378 -0.1729
25212SOL    HW287696   2.369   4.088   1.832  1.9672  0.7369 -1.0394
25213SOL     OW87697   0.389   4.346   2.557  0.1862  0.5312  0.0709
25213SOL    HW187698   0.420   4.288   2.631 -0.3670 -0.1837 -0.2511
25213SOL    HW287699   0.404   4.300   2.469 -0.5540  0.7233 -0.1670
25214SOL     OW87700   9.631   9.924   9.236 -0.6752  0.3681  0.0996
25214SOL    HW187701   9.728   9.947   9.243 -1.0089  1.6826  0.4614
25214SOL    HW287702   9.620   9.825   9.246  0.5974  0.2355  0.3251
25215SOL     OW87703   8.768   5.516   4.342  0.7525  1.0063  0.1033
25215SOL    HW187704   8.809   5.485   4.427 -1.8673 -2.2936  0.2627
25215SOL    HW287705   8.668   5.512   4.349  0.4525  2.2652 -2.5655
25216SOL     OW87706   1.143   0.054   6.056 -0.1513  0.6280 -0.1353
25216SOL    HW187707   1.073   0.087   6.120  0.8512 -0.5335  1.6024
25216SOL    HW287708   1.174   0.130   5.999 -1.1993  1.6589  0.6263
25217SOL     OW87709   8.019   5.370   4.495  0.1282 -0.2573 -0.0891
25217SOL    HW187710   8.042   5.465   4.516  0.0108  0.1328 -1.6773
25217SOL    HW287711   8.076   5.309   4.550 -0.8894  0.7159  2.1022
25218SOL     OW87712   5.140   9.407   5.787 -0.1689 -0.7873  0.3514
25218SOL    HW187713   5.131   9.330   5.723 -1.8037  0.9604 -1.5898
25218SOL    HW287714   5.184   9.484   5.741  0.0751 -0.0310  1.8234
25219SOL     OW87715   9.170   0.980   1.597 -0.6823  0.3850  0.6311
25219SOL    HW187716   9.154   0.936   1.509  1.6093  3.0822 -1.2394
25219SOL    HW287717   9.207   0.913   1.661 -0.8010 -1.2619 -0.9605
25220SOL     OW87718   8.981   1.222   4.207 -0.1758  0.0448 -0.2313
25220SOL    HW187719   8.931   1.264   4.283 -1.2739 -0.8103 -0.4630
25220SOL    HW287720   9.071   1.191   4.239 -0.9905 -1.1325  0.9467
25221SOL     OW87721   2.398   9.872   4.310  0.5486 -0.0131 -0.1027
25221SOL    HW187722   2.433   9.909   4.396  0.4386  0.0451 -0.0823
25221SOL    HW287723   2.323   9.809   4.330 -0.9512  1.6831 -0.2781
25222SOL     OW87724   7.047   9.746   9.052  0.1970 -0.2760 -0.4945
25222SOL    HW187725   7.136   9.791   9.060 -0.8653  2.4310 -3.1084
25222SOL    HW287726   6.988   9.777   9.126 -0.3266  2.2664 -1.9232
25223SOL     OW87727   5.529   9.909   2.611 -0.0618  0.1631  0.5161
25223SOL    HW187728   5.447   9.873   2.656  0.5674 -0.2050  1.3661
25223SOL    HW287729   5.506   9.937   2.518 -2.2949  4.4957  2.2066
25224SOL     OW87730   2.192   0.326   5.987 -0.6606  0.2937 -0.3083
25224SOL    HW187731   2.205   0.273   6.071  1.8091  1.2123 -0.0772
25224SOL    HW287732   2.136   0.273   5.923 -0.5617 -1.4153  0.9831
25225SOL     OW87733   0.753   1.326   5.002  0.3501  0.2810 -0.3888
25225SOL    HW187734   0.783   1.267   5.076  1.9932  0.3736 -0.9540
25225SOL    HW287735   0.767   1.279   4.914 -0.2934  0.6937 -0.7151
25226SOL     OW87736   1.688   8.585   6.615 -0.5553 -0.0074 -0.3999
25226SOL    HW187737   1.684   8.542   6.705 -0.9827  0.8388 -0.0075
25226SOL    HW287738   1.602   8.633   6.597 -0.4494 -0.1122 -1.2356
25227SOL     OW87739   8.191   5.760   4.441  0.3044  0.0753 -0.4141
25227SOL    HW187740   8.133   5.750   4.360 -1.6974  1.1778  0.8508
25227SOL    HW287741   8.207   5.671   4.482 -0.4964 -0.2356 -0.7669
25228SOL     OW87742   4.077   8.854   9.639  0.7438 -0.2137  0.0625
25228SOL    HW187743   4.165   8.809   9.653  0.4963 -0.1953  1.7801
25228SOL    HW287744   4.004   8.796   9.675  0.2312  0.6364  0.4045
25229SOL     OW87745   4.427   9.342   5.688  0.0684 -0.7525 -0.2138
25229SOL    HW187746   4.328   9.339   5.701 -0.1672  0.8375 -1.4782
25229SOL    HW287747   4.452   9.284   5.611  0.1971 -1.5494  0.4176
25230SOL     OW87748   9.693   7.468   8.067  0.3786  0.2046  0.3846
25230SOL    HW187749   9.663   7.432   8.155  0.6983  0.2501  0.5099
25230SOL    HW287750   9.613   7.499   8.015  0.1762  0.0213  0.5877
25231SOL     OW87751   4.320   0.164   5.818 -0.2377 -0.3001  0.4412
25231SOL    HW187752   4.416   0.163   5.847  0.6201 -4.3306 -2.0426
25231SOL    HW287753   4.307   0.233   5.747  1.2848 -0.8441 -0.3973
25232SOL     OW87754   9.824   0.037   6.335 -0.4287 -0.3625 -0.1180
25232SOL    HW187755   9.774  -0.044   6.305 -0.9118  0.0595 -0.4733
25232SOL    HW287756   9.836   0.100   6.257  0.8694 -0.5655 -0.0973
25233SOL     OW87757   5.147   7.290   9.517 -0.9785 -0.4446 -0.7110
25233SOL    HW187758   5.212   7.260   9.447 -2.1357 -1.4461 -1.3807
25233SOL    HW287759   5.114   7.382   9.496  0.7191  0.3603  0.0092
25234SOL     OW87760   2.907   0.269   9.842  0.6112  0.0906 -0.0307
25234SOL    HW187761   2.950   0.180   9.828 -1.5803 -0.9541 -0.3984
25234SOL    HW287762   2.897   0.287   9.940 -0.1843 -0.7254  0.0509
25235SOL     OW87763   7.575   8.198   4.627  0.2204  0.1511 -0.6994
25235SOL    HW187764   7.644   8.257   4.584  0.6330 -0.4828 -0.9197
25235SOL    HW287765   7.621   8.134   4.689 -0.2563  0.2628 -0.2322
25236SOL     OW87766   9.426   3.633   3.737  0.1075  0.0701 -0.2934
25236SOL    HW187767   9.416   3.666   3.643 -0.1754  0.3571 -0.1657
25236SOL    HW287768   9.516   3.657   3.771  0.2064 -0.0234 -0.4856
25237SOL     OW87769   9.692   7.517   6.783 -0.3136 -0.2475 -0.5996
25237SOL    HW187770   9.677   7.589   6.851  2.3866 -0.2818  0.1080
25237SOL    HW287771   9.750   7.553   6.710  1.7575 -1.8932  0.1857
25238SOL     OW87772   5.608   6.691   7.353  0.3864  0.3413 -0.3285
25238SOL    HW187773   5.631   6.755   7.279 -1.8297  0.1564 -1.2166
25238SOL    HW287774   5.670   6.613   7.350 -0.3751 -0.2239 -2.7623
25239SOL     OW87775   6.377   6.515   5.069  0.1970 -0.0286  0.2109
25239SOL    HW187776   6.391   6.433   5.124 -1.4608  0.6286  1.6680
25239SOL    HW287777   6.397   6.596   5.124 -0.2453  0.6084 -0.5512
25240SOL     OW87778   0.307   4.699   4.618 -0.1560 -0.2299 -0.9031
25240SOL    HW187779   0.277   4.618   4.568 -2.4165  0.3314 -0.5460
25240SOL    HW287780   0.330   4.772   4.554  0.0129 -0.5428 -1.1965
25241SOL     OW87781   6.643   6.813   3.132 -0.3563  0.5952  0.3804
25241SOL    HW187782   6.693   6.898   3.148  0.3062 -0.1246  2.3174
25241SOL    HW287783   6.642   6.793   3.034  0.8643  2.0168  0.0604
25242SOL     OW87784   3.630   6.533   2.342  0.3623  0.1576 -0.4634
25242SOL    HW187785   3.630   6.454   2.280  1.8180 -1.0639  1.0497
25242SOL    HW287786   3.681   6.608   2.301 -0.3608  0.0471 -1.5782
25243SOL     OW87787   9.716   8.862   4.089 -0.1344  0.2275  0.9395
25243SOL    HW187788   9.800   8.890   4.134  1.1304 -2.3338  0.2497
25243SOL    HW287789   9.736   8.828   3.997 -2.2392  1.9136 -0.2101
25244SOL     OW87790   0.111   0.613   4.388  0.3078 -0.1037  0.4197
25244SOL    HW187791   0.125   0.710   4.367  0.0972 -0.1270  0.1557
25244SOL    HW287792   0.134   0.595   4.483  0.3693  0.2025  0.4626
25245SOL     OW87793   2.754   6.556   1.025 -0.2083  0.3900  0.6237
25245SOL    HW187794   2.848   6.581   1.001  0.0136 -0.7369  0.3234
25245SOL    HW287795   2.721   6.619   1.095  0.2835  1.6471 -0.2490
25246SOL     OW87796   2.830   2.849   3.640  0.0030  0.1869 -0.6029
25246SOL    HW187797   2.925   2.875   3.620 -0.1216  2.0284  1.0784
25246SOL    HW287798   2.770   2.927   3.620 -1.0490 -0.6513 -0.7295
25247SOL     OW87799   8.627   1.522   4.874 -0.5067  0.5819  0.0172
25247SOL    HW187800   8.564   1.461   4.922  1.2193 -0.1683  1.3398
25247SOL    HW287801   8.592   1.616   4.877 -0.6704  0.4550  2.2715
25248SOL     OW87802   8.142   7.832   3.734 -0.0391  0.4059  0.6201
25248SOL    HW187803   8.088   7.857   3.815 -1.1915  0.8588 -0.2903
25248SOL    HW287804   8.239   7.846   3.755 -0.2900  0.1202  2.0726
25249SOL     OW87805   5.861   7.333   3.779 -0.4054 -0.6582 -0.6705
25249SOL    HW187806   5.870   7.421   3.734 -1.8766  0.3189  0.8630
25249SOL    HW287807   5.903   7.262   3.723  1.7058  1.1457 -1.4435
25250SOL     OW87808   2.673   2.443   0.140 -1.4477  0.2764  0.7794
25250SOL    HW187809   2.594   2.382   0.147 -1.6019  0.3829 -0.0449
25250SOL    HW287810   2.681   2.497   0.224 -0.8973 -1.3734  1.8044
25251SOL     OW87811   9.635   0.524   6.491  0.0739 -0.0909 -0.2327
25251SOL    HW187812   9.541   0.517   6.523  0.0959  0.8150  0.0197
25251SOL    HW287813   9.679   0.434   6.499 -0.6920 -0.4657 -0.1415
25252SOL     OW87814   8.734   2.531   3.681 -0.7753 -0.1967 -0.0014
25252SOL    HW187815   8.649   2.571   3.717 -1.0707 -1.2420  0.4986
25252SOL    HW287816   8.711   2.457   3.618 -0.2371 -0.0047 -0.4169
25253SOL     OW87817   1.876   7.320   6.531  0.0618  0.2205  0.2696
25253SOL    HW187818   1.949   7.264   6.571  0.3338  0.9220  0.7732
25253SOL    HW287819   1.911   7.368   6.450  0.6439  1.8134  1.4402
25254SOL     OW87820   7.641   7.705   1.743 -0.9729  0.4868  0.1256
25254SOL    HW187821   7.634   7.613   1.705 -0.8972  0.0268  1.2003
25254SOL    HW287822   7.627   7.772   1.670 -2.4294 -0.3767 -0.4241
25255SOL     OW87823   4.174   5.270   6.681 -0.5066  0.2313  0.4694
25255SOL    HW187824   4.211   5.177   6.673 -0.1964  0.3595  0.3859
25255SOL    HW287825   4.250   5.335   6.689 -0.5650  0.8463 -3.0267
25256SOL     OW87826   1.008   8.635   0.690  0.1676  0.0831 -0.3366
25256SOL    HW187827   0.996   8.556   0.750 -1.1353  0.2499 -0.3676
25256SOL    HW287828   0.940   8.632   0.617 -0.1614  1.4512 -0.1016
25257SOL     OW87829   8.895   3.253   3.729 -0.1601 -0.3351 -0.2118
25257SOL    HW187830   8.912   3.155   3.729 -2.4249 -0.8013  3.0971
25257SOL    HW287831   8.841   3.278   3.649 -0.9332 -2.0503 -0.2256
25258SOL     OW87832   4.855   8.146   5.143  0.2856 -0.2482  0.0013
25258SOL    HW187833   4.766   8.141   5.188  1.0917 -1.6432  1.5387
25258SOL    HW287834   4.845   8.124   5.046 -0.9992 -0.8061  0.2498
25259SOL     OW87835   9.672   4.350   3.257  0.9062  0.5608  0.1194
25259SOL    HW187836   9.629   4.400   3.182  1.0129  0.1771 -0.2038
25259SOL    HW287837   9.603   4.295   3.304  0.9999  0.1027 -0.2709
25260SOL     OW87838   1.947   5.838   6.123 -0.1800 -0.1237 -0.2206
25260SOL    HW187839   1.858   5.807   6.156 -0.7771 -0.2747 -1.9171
25260SOL    HW287840   2.005   5.759   6.104 -0.4386 -0.0924 -1.1450
25261SOL     OW87841   1.438   7.325   7.248 -0.2796  0.0386 -0.4683
25261SOL    HW187842   1.510   7.283   7.191 -0.2351  0.4773 -0.7407
25261SOL    HW287843   1.401   7.257   7.310  0.1577 -0.2735 -0.5466
25262SOL     OW87844   2.197   7.326   4.623  0.8683 -0.2524  0.1218
25262SOL    HW187845   2.239   7.393   4.684  2.0889 -0.5260 -0.3960
25262SOL    HW287846   2.239   7.334   4.532 -0.4135 -0.3362 -0.4834
25263SOL     OW87847   6.846   8.722   6.800  0.1906 -0.1921 -0.3297
25263SOL    HW187848   6.751   8.693   6.792  0.0924  0.6587 -2.3502
25263SOL    HW287849   6.906   8.656   6.755  0.5486 -0.5373  0.6243
25264SOL     OW87850   3.724   6.314   2.726  0.5102  1.1218 -0.0499
25264SOL    HW187851   3.639   6.286   2.681 -0.2617  1.0578  1.4227
25264SOL    HW287852   3.726   6.278   2.819  2.5408  0.4487 -0.3445
25265SOL     OW87853   1.099   6.513   7.809  0.0296 -0.2041 -0.3305
25265SOL    HW187854   1.061   6.507   7.902  0.4601 -0.6244 -0.1816
25265SOL    HW287855   1.176   6.449   7.800  1.0649  1.0484 -0.4673
25266SOL     OW87856   0.271   1.460   4.539  0.3454 -0.1965  0.0719
25266SOL    HW187857   0.177   1.483   4.564  0.8621 -1.0349  2.9708
25266SOL    HW287858   0.334   1.521   4.588  1.3940 -1.5915  0.4934
25267SOL     OW87859   8.176   1.035   4.152 -0.6520  0.3437  0.3623
25267SOL    HW187860   8.111   1.053   4.225 -0.9554  0.7397  0.0023
25267SOL    HW287861   8.218   1.121   4.122 -0.7295  0.2211 -0.1101
25268SOL     OW87862   4.974   6.124   4.383 -0.1143  0.5658 -0.3622
25268SOL    HW187863   4.997   6.208   4.433  1.3837 -0.3332  0.4946
25268SOL    HW287864   5.008   6.045   4.433 -2.9465 -0.6976 -0.3228
25269SOL     OW87865   1.411   5.153   4.474  0.2585 -0.3207 -0.1914
25269SOL    HW187866   1.486   5.097   4.438 -0.3586 -0.9056 -0.5935
25269SOL    HW287867   1.328   5.098   4.477  0.0353  0.0740  1.0515
25270SOL     OW87868   7.025   3.717   3.063  0.8593  0.0004  0.0215
25270SOL    HW187869   6.943   3.736   3.117  1.5205  1.9989  0.3848
25270SOL    HW287870   7.074   3.639   3.103 -1.0510 -1.4817 -0.4507
25271SOL     OW87871   9.144   4.659   6.901 -0.0418 -0.2699  0.3477
25271SOL    HW187872   9.200   4.593   6.951  0.8021 -0.0222 -0.2568
25271SOL    HW287873   9.075   4.611   6.848  2.2230 -0.8850 -2.1578
25272SOL     OW87874   0.997   3.765   2.564  0.0757 -0.4580 -0.0744
25272SOL    HW187875   0.960   3.682   2.521 -2.3277 -0.7585  2.4349
25272SOL    HW287876   1.032   3.742   2.655 -0.2483  1.1794  0.4805
25273SOL     OW87877   1.235   7.591   1.432  0.5801  0.0139  0.4244
25273SOL    HW187878   1.203   7.539   1.511 -1.5573  0.2588 -0.2422
25273SOL    HW287879   1.303   7.538   1.382  0.0070 -1.2417  0.9685
25274SOL     OW87880   5.935   6.841   1.555  0.6066 -0.2641  0.7470
25274SOL    HW187881   5.881   6.926   1.556 -0.9960 -1.2559  3.1656
25274SOL    HW287882   6.015   6.852   1.613  0.3485 -0.4409  1.1351
25275SOL     OW87883   6.234   9.656   1.380  0.1435  0.1121 -0.1983
25275SOL    HW187884   6.274   9.621   1.464 -1.7937 -1.5342  0.0745
25275SOL    HW287885   6.187   9.743   1.400  0.8146  0.4004  0.1378
25276SOL     OW87886   9.766   7.252   4.369  1.0403 -0.0591  0.7131
25276SOL    HW187887   9.695   7.190   4.402 -0.8807  1.0663 -1.1207
25276SOL    HW287888   9.730   7.345   4.366  3.0123  0.7385  0.8777
25277SOL     OW87889   4.634   7.029   2.706  0.2652 -0.1295  0.2564
25277SOL    HW187890   4.579   7.034   2.789 -0.9834  1.5872 -0.6494
25277SOL    HW287891   4.624   7.113   2.653  0.5598 -1.4217 -1.9442
25278SOL     OW87892   1.020   4.483   8.746  0.1273  0.5224  0.2558
25278SOL    HW187893   0.942   4.480   8.683  0.0810  1.1531  0.2766
25278SOL    HW287894   1.002   4.423   8.823  0.3646 -0.5752 -0.5350
25279SOL     OW87895   7.560   6.832   5.001 -0.7752  0.2745  0.1143
25279SOL    HW187896   7.521   6.869   4.917 -0.9785  0.5143  0.3120
25279SOL    HW287897   7.510   6.749   5.027 -0.1849 -0.2543 -0.4413
25280SOL     OW87898   8.848   4.119   4.992 -0.3855  0.3756  0.2915
25280SOL    HW187899   8.906   4.077   4.922  0.4754  0.3194  1.0289
25280SOL    HW287900   8.785   4.183   4.949  0.4958  0.7359 -0.4784
25281SOL     OW87901   1.868   1.713   8.552  0.0975 -0.0876  0.0427
25281SOL    HW187902   1.791   1.666   8.509  0.8031 -0.1288 -1.2236
25281SOL    HW287903   1.941   1.647   8.570  0.4291  0.2147 -0.1852
25282SOL     OW87904   2.377   6.539   3.563  0.1685  0.2671  0.1780
25282SOL    HW187905   2.299   6.569   3.618 -0.3633 -0.0379 -0.4033
25282SOL    HW287906   2.344   6.485   3.486  0.8771  1.1074 -0.7240
25283SOL     OW87907   9.511   5.936   0.904  0.2352 -0.1433  0.3444
25283SOL    HW187908   9.519   5.855   0.961 -0.1668  0.2321  0.9392
25283SOL    HW287909   9.598   5.952   0.856  0.7906 -0.0823  1.3559
25284SOL     OW87910   8.067   2.463   1.474  0.0403  0.0892 -0.4278
25284SOL    HW187911   8.133   2.414   1.418 -0.7073  1.0107 -2.1507
25284SOL    HW287912   8.114   2.531   1.530  0.8717 -1.3380  0.6550
25285SOL     OW87913   6.262   7.473   2.132 -0.2267  0.1139  0.1431
25285SOL    HW187914   6.280   7.389   2.183 -0.7445  0.2457  0.5528
25285SOL    HW287915   6.327   7.482   2.057  0.5961 -0.0449  0.8281
25286SOL     OW87916   7.266   0.949   1.990 -0.0006  0.5102 -0.2186
25286SOL    HW187917   7.292   0.978   2.082 -0.3984  1.2972 -0.3527
25286SOL    HW287918   7.280   0.850   1.981  2.5152  0.8530 -0.1585
25287SOL     OW87919   7.448   5.153   4.745 -0.4136 -0.3901  0.0807
25287SOL    HW187920   7.401   5.206   4.816  0.2296 -1.7576  1.5830
25287SOL    HW287921   7.482   5.214   4.674 -1.1713  1.0129  0.9029
25288SOL     OW87922   7.785   9.831   5.960 -0.2850  0.3904  0.2712
25288SOL    HW187923   7.878   9.856   5.933 -0.8325  1.0646 -1.0644
25288SOL    HW287924   7.782   9.733   5.980  0.4375  0.0925 -0.9864
25289SOL     OW87925   0.324   4.776   5.523 -0.6061  0.3586  0.1268
25289SOL    HW187926   0.282   4.715   5.590  0.9067 -0.0837  0.6896
25289SOL    HW287927   0.400   4.825   5.566  0.4244  0.0197 -1.2635
25290SOL     OW87928   2.076   0.161   5.793  0.0496 -0.3311  0.1178
25290SOL    HW187929   1.987   0.134   5.756 -0.3000  0.5130  0.3290
25290SOL    HW287930   2.123   0.080   5.830 -0.3797 -0.8740 -0.5059
25291SOL     OW87931   0.525   7.904   8.329  0.3768  0.0390  0.2420
25291SOL    HW187932   0.434   7.899   8.290 -0.3197  0.2686  1.7984
25291SOL    HW287933   0.588   7.947   8.264 -0.9263  1.1548 -0.2870
25292SOL     OW87934   7.611   6.953   7.303  0.4029 -0.1469  0.0490
25292SOL    HW187935   7.619   6.888   7.379 -0.2677 -0.1288  0.1315
25292SOL    HW287936   7.570   7.038   7.335 -0.0067 -0.1902 -0.3620
25293SOL     OW87937   4.951   4.927   5.925  0.3300  0.2382 -0.4083
25293SOL    HW187938   4.918   4.837   5.952 -0.5319  0.9532  0.9714
25293SOL    HW287939   5.049   4.934   5.944 -0.0582  0.3723  1.6139
25294SOL     OW87940   6.364   6.215   9.917 -0.3781 -0.2593  0.4265
25294SOL    HW187941   6.354   6.119   9.942  0.9486 -0.1358  1.4372
25294SOL    HW287942   6.459   6.244   9.930 -0.9896  1.4851  1.1954
25295SOL     OW87943   7.496   0.196   3.823 -0.4260 -0.3619  0.2897
25295SOL    HW187944   7.452   0.285   3.815 -0.7370 -0.4448  1.0145
25295SOL    HW287945   7.515   0.159   3.732 -2.0959 -0.4348 -0.0507
25296SOL     OW87946   8.307   4.903   6.636  0.1638  0.1727  0.2940
25296SOL    HW187947   8.361   4.947   6.709  1.1246  0.5506 -0.6302
25296SOL    HW287948   8.228   4.858   6.676  0.6108  0.4910  1.5694
25297SOL     OW87949   0.905   7.302   8.003 -0.2258  0.3189 -0.4326
25297SOL    HW187950   0.838   7.242   7.959  0.0719  0.0929 -0.5750
25297SOL    HW287951   0.904   7.392   7.959 -0.3832  0.2926 -0.4817
25298SOL     OW87952   5.520   6.386   8.140  0.3429  0.4938 -0.5046
25298SOL    HW187953   5.596   6.364   8.200  1.4201  0.5614 -1.8148
25298SOL    HW287954   5.503   6.485   8.141  0.5341  0.5261 -0.5007
25299SOL     OW87955   7.803   7.742   6.523 -0.0772  0.1087  0.3516
25299SOL    HW187956   7.715   7.701   6.499 -0.6794  0.4300  1.9460
25299SOL    HW287957   7.838   7.794   6.445 -0.6528 -1.1258 -0.7408
25300SOL     OW87958   2.014   9.177   3.474 -0.0667 -0.0148  0.3896
25300SOL    HW187959   2.031   9.176   3.573  0.5001  0.1365  0.2926
25300SOL    HW287960   1.961   9.096   3.448  0.2874 -0.3516  0.7229
25301SOL     OW87961   6.167   4.309   0.917  0.2680 -0.2456  0.0303
25301SOL    HW187962   6.155   4.289   1.014 -0.5505  0.7891  0.1508
25301SOL    HW287963   6.235   4.382   0.906  0.2167 -0.2281 -0.1659
25302SOL     OW87964   9.369   9.201   2.786  0.0188  0.4029 -0.7973
25302SOL    HW187965   9.373   9.300   2.796  0.4684  0.1552  1.9486
25302SOL    HW287966   9.276   9.173   2.762 -0.3596  1.4091 -0.5174
25303SOL     OW87967   7.934   1.974   6.573 -0.4070  0.1430  0.2903
25303SOL    HW187968   7.856   2.001   6.629 -0.4027 -1.0271  0.8954
25303SOL    HW287969   7.991   1.910   6.626 -2.0539 -3.4686 -2.1352
25304SOL     OW87970   7.923   8.641   5.819 -0.0736  0.3829 -0.0081
25304SOL    HW187971   7.824   8.654   5.824  0.0902  1.4833  0.5149
25304SOL    HW287972   7.950   8.629   5.723 -0.7318 -0.1036 -0.1357
25305SOL     OW87973   4.372   8.789   4.187 -0.3015  0.4270 -0.1432
25305SOL    HW187974   4.400   8.820   4.096 -1.9955  0.7632 -0.5557
25305SOL    HW287975   4.300   8.848   4.222  2.0681  1.8739  2.5270
25306SOL     OW87976   2.508   4.970   5.383 -0.1395  0.2793  0.1054
25306SOL    HW187977   2.601   4.941   5.407  0.1892  1.2790  0.0759
25306SOL    HW287978   2.445   4.893   5.393  0.2230  0.3136  2.8309
25307SOL     OW87979   6.099   6.855   3.191  0.5722  0.4967 -0.4554
25307SOL    HW187980   6.073   6.924   3.123 -1.1702  0.0206 -0.3006
25307SOL    HW287981   6.159   6.788   3.150  0.3070  0.7522 -1.2681
25308SOL     OW87982   5.568   5.875   4.991 -0.0496 -0.3246  0.0377
25308SOL    HW187983   5.479   5.842   4.957  0.4436  0.2422 -1.8547
25308SOL    HW287984   5.554   5.958   5.044 -0.7271 -0.5798  0.2733
25309SOL     OW87985   4.135   5.919   6.863  0.8289  0.2486  0.0305
25309SOL    HW187986   4.098   5.897   6.773  1.8914  1.3177 -0.6982
25309SOL    HW287987   4.148   6.018   6.870  1.9594  0.0521  0.8664
25310SOL     OW87988   6.092   4.997   1.820  0.8196 -0.1186 -0.1182
25310SOL    HW187989   6.103   4.903   1.852  0.4615 -0.1526 -0.0936
25310SOL    HW287990   6.064   4.996   1.724 -2.9866 -0.1330  0.9327
25311SOL     OW87991   0.992   4.676   8.494 -0.2961  0.7160  0.6800
25311SOL    HW187992   0.992   4.716   8.403 -0.7860  1.1763  0.8796
25311SOL    HW287993   0.951   4.585   8.490 -0.2813  0.7194  0.4345
25312SOL     OW87994   1.241   2.094   3.244 -0.0881 -0.2932 -0.3138
25312SOL    HW187995   1.336   2.070   3.225  0.4454 -0.8909  2.7342
25312SOL    HW287996   1.236   2.190   3.272  0.0470 -0.9095  1.9481
25313SOL     OW87997   5.930   0.360   7.979  0.0897 -0.3974 -0.0132
25313SOL    HW187998   5.912   0.439   7.921  0.5828 -0.8821 -0.8333
25313SOL    HW287999   5.942   0.390   8.074 -0.6862  0.3961 -0.1624
25314SOL     OW88000   4.067   6.974   5.053  0.8018  0.0460  0.5135
25314SOL    HW188001   4.098   7.068   5.041  1.4944 -0.2948 -0.4645
25314SOL    HW288002   4.120   6.930   5.126  1.9407 -0.2235 -0.4646
25315SOL     OW88003   1.210   6.903   2.079 -0.4469 -0.0201  0.4402
25315SOL    HW188004   1.207   6.817   2.131  1.6206  0.0541  0.7297
25315SOL    HW288005   1.233   6.884   1.984 -1.4681  0.0902  0.1674
25316SOL     OW88006   5.897   7.571   3.624  0.2542  0.5254 -0.4445
25316SOL    HW188007   5.862   7.634   3.554 -0.9316  0.2453 -0.1114
25316SOL    HW288008   5.961   7.620   3.683 -2.0064  1.9599  0.9301
25317SOL     OW88009   7.437   4.945   6.804  0.3024  0.2638  0.4094
25317SOL    HW188010   7.394   4.881   6.868 -2.5972  0.4401 -1.2552
25317SOL    HW288011   7.487   4.894   6.734  1.4378 -0.0056  1.3996
25318SOL     OW88012   8.383   8.319   3.090  0.8733 -0.1425 -0.0708
25318SOL    HW188013   8.450   8.246   3.101 -0.7501 -1.7697 -0.6500
25318SOL    HW288014   8.378   8.374   3.174  2.2333 -0.5840  0.3025
25319SOL     OW88015   1.788   4.471   4.050  0.4163  0.0802 -0.4948
25319SOL    HW188016   1.768   4.398   3.985  2.9252 -0.2956 -0.8936
25319SOL    HW288017   1.854   4.535   4.009  3.1548 -0.9108  2.1086
25320SOL     OW88018   4.019   8.109   7.300  0.2097  0.5244 -0.1630
25320SOL    HW188019   3.920   8.108   7.313  0.1912 -0.2028 -0.3228
25320SOL    HW288020   4.040   8.132   7.205  0.0510 -3.1501 -1.1862
25321SOL     OW88021   5.751   9.528   0.798  0.0418 -0.5165 -0.2164
25321SOL    HW188022   5.741   9.516   0.700  2.3988 -0.2011 -0.5196
25321SOL    HW288023   5.760   9.439   0.842  1.4809 -0.5736 -0.5970
25322SOL     OW88024   9.272   1.071   4.968  0.1015  0.1421  0.7594
25322SOL    HW188025   9.229   0.983   4.985 -1.1964  0.1466 -2.1150
25322SOL    HW288026   9.201   1.141   4.956  0.8225  0.3394 -3.0457
25323SOL     OW88027   3.136   9.741   6.804  0.2906 -0.4807 -0.5137
25323SOL    HW188028   3.068   9.675   6.772 -0.8427 -0.0181  0.8659
25323SOL    HW288029   3.134   9.822   6.746 -0.4399 -0.4092 -0.3921
25324SOL     OW88030   0.312   9.867   8.854 -0.6779 -0.1876  0.6275
25324SOL    HW188031   0.213   9.868   8.844 -0.7885  2.0042  1.6176
25324SOL    HW288032   0.337   9.832   8.944 -0.6135  0.4061  0.8431
25325SOL     OW88033   0.506   4.958   3.378  0.3113  0.5679  0.3082
25325SOL    HW188034   0.446   4.884   3.411 -0.2227  1.7084  1.9456
25325SOL    HW288035   0.517   4.949   3.279 -1.0471 -0.7760  0.2476
25326SOL     OW88036   8.336   8.746   6.780  0.6663 -0.9700 -0.9240
25326SOL    HW188037   8.357   8.680   6.708 -1.1991 -1.8914 -0.6617
25326SOL    HW288038   8.274   8.815   6.744  0.5310 -0.8586 -0.4814
25327SOL     OW88039   1.462   8.309   0.367  0.0388 -0.5060 -0.0897
25327SOL    HW188040   1.422   8.344   0.452 -2.1372  0.2225 -1.3726
25327SOL    HW288041   1.389   8.272   0.309  1.3646  0.0313 -2.1310
25328SOL     OW88042   0.220   5.961   5.173 -0.0458 -0.3187  0.1157
25328SOL    HW188043   0.254   6.008   5.255 -1.5733 -0.3157  0.7685
25328SOL    HW288044   0.223   5.862   5.187  0.6274 -0.3463 -0.2138
25329SOL     OW88045   5.851   7.877   6.829 -0.0634  0.0839  0.2196
25329SOL    HW188046   5.861   7.790   6.781  0.3177  0.4790 -0.4293
25329SOL    HW288047   5.861   7.863   6.928  2.9275 -0.1890 -0.0677
25330SOL     OW88048   3.599   2.899   8.940 -0.3491 -0.0429  0.1132
25330SOL    HW188049   3.612   2.815   8.992 -1.7237  0.3165  1.0824
25330SOL    HW288050   3.593   2.879   8.843  3.9096 -0.5698 -0.1474
25331SOL     OW88051   8.744   8.536   9.909  0.9334  0.2092  0.5813
25331SOL    HW188052   8.771   8.488   9.992  1.9804 -3.0803 -1.5739
25331SOL    HW288053   8.823   8.544   9.848 -0.3204  0.6513 -1.0281
25332SOL     OW88054   0.388   4.725   8.471  0.0335  0.2300  0.1390
25332SOL    HW188055   0.342   4.660   8.531 -0.5890  0.1967 -0.3655
25332SOL    HW288056   0.423   4.802   8.525 -2.5958  1.3893  0.2878
25333SOL     OW88057   4.682   8.806   8.579 -0.2105  0.0705  0.2222
25333SOL    HW188058   4.701   8.710   8.558  0.9983  0.2304  0.5894
25333SOL    HW288059   4.764   8.861   8.563 -1.2975  1.2761 -1.3864
25334SOL     OW88060   7.999   6.986   6.689  0.1147 -0.6998  0.5327
25334SOL    HW188061   8.079   7.040   6.717 -1.0894  0.2771  2.1443
25334SOL    HW288062   7.953   6.950   6.770 -1.1833 -1.1202 -0.3793
25335SOL     OW88063   5.865   7.973   6.444 -0.5292 -0.6630 -0.0394
25335SOL    HW188064   5.773   7.937   6.430 -0.1619 -1.4322 -0.4929
25335SOL    HW288065   5.859   8.062   6.489 -1.5625 -0.0566 -1.3107
25336SOL     OW88066   5.366   0.618   3.249 -0.1026 -0.2708 -0.1209
25336SOL    HW188067   5.333   0.686   3.183 -1.5222  0.4961  1.3712
25336SOL    HW288068   5.395   0.535   3.199  1.5500  1.3475 -1.9459
25337SOL     OW88069   7.641   9.792   7.274  0.1563  0.2270  0.3618
25337SOL    HW188070   7.640   9.766   7.370  0.2408  0.6532  0.4773
25337SOL    HW288071   7.617   9.713   7.218 -1.0902  0.2837  0.8028
25338SOL     OW88072   1.267   0.340   3.853  0.1790 -0.5121  0.5766
25338SOL    HW188073   1.275   0.265   3.920  0.1606 -0.9466  0.0926
25338SOL    HW288074   1.324   0.320   3.774  0.8545  0.4134  0.8302
25339SOL     OW88075   5.811   0.565   6.275  0.5810 -0.3027 -0.3575
25339SOL    HW188076   5.831   0.564   6.373  2.1286  1.2645 -0.6400
25339SOL    HW288077   5.720   0.605   6.260  0.8610  0.6108  0.3576
25340SOL     OW88078   1.535   7.260   0.683 -0.4542  0.1842 -0.3785
25340SOL    HW188079   1.630   7.232   0.697 -0.2272  0.6283 -1.0138
25340SOL    HW288080   1.480   7.231   0.761 -0.1575 -1.7332 -0.8688
25341SOL     OW88081   2.617   3.802   9.379 -0.3894  0.4424  0.3286
25341SOL    HW188082   2.595   3.789   9.283 -1.1459 -0.2060  0.5854
25341SOL    HW288083   2.699   3.749   9.402 -0.9359 -0.4081  0.3363
25342SOL     OW88084   1.777   2.648   7.787 -0.2442 -0.2387  0.7383
25342SOL    HW188085   1.712   2.651   7.863 -0.7552  0.8284  0.2788
25342SOL    HW288086   1.792   2.741   7.754  1.7444 -0.4540  1.0284
25343SOL     OW88087   6.683   0.935   2.866  0.0011 -0.1783  0.4486
25343SOL    HW188088   6.593   0.948   2.908 -0.5468  0.0485 -0.7739
25343SOL    HW288089   6.709   0.839   2.872  1.0659  0.2414  3.5364
25344SOL     OW88090   7.876   0.388   2.074 -0.0178  0.7658 -0.0746
25344SOL    HW188091   7.879   0.486   2.097  2.0287  1.0986 -1.6056
25344SOL    HW288092   7.966   0.348   2.089 -0.2604 -0.3887 -1.5544
25345SOL     OW88093   9.701   7.284   3.525 -0.1056 -0.2535 -0.2997
25345SOL    HW188094   9.673   7.220   3.597 -0.3748  0.7701  0.5210
25345SOL    HW288095   9.791   7.257   3.490  0.1213 -0.6339  0.5643
25346SOL     OW88096   1.170   7.380   9.785  0.4209  0.4174  0.1137
25346SOL    HW188097   1.268   7.360   9.780  0.5107  0.7934  0.3728
25346SOL    HW288098   1.121   7.317   9.725  1.0053  1.4440 -1.4913
25347SOL     OW88099   8.705   5.570   6.921  0.0660  0.0604  0.2791
25347SOL    HW188100   8.676   5.483   6.962 -1.1764  0.9228  1.2664
25347SOL    HW288101   8.637   5.600   6.855  1.5544 -0.7912 -1.6913
25348SOL     OW88102   7.879   9.992   7.249  0.1256  0.0616 -0.4406
25348SOL    HW188103   7.828   9.928   7.307 -2.6176  2.4035 -0.1737
25348SOL    HW288104   7.874   9.962   7.154 -0.6603 -0.4064 -0.2561
25349SOL     OW88105   2.546   8.155   5.502 -0.3685 -0.2360  0.2613
25349SOL    HW188106   2.635   8.136   5.544  0.1912  1.3923 -0.1465
25349SOL    HW288107   2.473   8.133   5.567  0.3102 -1.6494  0.5735
25350SOL     OW88108   4.044   6.797   2.013  0.1686  0.1674 -0.2921
25350SOL    HW188109   4.013   6.706   1.985 -1.4838  1.1235 -1.6892
25350SOL    HW288110   4.087   6.792   2.103 -3.0328 -1.4340  1.2116
25351SOL     OW88111   1.211   7.313   7.564  0.2426 -0.4331 -0.0107
25351SOL    HW188112   1.153   7.298   7.484  0.5193  2.8844 -0.8749
25351SOL    HW288113   1.154   7.318   7.646 -0.3070 -1.0653 -0.3492
25352SOL     OW88114   1.019   5.150   8.582 -0.4636  0.4415 -0.5438
25352SOL    HW188115   0.940   5.110   8.628 -0.8378 -0.0271 -1.5678
25352SOL    HW288116   1.098   5.090   8.590 -0.2063  0.9174  0.4964
25353SOL     OW88117   2.520   1.077   9.591 -0.1941 -0.5174  0.6772
25353SOL    HW188118   2.599   1.038   9.638 -0.2628 -1.3663  0.0992
25353SOL    HW288119   2.551   1.138   9.518 -0.0811  0.0772  1.2236
25354SOL     OW88120   2.979   5.627   3.486  0.3775  0.1998 -0.0749
25354SOL    HW188121   2.937   5.553   3.432  1.5147  0.6916 -1.6822
25354SOL    HW288122   2.930   5.712   3.470 -1.5586 -0.3542  2.5579
25355SOL     OW88123   0.266   9.575   7.084  0.0076 -0.1276 -0.0250
25355SOL    HW188124   0.203   9.652   7.076  2.0012  1.7652  1.7842
25355SOL    HW288125   0.328   9.575   7.006  2.4497  2.4740  1.7951
25356SOL     OW88126   7.573   9.147   6.941  0.4185  0.4867  0.0219
25356SOL    HW188127   7.664   9.106   6.940  0.5146  0.6568  1.1207
25356SOL    HW288128   7.531   9.136   6.852  1.5209  0.4074 -0.4982
25357SOL     OW88129   8.738   3.190   2.247  0.6516  0.0760 -0.2468
25357SOL    HW188130   8.676   3.142   2.310 -0.6059 -0.2156 -1.6576
25357SOL    HW288131   8.785   3.263   2.295  0.4352 -0.7626  1.2613
25358SOL     OW88132   7.357   0.044   6.459 -0.1224 -0.1614 -0.5709
25358SOL    HW188133   7.366   0.026   6.557  0.8895  0.7858 -0.4813
25358SOL    HW288134   7.398   0.132   6.437 -1.7481  0.3653 -1.6023
25359SOL     OW88135   8.390   2.843   7.555  0.0836  0.5878 -0.2182
25359SOL    HW188136   8.447   2.900   7.495  0.1137  0.5667 -0.2094
25359SOL    HW288137   8.295   2.874   7.549 -0.1872 -0.4656 -1.5117
25360SOL     OW88138   8.612   5.360   3.977 -0.2693  0.1121 -0.0812
25360SOL    HW188139   8.620   5.290   4.048 -1.3579  0.3050  0.2268
25360SOL    HW288140   8.555   5.326   3.903 -1.2280  0.8695  0.3071
25361SOL     OW88141   9.852   5.798   6.519  0.4575  0.2644 -0.2772
25361SOL    HW188142   9.791   5.781   6.441  0.8641  0.8241 -0.7158
25361SOL    HW288143   9.901   5.884   6.505  2.4234 -0.8829 -0.5977
25362SOL     OW88144   8.563   8.132   6.397  0.3419  0.1963  0.2591
25362SOL    HW188145   8.547   8.055   6.334 -0.9058 -1.0022  1.9850
25362SOL    HW288146   8.655   8.125   6.435  0.3870 -0.2013  0.0821
25363SOL     OW88147   2.800   1.016   7.283  0.4515  0.1886  0.3041
25363SOL    HW188148   2.764   1.108   7.267  1.6213  0.5754 -0.1314
25363SOL    HW288149   2.815   0.970   7.195 -1.0163 -0.7703  0.5435
25364SOL     OW88150   9.931   4.972   4.770 -0.0552 -0.2878 -0.2357
25364SOL    HW188151   9.852   5.008   4.720  0.0294  1.3162  0.7463
25364SOL    HW288152   9.967   5.043   4.830  1.0818 -1.5629  0.6108
25365SOL     OW88153   3.130   6.803   4.754 -0.3558 -0.2826 -0.5039
25365SOL    HW188154   3.109   6.715   4.798  1.4720 -1.1573 -1.3287
25365SOL    HW288155   3.215   6.795   4.702 -0.8526  1.6258 -1.6549
25366SOL     OW88156   0.189   9.425   3.677  0.0607 -0.0564  0.0843
25366SOL    HW188157   0.185   9.525   3.672 -0.5849  0.0400  1.9382
25366SOL    HW288158   0.262   9.398   3.741 -0.0342 -0.7560 -0.0972
25367SOL     OW88159   0.121   8.994   3.443  0.0084  0.5802  0.5556
25367SOL    HW188160   0.103   8.907   3.398 -0.1649 -0.1144  1.9215
25367SOL    HW288161   0.148   9.063   3.375 -2.1331  0.1020 -0.8162
25368SOL     OW88162   6.430   6.023   1.659  0.2729 -0.0940  0.1411
25368SOL    HW188163   6.447   6.112   1.699  0.2057 -0.3304  0.6930
25368SOL    HW288164   6.517   5.980   1.634  0.3759 -0.4096  1.0350
25369SOL     OW88165   1.124   4.530   0.071  0.5276 -0.0991 -0.6349
25369SOL    HW188166   1.085   4.450   0.116 -1.2941  1.5207  0.7205
25369SOL    HW288167   1.175   4.585   0.138 -1.4236  1.8384 -0.7066
25370SOL     OW88168   4.239   6.669   2.929 -0.3459  0.0595 -0.0625
25370SOL    HW188169   4.215   6.724   3.009 -1.1248 -1.8827  1.0737
25370SOL    HW288170   4.335   6.684   2.905 -0.3046  1.2030  0.7955
25371SOL     OW88171   4.236   8.060   9.338 -0.1992  0.3919 -0.1131
25371SOL    HW188172   4.217   8.012   9.252 -0.4400  1.2839 -0.5650
25371SOL    HW288173   4.158   8.118   9.362 -0.2581 -0.0703  0.8703
25372SOL     OW88174   1.308   0.231   9.664  0.1845 -0.5346  0.0373
25372SOL    HW188175   1.262   0.315   9.692  0.0247 -0.8905  0.8698
25372SOL    HW288176   1.401   0.252   9.635  0.2608 -0.1199  0.5854
25373SOL     OW88177   2.387   3.141   4.387 -0.4047  0.3722 -0.3327
25373SOL    HW188178   2.461   3.199   4.419 -0.8271 -0.4542  2.2338
25373SOL    HW288179   2.321   3.197   4.335  0.1968  1.7727  0.3839
25374SOL     OW88180   9.897   6.988   5.762 -0.1569 -0.4357 -0.1930
25374SOL    HW188181   9.926   6.895   5.784  0.3405 -0.6760 -1.7933
25374SOL    HW288182   9.976   7.042   5.733 -0.0073  1.2174  3.0527
25375SOL     OW88183   4.891   1.151   3.673 -0.3687 -0.2386 -0.3838
25375SOL    HW188184   4.963   1.098   3.629  1.2005  1.1452  0.4745
25375SOL    HW288185   4.889   1.131   3.771 -1.7325 -0.8986 -0.5248
25376SOL     OW88186   4.188   9.389   2.616  0.0615  0.2409  0.1844
25376SOL    HW188187   4.099   9.360   2.651  0.2303  0.7806  1.0916
25376SOL    HW288188   4.208   9.481   2.649  1.5722 -0.4174  1.1648
25377SOL     OW88189   7.113   6.461   7.756  0.3017 -0.1354 -0.3272
25377SOL    HW188190   7.205   6.422   7.766  0.1999 -0.0512  1.0362
25377SOL    HW288191   7.045   6.392   7.778  0.0064 -0.3183 -1.7282
25378SOL     OW88192   9.913   6.672   0.750  0.2200  0.6294 -0.0823
25378SOL    HW188193   9.951   6.658   0.658 -1.6759 -0.1087 -0.7850
25378SOL    HW288194   9.973   6.631   0.818  0.6623 -0.5171 -1.1518
25379SOL     OW88195   5.278   5.511   2.468 -0.5213 -0.1919 -0.2875
25379SOL    HW188196   5.311   5.434   2.413 -0.1935 -0.1695 -0.1200
25379SOL    HW288197   5.346   5.585   2.467  0.0463 -0.6903  1.1866
25380SOL     OW88198   8.845   1.486   6.999  0.1957  0.3790 -0.0849
25380SOL    HW188199   8.809   1.410   6.945 -0.6409  1.2745 -0.8045
25380SOL    HW288200   8.857   1.566   6.940  0.2222  1.0673  0.8510
25381SOL     OW88201   9.112   1.279   4.860 -0.4557 -0.1292  0.6566
25381SOL    HW188202   9.174   1.345   4.902  0.8614 -2.2614  2.1551
25381SOL    HW288203   9.023   1.323   4.845  0.3486  1.9601  1.6693
25382SOL     OW88204   6.223   8.596   9.097  0.1757 -0.5158 -0.3004
25382SOL    HW188205   6.297   8.660   9.119  1.4604 -1.2246 -2.4569
25382SOL    HW288206   6.205   8.538   9.177  0.6186  0.9286  0.8825
25383SOL     OW88207   3.546   5.753   3.647 -0.4086  0.0803 -0.1439
25383SOL    HW188208   3.573   5.782   3.555 -4.1717  0.0849 -1.3616
25383SOL    HW288209   3.476   5.815   3.682 -0.9919 -1.4862  1.5756
25384SOL     OW88210   1.437   4.841   7.765  0.1168  0.7238  0.6923
25384SOL    HW188211   1.516   4.902   7.767 -0.1412  1.1194 -0.6319
25384SOL    HW288212   1.420   4.805   7.857  3.0688 -0.9740  0.6364
25385SOL     OW88213   7.045   1.135   7.837 -0.9645 -0.1145 -0.2739
25385SOL    HW188214   7.018   1.110   7.744 -1.6163 -0.1934 -0.0634
25385SOL    HW288215   7.030   1.057   7.898  0.3943 -0.3990 -0.2769
25386SOL     OW88216   5.816   6.628   2.314 -0.5187 -0.1082  0.9910
25386SOL    HW188217   5.812   6.532   2.288 -2.5474 -0.1506  1.3878
25386SOL    HW288218   5.839   6.683   2.234  0.7728 -0.9194  0.7859
25387SOL     OW88219   0.690   3.664   7.633  0.0819 -0.7645 -0.7516
25387SOL    HW188220   0.761   3.596   7.651  0.5083  0.4112  2.1895
25387SOL    HW288221   0.612   3.619   7.589  1.1311 -2.7802 -0.6076
25388SOL     OW88222   2.266   6.428   3.936  0.1862 -0.0069 -0.3422
25388SOL    HW188223   2.326   6.404   3.860 -0.7211 -2.3873 -0.3605
25388SOL    HW288224   2.315   6.414   4.022 -0.3624 -2.1289 -0.3510
25389SOL     OW88225   6.112   8.590   8.604  0.3737 -0.7638 -0.2183
25389SOL    HW188226   6.175   8.543   8.665  0.8591  0.3437  0.1459
25389SOL    HW288227   6.164   8.646   8.540 -0.1531 -1.5518 -1.3549
25390SOL     OW88228   9.826   6.259   7.829 -0.3195  0.4342 -0.1490
25390SOL    HW188229   9.765   6.182   7.847 -0.4714  0.3687 -0.9524
25390SOL    HW288230   9.827   6.320   7.908 -0.2644 -0.3506  0.4554
25391SOL     OW88231   9.281   1.898   4.565  0.3445  0.0999 -0.7142
25391SOL    HW188232   9.193   1.853   4.556  0.5493 -0.2848 -0.7946
25391SOL    HW288233   9.306   1.940   4.477 -1.8070  4.0271  0.4454
25392SOL     OW88234   2.594   5.214   7.910  0.0217 -0.1923 -0.2008
25392SOL    HW188235   2.668   5.147   7.908 -0.5433 -0.8659  0.7422
25392SOL    HW288236   2.599   5.267   7.994  0.0028  0.4169 -0.5812
25393SOL     OW88237   6.805   9.811   6.509  0.7824  0.6657  0.0049
25393SOL    HW188238   6.715   9.772   6.488  1.8846 -2.5320  0.8297
25393SOL    HW288239   6.822   9.802   6.608  1.2568  2.9240  0.1399
25394SOL     OW88240   2.622   2.549   2.357 -0.1169  0.3533 -0.0483
25394SOL    HW188241   2.603   2.600   2.441 -0.9488  3.1870 -1.8551
25394SOL    HW288242   2.535   2.521   2.315  0.2594 -0.3850 -0.3340
25395SOL     OW88243   6.443   2.248   3.045  0.1741 -0.0397 -0.1005
25395SOL    HW188244   6.371   2.272   2.980 -0.5534 -1.9597 -0.0496
25395SOL    HW288245   6.402   2.222   3.132  1.1363  2.3549  1.1043
25396SOL     OW88246   8.509   6.788   7.540  0.5621 -0.0070 -0.3297
25396SOL    HW188247   8.522   6.690   7.532  2.1026  0.3084 -2.0041
25396SOL    HW288248   8.412   6.807   7.557 -0.1079 -1.7177 -2.0291
25397SOL     OW88249   2.337   2.887   4.987 -0.1081  0.3320 -0.1905
25397SOL    HW188250   2.292   2.850   4.906 -0.2989  1.6039 -0.6690
25397SOL    HW288251   2.269   2.930   5.047  0.2242  0.7021 -0.0726
25398SOL     OW88252   6.583   2.824   3.477  0.5511 -0.5212  0.2626
25398SOL    HW188253   6.605   2.921   3.470 -1.6618  0.1626  2.0996
25398SOL    HW288254   6.667   2.770   3.481  1.7997  1.4491  1.0160
25399SOL     OW88255   7.313   6.729   8.558 -0.1467  0.5021 -0.1921
25399SOL    HW188256   7.387   6.711   8.623  0.4688  1.8492 -0.4947
25399SOL    HW288257   7.351   6.744   8.467 -0.7829  1.0931 -0.3696
25400SOL     OW88258   8.677   8.585   4.305  0.6086 -1.2336 -0.0216
25400SOL    HW188259   8.719   8.633   4.228  0.1629 -1.0484 -0.1523
25400SOL    HW288260   8.677   8.645   4.385 -0.8446 -0.6302 -0.4483
25401SOL     OW88261   9.985   1.361   1.306 -0.0219  0.2757 -0.0465
25401SOL    HW188262   9.951   1.442   1.258 -0.9218 -0.9284 -1.4863
25401SOL    HW288263  10.000   1.287   1.240  0.9049 -0.7070  1.2335
25402SOL     OW88264   9.502   6.826   5.740 -0.3365  0.1915  0.4254
25402SOL    HW188265   9.447   6.880   5.676 -1.3485 -0.8118  0.4251
25402SOL    HW288266   9.511   6.732   5.705  2.8987  0.7595 -0.4756
25403SOL     OW88267   9.015   0.005   8.985 -0.5077  0.1312 -0.1325
25403SOL    HW188268   9.103  -0.039   8.999 -0.0805  0.5266 -1.5775
25403SOL    HW288269   8.944  -0.066   8.973 -0.4996 -0.1865  1.5981
25404SOL     OW88270   9.072   1.534   1.612  0.1485 -0.4031  0.0341
25404SOL    HW188271   9.006   1.494   1.549  0.7284 -0.6545 -0.4157
25404SOL    HW288272   9.048   1.508   1.706 -1.7828  1.4776  0.1127
25405SOL     OW88273   4.031   0.954   9.715 -0.0184 -0.2327  0.4177
25405SOL    HW188274   4.078   0.875   9.675  2.0749 -0.4185  3.0638
25405SOL    HW288275   3.955   0.922   9.771 -0.0029 -0.2851  0.4093
25406SOL     OW88276   7.658   6.963   2.646 -0.3270  0.3032  0.4027
25406SOL    HW188277   7.594   6.907   2.593  0.0573 -0.4862  0.7584
25406SOL    HW288278   7.743   6.974   2.595 -0.1416 -0.0387  0.6342
25407SOL     OW88279   7.300   6.955   3.123  0.4679 -0.2114  0.1253
25407SOL    HW188280   7.300   6.942   3.222  0.5596 -0.6801  0.0682
25407SOL    HW288281   7.371   6.897   3.083  0.7396  0.3301 -0.1694
25408SOL     OW88282   5.966   6.215   6.201  0.2123 -0.2370  0.5247
25408SOL    HW188283   5.867   6.222   6.211  0.0628 -1.2285 -0.2126
25408SOL    HW288284   6.008   6.304   6.220 -0.9628  0.6510 -0.9143
25409SOL     OW88285   3.338   9.050   2.354 -0.1057  0.0155  0.1841
25409SOL    HW188286   3.272   9.125   2.360  1.3895  1.3409  0.4256
25409SOL    HW288287   3.365   9.022   2.446  0.6958  0.4293  0.0857
25410SOL     OW88288   1.606   7.939   5.016  0.1348 -0.0260  0.1745
25410SOL    HW188289   1.640   8.032   5.034  2.6182 -1.0323  0.8961
25410SOL    HW288290   1.514   7.930   5.054  0.1200  1.9484  0.6681
25411SOL     OW88291   8.242   8.677   6.139  0.3132 -0.4797 -0.2931
25411SOL    HW188292   8.144   8.669   6.125  0.5164 -0.7304 -1.6086
25411SOL    HW288293   8.266   8.640   6.229 -0.9012  0.4081  0.4091
25412SOL     OW88294   8.844   2.631   3.927  0.4150 -0.2090  0.0371
25412SOL    HW188295   8.800   2.611   3.839  0.2219  0.2980  0.0191
25412SOL    HW288296   8.807   2.569   3.997 -1.8350  1.5246  0.4655
25413SOL     OW88297   9.453   9.726   4.134 -0.0491 -0.7755 -0.0377
25413SOL    HW188298   9.498   9.698   4.219 -0.6111  2.5541  1.4771
25413SOL    HW288299   9.521   9.745   4.064  0.7213  0.4624  1.0160
25414SOL     OW88300   6.778   5.691   9.616 -0.1710  0.1675 -0.3548
25414SOL    HW188301   6.774   5.779   9.663 -1.4098  1.0252 -2.0039
25414SOL    HW288302   6.706   5.687   9.546 -0.5458 -2.4103  0.1206
25415SOL     OW88303   4.970   5.544   5.253  0.4565 -0.3055 -0.1615
25415SOL    HW188304   4.989   5.584   5.343 -1.9560  2.1104 -0.6544
25415SOL    HW288305   4.909   5.465   5.265 -0.4559  0.4545  0.2764
25416SOL     OW88306   7.388   8.374   6.926 -0.0025  0.1734 -0.1948
25416SOL    HW188307   7.293   8.384   6.957  0.7637  3.0027  1.4349
25416SOL    HW288308   7.390   8.345   6.831 -2.5197  1.7042 -0.7431
25417SOL     OW88309   1.078   3.284   5.162 -0.1012  0.1140 -0.0249
25417SOL    HW188310   1.002   3.307   5.223 -0.7547 -0.4936 -0.6008
25417SOL    HW288311   1.089   3.357   5.094  1.0903  1.1426  1.2356
25418SOL     OW88312   9.964   6.412   4.874 -0.3091  0.4176  0.4315
25418SOL    HW188313  10.057   6.449   4.868 -0.3770  1.3471  4.0408
25418SOL    HW288314   9.903   6.464   4.814  1.0316  1.3281 -0.1612
25419SOL     OW88315   6.759   6.411   3.762  0.1249  0.1674  0.9598
25419SOL    HW188316   6.749   6.470   3.842  0.7979 -0.2527  1.3657
25419SOL    HW288317   6.854   6.415   3.730 -0.0033 -0.1259  0.5398
25420SOL     OW88318   9.605   1.675   7.207 -0.1674  0.3650  0.2690
25420SOL    HW188319   9.561   1.765   7.215 -1.5988 -0.0644 -2.1052
25420SOL    HW288320   9.567   1.627   7.128  0.9223 -2.1589  1.2351
25421SOL     OW88321   3.711   9.719   8.388 -0.7454 -0.0694 -0.0511
25421SOL    HW188322   3.683   9.623   8.386  1.2646 -0.6475 -2.4625
25421SOL    HW288323   3.674   9.767   8.309 -0.5704  0.7960  0.3809
25422SOL     OW88324   6.492   7.452   1.385  0.4330 -0.3060  0.1387
25422SOL    HW188325   6.535   7.539   1.361  1.9933 -0.5989  1.7683
25422SOL    HW288326   6.404   7.469   1.431  0.6901  0.4127  0.3609
25423SOL     OW88327   1.171   7.884   6.161  0.0764 -0.0478 -1.5153
25423SOL    HW188328   1.217   7.859   6.076  0.4776 -2.8087 -0.5334
25423SOL    HW288329   1.087   7.831   6.171  0.1956  0.0064 -0.0443
25424SOL     OW88330   0.272   8.058   6.195  0.2871  0.8793 -0.2541
25424SOL    HW188331   0.276   7.959   6.208  2.3547  0.8828 -0.7659
25424SOL    HW288332   0.189   8.093   6.238 -0.2988 -1.0193  0.2310
25425SOL     OW88333   0.227   4.210   3.697  0.2449 -0.2019  0.0178
25425SOL    HW188334   0.314   4.170   3.668  0.4824 -0.4297  1.0099
25425SOL    HW288335   0.218   4.302   3.659  1.9460  0.6967  1.7165
25426SOL     OW88336   7.751   6.290   6.593 -0.1082  0.1289  0.0237
25426SOL    HW188337   7.782   6.242   6.675  0.4445  1.7344  0.7593
25426SOL    HW288338   7.667   6.247   6.560 -0.3755 -0.4846  1.4676
25427SOL     OW88339   0.125   6.721   2.844 -0.0728  0.5794  0.1561
25427SOL    HW188340   0.026   6.727   2.858 -0.1440 -1.6776  0.6899
25427SOL    HW288341   0.172   6.730   2.932  0.1442  0.5059  0.0474
25428SOL     OW88342   7.789   9.007   7.714  0.3050 -0.2389  0.0839
25428SOL    HW188343   7.850   9.067   7.767 -0.2863  1.0776 -0.7018
25428SOL    HW288344   7.828   8.990   7.624 -0.0945 -0.0328 -0.1337
25429SOL     OW88345   7.041   7.526   4.232  0.8738 -0.0874  0.6149
25429SOL    HW188346   7.017   7.446   4.287  0.6393 -0.3332  0.1561
25429SOL    HW288347   7.044   7.607   4.291  0.8520 -0.3863  1.0306
25430SOL     OW88348   7.032   9.233   6.978  0.3961  0.0490  0.2412
25430SOL    HW188349   7.097   9.310   6.975 -0.5998  0.9459  1.3417
25430SOL    HW288350   6.989   9.229   7.068 -0.4550 -1.0720 -0.2072
25431SOL     OW88351   1.159   1.712   4.148 -0.4550  0.0607 -0.1321
25431SOL    HW188352   1.204   1.685   4.233  0.4377  3.6239  0.6191
25431SOL    HW288353   1.178   1.644   4.077  2.0489 -0.9978  1.4724
25432SOL     OW88354   4.426   8.685   8.888 -0.2371  0.5714 -0.3261
25432SOL    HW188355   4.375   8.751   8.833  0.2222  0.7741 -0.5127
25432SOL    HW288356   4.407   8.593   8.856 -1.8193  0.5277  0.7151
25433SOL     OW88357   5.223   9.737   6.625 -1.2182  0.3085 -0.5363
25433SOL    HW188358   5.146   9.800   6.626 -0.9659  0.6222 -0.7408
25433SOL    HW288359   5.229   9.690   6.713 -0.6862  1.4475  0.0543
25434SOL     OW88360   3.547   7.972   7.727 -0.3535 -0.2668  0.5825
25434SOL    HW188361   3.562   8.015   7.815  0.3131  0.2007  0.2420
25434SOL    HW288362   3.626   7.987   7.668 -0.6888 -0.7851 -0.0104
25435SOL     OW88363   1.705   4.528   1.293  0.0075  0.1383  0.6323
25435SOL    HW188364   1.686   4.535   1.391  1.8696  2.1820  0.8743
25435SOL    HW288365   1.802   4.542   1.277 -0.4788  1.1308 -1.6443
25436SOL     OW88366   9.522   8.827   7.556 -0.5643 -0.5341 -0.3155
25436SOL    HW188367   9.538   8.773   7.639  0.6776 -0.6373 -0.6095
25436SOL    HW288368   9.483   8.916   7.581  1.0411 -0.0430  0.5118
25437SOL     OW88369   5.444   1.064   2.607 -0.0423  0.0888  0.4876
25437SOL    HW188370   5.462   1.132   2.678  0.6401 -0.7491  1.1262
25437SOL    HW288371   5.389   0.989   2.645 -0.0296 -0.1596  0.0241
25438SOL     OW88372   9.761   8.825   0.224 -0.4638  0.0807  0.2073
25438SOL    HW188373   9.818   8.856   0.148 -0.5012  0.3289  0.2808
25438SOL    HW288374   9.819   8.803   0.302 -0.6234  2.5747  1.0840
25439SOL     OW88375   0.475   2.207   5.155 -0.3079 -0.1720  0.3828
25439SOL    HW188376   0.382   2.229   5.187  0.2080 -0.7291  2.3587
25439SOL    HW288377   0.525   2.160   5.228  0.2701 -3.4021 -1.9779
25440SOL     OW88378   3.793   4.811   5.768 -0.4903 -0.3423 -0.5611
25440SOL    HW188379   3.757   4.816   5.862 -0.8872 -0.4489 -0.7053
25440SOL    HW288380   3.868   4.745   5.765 -0.9915 -0.9247 -0.4789
25441SOL     OW88381   4.841   5.239   6.879  0.1430 -0.0330 -0.4721
25441SOL    HW188382   4.762   5.199   6.833 -1.1371  1.1881  0.6212
25441SOL    HW288383   4.826   5.337   6.892  0.5110 -0.3125  2.4468
25442SOL     OW88384   6.484   8.587   5.800  0.3862  0.4483 -0.7390
25442SOL    HW188385   6.522   8.514   5.856  1.0194 -0.3052 -2.1186
25442SOL    HW288386   6.385   8.587   5.809  0.3705 -0.6587 -0.7997
25443SOL     OW88387   4.706   3.553   8.665 -0.1753 -0.0361  0.6464
25443SOL    HW188388   4.764   3.476   8.637 -1.0801 -0.5586  0.1788
25443SOL    HW288389   4.724   3.575   8.761  0.2202 -0.7202  0.7314
25444SOL     OW88390   0.806   1.616   7.451  0.8513 -0.0322  0.1307
25444SOL    HW188391   0.816   1.518   7.435  1.5622  0.0773 -0.1445
25444SOL    HW288392   0.889   1.663   7.419  0.3145  0.7052 -0.1865
25445SOL     OW88393   3.017   1.408   8.840  0.1054 -0.0543 -0.1715
25445SOL    HW188394   2.935   1.465   8.831  0.7733  0.8704 -0.5226
25445SOL    HW288395   3.055   1.419   8.931  0.1248 -0.0807 -0.1772
25446SOL     OW88396   9.847   4.420   8.001  0.0962  0.1537  0.5193
25446SOL    HW188397   9.872   4.388   8.093 -0.5452 -1.2205  0.2213
25446SOL    HW288398   9.904   4.372   7.934 -2.2541 -1.9075 -0.0670
25447SOL     OW88399   9.509   0.607   5.778 -0.4037  0.2764 -0.2298
25447SOL    HW188400   9.550   0.698   5.779 -1.6068  0.8265 -0.1268
25447SOL    HW288401   9.559   0.549   5.714  1.9645  0.2500  1.5807
25448SOL     OW88402   0.004   9.009   8.439 -0.2365  0.0938  0.2118
25448SOL    HW188403  -0.061   8.943   8.402 -0.1317 -0.1309  0.4184
25448SOL    HW288404  -0.009   9.098   8.396 -0.3579 -0.0720 -0.0938
25449SOL     OW88405   1.381   5.149   8.079 -0.3048  0.3765 -0.2011
25449SOL    HW188406   1.317   5.073   8.065  0.2527 -0.5024  1.7818
25449SOL    HW288407   1.413   5.183   7.991 -2.2941 -0.2098 -1.1673
25450SOL     OW88408   2.725   7.320   6.300 -0.0529 -0.5555 -0.8486
25450SOL    HW188409   2.811   7.367   6.281 -0.8770  0.9236 -0.9445
25450SOL    HW288410   2.674   7.306   6.214 -0.6550  0.0333 -0.5899
25451SOL     OW88411   8.169   7.831   7.066 -0.0640 -0.5758 -0.1719
25451SOL    HW188412   8.207   7.835   6.974 -0.6563  1.6799 -0.3576
25451SOL    HW288413   8.071   7.811   7.061  0.1758 -1.8089  0.0437
25452SOL     OW88414   8.644   8.300   5.256 -0.4851 -0.7684  0.9161
25452SOL    HW188415   8.686   8.248   5.182 -2.2742  0.4124 -0.9830
25452SOL    HW288416   8.682   8.393   5.256 -0.7046 -0.6771  1.3281
25453SOL     OW88417   4.716   8.649   6.929  0.3804 -0.3058 -0.6800
25453SOL    HW188418   4.724   8.559   6.887  1.0946  0.4181 -2.1043
25453SOL    HW288419   4.782   8.712   6.888 -0.9908  1.2111 -0.6307
25454SOL     OW88420   9.079   9.658   4.367  0.4932 -0.9006  0.4512
25454SOL    HW188421   9.081   9.594   4.444  0.2865  0.1279  1.3244
25454SOL    HW288422   9.059   9.608   4.283 -0.4681 -1.8700  1.2394
25455SOL     OW88423   7.739   7.426   6.152 -0.2832  0.2481  0.3154
25455SOL    HW188424   7.795   7.446   6.232  0.0675  0.2645  0.0655
25455SOL    HW288425   7.798   7.414   6.072 -0.6326  0.2394  0.0580
25456SOL     OW88426   8.041   5.644   8.140  0.1609 -0.3995  0.4941
25456SOL    HW188427   7.992   5.649   8.227  0.0795  0.9416  0.3742
25456SOL    HW288428   8.110   5.716   8.136 -1.2887  0.9436 -1.4392
25457SOL     OW88429   1.459   2.282   2.365 -0.6115  0.1024 -0.0945
25457SOL    HW188430   1.508   2.208   2.409  0.3152 -0.8363 -2.5905
25457SOL    HW288431   1.523   2.357   2.344 -0.9506  0.3749 -0.1684
25458SOL     OW88432   0.272   6.177   1.551 -0.0871 -0.1735 -0.1312
25458SOL    HW188433   0.256   6.084   1.520  0.6674  0.2447 -1.8036
25458SOL    HW288434   0.274   6.239   1.473 -1.0382  1.3214  1.0030
25459SOL     OW88435   9.313   8.125   8.631  0.1137  0.5498 -0.1020
25459SOL    HW188436   9.407   8.154   8.648 -0.0887  0.1416  1.8121
25459SOL    HW288437   9.274   8.182   8.558  1.8171  0.7367 -0.9045
25460SOL     OW88438   6.182   7.634   7.566 -0.4511 -0.3949  0.3445
25460SOL    HW188439   6.164   7.620   7.663  0.8758 -0.9937  0.5189
25460SOL    HW288440   6.273   7.675   7.555 -0.4100 -0.7436 -0.6631
25461SOL     OW88441   9.245   1.764   2.003  0.6322 -0.0446 -0.2031
25461SOL    HW188442   9.271   1.854   1.968  1.3181 -0.1801 -0.0542
25461SOL    HW288443   9.303   1.694   1.960 -0.2686 -0.4653 -0.7289
25462SOL     OW88444   7.374   8.889   3.202  0.3311 -0.7386 -0.1705
25462SOL    HW188445   7.451   8.926   3.152  1.4884 -0.2049  1.9355
25462SOL    HW288446   7.311   8.962   3.227 -0.7166 -1.1259 -1.5810
25463SOL     OW88447   6.193   8.215   0.081 -0.8639  0.4278 -0.1188
25463SOL    HW188448   6.145   8.303   0.075 -0.7753  0.4976  0.1897
25463SOL    HW288449   6.243   8.210   0.167 -1.7419 -0.3685  0.3496
25464SOL     OW88450   5.182   5.589   6.026  0.2353 -0.2236 -1.0624
25464SOL    HW188451   5.110   5.644   5.985 -0.2246 -0.1623 -0.1949
25464SOL    HW288452   5.175   5.494   5.995 -0.6431 -0.3621 -0.4482
25465SOL     OW88453   3.374   0.143   1.240  0.0796  0.4028 -0.2254
25465SOL    HW188454   3.351   0.208   1.313 -0.1707 -1.7841  1.6943
25465SOL    HW288455   3.441   0.077   1.274  0.9825  0.1423 -2.4139
25466SOL     OW88456   3.763   8.698   3.606 -0.2501  0.0846  0.0478
25466SOL    HW188457   3.764   8.798   3.598 -0.3398  0.2161  1.4789
25466SOL    HW288458   3.806   8.657   3.526  1.0499  1.3188  0.1002
25467SOL     OW88459   7.664   5.540   6.389  0.4225  0.5598 -0.0634
25467SOL    HW188460   7.722   5.553   6.469  0.0624  0.8903  0.1509
25467SOL    HW288461   7.596   5.614   6.385  0.4069  0.5210 -0.6477
25468SOL     OW88462   8.993   2.022   8.540  1.0254 -0.1139  0.0404
25468SOL    HW188463   9.059   2.088   8.505  1.8543 -0.2974  1.2164
25468SOL    HW288464   9.041   1.949   8.589 -0.0003 -0.6164  0.3187
25469SOL     OW88465   0.931   9.308   0.230  0.6132 -0.3405  0.6374
25469SOL    HW188466   1.021   9.282   0.197  0.8216  0.8383  0.2549
25469SOL    HW288467   0.878   9.346   0.154 -0.7763 -2.4811  0.4862
25470SOL     OW88468   1.123   5.061   4.505 -0.1705  0.6745 -0.1368
25470SOL    HW188469   1.134   5.142   4.446 -0.0803  1.1230  0.4924
25470SOL    HW288470   1.040   5.012   4.477  0.3350  0.4020 -1.2013
25471SOL     OW88471   0.580   4.669   3.527 -0.2072  0.0941  0.3269
25471SOL    HW188472   0.520   4.681   3.606 -0.6700 -0.4218  0.0526
25471SOL    HW288473   0.545   4.596   3.468 -0.0079  0.6457 -0.4911
25472SOL     OW88474   0.688   8.926   4.162 -0.3341  0.2419  0.2725
25472SOL    HW188475   0.694   8.827   4.174 -0.9226  0.2457  0.5777
25472SOL    HW288476   0.749   8.972   4.227 -0.6383  0.1081  0.6568
25473SOL     OW88477   9.402   8.939   2.654 -0.4008 -0.3198  0.1999
25473SOL    HW188478   9.457   9.022   2.648  0.5844 -1.0142 -0.4444
25473SOL    HW288479   9.316   8.952   2.606  0.4815 -0.2432 -1.3775
25474SOL     OW88480   1.025   9.179   4.361  0.0042  0.1571 -0.1134
25474SOL    HW188481   1.068   9.130   4.285  0.8473 -1.0621  1.1218
25474SOL    HW288482   1.011   9.275   4.336  0.1584 -0.2639 -1.8437
25475SOL     OW88483   4.695   4.925   8.886 -0.5797 -0.1697  0.0914
25475SOL    HW188484   4.706   4.930   8.787 -1.0008 -1.2269 -0.0144
25475SOL    HW288485   4.625   4.990   8.916  1.3044  1.9515  0.0052
25476SOL     OW88486   9.844   6.108   6.758 -0.7920 -0.3943 -0.2086
25476SOL    HW188487   9.795   6.171   6.817  0.6102  0.5964 -0.0989
25476SOL    HW288488   9.851   6.147   6.666  0.6161 -0.1131  0.0166
25477SOL     OW88489   8.987   0.638   5.970 -0.4144 -0.2414 -0.3125
25477SOL    HW188490   9.003   0.552   6.019 -0.4033 -0.7695 -1.2316
25477SOL    HW288491   9.072   0.690   5.965 -0.5941  0.2059  0.9429
25478SOL     OW88492   7.536   8.671   6.007  0.7960 -0.4358  0.1831
25478SOL    HW188493   7.500   8.759   6.040 -0.5395 -0.6774 -0.6056
25478SOL    HW288494   7.579   8.684   5.918  0.2653 -0.6539 -0.1038
25479SOL     OW88495   3.252   9.700   7.691  0.2728  0.0476 -0.1065
25479SOL    HW188496   3.304   9.761   7.751 -0.4493  1.5838 -0.9788
25479SOL    HW288497   3.284   9.606   7.701  1.0224  0.4845  1.7180
25480SOL     OW88498   7.063   6.647   8.476 -0.4951  0.7461 -0.1875
25480SOL    HW188499   7.029   6.741   8.486  0.9490  1.5177 -2.2005
25480SOL    HW288500   7.161   6.645   8.495 -0.6740 -0.5332  0.6605
25481SOL     OW88501   1.059   9.117   7.976  0.1480 -0.0279  0.5935
25481SOL    HW188502   1.142   9.090   8.026  0.0719  0.0641  0.7706
25481SOL    HW288503   1.011   9.035   7.946  0.9183 -0.0741 -0.5377
25482SOL     OW88504   3.908   7.005   4.446  0.3218  0.4120  0.1137
25482SOL    HW188505   4.006   6.995   4.463  0.3954  1.0009  0.0357
25482SOL    HW288506   3.859   7.002   4.533  0.3365 -0.6670  0.0933
25483SOL     OW88507   4.498   8.693   6.349  0.0461  0.0711 -0.3193
25483SOL    HW188508   4.413   8.648   6.378 -1.1202  3.5516  2.1138
25483SOL    HW288509   4.575   8.655   6.398 -0.6836 -0.4006  0.4643
25484SOL     OW88510   3.580   9.104   5.063  0.0334 -0.0225 -0.3501
25484SOL    HW188511   3.602   9.014   5.024 -2.6539 -0.9674  0.1835
25484SOL    HW288512   3.528   9.092   5.148 -2.0336  2.0095 -1.2714
25485SOL     OW88513   1.667   6.344   3.260 -0.0148 -0.4582 -0.4332
25485SOL    HW188514   1.599   6.334   3.187  1.1874  1.6254 -1.8705
25485SOL    HW288515   1.665   6.437   3.296  2.2211 -0.3059 -0.6409
25486SOL     OW88516   5.066   0.771   1.388 -0.0019 -0.4838 -0.0666
25486SOL    HW188517   5.087   0.861   1.425 -0.7859  0.1945 -1.2691
25486SOL    HW288518   4.967   0.757   1.387  0.1193 -1.4725  0.3526
25487SOL     OW88519   4.690   8.449   4.206  0.1773  0.3853 -0.1389
25487SOL    HW188520   4.789   8.455   4.222  0.0340 -3.2707  2.7558
25487SOL    HW288521   4.642   8.501   4.276 -0.0175 -0.8835  0.6806
25488SOL     OW88522   6.885   9.172   5.538 -0.0034 -0.8371 -0.7136
25488SOL    HW188523   6.848   9.146   5.449  0.6536  0.3335 -1.3448
25488SOL    HW288524   6.903   9.090   5.593 -1.1219 -1.5234 -1.3689
25489SOL     OW88525   8.675   8.312   4.437 -0.1125 -0.5579 -0.1266
25489SOL    HW188526   8.700   8.408   4.448  2.0997 -0.9772 -1.0633
25489SOL    HW288527   8.579   8.299   4.460  0.3580  1.2855  3.0877
25490SOL     OW88528   1.192   1.043   4.403 -0.3606  0.6324 -0.2705
25490SOL    HW188529   1.197   1.072   4.307  0.1406 -0.1074 -0.4658
25490SOL    HW288530   1.274   1.073   4.451 -1.2735  2.3186  0.3034
25491SOL     OW88531   2.352   8.729   6.502  0.3484  0.0684  0.0883
25491SOL    HW188532   2.447   8.733   6.471 -0.3702  1.3452 -2.0360
25491SOL    HW288533   2.301   8.666   6.445 -0.5021  0.8006  0.0236
25492SOL     OW88534   0.811   6.947   3.723 -0.1139 -0.1132 -0.7604
25492SOL    HW188535   0.807   7.033   3.773  2.3135  0.1124 -0.8768
25492SOL    HW288536   0.809   6.965   3.625  2.6772  0.0179 -0.8272
25493SOL     OW88537   7.690   1.690   4.072  0.2330  0.5330  0.2079
25493SOL    HW188538   7.704   1.613   4.134 -1.2577  0.0009 -0.0845
25493SOL    HW288539   7.631   1.758   4.115 -0.2128  0.5003 -0.3394
25494SOL     OW88540   6.343   5.901   5.216 -0.8521 -0.0740  0.1270
25494SOL    HW188541   6.351   5.863   5.124 -1.4232  1.1883 -0.4502
25494SOL    HW288542   6.309   5.995   5.211 -0.0360  0.3192  1.5727
25495SOL     OW88543   1.812   4.805   7.030  0.1614 -0.2742 -0.3013
25495SOL    HW188544   1.878   4.776   7.100 -0.8277 -1.1440  0.2915
25495SOL    HW288545   1.857   4.811   6.942  1.3439  0.4542  0.3513
25496SOL     OW88546   7.454   7.746   7.925 -0.6676 -0.3830  0.0395
25496SOL    HW188547   7.518   7.718   7.996 -1.6474  1.3333  1.6499
25496SOL    HW288548   7.494   7.820   7.871  0.1335 -1.7837 -1.3131
25497SOL     OW88549   1.463   9.221   2.881  0.4202  0.4118  0.4097
25497SOL    HW188550   1.458   9.312   2.923  1.5214  0.4691  0.4297
25497SOL    HW288551   1.373   9.178   2.886 -0.1152  1.4984  0.3966
25498SOL     OW88552   0.718   6.346   1.120  0.0046 -0.8093  0.3332
25498SOL    HW188553   0.730   6.373   1.025  1.5327 -1.8554  0.2216
25498SOL    HW288554   0.783   6.274   1.143 -0.9038 -1.1409  1.9392
25499SOL     OW88555   3.446   0.457   2.338 -0.0692 -0.4280 -0.2033
25499SOL    HW188556   3.361   0.432   2.292  0.0636 -1.8583  0.3089
25499SOL    HW288557   3.434   0.447   2.437  0.5368 -0.1282 -0.0961
25500SOL     OW88558   0.011   7.570   9.203  0.6922  0.0208  0.4069
25500SOL    HW188559   0.072   7.559   9.281  0.1017 -0.0763  0.8638
25500SOL    HW288560   0.061   7.557   9.118  0.8635 -2.1544  0.8276
25501SOL     OW88561   7.416   4.816   4.967  0.6845 -0.1495  0.1000
25501SOL    HW188562   7.369   4.749   4.910  0.2712  0.5551 -0.3984
25501SOL    HW288563   7.371   4.821   5.057 -0.1855  0.4930 -0.3596
25502SOL     OW88564   9.923   9.354   3.638  0.4145  0.2476 -0.0002
25502SOL    HW188565   9.887   9.322   3.726  0.3762  0.2739 -0.0067
25502SOL    HW288566  10.020   9.374   3.647  0.1687  1.3285  0.3237
25503SOL     OW88567   9.185   4.966   3.120  0.3115 -0.4600  0.5801
25503SOL    HW188568   9.212   4.886   3.066  1.1978  0.7985 -0.8972
25503SOL    HW288569   9.267   5.012   3.155 -0.0088  1.3062 -0.8608
25504SOL     OW88570   8.129   9.693   4.767  0.0266  0.7048  0.3836
25504SOL    HW188571   8.104   9.702   4.671 -0.6715  0.5267  0.5492
25504SOL    HW288572   8.213   9.640   4.774  0.6983  1.6708 -0.1962
25505SOL     OW88573   8.357   1.975   0.582 -0.1006  0.4062 -0.0096
25505SOL    HW188574   8.271   1.935   0.612  0.6413 -0.5387  0.8933
25505SOL    HW288575   8.363   1.971   0.482 -0.5448 -0.6697  0.0009
25506SOL     OW88576   2.686   9.144   5.172  0.6859  0.3630 -0.2523
25506SOL    HW188577   2.601   9.117   5.128  0.4702  2.5124 -1.2084
25506SOL    HW288578   2.677   9.135   5.271  0.3650 -2.1992 -0.4662
25507SOL     OW88579   6.758   8.717   6.270 -0.0297 -0.0833  0.4345
25507SOL    HW188580   6.768   8.816   6.261  2.4063 -0.3541 -0.1587
25507SOL    HW288581   6.692   8.684   6.202  1.1054  0.8126 -1.1417
25508SOL     OW88582   3.334   8.992   9.200  0.0876  0.0531  0.1412
25508SOL    HW188583   3.272   8.951   9.133 -0.5438  0.1310  0.6719
25508SOL    HW288584   3.281   9.024   9.279  0.7423  0.5787  0.3746
25509SOL     OW88585   0.948   0.497   8.162 -0.4225 -0.5553 -0.2516
25509SOL    HW188586   0.883   0.525   8.092  0.2297  0.5781 -0.4180
25509SOL    HW288587   0.908   0.509   8.252 -0.3734  0.3540 -0.3447
25510SOL     OW88588   1.776   3.830   8.447  0.6000  0.8193 -0.3227
25510SOL    HW188589   1.771   3.781   8.360 -0.6501  0.0749  0.1489
25510SOL    HW288590   1.690   3.877   8.464  1.6740  2.9211 -0.5963
25511SOL     OW88591   3.469   0.989   6.214 -0.2451  0.3719  0.2918
25511SOL    HW188592   3.377   0.967   6.246 -0.3693 -0.8678 -0.8562
25511SOL    HW288593   3.523   0.904   6.207  0.8154  1.0176  0.4283
25512SOL     OW88594   9.390   1.601   4.898 -0.0434  0.5950 -0.5465
25512SOL    HW188595   9.389   1.504   4.874 -0.1396  0.8532 -1.6307
25512SOL    HW288596   9.310   1.646   4.857  0.5706  1.3342 -0.9383
25513SOL     OW88597   4.524   9.200   8.696  0.8803 -0.1304  0.4995
25513SOL    HW188598   4.555   9.105   8.697  1.5043  0.0093 -1.7381
25513SOL    HW288599   4.462   9.216   8.773  1.3221 -2.1499  1.3078
25514SOL     OW88600   5.280   5.453   7.816 -0.1013  0.2688  0.3070
25514SOL    HW188601   5.357   5.497   7.771 -0.4416  1.2968  0.7206
25514SOL    HW288602   5.246   5.378   7.759 -0.0101  1.0374 -0.7721
25515SOL     OW88603   9.915   7.796   8.678 -0.3957  0.1152 -0.0357
25515SOL    HW188604   9.841   7.729   8.690  1.5421 -2.1226 -0.1595
25515SOL    HW288605   9.962   7.810   8.766 -1.7357  2.5102  0.3397
25516SOL     OW88606   4.714   9.726   5.590 -0.0842 -0.3926 -0.0015
25516SOL    HW188607   4.791   9.684   5.638  0.1531 -1.0174 -0.9190
25516SOL    HW288608   4.630   9.710   5.641 -0.0515 -2.3076 -0.5166
25517SOL     OW88609   6.920   4.575   3.240 -0.2704 -0.3706  0.1615
25517SOL    HW188610   6.848   4.603   3.304 -0.8135  0.3640 -0.7582
25517SOL    HW288611   6.939   4.650   3.177  0.2420 -1.1041 -0.5589
25518SOL     OW88612   4.205   6.857   5.919 -0.2783 -0.0995  0.3459
25518SOL    HW188613   4.238   6.911   5.997  1.3260  0.1404 -0.4919
25518SOL    HW288614   4.236   6.763   5.929 -2.0775 -0.6399  1.1906
25519SOL     OW88615   8.040   9.407   7.655 -0.6767 -0.2541 -0.1027
25519SOL    HW188616   8.113   9.371   7.598 -0.3735  2.4304 -1.5154
25519SOL    HW288617   8.078   9.441   7.741 -0.6126 -0.9464  0.1473
25520SOL     OW88618   3.217   0.416   6.057  0.2778 -0.0333 -0.2280
25520SOL    HW188619   3.291   0.459   6.108  1.6869 -0.5528 -1.8088
25520SOL    HW288620   3.237   0.418   5.959 -1.4232 -0.8753 -0.6228
25521SOL     OW88621   7.507   4.069   3.474  0.0121 -0.0290 -0.8310
25521SOL    HW188622   7.603   4.052   3.494 -0.6477 -2.1999  0.6727
25521SOL    HW288623   7.465   4.118   3.550 -0.1095  0.8669 -1.4608
25522SOL     OW88624   5.442   8.100   6.233  0.1026  0.1806 -0.1323
25522SOL    HW188625   5.478   8.192   6.250  0.4948 -0.2756  1.5923
25522SOL    HW288626   5.350   8.093   6.273  1.2556 -1.0726  2.4406
25523SOL     OW88627   1.562   0.407   8.373  0.0535  0.0192 -0.2503
25523SOL    HW188628   1.543   0.329   8.433  0.4608 -0.4341 -0.7094
25523SOL    HW288629   1.491   0.415   8.304  0.7470 -0.8058 -1.0749
25524SOL     OW88630   4.363   8.217   8.454  0.0728  0.1481  0.0348
25524SOL    HW188631   4.456   8.252   8.452  0.0654  0.2292  0.8241
25524SOL    HW288632   4.330   8.202   8.361  1.8940 -2.6107 -0.2325
25525SOL     OW88633   2.340   8.460   0.478 -0.0349 -0.4927 -0.2132
25525SOL    HW188634   2.317   8.412   0.563  1.8368  1.6131  1.5422
25525SOL    HW288635   2.255   8.487   0.431 -1.0961 -1.8828  0.8634
25526SOL     OW88636   4.787   9.154   8.529 -0.3031  0.3381  0.2265
25526SOL    HW188637   4.857   9.084   8.538 -0.0586  0.7043  1.2148
25526SOL    HW288638   4.720   9.145   8.603  0.3045  1.7699  0.9866
25527SOL     OW88639   8.725   9.416   7.876  0.0840 -0.3740  0.3773
25527SOL    HW188640   8.719   9.331   7.824  0.0867 -1.7237  2.5588
25527SOL    HW288641   8.651   9.421   7.942 -1.0815  2.2717 -1.0755
25528SOL     OW88642   5.741   4.071   4.184  0.2446  0.7763 -0.2489
25528SOL    HW188643   5.704   4.000   4.123 -1.4776  1.9753 -0.6338
25528SOL    HW288644   5.813   4.121   4.136 -0.5259  1.1662 -1.0247
25529SOL     OW88645   8.769   7.051   8.468 -0.0413 -0.2017 -0.0571
25529SOL    HW188646   8.855   7.028   8.422 -1.1812  0.5595 -2.6710
25529SOL    HW288647   8.754   7.149   8.464 -0.9158 -0.3044  0.5828
25530SOL     OW88648   9.590   7.645   9.635  0.7938 -0.3870 -0.2140
25530SOL    HW188649   9.612   7.592   9.717 -1.3170 -1.9349 -0.6027
25530SOL    HW288650   9.636   7.604   9.556  1.4271  0.0740 -0.0948
25531SOL     OW88651   9.168   7.811   4.052  0.0666  0.5098 -0.1086
25531SOL    HW188652   9.185   7.900   4.093 -0.1981  0.4777  0.0714
25531SOL    HW288653   9.082   7.774   4.087  0.1868  0.1735 -0.1653
25532SOL     OW88654   4.034   9.166   8.197  0.6747  0.1059  0.0980
25532SOL    HW188655   4.118   9.212   8.227  1.4401 -1.5868  0.5870
25532SOL    HW288656   4.049   9.067   8.193 -1.6247 -0.3155  1.2212
25533SOL     OW88657   7.705   9.682   4.011  0.3943  0.0680 -0.5122
25533SOL    HW188658   7.692   9.782   4.014  0.2246  0.0306  0.0739
25533SOL    HW288659   7.616   9.637   4.008  0.4339 -0.1074  0.6972
25534SOL     OW88660   8.577   8.866   9.066  0.3693 -1.3368 -0.1361
25534SOL    HW188661   8.624   8.793   9.015 -1.2728 -0.3788 -3.1520
25534SOL    HW288662   8.478   8.852   9.061  0.1032  0.1313  0.7443
25535SOL     OW88663   9.486   7.004   7.569  0.2410  0.2504 -0.2576
25535SOL    HW188664   9.473   6.967   7.661  0.1931  0.0820 -0.3305
25535SOL    HW288665   9.514   7.100   7.575 -1.3766  0.7408 -0.0799
25536SOL     OW88666   7.085   6.627   8.986  0.2178 -0.2418  0.1306
25536SOL    HW188667   6.987   6.632   9.003  0.2139 -0.7169  0.2455
25536SOL    HW288668   7.116   6.532   8.993  0.6398 -0.1280 -0.1621
25537SOL     OW88669   9.187   7.346   9.308 -1.0504  0.1331  0.1930
25537SOL    HW188670   9.151   7.276   9.247 -0.0459 -0.7557  0.5994
25537SOL    HW288671   9.213   7.426   9.255 -1.3997 -0.1283 -0.3814
25538SOL     OW88672   8.338   6.653   3.193  0.6117 -0.1106  0.5384
25538SOL    HW188673   8.283   6.716   3.247  1.6971  1.6598 -0.3680
25538SOL    HW288674   8.306   6.560   3.207 -1.4288  0.6988  1.4227
25539SOL     OW88675   7.988   2.631   5.628 -0.1050 -0.3333 -0.0215
25539SOL    HW188676   8.018   2.720   5.593 -1.2593 -0.3718 -1.1447
25539SOL    HW288677   7.969   2.570   5.551 -0.9597 -1.0098  0.7177
25540SOL     OW88678   7.602   0.898   1.988 -0.0227  0.5358  0.3088
25540SOL    HW188679   7.521   0.911   1.930 -1.9217  0.8553  2.9534
25540SOL    HW288680   7.590   0.817   2.045  2.3510 -0.4634 -0.5372
25541SOL     OW88681   6.856   4.201   7.923 -0.0349 -0.0452  0.0442
25541SOL    HW188682   6.954   4.214   7.907  0.0368 -1.0941 -0.3956
25541SOL    HW288683   6.836   4.104   7.932 -0.9459  0.2023  0.7651
25542SOL     OW88684   8.647   4.160   5.834 -0.4133  0.2704  0.0348
25542SOL    HW188685   8.584   4.237   5.819 -0.1772  0.5186  0.2999
25542SOL    HW288686   8.631   4.090   5.765 -0.6243  0.5651 -0.2188
25543SOL     OW88687   8.017   9.965   9.576 -0.1037 -0.0262  0.0761
25543SOL    HW188688   7.933   9.917   9.602  0.6582 -0.6123  1.5262
25543SOL    HW288689   8.000  10.020   9.494 -2.1487  0.5643  0.8655
25544SOL     OW88690   0.789   0.800   8.144 -0.5595  0.3327  0.3089
25544SOL    HW188691   0.826   0.861   8.073  0.1720  1.7179  1.8643
25544SOL    HW288692   0.737   0.727   8.100 -1.3493  1.9868 -1.6197
25545SOL     OW88693   7.406   0.467   6.849  0.6005 -0.3348 -0.1548
25545SOL    HW188694   7.492   0.508   6.819  0.6879  0.0318  0.5967
25545SOL    HW288695   7.362   0.423   6.771 -0.0407  2.1730 -1.2764
25546SOL     OW88696   9.260   0.739   5.836  0.5831  0.1892 -0.0477
25546SOL    HW188697   9.292   0.789   5.917  1.3844 -0.8901  0.3211
25546SOL    HW288698   9.329   0.671   5.809 -1.9382 -3.2204  1.6311
25547SOL     OW88699   8.960   1.766   6.783 -0.1451  0.2586  0.3781
25547SOL    HW188700   8.869   1.725   6.771 -1.0177  2.9730 -3.2364
25547SOL    HW288701   9.030   1.695   6.769 -1.6481 -1.4186  1.1146
25548SOL     OW88702   7.718   5.684   7.523 -0.8256  0.0488  0.3971
25548SOL    HW188703   7.691   5.723   7.611  0.7073  0.8904  0.5067
25548SOL    HW288704   7.728   5.757   7.456  1.0674 -0.2292  0.3405
25549SOL     OW88705   6.000   1.285   0.011 -0.6100  0.4951 -0.3108
25549SOL    HW188706   6.040   1.294   0.102  0.3055 -0.0171 -0.6523
25549SOL    HW288707   5.978   1.376  -0.025 -2.0143  0.6341  0.8663
25550SOL     OW88708   9.055   8.561   9.826 -0.1655 -0.1341 -0.0767
25550SOL    HW188709   9.084   8.466   9.835  2.9998  0.5009 -2.6105
25550SOL    HW288710   9.104   8.618   9.892 -1.6317 -0.1555  1.0465
25551SOL     OW88711   5.957   8.966   2.190 -0.1809  0.8166 -0.0581
25551SOL    HW188712   5.914   9.056   2.189 -1.6655  0.1267  0.8672
25551SOL    HW288713   6.011   8.955   2.274 -1.4254  0.1887  0.6671
25552SOL     OW88714   9.622   0.282   9.224 -0.0791  0.0143 -0.4769
25552SOL    HW188715   9.532   0.318   9.251  0.2241 -0.3949  1.1190
25552SOL    HW288716   9.609   0.208   9.157 -1.1168 -1.9956  1.8732
25553SOL     OW88717   3.215   5.982   8.258  0.4873 -0.0609 -0.7589
25553SOL    HW188718   3.237   5.986   8.355 -0.6030  0.3892 -0.5289
25553SOL    HW288719   3.203   6.075   8.222 -0.1640 -0.2678 -1.0802
25554SOL     OW88720   0.072   5.838   7.575 -0.4387 -0.1010  0.3971
25554SOL    HW188721   0.156   5.882   7.607 -1.3728  1.4031  0.8384
25554SOL    HW288722  -0.002   5.857   7.639 -1.1638 -1.3141 -0.0528
25555SOL     OW88723   4.386   0.606   2.307  0.2715 -0.7162 -0.9488
25555SOL    HW188724   4.363   0.556   2.223  1.7923 -0.2706 -1.6576
25555SOL    HW288725   4.486   0.613   2.315  0.1194  0.0211  0.4430
25556SOL     OW88726   8.392   7.548   9.815 -0.2967 -0.1774 -0.1254
25556SOL    HW188727   8.416   7.578   9.907  0.7523 -1.0387 -0.1053
25556SOL    HW288728   8.312   7.599   9.783  1.7003  2.9849 -0.3110
25557SOL     OW88729   7.871   4.147   2.949  0.2477  0.5783 -0.5896
25557SOL    HW188730   7.884   4.097   3.034  0.2547  1.6471  0.0559
25557SOL    HW288731   7.828   4.088   2.881 -0.3229 -0.1062  0.3549
25558SOL     OW88732   5.745   6.810   5.735 -0.5326  0.2006  0.1398
25558SOL    HW188733   5.830   6.827   5.686  0.2015  1.6686  1.8979
25558SOL    HW288734   5.765   6.773   5.826 -1.7254  1.4086  0.9110
25559SOL     OW88735   2.488   3.348   0.595  0.2021 -0.2352  0.0792
25559SOL    HW188736   2.584   3.373   0.581  0.2100 -0.6913 -0.7165
25559SOL    HW288737   2.482   3.251   0.620 -0.1222 -0.4749 -0.9028
25560SOL     OW88738   8.518   8.381   8.531 -0.5145  0.0202 -0.0405
25560SOL    HW188739   8.428   8.382   8.487 -0.3300  0.8824 -0.4051
25560SOL    HW288740   8.583   8.431   8.474  0.2184 -0.6842  0.1810
25561SOL     OW88741   1.860   9.148   6.385  0.1268  0.3455 -0.1698
25561SOL    HW188742   1.849   9.233   6.436  2.1891  0.9626 -0.7015
25561SOL    HW288743   1.878   9.073   6.449  0.4601  0.7022  0.1590
25562SOL     OW88744   6.125   7.623   6.847 -0.2635 -0.0825 -0.2803
25562SOL    HW188745   6.172   7.685   6.909  2.3873 -1.8744 -0.4048
25562SOL    HW288746   6.083   7.675   6.772 -1.4576  1.8629  1.6845
25563SOL     OW88747   6.510   9.606   6.064  0.4154  0.1277  0.1875
25563SOL    HW188748   6.579   9.577   6.130  0.4965  0.5439  0.2842
25563SOL    HW288749   6.428   9.548   6.075  1.2734 -1.3182 -0.9144
25564SOL     OW88750   4.017   0.727   2.789  0.1090 -0.0114 -0.0302
25564SOL    HW188751   4.073   0.644   2.793 -0.4831 -0.3558  1.4070
25564SOL    HW288752   4.077   0.807   2.786  0.6794 -0.4443 -0.2543
25565SOL     OW88753   7.639   2.040   5.868  0.2581  0.6150 -0.0709
25565SOL    HW188754   7.570   1.969   5.852  1.9764 -0.9809 -0.5235
25565SOL    HW288755   7.637   2.066   5.965 -0.5645  0.1585  0.0439
25566SOL     OW88756   4.465   6.517   4.593  0.6089  0.3147  0.0165
25566SOL    HW188757   4.483   6.498   4.496  0.1963 -0.5464  0.1022
25566SOL    HW288758   4.482   6.613   4.612  0.5324  0.5220 -0.9538
25567SOL     OW88759   6.199   7.480   1.175  0.4132 -0.4551  0.7149
25567SOL    HW188760   6.283   7.486   1.122 -0.4507  0.8291 -0.5391
25567SOL    HW288761   6.218   7.508   1.269  1.2483  0.4872  0.2764
25568SOL     OW88762   7.228   8.950   8.449  0.3208 -0.0518  0.9003
25568SOL    HW188763   7.233   8.878   8.518  0.5647 -0.5978  0.3237
25568SOL    HW288764   7.320   8.985   8.431  0.0083  1.5507  2.3603
25569SOL     OW88765   3.045   1.043   9.094 -0.1436  0.1246  0.2585
25569SOL    HW188766   3.115   1.046   9.023  0.6762 -0.9272  1.0021
25569SOL    HW288767   3.013   0.948   9.104  1.0369 -0.0521  2.5324
25570SOL     OW88768   8.484   8.797   4.630  0.3968 -0.9314  0.1550
25570SOL    HW188769   8.438   8.713   4.604 -1.0824  0.5968 -2.3077
25570SOL    HW288770   8.416   8.868   4.648  1.7301  0.8769 -1.8517
25571SOL     OW88771   8.239   6.873   7.210  0.1947  0.1267  0.4142
25571SOL    HW188772   8.153   6.856   7.163 -0.7438  1.2605  1.6839
25571SOL    HW288773   8.279   6.786   7.239 -0.4375 -0.4091 -0.2985
25572SOL     OW88774   4.271   2.894   1.063 -0.0478 -0.4412  0.0003
25572SOL    HW188775   4.346   2.895   1.128  1.0371 -1.6121 -1.2131
25572SOL    HW288776   4.303   2.860   0.975 -1.3773  1.4942 -1.2887
25573SOL     OW88777   6.002   8.119   6.860 -0.4298 -0.1352  0.1127
25573SOL    HW188778   6.091   8.073   6.868 -0.8837 -1.1292 -0.4681
25573SOL    HW288779   5.929   8.051   6.865 -1.0500  0.2169 -2.8933
25574SOL     OW88780   0.285   5.581   9.347 -0.3752  0.0275 -0.3457
25574SOL    HW188781   0.247   5.644   9.414 -0.6326  0.4775 -0.9072
25574SOL    HW288782   0.280   5.488   9.381  0.1204  0.3259  0.5462
25575SOL     OW88783   6.013   7.917   5.091 -0.6553  0.1559 -0.2868
25575SOL    HW188784   6.066   7.876   5.165  1.8051  1.2309 -1.3870
25575SOL    HW288785   6.061   7.904   5.004 -2.5057  0.6678 -1.4276
25576SOL     OW88786   7.297   9.158   0.919 -0.3423  0.5431  0.1302
25576SOL    HW188787   7.272   9.246   0.879 -1.2309  1.1966  2.0196
25576SOL    HW288788   7.250   9.085   0.870 -0.7923  1.2601 -0.5197
25577SOL     OW88789   6.083   8.290   2.584  0.1674  0.2147 -0.3734
25577SOL    HW188790   6.141   8.306   2.663  1.4248 -0.2454 -1.1947
25577SOL    HW288791   6.137   8.298   2.500 -1.0180  0.1022 -1.1621
25578SOL     OW88792   7.253   8.364   1.159  0.0650  0.2851  0.1074
25578SOL    HW188793   7.303   8.321   1.084 -1.4808  2.7623 -2.4403
25578SOL    HW288794   7.167   8.315   1.174 -0.6734  1.1452 -1.2888
25579SOL     OW88795   9.547   9.569   3.437  0.3670  0.4488 -0.2027
25579SOL    HW188796   9.644   9.547   3.432  0.0805 -0.8366 -0.2177
25579SOL    HW288797   9.495   9.506   3.379 -0.7749 -0.8769  2.1672
25580SOL     OW88798   6.650   4.931   8.647  0.7247  0.1667 -0.2107
25580SOL    HW188799   6.621   4.945   8.553 -1.2798  2.3286  0.6807
25580SOL    HW288800   6.655   5.019   8.694  1.0484 -0.9421  1.8984
25581SOL     OW88801   5.695   0.206   8.624  0.2797 -1.0951 -0.8995
25581SOL    HW188802   5.645   0.155   8.693 -2.7632  1.4491 -1.1357
25581SOL    HW288803   5.756   0.271   8.668 -1.4855  0.3615 -0.5584
25582SOL     OW88804   7.982   8.855   9.215 -0.0057  0.7162 -0.2462
25582SOL    HW188805   7.895   8.902   9.202  0.0791  0.9811  0.1288
25582SOL    HW288806   7.966   8.756   9.218 -0.1417  0.7043 -1.3514
25583SOL     OW88807   5.552   9.736   9.073  0.4701 -0.1658 -0.4969
25583SOL    HW188808   5.520   9.642   9.063  0.5977 -0.1786 -0.7868
25583SOL    HW288809   5.537   9.786   8.988  1.3947 -0.2309 -0.7037
25584SOL     OW88810   5.997   4.755   2.689 -0.0814 -0.0721  0.1684
25584SOL    HW188811   5.937   4.792   2.618 -0.7939 -0.4954  0.5402
25584SOL    HW288812   6.092   4.763   2.660 -0.4252 -1.5699 -1.5043
25585SOL     OW88813   4.529   5.550   7.245 -0.5668 -0.9811  0.2326
25585SOL    HW188814   4.625   5.529   7.262 -0.0269  1.2175  0.0623
25585SOL    HW288815   4.522   5.622   7.176 -2.1630  1.7427  3.1137
25586SOL     OW88816   1.213   6.189   8.499  0.3083 -0.2131  0.4162
25586SOL    HW188817   1.246   6.154   8.587 -2.6771 -0.9394  1.2816
25586SOL    HW288818   1.135   6.250   8.514 -0.1346 -0.2116 -1.7408
25587SOL     OW88819   7.075   8.951   8.235  0.1966 -0.0892  0.1202
25587SOL    HW188820   7.132   8.950   8.318 -0.1253 -2.4517  0.3486
25587SOL    HW288821   7.061   8.857   8.204  0.4786  0.7974 -2.7605
25588SOL     OW88822   6.727   5.027   8.084  0.0010 -0.1640 -0.5921
25588SOL    HW188823   6.708   5.100   8.019  0.7033  0.1902 -0.4036
25588SOL    HW288824   6.644   5.008   8.138  0.0148  0.9696 -0.1656
25589SOL     OW88825   8.571   1.749   4.686  0.7265 -0.0391  0.3484
25589SOL    HW188826   8.521   1.662   4.680 -0.2056  0.4378  1.0234
25589SOL    HW288827   8.506   1.824   4.696  1.6260  0.4793  2.5426
25590SOL     OW88828   9.590   3.320   5.451  0.5182 -0.4065 -0.0728
25590SOL    HW188829   9.680   3.324   5.406  2.0524  1.5236  3.0054
25590SOL    HW288830   9.596   3.262   5.532 -1.2511 -0.8891 -0.2712
25591SOL     OW88831   5.522   8.762   7.857 -0.0223 -0.1790  0.5837
25591SOL    HW188832   5.523   8.822   7.937  0.5085  0.4272  0.1371
25591SOL    HW288833   5.460   8.799   7.788 -0.3738 -0.6237  0.6601
25592SOL     OW88834   5.634   5.305   6.812 -0.4216 -0.7188  0.4711
25592SOL    HW188835   5.567   5.250   6.861 -0.1246 -0.3530  1.3104
25592SOL    HW288836   5.588   5.379   6.763 -0.6979 -0.9171  0.4319
25593SOL     OW88837   2.381   8.513   5.724 -0.5885 -0.2184  0.3265
25593SOL    HW188838   2.344   8.532   5.633  0.9719 -0.0950 -0.3008
25593SOL    HW288839   2.319   8.451   5.772 -0.8396 -1.2510 -1.2671
25594SOL     OW88840   9.616   5.552   5.796  0.2693 -0.1207  0.6378
25594SOL    HW188841   9.705   5.556   5.842  1.6147 -1.2582 -1.7621
25594SOL    HW288842   9.554   5.495   5.850  1.0533  0.4658  2.2143
25595SOL     OW88843   6.542   7.535   7.465  0.1420  0.4462 -0.7080
25595SOL    HW188844   6.640   7.521   7.477 -0.3280 -1.3333  1.2723
25595SOL    HW288845   6.507   7.468   7.400 -0.7296 -2.7159  2.8997
25596SOL     OW88846   1.739   7.076   6.717  0.2604 -0.3073 -0.4384
25596SOL    HW188847   1.664   7.013   6.697  0.0371 -0.3655  0.5279
25596SOL    HW288848   1.705   7.151   6.774  1.4390 -1.6627  2.1246
25597SOL     OW88849   0.240   4.283   8.910  0.4597  0.5242  0.5108
25597SOL    HW188850   0.144   4.311   8.906 -0.4727 -2.4656  0.7029
25597SOL    HW288851   0.259   4.218   8.836  1.6498 -0.8526  1.9772
25598SOL     OW88852   6.918   8.442   4.685  0.2766  0.6794 -0.0162
25598SOL    HW188853   6.836   8.498   4.701  0.2970  1.1696 -1.4814
25598SOL    HW288854   6.892   8.346   4.684 -0.4378  0.8613 -1.1775
25599SOL     OW88855   9.851   7.695   0.807 -0.4240  0.6585  0.2842
25599SOL    HW188856   9.861   7.670   0.904  1.0503  0.4604  0.1045
25599SOL    HW288857   9.755   7.697   0.782 -0.7780 -0.0513  1.5661
25600SOL     OW88858   8.779   9.383   6.013 -0.2589 -0.3458 -0.1745
25600SOL    HW188859   8.865   9.333   6.002 -0.3356 -0.1218 -1.9481
25600SOL    HW288860   8.743   9.369   6.105  0.0877 -2.9370 -0.4196
25601SOL     OW88861   8.326   8.530   9.706  0.5268 -0.5196 -0.1223
25601SOL    HW188862   8.248   8.573   9.661 -2.0632 -1.7840  2.8990
25601SOL    HW288863   8.411   8.574   9.677 -1.3718  1.4670 -2.8623
25602SOL     OW88864   8.641   2.364   9.027  0.2164  0.6821  0.1086
25602SOL    HW188865   8.652   2.325   9.118 -2.0954  0.4925  0.3301
25602SOL    HW288866   8.701   2.444   9.017  3.0333 -1.3067  0.5598
25603SOL     OW88867   8.520   8.586   0.027 -0.7616  0.7593 -0.4087
25603SOL    HW188868   8.601   8.568  -0.029 -0.7786  0.0686 -0.2152
25603SOL    HW288869   8.461   8.506   0.028 -1.8744  1.5604 -1.2353
25604SOL     OW88870   9.078   6.876   7.225 -0.3057  0.0329  0.0115
25604SOL    HW188871   9.116   6.794   7.182 -0.4203 -0.7483  1.3798
25604SOL    HW288872   9.020   6.850   7.302 -0.9968  1.3680 -0.0386
25605SOL     OW88873   0.497   2.866   8.843  0.2787 -0.7560 -0.2146
25605SOL    HW188874   0.580   2.831   8.801 -0.4139 -2.3991 -0.2364
25605SOL    HW288875   0.438   2.906   8.772  1.3922  1.1546 -0.0896
25606SOL     OW88876   6.740   9.170   2.793  0.0106  0.0297 -0.0173
25606SOL    HW188877   6.722   9.189   2.889  1.0813 -0.3637  0.2679
25606SOL    HW288878   6.718   9.250   2.738 -1.6577 -0.1129  0.4225
25607SOL     OW88879   4.006   8.801   9.082 -0.6367  0.0810 -0.2786
25607SOL    HW188880   4.058   8.886   9.097  0.7474 -0.9472  0.9757
25607SOL    HW288881   3.954   8.780   9.165 -0.6370 -0.5192 -0.4349
25608SOL     OW88882   6.819   6.208   7.095  0.3064  0.1408 -0.3606
25608SOL    HW188883   6.909   6.224   7.054 -0.6221  0.0571 -2.5239
25608SOL    HW288884   6.772   6.295   7.107  0.7527  0.2064  1.0030
25609SOL     OW88885   0.604   3.250   6.665  0.2902  0.0160 -0.1086
25609SOL    HW188886   0.704   3.249   6.663  0.3290 -1.7737  1.4587
25609SOL    HW288887   0.573   3.325   6.724  0.7597 -0.7077  1.0742
25610SOL     OW88888   7.399   9.143   9.510  0.1957 -0.0495 -0.0078
25610SOL    HW188889   7.458   9.121   9.432  0.3562 -0.1320  0.1364
25610SOL    HW288890   7.455   9.182   9.583 -0.2526  2.0365 -0.7388
25611SOL     OW88891   9.744   6.569   4.239 -0.1594  0.1641 -0.3532
25611SOL    HW188892   9.711   6.476   4.222 -1.0085  0.5710 -1.0026
25611SOL    HW288893   9.818   6.590   4.175  0.7623 -0.4391  0.5088
25612SOL     OW88894   5.139   7.983   0.169  0.6329  0.1016 -0.0296
25612SOL    HW188895   5.082   7.902   0.155 -0.3980  0.5832  1.2491
25612SOL    HW288896   5.162   8.024   0.080  0.1542 -0.8941 -0.6189
25613SOL     OW88897   5.849   7.581   0.916  0.4120  0.3343 -0.2159
25613SOL    HW188898   5.819   7.547   0.826  1.4676  0.8686 -0.7828
25613SOL    HW288899   5.890   7.506   0.968  0.7649  0.2589 -0.6017
25614SOL     OW88900   8.594   7.359   9.676  0.1215  0.5093  0.1881
25614SOL    HW188901   8.526   7.286   9.665  0.4307  0.1501  0.6241
25614SOL    HW288902   8.557   7.429   9.737  0.0239  0.4661  0.1787
25615SOL     OW88903   0.813   8.184   7.595  0.0205  0.0663  0.4222
25615SOL    HW188904   0.827   8.086   7.613  0.5183  0.0678  0.0751
25615SOL    HW288905   0.715   8.204   7.595 -0.0765 -0.3819  0.7576
25616SOL     OW88906   1.908   0.374   0.136 -0.2292 -0.5208  0.0421
25616SOL    HW188907   1.957   0.291   0.108  0.4491 -0.6544  1.5683
25616SOL    HW288908   1.849   0.353   0.214 -0.5637  0.2897  0.0119
25617SOL     OW88909   2.443   0.449   6.206 -0.1122 -0.1048  0.0691
25617SOL    HW188910   2.452   0.460   6.305 -0.4318 -3.0029  0.4614
25617SOL    HW288911   2.414   0.356   6.186 -1.1032  0.7668 -2.7177
25618SOL     OW88912   3.402   7.710   0.059 -0.0767 -0.1427 -0.5653
25618SOL    HW188913   3.379   7.641  -0.010  0.3250  0.3271 -1.1725
25618SOL    HW288914   3.476   7.768   0.025  0.8972 -0.6016  0.7086
25619SOL     OW88915   3.940   9.742   5.032  0.1702  0.0286 -0.2373
25619SOL    HW188916   3.863   9.716   5.090 -0.8524  1.2227 -1.0414
25619SOL    HW288917   3.932   9.838   5.006  3.1641  0.8420  1.5578
25620SOL     OW88918   6.128   7.807   5.439  0.0691 -0.2699 -0.0590
25620SOL    HW188919   6.102   7.745   5.364  0.4330  0.2376 -0.6061
25620SOL    HW288920   6.056   7.876   5.452 -0.2211 -0.6511  0.3861
25621SOL     OW88921   3.013   5.217   1.294  1.0696 -0.5842  0.0221
25621SOL    HW188922   3.064   5.303   1.303  2.8059 -1.5947 -0.0713
25621SOL    HW288923   3.070   5.149   1.248 -0.6838 -1.4695 -0.8668
25622SOL     OW88924   6.109   9.861   6.836  0.4727  0.6708  0.1665
25622SOL    HW188925   6.064   9.844   6.923  1.8631  0.7888  0.9168
25622SOL    HW288926   6.125   9.775   6.789  0.8314  0.5018  0.5941
25623SOL     OW88927   8.246   2.209   9.667 -0.2207  0.1134  0.1833
25623SOL    HW188928   8.259   2.254   9.756  0.4672  1.7616 -0.7245
25623SOL    HW288929   8.321   2.233   9.606 -1.4189  0.1600 -1.3092
25624SOL     OW88930   0.679   8.847   9.411 -0.5086  0.4544  0.3959
25624SOL    HW188931   0.696   8.894   9.497 -0.7659 -0.3954  0.9189
25624SOL    HW288932   0.737   8.885   9.339  2.1501 -1.0255  1.6852
25625SOL     OW88933   4.024   9.653   2.405 -0.1627  0.0097 -0.4476
25625SOL    HW188934   4.048   9.637   2.500  1.3535 -2.2937 -1.1766
25625SOL    HW288935   4.106   9.682   2.354 -0.8787  0.8451 -1.1477
25626SOL     OW88936   3.142   1.470   1.935 -0.3350 -0.5945  0.1364
25626SOL    HW188937   3.076   1.411   1.981 -1.0421  0.3013  0.2824
25626SOL    HW288938   3.210   1.502   2.001  0.3580 -1.6518 -0.0474
25627SOL     OW88939   8.851   4.476   0.249  0.3251 -0.1434  0.0718
25627SOL    HW188940   8.778   4.409   0.246 -0.0577  0.3003 -0.6958
25627SOL    HW288941   8.911   4.464   0.169 -0.4414  1.1924 -0.7280
25628SOL     OW88942   8.802   7.914   7.829 -0.7603 -0.2020  0.1248
25628SOL    HW188943   8.871   7.952   7.766 -2.1724  1.8761 -0.2282
25628SOL    HW288944   8.712   7.951   7.806 -2.1196 -3.2902  0.2420
25629SOL     OW88945   7.801   9.976   2.558 -0.0512 -0.0886  0.1730
25629SOL    HW188946   7.806  10.070   2.524 -1.5376 -0.7300 -1.9140
25629SOL    HW288947   7.888   9.952   2.602  0.3270  2.2644  0.7600
25630SOL     OW88948   8.595   1.218   5.218 -0.0798 -0.3741  0.0501
25630SOL    HW188949   8.625   1.297   5.272  2.3463 -0.9624 -0.4072
25630SOL    HW288950   8.577   1.141   5.279 -0.8007 -0.0014  0.3256
25631SOL     OW88951   7.206   0.765   1.622  0.0049 -0.7731  0.5343
25631SOL    HW188952   7.135   0.822   1.665 -0.6695 -1.2250  0.0378
25631SOL    HW288953   7.220   0.682   1.676  0.3807 -0.5354  0.8014
25632SOL     OW88954   8.048   1.396   1.570 -0.1338 -0.2935  0.0856
25632SOL    HW188955   8.025   1.362   1.661 -0.7154 -0.1337  0.0044
25632SOL    HW288956   8.147   1.392   1.556 -0.2197 -2.2732 -0.0606
25633SOL     OW88957   9.091   3.756   8.350  0.8397  0.1952  0.0324
25633SOL    HW188958   9.137   3.710   8.426  0.2385 -1.8484 -0.7867
25633SOL    HW288959   9.152   3.757   8.271  1.5356  2.4826  0.5508
25634SOL     OW88960   8.602   1.417   1.666  0.8379  0.6407  0.5645
25634SOL    HW188961   8.661   1.494   1.692  2.0285 -0.0751  0.0178
25634SOL    HW288962   8.659   1.339   1.641 -0.3383  0.4150 -1.4437
25635SOL     OW88963   9.172   8.177   9.166 -0.2255 -0.6429 -1.0626
25635SOL    HW188964   9.155   8.135   9.256 -0.7411  1.4149 -0.1694
25635SOL    HW288965   9.089   8.224   9.136  0.1974 -0.6694 -2.2652
25636SOL     OW88966   3.729   5.780   8.234  1.0777  0.2861 -0.7214
25636SOL    HW188967   3.734   5.698   8.176 -1.3159 -1.7980  1.8713
25636SOL    HW288968   3.635   5.815   8.233  1.4099  1.2363  0.5455
25637SOL     OW88969   6.163   6.808   4.844 -0.5133  0.1808 -0.2117
25637SOL    HW188970   6.084   6.838   4.791  0.4003 -0.4309 -1.9950
25637SOL    HW288971   6.194   6.719   4.809  0.6546  0.1806  0.7890
25638SOL     OW88972   8.153   4.981   5.194 -0.4781  0.0477 -0.4612
25638SOL    HW188973   8.085   5.051   5.173 -0.4807  0.2491  0.2260
25638SOL    HW288974   8.209   5.010   5.271  1.9544  0.9530 -2.4907
25639SOL     OW88975   0.603   8.313   7.818  0.4378 -0.2206 -0.1987
25639SOL    HW188976   0.648   8.386   7.766  2.1144 -0.7481  0.4760
25639SOL    HW288977   0.548   8.353   7.891  0.7136  0.3994 -0.3250
25640SOL     OW88978   8.073   9.760   6.278 -0.1167  0.9134 -0.4025
25640SOL    HW188979   8.160   9.720   6.248 -0.1672  0.3780  0.1583
25640SOL    HW288980   7.999   9.695   6.263 -0.4323  1.4038 -0.9544
25641SOL     OW88981   3.398   0.168   5.698  0.0953  0.5158  0.1399
25641SOL    HW188982   3.345   0.174   5.783  0.1517 -1.9310  0.3844
25641SOL    HW288983   3.336   0.156   5.621  0.1522  0.1021  0.1535
25642SOL     OW88984   9.412   4.912   2.225  0.1953  0.2428  0.1789
25642SOL    HW188985   9.389   4.855   2.304 -0.1084 -0.4924 -0.4378
25642SOL    HW288986   9.428   4.854   2.146  1.5367  0.9203 -0.0521
25643SOL     OW88987   5.235   9.680   5.968  0.3082 -0.2286 -0.3258
25643SOL    HW188988   5.226   9.743   5.891 -2.1389  0.4184  0.4564
25643SOL    HW288989   5.209   9.588   5.939 -0.3392 -0.0372 -0.3621
25644SOL     OW88990   2.762   5.425   6.629 -0.6312 -0.4732  0.0910
25644SOL    HW188991   2.702   5.403   6.706 -0.5546 -2.8339 -0.4871
25644SOL    HW288992   2.828   5.496   6.657  0.3925 -2.3882  2.7049
25645SOL     OW88993   5.593   3.890   8.837 -0.4173 -0.0223 -0.1222
25645SOL    HW188994   5.636   3.980   8.844  0.2914 -0.3407 -0.2762
25645SOL    HW288995   5.551   3.866   8.924 -0.0972  0.2032  0.0940
25646SOL     OW88996   5.802   5.060   6.885 -0.1772  0.0372 -0.2307
25646SOL    HW188997   5.765   5.050   6.978  0.0470 -0.4932 -0.1955
25646SOL    HW288998   5.856   5.144   6.880 -0.2139  0.0842  0.1115
25647SOL     OW88999   0.535   7.146   7.791 -0.5902  0.0233  0.2308
25647SOL    HW189000   0.615   7.205   7.800 -0.2425 -0.2501 -1.0527
25647SOL    HW289001   0.544   7.069   7.853 -0.1535  0.3215  0.5454
25648SOL     OW89002   6.712   0.471   0.456  0.3523 -0.1058 -0.4667
25648SOL    HW189003   6.614   0.452   0.459  0.3906 -0.0412  1.9532
25648SOL    HW289004   6.729   0.554   0.404 -1.0409  0.8072  0.5292
25649SOL     OW89005   9.009   9.407   6.890 -0.0548  0.0039 -0.3768
25649SOL    HW189006   8.987   9.504   6.899 -1.1647 -0.3677  0.9346
25649SOL    HW289007   9.075   9.381   6.960  1.6757  0.2165 -1.8810
25650SOL     OW89008   8.488   1.992   2.662  0.7816 -0.0190  0.5015
25650SOL    HW189009   8.497   1.930   2.584 -0.9035  1.6861 -1.1032
25650SOL    HW289010   8.425   1.952   2.729  2.0743 -1.3967  0.9238
25651SOL     OW89011   3.504   9.354   2.306  0.3664  0.1457 -0.0841
25651SOL    HW189012   3.591   9.403   2.297 -0.2577  1.4240  0.6450
25651SOL    HW289013   3.495   9.287   2.233  0.6528  2.0502 -1.8938
25652SOL     OW89014   0.443   9.896   0.679  0.3115 -0.3459 -0.2656
25652SOL    HW189015   0.511   9.892   0.752 -1.4002  0.0344  1.3814
25652SOL    HW289016   0.429   9.804   0.641  1.0384 -0.5786  0.0250
25653SOL     OW89017   5.862   7.445   2.968  0.2470  0.5458 -0.1911
25653SOL    HW189018   5.927   7.498   3.023 -0.7022  0.1848  1.3251
25653SOL    HW289019   5.882   7.458   2.871  2.2620  0.8165  0.2407
25654SOL     OW89020   0.462   9.735   7.542 -0.5559 -0.4585 -0.0324
25654SOL    HW189021   0.539   9.673   7.554 -1.1379 -1.2543 -0.3836
25654SOL    HW289022   0.496   9.829   7.535  0.4623 -0.8845 -1.0815
25655SOL     OW89023   8.709   5.578   2.852  0.3497  0.4745  0.1322
25655SOL    HW189024   8.763   5.497   2.875 -0.9627 -0.7284 -0.8538
25655SOL    HW289025   8.654   5.605   2.932 -0.6524 -0.8050 -0.1006
25656SOL     OW89026   7.140   8.355   0.074 -0.7818  0.0635 -0.4509
25656SOL    HW189027   7.067   8.366   0.142 -1.9056 -0.2187 -1.5831
25656SOL    HW289028   7.148   8.258   0.050  0.5942 -0.0296  0.3227
25657SOL     OW89029   3.025   0.345   1.193 -0.1603  0.0163 -0.2118
25657SOL    HW189030   2.954   0.416   1.188  1.1461  1.5413  1.7723
25657SOL    HW289031   3.034   0.315   1.288  1.6407 -0.3481 -0.4913
25658SOL     OW89032   6.471   6.055   7.990 -0.2576  0.2765 -0.8218
25658SOL    HW189033   6.568   6.057   7.967 -0.2756  2.3557 -0.7709
25658SOL    HW289034   6.443   6.143   8.028 -1.6618 -1.0004  1.2621
25659SOL     OW89035   6.577   9.232   8.553 -0.0686  0.7287 -0.0193
25659SOL    HW189036   6.600   9.323   8.587  1.8851  0.4552 -0.5444
25659SOL    HW289037   6.654   9.196   8.499 -1.6977 -0.2943 -1.7336
25660SOL     OW89038   0.532   1.760   9.075  0.0039  0.0307  0.8864
25660SOL    HW189039   0.570   1.849   9.097  0.7248 -0.3585  1.2262
25660SOL    HW289040   0.562   1.733   8.983 -0.1650  0.1026  0.8081
25661SOL     OW89041   6.245   8.030   2.124  0.6175 -0.3099  0.1185
25661SOL    HW189042   6.211   7.936   2.114  1.0525 -0.3527 -1.0882
25661SOL    HW289043   6.168   8.091   2.143  0.1451 -0.7079 -0.4880
25662SOL     OW89044   2.025   2.330   7.609  0.6269  0.0226  0.1945
25662SOL    HW189045   1.928   2.353   7.614  0.9246  1.6196 -0.7831
25662SOL    HW289046   2.036   2.239   7.568 -0.5153 -1.0238  2.1535
25663SOL     OW89047   8.185   6.280   6.175  0.6788 -0.1923 -0.2020
25663SOL    HW189048   8.239   6.203   6.211 -1.7227 -1.1224  1.5143
25663SOL    HW289049   8.105   6.245   6.127 -0.4663  1.2344  0.6394
25664SOL     OW89050   1.496   8.413   5.040  0.0434 -0.5708  0.0862
25664SOL    HW189051   1.524   8.478   5.111  1.1495 -1.1109  0.1559
25664SOL    HW289052   1.470   8.463   4.957 -1.7303  0.0970  1.0072
25665SOL     OW89053   5.282   0.231   6.271 -0.0279 -0.0513 -0.2646
25665SOL    HW189054   5.356   0.208   6.208 -1.6026 -2.0661 -1.4464
25665SOL    HW289055   5.253   0.149   6.320  0.4039  1.2811  2.2788
25666SOL     OW89056   7.997   6.904   8.323  0.6744 -0.4828 -0.5037
25666SOL    HW189057   8.038   6.910   8.414 -0.7582 -1.2961  0.2173
25666SOL    HW289058   8.061   6.862   8.260  1.3756 -0.6758  0.3245
25667SOL     OW89059   7.154   8.378   1.856  0.0239 -0.8479 -0.1414
25667SOL    HW189060   7.237   8.363   1.908  0.2102 -1.3669 -0.5862
25667SOL    HW289061   7.079   8.400   1.918  0.4348 -0.6157  0.2749
25668SOL     OW89062   8.956   4.404   8.015  0.2729 -0.3689 -0.2672
25668SOL    HW189063   8.938   4.468   8.089  0.9878 -0.9600  0.4238
25668SOL    HW289064   8.878   4.404   7.951 -1.1628 -1.1791  1.4400
25669SOL     OW89065   2.224   6.494   8.448  0.0624  0.1422 -0.3829
25669SOL    HW189066   2.197   6.574   8.394  0.6558  0.6542  0.0737
25669SOL    HW289067   2.240   6.417   8.387  0.1894  0.5683 -0.8983
25670SOL     OW89068   7.580   3.839   8.704  0.0749 -0.1323 -0.0152
25670SOL    HW189069   7.576   3.841   8.804  1.4299 -1.1086  0.0793
25670SOL    HW289070   7.610   3.929   8.670 -2.4750  0.8849  0.3019
25671SOL     OW89071   2.526   4.811   1.629  0.3688 -0.2789  0.6126
25671SOL    HW189072   2.446   4.774   1.675 -0.1899 -2.2974 -1.8880
25671SOL    HW289073   2.608   4.795   1.685 -0.7315  0.5610  2.5189
25672SOL     OW89074   5.163   8.043   7.824 -0.1296  0.4381 -0.4017
25672SOL    HW189075   5.140   7.977   7.752  0.1259 -0.6689  0.5178
25672SOL    HW289076   5.216   8.118   7.785  1.6477 -1.1209 -1.0323
25673SOL     OW89077   2.593   0.457   0.420 -0.2434  0.2524 -0.1133
25673SOL    HW189078   2.630   0.525   0.356 -2.4661  0.5112 -1.1892
25673SOL    HW289079   2.569   0.374   0.370 -0.0557 -0.3268  0.7496
25674SOL     OW89080   5.819   7.104   7.222  0.0545  0.4141 -0.2424
25674SOL    HW189081   5.875   7.186   7.221  1.0310 -0.2440 -0.3299
25674SOL    HW289082   5.728   7.126   7.257 -0.6498  2.1271 -3.0198
25675SOL     OW89083   8.928   2.245   4.105  0.8099 -0.0162 -0.0261
25675SOL    HW189084   8.970   2.196   4.028  0.9040 -2.2187  1.3805
25675SOL    HW289085   8.896   2.179   4.173  1.6780  1.9102  2.3304
25676SOL     OW89086   8.249   6.370   5.609  0.2767  0.2874  0.4104
25676SOL    HW189087   8.322   6.399   5.548  1.7765 -1.6075  1.2592
25676SOL    HW289088   8.189   6.305   5.562 -1.0309  2.0135 -0.3590
25677SOL     OW89089   6.639   8.193   9.101 -0.3205 -0.7184 -0.3093
25677SOL    HW189090   6.555   8.230   9.139 -1.3295 -2.0423 -1.2298
25677SOL    HW289091   6.713   8.260   9.113 -1.6530  0.7690 -0.1881
25678SOL     OW89092   9.655   9.885   9.584  0.0104  0.0660  0.0187
25678SOL    HW189093   9.601   9.824   9.528  0.1664 -0.7060  0.7004
25678SOL    HW289094   9.673   9.842   9.673 -0.2400  1.2558  0.6671
25679SOL     OW89095   8.425   2.424   7.475 -0.2493  0.2417  0.8949
25679SOL    HW189096   8.415   2.505   7.416 -0.7107 -0.9915 -0.7639
25679SOL    HW289097   8.350   2.361   7.456  1.1474 -1.4114  0.8440
25680SOL     OW89098   8.747   7.579   4.957  0.1627  0.3670 -0.3173
25680SOL    HW189099   8.788   7.529   5.033  0.6734 -0.1014 -0.9019
25680SOL    HW289100   8.692   7.516   4.901 -0.8157  0.8533  0.0737
25681SOL     OW89101   3.704   0.645   9.080 -0.2887  0.3628 -0.4876
25681SOL    HW189102   3.683   0.736   9.044 -0.3866  0.0926 -1.1076
25681SOL    HW289103   3.619   0.594   9.094 -0.4671  1.3577  2.5083
25682SOL     OW89104   6.942   6.209   9.527 -0.4141  0.0286 -0.3253
25682SOL    HW189105   6.877   6.275   9.564 -0.4584  0.0032 -0.3571
25682SOL    HW289106   6.902   6.166   9.446 -1.0216 -1.1876  0.6060
25683SOL     OW89107   0.490   9.663   4.102  0.1023 -0.2773  0.1924
25683SOL    HW189108   0.404   9.677   4.053  0.2330  0.4851  0.1674
25683SOL    HW289109   0.478   9.688   4.198  0.4174  0.2720  0.0902
25684SOL     OW89110   6.868   8.673   7.694  0.1229 -0.1977  0.1863
25684SOL    HW189111   6.885   8.574   7.694 -0.5307 -0.3138 -0.3864
25684SOL    HW289112   6.853   8.704   7.600 -0.2857  0.3432  0.4271
25685SOL     OW89113   3.586   7.570   6.344 -0.1277 -0.2787  0.5158
25685SOL    HW189114   3.641   7.650   6.320 -2.1617  1.5372  1.7436
25685SOL    HW289115   3.492   7.582   6.312 -1.1852 -0.8634  3.2199
25686SOL     OW89116   0.700   7.432   8.388  0.0248 -0.2650  0.3695
25686SOL    HW189117   0.680   7.527   8.414  2.4771  1.1940 -2.6861
25686SOL    HW289118   0.797   7.425   8.363 -0.6753 -3.0583 -1.6986
25687SOL     OW89119   0.936   3.652   4.003 -0.0415  0.0495 -0.1144
25687SOL    HW189120   0.960   3.683   4.095  1.0084  0.3960 -0.4977
25687SOL    HW289121   0.858   3.705   3.969 -0.4737 -0.1279  0.6035
25688SOL     OW89122   1.526   8.542   5.832  0.3967  0.2320  0.1025
25688SOL    HW189123   1.510   8.583   5.922 -2.6467 -0.0863 -0.2603
25688SOL    HW289124   1.560   8.613   5.769  0.7664  0.8596  0.9904
25689SOL     OW89125   0.061   7.838   7.390 -0.3464  0.4623  0.4641
25689SOL    HW189126  -0.005   7.762   7.391 -0.8559  0.8587 -1.5933
25689SOL    HW289127   0.129   7.824   7.462 -0.2354 -2.1263 -0.1033
25690SOL     OW89128   4.920   7.001   9.327 -0.2969 -0.0707  0.8620
25690SOL    HW189129   5.005   6.952   9.309  0.1547  1.5951 -1.8289
25690SOL    HW289130   4.843   6.938   9.317  0.5596 -1.4973  2.9285
25691SOL     OW89131   3.392   8.721   6.442  0.0770 -0.1761  0.1213
25691SOL    HW189132   3.451   8.700   6.519 -1.2090  0.1882  1.2360
25691SOL    HW289133   3.382   8.821   6.434  1.0668 -0.1722 -1.1927
25692SOL     OW89134   6.094   9.216   1.409 -0.2221  0.4119 -0.6836
25692SOL    HW189135   6.042   9.135   1.385  0.3878 -0.7288  1.6960
25692SOL    HW289136   6.031   9.292   1.425 -0.8516  0.1852 -2.0163
25693SOL     OW89137   0.827   9.178   9.243  0.1607 -0.0815 -0.3117
25693SOL    HW189138   0.890   9.228   9.183 -0.3274 -0.7788 -1.4222
25693SOL    HW289139   0.840   9.080   9.232 -2.9216 -0.3024 -2.5712
25694SOL     OW89140   8.661   5.336   0.581 -0.1024  0.2068 -0.7551
25694SOL    HW189141   8.760   5.324   0.593  0.1041  1.5872 -0.9457
25694SOL    HW289142   8.642   5.432   0.559 -1.5848  0.1971  0.3928
25695SOL     OW89143   5.596   6.767   4.580 -0.0561  0.0873 -0.4695
25695SOL    HW189144   5.623   6.770   4.484 -1.6265  1.9884 -0.8910
25695SOL    HW289145   5.497   6.770   4.586  0.0582  0.8224  1.2282
25696SOL     OW89146   3.716   7.752   2.829 -0.3681 -0.3486 -0.2419
25696SOL    HW189147   3.814   7.738   2.814 -1.0428 -2.5260 -3.1278
25696SOL    HW289148   3.689   7.842   2.794  0.4499 -0.0936 -0.2210
25697SOL     OW89149   9.917   0.002   9.789  0.1087 -0.5134  0.5793
25697SOL    HW189150   9.920  -0.006   9.889 -2.2173 -0.7512  0.6605
25697SOL    HW289151   9.864  -0.074   9.751 -0.8705  0.7522 -0.6505
25698SOL     OW89152   2.805   9.142   0.047 -0.8104  0.3031 -0.3493
25698SOL    HW189153   2.765   9.077   0.112  1.5783 -0.9933 -0.1145
25698SOL    HW289154   2.828   9.227   0.094 -2.1285  0.5984 -0.2254
25699SOL     OW89155   2.556   7.857   4.677 -0.5820 -0.6613  0.4708
25699SOL    HW189156   2.528   7.772   4.634  1.4987 -0.7955 -0.6763
25699SOL    HW289157   2.540   7.933   4.615  0.0352 -0.5412  0.4554
25700SOL     OW89158   8.334   7.873   9.803  0.3010 -0.3911  0.0997
25700SOL    HW189159   8.303   7.894   9.896 -1.6152 -0.1035 -0.5873
25700SOL    HW289160   8.255   7.866   9.742  1.3952 -2.3632 -1.1671
25701SOL     OW89161   3.884   1.821   8.320 -0.1058  0.1641  0.4292
25701SOL    HW189162   3.876   1.724   8.341  0.9276 -0.0698 -0.1789
25701SOL    HW289163   3.855   1.837   8.226 -1.2573  0.6165  0.8566
25702SOL     OW89164   2.521   1.810   1.716 -0.3008  0.7960 -0.1291
25702SOL    HW189165   2.618   1.832   1.729 -0.3376  0.7483  0.2424
25702SOL    HW289166   2.491   1.845   1.628  0.4178 -0.4267 -0.8684
25703SOL     OW89167   7.339   9.713   9.089 -0.2813  0.4774  0.3019
25703SOL    HW189168   7.357   9.617   9.067  1.2092  0.1996  2.6458
25703SOL    HW289169   7.403   9.771   9.038 -1.8516  0.3596 -1.9202
25704SOL     OW89170   3.691   9.474   0.677  0.2642 -0.0434 -0.7832
25704SOL    HW189171   3.630   9.401   0.709  1.0444  0.3318  1.6406
25704SOL    HW289172   3.683   9.482   0.577 -0.7394 -2.6185 -0.9673
25705SOL     OW89173   0.356   7.407   5.870 -0.3626  0.1807 -0.1827
25705SOL    HW189174   0.361   7.333   5.937 -1.4084 -0.9631 -1.3515
25705SOL    HW289175   0.273   7.461   5.886 -0.3441  0.2231 -0.2308
25706SOL     OW89176   4.237   2.887   6.864 -0.3549  0.3260  0.2527
25706SOL    HW189177   4.308   2.892   6.934  0.8441 -1.5099 -0.8148
25706SOL    HW289178   4.206   2.793   6.852 -0.1309  0.5053 -2.0841
25707SOL     OW89179   1.183   2.720   9.718  0.7415  0.0461  0.1869
25707SOL    HW189180   1.125   2.800   9.703  0.2817 -0.2341  0.4475
25707SOL    HW289181   1.279   2.748   9.721  0.7152  0.3552 -1.4352
25708SOL     OW89182   9.510   7.618   0.362 -0.4634 -0.0304 -0.3083
25708SOL    HW189183   9.458   7.704   0.358 -1.5118 -0.6682 -0.4649
25708SOL    HW289184   9.449   7.543   0.386  0.2855 -0.8726 -1.0095
25709SOL     OW89185   0.095   7.813   1.110  0.0964  0.0419 -0.3217
25709SOL    HW189186   0.134   7.829   1.201  0.2130  1.5421 -0.6160
25709SOL    HW289187   0.052   7.723   1.108 -1.2327  0.5825  1.6925
25710SOL     OW89188   7.112   5.912   1.820 -0.4926  0.4650 -0.4687
25710SOL    HW189189   7.115   5.953   1.729  1.8280 -1.6274 -1.3809
25710SOL    HW289190   7.126   5.813   1.813 -1.0919  0.1604  2.1030
25711SOL     OW89191   6.763   1.018   0.069 -0.1045  0.7263  0.5057
25711SOL    HW189192   6.761   1.057  -0.023  0.1156 -0.6545 -0.1003
25711SOL    HW289193   6.854   1.031   0.109 -0.2339  1.4259  0.5771
25712SOL     OW89194   8.286   5.532   3.941 -0.3114 -0.5544  0.5563
25712SOL    HW189195   8.195   5.492   3.953 -0.0662 -1.2278  0.2333
25712SOL    HW289196   8.315   5.576   4.026 -0.5820 -1.0797  0.9248
25713SOL     OW89197   8.258   5.762   5.954 -1.0733 -0.5524  0.2587
25713SOL    HW189198   8.251   5.708   6.038 -1.1984 -0.0226  0.5916
25713SOL    HW289199   8.351   5.797   5.944 -1.8010  1.9018  1.7553
25714SOL     OW89200   1.798   6.928   2.821  0.3279  0.2854 -0.2669
25714SOL    HW189201   1.727   6.920   2.891 -0.5471 -1.3618 -1.3098
25714SOL    HW289202   1.887   6.943   2.865  0.2956 -3.8914  1.4202
25715SOL     OW89203   8.717   0.210   7.539  0.1226  0.0338  0.0268
25715SOL    HW189204   8.655   0.280   7.575  0.5459 -0.2572  1.3390
25715SOL    HW289205   8.671   0.122   7.537 -0.2255  0.2341 -1.0962
25716SOL     OW89206   5.740   0.105   6.607  0.1488  0.7489  0.1518
25716SOL    HW189207   5.699   0.193   6.582 -1.3140  0.1307  0.2816
25716SOL    HW289208   5.715   0.036   6.539  1.1814  0.4028  0.1185
25717SOL     OW89209   6.729   8.123   8.781  0.5063  0.0852  0.0260
25717SOL    HW189210   6.633   8.153   8.785  0.4790  0.3181 -1.8052
25717SOL    HW289211   6.740   8.041   8.837 -0.5151  0.6725  1.1336
25718SOL     OW89212   7.934   0.249   4.389  0.3392 -0.7555  0.1199
25718SOL    HW189213   7.963   0.176   4.327 -2.4022 -1.0281 -0.8863
25718SOL    HW289214   7.958   0.223   4.483 -1.3204 -3.3652 -0.1261
25719SOL     OW89215   5.894   1.589   9.150  0.2973  0.2803  0.2891
25719SOL    HW189216   5.953   1.634   9.084  0.2596 -0.3296 -0.1641
25719SOL    HW289217   5.835   1.523   9.103  0.4759 -0.3693  0.9688
25720SOL     OW89218   9.056   0.851   5.713 -0.2259 -0.1671  0.0808
25720SOL    HW189219   9.004   0.787   5.657 -2.2214  0.8462  0.7186
25720SOL    HW289220   9.128   0.802   5.762 -0.9941 -1.7193 -0.3105
25721SOL     OW89221   4.908   3.298   9.430  0.1820 -0.6546  0.0222
25721SOL    HW189222   5.000   3.287   9.467  0.8923 -1.6984 -1.9336
25721SOL    HW289223   4.857   3.214   9.443 -1.1120  0.4848  2.6225
25722SOL     OW89224   6.373   9.944   6.835 -0.5311  0.1361 -0.0198
25722SOL    HW189225   6.276   9.937   6.860 -0.3772 -0.2557  0.4855
25722SOL    HW289226   6.426   9.967   6.917 -0.2551  0.8109 -0.3914
25723SOL     OW89227   1.596   9.854   9.003 -0.0219 -0.4706  0.4298
25723SOL    HW189228   1.567   9.772   8.952  2.1750 -1.5549  0.8725
25723SOL    HW289229   1.515   9.910   9.024 -1.4586 -2.0870 -0.6245
25724SOL     OW89230   9.551   6.757   2.302 -0.5272 -0.0574 -0.0736
25724SOL    HW189231   9.468   6.744   2.357 -1.3205  1.5852 -0.8657
25724SOL    HW289232   9.612   6.821   2.349 -0.9247  0.8509 -0.7903
25725SOL     OW89233   7.920   9.764   2.717  0.3443 -0.5138 -0.1865
25725SOL    HW189234   7.978   9.840   2.746  0.4208 -0.2495 -0.9959
25725SOL    HW289235   7.893   9.710   2.796  2.5979 -1.2699  0.1152
25726SOL     OW89236   8.384   3.432   6.571  0.0103  0.2925  0.0883
25726SOL    HW189237   8.305   3.378   6.542  0.3185  0.0083 -0.2278
25726SOL    HW289238   8.435   3.382   6.640  0.7973 -0.2138 -0.8526
25727SOL     OW89239   6.346   2.349   1.240 -0.3169 -0.1536  0.2210
25727SOL    HW189240   6.414   2.343   1.313  0.5308 -3.6285 -0.7635
25727SOL    HW289241   6.264   2.300   1.267 -0.1800 -1.0401 -0.9256
25728SOL     OW89242   1.559   7.598   0.461  0.0292  0.6083  0.1441
25728SOL    HW189243   1.654   7.604   0.431 -0.2443 -0.6919 -1.0202
25728SOL    HW289244   1.520   7.690   0.468  1.2456  1.1235  0.2609
25729SOL     OW89245   7.365   0.841   0.481  0.0426 -0.3198 -0.8399
25729SOL    HW189246   7.291   0.909   0.481 -1.1914 -1.6356 -0.9799
25729SOL    HW289247   7.377   0.805   0.388 -1.2977 -2.3705 -0.2630
25730SOL     OW89248   3.955   8.704   0.446  0.2126 -0.1028  0.2504
25730SOL    HW189249   3.917   8.629   0.501 -0.4075 -0.5538 -0.7711
25730SOL    HW289250   3.966   8.673   0.351  0.5576  0.9079 -0.0466
25731SOL     OW89251   5.307   4.868   6.719  0.3617  0.3856 -0.1652
25731SOL    HW189252   5.299   4.776   6.681  1.3305 -0.7592  2.3308
25731SOL    HW289253   5.395   4.908   6.692 -0.1893  0.7338 -1.5027
25732SOL     OW89254   4.768   8.307   6.414 -0.9222 -0.3184 -0.6810
25732SOL    HW189255   4.772   8.244   6.491 -1.0542 -0.6553 -0.9474
25732SOL    HW289256   4.835   8.279   6.344 -1.2336 -0.3803 -0.9583
25733SOL     OW89257   8.067   1.067   5.426 -0.0738  0.7776  0.1304
25733SOL    HW189258   8.054   0.986   5.368  0.4443  1.0472 -0.3734
25733SOL    HW289259   8.134   1.046   5.498  0.3404  0.8690 -0.2265
25734SOL     OW89260   3.152   7.421   8.804  0.5277  0.4203 -0.4705
25734SOL    HW189261   3.067   7.454   8.847  0.3748  0.3453 -0.7161
25734SOL    HW289262   3.136   7.332   8.763  1.1758 -0.3745  0.9651
25735SOL     OW89263   9.928   9.584   8.839  0.1359 -0.0122  0.0381
25735SOL    HW189264  10.024   9.565   8.818  0.5873  1.7476  0.3873
25735SOL    HW289265   9.881   9.614   8.756  0.1837  0.2479  0.1053
25736SOL     OW89266   4.748   6.609   0.728  0.1624 -0.9676 -0.7112
25736SOL    HW189267   4.839   6.648   0.745 -0.4909  0.1129  0.3676
25736SOL    HW289268   4.688   6.680   0.690 -0.8907 -1.0264  0.7952
25737SOL     OW89269   8.715   7.956   4.761  0.4836 -0.2364  0.0820
25737SOL    HW189270   8.783   7.897   4.805 -0.9472 -1.4041  0.7601
25737SOL    HW289271   8.731   7.959   4.663  2.3246  0.5658  0.3884
25738SOL     OW89272   9.200   6.196   7.037 -0.6144  0.1246  0.2402
25738SOL    HW189273   9.247   6.256   7.102 -0.8160  1.8136 -1.1637
25738SOL    HW289274   9.117   6.240   7.004 -0.0140 -0.3155 -1.9132
25739SOL     OW89275   4.420   7.501   0.795  0.4335 -0.3187 -0.6773
25739SOL    HW189276   4.323   7.477   0.802  0.4213 -0.3933 -1.0905
25739SOL    HW289277   4.438   7.536   0.704  0.4963  1.0260 -0.1530
25740SOL     OW89278   7.000   8.005   7.439  0.3302  0.3461  0.0945
25740SOL    HW189279   6.911   8.006   7.484  0.5945 -0.0690  0.6346
25740SOL    HW289280   7.002   7.932   7.371 -0.6173  1.9827 -1.7354
25741SOL     OW89281   0.861   3.791   5.436  0.1892  0.0881 -0.4050
25741SOL    HW189282   0.942   3.842   5.467 -0.4573 -0.5252  2.5081
25741SOL    HW289283   0.832   3.729   5.509 -1.0810 -1.9584 -2.6043
25742SOL     OW89284   4.601   7.430   1.353  0.7225  0.1523 -0.1788
25742SOL    HW189285   4.544   7.364   1.401 -3.6274  2.9734 -1.2214
25742SOL    HW289286   4.608   7.514   1.407 -0.2918  1.6411 -2.2935
25743SOL     OW89287   9.625   6.249   1.194  0.2402  0.2227  0.1657
25743SOL    HW189288   9.551   6.314   1.209  1.3508  1.3021  1.0450
25743SOL    HW289289   9.648   6.247   1.097 -1.8101 -1.0926 -0.3155
25744SOL     OW89290   9.194   1.021   8.793 -0.2051  0.2487  0.4486
25744SOL    HW189291   9.139   0.974   8.724 -2.0786  2.7499  0.1690
25744SOL    HW289292   9.165   0.991   8.884  1.3045 -1.9938  0.2438
25745SOL     OW89293   7.814   6.784   7.645 -1.1208 -0.6695  0.6051
25745SOL    HW189294   7.725   6.789   7.601 -1.8664 -2.5640  1.8254
25745SOL    HW289295   7.883   6.758   7.577 -1.6786 -0.1755 -0.1456
25746SOL     OW89296   9.488   1.978   1.544  0.4782 -0.0456  0.6315
25746SOL    HW189297   9.511   2.051   1.608 -0.4449  2.1369 -1.4339
25746SOL    HW289298   9.571   1.942   1.502  0.7287  2.2379 -0.8842
25747SOL     OW89299   7.348   8.699   7.288  0.5269 -0.6880  0.4287
25747SOL    HW189300   7.427   8.681   7.230  4.0006  1.7704  4.1336
25747SOL    HW289301   7.326   8.797   7.285 -2.0807 -1.2446 -0.0781
25748SOL     OW89302   5.660   8.171   9.820 -0.2401  0.3138 -0.0600
25748SOL    HW189303   5.596   8.099   9.847 -0.1146 -1.1880 -3.4827
25748SOL    HW289304   5.611   8.259   9.818 -1.5621 -0.4068 -0.2587
25749SOL     OW89305   7.993   3.013   8.143  0.5629  0.0763  0.1157
25749SOL    HW189306   7.914   2.995   8.084  0.2907 -0.7342  0.7173
25749SOL    HW289307   7.972   3.088   8.205  0.4855  0.2612 -0.1315
25750SOL     OW89308   7.125   9.085   9.764 -0.1960  0.4873  0.0462
25750SOL    HW189309   7.169   9.114   9.849 -1.3949  0.8540  0.5571
25750SOL    HW289310   7.185   9.103   9.687  0.4774  1.1204  0.7142
25751SOL     OW89311   4.283   2.086   8.621 -0.1432  0.3366  0.1422
25751SOL    HW189312   4.238   2.089   8.710  0.4130 -1.0624  0.4735
25751SOL    HW289313   4.226   2.035   8.556  0.3895 -0.3953  0.2422
25752SOL     OW89314   8.580   8.275   7.485 -0.0064 -0.3473  0.2129
25752SOL    HW189315   8.580   8.350   7.551 -1.1743  1.3434 -1.6560
25752SOL    HW289316   8.496   8.221   7.496  0.2360 -0.6321  0.7038
25753SOL     OW89317   2.774   1.767   1.535 -0.6775  0.4932  0.7714
25753SOL    HW189318   2.776   1.861   1.500  0.3429  1.1250  2.4863
25753SOL    HW289319   2.821   1.763   1.623  0.7729 -1.9622 -0.0678
25754SOL     OW89320   3.273   8.032   6.308  1.2015 -0.1276 -0.2888
25754SOL    HW189321   3.256   8.107   6.372 -1.4058  0.3959 -1.5169
25754SOL    HW289322   3.326   7.961   6.353 -0.3258  0.3506  2.3750
25755SOL     OW89323   9.881   2.723   9.956 -0.3450  0.0143  0.1402
25755SOL    HW189324   9.862   2.632   9.919 -0.3839  0.3462 -0.6869
25755SOL    HW289325   9.833   2.735  10.042 -0.5789 -0.6440  0.1049
25756SOL     OW89326   7.953   9.884   6.961 -0.3058  0.5017  0.5053
25756SOL    HW189327   7.971   9.970   6.914 -0.2718  0.3500  0.2372
25756SOL    HW289328   7.855   9.866   6.961 -0.0412 -1.1623 -2.4783
25757SOL     OW89329   1.592   3.655   2.248  0.4888 -0.1102  0.1070
25757SOL    HW189330   1.639   3.605   2.176  0.2610 -2.2748  1.4050
25757SOL    HW289331   1.654   3.722   2.288  1.3619 -0.5343 -0.5161
25758SOL     OW89332   6.817   9.964   3.222 -0.0584  0.5065  0.2527
25758SOL    HW189333   6.851   9.915   3.142 -1.2307 -0.4834  0.3564
25758SOL    HW289334   6.722   9.990   3.208 -0.2470  0.4018  1.2927
25759SOL     OW89335   8.059   2.852   7.468 -0.0795 -0.0268 -0.1800
25759SOL    HW189336   8.045   2.943   7.429 -0.5100  0.8367  1.9413
25759SOL    HW289337   8.024   2.849   7.562 -0.2929 -2.4494 -0.2857
25760SOL     OW89338   7.878   7.222   5.155  1.1627 -0.2338 -0.2625
25760SOL    HW189339   7.796   7.247   5.104  0.2858 -1.4231  0.5284
25760SOL    HW289340   7.958   7.266   5.114  0.3457 -0.3277 -2.0003
25761SOL     OW89341   0.756   9.850   6.610  0.2459 -0.4220 -0.6778
25761SOL    HW189342   0.720   9.794   6.684 -0.7539  2.2857  0.9837
25761SOL    HW289343   0.856   9.839   6.605  0.2420 -1.1494  0.6268
25762SOL     OW89344   5.152   6.042   0.659  0.3018 -0.0303  0.5343
25762SOL    HW189345   5.216   5.983   0.610 -0.9009 -0.5824 -0.4074
25762SOL    HW289346   5.169   6.036   0.757  2.1742  0.4204  0.2656
25763SOL     OW89347   8.247   9.266   7.560  0.1912  0.1238 -0.1459
25763SOL    HW189348   8.260   9.189   7.498 -1.7675 -0.4569  0.1197
25763SOL    HW289349   8.309   9.258   7.638  1.2614 -0.2026 -1.0304
25764SOL     OW89350   6.677   5.861   0.184  0.2828  0.7954  0.4767
25764SOL    HW189351   6.771   5.891   0.164 -0.2354  2.2717  0.1813
25764SOL    HW289352   6.613   5.930   0.150 -0.9001 -0.0731  0.9414
25765SOL     OW89353   4.842   1.985   9.727 -1.0266 -0.2404 -0.0553
25765SOL    HW189354   4.826   1.918   9.654 -1.4595 -0.8000  0.5562
25765SOL    HW289355   4.921   1.957   9.781 -0.8455  0.0548 -0.1665
25766SOL     OW89356   2.062   6.432   8.894  0.1067 -0.0280 -0.5264
25766SOL    HW189357   2.011   6.485   8.827  0.5267 -0.1894 -0.9733
25766SOL    HW289358   1.999   6.397   8.964 -0.5190 -0.9470 -1.5337
25767SOL     OW89359   8.033   2.551   6.907 -0.0133  0.1483  0.2568
25767SOL    HW189360   8.114   2.520   6.858  0.4389 -0.5659  1.4301
25767SOL    HW289361   7.974   2.603   6.845  0.5104 -0.7836 -1.0520
25768SOL     OW89362   9.287   8.322   7.594  0.8570 -0.0675 -0.3347
25768SOL    HW189363   9.204   8.321   7.538 -0.7857  1.5060  2.0047
25768SOL    HW289364   9.357   8.266   7.550 -0.6774  0.3935 -3.4885
25769SOL     OW89365   2.764   1.600   2.889 -0.3119 -0.2374 -0.5903
25769SOL    HW189366   2.791   1.642   2.802 -1.7674 -1.0271 -1.4472
25769SOL    HW289367   2.673   1.633   2.914 -0.3216 -0.8015  0.1246
25770SOL     OW89368   9.165   6.779   6.584 -0.3747 -0.0012 -0.3624
25770SOL    HW189369   9.176   6.693   6.635 -1.5660 -0.4355 -0.8346
25770SOL    HW289370   9.202   6.767   6.491  0.7066  0.4291 -0.0046
25771SOL     OW89371   4.972   9.359   9.638  0.7441  0.1094  0.8549
25771SOL    HW189372   4.918   9.407   9.568 -0.0966 -1.4680  0.4057
25771SOL    HW289373   4.970   9.412   9.723 -4.9397 -1.7820  2.1378
25772SOL     OW89374   8.642   9.322   6.909  0.2068 -0.2483 -0.2867
25772SOL    HW189375   8.717   9.324   6.975 -1.3060  0.0156  1.4764
25772SOL    HW289376   8.581   9.245   6.931 -0.2076 -0.2788 -1.5097
25773SOL     OW89377   6.567   6.969   2.546  0.2376  0.3966  0.2181
25773SOL    HW189378   6.470   6.955   2.527 -0.3106  2.0816  1.6781
25773SOL    HW289379   6.584   6.958   2.644  1.3046  1.2681  0.1450
25774SOL     OW89380   8.251   5.863   7.850 -0.6500  0.0802 -0.1765
25774SOL    HW189381   8.188   5.920   7.798  0.0581  1.6005  0.5918
25774SOL    HW289382   8.345   5.890   7.829 -0.2495 -1.8008 -0.9136
25775SOL     OW89383   0.719   8.969   9.670  0.1693 -0.4830  0.0032
25775SOL    HW189384   0.776   9.043   9.635 -0.6292  1.6455  2.9769
25775SOL    HW289385   0.776   8.890   9.693  1.2670 -0.1354 -1.4765
25776SOL     OW89386   0.305   0.681   3.893  0.3771 -0.1237 -0.5795
25776SOL    HW189387   0.286   0.754   3.958  0.6434 -0.5717  0.0136
25776SOL    HW289388   0.389   0.702   3.843  0.3953  0.0320 -0.4839
25777SOL     OW89389   4.824   0.654   1.378  0.0894  0.0636  0.3270
25777SOL    HW189390   4.757   0.706   1.324  0.2506 -0.3709 -0.3056
25777SOL    HW289391   4.803   0.556   1.371  2.1150 -0.2720 -1.7837
25778SOL     OW89392   2.057   8.118   8.929 -0.0840 -0.3671 -0.2726
25778SOL    HW189393   2.050   8.157   9.021  2.1654 -2.7187  0.9667
25778SOL    HW289394   1.969   8.079   8.903 -1.0017  1.1497  0.4777
25779SOL     OW89395   8.018   8.657   7.565 -0.0618 -0.4793  0.1387
25779SOL    HW189396   7.963   8.679   7.484 -0.3620 -0.2998  0.3889
25779SOL    HW289397   7.964   8.598   7.626 -0.1909  0.1772  0.6618
25780SOL     OW89398   6.548   9.964   6.263  0.7186  0.2885  0.3056
25780SOL    HW189399   6.566   9.952   6.166  0.9086  0.4697  0.3168
25780SOL    HW289400   6.545   9.874   6.308 -1.9240  0.0347 -0.2950
25781SOL     OW89401   3.829   8.663   8.708 -0.0217 -0.0790 -0.1104
25781SOL    HW189402   3.800   8.755   8.734 -1.0865 -0.4000 -0.1481
25781SOL    HW289403   3.779   8.634   8.627  0.9618 -0.3496 -0.6325
25782SOL     OW89404   5.097   7.887   7.559 -0.2174 -0.0895 -0.2222
25782SOL    HW189405   5.010   7.844   7.585 -0.0601 -1.4581 -1.8550
25782SOL    HW289406   5.093   7.915   7.463  1.3649 -0.7299 -0.4908
25783SOL     OW89407   4.582   9.242   1.688  0.7555 -0.3397  0.1653
25783SOL    HW189408   4.616   9.291   1.607  1.7939 -1.1069  0.1222
25783SOL    HW289409   4.659   9.222   1.749  0.1199 -0.6475  0.8642
25784SOL     OW89410   9.217   6.761   0.034 -0.1070 -0.3100 -0.3391
25784SOL    HW189411   9.286   6.689   0.023  1.1187  0.8973 -0.7677
25784SOL    HW289412   9.138   6.740  -0.024  1.5629  0.2440 -2.9084
25785SOL     OW89413   0.065   8.418   6.774 -0.2266  0.5776  0.4524
25785SOL    HW189414  -0.006   8.429   6.843  0.4013  1.3744  0.9877
25785SOL    HW289415   0.121   8.501   6.771 -0.4879  0.7022 -1.2921
25786SOL     OW89416   8.926   7.794   9.027  0.0244  0.1488  0.0450
25786SOL    HW189417   8.934   7.709   8.976  1.3393  0.0688  0.3665
25786SOL    HW289418   8.845   7.791   9.085  0.9464 -1.5432  1.2757
25787SOL     OW89419   4.821   0.838   7.405 -0.7777 -0.2668 -0.0373
25787SOL    HW189420   4.750   0.885   7.352 -2.3479 -0.1881  2.0813
25787SOL    HW289421   4.899   0.818   7.345 -2.2228  0.3835 -2.2145
25788SOL     OW89422   6.278   4.865   6.050 -0.1805  0.2446 -0.7048
25788SOL    HW189423   6.197   4.841   5.996 -0.6794 -2.2320  1.0584
25788SOL    HW289424   6.360   4.842   5.999 -0.6362 -0.7151 -1.0168
25789SOL     OW89425   0.687   0.584   1.854 -0.4290  0.3036  0.5829
25789SOL    HW189426   0.723   0.567   1.946  1.7862  0.9254 -0.1432
25789SOL    HW289427   0.593   0.617   1.861  0.2533  1.9063  2.7449
25790SOL     OW89428   1.332   2.047   0.619  0.6344 -0.4244 -0.2851
25790SOL    HW189429   1.383   2.106   0.681  2.6244 -2.9903  0.6038
25790SOL    HW289430   1.379   2.043   0.531  1.3428 -1.8746  0.1551
25791SOL     OW89431   0.246   9.983   1.873  0.0919  0.5375  0.2706
25791SOL    HW189432   0.181   9.909   1.853  1.0516 -0.2279 -0.0249
25791SOL    HW289433   0.280   9.973   1.967 -0.9577  1.5115  0.7665
25792SOL     OW89434   9.147   3.510   7.979  0.0385  0.0569  0.1019
25792SOL    HW189435   9.113   3.600   8.008 -1.6712 -0.6499  0.3250
25792SOL    HW289436   9.240   3.520   7.944  0.3236  1.7214  1.2664
25793SOL     OW89437   9.958   3.209   9.107 -0.2319  0.0203 -0.1871
25793SOL    HW189438   9.878   3.234   9.052  0.1536  1.3960 -0.1216
25793SOL    HW289439   9.932   3.201   9.203 -0.5915 -0.9505 -0.3568
25794SOL     OW89440   8.895   3.323   4.836  0.3920  0.0744  0.3109
25794SOL    HW189441   8.928   3.406   4.792 -0.7371  0.6786  0.5762
25794SOL    HW289442   8.952   3.245   4.808 -0.3211  0.4177 -2.2805
25795SOL     OW89443   9.937   9.615   6.022 -0.5615  0.1189  0.0149
25795SOL    HW189444   9.894   9.579   5.938  0.7109 -1.6563  0.1015
25795SOL    HW289445   9.993   9.694   5.999  0.7900 -1.1071 -1.0632
25796SOL     OW89446   8.652   0.677   4.227  0.3212 -0.3277  0.0180
25796SOL    HW189447   8.724   0.726   4.276  0.1227  0.4340 -0.4410
25796SOL    HW289448   8.654   0.704   4.131 -1.6961  1.0343  0.3392
25797SOL     OW89449   9.252   8.540   7.343 -0.5281 -0.1922 -0.6669
25797SOL    HW189450   9.196   8.458   7.334 -0.2725 -0.2184 -2.1561
25797SOL    HW289451   9.214   8.613   7.286 -0.6097  0.6607  0.4482
25798SOL     OW89452   6.770   7.496   6.161 -0.1620 -0.3215 -0.3865
25798SOL    HW189453   6.741   7.467   6.069 -0.4163  0.4356 -0.5447
25798SOL    HW289454   6.802   7.416   6.212 -0.7837 -0.8713 -0.8499
25799SOL     OW89455   6.984   7.887   0.180  0.3427 -0.1241 -0.2547
25799SOL    HW189456   6.922   7.852   0.251 -0.7334  1.8772 -0.1689
25799SOL    HW289457   7.073   7.907   0.221  0.7546 -1.9916 -0.1584
25800SOL     OW89458   5.706   6.066   0.719 -0.8902  0.0785  0.2153
25800SOL    HW189459   5.752   5.990   0.674 -0.8319 -0.5024  1.2402
25800SOL    HW289460   5.750   6.152   0.693 -0.4305 -0.3083 -0.2886
25801SOL     OW89461   7.802   2.950   7.983  0.1349 -1.3543 -0.0813
25801SOL    HW189462   7.747   2.874   8.016 -3.8255  1.5681  0.3373
25801SOL    HW289463   7.770   2.978   7.892 -0.3751  1.6078  0.9618
25802SOL     OW89464   0.820   4.941   3.861  0.1071  0.2154 -0.5909
25802SOL    HW189465   0.879   5.014   3.896  2.0453 -2.3063  1.6746
25802SOL    HW289466   0.869   4.890   3.790 -0.5037 -0.0500 -0.8272
25803SOL     OW89467   9.960   8.642   5.832  0.1542  0.0425 -0.6899
25803SOL    HW189468   9.966   8.543   5.843  0.1819  0.0566 -0.5740
25803SOL    HW289469   9.900   8.680   5.902  0.1918  0.1151 -0.6958
25804SOL     OW89470   2.024   2.098   0.979  0.0744  0.5123  0.1298
25804SOL    HW189471   2.120   2.103   1.007 -0.2542 -1.6302  1.7692
25804SOL    HW289472   2.018   2.048   0.893  0.5043  1.5820 -0.5372
25805SOL     OW89473   7.832   2.857   3.475 -0.2670 -0.5284  0.1353
25805SOL    HW189474   7.896   2.907   3.416 -3.2092  1.0919 -1.7691
25805SOL    HW289475   7.806   2.915   3.553 -0.1414 -0.8354  0.4067
25806SOL     OW89476   2.335   9.455   1.458 -0.2070  0.2023 -0.1582
25806SOL    HW189477   2.351   9.395   1.380 -2.2012 -0.0053 -0.4289
25806SOL    HW289478   2.344   9.550   1.429 -1.2105  0.1292 -0.7091
25807SOL     OW89479   2.882   1.713   0.549 -0.0434 -0.3405  0.4054
25807SOL    HW189480   2.824   1.763   0.485  0.7293  0.6043  0.4222
25807SOL    HW289481   2.890   1.618   0.520  1.6631  0.4376 -1.8871
25808SOL     OW89482   7.047   1.034   0.172  0.0846 -0.1954  0.1667
25808SOL    HW189483   7.069   1.118   0.122  0.9796 -0.7412 -0.3630
25808SOL    HW289484   7.061   1.050   0.270 -0.4195  0.4812  0.1357
25809SOL     OW89485   4.152   1.911   9.331  0.0688  0.5395  0.2157
25809SOL    HW189486   4.239   1.893   9.377 -0.0856 -0.3256  0.1784
25809SOL    HW289487   4.154   2.002   9.291  1.2557  0.2329 -0.4655
25810SOL     OW89488   0.006   1.598   5.266  0.0941 -0.0975  0.2007
25810SOL    HW189489  -0.031   1.659   5.196 -0.6104  1.4416  1.8466
25810SOL    HW289490  -0.043   1.511   5.263 -1.9726  0.9881  0.6232
25811SOL     OW89491   7.052   0.702   1.067  0.2839  0.4069  0.1656
25811SOL    HW189492   7.068   0.648   0.984  2.3942  0.5949  0.4151
25811SOL    HW289493   7.092   0.793   1.056 -1.1473  1.0995  0.6526
25812SOL     OW89494   5.072   1.699   1.430  0.0295 -0.5789  0.2427
25812SOL    HW189495   4.981   1.700   1.471  0.4620 -0.9485  1.2235
25812SOL    HW289496   5.092   1.607   1.396  0.3912 -0.7255  0.8425
25813SOL     OW89497   1.580   5.810   2.281 -0.3062  0.0282 -0.0199
25813SOL    HW189498   1.496   5.830   2.231  0.1531  1.6835 -0.1724
25813SOL    HW289499   1.630   5.896   2.297  2.1230 -1.0800 -1.3284
25814SOL     OW89500   5.278   5.779   4.164 -0.2305  0.1443 -0.2106
25814SOL    HW189501   5.241   5.690   4.191  1.0304 -0.6455 -1.0250
25814SOL    HW289502   5.345   5.767   4.091 -0.2272  1.7956 -0.5111
25815SOL     OW89503   0.770   0.509   8.377 -0.6928  0.3149  0.1314
25815SOL    HW189504   0.713   0.442   8.330 -0.7705  1.5380 -1.5955
25815SOL    HW289505   0.712   0.567   8.435 -0.9365  0.3213 -0.1168
25816SOL     OW89506   6.394   8.916   5.336 -0.0996  0.2505 -0.1749
25816SOL    HW189507   6.305   8.886   5.372  0.7796 -0.4264  1.4870
25816SOL    HW289508   6.395   8.904   5.237 -1.1002 -1.7564  0.0291
25817SOL     OW89509   6.261   1.014   0.392  0.2126  0.1933 -0.4068
25817SOL    HW189510   6.260   0.948   0.467 -1.7760  0.9022  0.2161
25817SOL    HW289511   6.216   0.975   0.312  0.4528  0.2126 -0.5524
25818SOL     OW89512   7.416   1.215   5.622 -0.2922  0.0738  0.4121
25818SOL    HW189513   7.485   1.261   5.677  1.0413 -0.8382 -0.4615
25818SOL    HW289514   7.425   1.116   5.635  0.7390 -0.2151 -2.2128
25819SOL     OW89515   7.054   8.354   3.281 -0.0817 -0.3308 -0.0595
25819SOL    HW189516   6.956   8.365   3.262 -0.4160 -0.9713  1.2821
25819SOL    HW289517   7.075   8.258   3.296  0.9514 -0.3222 -1.3459
25820SOL     OW89518   1.754   3.133   1.069  0.4183 -0.7321  0.1877
25820SOL    HW189519   1.682   3.073   1.104  0.4205  0.2399  1.9222
25820SOL    HW289520   1.831   3.133   1.132  0.8217  0.3242 -0.3000
25821SOL     OW89521   8.445   6.277   4.725  0.2682  0.5639  0.1525
25821SOL    HW189522   8.520   6.222   4.761 -0.7351 -0.5465  0.5646
25821SOL    HW289523   8.382   6.300   4.799 -0.7707 -0.0719 -0.5203
25822SOL     OW89524   8.059   3.268   3.881  0.3108 -0.6789 -0.0720
25822SOL    HW189525   7.977   3.234   3.928  0.2908  0.5746  0.8101
25822SOL    HW289526   8.066   3.367   3.893  0.9932 -0.5199 -1.6549
25823SOL     OW89527   9.071   1.610   2.161 -0.6351 -0.1802  0.8472
25823SOL    HW189528   9.137   1.537   2.180 -0.8544  0.0002  2.3800
25823SOL    HW289529   9.120   1.693   2.135 -0.3088 -0.3619  0.8805
25824SOL     OW89530   9.594   1.737   0.020  0.3979 -0.2033  0.5218
25824SOL    HW189531   9.588   1.835   0.001  0.0222  0.3906  3.5142
25824SOL    HW289532   9.667   1.696  -0.034 -0.0381  1.5364 -1.4238
25825SOL     OW89533   4.066   2.048   9.814  0.0009 -0.8451 -0.1559
25825SOL    HW189534   4.113   2.117   9.759  0.1691 -0.0719  0.9364
25825SOL    HW289535   3.971   2.041   9.784 -0.2548  0.5039  0.3030
25826SOL     OW89536   7.338   8.237   0.567  0.1961 -0.2356  0.1700
25826SOL    HW189537   7.261   8.296   0.592  2.4331  2.6639  0.4459
25826SOL    HW289538   7.409   8.245   0.637  2.0203 -0.4667 -1.6380
25827SOL     OW89539   9.673   2.975   2.044  0.2237  0.3017  0.2675
25827SOL    HW189540   9.596   2.983   2.106  0.4429 -0.0524  0.5910
25827SOL    HW289541   9.755   3.014   2.087 -0.2673  2.8331 -0.9996
25828SOL     OW89542   7.616   7.679   0.658 -0.2896  0.5034 -0.0104
25828SOL    HW189543   7.637   7.624   0.577 -0.8359 -1.9503  1.4632
25828SOL    HW289544   7.521   7.664   0.686  0.3187  0.0880  1.9722
25829SOL     OW89545   3.238   1.038   3.950  0.2414 -0.3031 -0.1255
25829SOL    HW189546   3.157   1.091   3.974  1.7142  1.3476  1.3599
25829SOL    HW289547   3.215   0.940   3.947 -1.6791  0.1053  0.7391
25830SOL     OW89548   6.158   8.763   7.659 -0.1458  0.1546 -0.8302
25830SOL    HW189549   6.090   8.816   7.709  0.0120  0.3522 -0.8256
25830SOL    HW289550   6.138   8.666   7.668 -1.1427  0.2545 -1.8351
25831SOL     OW89551   3.241   6.971   9.284  0.8257 -0.0421  0.3036
25831SOL    HW189552   3.314   6.998   9.347  0.1340  1.6550  0.4005
25831SOL    HW289553   3.232   7.040   9.212 -0.2735 -0.5554 -0.0574
25832SOL     OW89554   1.016   7.544   4.941 -0.1217  0.0658  0.2063
25832SOL    HW189555   1.056   7.616   4.884 -0.3021 -0.9358 -1.2279
25832SOL    HW289556   1.040   7.559   5.036 -1.7698  3.1037  0.1867
25833SOL     OW89557   6.278   8.611   0.138  0.1664  0.5320  0.2353
25833SOL    HW189558   6.290   8.606   0.039  2.2308  0.9736  0.4480
25833SOL    HW289559   6.197   8.558   0.164  1.8933 -3.0604 -1.2455
25834SOL     OW89560   6.366   8.738   4.762  0.2925  0.4875 -0.3050
25834SOL    HW189561   6.402   8.645   4.765  0.0995  0.4444  1.6777
25834SOL    HW289562   6.384   8.778   4.672  0.6068 -1.3621 -1.0928
25835SOL     OW89563   9.713   0.218   5.485 -0.9246 -0.6563  0.1979
25835SOL    HW189564   9.644   0.220   5.412  0.0341  1.5156 -0.6955
25835SOL    HW289565   9.804   0.222   5.444 -0.3646  0.3238  1.5177
25836SOL     OW89566   2.243   8.156   4.291  0.9044 -0.4857  0.0146
25836SOL    HW189567   2.247   8.176   4.388  0.7204  1.7600 -0.4037
25836SOL    HW289568   2.311   8.086   4.268  4.0539  2.0909  1.0326
25837SOL     OW89569   8.581   0.729   0.603  0.2995  0.4532 -0.7080
25837SOL    HW189570   8.632   0.709   0.687  0.9076  1.5659 -0.7960
25837SOL    HW289571   8.618   0.676   0.527  0.9231  0.7777 -0.6355
25838SOL     OW89572   7.325   8.425   3.179 -0.5146  0.2509 -0.1019
25838SOL    HW189573   7.235   8.409   3.220 -0.5718  0.5406 -0.1074
25838SOL    HW289574   7.371   8.338   3.164 -1.7560 -0.0829 -2.2547
25839SOL     OW89575   5.219   9.590   0.390  0.1929  0.0687  0.8299
25839SOL    HW189576   5.316   9.569   0.402 -0.0972 -2.2685 -0.4635
25839SOL    HW289577   5.206   9.650   0.312  0.4596 -1.3897 -0.3599
25840SOL     OW89578   6.357   7.763   2.418 -0.6846 -0.5014  0.2473
25840SOL    HW189579   6.356   7.861   2.436  3.4228 -0.2552 -0.2842
25840SOL    HW289580   6.394   7.715   2.498  1.9600 -1.0564 -1.2366
25841SOL     OW89581   5.346   3.175   2.459  0.0818 -0.2042  0.7984
25841SOL    HW189582   5.334   3.264   2.502 -2.6153  0.1047 -0.5195
25841SOL    HW289583   5.411   3.183   2.383 -1.1848  0.9488 -0.1799
25842SOL     OW89584   8.096   1.669   2.308 -0.2677  0.2390 -0.2437
25842SOL    HW189585   8.008   1.633   2.278 -0.0123 -1.3594  0.7871
25842SOL    HW289586   8.125   1.743   2.249 -1.7930  0.0436 -1.2511
25843SOL     OW89587   6.641   9.775   5.080 -0.1842  0.1424  0.6800
25843SOL    HW189588   6.555   9.791   5.128 -0.0451 -0.1991  1.0495
25843SOL    HW289589   6.661   9.852   5.019 -0.7659  0.2060  0.5744
25844SOL     OW89590   7.293   1.370   1.501 -0.0440 -0.0622  0.3977
25844SOL    HW189591   7.276   1.407   1.592  1.2256 -0.3451  0.7560
25844SOL    HW289592   7.366   1.421   1.456 -0.0184 -0.5175 -0.0912
25845SOL     OW89593   7.244   0.291   4.297 -0.7531 -0.1128 -0.5165
25845SOL    HW189594   7.182   0.218   4.268 -1.2014  0.2348 -0.4287
25845SOL    HW289595   7.309   0.255   4.363 -1.1805 -0.3528 -0.2279
25846SOL     OW89596   6.744   7.959   2.068  0.5240  0.5012 -0.3690
25846SOL    HW189597   6.672   8.027   2.079 -0.3923 -0.3284 -1.2159
25846SOL    HW289598   6.831   7.998   2.100 -0.5463  0.9599  2.1530
25847SOL     OW89599   0.281   0.613   8.425 -0.3159  0.1763 -0.4732
25847SOL    HW189600   0.314   0.608   8.331 -1.6189  0.8126 -0.9803
25847SOL    HW289601   0.229   0.531   8.447  1.1532 -0.6154  0.1768
25848SOL     OW89602   6.538   8.188   4.908  0.9161  0.1818 -0.5681
25848SOL    HW189603   6.573   8.161   4.818  0.0479  0.1724 -0.9085
25848SOL    HW289604   6.475   8.118   4.941  1.4599  0.0508  0.1750
25849SOL     OW89605   9.648   6.240   5.869 -0.2603  0.0309  0.4266
25849SOL    HW189606   9.728   6.257   5.812 -0.5808  2.2782  0.6144
25849SOL    HW289607   9.570   6.294   5.835 -0.7885  0.4565  2.2313
25850SOL     OW89608   7.399   0.453   5.310  0.6545  0.6036 -0.3912
25850SOL    HW189609   7.494   0.434   5.283  0.6173  0.2723 -0.2899
25850SOL    HW289610   7.365   0.531   5.258  1.4027  1.5334  0.4856
25851SOL     OW89611   2.327   9.684   1.937 -0.6612  0.3292 -0.4302
25851SOL    HW189612   2.396   9.744   1.978 -1.2329  1.3382 -0.9504
25851SOL    HW289613   2.317   9.705   1.840 -1.8702  0.3424 -0.3041
25852SOL     OW89614   6.572   5.013   9.587  0.0856  0.5532 -0.1818
25852SOL    HW189615   6.545   5.029   9.492  0.7971 -1.7142 -0.8130
25852SOL    HW289616   6.666   4.977   9.589 -1.0785 -2.6219  1.0847
25853SOL     OW89617   1.377   0.547   4.730  0.2798 -0.5792 -0.5334
25853SOL    HW189618   1.465   0.565   4.774  1.2523 -0.1841 -2.5807
25853SOL    HW289619   1.307   0.533   4.800  1.6187  0.7913  1.1355
25854SOL     OW89620   1.294   8.996   4.455 -0.2904 -0.1323  0.0705
25854SOL    HW189621   1.373   8.972   4.511  0.8502  1.9578 -0.5680
25854SOL    HW289622   1.323   9.004   4.359 -0.7028  3.1186  0.1742
25855SOL     OW89623   2.192   6.559   4.807  0.4314 -0.1041  0.1869
25855SOL    HW189624   2.169   6.470   4.769 -2.1294  0.7138 -0.2455
25855SOL    HW289625   2.124   6.585   4.876  1.0795  1.5746  0.2223
25856SOL     OW89626   5.566   9.450   7.759  0.8621  0.6780  0.1213
25856SOL    HW189627   5.520   9.461   7.847 -0.1043 -0.7850 -0.1703
25856SOL    HW289628   5.581   9.539   7.717 -1.9086  1.1930  0.1503
25857SOL     OW89629   7.754   9.661   7.893  0.0941 -0.3804 -0.0256
25857SOL    HW189630   7.780   9.605   7.814  3.6129 -1.1176  1.5624
25857SOL    HW289631   7.690   9.609   7.950  1.4286 -1.8613  0.1671
25858SOL     OW89632   6.155   9.312   8.301  0.4202  0.0960  0.0892
25858SOL    HW189633   6.254   9.299   8.303  0.2173 -1.4342  0.9664
25858SOL    HW289634   6.117   9.264   8.222  0.2637 -0.1985  0.3444
25859SOL     OW89635   3.054   1.057   1.370  0.2771  0.7958  0.2097
25859SOL    HW189636   3.106   0.980   1.335  0.3314  0.6476  0.6181
25859SOL    HW289637   3.050   1.053   1.470  0.1733  1.2497  0.2269
25860SOL     OW89638   0.212   5.409   8.361 -0.1562  0.1648  0.8243
25860SOL    HW189639   0.130   5.365   8.322  0.2569 -0.7419  0.9609
25860SOL    HW289640   0.219   5.385   8.458  0.3604  0.0971  0.7717
25861SOL     OW89641   7.768   6.490   2.747 -0.0190  0.3452  0.3172
25861SOL    HW189642   7.757   6.401   2.704 -0.2692  1.1484 -1.3084
25861SOL    HW289643   7.712   6.495   2.830 -0.8341 -0.6193 -0.1740
25862SOL     OW89644   3.628   8.001   0.570 -0.7580  0.2252  0.3273
25862SOL    HW189645   3.704   8.052   0.611 -0.5116 -0.5525  0.8396
25862SOL    HW289646   3.647   7.903   0.574 -1.7377  0.0270  0.3601
25863SOL     OW89647   1.431   9.224   4.917 -0.2274  0.3673 -0.1313
25863SOL    HW189648   1.341   9.263   4.900 -1.2607 -1.6134  0.5857
25863SOL    HW289649   1.496   9.258   4.849 -1.6149  1.4794 -0.9251
25864SOL     OW89650   6.025   5.026   4.268  0.0934  0.0903 -0.0681
25864SOL    HW189651   5.958   5.028   4.194 -0.5136 -0.0198  0.4723
25864SOL    HW289652   6.017   4.939   4.317  0.3037  0.2785  0.2987
25865SOL     OW89653   2.054   5.232   8.299 -0.6384  0.1363 -0.5773
25865SOL    HW189654   1.983   5.199   8.361  0.7576 -1.0830  0.3983
25865SOL    HW289655   2.068   5.166   8.226 -0.3384  0.2749 -0.6456
25866SOL     OW89656   1.519   2.747   6.007  0.1847 -0.1770 -0.0883
25866SOL    HW189657   1.563   2.760   5.918  1.4918 -0.9679  0.4268
25866SOL    HW289658   1.540   2.656   6.041 -2.2595 -0.7520 -0.0253
25867SOL     OW89659   8.298   0.656   6.213 -0.1314  0.1099 -0.7311
25867SOL    HW189660   8.356   0.634   6.135  0.6276 -1.9170  0.3756
25867SOL    HW289661   8.348   0.714   6.277 -0.9914  2.3721 -2.0347
25868SOL     OW89662   4.184   7.801   4.311  0.4973 -0.2086  0.4848
25868SOL    HW189663   4.141   7.712   4.327 -0.1487 -0.1311 -0.7914
25868SOL    HW289664   4.165   7.862   4.389 -0.3755 -0.6812  0.6399
25869SOL     OW89665   0.562   0.753   3.776  0.0782  0.4843 -0.4240
25869SOL    HW189666   0.548   0.839   3.825 -0.1659  0.3994 -0.3394
25869SOL    HW289667   0.659   0.731   3.772  0.0106 -0.0900  1.0249
25870SOL     OW89668   7.838   8.333   2.745  0.0609  0.0580 -0.4543
25870SOL    HW189669   7.932   8.341   2.779  0.0358  0.8424 -0.5510
25870SOL    HW289670   7.783   8.284   2.812  0.4934 -0.2494 -0.3152
25871SOL     OW89671   5.485   2.026   3.058 -0.2312  0.3861 -0.4842
25871SOL    HW189672   5.472   1.977   3.144 -3.4848  1.9719  0.0010
25871SOL    HW289673   5.491   2.124   3.076 -2.8730  0.9006 -2.1910
25872SOL     OW89674   1.821   7.218   4.762 -0.5421  0.0162 -0.1609
25872SOL    HW189675   1.825   7.224   4.662 -1.6213  0.0447 -0.2012
25872SOL    HW289676   1.830   7.122   4.789 -1.6805 -0.1526 -0.3571
25873SOL     OW89677   3.173   7.136   0.436  0.6216  0.6789 -0.0241
25873SOL    HW189678   3.150   7.228   0.404  0.8417  0.5512 -0.5490
25873SOL    HW289679   3.264   7.137   0.478  0.0133  1.0158  1.3337
25874SOL     OW89680   3.166   8.368   3.366  0.4753  0.4289 -0.4431
25874SOL    HW189681   3.210   8.373   3.276 -1.2380 -0.1722 -1.3460
25874SOL    HW289682   3.183   8.278   3.406 -2.8012 -1.1617 -2.3762
25875SOL     OW89683   0.576   8.735   5.349 -1.0077 -0.3872 -0.5985
25875SOL    HW189684   0.670   8.721   5.317 -0.8530 -0.2239 -0.2189
25875SOL    HW289685   0.567   8.699   5.442 -0.9974  0.6932 -0.1731
25876SOL     OW89686   7.821   6.586   4.861  0.0161  0.0820 -0.3579
25876SOL    HW189687   7.903   6.530   4.861 -1.6289 -2.4226 -2.3023
25876SOL    HW289688   7.770   6.572   4.946  1.3950  1.4242  0.7229
25877SOL     OW89689   7.999   3.360   2.442  0.3495 -0.3714 -0.0589
25877SOL    HW189690   7.956   3.279   2.482  0.2198 -0.1322  0.2969
25877SOL    HW289691   7.959   3.442   2.484 -0.4977 -0.0860 -1.3742
25878SOL     OW89692   6.005   7.559   7.389 -0.0452  0.0624  0.2504
25878SOL    HW189693   6.012   7.647   7.344 -2.1957  0.1677  0.0628
25878SOL    HW289694   6.065   7.557   7.469  0.6023  1.3926 -0.1993
25879SOL     OW89695   1.038   5.204   7.887 -0.0972  0.0516 -0.2745
25879SOL    HW189696   1.022   5.303   7.889  1.5342  0.3393 -0.7662
25879SOL    HW289697   0.957   5.157   7.852 -0.7441  1.2384 -0.3778
25880SOL     OW89698   6.569   9.711   6.384 -0.1875 -0.4585  0.6038
25880SOL    HW189699   6.644   9.669   6.333 -0.7849 -1.5617  0.6231
25880SOL    HW289700   6.506   9.640   6.415 -0.5921  0.3444  1.6462
25881SOL     OW89701   2.028   9.465   5.151 -0.5437  0.0998  0.8183
25881SOL    HW189702   1.946   9.501   5.105 -0.2979 -0.2390  0.1141
25881SOL    HW289703   2.038   9.368   5.130  1.0020  0.5281 -0.5091
25882SOL     OW89704   6.841   8.346   5.809 -0.4338 -0.5773  0.7521
25882SOL    HW189705   6.833   8.298   5.722 -2.2306 -1.7783  1.5566
25882SOL    HW289706   6.808   8.287   5.883 -1.9076  1.5809  1.8717
25883SOL     OW89707   9.250   9.972   7.057  0.2869 -0.5706  0.0688
25883SOL    HW189708   9.178   9.980   6.988 -0.3210 -1.1104  0.6277
25883SOL    HW289709   9.209   9.956   7.146  1.0519  0.6481  0.6472
25884SOL     OW89710   6.973   5.744   7.966  0.0633 -0.2634 -0.0916
25884SOL    HW189711   6.972   5.760   8.065  1.9240 -1.5315  0.1685
25884SOL    HW289712   7.039   5.806   7.923 -1.9994  1.4926 -0.7997
25885SOL     OW89713   8.908   8.138   3.775 -0.0583 -0.6219  0.7750
25885SOL    HW189714   8.932   8.165   3.868  1.6109 -0.2488  0.2680
25885SOL    HW289715   8.992   8.114   3.726 -1.0528 -2.0363 -0.2439
25886SOL     OW89716   7.583   3.484   3.857 -0.3653  0.9233 -0.4070
25886SOL    HW189717   7.569   3.409   3.792 -3.3091  1.2902 -0.2438
25886SOL    HW289718   7.668   3.468   3.908 -0.2145 -1.5610 -1.3506
25887SOL     OW89719   7.748   0.045   0.175  0.5105  0.1453  0.0286
25887SOL    HW189720   7.746   0.023   0.272  0.7884 -0.3166 -0.0697
25887SOL    HW289721   7.741   0.145   0.163 -1.9131  0.0445  0.4246
25888SOL     OW89722   5.277   9.522   2.197  0.2472  0.3879  0.2320
25888SOL    HW189723   5.347   9.593   2.196  1.0727 -0.4171  0.1881
25888SOL    HW289724   5.320   9.434   2.215 -0.8231 -0.0432  0.6977
25889SOL     OW89725   9.943   6.310   5.815  0.2357  0.0135  0.1118
25889SOL    HW189726   9.973   6.218   5.838 -1.0858 -0.2105  0.9510
25889SOL    HW289727   9.966   6.373   5.889  3.9564  0.9827 -1.7781
25890SOL     OW89728   9.111   7.717   5.276  0.0135 -0.1282 -0.1217
25890SOL    HW189729   9.058   7.746   5.356  1.4817  0.2603  0.7325
25890SOL    HW289730   9.057   7.651   5.222 -0.9551 -0.4797  1.2438
25891SOL     OW89731   6.944   5.921   4.625 -0.0349 -0.1739 -0.3228
25891SOL    HW189732   7.005   5.856   4.669  0.2490  0.7996  0.7510
25891SOL    HW289733   6.971   5.934   4.530  1.4806  0.2982  0.1535
25892SOL     OW89734   8.310   0.088   6.621  0.3088  0.2933 -0.4431
25892SOL    HW189735   8.379   0.066   6.552  0.3189 -0.0288 -0.3331
25892SOL    HW289736   8.355   0.111   6.707  0.2606 -1.0464 -0.0432
25893SOL     OW89737   7.508   3.101   2.343 -0.2602 -0.3040 -0.3884
25893SOL    HW189738   7.542   3.028   2.402  0.4897  0.0119 -0.4249
25893SOL    HW289739   7.572   3.177   2.345  0.1458 -0.5873 -2.1923
25894SOL     OW89740   6.639   2.735   6.286 -0.1450  0.1200 -0.2086
25894SOL    HW189741   6.724   2.784   6.264 -2.0675  3.0700 -1.3321
25894SOL    HW289742   6.623   2.665   6.217  1.7928 -1.0458  0.4818
25895SOL     OW89743   5.208   9.717   2.530 -0.0423 -0.2507  0.1114
25895SOL    HW189744   5.143   9.695   2.603 -0.0007 -1.1363 -0.1152
25895SOL    HW289745   5.158   9.735   2.446 -0.1004  0.9243  0.3857
25896SOL     OW89746   9.955   7.740   2.996  0.4155  0.5333 -0.0856
25896SOL    HW189747   9.886   7.813   2.990  0.3909  0.6485  1.4295
25896SOL    HW289748   9.933   7.669   2.930 -1.6801  0.1449  0.9745
25897SOL     OW89749   0.101   9.664   1.047  0.3757  0.0836  0.1734
25897SOL    HW189750   0.095   9.764   1.045 -0.8330  0.0337  0.8590
25897SOL    HW289751   0.145   9.632   0.963  0.4288  1.1617 -0.2281
25898SOL     OW89752   1.105   7.050   3.692  0.2599 -0.0663 -0.0089
25898SOL    HW189753   1.088   6.984   3.618 -2.1241  1.5563 -0.9640
25898SOL    HW289754   1.158   7.006   3.764  0.9728 -2.2585 -1.7917
25899SOL     OW89755   8.777   9.132   2.658 -0.8623 -0.2821  0.5125
25899SOL    HW189756   8.794   9.045   2.612 -0.3084 -0.2239  0.6007
25899SOL    HW289757   8.847   9.198   2.632 -1.6253  0.3208 -0.0115
25900SOL     OW89758   8.972   4.729   0.350  0.1580  0.3029  0.1339
25900SOL    HW189759   8.932   4.656   0.295  0.2897 -0.0797  0.5306
25900SOL    HW289760   8.947   4.715   0.446  1.1604  0.1090  0.3732
25901SOL     OW89761   9.500   0.515   4.045 -0.2867 -0.2261 -0.1776
25901SOL    HW189762   9.490   0.603   3.998  2.2466 -0.6098 -1.5257
25901SOL    HW289763   9.431   0.451   4.011 -1.0204  0.7029 -0.4637
25902SOL     OW89764   5.012   9.036   7.215  0.1057 -0.1358 -0.4098
25902SOL    HW189765   5.087   9.038   7.149  0.6055  1.0791  0.1865
25902SOL    HW289766   5.023   9.110   7.281 -0.5397 -1.1834  0.8894
25903SOL     OW89767   8.191   0.273   5.135  0.1480 -0.1492  0.7491
25903SOL    HW189768   8.198   0.241   5.229  1.1080 -1.6912  0.1702
25903SOL    HW289769   8.116   0.339   5.127  1.8362  2.1501  3.1688
25904SOL     OW89770   5.018   2.079   4.500  0.4844 -0.4604 -0.0525
25904SOL    HW189771   5.020   1.984   4.470  1.8351 -0.6289  0.5126
25904SOL    HW289772   5.009   2.139   4.420  0.6361 -1.0288 -0.4976
25905SOL     OW89773   4.992   2.616   2.881  0.2287 -0.4150 -0.2773
25905SOL    HW189774   5.001   2.528   2.927  2.0841 -0.8421 -1.3846
25905SOL    HW289775   5.066   2.676   2.910 -0.1638  0.2560 -0.6517
25906SOL     OW89776   5.129   0.547   2.208  0.1175  0.2540  0.5189
25906SOL    HW189777   5.213   0.593   2.177  0.6462 -1.8982 -1.3652
25906SOL    HW289778   5.057   0.561   2.141 -0.3271  0.0255  0.9470
25907SOL     OW89779   7.333   8.225   2.015  0.0716  0.1114 -0.1236
25907SOL    HW189780   7.357   8.189   1.924  2.6683 -1.8080  1.2761
25907SOL    HW289781   7.280   8.156   2.065 -0.9422  0.9855  0.0356
25908SOL     OW89782   6.371   7.871   4.424  0.0170 -0.0587  0.5015
25908SOL    HW189783   6.357   7.874   4.523  0.4240 -0.0479  0.5623
25908SOL    HW289784   6.284   7.886   4.377  0.1272  1.9090  0.8501
25909SOL     OW89785   6.633   3.293   2.754  0.1627  0.3922  0.3402
25909SOL    HW189786   6.618   3.391   2.743  0.4376  0.5545  1.3292
25909SOL    HW289787   6.567   3.243   2.698  0.1952  1.1386 -0.3716
25910SOL     OW89788   5.660   8.959   6.616  0.4827  0.4462 -0.2345
25910SOL    HW189789   5.648   8.949   6.518  0.4658  0.3217 -0.2195
25910SOL    HW289790   5.756   8.975   6.637  0.7449 -1.2238 -0.1259
25911SOL     OW89791   2.699   0.110   6.024  0.2394 -0.1248 -0.1318
25911SOL    HW189792   2.655   0.198   6.010 -0.0853 -0.0869  1.1410
25911SOL    HW289793   2.635   0.046   6.067  0.0739 -1.3656 -2.1349
25912SOL     OW89794   5.595   8.723   0.020 -0.2782 -0.2945  0.0316
25912SOL    HW189795   5.504   8.733   0.060  0.1015 -0.2156  0.8943
25912SOL    HW289796   5.664   8.752   0.086  0.3323  0.5683 -0.9665
25913SOL     OW89797   6.154   8.280   7.515  0.5367  0.4313  0.5653
25913SOL    HW189798   6.245   8.262   7.551  1.1926 -1.4153 -1.9089
25913SOL    HW289799   6.087   8.227   7.567  1.1402  0.0155  0.9259
25914SOL     OW89800   6.349   9.232   1.369 -0.4978  0.3821  0.1043
25914SOL    HW189801   6.250   9.233   1.383 -0.3258  0.8404  1.2907
25914SOL    HW289802   6.395   9.213   1.456  0.4794  0.6714 -0.3481
25915SOL     OW89803   9.642   2.533   0.800 -0.0596 -0.2074 -0.2554
25915SOL    HW189804   9.609   2.625   0.784  1.7278  0.6486  0.8222
25915SOL    HW289805   9.565   2.474   0.827 -1.0934  1.0983 -0.3084
25916SOL     OW89806   9.498   8.103   3.600  0.3145 -0.5479 -0.0878
25916SOL    HW189807   9.595   8.108   3.580 -0.0387  3.2516 -1.1449
25916SOL    HW289808   9.445   8.128   3.519 -1.4220  1.4893  1.6145
25917SOL     OW89809   6.101   2.978   0.958  0.2729 -0.0266  0.0096
25917SOL    HW189810   6.104   2.919   0.878  1.2101 -0.0018  0.0258
25917SOL    HW289811   6.006   3.002   0.978  0.0707  0.2404 -1.2845
25918SOL     OW89812   0.748   4.817   6.155 -0.1053  0.1347 -0.5877
25918SOL    HW189813   0.726   4.796   6.060 -1.0997  0.4129 -0.4287
25918SOL    HW289814   0.831   4.768   6.182  0.3207  0.2493 -1.6700
25919SOL     OW89815   2.663   9.871   0.031  0.0144  0.2263  0.0037
25919SOL    HW189816   2.762   9.882   0.035 -0.0656  1.2473 -0.8035
25919SOL    HW289817   2.629   9.847   0.122  0.8810  0.8437  0.4910
25920SOL     OW89818   9.090   3.287   0.202 -0.1008  0.7682 -0.5966
25920SOL    HW189819   9.188   3.276   0.218 -0.1239  1.8095  0.3349
25920SOL    HW289820   9.075   3.341   0.119  0.1140  1.0419 -0.4551
25921SOL     OW89821   6.821   1.024   3.441  0.3679 -0.3134  0.1588
25921SOL    HW189822   6.836   1.117   3.408 -1.5781 -0.2345 -0.6132
25921SOL    HW289823   6.889   1.001   3.510  0.0948  2.1651  1.3036
25922SOL     OW89824   8.370   7.041   6.573 -0.6915 -0.0244 -0.1126
25922SOL    HW189825   8.290   7.016   6.519 -1.7771  2.0921  0.4822
25922SOL    HW289826   8.345   7.046   6.670  0.3662 -0.2076  0.1751
25923SOL     OW89827   0.739   5.089   4.338 -0.0148  0.3028 -0.0988
25923SOL    HW189828   0.832   5.125   4.339  0.1201 -0.0395 -0.4157
25923SOL    HW289829   0.723   5.039   4.254 -0.7057  0.9231 -0.3501
25924SOL     OW89830   2.358   0.726   4.223 -0.1264  0.2137 -0.0865
25924SOL    HW189831   2.330   0.791   4.294 -0.1715 -0.3982  0.4595
25924SOL    HW289832   2.284   0.662   4.205  0.3807 -0.5008  0.3191
25925SOL     OW89833   9.369   7.745   2.704  0.0608  0.2571 -0.3065
25925SOL    HW189834   9.399   7.650   2.699 -0.9505  0.0101 -2.7564
25925SOL    HW289835   9.275   7.748   2.740 -0.1161  0.2628 -0.7626
25926SOL     OW89836   7.274   0.088   2.852 -0.0921 -0.1536  0.1738
25926SOL    HW189837   7.364   0.087   2.894  0.1749  1.0364 -0.3519
25926SOL    HW289838   7.265   0.169   2.794 -1.1587 -0.7565 -0.5149
25927SOL     OW89839   6.555   9.304   2.081 -0.6865  0.0555  0.0858
25927SOL    HW189840   6.586   9.316   2.175 -1.3468 -0.7976  0.4116
25927SOL    HW289841   6.617   9.353   2.020  0.1511  0.0304  0.9021
25928SOL     OW89842   9.279   5.400   4.362  0.1211  0.2660 -0.0405
25928SOL    HW189843   9.349   5.337   4.327 -0.4859  0.0838 -0.9474
25928SOL    HW289844   9.309   5.494   4.349 -0.0133  0.1947 -0.8807
25929SOL     OW89845   1.990   5.352   6.416 -0.6448 -0.6342  0.2962
25929SOL    HW189846   2.067   5.380   6.360 -1.6307  0.6666 -0.4466
25929SOL    HW289847   1.939   5.433   6.446 -0.9369 -1.3911  1.9144
25930SOL     OW89848   3.720   0.224   6.096 -0.2564  0.1085 -0.4754
25930SOL    HW189849   3.795   0.286   6.116 -0.8573  0.9776 -0.8861
25930SOL    HW289850   3.655   0.224   6.172 -0.0761 -0.2829 -0.3221
25931SOL     OW89851   9.324   0.199   8.953  0.0381  0.4259  0.4667
25931SOL    HW189852   9.358   0.288   8.983  0.7112  0.5895 -0.7795
25931SOL    HW289853   9.290   0.206   8.860  1.4236 -0.9407 -0.1581
25932SOL     OW89854   6.133   9.846   0.973  0.1775 -0.0475 -0.3524
25932SOL    HW189855   6.062   9.836   0.903  1.1205 -1.5621 -1.1211
25932SOL    HW289856   6.120   9.777   1.044 -0.3034  0.9817  0.5732
25933SOL     OW89857   6.794   6.710   5.794  0.6430  0.1771 -0.2965
25933SOL    HW189858   6.881   6.665   5.809 -0.1322 -0.6801  1.7342
25933SOL    HW289859   6.801   6.807   5.819  0.0978 -0.6482  3.2725
25934SOL     OW89860   7.323   6.118   2.507 -0.4566 -0.6014  0.1323
25934SOL    HW189861   7.368   6.202   2.538 -0.5432  0.6722 -3.0518
25934SOL    HW289862   7.232   6.140   2.473 -0.4243 -1.9713 -0.8641
25935SOL     OW89863   8.221   2.084   4.890 -0.4079 -0.1919  0.0647
25935SOL    HW189864   8.199   2.181   4.901  1.1088  0.1917 -0.2181
25935SOL    HW289865   8.137   2.029   4.900 -1.0270  1.0154  1.7961
25936SOL     OW89866   6.962   6.067   7.583 -0.3689  0.0517 -0.3121
25936SOL    HW189867   6.932   6.147   7.635 -0.2907 -0.3326  0.3224
25936SOL    HW289868   7.000   6.097   7.495 -2.1748  0.5584 -0.9303
25937SOL     OW89869   7.631   8.638   3.240  0.4981  0.3090  0.2021
25937SOL    HW189870   7.583   8.683   3.165 -0.7540  2.3996  2.1931
25937SOL    HW289871   7.719   8.603   3.207 -0.1446  0.9219 -2.2750
25938SOL     OW89872   7.322   2.438   0.952  0.4922 -0.3300  0.3066
25938SOL    HW189873   7.272   2.367   1.002 -1.3531 -0.2786 -1.3883
25938SOL    HW289874   7.348   2.511   1.015 -2.2423  0.0007  1.0977
25939SOL     OW89875   8.339   8.384   9.945  0.1216 -0.7355  0.3772
25939SOL    HW189876   8.258   8.410   9.997  0.0207 -2.3908  1.0968
25939SOL    HW289877   8.345   8.439   9.862 -2.1569 -1.0845 -0.0597
25940SOL     OW89878   9.690   8.417   8.146 -0.0483  0.1302  0.3687
25940SOL    HW189879   9.662   8.499   8.096 -0.8117 -0.1295  0.3554
25940SOL    HW289880   9.616   8.389   8.207 -0.7711 -1.9301 -1.3859
25941SOL     OW89881   0.636   0.161   9.426 -0.3649 -0.1419 -0.6218
25941SOL    HW189882   0.667   0.067   9.415  1.3636  0.3853 -0.3843
25941SOL    HW289883   0.597   0.194   9.340  2.1573  0.0393 -1.7276
25942SOL     OW89884   0.350   7.312   3.485  0.4750  0.0876 -0.0025
25942SOL    HW189885   0.442   7.311   3.524  0.1139  1.2810  0.9178
25942SOL    HW289886   0.314   7.220   3.482  1.1176 -0.2081  1.0362
25943SOL     OW89887   7.865   0.563   4.539 -0.0035  0.0149 -0.0398
25943SOL    HW189888   7.844   0.527   4.448 -1.9828 -1.0203  0.7866
25943SOL    HW289889   7.921   0.497   4.589  0.3265  0.1833 -0.1871
25944SOL     OW89890   1.490   3.311   2.354 -0.0552 -0.4013 -0.1367
25944SOL    HW189891   1.540   3.330   2.269 -0.8653  1.4388 -0.2509
25944SOL    HW289892   1.554   3.303   2.430  0.5895 -0.6322 -0.7056
25945SOL     OW89893   0.894   7.354   7.549 -0.5047 -0.8108 -0.2703
25945SOL    HW189894   0.830   7.380   7.622 -0.8560 -0.6800 -0.6247
25945SOL    HW289895   0.948   7.276   7.579 -0.4590 -0.5865  0.2391
25946SOL     OW89896   6.958   1.886   3.767  0.3666  0.0106  0.0772
25946SOL    HW189897   6.985   1.790   3.773  1.8412  0.4597  1.0264
25946SOL    HW289898   6.877   1.901   3.824  0.7390 -0.4821  0.7550
25947SOL     OW89899   1.523   7.735   6.668 -0.1591 -0.5386 -0.6934
25947SOL    HW189900   1.524   7.735   6.768 -0.3503 -2.4311 -0.6670
25947SOL    HW289901   1.430   7.755   6.637 -0.2460 -0.6089 -0.4838
25948SOL     OW89902   0.245   7.911   7.179  0.0563 -0.2970  0.7031
25948SOL    HW189903   0.236   7.873   7.270  0.3299  0.7189  1.1593
25948SOL    HW289904   0.328   7.875   7.135  0.3798 -0.1328  1.1790
25949SOL     OW89905   5.949   9.255   4.927 -0.2140 -0.0982 -0.2402
25949SOL    HW189906   5.916   9.161   4.924  1.0665 -0.5398 -0.6864
25949SOL    HW289907   5.959   9.291   4.834  0.7221 -0.0362 -0.1272
25950SOL     OW89908   7.857   3.675   5.885 -0.1673  0.1936  0.1553
25950SOL    HW189909   7.935   3.655   5.945  0.7216 -1.0655 -1.4002
25950SOL    HW289910   7.885   3.742   5.816 -0.6577  0.2015 -0.0346
25951SOL     OW89911   1.924   2.846   9.672  0.0956 -0.1870 -0.2153
25951SOL    HW189912   1.887   2.930   9.713 -0.4262 -0.3553 -0.3452
25951SOL    HW289913   1.971   2.793   9.743 -0.9474 -0.5589  0.2099
25952SOL     OW89914   1.643   2.447   5.704 -0.6076 -0.3186 -0.4667
25952SOL    HW189915   1.650   2.535   5.750  0.0163 -0.3450 -0.5049
25952SOL    HW289916   1.634   2.374   5.772  1.7390 -0.4915 -0.3247
25953SOL     OW89917   7.920   2.641   3.289 -0.1456  0.1676 -0.0935
25953SOL    HW189918   7.920   2.549   3.326 -0.5257 -0.7359 -2.2417
25953SOL    HW289919   7.856   2.698   3.340  0.9078 -0.4419  1.9371
25954SOL     OW89920   2.789   8.413   1.791 -0.0901 -0.0368  0.2985
25954SOL    HW189921   2.819   8.379   1.702 -0.3600 -1.5184  0.7588
25954SOL    HW289922   2.788   8.513   1.790  0.9119 -0.0221 -1.0238
25955SOL     OW89923   2.895   9.688   4.275 -0.5271 -0.1604  0.0944
25955SOL    HW189924   2.894   9.619   4.203 -1.8097 -1.0471  0.9530
25955SOL    HW289925   2.988   9.694   4.314  0.2593  0.5799 -1.8364
25956SOL     OW89926   8.888   2.061   5.169  0.1036 -0.2571  0.2922
25956SOL    HW189927   8.822   1.989   5.188  0.6813 -0.8987 -0.0765
25956SOL    HW289928   8.980   2.027   5.189  0.3762  0.3836  0.1243
25957SOL     OW89929   9.636   7.997   9.819  0.0432 -0.8519  0.2260
25957SOL    HW189930   9.706   8.061   9.787 -0.1678 -0.4070  0.6525
25957SOL    HW289931   9.679   7.913   9.853  0.2177 -1.8147 -2.2859
25958SOL     OW89932   5.207   4.146   5.554  0.1814 -0.1151 -0.2531
25958SOL    HW189933   5.208   4.129   5.652  1.3652  0.6834 -0.1175
25958SOL    HW289934   5.294   4.186   5.526 -1.2040  2.3930 -1.1409
25959SOL     OW89935   8.026   1.617   3.842  0.1246  0.0145  0.9419
25959SOL    HW189936   8.073   1.653   3.923 -0.0487  0.8787  0.6691
25959SOL    HW289937   8.047   1.520   3.831 -0.9828 -0.4879  2.8628
25960SOL     OW89938   0.640   9.447   5.727 -0.2891 -0.3760  0.3953
25960SOL    HW189939   0.617   9.526   5.670 -0.6703 -1.0523 -0.3788
25960SOL    HW289940   0.598   9.365   5.690  0.6192 -1.0559  0.8598
25961SOL     OW89941   7.230   8.011   8.182  0.8042  0.0559  0.2218
25961SOL    HW189942   7.299   8.079   8.157  1.1753 -0.7277 -0.9024
25961SOL    HW289943   7.273   7.923   8.201  0.1464 -0.3600 -0.1781
25962SOL     OW89944   0.137   8.498   6.054  0.4563 -0.0672  0.6173
25962SOL    HW189945   0.114   8.467   5.962  1.9662 -0.3676  0.3342
25962SOL    HW289946   0.095   8.588   6.070  1.5864  0.7648 -0.9902
25963SOL     OW89947   2.445   8.466   5.138  0.0235 -0.2869  0.7007
25963SOL    HW189948   2.465   8.446   5.234  0.7088 -1.7662  0.2691
25963SOL    HW289949   2.469   8.387   5.082  1.7804  1.3679 -0.9754
25964SOL     OW89950   8.924   1.200   6.057  0.1302  0.4849 -0.1798
25964SOL    HW189951   8.904   1.130   5.989  2.0494  1.1643 -1.4627
25964SOL    HW289952   8.961   1.157   6.139 -0.3289 -0.1473 -0.2967
25965SOL     OW89953   0.614   6.544   4.294 -0.0258  0.0241  0.4422
25965SOL    HW189954   0.544   6.488   4.338 -0.0714 -2.5528 -2.7128
25965SOL    HW289955   0.580   6.638   4.283 -2.4284 -0.8488  0.1847
25966SOL     OW89956   0.662   0.682   2.339  0.4173  0.1847  0.0059
25966SOL    HW189957   0.680   0.778   2.317 -0.3954  0.2841 -0.2576
25966SOL    HW289958   0.568   0.660   2.313 -0.5749  0.2936  3.3609
25967SOL     OW89959   0.582   0.322   5.044  0.3401 -1.0482 -0.4405
25967SOL    HW189960   0.615   0.413   5.070 -2.2284  0.5641 -2.5657
25967SOL    HW289961   0.643   0.283   4.975  0.3914 -0.0991 -0.9440
25968SOL     OW89962   2.057   0.159   4.670  0.3554  0.3367  0.5244
25968SOL    HW189963   1.989   0.124   4.734 -1.2478 -0.8241 -1.7390
25968SOL    HW289964   2.025   0.247   4.633  1.6021  1.3509  1.7750
25969SOL     OW89965   9.037   6.013   6.695  0.1246 -0.1330 -0.0535
25969SOL    HW189966   9.129   6.007   6.658  0.1189  1.9426 -0.4428
25969SOL    HW289967   9.040   6.061   6.783 -0.8502  2.1785 -1.2279
25970SOL     OW89968   5.846   6.862   3.274  0.2251  0.5886  0.2956
25970SOL    HW189969   5.807   6.933   3.215 -1.9638 -0.7350  0.1110
25970SOL    HW289970   5.942   6.847   3.248 -0.0224  1.6851 -1.3658
25971SOL     OW89971   2.036   4.504   8.667  0.2478 -0.8940 -0.2950
25971SOL    HW189972   1.999   4.524   8.576 -1.2189  2.5774  0.9823
25971SOL    HW289973   1.964   4.465   8.725  0.5671 -0.9928  0.0394
25972SOL     OW89974   1.855   6.755   4.099 -0.2336 -0.7884  0.2919
25972SOL    HW189975   1.802   6.716   4.174  1.1749  0.0497  1.7329
25972SOL    HW289976   1.914   6.828   4.133  1.2536 -1.1484 -1.4251
25973SOL     OW89977   9.151   5.671   6.695  0.0312 -0.1240 -0.3472
25973SOL    HW189978   9.094   5.673   6.777  0.9632 -0.0997  0.3049
25973SOL    HW289979   9.234   5.619   6.713  0.6996  0.7095 -0.9645
25974SOL     OW89980   1.888   0.050   5.178  0.4423  0.1954  0.1925
25974SOL    HW189981   1.945  -0.025   5.143 -1.4632 -1.0546 -0.2986
25974SOL    HW289982   1.798   0.047   5.135  0.3801  2.9051  0.0276
25975SOL     OW89983   5.033   9.823   8.345 -0.5693 -0.0979  0.4534
25975SOL    HW189984   5.095   9.893   8.379 -0.8516  0.4370 -0.1474
25975SOL    HW289985   4.940   9.860   8.339 -0.7893 -0.6333  0.5004
25976SOL     OW89986   2.632   1.278   9.894  0.0353  0.2810  0.6216
25976SOL    HW189987   2.568   1.277   9.970  1.6731  3.3524  2.1663
25976SOL    HW289988   2.724   1.254   9.927  0.1469 -1.7259 -1.0751
25977SOL     OW89989   7.992   0.671   2.128 -0.0735  0.2333 -0.2350
25977SOL    HW189990   8.020   0.643   2.220 -0.8495 -1.0940 -0.3994
25977SOL    HW289991   8.032   0.761   2.107  1.7914 -0.3786  0.5906
25978SOL     OW89992   8.355   2.673   2.385  0.6922 -0.0250 -0.2076
25978SOL    HW189993   8.333   2.648   2.479  0.5200 -1.6693 -0.6824
25978SOL    HW289994   8.326   2.768   2.369  1.4546  0.5492  1.6195
25979SOL     OW89995   8.332   5.793   3.454 -0.4720 -0.2538 -0.0060
25979SOL    HW189996   8.312   5.798   3.357  0.4107 -2.5188 -0.3260
25979SOL    HW289997   8.416   5.741   3.469  0.6139  1.8976  1.8478
25980SOL     OW89998   8.959   7.437   5.802 -0.5738  0.6651  0.5149
25980SOL    HW189999   8.866   7.433   5.837 -0.6796 -1.6428  0.0651
25980SOL    HW290000   8.993   7.344   5.788  2.0416  1.4580  1.3276
25981SOL     OW90001   0.492   5.804   6.135  0.1554 -0.0687 -0.1376
25981SOL    HW190002   0.476   5.868   6.211 -1.7871  1.0807 -1.4704
25981SOL    HW290003   0.418   5.737   6.132 -0.6552  0.8852 -2.0038
25982SOL     OW90004   0.613   5.946   0.426 -0.0795  0.2722  0.1071
25982SOL    HW190005   0.663   5.915   0.345  1.7004 -1.3825  1.7816
25982SOL    HW290006   0.663   6.020   0.470 -0.7907  0.8373 -0.0323
25983SOL     OW90007   6.326   5.431   4.802  0.0096 -0.1902 -0.6325
25983SOL    HW190008   6.349   5.518   4.759 -1.0106  0.7462  0.6551
25983SOL    HW290009   6.242   5.395   4.761 -0.2534  0.0543 -0.3052
25984SOL     OW90010   0.530   7.208   7.034  0.5229 -0.4028  0.1848
25984SOL    HW190011   0.439   7.229   6.998 -1.0892 -1.6755  3.2462
25984SOL    HW290012   0.579   7.293   7.053  0.3955  0.2806 -2.4790
25985SOL     OW90013   7.934   2.377   6.146 -0.2566 -0.0239  0.4114
25985SOL    HW190014   7.850   2.414   6.107 -0.9260 -1.5407  0.3715
25985SOL    HW290015   8.011   2.435   6.119 -1.3303  1.6336  0.8144
25986SOL     OW90016   7.982   9.510   4.930  0.0896 -0.1400 -0.4180
25986SOL    HW190017   7.974   9.558   5.018 -0.6271  0.3041 -0.7221
25986SOL    HW290018   8.031   9.569   4.865 -0.2189 -0.0835 -0.5986
25987SOL     OW90019   5.115   9.211   5.575  1.2269  0.0287 -0.2927
25987SOL    HW190020   5.041   9.270   5.544  1.8905  1.1841  0.2846
25987SOL    HW290021   5.093   9.116   5.555  1.0437  0.6096 -3.1134
25988SOL     OW90022   3.320   4.108   3.219  0.1981 -0.6627  0.2087
25988SOL    HW190023   3.237   4.163   3.229 -0.2026 -1.5074  1.6518
25988SOL    HW290024   3.325   4.073   3.125  0.5407  1.9203 -0.7673
25989SOL     OW90025   0.751   1.617   3.398 -0.1527 -0.1821 -0.5242
25989SOL    HW190026   0.783   1.642   3.489  0.0128 -2.0069 -0.0657
25989SOL    HW290027   0.731   1.700   3.346  0.5188  0.8877  0.8890
25990SOL     OW90028   1.734   9.342   5.815 -0.0842  0.3177 -0.0231
25990SOL    HW190029   1.807   9.395   5.772  0.1144 -1.1248 -1.5280
25990SOL    HW290030   1.648   9.356   5.765 -0.2998  0.1659  0.3000
25991SOL     OW90031   9.791   0.503   7.393 -0.2450  0.3372 -0.0821
25991SOL    HW190032   9.865   0.570   7.396 -1.2154  1.4101  0.2516
25991SOL    HW290033   9.703   0.550   7.399 -0.8903 -1.1647  3.0137
25992SOL     OW90034   0.979   3.922   7.337  0.0179  0.3829  0.3274
25992SOL    HW190035   0.992   3.823   7.331 -0.0475  0.3249  1.1221
25992SOL    HW290036   0.961   3.947   7.432 -0.0253  1.1497  0.1146
25993SOL     OW90037   2.526   8.421   5.379 -0.5022  0.8063  0.2839
25993SOL    HW190038   2.529   8.484   5.456 -2.3042  1.7237 -0.3584
25993SOL    HW290039   2.544   8.328   5.411 -2.2722  1.0182  2.0107
25994SOL     OW90040   9.331   7.188   6.865  0.1407 -0.1429  0.4266
25994SOL    HW190041   9.329   7.121   6.791  1.5112 -0.3672  0.5882
25994SOL    HW290042   9.237   7.210   6.892 -0.4257  0.8942 -2.2230
25995SOL     OW90043   6.926   8.186   6.188 -0.2434 -0.5411 -0.3678
25995SOL    HW190044   6.843   8.194   6.134  0.0810  0.6027 -0.7107
25995SOL    HW290045   7.001   8.233   6.141  0.3547 -0.6929  0.4226
25996SOL     OW90046   1.706   9.555   6.002 -0.0692 -0.2261  0.0366
25996SOL    HW190047   1.611   9.584   5.985 -0.1333 -0.0944  0.6304
25996SOL    HW290048   1.721   9.466   5.959 -1.4545 -1.8347  2.7500
25997SOL     OW90049   6.708   1.886   0.992 -0.3491  0.3861 -0.0896
25997SOL    HW190050   6.733   1.982   0.983  2.2816 -0.0370  2.2982
25997SOL    HW290051   6.622   1.878   1.043 -0.3649  1.4280  0.0427
25998SOL     OW90052   6.153   9.224   6.747  0.2345  0.8769 -0.3706
25998SOL    HW190053   6.210   9.255   6.671  0.7527 -1.1019 -0.8040
25998SOL    HW290054   6.087   9.157   6.714  0.1455  0.3524  0.8532
25999SOL     OW90055   5.680   5.619   1.911 -0.2524  0.2738  0.5125
25999SOL    HW190056   5.744   5.644   1.984 -0.4281  0.4019  0.6222
25999SOL    HW290057   5.587   5.640   1.940 -0.3494  0.0358  0.3734
26000SOL     OW90058   4.748   9.668   7.927  0.4716 -0.6643 -0.3899
26000SOL    HW190059   4.735   9.597   7.996  0.6135  0.1296  0.4635
26000SOL    HW290060   4.660   9.699   7.894  0.3875 -0.5576 -0.0642
26001SOL     OW90061   8.807   7.963   4.502 -0.0703 -0.3839 -0.0965
26001SOL    HW190062   8.779   8.045   4.452 -0.4992 -0.1037  0.5795
26001SOL    HW290063   8.898   7.935   4.474 -0.1137  0.0567 -0.6696
26002SOL     OW90064   4.106   5.709   5.663 -0.0856  0.1065  0.4554
26002SOL    HW190065   4.076   5.662   5.580 -1.8307  0.0031  1.1381
26002SOL    HW290066   4.085   5.653   5.743  1.0308  0.4842  1.0302
26003SOL     OW90067   3.090   9.124   9.684 -0.3415 -0.0394  0.8237
26003SOL    HW190068   3.162   9.136   9.753  0.2482 -2.1284  0.6043
26003SOL    HW290069   3.029   9.050   9.713  0.2574 -1.3502 -1.1785
26004SOL     OW90070   1.474   5.491   3.172 -0.1665  0.5603 -0.0085
26004SOL    HW190071   1.426   5.420   3.223  1.0754 -0.1013  0.2697
26004SOL    HW290072   1.507   5.453   3.085 -0.9514  1.2665 -0.6230
26005SOL     OW90073   0.619   8.577   4.001 -0.2663  0.2342  0.0428
26005SOL    HW190074   0.578   8.486   4.007 -0.2778  0.1813 -0.7612
26005SOL    HW290075   0.588   8.633   4.078 -0.4154 -0.3730  0.4314
26006SOL     OW90076   6.977   0.508   4.384  0.2063  0.3040 -0.1346
26006SOL    HW190077   6.989   0.414   4.352  1.2438  0.5321 -0.4564
26006SOL    HW290078   6.880   0.531   4.385  0.0108 -0.4584 -0.9718
26007SOL     OW90079   1.025   5.913   5.516  0.0335 -0.1126  0.1979
26007SOL    HW190080   1.074   5.838   5.471 -0.5971  0.6495 -1.8346
26007SOL    HW290081   0.937   5.880   5.548 -0.5718 -0.0663 -1.3900
26008SOL     OW90082   3.816   8.312   9.814  0.0676  0.5996 -0.5271
26008SOL    HW190083   3.854   8.369   9.887 -1.8478  0.9909  0.2152
26008SOL    HW290084   3.771   8.371   9.747  0.5932  0.1435 -1.2746
26009SOL     OW90085   7.440   8.968   1.063  0.4737 -0.1626 -0.1171
26009SOL    HW190086   7.410   9.046   1.008 -0.3679 -1.1696 -1.1076
26009SOL    HW290087   7.504   9.000   1.133 -1.0189  1.6390  0.4740
26010SOL     OW90088   5.924   7.114   7.554 -0.3543  0.2790 -0.3118
26010SOL    HW190089   5.830   7.146   7.547  0.2582  1.9796 -1.1080
26010SOL    HW290090   5.953   7.074   7.467 -1.1164 -2.5989  0.6702
26011SOL     OW90091   2.885   5.894   6.574 -0.1430 -0.2289  0.0418
26011SOL    HW190092   2.863   5.979   6.622 -2.0013 -1.3890  1.2906
26011SOL    HW290093   2.898   5.820   6.640  2.0527 -0.8304 -1.0045
26012SOL     OW90094   4.347   2.137   7.510 -0.6532 -0.0031 -0.4114
26012SOL    HW190095   4.250   2.144   7.529 -0.7796  0.1819 -1.1150
26012SOL    HW290096   4.375   2.211   7.449 -0.0766 -0.0611 -0.2211
26013SOL     OW90097   5.220   0.661   6.290 -0.2716  0.1845 -0.4226
26013SOL    HW190098   5.268   0.615   6.215  2.1957  0.3753  0.9960
26013SOL    HW290099   5.124   0.672   6.265  0.3247 -0.4389 -3.2308
26014SOL     OW90100   4.098   0.016   6.509  0.2676 -0.3180 -0.1215
26014SOL    HW190101   4.046   0.020   6.595  0.7185 -0.0022  0.1437
26014SOL    HW290102   4.194  -0.004   6.530  0.2943 -0.6726 -0.5897
26015SOL     OW90103   0.707   9.584   7.664  0.3417 -0.5637  0.0581
26015SOL    HW190104   0.663   9.532   7.738 -0.8481  0.4793  0.0960
26015SOL    HW290105   0.806   9.587   7.680  0.0691 -0.1498  1.7327
26016SOL     OW90106   2.341   9.042   5.350 -0.3168  0.6757  0.0912
26016SOL    HW190107   2.247   9.076   5.360 -0.5430 -0.0475  0.5179
26016SOL    HW290108   2.406   9.117   5.363 -0.8789  1.5621 -2.0911
26017SOL     OW90109   6.230   2.325   8.286 -0.2052  0.2231  0.5201
26017SOL    HW190110   6.291   2.386   8.236  0.6890  0.3385  1.7387
26017SOL    HW290111   6.256   2.322   8.382 -1.2864 -0.7804  0.8025
26018SOL     OW90112   0.690   2.728   8.733 -0.3304 -0.2680  0.2848
26018SOL    HW190113   0.703   2.629   8.741 -0.7171 -0.4697 -1.4196
26018SOL    HW290114   0.768   2.768   8.685  0.4798  0.4719  2.1529
26019SOL     OW90115   7.480   2.037   0.927 -0.7087 -0.4891  0.5314
26019SOL    HW190116   7.477   2.123   0.876  0.7484 -0.5927  0.2440
26019SOL    HW290117   7.526   2.052   1.015 -1.9557 -0.6208  1.2269
26020SOL     OW90118   1.211   1.726   9.052  0.0700 -0.2755 -0.2768
26020SOL    HW190119   1.278   1.693   9.119  1.1232 -1.5370 -1.9187
26020SOL    HW290120   1.166   1.649   9.009 -0.1284  0.4981 -1.4869
26021SOL     OW90121   9.314   6.042   5.552 -0.5170 -0.1331  0.0078
26021SOL    HW190122   9.267   6.114   5.503  0.3709  1.3114  1.2050
26021SOL    HW290123   9.248   5.987   5.604 -1.1756 -0.1054 -0.7929
26022SOL     OW90124   1.664   2.063   9.428 -0.0636  0.5148  0.6217
26022SOL    HW190125   1.723   2.095   9.354  0.6197 -0.3548  0.7831
26022SOL    HW290126   1.569   2.063   9.397  0.1689  0.5932 -0.1006
26023SOL     OW90127   0.602   8.284   2.761 -0.7600  0.0369  0.0347
26023SOL    HW190128   0.528   8.219   2.778  0.1479 -1.0510 -0.1077
26023SOL    HW290129   0.564   8.377   2.756 -1.8460 -0.2793  1.8427
26024SOL     OW90130   8.593   7.659   5.650 -0.8354  0.1906 -0.6328
26024SOL    HW190131   8.530   7.605   5.706 -2.3219  1.0738 -1.4038
26024SOL    HW290132   8.643   7.723   5.708 -1.1335 -0.0651 -0.0913
26025SOL     OW90133   8.646   3.046   4.967  0.4819  0.5421 -0.3213
26025SOL    HW190134   8.680   3.041   4.873  0.6272  0.8713 -0.2890
26025SOL    HW290135   8.606   3.137   4.983  1.1609  0.7576  0.1716
26026SOL     OW90136   1.722   7.786   2.075  0.1147 -0.2745  0.2048
26026SOL    HW190137   1.757   7.874   2.108  0.3389 -0.1627 -0.3304
26026SOL    HW290138   1.705   7.791   1.977 -0.2365 -0.7136  0.2402
26027SOL     OW90139   1.744   7.086   1.577 -0.5031 -0.0323  0.3551
26027SOL    HW190140   1.789   7.157   1.632  0.2198 -1.5425  1.7494
26027SOL    HW290141   1.804   7.007   1.569 -0.5580  0.1946 -2.7406
26028SOL     OW90142   8.571   0.514   9.340  0.4542  0.5274  0.2851
26028SOL    HW190143   8.648   0.476   9.391 -0.7400 -0.2987  1.5381
26028SOL    HW290144   8.583   0.612   9.327  1.6765  0.4087  0.5319
26029SOL     OW90145   6.135   5.721   5.290 -0.0094 -0.0610  0.3392
26029SOL    HW190146   6.175   5.643   5.337  1.9496  0.3897 -0.5301
26029SOL    HW290147   6.208   5.783   5.261 -1.4566  1.5212  0.0106
26030SOL     OW90148   6.593   2.461   0.788  0.5858  0.3569 -0.5563
26030SOL    HW190149   6.625   2.369   0.764 -0.7697 -0.4535  0.6207
26030SOL    HW290150   6.504   2.477   0.746  0.3234  0.7173  0.1389
26031SOL     OW90151   0.745   9.202   8.442  0.3021  0.1416 -0.0773
26031SOL    HW190152   0.654   9.172   8.415 -0.8040  2.4035  1.0232
26031SOL    HW290153   0.797   9.228   8.361  0.4583 -2.3952 -0.8233
26032SOL     OW90154   6.309   6.071   6.195 -0.2282  0.5700 -0.2822
26032SOL    HW190155   6.226   6.045   6.244  2.5069 -0.8599  3.8673
26032SOL    HW290156   6.303   6.038   6.100 -3.6646 -0.9158  0.3451
26033SOL     OW90157   7.172   1.301   9.459 -0.4854  0.3997 -0.0444
26033SOL    HW190158   7.237   1.363   9.502 -2.0095  2.0113  0.0412
26033SOL    HW290159   7.112   1.354   9.398 -1.8411 -0.9839  0.0541
26034SOL     OW90160   1.782   6.164   0.162 -0.2443 -0.2950  0.0438
26034SOL    HW190161   1.882   6.158   0.169 -0.1189 -0.4187 -1.6254
26034SOL    HW290162   1.743   6.072   0.158 -0.3409 -0.2350 -0.3742
26035SOL     OW90163   3.693   9.945   7.373  0.3361 -0.3465 -0.8098
26035SOL    HW190164   3.597   9.947   7.347 -0.2437 -1.1610  1.1646
26035SOL    HW290165   3.732   9.856   7.347 -0.4030 -1.4010  1.5010
26036SOL     OW90166   3.141   9.646   5.186 -0.0700 -0.5886  0.0117
26036SOL    HW190167   3.126   9.605   5.276  0.8793 -0.1840  0.3551
26036SOL    HW290168   3.235   9.631   5.157 -0.2153 -0.2189 -0.6692
26037SOL     OW90169   6.342   6.776   7.501 -0.4356 -0.1143 -0.0857
26037SOL    HW190170   6.351   6.858   7.443  0.1363 -0.6250 -0.7305
26037SOL    HW290171   6.253   6.735   7.486 -0.6603  0.2955  0.1122
26038SOL     OW90172   7.969   0.219   5.806  0.8268  0.0292  0.3563
26038SOL    HW190173   7.948   0.272   5.889  0.5220  0.2103  0.1629
26038SOL    HW290174   8.066   0.226   5.786  0.8445  0.2513  0.5183
26039SOL     OW90175   8.551   9.520   6.425 -0.1647  0.4826  0.5109
26039SOL    HW190176   8.516   9.600   6.474 -0.4928  0.4049  0.4016
26039SOL    HW290177   8.576   9.449   6.491  1.5174  1.2259  0.6987
26040SOL     OW90178   9.874   9.425   5.246 -0.3360  0.2799  0.1969
26040SOL    HW190179   9.834   9.375   5.322 -0.3140  0.2774  0.2075
26040SOL    HW290180   9.801   9.451   5.182 -0.5391  1.4305  0.8841
26041SOL     OW90181   1.746   9.501   0.369 -0.1075 -0.1338  0.0626
26041SOL    HW190182   1.766   9.571   0.436  0.7669 -0.3392  0.0282
26041SOL    HW290183   1.815   9.429   0.374 -0.2405 -0.3344 -0.7982
26042SOL     OW90184   5.157   0.506   8.699  0.2472  0.3826 -0.3970
26042SOL    HW190185   5.238   0.525   8.754  0.3446 -0.7692 -0.1281
26042SOL    HW290186   5.078   0.551   8.739  0.6231  0.9201 -0.2573
26043SOL     OW90187   6.061   6.995   7.750  0.1311  0.3406  0.8433
26043SOL    HW190188   6.059   6.899   7.723 -0.0827  0.1989  1.3586
26043SOL    HW290189   6.022   7.051   7.676 -0.6189 -0.0612  0.9243
26044SOL     OW90190   2.438   9.707   6.269  0.4548 -0.2535  0.6537
26044SOL    HW190191   2.379   9.661   6.336  0.2331 -0.2813  0.4400
26044SOL    HW290192   2.405   9.687   6.177 -0.6560  1.7171  0.5995
26045SOL     OW90193   7.681   6.273   1.972  0.2329  0.1289 -0.5284
26045SOL    HW190194   7.705   6.314   1.884  0.8572 -0.2343 -0.5274
26045SOL    HW290195   7.611   6.203   1.959 -0.6510  1.0101 -0.5656
26046SOL     OW90196   9.992   1.120   5.594 -0.4125 -0.2765  0.9201
26046SOL    HW190197   9.968   1.191   5.660  0.3556 -0.3867  1.3287
26046SOL    HW290198  10.068   1.153   5.537  0.8996 -1.2935  2.0471
26047SOL     OW90199   2.118   1.563   6.000  0.0612  0.1337  0.1391
26047SOL    HW190200   2.098   1.474   5.960 -0.2084  0.3111 -0.1135
26047SOL    HW290201   2.050   1.584   6.070 -0.3476  0.5047 -0.3653
26048SOL     OW90202   7.634   9.130   4.940  0.2334 -0.0583  0.3727
26048SOL    HW190203   7.659   9.219   4.900 -0.7433  0.2862  0.5312
26048SOL    HW290204   7.678   9.120   5.029  0.1224  0.3760  0.4751
26049SOL     OW90205   4.306   8.634   8.545 -0.6259  0.2182  0.0033
26049SOL    HW190206   4.294   8.557   8.607 -0.8521  0.2606  0.0141
26049SOL    HW290207   4.312   8.719   8.597  4.1317 -0.1793  0.3229
26050SOL     OW90208   8.983   0.233   5.960  0.8551 -0.2552 -0.1009
26050SOL    HW190209   8.916   0.191   6.021  1.3238 -0.7605  0.0761
26050SOL    HW290210   9.075   0.218   5.997  1.0642  0.4933 -0.2989
26051SOL     OW90211   3.240   1.184   5.758 -0.9561  0.6931  0.3865
26051SOL    HW190212   3.249   1.193   5.658 -0.6834  1.5830  0.4880
26051SOL    HW290213   3.269   1.092   5.786  2.8502  1.7410  0.1196
26052SOL     OW90214   5.167   0.503   8.223 -1.0576  0.5162  0.0040
26052SOL    HW190215   5.116   0.486   8.307 -0.6880  1.6615  0.4678
26052SOL    HW290216   5.168   0.601   8.204  0.5464  0.4539 -0.2723
26053SOL     OW90217   6.759   0.397   4.004  0.0194  0.2516 -0.1684
26053SOL    HW190218   6.736   0.368   3.912  0.0362 -0.6219  0.0968
26053SOL    HW290219   6.842   0.453   4.002  0.0948  0.1184 -0.6642
26054SOL     OW90220   9.949   3.858   8.496 -0.3923  0.4181  0.5038
26054SOL    HW190221   9.876   3.921   8.522 -1.1404 -0.1716 -0.1869
26054SOL    HW290222  10.036   3.892   8.533 -0.9383  1.3392  0.9632
26055SOL     OW90223   2.259   6.243   8.316 -0.0544  0.0144 -0.3523
26055SOL    HW190224   2.228   6.234   8.222 -1.9619 -1.3993  0.3658
26055SOL    HW290225   2.342   6.188   8.330 -0.3930 -0.6496 -0.9466
26056SOL     OW90226   5.687   6.984   8.349  0.0974 -0.4252  0.3592
26056SOL    HW190227   5.652   6.960   8.259  1.8630  0.5261 -0.6122
26056SOL    HW290228   5.624   6.952   8.419 -2.1338  0.2973 -1.2738
26057SOL     OW90229   2.834   7.291   5.035  0.1034 -0.4029  0.2650
26057SOL    HW190230   2.818   7.232   4.956  2.3865  0.5762 -1.0086
26057SOL    HW290231   2.756   7.352   5.048 -0.6967 -1.2217 -0.6673
26058SOL     OW90232   7.340   9.115   7.702 -0.3804  0.6308 -0.3818
26058SOL    HW190233   7.428   9.110   7.749 -0.3575  0.8497 -0.3980
26058SOL    HW290234   7.281   9.182   7.748  0.4481  2.4952 -1.9656
26059SOL     OW90235   7.296   8.646   7.935  0.1353 -0.2785 -0.1943
26059SOL    HW190236   7.283   8.666   7.838  1.5081  0.5693 -0.2095
26059SOL    HW290237   7.393   8.631   7.954 -0.0662  0.0465  1.1379
26060SOL     OW90238   2.765   7.604   9.587 -0.2933 -0.4782 -0.1559
26060SOL    HW190239   2.708   7.681   9.558 -1.2324 -0.8059  0.7818
26060SOL    HW290240   2.747   7.584   9.683  2.1675  0.0631  0.4507
26061SOL     OW90241   9.101   7.153   8.746  0.4109  0.4775 -0.3556
26061SOL    HW190242   9.032   7.081   8.754  1.0865 -0.1891 -0.5598
26061SOL    HW290243   9.087   7.221   8.819  0.7879 -0.7051  0.8312
26062SOL     OW90244   0.671   8.927   4.891  0.4042 -0.4261  0.2149
26062SOL    HW190245   0.636   8.983   4.966  1.2071 -0.8761  0.9425
26062SOL    HW290246   0.734   8.858   4.928 -1.2255 -2.3872 -0.5359
26063SOL     OW90247   8.914   1.466   8.975  0.2054  0.0134 -0.0581
26063SOL    HW190248   8.937   1.385   8.921 -1.8395 -1.7764  1.6699
26063SOL    HW290249   8.840   1.517   8.931  1.6297  1.1035 -1.2492
26064SOL     OW90250   5.681   1.858   2.950 -0.4193 -0.2507  0.0999
26064SOL    HW190251   5.630   1.936   2.986  1.0116  1.2528 -1.0417
26064SOL    HW290252   5.704   1.876   2.854  2.1973 -0.9207  0.5842
26065SOL     OW90253   7.418   7.828   2.348 -0.1354  0.1542  0.0950
26065SOL    HW190254   7.469   7.910   2.321 -2.1332  1.4528  0.2314
26065SOL    HW290255   7.348   7.852   2.415 -1.3029 -1.5008 -0.4981
26066SOL     OW90256   1.444   7.950   2.020  0.3457  0.1867  0.0040
26066SOL    HW190257   1.345   7.947   2.003  0.4874 -0.9047 -0.6527
26066SOL    HW290258   1.462   7.919   2.114 -0.0167  1.4516  0.5061
26067SOL     OW90259   4.779   7.811   8.133 -0.4945  0.8438  0.7947
26067SOL    HW190260   4.715   7.842   8.063  0.4845  1.3792  0.1282
26067SOL    HW290261   4.775   7.711   8.140 -0.5731  0.7842 -0.0534
26068SOL     OW90262   6.900   7.864   4.638  0.0388  0.2395  0.5589
26068SOL    HW190263   6.903   7.851   4.737  1.0424 -2.0327  0.2714
26068SOL    HW290264   6.806   7.875   4.608 -0.2878  0.7186  1.7374
26069SOL     OW90265   2.885   5.727   1.437 -0.0599 -0.4415  0.3797
26069SOL    HW190266   2.855   5.805   1.492 -0.1638 -0.0308 -0.2515
26069SOL    HW290267   2.808   5.664   1.424 -0.5914  0.4681 -0.9916
26070SOL     OW90268   0.156   2.484   8.262  0.1991  0.3666 -0.9289
26070SOL    HW190269   0.131   2.388   8.254 -0.4016  0.5566 -1.3927
26070SOL    HW290270   0.244   2.492   8.308  0.6489 -0.4376 -1.6550
26071SOL     OW90271   8.419   9.272   3.623 -0.3042 -0.2364  0.0401
26071SOL    HW190272   8.344   9.252   3.560 -0.2276  0.6648 -0.3473
26071SOL    HW290273   8.499   9.218   3.597 -0.8616 -1.3392  0.5689
26072SOL     OW90274   3.350   7.089   5.942 -0.3007 -0.3888 -0.1586
26072SOL    HW190275   3.411   7.010   5.934  0.5788 -0.0084  2.2159
26072SOL    HW290276   3.402   7.173   5.926 -1.0381 -0.2381 -1.7958
26073SOL     OW90277   8.007   1.530   5.301 -0.0733 -0.0621  0.3299
26073SOL    HW190278   7.950   1.608   5.328 -1.3534 -1.5358  2.0262
26073SOL    HW290279   8.092   1.563   5.262 -0.9401  2.1939  0.2888
26074SOL     OW90280   4.633   1.318   2.466 -0.5114  0.1696  0.0959
26074SOL    HW190281   4.577   1.245   2.505 -0.3001  0.6089  1.2237
26074SOL    HW290282   4.619   1.403   2.517 -0.1887  0.7360 -0.7427
26075SOL     OW90283   3.072   7.630   4.031 -0.3889  0.3585 -0.3812
26075SOL    HW190284   2.972   7.633   4.043 -0.1180  0.0380  2.2482
26075SOL    HW290285   3.106   7.538   4.052  0.6690  0.9974  0.8028
26076SOL     OW90286   9.305   4.481   5.798 -0.0126 -0.3189  0.2648
26076SOL    HW190287   9.393   4.517   5.827 -0.0148 -0.9175  1.0280
26076SOL    HW290288   9.314   4.437   5.709  0.2668  0.4043 -0.0652
26077SOL     OW90289   1.818   8.892   5.519 -0.1679 -0.5160 -0.2208
26077SOL    HW190290   1.890   8.823   5.515  0.0844 -0.2411 -0.4435
26077SOL    HW290291   1.852   8.972   5.569 -0.4495 -0.5430  0.0139
26078SOL     OW90292   6.345   9.583   5.054  0.6030 -0.6173  0.0128
26078SOL    HW190293   6.248   9.568   5.036  0.7000  0.5471 -1.5362
26078SOL    HW290294   6.355   9.663   5.113  0.6483 -0.4432 -0.2330
26079SOL     OW90295   7.160   9.904   5.943  0.3023  0.0480 -0.4652
26079SOL    HW190296   7.154   9.943   6.035  1.6746 -1.4579  0.2803
26079SOL    HW290297   7.242   9.939   5.898 -1.0045  1.7284 -1.5922
26080SOL     OW90298   7.222   4.362   6.504 -0.0555 -0.3958 -0.3617
26080SOL    HW190299   7.303   4.312   6.535 -0.7451 -1.1178  0.3324
26080SOL    HW290300   7.150   4.296   6.480 -0.5533  0.2405 -0.6171
26081SOL     OW90301   8.912   9.932   7.350  0.1949  0.3455 -0.0525
26081SOL    HW190302   8.849   9.949   7.274 -0.0052 -0.6288 -0.1034
26081SOL    HW290303   8.905   9.837   7.379 -0.0398  0.8270  1.4821
26082SOL     OW90304   5.226   3.472   9.365  0.2620  0.3680 -0.8497
26082SOL    HW190305   5.212   3.375   9.345 -0.6945  0.6840 -1.7825
26082SOL    HW290306   5.269   3.517   9.286 -2.0023  1.2819 -1.6297
26083SOL     OW90307   9.091   0.788   6.966 -0.2019  0.4491  0.0866
26083SOL    HW190308   9.044   0.771   7.052  0.5028 -0.6767  0.2598
26083SOL    HW290309   9.152   0.867   6.976 -0.0123  0.2302  0.6660
26084SOL     OW90310   8.964   2.840   8.451 -0.2094  0.2599 -0.1968
26084SOL    HW190311   8.945   2.841   8.550 -0.2958  1.3592 -0.2211
26084SOL    HW290312   8.937   2.752   8.413  0.1453 -0.3022  0.8247
26085SOL     OW90313   8.724   5.521   2.583 -1.0423 -0.1791  0.3942
26085SOL    HW190314   8.699   5.544   2.677  1.1813  0.4879  0.8647
26085SOL    HW290315   8.709   5.601   2.524 -1.9534 -0.4336  0.2840
26086SOL     OW90316   0.152   6.190   0.365 -0.0738  0.3444 -0.1888
26086SOL    HW190317   0.108   6.100   0.360 -1.2216  0.7343  2.2389
26086SOL    HW290318   0.237   6.182   0.417 -1.4557  1.0771  2.2745
26087SOL     OW90319   9.890   5.101   7.084  0.5311  0.1176 -0.3971
26087SOL    HW190320   9.953   5.032   7.120  1.2311  1.4322  0.9403
26087SOL    HW290321   9.885   5.178   7.147 -1.0408  0.8471 -1.3710
26088SOL     OW90322   6.910   4.451   8.491  0.7081 -0.0526  0.7680
26088SOL    HW190323   6.912   4.373   8.429  0.6277  1.1411 -0.7790
26088SOL    HW290324   6.986   4.513   8.469 -0.1155  1.0522  0.9635
26089SOL     OW90325   9.623   4.126   2.283  0.0435 -0.0572 -0.1772
26089SOL    HW190326   9.658   4.074   2.204 -1.5044 -1.4919  0.0717
26089SOL    HW290327   9.530   4.156   2.264 -0.8312 -1.5573  1.6309
26090SOL     OW90328   2.823   0.617   2.711  0.6235 -0.5159  0.2877
26090SOL    HW190329   2.866   0.592   2.798  1.6573  1.1845  0.2877
26090SOL    HW290330   2.870   0.696   2.672 -0.4658 -0.6466 -1.3383
26091SOL     OW90331   5.961   9.196   9.279  0.4682 -0.1401 -0.1412
26091SOL    HW190332   6.058   9.190   9.300  0.9631  2.1957 -1.6678
26091SOL    HW290333   5.947   9.181   9.181 -0.5645  0.8685 -0.1614
26092SOL     OW90334   5.357   1.395   8.893  0.5204 -0.2833 -0.5974
26092SOL    HW190335   5.277   1.362   8.843  0.3145 -0.6139 -0.0567
26092SOL    HW290336   5.394   1.322   8.950 -0.4619  0.6187  1.2842
26093SOL     OW90337   6.760   1.486   5.477 -0.6299  0.2715 -0.0474
26093SOL    HW190338   6.796   1.573   5.443 -2.3175  0.8514 -0.4188
26093SOL    HW290339   6.664   1.477   5.450 -0.4709 -1.7266 -0.0211
26094SOL     OW90340   1.949   5.965   6.685  0.3999  0.1080 -0.5758
26094SOL    HW190341   1.951   5.870   6.716  1.3169 -0.1702 -1.4978
26094SOL    HW290342   1.940   5.968   6.586  1.5095  0.9825 -0.6499
26095SOL     OW90343   9.546   0.275   2.410 -0.4038  0.0286 -0.4742
26095SOL    HW190344   9.580   0.195   2.458 -0.9080  0.4256  0.5663
26095SOL    HW290345   9.620   0.316   2.356  0.2731 -0.1946  0.2799
26096SOL     OW90346   7.176   6.499   8.723 -0.8225  0.5216 -0.3674
26096SOL    HW190347   7.202   6.441   8.646 -1.1964 -0.7502  0.4425
26096SOL    HW290348   7.116   6.573   8.692 -0.6817  0.2230 -1.3398
26097SOL     OW90349   2.100   7.825   4.029  0.5520 -0.1223 -0.3527
26097SOL    HW190350   2.046   7.909   4.032 -2.0509 -1.6334 -2.0452
26097SOL    HW290351   2.081   7.770   4.110 -0.7914 -0.8157 -1.1192
26098SOL     OW90352   4.470   5.825   9.363  0.0204  0.1869 -0.0735
26098SOL    HW190353   4.481   5.768   9.281  0.9449  0.6124 -0.2424
26098SOL    HW290354   4.399   5.894   9.346  0.0300  0.1117 -0.4258
26099SOL     OW90355   5.129   2.236   0.007 -0.1353  0.1040 -0.5973
26099SOL    HW190356   5.157   2.309   0.069  0.1306 -0.6174  0.1374
26099SOL    HW290357   5.151   2.262  -0.087 -1.6323  1.7226 -0.5297
26100SOL     OW90358   5.101   0.802   9.932  0.1456  0.2252 -0.2535
26100SOL    HW190359   5.122   0.829   9.838 -1.9968  1.1734 -0.4993
26100SOL    HW290360   5.110   0.703   9.941 -2.0209 -0.1978 -2.1750
26101SOL     OW90361   5.429   0.131   8.424 -0.5104  0.2416  0.2316
26101SOL    HW190362   5.471   0.041   8.433  0.7989  0.7250 -0.8200
26101SOL    HW290363   5.443   0.183   8.508  0.8441  0.3100 -0.0162
26102SOL     OW90364   4.979   4.516   8.187  0.4283 -0.2850 -0.0943
26102SOL    HW190365   5.007   4.479   8.275  1.2991  0.3988 -0.0793
26102SOL    HW290366   4.961   4.442   8.123  2.0121 -0.7306 -0.0303
26103SOL     OW90367   9.195   0.213   6.316 -0.2143 -0.0754  0.0669
26103SOL    HW190368   9.248   0.282   6.364 -2.2700  1.6435 -0.0849
26103SOL    HW290369   9.200   0.229   6.217 -0.2368 -0.4967 -0.0062
26104SOL     OW90370   6.052   0.196   7.641  0.2797  0.3858  0.5695
26104SOL    HW190371   5.961   0.185   7.601  0.0107 -0.2224  1.3374
26104SOL    HW290372   6.113   0.239   7.575 -0.6764  1.1795  0.1934
26105SOL     OW90373   7.770   8.289   8.455 -0.6931 -0.2394  0.2822
26105SOL    HW190374   7.740   8.231   8.530 -1.0517 -0.0995  0.2497
26105SOL    HW290375   7.844   8.348   8.486  0.3898 -1.4429  0.0312
26106SOL     OW90376   7.316   8.726   0.972 -0.2347 -0.0300  0.1398
26106SOL    HW190377   7.321   8.825   0.972  0.0136 -0.0414 -0.4364
26106SOL    HW290378   7.241   8.696   1.031 -0.6733  0.5134 -0.1446
26107SOL     OW90379   6.412   6.632   4.593  0.0310  0.7813  0.2841
26107SOL    HW190380   6.343   6.586   4.648  1.2588 -1.3321  0.1094
26107SOL    HW290381   6.489   6.659   4.651 -0.3855  2.0406  0.2655
26108SOL     OW90382   8.704   9.839   6.856  0.1359  0.0093  0.1400
26108SOL    HW190383   8.755   9.891   6.925  0.4052 -1.0795  0.7652
26108SOL    HW290384   8.732   9.743   6.859  0.3449  0.0003 -1.6826
26109SOL     OW90385   5.960   1.366   1.179 -0.1801  0.4364 -0.0415
26109SOL    HW190386   5.937   1.273   1.151  0.1160  0.3384  0.0363
26109SOL    HW290387   5.973   1.368   1.279  0.4812  0.4181 -0.1241
26110SOL     OW90388   5.961   0.349   4.246 -0.2974 -0.0210  0.2326
26110SOL    HW190389   6.011   0.411   4.186  0.4794 -1.7956 -1.0212
26110SOL    HW290390   6.008   0.343   4.334 -0.0069  0.6409  0.1288
26111SOL     OW90391   6.470   2.738   8.948 -0.4813 -0.3778 -0.3357
26111SOL    HW190392   6.454   2.641   8.968 -0.3263 -0.2402  0.4715
26111SOL    HW290393   6.401   2.771   8.885  0.2119 -1.3430 -1.6206
26112SOL     OW90394   7.359   8.641   5.679 -0.1073  0.5482  0.0799
26112SOL    HW190395   7.286   8.605   5.620 -0.3207  2.0760 -0.6059
26112SOL    HW290396   7.329   8.726   5.722  1.3800  1.3877 -0.4888
26113SOL     OW90397   1.375   3.837   2.531  0.0798 -0.0233  0.0241
26113SOL    HW190398   1.350   3.757   2.586  1.0623 -1.2824 -1.3072
26113SOL    HW290399   1.385   3.809   2.435  1.1958  1.5409 -0.3269
26114SOL     OW90400   5.621   4.355   9.706  0.0956 -0.2180 -0.1552
26114SOL    HW190401   5.647   4.387   9.615  0.9594 -0.3492  0.0410
26114SOL    HW290402   5.653   4.421   9.774  0.9419 -0.9684  0.1723
26115SOL     OW90403   5.519   1.225   7.723 -0.2941  0.1952  0.0119
26115SOL    HW190404   5.557   1.317   7.720 -0.4536  0.3027  1.0829
26115SOL    HW290405   5.580   1.162   7.675  1.4997  0.2942  2.0736
26116SOL     OW90406   6.410   9.380   7.241  0.2555  0.1793  0.2581
26116SOL    HW190407   6.380   9.335   7.325  0.1784  1.5752  0.9898
26116SOL    HW290408   6.510   9.386   7.240  0.2241  0.8235  0.6063
26117SOL     OW90409   1.420   1.883   8.073  0.1271  0.4156 -0.0594
26117SOL    HW190410   1.409   1.836   8.161 -0.2637  1.8264  0.6467
26117SOL    HW290411   1.332   1.916   8.042  0.1727 -0.5480 -1.2686
26118SOL     OW90412   4.311   1.275   8.534 -0.0100 -0.0496  0.2974
26118SOL    HW190413   4.329   1.213   8.457 -1.2789 -0.7018  0.5150
26118SOL    HW290414   4.398   1.307   8.572  0.6390 -0.6649 -0.6436
26119SOL     OW90415   4.986   0.864   2.091  0.0168 -0.3900 -0.1998
26119SOL    HW190416   5.074   0.854   2.046 -0.2138 -1.9437 -0.3208
26119SOL    HW290417   4.947   0.774   2.110 -1.3348  0.2711  0.2641
26120SOL     OW90418   8.702   8.675   7.115 -0.0090  0.2586  0.6738
26120SOL    HW190419   8.678   8.604   7.181 -0.7772  0.9337  1.1233
26120SOL    HW290420   8.623   8.693   7.055  0.3534  0.3631  0.2224
26121SOL     OW90421   7.995   3.829   7.327 -0.8023 -0.5591 -0.4859
26121SOL    HW190422   7.954   3.893   7.392  0.0979 -0.6071  0.1318
26121SOL    HW290423   8.082   3.796   7.362  0.3278  0.3898 -2.2925
26122SOL     OW90424   8.936   8.493   8.227  0.4647 -0.1358  0.1080
26122SOL    HW190425   9.027   8.536   8.225  1.2833 -1.8355  0.1258
26122SOL    HW290426   8.878   8.535   8.157  1.9844 -0.5570 -1.4421
26123SOL     OW90427   9.181   5.228   1.800  0.4654  0.0274  0.8297
26123SOL    HW190428   9.084   5.240   1.776  0.4723  0.4903  1.0275
26123SOL    HW290429   9.225   5.318   1.806  1.2820 -0.2476 -0.7908
26124SOL     OW90430   7.339   9.100   1.555 -0.4736  0.4862  0.1889
26124SOL    HW190431   7.259   9.043   1.571 -0.0309 -0.1098  0.2896
26124SOL    HW290432   7.327   9.152   1.470 -2.2089  2.5712  1.6718
26125SOL     OW90433   6.738   8.828   8.335 -0.3060 -0.0322 -0.1436
26125SOL    HW190434   6.657   8.858   8.284 -0.6404 -0.1119  0.3406
26125SOL    HW290435   6.819   8.875   8.300 -0.3426 -1.0077 -1.5997
26126SOL     OW90436   8.623   7.432   4.328  0.2210  0.1399  0.1937
26126SOL    HW190437   8.692   7.410   4.259  0.9780 -0.9143  1.2697
26126SOL    HW290438   8.535   7.397   4.300  0.4824 -0.0932 -0.3383
26127SOL     OW90439   0.862   7.873   9.628  0.2451 -0.1185  0.2632
26127SOL    HW190440   0.831   7.791   9.676  0.9833  0.9222  2.6105
26127SOL    HW290441   0.858   7.858   9.529 -0.1844 -2.7527  0.6490
26128SOL     OW90442   8.807   6.451   5.459 -0.2005  0.2908 -0.6727
26128SOL    HW190443   8.763   6.506   5.530  0.2518 -0.6946  0.3775
26128SOL    HW290444   8.777   6.356   5.466  1.6094 -0.2717 -0.3453
26129SOL     OW90445   6.837   8.753   4.201 -0.0308  0.3625  0.6114
26129SOL    HW190446   6.842   8.671   4.145  2.5680 -0.5005  2.0044
26129SOL    HW290447   6.776   8.736   4.279 -0.4367  0.1736  0.2555
26130SOL     OW90448   8.403   6.798   5.796 -0.5096  0.0487  0.2342
26130SOL    HW190449   8.455   6.736   5.855  0.9326  0.4153 -0.6154
26130SOL    HW290450   8.333   6.746   5.747  0.8852 -0.9875 -0.7038
26131SOL     OW90451   6.519   4.989   9.137 -0.3407  0.2944 -0.7352
26131SOL    HW190452   6.468   4.932   9.201 -0.1528  0.4490 -0.4436
26131SOL    HW290453   6.546   4.935   9.058 -0.5963  0.1077 -0.6936
26132SOL     OW90454   3.617   6.132   0.210  0.0487 -0.1951 -0.0476
26132SOL    HW190455   3.712   6.152   0.184  0.2423  0.2661  0.9675
26132SOL    HW290456   3.557   6.147   0.132  0.4343  2.5204  0.1362
26133SOL     OW90457   7.290   7.254   8.297 -0.5558 -0.2876  0.0645
26133SOL    HW190458   7.280   7.155   8.290 -0.4804 -0.1764 -1.8758
26133SOL    HW290459   7.207   7.298   8.262  0.1250  0.3540 -0.7478
26134SOL     OW90460   4.955   9.176   6.665 -0.1527 -0.4299 -0.1408
26134SOL    HW190461   4.885   9.215   6.605 -0.7810  0.6248  1.2586
26134SOL    HW290462   4.918   9.165   6.757  1.7235  0.7423  0.7770
26135SOL     OW90463   0.768   5.488   8.675  0.2388 -0.5432 -0.3844
26135SOL    HW190464   0.757   5.581   8.709 -1.7904 -1.0649  0.4786
26135SOL    HW290465   0.827   5.436   8.737 -1.3130 -0.7436  0.9525
26136SOL     OW90466   2.573   8.381   9.851  0.2088 -0.1135 -0.7024
26136SOL    HW190467   2.579   8.302   9.911  1.9414  0.5181 -0.0297
26136SOL    HW290468   2.652   8.441   9.865 -0.7205  1.3962 -1.6876
26137SOL     OW90469   0.654   1.590   2.804  0.4915  0.0144  0.1247
26137SOL    HW190470   0.659   1.501   2.849 -1.5051  0.7368  1.8964
26137SOL    HW290471   0.600   1.653   2.861  0.1363  1.7493 -2.0474
26138SOL     OW90472   6.172   9.858   0.106  0.1347 -0.0209  0.1568
26138SOL    HW190473   6.264   9.820   0.095  0.0507 -0.1747 -0.0156
26138SOL    HW290474   6.107   9.784   0.123  0.1195  0.1286  0.7996
26139SOL     OW90475   6.959   5.538   8.717 -0.0295  0.4599  0.1466
26139SOL    HW190476   6.871   5.586   8.718 -0.6006 -0.5513 -0.9238
26139SOL    HW290477   7.025   5.588   8.773 -1.2892  1.2223  0.9715
26140SOL     OW90478   5.675   8.898   0.663 -0.2429 -0.0177  0.3671
26140SOL    HW190479   5.576   8.911   0.657 -0.4096 -0.7453  1.3485
26140SOL    HW290480   5.696   8.845   0.746  0.9544  0.0530  0.1095
26141SOL     OW90481   6.163   9.910   7.441  0.3406  0.3757 -0.5865
26141SOL    HW190482   6.133   9.893   7.535  0.3990 -0.4312 -0.7120
26141SOL    HW290483   6.222   9.991   7.440  2.4689 -1.0764  0.5031
26142SOL     OW90484   7.717   5.960   7.440  0.3498 -0.5573  0.5548
26142SOL    HW190485   7.747   6.001   7.526 -0.9749  0.4282  0.5673
26142SOL    HW290486   7.759   6.007   7.363 -1.1242  0.8381  0.5712
26143SOL     OW90487   6.333   0.343   1.458 -0.3300 -0.1518 -0.1227
26143SOL    HW190488   6.302   0.351   1.552  0.8458  0.5849  0.2145
26143SOL    HW290489   6.426   0.306   1.456  0.6939  2.3059 -0.8114
26144SOL     OW90490   7.700   3.266   7.924  0.1638 -0.2674  0.3531
26144SOL    HW190491   7.694   3.364   7.904  0.0883 -0.3119  0.1529
26144SOL    HW290492   7.739   3.218   7.844  1.4273 -0.2285  0.9290
26145SOL     OW90493   6.050   7.805   7.267 -0.5116  0.6082  0.3638
26145SOL    HW190494   6.121   7.758   7.215 -2.2159 -3.0100  1.1379
26145SOL    HW290495   6.092   7.873   7.328  2.0720 -0.0941 -0.5614
26146SOL     OW90496   7.847   0.187   9.790  0.2833 -0.1160 -0.2204
26146SOL    HW190497   7.757   0.217   9.823  0.7205  0.3542  0.5516
26146SOL    HW290498   7.867   0.096   9.827 -0.6014 -0.9636 -1.7524
26147SOL     OW90499   4.290   6.585   5.957  0.3997  0.2563 -0.1360
26147SOL    HW190500   4.259   6.498   5.920 -0.4217  0.4895  0.0074
26147SOL    HW290501   4.357   6.569   6.029  0.0141 -0.2622  0.1053
26148SOL     OW90502   5.156   7.761   5.136  0.2473 -0.0810  0.4735
26148SOL    HW190503   5.081   7.826   5.121 -1.6708 -1.9910  1.4352
26148SOL    HW290504   5.237   7.810   5.165 -1.4969  1.8063  2.3400
26149SOL     OW90505   8.056   7.872   7.606  0.5394  0.1422 -0.2434
26149SOL    HW190506   7.963   7.843   7.627  1.4950 -2.9591 -0.0183
26149SOL    HW290507   8.070   7.870   7.507  0.6952 -0.4156 -0.2074
26150SOL     OW90508   7.204   1.851   0.165 -0.0986  0.0749  1.0512
26150SOL    HW190509   7.150   1.910   0.105 -0.9303 -0.6265  1.1063
26150SOL    HW290510   7.284   1.901   0.197 -0.1347  0.7666  0.0990
26151SOL     OW90511   7.602   6.916   6.249 -0.8543  0.1019 -0.1010
26151SOL    HW190512   7.599   7.014   6.266  1.6245 -0.0273  1.4301
26151SOL    HW290513   7.622   6.868   6.335 -2.9924 -1.8264 -0.6354
26152SOL     OW90514   3.922   2.187   0.747  0.2611 -0.4676  0.0855
26152SOL    HW190515   3.981   2.140   0.681 -0.7663  0.3420 -1.4706
26152SOL    HW290516   3.836   2.137   0.756  0.1623 -0.2491  0.3625
26153SOL     OW90517   5.668   9.718   1.174 -0.2894 -0.0543  0.6028
26153SOL    HW190518   5.728   9.798   1.171 -1.1543  0.5845  0.0188
26153SOL    HW290519   5.701   9.654   1.244  1.7874 -0.3086 -0.5895
26154SOL     OW90520   1.860   9.773   0.452 -0.5428  0.1063 -0.1314
26154SOL    HW190521   1.906   9.818   0.528 -0.7950  1.3174 -0.6948
26154SOL    HW290522   1.899   9.805   0.365  1.0212 -2.6173 -0.5007
26155SOL     OW90523   5.090   9.712   7.165  0.0668 -0.9809  0.0082
26155SOL    HW190524   5.072   9.769   7.085  0.7833  1.1323  1.3068
26155SOL    HW290525   5.093   9.616   7.138 -3.5185 -0.6582 -1.8534
26156SOL     OW90526   1.125   7.968   4.915 -0.1570 -0.1344 -0.5500
26156SOL    HW190527   1.034   8.007   4.930 -0.2611 -0.0338 -1.4181
26156SOL    HW290528   1.117   7.880   4.869  0.1454 -0.5909  0.2512
26157SOL     OW90529   9.557   7.072   2.227  0.8036  0.0309  0.6144
26157SOL    HW190530   9.503   7.018   2.162  1.2836  0.8629 -0.5083
26157SOL    HW290531   9.560   7.025   2.315  0.1299 -1.1252  0.0416
26158SOL     OW90532   5.233   8.062   9.923  0.1937 -0.3207 -0.1367
26158SOL    HW190533   5.216   8.159   9.937 -0.1504 -0.4174  0.1118
26158SOL    HW290534   5.173   8.027   9.851 -1.2906 -0.8558  1.3427
26159SOL     OW90535   9.137   2.798   2.340  0.0596 -0.2338 -0.5082
26159SOL    HW190536   9.124   2.750   2.253 -1.3898  1.3914 -1.2322
26159SOL    HW290537   9.145   2.897   2.322 -0.4422  0.1361  1.2221
26160SOL     OW90538   3.674   8.822   2.459  0.2202  0.1560 -0.1723
26160SOL    HW190539   3.581   8.854   2.474  0.5139  0.9002  0.1238
26160SOL    HW290540   3.738   8.897   2.477  0.9967 -0.9079  1.7298
26161SOL     OW90541   0.031   0.409   1.267  0.0826  0.1669  0.5263
26161SOL    HW190542   0.065   0.503   1.271  0.2307  0.1349  0.0448
26161SOL    HW290543   0.107   0.347   1.250 -0.0088 -0.0419  0.8911
26162SOL     OW90544   5.443   0.229   0.902 -0.2139 -0.6850 -0.5319
26162SOL    HW190545   5.402   0.218   0.993 -0.2843  0.9898 -0.3527
26162SOL    HW290546   5.541   0.246   0.911 -0.4834  1.0314 -0.6789
26163SOL     OW90547   3.979   1.346   9.132 -0.6677 -0.2554  0.3201
26163SOL    HW190548   4.020   1.264   9.172 -2.6441 -0.8032  1.3294
26163SOL    HW290549   3.906   1.319   9.069 -2.3399  0.6976  1.7795
26164SOL     OW90550   9.679   9.561   9.647 -0.2715 -0.4253 -0.8465
26164SOL    HW190551   9.598   9.613   9.621  0.0789  0.6755  0.2378
26164SOL    HW290552   9.729   9.610   9.719 -0.3248 -2.5963  0.7102
26165SOL     OW90553   8.525   6.610   8.358 -0.4727 -0.0172 -0.3276
26165SOL    HW190554   8.472   6.613   8.443  1.2038 -2.7672  0.9016
26165SOL    HW290555   8.477   6.555   8.290  0.3258 -1.7734  0.4890
26166SOL     OW90556   8.493   6.053   6.628  0.1861 -0.1968 -0.5971
26166SOL    HW190557   8.533   6.129   6.575  1.8098  0.0260  0.9095
26166SOL    HW290558   8.553   5.973   6.622 -0.4867 -0.7105 -0.4888
26167SOL     OW90559   0.847   3.273   4.214 -0.0242 -0.1845 -0.0223
26167SOL    HW190560   0.820   3.177   4.216  1.1225 -0.6257 -3.0483
26167SOL    HW290561   0.771   3.329   4.180 -0.3119 -0.1573  0.6577
26168SOL     OW90562   6.225   3.701   8.673  0.5812  0.1481  0.1483
26168SOL    HW190563   6.140   3.657   8.642  2.1789 -1.9262 -1.4769
26168SOL    HW290564   6.226   3.797   8.643 -1.7225  0.5717  1.3135
26169SOL     OW90565   5.634   2.226   9.418  0.1479  0.5451 -0.3971
26169SOL    HW190566   5.612   2.303   9.358 -1.3754  0.3831 -0.0799
26169SOL    HW290567   5.560   2.159   9.413 -0.0109  0.5279  1.6508
26170SOL     OW90568   6.000   9.572   7.656  0.7962  0.3053  0.2290
26170SOL    HW190569   5.980   9.522   7.572 -0.0075 -0.9299  1.1457
26170SOL    HW290570   6.008   9.670   7.635 -1.6874  0.3088 -0.9306
26171SOL     OW90571   3.879   8.175   6.913  0.2632 -0.5196  0.1484
26171SOL    HW190572   3.790   8.203   6.878  0.6381 -0.3325 -0.6603
26171SOL    HW290573   3.872   8.083   6.952 -0.4030 -0.2940  0.5700
26172SOL     OW90574   7.130   6.833   8.745 -0.0040 -0.0800 -0.1245
26172SOL    HW190575   7.132   6.786   8.833  2.1534  0.6805  0.2432
26172SOL    HW290576   7.202   6.797   8.685 -1.3045 -0.4373 -1.5123
26173SOL     OW90577   6.670   8.492   5.514  0.3794 -0.2791  0.6600
26173SOL    HW190578   6.714   8.411   5.555 -0.5265 -1.2249 -0.2140
26173SOL    HW290579   6.573   8.474   5.503  0.6968 -0.2374 -2.4293
26174SOL     OW90580   6.160   9.513   4.696  0.2527 -0.3147  0.3223
26174SOL    HW190581   6.206   9.600   4.676 -0.7113  0.1008 -0.1452
26174SOL    HW290582   6.131   9.513   4.792  0.0822 -0.0286  0.2742
26175SOL     OW90583   9.114   6.414   8.529 -0.0185  0.4436  0.0378
26175SOL    HW190584   9.051   6.492   8.531  0.2929  0.7913 -2.2309
26175SOL    HW290585   9.061   6.329   8.523 -0.3535  0.4687  2.2733
26176SOL     OW90586   6.080   1.880   0.509  0.1523 -0.2477  0.2035
26176SOL    HW190587   6.160   1.940   0.515 -0.3746  0.9800 -3.8805
26176SOL    HW290588   6.107   1.792   0.471  0.0515 -0.9730  1.7445
26177SOL     OW90589   8.424   2.425   0.240  0.5255  0.1355 -0.5141
26177SOL    HW190590   8.421   2.507   0.298 -0.9556  0.2448 -0.7241
26177SOL    HW290591   8.480   2.445   0.159 -0.6115  1.2744 -1.0409
26178SOL     OW90592   3.753   1.822   9.749  0.2415  0.5956  0.0591
26178SOL    HW190593   3.734   1.920   9.754 -0.6921  0.4677 -0.6502
26178SOL    HW290594   3.843   1.803   9.787 -0.2295  1.5186  1.6940
26179SOL     OW90595   6.595   5.924   6.673 -0.2349  0.0362 -0.1748
26179SOL    HW190596   6.617   6.012   6.631 -0.7638 -0.4782 -1.5640
26179SOL    HW290597   6.666   5.857   6.649  0.3374  0.1607  1.1456
26180SOL     OW90598   6.219   0.970   7.767 -0.4082  0.2275  0.3295
26180SOL    HW190599   6.265   0.882   7.776 -0.8440 -0.1173 -0.7006
26180SOL    HW290600   6.138   0.960   7.708 -1.8076  0.8138  2.0970
26181SOL     OW90601   6.712   0.328   3.743  0.2684  0.0290  0.0739
26181SOL    HW190602   6.647   0.361   3.675 -1.5193 -0.9117  1.3103
26181SOL    HW290603   6.741   0.235   3.721 -1.4237 -0.8255  1.3507
26182SOL     OW90604   9.115   4.165   8.695  0.0367  0.3847 -0.0738
26182SOL    HW190605   9.116   4.095   8.623  1.3900 -1.7663  1.9477
26182SOL    HW290606   9.031   4.157   8.748  0.7963 -0.6682  1.0086
26183SOL     OW90607   8.895   4.428   7.404 -0.1029 -0.1686  0.2495
26183SOL    HW190608   8.947   4.472   7.331 -0.5029  0.7186  0.4899
26183SOL    HW290609   8.948   4.352   7.442 -0.6711 -1.9222 -2.2771
26184SOL     OW90610   8.739   3.277   2.666 -0.1449  0.0588 -0.5546
26184SOL    HW190611   8.642   3.290   2.683 -0.3017 -1.4281 -0.2718
26184SOL    HW290612   8.759   3.292   2.569 -0.2339  2.7348 -0.2022
26185SOL     OW90613   9.045   5.554   1.383 -0.5198  0.0333 -0.6424
26185SOL    HW190614   9.134   5.589   1.353 -0.8351 -0.8261 -2.6645
26185SOL    HW290615   8.974   5.621   1.360 -0.6193 -0.0861 -0.6819
26186SOL     OW90616   1.607   9.671   4.412 -0.4369 -0.0871  0.2456
26186SOL    HW190617   1.690   9.625   4.445 -0.0958  0.6881  0.4842
26186SOL    HW290618   1.544   9.603   4.374  1.6362 -0.3876 -2.8586
26187SOL     OW90619   3.537   3.842   9.720  0.2636 -0.4560  0.4181
26187SOL    HW190620   3.472   3.779   9.677  0.5969 -1.0891  0.8272
26187SOL    HW290621   3.558   3.810   9.813  2.6921 -1.4071 -0.3965
26188SOL     OW90622   1.832   1.731   2.084 -0.2646  0.1305  0.5281
26188SOL    HW190623   1.862   1.730   1.988 -1.8153 -0.7404  0.0435
26188SOL    HW290624   1.910   1.709   2.143  0.5658  0.0736 -0.5634
26189SOL     OW90625   0.785   0.830   0.117 -0.0685  0.4952  0.3675
26189SOL    HW190626   0.762   0.738   0.150  1.5067 -0.1234 -0.1997
26189SOL    HW290627   0.876   0.828   0.075 -0.6785  1.9734 -1.0583
26190SOL     OW90628   0.945   2.500   1.285  0.2388  0.0233  0.5619
26190SOL    HW190629   0.927   2.464   1.376 -0.5341  0.7083  0.6858
26190SOL    HW290630   0.883   2.577   1.267  0.3157 -0.1795 -0.5754
26191SOL     OW90631   0.037   6.576   4.441  0.2551 -0.4517 -0.4097
26191SOL    HW190632  -0.057   6.611   4.440  0.1471 -0.7553 -1.0900
26191SOL    HW290633   0.046   6.507   4.513  0.4178  0.8379  0.8130
26192SOL     OW90634   3.029   5.323   1.950  0.1263 -0.2950 -0.1594
26192SOL    HW190635   2.986   5.300   1.862  1.0897 -0.4303 -0.6101
26192SOL    HW290636   3.128   5.311   1.942  0.4737  2.0639  0.2177
26193SOL     OW90637   6.257   9.884   9.564 -0.3288 -0.4381 -0.1665
26193SOL    HW190638   6.241   9.787   9.546  1.6251 -0.4746 -1.7655
26193SOL    HW290639   6.306   9.894   9.651 -0.3489 -0.8841 -0.1028
26194SOL     OW90640   9.430   5.418   2.172  0.3990  0.2330  0.6276
26194SOL    HW190641   9.486   5.419   2.090  1.4633 -1.2976  1.3106
26194SOL    HW290642   9.351   5.359   2.158  0.3224  0.3525  0.5454
26195SOL     OW90643   0.656   1.317   1.085  0.2593  0.4427 -0.2557
26195SOL    HW190644   0.634   1.398   1.030 -2.3383  0.0476  0.1277
26195SOL    HW290645   0.603   1.239   1.053 -0.8057  0.0385  2.3415
26196SOL     OW90646   9.766   3.325   2.638  0.0276  0.0395 -0.4298
26196SOL    HW190647   9.866   3.330   2.645 -0.1467  3.0608  0.4865
26196SOL    HW290648   9.736   3.379   2.559 -0.8178 -1.8047 -1.3839
26197SOL     OW90649   2.244   3.421   4.787  0.0227 -0.0477 -0.6110
26197SOL    HW190650   2.323   3.401   4.729 -0.6109  1.1584 -1.9275
26197SOL    HW290651   2.177   3.348   4.779 -0.0094  0.0553 -1.3270
26198SOL     OW90652   8.192   9.506   5.768  0.1690 -0.1950 -0.1109
26198SOL    HW190653   8.269   9.521   5.831 -0.6025 -0.3101  0.8676
26198SOL    HW290654   8.107   9.501   5.820 -0.8602  2.7398 -1.4066
26199SOL     OW90655   2.231   7.476   5.740 -0.1985 -1.0050  0.2234
26199SOL    HW190656   2.314   7.429   5.713  0.0930 -1.0435  1.1764
26199SOL    HW290657   2.157   7.410   5.755  0.1863 -1.1583  1.4735
26200SOL     OW90658   9.645   1.840   3.283  0.0018 -0.0990 -0.2803
26200SOL    HW190659   9.676   1.768   3.220 -1.4557  0.1463 -1.2881
26200SOL    HW290660   9.669   1.929   3.245 -1.5283  0.0751 -0.8613
26201SOL     OW90661   8.668   2.710   8.412  0.1256  0.4529 -0.0237
26201SOL    HW190662   8.657   2.804   8.443  1.2498  0.5843 -0.0132
26201SOL    HW290663   8.647   2.704   8.315  2.1448  1.1399 -0.5241
26202SOL     OW90664   7.015   3.957   1.035  0.1894  0.4095  0.0400
26202SOL    HW190665   6.986   4.021   0.964 -0.4508 -1.1688 -1.1504
26202SOL    HW290666   6.937   3.900   1.062  0.4597  0.9120  1.9393
26203SOL     OW90667   0.668   9.341   1.206  0.5123  0.1196 -0.4692
26203SOL    HW190668   0.674   9.298   1.117 -1.9352 -1.0517 -0.1032
26203SOL    HW290669   0.636   9.275   1.274 -1.1797  1.9086  0.5432
26204SOL     OW90670   0.099   2.578   2.058  0.1397  0.2740  0.2502
26204SOL    HW190671   0.086   2.490   2.011 -1.0881 -0.2257  1.4998
26204SOL    HW290672   0.150   2.640   1.998 -1.9108 -0.1332 -2.0034
26205SOL     OW90673   9.161   2.640   0.427  0.0650  0.1054  0.1233
26205SOL    HW190674   9.097   2.589   0.485 -1.5903  1.6712 -0.2931
26205SOL    HW290675   9.111   2.708   0.374  1.8314  0.0600 -1.6638
26206SOL     OW90676   9.470   9.706   5.419 -0.5833  0.2249  0.4299
26206SOL    HW190677   9.399   9.696   5.489 -0.9448  1.6975  0.2830
26206SOL    HW290678   9.560   9.686   5.459 -0.9456 -0.4142  0.9274
26207SOL     OW90679   5.390   8.084   9.040 -0.2207  0.4905  0.4636
26207SOL    HW190680   5.304   8.039   9.067  1.1726 -1.0552  2.4908
26207SOL    HW290681   5.369   8.169   8.992 -2.8745  1.0564  2.4883
26208SOL     OW90682   1.524   0.306   5.522  0.3809  0.2782 -0.2798
26208SOL    HW190683   1.599   0.242   5.503  0.3275  0.6227 -1.6910
26208SOL    HW290684   1.436   0.261   5.504  0.4016  1.5031 -3.7949
26209SOL     OW90685   0.593   2.135   5.384  0.2033 -0.1419  0.0745
26209SOL    HW190686   0.562   2.052   5.432 -0.6885 -1.1295 -2.1260
26209SOL    HW290687   0.692   2.143   5.393  0.5495 -2.4649 -1.1916
26210SOL     OW90688   1.835   9.826   6.819 -0.4291 -0.3116 -0.5713
26210SOL    HW190689   1.889   9.742   6.825  1.1782  0.7072 -0.5424
26210SOL    HW290690   1.843   9.865   6.727  1.1623  1.3070  0.2095
26211SOL     OW90691   9.303   4.683   6.166 -0.9730 -0.4625 -0.1403
26211SOL    HW190692   9.340   4.628   6.241  0.0043  0.2262 -0.1114
26211SOL    HW290693   9.254   4.762   6.203 -0.7348 -0.2779 -0.2142
26212SOL     OW90694   4.096   9.758   3.624  0.5267 -0.0260 -0.3333
26212SOL    HW190695   4.051   9.676   3.659 -0.7633  0.5584 -0.5849
26212SOL    HW290696   4.161   9.733   3.553 -0.8515 -0.7323 -1.3836
26213SOL     OW90697   3.336   1.802   9.012  0.5602  0.2855  1.1757
26213SOL    HW190698   3.311   1.737   8.940 -1.0885  1.2657  0.8237
26213SOL    HW290699   3.371   1.886   8.971 -3.6994  2.2643  1.2267
26214SOL     OW90700   2.451   3.580   4.327 -0.0189  0.3622  0.2532
26214SOL    HW190701   2.454   3.541   4.419  0.0720  1.7129  0.8315
26214SOL    HW290702   2.537   3.627   4.308 -0.3779  0.8576 -0.1681
26215SOL     OW90703   7.943   1.346   9.725  0.0289 -0.4992 -0.0589
26215SOL    HW190704   7.984   1.424   9.773  0.4956 -0.8537  0.1117
26215SOL    HW290705   8.012   1.301   9.668 -1.0556  1.3986 -3.0095
26216SOL     OW90706   3.703   6.737   8.413 -0.0055 -0.4154  0.6037
26216SOL    HW190707   3.642   6.783   8.348  0.5540 -0.5165  0.0150
26216SOL    HW290708   3.740   6.805   8.476  1.2445  0.0407 -0.6038
26217SOL     OW90709   3.132   9.605   1.223  0.0880 -0.0550  0.4535
26217SOL    HW190710   3.156   9.523   1.171  1.9807 -0.6723  2.2060
26217SOL    HW290711   3.214   9.661   1.237 -1.2275  2.2805 -0.9172
26218SOL     OW90712   0.207   7.604   9.465  0.6812  0.3317  0.6071
26218SOL    HW190713   0.138   7.542   9.503 -0.1579  0.1266 -1.2155
26218SOL    HW290714   0.268   7.634   9.539  0.5217 -1.8906  1.7008
26219SOL     OW90715   5.738   9.102   7.478 -0.0593  0.8474 -0.9009
26219SOL    HW190716   5.728   9.166   7.402 -3.0262 -0.9459 -2.1405
26219SOL    HW290717   5.722   9.009   7.445 -3.4203  0.1977  2.2363
26220SOL     OW90718   2.639   2.486   8.936  0.1625 -0.5962 -0.0472
26220SOL    HW190719   2.726   2.470   8.983  0.2410 -0.7808 -0.2535
26220SOL    HW290720   2.565   2.439   8.985  0.3180 -1.1947 -0.3783
26221SOL     OW90721   0.909   6.247   8.012  0.4703 -0.2098  0.5304
26221SOL    HW190722   0.992   6.231   8.065  0.9755 -1.4400 -0.5856
26221SOL    HW290723   0.927   6.227   7.916 -0.6701  1.1208  0.0208
26222SOL     OW90724   8.444   4.326   6.615 -0.1626 -0.0891 -0.5787
26222SOL    HW190725   8.385   4.261   6.663 -0.0760  0.8018  0.7585
26222SOL    HW290726   8.397   4.414   6.608  0.6514  0.3685 -0.3140
26223SOL     OW90727   6.524   9.151   9.210  0.1449 -0.1325 -0.1737
26223SOL    HW190728   6.555   9.156   9.114  0.4064  1.5666 -0.0084
26223SOL    HW290729   6.600   9.176   9.270  0.4476 -2.7352  0.5734
26224SOL     OW90730   2.132   1.792   8.886 -0.3005 -0.2819  0.1790
26224SOL    HW190731   2.171   1.822   8.798  1.9237 -1.9870  0.5405
26224SOL    HW290732   2.075   1.864   8.923  0.6988  1.4238 -1.5077
26225SOL     OW90733   8.706   1.467   3.167 -0.3960 -0.7095 -0.5229
26225SOL    HW190734   8.802   1.480   3.143 -0.7849  0.9094 -1.2504
26225SOL    HW290735   8.683   1.370   3.159  1.7665 -1.4763  1.9415
26226SOL     OW90736   6.603   7.427   3.702 -0.2897 -0.1866 -0.7175
26226SOL    HW190737   6.697   7.456   3.724 -0.5294  0.7836 -0.9665
26226SOL    HW290738   6.573   7.360   3.770  0.0175  0.6733  0.2813
26227SOL     OW90739   1.896   4.906   2.851 -0.4914  0.1937 -0.1680
26227SOL    HW190740   1.855   4.953   2.773  1.6190  1.4997 -0.5106
26227SOL    HW290741   1.917   4.812   2.826 -2.0941 -0.1264 -0.3742
26228SOL     OW90742   7.590   3.848   3.123 -0.0584 -0.5775 -0.4215
26228SOL    HW190743   7.679   3.825   3.161  0.5177  2.4648  0.1926
26228SOL    HW290744   7.525   3.867   3.196  0.0846  1.8204 -0.8964
26229SOL     OW90745   2.582   2.417   1.906 -0.2528 -0.1620  0.3304
26229SOL    HW190746   2.502   2.463   1.868  0.0201 -0.5339 -0.6790
26229SOL    HW290747   2.562   2.320   1.920 -0.1035 -0.1773  0.4383
26230SOL     OW90748   1.896   7.139   3.149  0.5100 -0.1915  0.0070
26230SOL    HW190749   1.851   7.216   3.104  0.6520  0.0669  0.3066
26230SOL    HW290750   1.955   7.092   3.083 -1.3160 -1.4359 -0.8046
26231SOL     OW90751   5.085   2.665   7.170 -0.2910  0.1068 -0.5023
26231SOL    HW190752   4.997   2.710   7.190  1.4782  1.9697  3.5582
26231SOL    HW290753   5.155   2.735   7.159  1.7120 -1.5297  1.6114
26232SOL     OW90754   8.617   1.018   0.992  0.3837  0.1877 -0.5935
26232SOL    HW190755   8.639   1.115   1.001 -0.7335  0.2195  2.4696
26232SOL    HW290756   8.541   1.007   0.927  1.7152  1.1433 -2.3615
26233SOL     OW90757   0.106   3.056   3.753  0.0596  0.1536  0.1750
26233SOL    HW190758   0.163   3.094   3.826  0.8353  0.0144 -0.3479
26233SOL    HW290759   0.125   3.105   3.668  0.4355 -0.8364 -0.3128
26234SOL     OW90760   5.883   2.675   1.744  0.9616 -0.1691 -0.7789
26234SOL    HW190761   5.911   2.583   1.771  0.7606  0.1798  0.6385
26234SOL    HW290762   5.961   2.736   1.747  0.4959  0.3588  1.2160
26235SOL     OW90763   9.521   3.220   9.223  0.4885 -0.1513 -0.3687
26235SOL    HW190764   9.572   3.179   9.298 -2.1985  1.6687  2.6007
26235SOL    HW290765   9.567   3.303   9.193 -0.0099  0.8212  1.4666
26236SOL     OW90766   1.740   1.310   1.142 -0.3873  0.1874 -0.0995
26236SOL    HW190767   1.766   1.351   1.230  2.6124  1.7112 -1.5976
26236SOL    HW290768   1.702   1.219   1.157 -0.4389  0.6393  2.8062
26237SOL     OW90769   0.465   2.912   0.965 -0.2631 -0.0715  0.2896
26237SOL    HW190770   0.390   2.950   0.909  1.3523  1.0727 -1.1532
26237SOL    HW290771   0.452   2.938   1.060 -1.2298  0.8694 -0.0890
26238SOL     OW90772   4.476   3.574   6.294  0.3265  0.3581  0.4611
26238SOL    HW190773   4.540   3.532   6.229  0.5310  1.3589 -0.0005
26238SOL    HW290774   4.512   3.567   6.387  0.1960 -0.7826  0.4285
26239SOL     OW90775   9.054   1.555   3.330 -0.1640 -0.7066  0.4971
26239SOL    HW190776   9.004   1.563   3.244 -1.3924  0.0852  1.2650
26239SOL    HW290777   8.991   1.523   3.402  0.5156 -0.0404  1.3936
26240SOL     OW90778   8.922   1.191   2.591 -0.3363 -0.0108  0.7162
26240SOL    HW190779   8.995   1.210   2.527 -0.5283 -2.3460 -0.2249
26240SOL    HW290780   8.944   1.110   2.645 -2.3132 -0.8919  0.2508
26241SOL     OW90781   6.133   1.258   9.571  0.3281  0.4054  0.2850
26241SOL    HW190782   6.137   1.292   9.477 -1.2519 -1.7337 -0.5750
26241SOL    HW290783   6.195   1.180   9.581  0.2837  0.4502  0.9640
26242SOL     OW90784   1.084   3.629   5.277 -0.1534  0.1058  0.3720
26242SOL    HW190785   1.083   3.551   5.339 -0.6689 -0.2561 -0.0859
26242SOL    HW290786   0.991   3.659   5.259 -0.1707 -1.2560 -2.0332
26243SOL     OW90787   2.745   8.819   4.679 -0.5047  0.0479 -0.4601
26243SOL    HW190788   2.763   8.899   4.736  1.0048  0.0257 -0.8877
26243SOL    HW290789   2.730   8.848   4.585  1.1774 -0.2553 -0.8305
26244SOL     OW90790   9.093   0.055   9.399  0.6327 -0.2359  0.1662
26244SOL    HW190791   9.120   0.151   9.395  1.1430 -0.4498 -1.6246
26244SOL    HW290792   9.158  -0.001   9.348  0.2868 -1.5404  1.1077
26245SOL     OW90793   8.362   9.415   2.833 -0.3218 -0.0029 -0.4973
26245SOL    HW190794   8.426   9.414   2.909 -0.5960  1.7180 -0.2376
26245SOL    HW290795   8.401   9.364   2.756  0.4280 -0.7839  0.3903
26246SOL     OW90796   9.139   7.573   3.602  0.4364 -0.1754  0.3549
26246SOL    HW190797   9.057   7.624   3.628  1.1382  1.8528 -1.2352
26246SOL    HW290798   9.214   7.637   3.586  1.5814 -1.7773 -0.8298
26247SOL     OW90799   6.602   5.199   6.183  0.0884 -0.4063 -0.2327
26247SOL    HW190800   6.632   5.118   6.234  1.2071 -0.1228 -0.4211
26247SOL    HW290801   6.503   5.195   6.170  0.2758 -2.2959 -1.2064
26248SOL     OW90802   5.165   7.527   2.923 -0.1402  0.3671  0.2189
26248SOL    HW190803   5.205   7.460   2.860  3.3040  3.5042 -1.1419
26248SOL    HW290804   5.102   7.586   2.873 -0.8085  0.0779  0.7167
26249SOL     OW90805   8.329   7.416   5.771 -0.0084  0.3124  0.1515
26249SOL    HW190806   8.232   7.440   5.772  0.2286  1.4941 -1.6610
26249SOL    HW290807   8.362   7.415   5.676  1.9933  0.9819  0.8082
26250SOL     OW90808   0.549   9.967   3.457 -0.4707 -0.8779 -0.2937
26250SOL    HW190809   0.510   9.888   3.503  0.4332 -1.0454  0.1874
26250SOL    HW290810   0.539  10.048   3.516  0.2831 -1.0040  0.0070
26251SOL     OW90811   5.328   1.485   9.972  0.2109  0.2689  0.3509
26251SOL    HW190812   5.340   1.442  10.062 -0.1254  0.8790  0.6918
26251SOL    HW290813   5.241   1.533   9.970  0.5237  0.8152 -0.0838
26252SOL     OW90814   7.733   9.069   6.176 -0.1651 -0.1864  0.2186
26252SOL    HW190815   7.692   9.115   6.255  1.9901  1.9146  0.1703
26252SOL    HW290816   7.808   9.010   6.207  0.3179  0.2042 -0.1891
26253SOL     OW90817   7.497   9.526   5.090  0.1821 -0.3078 -0.2319
26253SOL    HW190818   7.452   9.563   5.010 -2.1992  0.3246  1.3648
26253SOL    HW290819   7.580   9.578   5.109  1.0971 -0.8517 -2.6045
26254SOL     OW90820   9.794   5.052   6.114  0.0696 -0.1887  0.7628
26254SOL    HW190821   9.883   5.006   6.123 -0.3148 -1.0626  0.1578
26254SOL    HW290822   9.772   5.098   6.200  0.0979 -1.8256  1.6782
26255SOL     OW90823   9.837   0.657   3.313 -0.2754 -0.2235 -0.6968
26255SOL    HW190824   9.821   0.725   3.242  0.1666 -0.3546 -0.9246
26255SOL    HW290825   9.816   0.566   3.277 -0.3509 -0.2624 -0.5584
26256SOL     OW90826   7.728   4.107   4.559 -0.2902  0.2268  0.1084
26256SOL    HW190827   7.671   4.026   4.548  3.4543 -2.8462  1.9584
26256SOL    HW290828   7.819   4.090   4.520  0.5226  3.6726  0.2786
26257SOL     OW90829   8.868   8.918   6.408 -0.1419 -0.3267 -0.4911
26257SOL    HW190830   8.947   8.974   6.435 -0.7189  1.0210 -1.5269
26257SOL    HW290831   8.796   8.927   6.476  0.9174 -2.3128  0.9521
26258SOL     OW90832   1.789   5.267   3.480  0.6254 -0.1297 -0.0799
26258SOL    HW190833   1.847   5.321   3.541  1.6461 -1.0764 -0.1993
26258SOL    HW290834   1.837   5.250   3.394 -0.8112  1.2024 -1.1703
26259SOL     OW90835   2.085   4.010   3.025  0.0991  0.2223  0.0117
26259SOL    HW190836   2.074   4.110   3.024  3.4297  0.6436 -0.4413
26259SOL    HW290837   2.160   3.986   3.087 -0.4864 -1.9987 -0.1102
26260SOL     OW90838   6.324   9.989   1.935 -0.6785 -0.2678 -0.9428
26260SOL    HW190839   6.414   9.950   1.919 -0.1956  0.5944 -0.3952
26260SOL    HW290840   6.329  10.089   1.922 -1.3403 -0.1124  0.0001
26261SOL     OW90841   0.099   7.900   5.764 -0.5776  0.3672 -0.3884
26261SOL    HW190842   0.158   7.952   5.825  0.2393 -0.7485 -0.2169
26261SOL    HW290843   0.149   7.874   5.682  0.0589 -2.9156  0.9554
26262SOL     OW90844   0.680   8.285   0.077  0.2792  0.2223  0.0343
26262SOL    HW190845   0.594   8.334   0.063  0.7913  1.1700  0.1068
26262SOL    HW290846   0.746   8.347   0.121  0.5559 -0.9145  1.2358
26263SOL     OW90847   4.753   0.831   7.740 -0.0577  0.1627  0.0896
26263SOL    HW190848   4.838   0.876   7.710  0.6657 -0.0743  1.7413
26263SOL    HW290849   4.706   0.793   7.660  0.4334  1.9390 -1.0627
26264SOL     OW90850   9.211   3.233   9.323 -0.2972  0.1358  0.1576
26264SOL    HW190851   9.273   3.250   9.399 -0.7743 -0.2056  0.6273
26264SOL    HW290852   9.247   3.275   9.240 -0.2259  1.2895  0.7675
26265SOL     OW90853   3.859   9.901   6.352 -0.2322 -0.1974  0.1822
26265SOL    HW190854   3.789   9.836   6.382 -1.6287  0.6963 -1.0398
26265SOL    HW290855   3.923   9.919   6.427 -2.2187  0.1425  1.8393
26266SOL     OW90856   8.756   4.688   2.087 -0.2195  0.4518 -0.4857
26266SOL    HW190857   8.849   4.703   2.121 -0.0337 -1.2237 -0.2373
26266SOL    HW290858   8.759   4.663   1.990 -0.5317  1.9668 -0.8981
26267SOL     OW90859   2.235   2.030   4.095  0.2538 -0.1226 -0.0293
26267SOL    HW190860   2.237   2.125   4.128 -0.2428 -0.9230  2.3450
26267SOL    HW290861   2.295   1.974   4.151 -0.1339 -1.4139 -0.8810
26268SOL     OW90862   1.873   5.637   4.268 -0.1195  0.3412 -0.1155
26268SOL    HW190863   1.860   5.731   4.235  0.0974  0.8709  1.2600
26268SOL    HW290864   1.787   5.587   4.260 -0.8354  1.3235  1.1640
26269SOL     OW90865   9.167   8.722   2.458  0.2735 -0.2869 -0.0482
26269SOL    HW190866   9.262   8.695   2.442  0.4926  1.2496 -1.4704
26269SOL    HW290867   9.160   8.821   2.453 -1.6667 -0.4783 -1.3246
26270SOL     OW90868   7.949   3.668   3.064  0.0948  0.2236  0.1166
26270SOL    HW190869   8.043   3.642   3.038  0.3060 -0.3408  1.4238
26270SOL    HW290870   7.907   3.719   2.989  1.1418 -0.2868 -0.8359
26271SOL     OW90871   7.182   8.851   6.720 -0.3288  0.0714 -0.3962
26271SOL    HW190872   7.152   8.760   6.691  0.4666  0.3099 -2.0352
26271SOL    HW290873   7.272   8.845   6.762 -0.0574  0.1516 -0.9550
26272SOL     OW90874   1.759   1.782   8.785  0.7316 -0.6693  0.2686
26272SOL    HW190875   1.794   1.726   8.710 -3.4408  0.5225 -2.7388
26272SOL    HW290876   1.800   1.874   8.779 -1.1947  0.0953 -1.9808
26273SOL     OW90877   8.373   1.461   5.404  0.0597 -0.0733  0.3626
26273SOL    HW190878   8.338   1.482   5.496 -1.2608 -1.1413  0.1299
26273SOL    HW290879   8.316   1.390   5.363 -0.1733  1.3310 -1.8103
26274SOL     OW90880   9.080   0.511   7.355  0.5553 -0.2243  0.1895
26274SOL    HW190881   9.063   0.470   7.444  0.4746  0.1436  0.3448
26274SOL    HW290882   9.131   0.447   7.298 -0.5529 -0.9978  0.0342
26275SOL     OW90883   0.509   4.171   3.666  0.4160 -0.2081 -0.3228
26275SOL    HW190884   0.588   4.149   3.724  0.9980 -0.5309 -1.2307
26275SOL    HW290885   0.485   4.267   3.678  1.9368  0.3036 -1.2197
26276SOL     OW90886   7.609   1.365   4.430 -0.3379  0.7162 -0.1352
26276SOL    HW190887   7.633   1.456   4.465  0.2817  0.1646  0.9107
26276SOL    HW290888   7.663   1.296   4.478 -1.9233 -0.3307  0.1860
26277SOL     OW90889   2.083   8.703   4.664  0.2445  0.8452  0.0693
26277SOL    HW190890   2.167   8.664   4.626 -1.0732 -1.5378 -0.5582
26277SOL    HW290891   2.030   8.630   4.709 -1.4593  2.2848  0.4584
26278SOL     OW90892   8.348   9.469   3.813  0.8342 -0.1060 -0.2641
26278SOL    HW190893   8.399   9.419   3.743  1.6484  0.8828 -0.3837
26278SOL    HW290894   8.322   9.407   3.887 -0.1234 -1.1849 -1.4877
26279SOL     OW90895   7.909   9.690   3.042  0.1853 -0.3262  0.3487
26279SOL    HW190896   7.981   9.749   3.078  0.1569  0.0502 -0.1939
26279SOL    HW290897   7.929   9.595   3.063 -0.0539 -0.0724  1.7327
26280SOL     OW90898   7.315   1.145   5.358 -0.0242 -0.0037 -0.1377
26280SOL    HW190899   7.352   1.192   5.439 -1.0917  1.8927 -0.7186
26280SOL    HW290900   7.379   1.154   5.282 -1.3682  2.8505 -1.0012
26281SOL     OW90901   9.613   6.417   7.997  0.4271 -0.3546 -0.0584
26281SOL    HW190902   9.554   6.375   8.066 -1.4928  1.4593 -0.5338
26281SOL    HW290903   9.584   6.389   7.906 -0.0298  0.9205 -0.3180
26282SOL     OW90904   0.887   8.522   4.472  0.3501 -0.7065  0.4681
26282SOL    HW190905   0.906   8.500   4.568 -0.5770 -1.6789  0.4370
26282SOL    HW290906   0.878   8.438   4.420  1.9165 -0.1754 -0.7072
26283SOL     OW90907   1.683   0.069   0.083 -0.1373 -0.1515 -0.2514
26283SOL    HW190908   1.725   0.126   0.153  0.4359 -0.4120 -0.3783
26283SOL    HW290909   1.737  -0.015   0.072 -0.6551 -0.4592 -0.4603
26284SOL     OW90910   5.076   5.317   3.728 -0.3316 -0.3799  0.1190
26284SOL    HW190911   5.019   5.347   3.804  0.9298  0.1577  0.8690
26284SOL    HW290912   5.089   5.393   3.664 -0.8079 -0.6248 -0.2685
26285SOL     OW90913   2.935   8.504   3.802 -0.5303  0.2761 -0.2820
26285SOL    HW190914   2.990   8.521   3.719  0.9895  1.2402  0.8926
26285SOL    HW290915   2.915   8.407   3.809  1.7905 -0.2537 -0.3099
26286SOL     OW90916   5.248   1.670   1.115 -0.1312 -0.3092  0.4618
26286SOL    HW190917   5.316   1.612   1.159 -0.1618 -1.3696 -0.8661
26286SOL    HW290918   5.251   1.657   1.016 -0.4132  1.6561  0.1614
26287SOL     OW90919   1.386   9.844   3.565  0.9658 -0.0895 -0.4057
26287SOL    HW190920   1.326   9.922   3.549  0.9580 -0.0942 -0.3981
26287SOL    HW290921   1.337   9.773   3.615  0.7360 -0.4168 -1.0911
26288SOL     OW90922   1.387   0.608   6.153 -0.2971  0.1372 -0.1224
26288SOL    HW190923   1.424   0.673   6.087  1.0226 -1.2632 -0.7688
26288SOL    HW290924   1.288   0.598   6.138 -0.6333  2.3989  0.3617
26289SOL     OW90925   2.427   7.223   6.399 -0.3303  0.3872  0.1623
26289SOL    HW190926   2.366   7.160   6.447 -1.1478 -0.1166 -1.5101
26289SOL    HW290927   2.471   7.284   6.466  0.0128 -1.5329  1.7230
26290SOL     OW90928   9.250   2.966   3.349  0.3047  0.2119  0.5350
26290SOL    HW190929   9.297   3.049   3.319  1.2872 -0.9709 -1.3003
26290SOL    HW290930   9.171   2.991   3.406  0.1477  2.4140 -0.5876
26291SOL     OW90931   4.231   7.036   1.329 -0.3328  0.7082  0.3474
26291SOL    HW190932   4.329   7.049   1.311 -0.2674 -1.4972 -1.1384
26291SOL    HW290933   4.187   7.001   1.246 -1.9227 -0.6109  1.7292
26292SOL     OW90934   2.156   9.464   3.522 -0.0650  0.5968  0.0143
26292SOL    HW190935   2.121   9.410   3.599  0.1332 -0.5405 -0.6823
26292SOL    HW290936   2.255   9.457   3.519  0.0771  2.0530  0.6746
26293SOL     OW90937   8.156   8.923   6.344 -0.1818 -0.0508  0.0004
26293SOL    HW190938   8.110   8.842   6.380  0.4589 -0.5170 -0.2116
26293SOL    HW290939   8.255   8.909   6.348 -0.0004  1.6563  2.1069
26294SOL     OW90940   8.898   0.814   5.007 -0.0926  0.1127 -0.3087
26294SOL    HW190941   8.900   0.874   5.086 -0.1271  0.2656 -0.4253
26294SOL    HW290942   8.910   0.868   4.923  2.6836 -0.3388 -0.2559
26295SOL     OW90943   1.638   4.577   3.803  0.1283 -0.3179  0.1988
26295SOL    HW190944   1.665   4.630   3.883 -1.0346  1.0957 -0.3224
26295SOL    HW290945   1.694   4.605   3.724 -1.7862  1.5756 -0.5366
26296SOL     OW90946   8.920   2.585   8.063  0.1633 -0.0962  0.2338
26296SOL    HW190947   8.849   2.547   8.004  0.4218  2.2212 -1.6323
26296SOL    HW290948   8.975   2.650   8.012  2.6512 -0.6448  2.1000
26297SOL     OW90949   9.451   1.107   7.313 -0.0247  0.0779 -0.2375
26297SOL    HW190950   9.504   1.078   7.392 -1.1137 -1.6647 -0.1244
26297SOL    HW290951   9.355   1.082   7.326 -0.4077  0.7605 -1.6213
26298SOL     OW90952   4.509   4.676   1.861  0.0860 -0.5668  0.4044
26298SOL    HW190953   4.424   4.646   1.904 -0.2242  2.3857  1.9819
26298SOL    HW290954   4.582   4.677   1.930  0.8107 -0.7627 -0.3616
26299SOL     OW90955   0.656   3.227   5.494  0.6901 -0.7543  0.4717
26299SOL    HW190956   0.677   3.280   5.576  1.9178 -0.5771  0.0597
26299SOL    HW290957   0.576   3.170   5.510 -0.3782  0.8703  1.0885
26300SOL     OW90958   1.475   4.302   2.798  0.0545 -0.6732 -0.2558
26300SOL    HW190959   1.436   4.341   2.881  1.5731 -0.5610  0.4207
26300SOL    HW290960   1.420   4.223   2.770 -1.1161 -0.0373  0.2205
26301SOL     OW90961   4.568   1.614   4.740 -0.0382 -0.3101 -0.5828
26301SOL    HW190962   4.554   1.520   4.708  0.0086 -0.2498 -0.7848
26301SOL    HW290963   4.534   1.623   4.833  1.6341 -1.0254  0.1335
26302SOL     OW90964   1.315   1.986   8.996  0.1548  0.2694 -0.6150
26302SOL    HW190965   1.413   1.969   8.984  0.2178 -0.2138  0.5479
26302SOL    HW290966   1.268   1.899   9.012 -0.0225  0.8093  1.9262
26303SOL     OW90967   0.883   2.604   3.936  0.5043 -0.2746 -0.2507
26303SOL    HW190968   0.889   2.673   3.864  0.1396 -0.9811 -0.9733
26303SOL    HW290969   0.967   2.551   3.939  1.3346  1.1066  1.2450
26304SOL     OW90970   0.400   9.477   3.091  0.2710  0.7870 -0.0482
26304SOL    HW190971   0.366   9.537   3.163  1.3101  0.0793  1.0424
26304SOL    HW290972   0.495   9.453   3.109  0.0365 -0.7550 -0.7573
26305SOL     OW90973   4.319   6.009   8.917 -0.6340  0.0215  0.6678
26305SOL    HW190974   4.392   6.050   8.863  1.2677 -1.7594  1.8116
26305SOL    HW290975   4.241   5.989   8.858  0.8149 -0.4772 -1.1316
26306SOL     OW90976   0.826   4.687   2.905  0.2888  0.1781 -0.1176
26306SOL    HW190977   0.828   4.636   2.991  0.1999  0.0919 -0.1664
26306SOL    HW290978   0.903   4.657   2.847 -2.7059 -3.7515 -2.3371
26307SOL     OW90979   9.961   1.202   3.135  0.0835 -0.1788  0.6640
26307SOL    HW190980   9.923   1.219   3.226 -0.5131 -1.5564  0.6861
26307SOL    HW290981   9.981   1.105   3.126  0.6766  0.0476 -0.4829
26308SOL     OW90982   9.687   9.315   2.853 -0.6718 -0.3027  0.2166
26308SOL    HW190983   9.595   9.347   2.834 -0.1993  1.7725  1.2295
26308SOL    HW290984   9.740   9.389   2.894  0.7498 -2.1360  1.8259
26309SOL     OW90985   1.710   8.517   0.307  0.6216 -0.0802 -1.0884
26309SOL    HW190986   1.671   8.446   0.248  0.5980  0.1286 -1.3259
26309SOL    HW290987   1.679   8.503   0.401 -0.7658  0.6201 -1.4326
26310SOL     OW90988   9.135   6.662   7.429 -0.0470  0.2203 -0.5758
26310SOL    HW190989   9.209   6.725   7.403 -1.2522  1.3121 -1.3802
26310SOL    HW290990   9.080   6.703   7.502 -1.8636  0.8456 -2.2725
26311SOL     OW90991   8.169   0.907   2.874  0.4800  0.2171  0.0375
26311SOL    HW190992   8.241   0.839   2.886 -0.9041 -1.0051  1.6892
26311SOL    HW290993   8.082   0.868   2.902 -0.7391  1.9017 -1.2716
26312SOL     OW90994   9.153   6.777   3.527  0.1707 -0.4920 -0.4990
26312SOL    HW190995   9.226   6.841   3.503 -0.0309 -0.7058 -1.7206
26312SOL    HW290996   9.097   6.759   3.446 -2.5723  1.3466  0.9353
26313SOL     OW90997   0.989   6.515   2.343 -0.1762  0.0667 -0.4571
26313SOL    HW190998   1.006   6.424   2.380 -0.0552  0.2708 -0.0126
26313SOL    HW290999   0.988   6.582   2.417  1.3151  0.6563 -0.9604
26314SOL     OW91000   0.563   0.781   3.486  0.3399 -0.1869  0.1374
26314SOL    HW191001   0.653   0.805   3.449  0.9113  0.0358  1.6245
26314SOL    HW291002   0.560   0.804   3.583 -1.4200  0.0457  0.0483
26315SOL     OW91003   9.828   0.369   9.844  0.4791  0.3890 -0.0346
26315SOL    HW191004   9.782   0.383   9.757  0.7694  0.0944 -0.2353
26315SOL    HW291005   9.807   0.445   9.906 -0.0864  0.3698 -0.2049
26316SOL     OW91006   9.103   1.908   1.235  1.0289  0.0846  0.3692
26316SOL    HW191007   9.096   1.855   1.320  1.1336  1.3734  1.2002
26316SOL    HW291008   9.013   1.915   1.192  0.8758 -0.1325  0.6534
26317SOL     OW91009   1.417   6.921   3.545 -0.1077  0.3693  0.2473
26317SOL    HW191010   1.354   6.997   3.528  0.1340  0.9004  1.6191
26317SOL    HW291011   1.365   6.841   3.574 -0.2475  0.4528  0.2294
26318SOL     OW91012   8.216   9.389   8.957 -0.2701 -0.5216 -0.1996
26318SOL    HW191013   8.275   9.341   9.022 -1.3228 -0.6334  0.6994
26318SOL    HW291014   8.250   9.375   8.864  0.1569 -1.9882  0.1643
26319SOL     OW91015   1.183   8.836   7.962 -0.0268  0.1566 -0.3929
26319SOL    HW191016   1.243   8.914   7.941  0.9377 -1.1978 -2.8053
26319SOL    HW291017   1.231   8.751   7.944 -1.3641 -1.0201  1.4452
26320SOL     OW91018   8.657   3.380   8.949  0.2401 -0.3032 -0.2863
26320SOL    HW191019   8.679   3.476   8.929  1.4439 -1.1015 -3.0906
26320SOL    HW291020   8.573   3.356   8.900 -1.8646  0.1546  2.9680
26321SOL     OW91021   8.774   6.569   2.846  0.1501  0.1956  0.0333
26321SOL    HW191022   8.686   6.611   2.867 -0.8838 -2.2431  0.7664
26321SOL    HW291023   8.837   6.583   2.922 -0.7495 -1.0139  1.0363
26322SOL     OW91024   0.153   1.620   0.469  0.1087 -0.1140  0.1993
26322SOL    HW191025   0.054   1.626   0.481 -0.1341 -1.0015 -1.2981
26322SOL    HW291026   0.184   1.689   0.404  0.4885  0.2461  0.7611
26323SOL     OW91027   8.154   1.854   6.109 -0.2892 -0.2098  0.3837
26323SOL    HW191028   8.162   1.889   6.203  2.1624  1.0843 -0.2664
26323SOL    HW291029   8.185   1.924   6.045  0.7478 -2.1178 -1.2274
26324SOL     OW91030   9.425   0.626   3.213  0.0630 -0.6014  0.2253
26324SOL    HW191031   9.418   0.712   3.264  0.8282 -0.9855  0.9887
26324SOL    HW291032   9.512   0.624   3.163  0.1836 -1.0640  0.4573
26325SOL     OW91033   0.831   5.912   0.715  0.5236 -0.3807  0.8138
26325SOL    HW191034   0.893   5.951   0.647  0.2972 -0.8816  0.3154
26325SOL    HW291035   0.763   5.981   0.742  0.0706 -0.4503 -0.1342
26326SOL     OW91036   9.558   7.033   4.344  0.1148 -0.4555  0.1639
26326SOL    HW191037   9.584   6.983   4.261  0.2509 -0.5810  0.2798
26326SOL    HW291038   9.462   7.060   4.338  0.5101  0.8277 -0.6798
26327SOL     OW91039   4.319   8.321   6.641 -0.0143 -0.3181 -0.4018
26327SOL    HW191040   4.390   8.391   6.643  0.8998 -1.2282 -0.3432
26327SOL    HW291041   4.234   8.361   6.608  0.6723  0.6602 -1.0390
26328SOL     OW91042   1.347   1.330   8.994 -0.2948 -0.2092  0.4829
26328SOL    HW191043   1.319   1.321   9.089 -2.1742 -1.3597 -0.1498
26328SOL    HW291044   1.351   1.240   8.952 -0.7906  0.3942 -0.8905
26329SOL     OW91045   8.100   2.848   1.592  0.2336  0.1485  0.3598
26329SOL    HW191046   8.080   2.790   1.670 -0.1099 -0.3963 -0.1299
26329SOL    HW291047   8.016   2.894   1.562  0.3976  0.4893  0.4209
26330SOL     OW91048   8.764   8.597   4.802  0.2821 -0.0993 -0.0742
26330SOL    HW191049   8.861   8.589   4.825  0.6154  2.3591 -0.3987
26330SOL    HW291050   8.715   8.518   4.837  2.1702 -0.6788  1.3883
26331SOL     OW91051   4.556   2.060   7.960 -0.2300 -0.4620  0.4637
26331SOL    HW191052   4.532   2.089   8.053  2.2569 -0.2529  1.0856
26331SOL    HW291053   4.520   2.125   7.894 -2.2600 -0.7563  1.2631
26332SOL     OW91054   7.115   2.782   6.616  0.1601  0.0333  0.0145
26332SOL    HW191055   7.112   2.739   6.707  1.4863  0.3953  0.2407
26332SOL    HW291056   7.022   2.799   6.584 -0.3198  0.4851  1.5971
26333SOL     OW91057   0.101   0.950   6.199  0.5082 -0.7551 -0.5428
26333SOL    HW191058   0.071   0.941   6.294 -1.0379 -0.6151 -1.0003
26333SOL    HW291059   0.192   0.993   6.197  0.1967  0.0133  0.8291
26334SOL     OW91060   0.661   9.180   9.836 -0.0625  0.0646  0.3436
26334SOL    HW191061   0.614   9.159   9.921  2.0016 -0.0441  1.4904
26334SOL    HW291062   0.666   9.098   9.779 -1.4653  0.1425  0.0975
26335SOL     OW91063   3.344   9.788   0.620  0.2875 -0.4151 -0.7032
26335SOL    HW191064   3.347   9.824   0.713  1.7851 -0.3484 -0.7671
26335SOL    HW291065   3.392   9.850   0.558 -1.5015  0.0090 -1.6998
26336SOL     OW91066   6.076   8.185   5.342 -0.3417  0.1165  0.5444
26336SOL    HW191067   5.996   8.125   5.345  1.3600 -2.2156  1.3134
26336SOL    HW291068   6.129   8.173   5.426  2.1180 -0.3060 -1.0099
26337SOL     OW91069   9.949   8.383   8.435  0.4932  0.0631 -0.3741
26337SOL    HW191070   9.962   8.285   8.453 -0.6330  0.2507  1.6264
26337SOL    HW291071   9.910   8.427   8.516  1.4623  2.2842 -1.0796
26338SOL     OW91072   9.091   0.351   9.427 -0.4038  0.1526 -0.1461
26338SOL    HW191073   9.183   0.385   9.451  0.4957 -1.9559 -0.5266
26338SOL    HW291074   9.073   0.372   9.331 -1.1034  2.2307  0.4131
26339SOL     OW91075   7.981   9.570   5.918  0.2515 -0.1759 -0.4184
26339SOL    HW191076   8.006   9.664   5.897  1.4122 -0.7172 -1.5942
26339SOL    HW291077   7.965   9.560   6.016  1.0501  1.0382 -0.1563
26340SOL     OW91078   9.182   5.503   3.016 -0.6827 -0.3271 -0.7098
26340SOL    HW191079   9.203   5.601   3.012 -0.4917 -0.3536 -0.3268
26340SOL    HW291080   9.268   5.451   3.023 -0.7292 -0.5686 -1.8574
26341SOL     OW91081   2.263   2.449   4.611  0.4677  0.0069 -0.6273
26341SOL    HW191082   2.319   2.493   4.682  0.6193  0.4250 -1.0056
26341SOL    HW291083   2.286   2.488   4.522 -1.2009  0.9457 -0.6642
26342SOL     OW91084   5.861   7.692   3.951  0.4710  0.6835  0.2858
26342SOL    HW191085   5.783   7.713   3.892  1.0866  1.1003 -0.3836
26342SOL    HW291086   5.932   7.760   3.937  0.7238  0.6353  1.3306
26343SOL     OW91087   0.109   1.024   8.029  0.0570  0.3685  0.0488
26343SOL    HW191088   0.170   1.093   7.990  1.0237  0.7150  2.0919
26343SOL    HW291089   0.148   0.933   8.016  0.2237  0.4589 -0.0770
26344SOL     OW91090   9.160   2.932   4.038 -0.2407  0.3523 -0.4506
26344SOL    HW191091   9.232   2.996   4.011  0.2827 -0.6822 -1.6044
26344SOL    HW291092   9.144   2.867   3.963 -0.6858 -0.9249  0.7281
26345SOL     OW91093   4.132   5.531   7.443 -0.1664 -0.0753 -0.2660
26345SOL    HW191094   4.215   5.475   7.438 -0.9415 -1.4364  1.4684
26345SOL    HW291095   4.064   5.495   7.379  0.3516  0.6697 -1.2463
26346SOL     OW91096   0.060   5.235   4.633 -0.6081 -0.3078  0.1555
26346SOL    HW191097   0.098   5.308   4.576  0.1302  0.2016  1.2649
26346SOL    HW291098  -0.037   5.254   4.651 -0.8022 -0.3965 -0.8026
26347SOL     OW91099   9.362   5.577   6.862 -0.0884  0.3772 -0.4805
26347SOL    HW191100   9.368   5.495   6.805  1.2335 -0.2484  0.5474
26347SOL    HW291101   9.453   5.604   6.890 -0.7760  0.3643  1.8181
26348SOL     OW91102   2.666   3.082   3.578  0.2253  0.2421 -0.2609
26348SOL    HW191103   2.680   3.124   3.488  1.1343  0.6106  0.0435
26348SOL    HW291104   2.569   3.067   3.593 -0.1687  2.8236 -0.0890
26349SOL     OW91105   3.007   1.538   1.288 -0.0891 -0.4001 -0.1499
26349SOL    HW191106   3.020   1.636   1.306  2.7816 -0.8694  0.5787
26349SOL    HW291107   2.912   1.522   1.261 -1.2543  2.2214  2.0946
26350SOL     OW91108   3.739   4.927   2.444 -0.4268  0.3159  0.1055
26350SOL    HW191109   3.765   4.846   2.392 -0.6671 -0.3397  1.0070
26350SOL    HW291110   3.814   4.993   2.444  0.2648 -0.4778  0.5266
26351SOL     OW91111   0.731   1.944   7.740 -0.6647 -0.4039  0.3208
26351SOL    HW191112   0.770   1.958   7.831 -1.3930  0.8580  0.4481
26351SOL    HW291113   0.774   2.006   7.674 -0.8967 -0.5539  0.0235
26352SOL     OW91114   8.204   1.323   4.038  0.4871 -0.1526  0.8092
26352SOL    HW191115   8.290   1.281   4.011  1.4865  1.2424  1.6978
26352SOL    HW291116   8.151   1.348   3.957  1.0324 -0.8099  0.2543
26353SOL     OW91117   7.989   5.364   6.251  0.6998  0.2261  0.5822
26353SOL    HW191118   8.040   5.279   6.242 -1.5933 -0.9691 -1.7768
26353SOL    HW291119   7.895   5.344   6.280  0.3401  1.9819  0.6852
26354SOL     OW91120   8.108   0.815   4.752  0.0466 -0.0044 -0.4410
26354SOL    HW191121   8.091   0.725   4.792 -0.6332 -0.6234 -2.0540
26354SOL    HW291122   8.143   0.803   4.659  3.5382  1.3571  0.6468
26355SOL     OW91123   5.830   7.459   7.764 -0.3638  0.0204 -0.4429
26355SOL    HW191124   5.773   7.481   7.685  0.3679  0.6174 -0.8151
26355SOL    HW291125   5.831   7.361   7.779 -1.5026  0.0065 -0.4220
26356SOL     OW91126   8.217   0.470   4.572 -0.3823  0.0868  0.1670
26356SOL    HW191127   8.131   0.422   4.588  0.8093 -1.6646  1.5685
26356SOL    HW291128   8.270   0.422   4.501  0.1267  0.2074  0.4585
26357SOL     OW91129   9.701   2.845   9.777  0.0509 -0.2087 -0.1207
26357SOL    HW191130   9.726   2.762   9.827 -0.1380 -1.7581 -2.5318
26357SOL    HW291131   9.746   2.845   9.688 -0.8209  1.7626 -0.5926
26358SOL     OW91132   8.123   5.559   6.765 -0.1769 -0.0591  0.3699
26358SOL    HW191133   8.180   5.640   6.753 -0.2779  0.0469  0.6148
26358SOL    HW291134   8.094   5.525   6.675 -0.3153  0.3004  0.2783
26359SOL     OW91135   4.226   0.444   9.183  0.0500  0.4777  0.1019
26359SOL    HW191136   4.232   0.358   9.133  0.5376  0.8994 -0.5723
26359SOL    HW291137   4.276   0.437   9.270 -0.4361 -0.1132  0.3371
26360SOL     OW91138   0.181   0.928   5.578 -0.1287 -0.1199 -0.2840
26360SOL    HW191139   0.097   0.981   5.590  0.1878  0.0132  1.4239
26360SOL    HW291140   0.158   0.832   5.561 -0.6162 -0.7209  3.4022
26361SOL     OW91141   3.595   3.328   6.288 -0.2237  0.0674 -0.0879
26361SOL    HW191142   3.608   3.232   6.266 -0.7487  0.1602 -0.8433
26361SOL    HW291143   3.497   3.348   6.296 -0.1823  0.7930 -1.1759
26362SOL     OW91144   0.790   3.960   2.620 -0.2772  0.1766 -0.1274
26362SOL    HW191145   0.802   4.041   2.677 -1.0312 -0.1756  0.5516
26362SOL    HW291146   0.879   3.917   2.604 -0.1476 -0.3497  1.7572
26363SOL     OW91147   1.779   8.627   3.580  0.1233 -0.4358 -0.2115
26363SOL    HW191148   1.879   8.639   3.585 -0.0693  0.9162  0.6733
26363SOL    HW291149   1.742   8.689   3.510 -0.4427  1.3477  1.6398
26364SOL     OW91150   6.006   4.320   1.339 -0.0831  0.2679  0.2108
26364SOL    HW191151   6.073   4.368   1.396  0.0848 -0.2063  0.4109
26364SOL    HW291152   6.052   4.283   1.258  0.0797 -0.8274  0.7885
26365SOL     OW91153   8.652   3.502   1.487 -0.0602 -0.2736 -0.3547
26365SOL    HW191154   8.566   3.452   1.475  0.9592 -2.3455  0.6836
26365SOL    HW291155   8.706   3.497   1.403 -1.0585  1.3012 -1.1176
26366SOL     OW91156   2.191   4.087   6.143  0.4417  0.3907  0.0817
26366SOL    HW191157   2.170   4.182   6.121  1.2242  0.4411 -0.4618
26366SOL    HW291158   2.152   4.027   6.073 -0.4855  0.2674  0.6902
26367SOL     OW91159   1.914   7.486   7.680 -0.0177 -0.0423  0.2973
26367SOL    HW191160   1.989   7.480   7.614  0.9502 -0.9851  1.4589
26367SOL    HW291161   1.843   7.419   7.656  0.0486  0.0436 -0.1386
26368SOL     OW91162   0.766   2.986   5.835 -0.3962 -0.7328  0.2155
26368SOL    HW191163   0.836   2.915   5.826 -1.0776 -1.3412 -0.3790
26368SOL    HW291164   0.783   3.040   5.918  2.1931  0.7023 -1.1742
26369SOL     OW91165   6.026   3.538   3.882 -0.7410  0.1021 -0.9462
26369SOL    HW191166   6.086   3.511   3.958 -0.4321  0.3004 -1.1145
26369SOL    HW291167   5.979   3.457   3.847 -1.6337  0.1699  0.0921
26370SOL     OW91168   9.809   0.491   2.261 -0.3329 -0.3344 -0.3746
26370SOL    HW191169   9.802   0.462   2.357 -0.8561 -0.6257 -0.4957
26370SOL    HW291170   9.732   0.552   2.239 -0.0339 -0.0074 -0.5204
26371SOL     OW91171   9.705   1.813   5.889 -0.0540  0.4477  0.0319
26371SOL    HW191172   9.611   1.846   5.899 -0.2551 -0.2504  0.4718
26371SOL    HW291173   9.743   1.790   5.979  1.2569  2.6590  0.0805
26372SOL     OW91174   5.366   3.342   3.501 -0.2105 -0.0899  0.3765
26372SOL    HW191175   5.270   3.343   3.529 -0.3432 -1.7559  0.0385
26372SOL    HW291176   5.378   3.282   3.422  1.0971  0.1331  0.3870
26373SOL     OW91177   1.786   2.002   2.497  0.2913 -0.2768 -0.5869
26373SOL    HW191178   1.700   2.052   2.497  0.3662 -0.1505 -1.5517
26373SOL    HW291179   1.805   1.968   2.590 -1.2400 -1.0946 -0.5568
26374SOL     OW91180   7.280   9.409   4.649 -0.4240  0.4734  0.2093
26374SOL    HW191181   7.231   9.379   4.731 -0.0697  3.0595  1.4105
26374SOL    HW291182   7.219   9.400   4.570 -1.2393 -0.7117  0.9445
26375SOL     OW91183   9.493   9.807   0.437  0.0411 -0.0191 -0.4676
26375SOL    HW191184   9.562   9.815   0.364 -0.5873 -0.1659 -1.0869
26375SOL    HW291185   9.456   9.898   0.457  0.4027  0.0577 -0.1431
26376SOL     OW91186   1.383   0.982   0.569 -0.2097  0.0401 -0.0454
26376SOL    HW191187   1.293   1.006   0.534  0.0713  1.1173 -0.0558
26376SOL    HW291188   1.383   0.887   0.599 -1.0920 -0.2267 -0.8708
26377SOL     OW91189   0.361   0.134   5.053  0.0607 -0.1709 -0.1939
26377SOL    HW191190   0.428   0.205   5.074 -0.8741  0.6633  0.0594
26377SOL    HW291191   0.306   0.163   4.974  0.3016 -1.0508 -0.6866
26378SOL     OW91192   1.606   1.913   4.852 -0.2874 -0.3467 -0.4665
26378SOL    HW191193   1.549   1.878   4.778 -1.4229 -1.7657  1.0505
26378SOL    HW291194   1.604   2.013   4.852 -1.5515 -0.3676 -1.3702
26379SOL     OW91195   3.168   0.749   6.428  0.8428  0.1114  0.0933
26379SOL    HW191196   3.176   0.815   6.353  1.0077  1.2225  1.0813
26379SOL    HW291197   3.075   0.752   6.465  1.3034  0.9900  1.2169
26380SOL     OW91198   3.388   2.085   3.708 -0.8977  0.0452  0.2427
26380SOL    HW191199   3.316   2.148   3.736 -0.4918  1.3584 -1.5806
26380SOL    HW291200   3.352   2.022   3.639 -0.1426  1.2075 -1.2582
26381SOL     OW91201   9.992   1.876   6.877 -0.0033 -0.1073 -0.4930
26381SOL    HW191202  10.056   1.950   6.897 -0.7734  0.4189  0.0721
26381SOL    HW291203   9.996   1.808   6.949 -1.0641  0.6144  0.2745
26382SOL     OW91204   9.331   9.379   8.254 -0.2060  0.3182 -0.2320
26382SOL    HW191205   9.410   9.340   8.302 -2.2371 -0.9152  2.2870
26382SOL    HW291206   9.293   9.455   8.307 -2.2575 -0.8051 -0.0000
26383SOL     OW91207   4.959   5.291   4.582 -0.0259 -0.5336  0.1430
26383SOL    HW191208   4.954   5.390   4.592  1.2498 -0.4320 -0.1034
26383SOL    HW291209   4.971   5.249   4.672 -0.2329 -0.4484  0.2119
26384SOL     OW91210   1.901   3.004   8.080  0.0549 -0.2002 -0.1887
26384SOL    HW191211   1.875   3.032   8.172  0.1817 -1.6883  0.3176
26384SOL    HW291212   1.969   2.930   8.085  0.0372 -0.3233 -1.4652
26385SOL     OW91213   4.749   2.259   8.903  0.4058  0.1725  0.4908
26385SOL    HW191214   4.668   2.313   8.925  0.9734  1.1064  0.3433
26385SOL    HW291215   4.734   2.164   8.930 -1.4963 -0.0897 -1.3706
26386SOL     OW91216   8.116   9.881   6.673  0.6914 -0.1949  1.0739
26386SOL    HW191217   8.152   9.788   6.676  0.5844 -0.2203  1.6706
26386SOL    HW291218   8.192   9.946   6.663  0.6380 -0.4411 -1.3886
26387SOL     OW91219   0.459   7.561   7.879 -0.2734 -0.3845  0.1832
26387SOL    HW191220   0.397   7.486   7.858 -0.3322 -0.0907 -0.7009
26387SOL    HW291221   0.408   7.646   7.888 -0.1390 -0.3483  0.6248
26388SOL     OW91222   6.803   3.030   8.990  0.2607  0.3301  0.1316
26388SOL    HW191223   6.813   3.077   8.902 -0.5778  1.0416  0.4068
26388SOL    HW291224   6.862   3.073   9.058 -0.9172  1.3743  0.5229
26389SOL     OW91225   0.474   9.033   4.061 -0.1020 -0.4072  0.1510
26389SOL    HW191226   0.529   8.987   4.131  1.8313  0.8769 -0.4759
26389SOL    HW291227   0.387   8.985   4.051  0.6256 -2.1325  1.6150
26390SOL     OW91228   6.810   8.754   2.559 -0.0037  0.6947  0.2304
26390SOL    HW191229   6.746   8.745   2.635 -2.1432  1.0711 -1.4775
26390SOL    HW291230   6.832   8.851   2.546 -2.0150  0.9532 -1.4953
26391SOL     OW91231   4.556   3.988   8.234 -0.1863  0.0018  0.0891
26391SOL    HW191232   4.583   4.000   8.330  0.9737  0.3762 -0.2813
26391SOL    HW291233   4.545   4.077   8.191 -2.2107 -0.1348  0.2751
26392SOL     OW91234   7.785   0.444   4.299  0.3270 -0.4604  0.3137
26392SOL    HW191235   7.831   0.356   4.309  0.1295 -0.6738 -0.6130
26392SOL    HW291236   7.710   0.436   4.233 -0.0886  0.2478  0.6950
26393SOL     OW91237   7.918   3.591   7.213 -0.4252 -0.7265 -0.0432
26393SOL    HW191238   7.929   3.578   7.115 -0.0231 -1.1656  0.0595
26393SOL    HW291239   7.940   3.686   7.237 -0.4112 -0.6500 -0.3570
26394SOL     OW91240   1.535   0.174   8.536 -0.0013 -0.0080 -0.1369
26394SOL    HW191241   1.500   0.082   8.519  1.2748 -0.5301 -0.0177
26394SOL    HW291242   1.566   0.181   8.631 -0.8594  0.8082  0.0899
26395SOL     OW91243   7.950   1.483   5.733 -0.0764  0.4515 -0.1677
26395SOL    HW191244   7.858   1.476   5.693 -0.2351  0.7862  0.1303
26395SOL    HW291245   7.957   1.569   5.783 -0.1365 -0.3024  1.1645
26396SOL     OW91246   2.645   2.183   3.696 -0.3479  0.0196 -0.4385
26396SOL    HW191247   2.623   2.271   3.653  0.8335 -0.0224 -1.1748
26396SOL    HW291248   2.650   2.194   3.795 -0.7772  0.6496 -0.4826
26397SOL     OW91249   1.072   0.915   3.218 -0.0269 -0.1046  0.7999
26397SOL    HW191250   1.049   0.924   3.315 -2.8980 -1.5099  0.2822
26397SOL    HW291251   1.074   0.818   3.193  1.1130  0.2278 -0.4855
26398SOL     OW91252   0.470   5.681   4.564  0.0664  0.0615  0.2522
26398SOL    HW191253   0.434   5.609   4.623 -0.1573  0.3270  0.4398
26398SOL    HW291254   0.469   5.768   4.613  2.7324 -0.2525  0.9323
26399SOL     OW91255   3.785   5.195   6.767  0.1095  0.3516  0.2860
26399SOL    HW191256   3.777   5.103   6.729  0.2722 -0.1801  1.5068
26399SOL    HW291257   3.855   5.195   6.839  0.4752  1.5522 -0.0589
26400SOL     OW91258   9.025   7.605   6.011  0.5419 -0.5926 -0.1076
26400SOL    HW191259   8.993   7.544   5.939  0.7334  0.2517 -0.9261
26400SOL    HW291260   9.085   7.556   6.073 -0.7011 -1.6739  0.2574
26401SOL     OW91261   0.503   4.877   8.664 -0.0805  0.9347 -0.3165
26401SOL    HW191262   0.599   4.851   8.671 -0.1206  1.1115  0.9185
26401SOL    HW291263   0.496   4.975   8.649 -0.1108  1.1073  0.8481
26402SOL     OW91264   7.451   7.461   3.134 -0.0501  0.5286  0.4765
26402SOL    HW191265   7.494   7.377   3.101 -0.6629 -0.6515  2.6279
26402SOL    HW291266   7.426   7.518   3.055 -2.5661 -2.7061 -1.1781
26403SOL     OW91267   0.441   8.300   6.754 -0.3516 -0.6437 -0.1038
26403SOL    HW191268   0.471   8.298   6.658  0.4784  0.5750  0.1166
26403SOL    HW291269   0.348   8.266   6.761 -0.6095 -0.2204 -1.4175
26404SOL     OW91270   1.036   2.163   4.903 -0.5335  0.8107 -0.3706
26404SOL    HW191271   0.968   2.177   4.975 -1.6812  0.4924 -1.3808
26404SOL    HW291272   1.121   2.211   4.928 -0.0679 -1.2653  2.3162
26405SOL     OW91273   7.352   2.864   8.332 -0.2486 -0.1217 -0.0232
26405SOL    HW191274   7.260   2.876   8.294 -0.4292  1.2031  0.7910
26405SOL    HW291275   7.369   2.767   8.348 -1.0216 -0.4929 -1.3556
26406SOL     OW91276   9.766   2.383   8.701 -0.4309 -0.2064 -0.0456
26406SOL    HW191277   9.836   2.428   8.645  0.7067 -1.4718  0.3554
26406SOL    HW291278   9.726   2.307   8.649  0.2886 -1.0834  0.6815
26407SOL     OW91279   0.903   8.817   7.657  0.0478  0.2532  0.4379
26407SOL    HW191280   0.983   8.858   7.614 -0.1951  0.7377  0.4463
26407SOL    HW291281   0.878   8.733   7.609  0.9872 -0.2758  0.8691
26408SOL     OW91282   3.042   2.721   8.553  0.0718  0.6246 -0.4786
26408SOL    HW191283   2.989   2.747   8.634  1.8602  2.6442  0.0934
26408SOL    HW291284   3.004   2.765   8.472 -1.2996 -0.8413 -0.6503
26409SOL     OW91285   6.803   5.779   5.162 -0.6336 -0.0973 -0.3128
26409SOL    HW191286   6.836   5.762   5.069  1.2206 -0.0779  0.3119
26409SOL    HW291287   6.827   5.702   5.221  1.4730  1.4395  0.9463
26410SOL     OW91288   8.732   8.769   4.514 -0.0081  0.6430 -0.4255
26410SOL    HW191289   8.646   8.777   4.566 -1.3794 -3.3195 -1.8782
26410SOL    HW291290   8.807   8.753   4.578 -0.9538  0.4479  0.6637
26411SOL     OW91291   0.122   0.391   6.964  0.7641  0.4381  0.3011
26411SOL    HW191292   0.114   0.293   6.943  0.3769  0.3009  1.1075
26411SOL    HW291293   0.124   0.404   7.063  0.6042  1.2709  0.1939
26412SOL     OW91294   1.153   2.407   7.965 -0.5035 -0.1271  0.6363
26412SOL    HW191295   1.120   2.441   8.053  0.0467  1.0089  0.4200
26412SOL    HW291296   1.090   2.434   7.893 -0.4663 -0.2325  0.5647
26413SOL     OW91297   9.652   2.851   9.283  0.1848  0.0237  0.4403
26413SOL    HW191298   9.557   2.879   9.300  0.5269  1.2414  0.4150
26413SOL    HW291299   9.659   2.814   9.190  0.0827  1.6266 -0.2248
26414SOL     OW91300   7.441   3.184   7.519 -0.7066  0.2846  0.1660
26414SOL    HW191301   7.540   3.196   7.514 -0.6124 -0.6041 -0.1599
26414SOL    HW291302   7.407   3.148   7.432 -1.4258  1.3222  0.0072
26415SOL     OW91303   1.548   2.088   7.679  0.3191  0.5896 -0.8343
26415SOL    HW191304   1.467   2.141   7.704  0.3293  0.4455 -0.4865
26415SOL    HW291305   1.561   2.015   7.746  1.4917  1.4197 -0.1528
26416SOL     OW91306   2.459   6.346   3.143 -0.2020 -0.2018 -0.2846
26416SOL    HW191307   2.525   6.400   3.195 -0.5346 -0.5988  0.5509
26416SOL    HW291308   2.448   6.386   3.052  0.4419  0.4466 -0.0819
26417SOL     OW91309   9.195   0.934   4.321 -0.4488 -0.0595  0.0298
26417SOL    HW191310   9.208   1.033   4.318  0.2534 -0.1639 -0.5045
26417SOL    HW291311   9.256   0.894   4.389  0.0507 -0.2426 -0.5214
26418SOL     OW91312   4.642   3.834   6.070 -0.0632  0.4356  0.6186
26418SOL    HW191313   4.668   3.924   6.036 -0.0955  0.6015  1.0240
26418SOL    HW291314   4.636   3.837   6.170 -0.7873  0.1694  0.5847
26419SOL     OW91315   0.568   4.379   4.784  0.2821 -0.2822 -0.3796
26419SOL    HW191316   0.538   4.475   4.784  1.6969  0.1860 -2.4956
26419SOL    HW291317   0.629   4.363   4.861 -2.5775 -0.3778  1.9722
26420SOL     OW91318   2.472   7.249   6.753 -0.2601 -0.0704 -0.3980
26420SOL    HW191319   2.485   7.151   6.734 -2.4928 -0.5019  0.1651
26420SOL    HW291320   2.540   7.302   6.703  2.5135 -2.0618  1.1246
26421SOL     OW91321   9.420   4.966   8.128  0.1987 -0.8402 -0.0491
26421SOL    HW191322   9.431   4.984   8.226  0.5084 -0.9609 -0.0612
26421SOL    HW291323   9.495   4.908   8.096  0.5817 -0.0886 -0.5389
26422SOL     OW91324   8.456   1.996   4.980  0.0172 -0.2979 -0.2065
26422SOL    HW191325   8.516   2.073   4.956  0.0716 -0.7861 -1.6550
26422SOL    HW291326   8.362   2.017   4.954 -0.3371  0.1788  1.4268
26423SOL     OW91327   6.609   1.592   9.320 -0.1442  0.4196 -0.0074
26423SOL    HW191328   6.615   1.607   9.222 -0.8438 -0.5933 -0.2143
26423SOL    HW291329   6.668   1.657   9.368  2.8447 -1.2850 -1.2759
26424SOL     OW91330   6.477   2.983   4.131  0.1932 -0.0349 -0.0003
26424SOL    HW191331   6.467   2.883   4.129  1.9415 -0.2153 -0.3687
26424SOL    HW291332   6.504   3.016   4.041 -0.0033  0.7391  0.2210
26425SOL     OW91333   2.676   4.880   6.665  0.1460  0.2914 -0.0355
26425SOL    HW191334   2.637   4.951   6.724 -0.6616 -1.4092  1.5437
26425SOL    HW291335   2.774   4.870   6.686  0.2001  0.7467 -0.0638
26426SOL     OW91336   9.787   2.816   1.127 -0.0750  0.6762  0.1551
26426SOL    HW191337   9.718   2.824   1.199 -0.5369  1.3587 -0.3536
26426SOL    HW291338   9.745   2.835   1.039  0.4086 -0.5280 -0.3423
26427SOL     OW91339   3.599   2.721   9.150  0.8014  0.0805  0.7739
26427SOL    HW191340   3.551   2.656   9.209  0.5129 -0.9158 -0.5364
26427SOL    HW291341   3.697   2.703   9.154  0.6420 -1.0635 -0.3229
26428SOL     OW91342   7.152   1.587   9.796 -0.3081 -0.1594  0.0769
26428SOL    HW191343   7.095   1.506   9.814 -0.4332 -0.3864 -1.3112
26428SOL    HW291344   7.094   1.663   9.766 -0.2245  0.5484  1.6799
26429SOL     OW91345   1.943   3.908   1.445  0.6534  0.0164  0.3818
26429SOL    HW191346   1.892   3.976   1.392 -2.7206 -1.2698  1.8614
26429SOL    HW291347   2.011   3.955   1.501  1.7000  1.7123 -2.2124
26430SOL     OW91348   0.599   0.287   0.001 -0.0031 -0.0611  0.7448
26430SOL    HW191349   0.688   0.322  -0.028 -0.4625  0.7126  0.2385
26430SOL    HW291350   0.599   0.187  -0.005  0.8894 -0.0785  0.9264
26431SOL     OW91351   3.060   8.951   5.857  0.0117 -0.0841 -0.1706
26431SOL    HW191352   3.120   8.987   5.785 -0.8715  0.7905 -0.4923
26431SOL    HW291353   3.098   8.866   5.893  1.9356  0.9531  0.3163
26432SOL     OW91354   7.242   1.591   5.767  0.4161 -0.6433  0.3094
26432SOL    HW191355   7.224   1.498   5.737  0.2579 -0.0902 -1.3189
26432SOL    HW291356   7.221   1.655   5.694  1.2847  0.6206  1.1426
26433SOL     OW91357   9.867   8.660   6.410  0.7391  0.5325  0.0303
26433SOL    HW191358   9.873   8.725   6.485  1.2277 -1.0908  1.4386
26433SOL    HW291359   9.780   8.671   6.362  0.4294  1.5923  0.8238
26434SOL     OW91360   2.144   9.606   7.519 -0.3554 -0.6054 -0.7753
26434SOL    HW191361   2.114   9.536   7.454  0.6524  0.3238 -2.2867
26434SOL    HW291362   2.243   9.619   7.510  0.0233 -1.3905  1.8947
26435SOL     OW91363   7.306   1.289   0.384  0.1279  0.1094 -0.2143
26435SOL    HW191364   7.255   1.366   0.345  0.4097  0.3700 -0.0634
26435SOL    HW291365   7.241   1.220   0.416 -0.0989 -0.3343 -1.6000
26436SOL     OW91366   1.310   9.181   7.707 -0.1494 -0.3400 -0.5078
26436SOL    HW191367   1.403   9.205   7.680  0.5310 -2.8969 -0.6451
26436SOL    HW291368   1.313   9.116   7.783 -1.9218  1.8764  1.5108
26437SOL     OW91369   2.107   5.264   0.879  0.3234  0.5397 -0.0410
26437SOL    HW191370   2.099   5.173   0.919  0.2695  0.0789 -1.0918
26437SOL    HW291371   2.050   5.328   0.931 -0.7376 -0.3052 -0.1589
26438SOL     OW91372   9.642   9.812   1.609  0.7165  0.1096 -0.2678
26438SOL    HW191373   9.687   9.734   1.567 -0.6617 -0.4917 -0.6725
26438SOL    HW291374   9.575   9.851   1.545  0.6316  0.9595  0.3214
26439SOL     OW91375   9.016   0.144   4.571 -0.2752 -0.2163  0.1586
26439SOL    HW191376   8.999   0.070   4.636  0.6183 -0.1507  0.4846
26439SOL    HW291377   9.115   0.153   4.556 -0.3943  0.6873 -0.1340
26440SOL     OW91378   7.426   7.604   6.376  0.3951 -0.3380 -0.2886
26440SOL    HW191379   7.496   7.673   6.358 -0.0804 -0.1989 -1.6891
26440SOL    HW291380   7.421   7.541   6.299 -0.7046 -0.6132  0.0031
26441SOL     OW91381   1.253   6.928   3.882  0.7915 -0.0793 -0.0886
26441SOL    HW191382   1.308   6.971   3.954  0.1409 -1.0213  0.9901
26441SOL    HW291383   1.307   6.857   3.838  1.0350  0.1903 -0.2312
26442SOL     OW91384   7.720   7.973   8.338 -0.3507 -0.3139 -0.4623
26442SOL    HW191385   7.770   7.997   8.255  1.9276 -3.1917 -0.0392
26442SOL    HW291386   7.772   8.003   8.418 -0.3085 -1.4648 -0.0410
26443SOL     OW91387   5.037   2.060   6.593  0.3456  0.7868  0.3461
26443SOL    HW191388   5.077   2.106   6.513  0.5963  1.9039  1.0906
26443SOL    HW291389   5.108   2.013   6.644 -0.1384 -1.7807 -1.2527
26444SOL     OW91390   1.057   4.419   3.634  0.1913 -0.4654  0.0069
26444SOL    HW191391   1.141   4.472   3.620  1.2245 -1.7314  1.2315
26444SOL    HW291392   1.025   4.432   3.728  0.6418 -2.2655  0.4180
26445SOL     OW91393   1.132   8.973   6.204  0.2693  0.1647 -0.6643
26445SOL    HW191394   1.226   8.972   6.170  0.6993  0.9484  0.4626
26445SOL    HW291395   1.073   8.923   6.141  2.2814 -4.5810  0.9608
26446SOL     OW91396   1.637   9.903   4.538  0.2674  0.0969  0.4483
26446SOL    HW191397   1.607   9.822   4.488 -0.7863  0.7255  0.0438
26446SOL    HW291398   1.672   9.971   4.474 -1.5523  1.1037  0.4914
26447SOL     OW91399   1.621   0.579   5.109  0.2695  0.5077  0.4193
26447SOL    HW191400   1.557   0.636   5.057 -0.3371  0.6924  1.3599
26447SOL    HW291401   1.660   0.632   5.183 -0.0445 -0.2074  1.1002
26448SOL     OW91402   1.860   3.601   2.013  0.4884 -0.0355  0.1418
26448SOL    HW191403   1.841   3.689   1.969 -0.4988 -0.8952 -1.2034
26448SOL    HW291404   1.949   3.605   2.059 -0.5813  2.3774  2.0704
26449SOL     OW91405   2.560   4.917   0.090 -0.5456  0.3480  0.0222
26449SOL    HW191406   2.626   4.887   0.160 -3.0939 -1.1874  1.8508
26449SOL    HW291407   2.554   5.016   0.090  1.2979  0.4835  0.2575
26450SOL     OW91408   7.014   8.875   8.876 -0.2139 -0.0277  0.0698
26450SOL    HW191409   7.008   8.776   8.882 -1.9963  0.1771  2.2985
26450SOL    HW291410   7.095   8.907   8.925 -0.7489 -0.2396  1.0922
26451SOL     OW91411   0.686   1.144   6.344  0.1042 -0.5461 -0.2217
26451SOL    HW191412   0.658   1.068   6.285 -1.0895  0.1099 -0.5158
26451SOL    HW291413   0.784   1.160   6.334  0.2051 -1.5170 -0.7798
26452SOL     OW91414   5.608   5.192   1.389 -0.1308  0.2800  0.3447
26452SOL    HW191415   5.523   5.240   1.365 -0.3807 -0.5757 -0.5096
26452SOL    HW291416   5.592   5.130   1.465 -0.1168  0.6040  0.6110
26453SOL     OW91417   2.060   5.429   5.111  0.1387  0.3351  0.2926
26453SOL    HW191418   2.138   5.492   5.112  1.3915 -1.1728  1.2071
26453SOL    HW291419   2.083   5.348   5.164 -2.4673  0.3114  1.4704
26454SOL     OW91420   6.494   3.695   8.282 -0.0756  0.0790  0.0429
26454SOL    HW191421   6.409   3.643   8.279 -0.0545 -0.0008  0.6422
26454SOL    HW291422   6.536   3.684   8.373 -0.7010  2.1349  0.5967
26455SOL     OW91423   4.496   0.305   1.630  0.5623 -0.4515  0.0152
26455SOL    HW191424   4.438   0.380   1.662  1.0470  0.3799 -1.0707
26455SOL    HW291425   4.444   0.248   1.566  0.8008  0.0177 -0.5894
26456SOL     OW91426   9.582   0.197   5.739  0.7312 -0.5163 -0.1093
26456SOL    HW191427   9.519   0.271   5.761  0.3696 -0.8938  0.1545
26456SOL    HW291428   9.624   0.213   5.650  0.8739  0.1500  0.0814
26457SOL     OW91429   2.123   0.572   8.001 -0.1070  0.2289 -0.0812
26457SOL    HW191430   2.141   0.486   7.955  0.9687 -0.4935  1.6467
26457SOL    HW291431   2.182   0.643   7.963 -0.4990  0.0609 -1.0214
26458SOL     OW91432   3.228   3.074   0.071 -0.5647  0.6703  0.4631
26458SOL    HW191433   3.241   3.164   0.031  4.0769  0.8978  2.1091
26458SOL    HW291434   3.296   3.011   0.033 -3.0363 -1.9190  0.1374
26459SOL     OW91435   7.355   0.494   4.579  0.2055 -0.2142 -0.1284
26459SOL    HW191436   7.340   0.450   4.668  0.2826 -1.0927 -0.5498
26459SOL    HW291437   7.277   0.554   4.558 -0.7262 -1.4903 -0.3541
26460SOL     OW91438   7.924   3.685   8.758  1.0071  0.3345  0.1842
26460SOL    HW191439   7.854   3.726   8.700  0.2302 -0.6561  0.3966
26460SOL    HW291440   7.929   3.735   8.844 -0.3780 -0.3660  0.7003
26461SOL     OW91441   9.766   0.642   8.753 -0.2773 -0.6753 -0.4340
26461SOL    HW191442   9.789   0.738   8.735 -1.3905 -0.5368 -1.1624
26461SOL    HW291443   9.850   0.587   8.751  0.3618  0.2719 -0.0331
26462SOL     OW91444   9.773   0.349   6.836 -0.5464 -0.1573  0.3479
26462SOL    HW191445   9.813   0.381   6.922  1.0049  1.7336 -1.0396
26462SOL    HW291446   9.822   0.390   6.759 -1.4636 -2.3548 -1.4659
26463SOL     OW91447   2.201   7.577   7.055  0.5766 -0.1776 -0.1983
26463SOL    HW191448   2.103   7.581   7.036  0.6781  0.5807 -0.5755
26463SOL    HW291449   2.242   7.667   7.039  0.8995  0.1546  2.3312
26464SOL     OW91450   4.908   4.813   3.847  0.2890  0.0297  0.5958
26464SOL    HW191451   4.827   4.797   3.790  1.7977 -1.4896 -1.2039
26464SOL    HW291452   4.897   4.766   3.935 -0.7433 -0.2410  0.3204
26465SOL     OW91453   0.515   7.969   3.643 -0.6879 -0.3448  0.5655
26465SOL    HW191454   0.577   8.014   3.708 -0.6327 -0.6756  0.7441
26465SOL    HW291455   0.421   7.997   3.663 -0.7124 -0.7484  1.0430
26466SOL     OW91456   3.049   8.249   0.557 -0.5818  0.3507  0.0631
26466SOL    HW191457   2.971   8.205   0.600 -0.6189 -0.2871 -0.6476
26466SOL    HW291458   3.126   8.252   0.621 -0.4331 -1.1549 -0.0324
26467SOL     OW91459   1.040   1.565   2.478  0.1130 -0.5503  0.0117
26467SOL    HW191460   0.972   1.587   2.408  0.0321 -0.3226  0.1613
26467SOL    HW291461   1.128   1.548   2.434  0.3976  1.0151 -0.0303
26468SOL     OW91462   1.818   7.893   8.460  0.2372  0.8722 -0.1364
26468SOL    HW191463   1.828   7.795   8.444  0.7780  1.4053 -3.5345
26468SOL    HW291464   1.722   7.915   8.474 -0.0423  0.0259 -0.6989
26469SOL     OW91465   1.769   0.745   9.921  0.9113  0.1166 -0.6441
26469SOL    HW191466   1.838   0.780   9.858  0.2404  0.7556 -1.0290
26469SOL    HW291467   1.780   0.789  10.011 -1.3068  3.0507 -1.7176
26470SOL     OW91468   6.939   3.388   8.994  0.5182  0.4587  0.4556
26470SOL    HW191469   6.940   3.320   9.067  1.4238 -0.7176 -0.6248
26470SOL    HW291470   6.917   3.478   9.032 -4.6556 -1.0350  1.3722
26471SOL     OW91471   2.171   2.937   6.572 -0.0916 -0.0402  0.2761
26471SOL    HW191472   2.240   2.870   6.542  0.0745  1.2465 -2.2764
26471SOL    HW291473   2.082   2.912   6.535 -0.3495  0.2264  0.7175
26472SOL     OW91474   8.873   3.366   2.416  0.0691 -0.3590 -0.2804
26472SOL    HW191475   8.970   3.342   2.414 -0.1556 -1.3795  0.6048
26472SOL    HW291476   8.862   3.465   2.402  1.1558 -0.4054 -1.5747
26473SOL     OW91477   9.198   9.482   7.606 -0.5348  0.2967 -0.0862
26473SOL    HW191478   9.154   9.397   7.579 -0.6781 -0.0960  1.3336
26473SOL    HW291479   9.132   9.557   7.604 -0.5264  0.2813 -0.8662
26474SOL     OW91480   8.246   2.622   1.898  0.2290 -0.2131 -0.3465
26474SOL    HW191481   8.248   2.578   1.988  0.8104 -1.5275 -0.9855
26474SOL    HW291482   8.326   2.681   1.889  1.3316 -1.7586 -0.8127
26475SOL     OW91483   1.237   9.793   5.167  0.2952  0.0503  0.0363
26475SOL    HW191484   1.139   9.786   5.146  0.4242 -2.6599  0.1758
26475SOL    HW291485   1.287   9.815   5.083 -0.2746 -0.2003 -0.3780
26476SOL     OW91486   7.341   9.910   9.842  0.2484  0.1698  0.3092
26476SOL    HW191487   7.281   9.980   9.804 -1.1900 -1.0088  0.3628
26476SOL    HW291488   7.392   9.867   9.768  1.1498  1.2859  0.2800
26477SOL     OW91489   8.696   5.578   5.280  1.0414  0.1239  0.5658
26477SOL    HW191490   8.678   5.674   5.261 -2.5841 -0.6680 -0.3590
26477SOL    HW291491   8.646   5.551   5.363  1.3555 -1.1843  0.3364
26478SOL     OW91492   0.138   1.547   2.162  0.0448 -0.1144  0.0597
26478SOL    HW191493   0.180   1.632   2.132 -0.9518  0.1029 -0.7521
26478SOL    HW291494   0.056   1.568   2.215 -0.0043 -0.5630  0.1611
26479SOL     OW91495   0.475   4.645   5.798  0.1240  0.1418  0.2891
26479SOL    HW191496   0.539   4.721   5.799  0.7898 -0.4038 -0.2449
26479SOL    HW291497   0.493   4.585   5.876 -0.5472  0.6430  0.8387
26480SOL     OW91498   2.658   3.431   0.929 -0.1751  0.0939  0.1186
26480SOL    HW191499   2.666   3.501   0.859 -2.0970  1.5577  1.3389
26480SOL    HW291500   2.729   3.362   0.915 -0.4864  0.3999 -3.1815
26481SOL     OW91501   3.153   2.688   7.816  0.1671  0.0520 -0.1139
26481SOL    HW191502   3.135   2.775   7.861 -0.9221  0.0004 -0.4313
26481SOL    HW291503   3.223   2.700   7.746 -0.9326  0.9678 -1.0734
26482SOL     OW91504   2.229   3.672   4.556  0.7913 -0.1505 -0.4864
26482SOL    HW191505   2.199   3.702   4.647  0.8281  0.3873 -0.6444
26482SOL    HW291506   2.292   3.595   4.565 -0.6276 -1.2991 -0.1496
26483SOL     OW91507   0.356   1.501   2.340 -0.8408  0.3960  0.3149
26483SOL    HW191508   0.435   1.460   2.295 -1.1575 -0.3527  0.4423
26483SOL    HW291509   0.283   1.515   2.273 -1.6344 -1.5335  0.7698
26484SOL     OW91510   9.074   3.291   3.974 -0.1183 -0.3258  0.1215
26484SOL    HW191511   9.104   3.384   3.996 -1.5588 -0.4334  2.8134
26484SOL    HW291512   8.995   3.296   3.912 -1.8956  0.4267  2.3405
26485SOL     OW91513   0.030   1.743   0.142 -0.2720 -0.1785  0.0492
26485SOL    HW191514   0.117   1.777   0.179  0.0037 -0.0273 -0.7335
26485SOL    HW291515  -0.040   1.814   0.152  0.2617  0.5853 -1.4236
26486SOL     OW91516   1.518   3.198   3.250  0.1424  0.3106  0.1305
26486SOL    HW191517   1.606   3.230   3.216 -0.9740  1.5898 -1.6511
26486SOL    HW291518   1.450   3.203   3.176 -1.7875  0.8575  1.8953
26487SOL     OW91519   0.246   2.558   0.114 -0.0304 -0.6585 -0.5391
26487SOL    HW191520   0.221   2.655   0.107 -1.3888 -0.9170  0.6160
26487SOL    HW291521   0.258   2.520   0.022 -0.3591  0.3761 -1.0173
26488SOL     OW91522   0.387   8.539   2.447  0.3052  0.4805  0.6430
26488SOL    HW191523   0.334   8.507   2.368  1.3785  0.4546 -0.0804
26488SOL    HW291524   0.403   8.637   2.439  1.4778  0.2624  0.1747
26489SOL     OW91525   6.425   3.598   7.832 -1.2862 -0.2616  0.1092
26489SOL    HW191526   6.473   3.579   7.918 -2.3136 -0.5228  0.6287
26489SOL    HW291527   6.461   3.682   7.792  0.0029 -0.7647  0.2043
26490SOL     OW91528   9.703   8.879   5.699 -0.3958 -0.7942  0.1896
26490SOL    HW191529   9.762   8.825   5.639  1.6322  0.3598  1.1211
26490SOL    HW291530   9.684   8.828   5.783  0.4422 -0.5838  0.5041
26491SOL     OW91531   8.997   2.526   1.756 -0.1070 -0.1679  0.3656
26491SOL    HW191532   8.972   2.429   1.752  0.2608 -0.2355 -0.3809
26491SOL    HW291533   9.010   2.561   1.663  2.3088 -0.0820  0.7106
26492SOL     OW91534   3.443   3.220   5.780 -0.1562 -0.3410  0.1047
26492SOL    HW191535   3.432   3.303   5.834 -2.8856 -0.9076  0.4938
26492SOL    HW291536   3.527   3.172   5.809  1.0461  1.8648  0.3695
26493SOL     OW91537   0.933   7.814   7.346  0.0019 -0.5724 -0.0014
26493SOL    HW191538   0.874   7.880   7.299 -0.4404 -0.5852  0.5388
26493SOL    HW291539   0.977   7.755   7.278  0.5822  0.4280 -0.4972
26494SOL     OW91540   9.296   1.951   8.141  0.0575  0.0668  0.3203
26494SOL    HW191541   9.225   2.022   8.147  1.7829  1.7689  0.9729
26494SOL    HW291542   9.305   1.907   8.230 -0.8214 -0.8021 -0.0124
26495SOL     OW91543   9.812   7.860   0.421  0.6186  0.1255 -0.2524
26495SOL    HW191544   9.856   7.899   0.502 -3.7269  2.5009  1.1493
26495SOL    HW291545   9.823   7.760   0.422  1.8983  0.2416  2.5108
26496SOL     OW91546   1.997   3.043   9.229 -0.1642 -0.9354  0.5211
26496SOL    HW191547   1.920   3.101   9.257  0.4508  0.1665 -0.0342
26496SOL    HW291548   2.056   3.027   9.308  0.7220  0.8601  0.2584
26497SOL     OW91549   7.728   3.967   6.478 -0.1632  0.1228 -0.1665
26497SOL    HW191550   7.771   4.042   6.428  1.0077  0.1401  0.8491
26497SOL    HW291551   7.782   3.884   6.466 -0.9269 -0.3377 -0.4910
26498SOL     OW91552   7.655   1.678   0.025  0.3607  0.2506  1.0269
26498SOL    HW191553   7.556   1.688   0.008  0.4965 -1.3649 -0.9580
26498SOL    HW291554   7.703   1.752  -0.021  0.2843 -0.7945 -0.7793
26499SOL     OW91555   4.990   3.005   0.836 -0.2866 -0.5272 -0.3861
26499SOL    HW191556   4.921   3.069   0.869  0.0301  0.0131 -0.7733
26499SOL    HW291557   4.962   2.967   0.748  1.4582  2.2485 -2.2201
26500SOL     OW91558   7.773   1.217   5.646 -0.3750  0.2778 -0.2894
26500SOL    HW191559   7.862   1.212   5.690 -0.7737  1.3866  0.6756
26500SOL    HW291560   7.724   1.131   5.660  0.0343  0.1370  0.2803
26501SOL     OW91561   7.132   3.385   3.482  0.4138  0.2644 -0.0782
26501SOL    HW191562   7.209   3.445   3.502  1.4086 -1.4946  1.6287
26501SOL    HW291563   7.158   3.320   3.411  1.1016 -1.3120  1.5488
26502SOL     OW91564   0.464   0.319   7.195  0.2157  0.4002  0.0774
26502SOL    HW191565   0.398   0.257   7.153 -2.0520  2.4886  0.4189
26502SOL    HW291566   0.514   0.271   7.268 -2.4977 -0.6218  1.3126
26503SOL     OW91567   1.215   4.541   1.794 -0.1125 -0.2895  0.1120
26503SOL    HW191568   1.240   4.582   1.882  0.3459 -0.5740  0.1139
26503SOL    HW291569   1.119   4.511   1.798 -1.0814  2.5415 -0.5392
26504SOL     OW91570   0.952   4.470   2.329  0.0501 -0.3390  0.0682
26504SOL    HW191571   0.870   4.442   2.280 -0.6600 -1.6542  1.9259
26504SOL    HW291572   0.927   4.497   2.422  1.7373 -0.9130  0.7029
26505SOL     OW91573   4.943   4.487   0.105 -0.2766  0.5419  0.2322
26505SOL    HW191574   4.919   4.416   0.172 -0.6197  2.3273  2.0525
26505SOL    HW291575   5.017   4.454   0.047  0.1863 -0.9634  1.6458
26506SOL     OW91576   8.287   7.766   8.582  0.5454  0.5044 -0.3544
26506SOL    HW191577   8.361   7.834   8.582  1.0592 -0.0314 -1.5565
26506SOL    HW291578   8.309   7.693   8.517 -0.6871 -0.0545 -0.1616
26507SOL     OW91579   7.194   8.441   9.180 -0.3106 -0.0088  0.6081
26507SOL    HW191580   7.160   8.524   9.135 -0.3653 -0.5971 -0.4376
26507SOL    HW291581   7.174   8.447   9.278 -1.7706  0.4912  0.2954
26508SOL     OW91582   8.087   0.640   2.395  0.0826 -0.8212  0.1155
26508SOL    HW191583   8.174   0.639   2.346  1.1579 -0.1996  1.9493
26508SOL    HW291584   8.079   0.725   2.447 -2.8052  0.3324 -2.0388
26509SOL     OW91585   1.978   2.500   2.343  0.4070  0.2769 -0.0256
26509SOL    HW191586   1.971   2.400   2.337 -0.5793  0.3851 -0.8527
26509SOL    HW291587   2.001   2.525   2.437 -0.5746 -0.6837  0.4978
26510SOL     OW91588   0.843   2.671   4.203  0.4920 -0.5749 -0.1211
26510SOL    HW191589   0.860   2.649   4.107 -2.4379 -1.1404 -0.5627
26510SOL    HW291590   0.744   2.673   4.220  0.8716  2.0748  2.2900
26511SOL     OW91591   1.629   6.108   7.835 -0.0702 -0.0681  0.2881
26511SOL    HW191592   1.689   6.056   7.896  1.3434  1.7281  0.4920
26511SOL    HW291593   1.547   6.137   7.885 -0.0072 -0.5567  0.6771
26512SOL     OW91594   8.232   3.481   7.204 -0.0291 -0.1769 -0.5179
26512SOL    HW191595   8.248   3.462   7.301 -0.6671  1.2795 -0.0987
26512SOL    HW291596   8.158   3.548   7.196  0.1634 -0.1326 -2.0114
26513SOL     OW91597   1.119   6.547   8.095 -0.0891  0.4533 -0.3030
26513SOL    HW191598   1.037   6.574   8.145  0.2408  0.3507  0.2939
26513SOL    HW291599   1.151   6.623   8.039 -1.4894  0.0088 -1.7529
26514SOL     OW91600   9.025   1.894   1.830 -0.2384  0.1651  0.2337
26514SOL    HW191601   9.057   1.809   1.872  0.4522 -0.1760 -0.9644
26514SOL    HW291602   9.104   1.951   1.807 -0.5652  0.0650 -1.1932
26515SOL     OW91603   1.165   0.291   1.235  0.4140  0.1601 -0.3354
26515SOL    HW191604   1.155   0.277   1.334  1.5470  2.0404  0.0698
26515SOL    HW291605   1.207   0.211   1.194 -2.0444 -1.5492  0.3304
26516SOL     OW91606   9.299   7.988   8.993  0.2972 -0.7713 -0.0919
26516SOL    HW191607   9.251   8.049   9.056  2.4803  0.5614  0.3506
26516SOL    HW291608   9.233   7.940   8.935 -1.5733  0.3124  1.0987
26517SOL     OW91609   3.692   9.312   7.581  0.0231  0.1592  0.1924
26517SOL    HW191610   3.768   9.250   7.601  0.0005  0.0014 -0.1933
26517SOL    HW291611   3.633   9.271   7.511 -0.2753  0.3930  0.3049
26518SOL     OW91612   4.754   1.817   2.082  0.0952 -0.2068  0.3908
26518SOL    HW191613   4.743   1.863   1.995 -0.0529  0.4022  0.7326
26518SOL    HW291614   4.803   1.730   2.068 -0.5974 -0.4733 -0.3934
26519SOL     OW91615   7.789   3.252   6.417 -0.0348 -0.2248 -0.2367
26519SOL    HW191616   7.775   3.187   6.343  0.8279  0.5412 -1.0830
26519SOL    HW291617   7.771   3.345   6.385 -0.3586  0.0506  0.7105
26520SOL     OW91618   9.979   3.148   3.262 -0.0150  0.0825 -0.5022
26520SOL    HW191619   9.897   3.128   3.208  0.2182  0.1802 -0.8953
26520SOL    HW291620  10.004   3.068   3.316  0.0607 -0.1988 -0.9516
26521SOL     OW91621   2.378   8.989   0.370  0.4552  0.0617  0.0182
26521SOL    HW191622   2.314   8.991   0.294  0.5738 -1.3994 -0.1386
26521SOL    HW291623   2.339   9.037   0.449 -0.6783 -0.5158 -0.1919
26522SOL     OW91624   5.405   7.797   0.510  0.6531  0.0730  0.1101
26522SOL    HW191625   5.485   7.773   0.565  0.1149 -0.7568  0.5438
26522SOL    HW291626   5.356   7.714   0.484  0.7043  0.4846 -1.3440
26523SOL     OW91627   5.694   3.918   0.863  0.3008  0.3469 -0.1850
26523SOL    HW191628   5.627   3.849   0.833  0.0664  0.5692 -0.1696
26523SOL    HW291629   5.705   3.912   0.962  0.5400  0.0964 -0.2273
26524SOL     OW91630   9.800   2.737   9.510  0.1972  0.0494  0.0727
26524SOL    HW191631   9.724   2.679   9.538  0.5575 -0.1395  0.6508
26524SOL    HW291632   9.775   2.786   9.426  0.0401 -1.2241 -0.6251
26525SOL     OW91633   6.466   3.236   3.268 -0.3080 -0.2843 -0.7399
26525SOL    HW191634   6.398   3.309   3.264  0.1309  0.1817  0.1571
26525SOL    HW291635   6.433   3.156   3.218 -2.4255 -0.8281  1.4479
26526SOL     OW91636   0.583   3.258   1.053 -0.9067 -0.0538  0.1036
26526SOL    HW191637   0.525   3.254   0.971  0.9190 -0.1699 -1.2002
26526SOL    HW291638   0.631   3.345   1.055  1.1863 -1.1732 -0.4345
26527SOL     OW91639   4.429   8.292   8.141 -0.0081 -0.3097  0.3686
26527SOL    HW191640   4.373   8.356   8.088 -0.0878 -0.8837 -0.2497
26527SOL    HW291641   4.424   8.201   8.099 -0.3150 -0.8438  1.5449
26528SOL     OW91642   2.914   8.747   9.246  0.5041 -0.2485  0.1043
26528SOL    HW191643   2.881   8.660   9.281 -1.3479  0.8188  1.0571
26528SOL    HW291644   2.844   8.789   9.188  1.1959  0.8480  0.0404
26529SOL     OW91645   6.712   4.629   0.637 -0.2746  0.0243 -0.1837
26529SOL    HW191646   6.754   4.577   0.711  0.3108  0.8892  0.1012
26529SOL    HW291647   6.704   4.572   0.556  3.0754  0.3267 -0.7907
26530SOL     OW91648   9.841   5.560   6.682 -0.4736  0.4013 -0.0539
26530SOL    HW191649   9.825   5.644   6.631 -0.4223  1.2404  1.2837
26530SOL    HW291650   9.918   5.511   6.642 -2.0538 -0.2746 -2.3699
26531SOL     OW91651   0.890   0.248   8.046  0.1652  0.3133 -0.0452
26531SOL    HW191652   0.827   0.173   8.029 -0.6325  0.9873 -0.1205
26531SOL    HW291653   0.961   0.248   7.976 -1.4026  1.2723 -1.6804
26532SOL     OW91654   0.927   4.718   1.250 -0.0446  0.1574  0.4997
26532SOL    HW191655   0.891   4.764   1.331 -0.5120 -0.4580  0.6497
26532SOL    HW291656   1.017   4.679   1.270 -0.2524 -0.1756  0.7914
26533SOL     OW91657   0.150   2.155   3.032  0.0928 -0.5027  0.0961
26533SOL    HW191658   0.247   2.146   3.052 -0.1383 -2.3552  0.4855
26533SOL    HW291659   0.126   2.096   2.955 -0.7806 -0.3030  0.2101
26534SOL     OW91660   2.221   2.523   3.636 -0.4506 -0.1843 -0.1165
26534SOL    HW191661   2.268   2.574   3.564 -1.4424 -0.9021 -1.3023
26534SOL    HW291662   2.199   2.431   3.603 -0.7500 -0.5926  1.1771
26535SOL     OW91663   9.265   2.565   8.401 -0.2476 -0.1666  0.6263
26535SOL    HW191664   9.315   2.484   8.433 -0.0189 -1.3505 -2.5554
26535SOL    HW291665   9.172   2.562   8.437 -0.4393 -2.2118  0.0537
26536SOL     OW91666   8.399   4.586   6.649  0.0331 -0.7892  0.0675
26536SOL    HW191667   8.319   4.642   6.629 -0.8286 -1.6131  1.1127
26536SOL    HW291668   8.463   4.637   6.707  0.7055  0.1962 -1.5230
26537SOL     OW91669   2.657   4.957   6.411  0.1303  0.0838 -0.3921
26537SOL    HW191670   2.657   5.056   6.402  4.2587  0.1047 -1.0736
26537SOL    HW291671   2.670   4.932   6.507  1.8454  0.2521 -0.5697
26538SOL     OW91672   1.863   2.964   6.579  0.0986  0.8021  0.4347
26538SOL    HW191673   1.884   2.935   6.486 -0.5924 -0.3931  0.6360
26538SOL    HW291674   1.808   2.894   6.624  2.1785  0.3838  2.4415
26539SOL     OW91675   6.686   3.300   8.765  0.2390  0.3360  0.1987
26539SOL    HW191676   6.745   3.359   8.820 -0.1372  0.1719  0.7814
26539SOL    HW291677   6.736   3.268   8.685  1.0203 -0.0032  0.8173
26540SOL     OW91678   4.941   4.403   2.141  0.1541 -0.2361  0.0631
26540SOL    HW191679   4.961   4.493   2.179  0.1857 -0.2765  0.1420
26540SOL    HW291680   5.008   4.380   2.070 -0.8925  0.5795 -1.2302
26541SOL     OW91681   4.065   4.245   6.266 -0.1965  0.1790 -0.0639
26541SOL    HW191682   4.066   4.339   6.301 -2.4761  0.5219 -0.7812
26541SOL    HW291683   4.127   4.238   6.188  0.7732  0.8207  0.6391
26542SOL     OW91684   7.673   8.576   5.471  0.2760 -0.4818  0.0316
26542SOL    HW191685   7.770   8.551   5.483  0.6367  1.5389  1.5532
26542SOL    HW291686   7.659   8.670   5.502 -2.0069 -0.4356 -1.0728
26543SOL     OW91687   7.823   3.162   5.746 -0.3902  0.1049 -0.0860
26543SOL    HW191688   7.920   3.137   5.741 -0.1698  0.7126  0.9695
26543SOL    HW291689   7.777   3.134   5.662  0.7203 -0.1210 -0.6293
26544SOL     OW91690   4.602   6.253   8.437  0.1242  0.4272  0.6980
26544SOL    HW191691   4.646   6.280   8.523  0.7742  1.1622  0.1381
26544SOL    HW291692   4.671   6.244   8.365 -0.5286  0.7388  0.0231
26545SOL     OW91693   0.195   4.198   0.696 -0.3715  0.2572  0.2677
26545SOL    HW191694   0.163   4.291   0.712  2.6003  1.3812 -0.0889
26545SOL    HW291695   0.163   4.166   0.607 -1.1242  1.0626  0.2464
26546SOL     OW91696   4.784   0.058   7.271 -0.0659 -0.3830  0.4376
26546SOL    HW191697   4.718   0.017   7.207 -0.2579  1.2580 -0.4530
26546SOL    HW291698   4.857  -0.007   7.290 -0.7146 -1.3735 -0.4248
26547SOL     OW91699   7.496   5.346   0.205  0.7728  0.2657 -0.0374
26547SOL    HW191700   7.432   5.407   0.251  1.7351 -0.0582  1.7695
26547SOL    HW291701   7.532   5.279   0.270  2.5038  0.0588 -1.1498
26548SOL     OW91702   0.002   9.575   7.699  0.4155  0.0171  0.3050
26548SOL    HW191703   0.026   9.547   7.792 -1.8031 -0.6987  0.6977
26548SOL    HW291704   0.009   9.496   7.638 -0.5316 -0.1133  0.3555
26549SOL     OW91705   2.971   3.218   4.570  0.2579 -0.1224 -0.1816
26549SOL    HW191706   3.069   3.212   4.551 -0.0538 -0.0745 -1.8659
26549SOL    HW291707   2.957   3.245   4.665  1.9056  2.8452 -0.7306
26550SOL     OW91708   5.050   5.873   1.587  0.2803 -0.1791 -0.0062
26550SOL    HW191709   5.073   5.787   1.633 -0.1209  0.4496  1.4103
26550SOL    HW291710   5.127   5.936   1.593  0.0497  0.0837  0.2657
26551SOL     OW91711   8.653   4.277   5.447 -0.1669 -0.3602  0.3406
26551SOL    HW191712   8.554   4.267   5.455 -0.0479 -0.9837  1.1517
26551SOL    HW291713   8.676   4.374   5.436 -0.8484 -0.1942  0.3609
26552SOL     OW91714   1.084   2.557   1.621 -0.3270 -0.0493 -0.2031
26552SOL    HW191715   0.993   2.529   1.654 -0.8361  1.6575 -0.0988
26552SOL    HW291716   1.126   2.482   1.571 -2.3803 -0.4170 -1.4477
26553SOL     OW91717   0.039   6.016   4.525  0.8210  0.2053 -0.3666
26553SOL    HW191718   0.012   6.074   4.602 -0.5922 -0.2991 -0.4542
26553SOL    HW291719   0.065   5.926   4.559 -1.4358 -0.5741 -0.5624
26554SOL     OW91720   3.745   0.551   1.937  0.4936 -0.4089  0.1063
26554SOL    HW191721   3.793   0.489   1.874 -1.1105 -1.3680 -0.1914
26554SOL    HW291722   3.719   0.501   2.020 -1.0715 -0.2086 -0.2587
26555SOL     OW91723   6.492   0.477   0.916  0.2037 -0.3289  0.3270
26555SOL    HW191724   6.577   0.480   0.864  0.1819 -0.0639  0.3097
26555SOL    HW291725   6.442   0.394   0.891  0.3123 -0.3320  0.1122
26556SOL     OW91726   7.932   9.421   8.722  0.0129 -0.0695 -0.1854
26556SOL    HW191727   8.001   9.479   8.679 -0.8569  1.4806  0.4652
26556SOL    HW291728   7.940   9.427   8.821 -0.4923 -0.5615 -0.1096
26557SOL     OW91729   7.314   0.324   8.007  0.7993  0.3670  0.1538
26557SOL    HW191730   7.284   0.399   7.948 -1.0651 -2.0069 -2.0341
26557SOL    HW291731   7.241   0.300   8.070  1.3116  0.2168  0.6970
26558SOL     OW91732   0.768   1.275   0.685  0.7876 -0.0879 -0.1893
26558SOL    HW191733   0.827   1.231   0.617 -0.4937 -2.8654  0.3959
26558SOL    HW291734   0.790   1.240   0.775 -2.6591 -2.3242 -0.1199
26559SOL     OW91735   9.757   4.036   0.148  0.4550 -0.3305 -0.3697
26559SOL    HW191736   9.672   4.058   0.102  1.0038 -0.1350 -1.3078
26559SOL    HW291737   9.780   3.940   0.131  0.4452 -0.3705 -0.1567
26560SOL     OW91738   0.776   0.860   4.883  0.6003  0.4467  0.1497
26560SOL    HW191739   0.800   0.783   4.942 -0.9179  0.1539  0.4113
26560SOL    HW291740   0.752   0.939   4.939  0.3804  0.5503 -0.0876
26561SOL     OW91741   9.395   5.933   0.252  0.0968  0.6748  0.1923
26561SOL    HW191742   9.470   5.988   0.214  1.4652  0.2552  2.2096
26561SOL    HW291743   9.396   5.939   0.352 -0.2092 -2.3251  0.4308
26562SOL     OW91744   8.867   1.244   8.077  0.0487 -0.6602  0.0490
26562SOL    HW191745   8.842   1.171   8.014 -0.6586  0.2474 -0.7414
26562SOL    HW291746   8.967   1.250   8.083  0.1218 -0.8471 -0.8942
26563SOL     OW91747   9.678   3.778   1.932  0.5034  0.2482 -0.0692
26563SOL    HW191748   9.692   3.692   1.882 -1.4159 -0.3058  0.3036
26563SOL    HW291749   9.757   3.795   1.991  1.8174 -0.2036 -1.6378
26564SOL     OW91750   2.383   2.333   0.120  0.0808 -0.1367  0.6968
26564SOL    HW191751   2.337   2.419   0.143  0.8561  0.2515  0.7974
26564SOL    HW291752   2.348   2.300   0.032 -2.5716 -1.4049  2.1587
26565SOL     OW91753   9.332   6.961   0.565  0.2773  0.0400 -0.6159
26565SOL    HW191754   9.232   6.965   0.560  0.1447  0.0804  1.4262
26565SOL    HW291755   9.359   6.883   0.622  1.3775  0.6020 -0.3597
26566SOL     OW91756   7.757   3.284   8.639 -0.2255 -0.3763 -0.2308
26566SOL    HW191757   7.720   3.192   8.624 -0.5949 -0.3900  0.7010
26566SOL    HW291758   7.681   3.346   8.662 -0.3084  0.7159 -3.3230
26567SOL     OW91759   8.301   7.576   8.367 -0.2909 -0.7907  0.0978
26567SOL    HW191760   8.346   7.608   8.284  0.0081  0.6929  0.8040
26567SOL    HW291761   8.288   7.477   8.363  0.7923 -0.8852 -1.1906
26568SOL     OW91762   7.441   2.845   2.692 -0.2652 -0.6411 -0.3758
26568SOL    HW191763   7.352   2.891   2.684 -0.1747  0.2066  2.9007
26568SOL    HW291764   7.429   2.747   2.681 -1.9119 -0.6978  1.6430
26569SOL     OW91765   8.186   4.436   7.826  0.7597 -0.3224  0.0947
26569SOL    HW191766   8.149   4.419   7.917  1.4261  0.1002  0.4451
26569SOL    HW291767   8.179   4.352   7.771 -0.0492 -0.4526  0.3842
26570SOL     OW91768   1.130   3.390   0.300 -0.0605 -0.6385  0.0260
26570SOL    HW191769   1.223   3.396   0.335  0.1311 -1.8422 -0.2566
26570SOL    HW291770   1.096   3.482   0.279  0.8224 -0.1403  0.7324
26571SOL     OW91771   0.302   2.373   6.889 -0.3199  0.2979  0.0102
26571SOL    HW191772   0.245   2.291   6.880 -0.5484  0.3229  1.1684
26571SOL    HW291773   0.246   2.455   6.876 -0.1701  0.2806 -0.7508
26572SOL     OW91774   5.381   0.856   0.039 -0.2093 -0.1284  0.0312
26572SOL    HW191775   5.359   0.887  -0.053  0.2875 -0.0466 -0.0627
26572SOL    HW291776   5.321   0.902   0.105 -0.2914  0.1199 -0.2153
26573SOL     OW91777   2.018   0.891   4.243 -0.8308  0.4748 -0.4409
26573SOL    HW191778   1.984   0.928   4.157 -0.8791  2.0078  0.2285
26573SOL    HW291779   2.102   0.939   4.270 -0.9650  0.1943  0.5145
26574SOL     OW91780   4.349   2.431   0.583 -0.1989 -0.3135  0.5322
26574SOL    HW191781   4.337   2.529   0.564  0.0236 -0.6198 -1.3377
26574SOL    HW291782   4.261   2.384   0.574  0.4257 -0.9844 -3.3010
26575SOL     OW91783   9.141   2.482   3.646  0.4937  0.4983  0.1768
26575SOL    HW191784   9.080   2.561   3.642  0.7804  0.7761  1.1793
26575SOL    HW291785   9.201   2.481   3.566 -0.7172  0.3058 -0.7396
26576SOL     OW91786   4.541   6.516   9.145  0.3615  0.2231  0.2450
26576SOL    HW191787   4.520   6.564   9.230 -1.2753 -1.5428  0.8728
26576SOL    HW291788   4.524   6.418   9.157  0.3745 -0.0837 -2.0363
26577SOL     OW91789   5.612   8.556   0.411  0.6017  0.1838  0.3937
26577SOL    HW191790   5.675   8.633   0.409  1.6147 -0.5474  2.7189
26577SOL    HW291791   5.518   8.590   0.410  1.0335  1.4790  1.6690
26578SOL     OW91792   8.786   9.003   4.244  0.4918 -0.4458  0.2273
26578SOL    HW191793   8.804   9.066   4.168  0.1865  0.7950  1.1659
26578SOL    HW291794   8.746   9.054   4.320 -2.7384 -2.3197 -0.1351
26579SOL     OW91795   1.220   3.554   1.433  0.0170  0.0420 -0.0573
26579SOL    HW191796   1.127   3.589   1.446  0.7540  2.1928 -0.4085
26579SOL    HW291797   1.228   3.519   1.339  0.6944  3.6525 -1.4415
26580SOL     OW91798   0.314   2.203   8.924 -0.3094 -0.6962  0.0643
26580SOL    HW191799   0.325   2.111   8.887 -0.3222 -1.1680  1.2167
26580SOL    HW291800   0.392   2.225   8.983  0.9465  1.0043 -2.1888
26581SOL     OW91801   2.233   9.950   4.654 -0.1352 -0.5004 -0.0584
26581SOL    HW191802   2.174  10.030   4.668  0.9482  0.3068 -0.0601
26581SOL    HW291803   2.322   9.980   4.620  0.2133 -1.7332 -0.2432
26582SOL     OW91804   6.867   0.846   0.727  0.1209  0.1391 -0.5106
26582SOL    HW191805   6.847   0.943   0.739 -1.6580 -0.3692  0.6615
26582SOL    HW291806   6.873   0.826   0.629  0.6634  1.4510 -0.7603
26583SOL     OW91807   0.205   1.513   1.718  0.1501  0.3151  0.4043
26583SOL    HW191808   0.266   1.463   1.780 -2.2728 -2.5751  0.5939
26583SOL    HW291809   0.147   1.448   1.669 -0.1523  2.7554 -2.6261
26584SOL     OW91810   5.284   0.382   1.325  0.1605  0.1121  0.2850
26584SOL    HW191811   5.302   0.284   1.321 -0.8505 -0.0691 -0.0478
26584SOL    HW291812   5.332   0.427   1.250 -0.8707 -0.3797 -0.6821
26585SOL     OW91813   7.547   7.325   8.250  0.2625  0.3234 -0.2880
26585SOL    HW191814   7.579   7.295   8.161 -0.8931  0.4485 -0.7478
26585SOL    HW291815   7.454   7.293   8.266  0.5845  0.0087  1.0184
26586SOL     OW91816   5.329   5.850   0.540  0.1623 -0.0529  0.5888
26586SOL    HW191817   5.394   5.776   0.556  0.7799  0.3265 -0.1513
26586SOL    HW291818   5.264   5.822   0.469  0.2145 -0.0043  0.5210
26587SOL     OW91819   8.568   6.579   7.967  0.3527 -0.5525 -0.3802
26587SOL    HW191820   8.621   6.514   7.913  0.7530 -1.8146  1.4713
26587SOL    HW291821   8.628   6.625   8.032 -0.1147  0.9581 -0.9942
26588SOL     OW91822   1.379   4.941   1.466  0.9028 -0.0774 -0.0267
26588SOL    HW191823   1.361   4.877   1.391 -2.0003  0.5396  0.0826
26588SOL    HW291824   1.380   4.890   1.552 -0.0669 -0.1831 -0.0716
26589SOL     OW91825   9.370   0.400   9.232  0.0956 -0.1768 -0.0454
26589SOL    HW191826   9.341   0.410   9.136 -1.6914 -1.1850  0.3607
26589SOL    HW291827   9.329   0.473   9.287  1.7313  0.8444 -0.1648
26590SOL     OW91828   1.800   5.152   1.910 -0.1411 -0.7829  0.0372
26590SOL    HW191829   1.852   5.136   1.994  0.0444  0.8603  0.2473
26590SOL    HW291830   1.706   5.174   1.933 -0.1315 -0.5041 -0.1991
26591SOL     OW91831   1.391   3.487   9.003 -0.1765  0.1817  0.1115
26591SOL    HW191832   1.352   3.445   9.085  2.0340 -0.1620  1.0379
26591SOL    HW291833   1.430   3.415   8.945  2.7711  0.8066  1.2403
26592SOL     OW91834   9.531   4.914   0.734  0.3651  0.2189 -0.1248
26592SOL    HW191835   9.454   4.862   0.772  0.7851 -0.8829 -0.7679
26592SOL    HW291836   9.607   4.911   0.799 -0.5010  2.2843  1.0425
26593SOL     OW91837   5.778   7.216   2.268  0.1386 -0.1313 -0.3307
26593SOL    HW191838   5.859   7.160   2.282 -0.0204 -0.1474  0.5162
26593SOL    HW291839   5.705   7.185   2.329 -0.2987  0.3007 -0.6312
26594SOL     OW91840   2.665   7.437   5.958  0.1790 -0.4476 -0.2454
26594SOL    HW191841   2.731   7.489   6.013 -0.3469  0.8386 -0.8092
26594SOL    HW291842   2.594   7.400   6.018  0.7521 -0.8339  0.2064
26595SOL     OW91843   2.178   1.916   4.850  0.0429  0.5081  0.4064
26595SOL    HW191844   2.175   1.986   4.922  0.2322  1.1842 -0.2394
26595SOL    HW291845   2.254   1.854   4.868 -1.7338 -1.1196  2.4342
26596SOL     OW91846   6.391   3.643   4.663 -0.0413 -0.2985  0.2707
26596SOL    HW191847   6.475   3.633   4.717  0.5601 -0.4056 -0.6648
26596SOL    HW291848   6.385   3.567   4.598 -1.0399 -0.4711  0.5572
26597SOL     OW91849   0.399   1.042   5.454 -0.4497 -0.0485 -0.3780
26597SOL    HW191850   0.331   1.004   5.517  0.5819 -1.0899  0.1371
26597SOL    HW291851   0.395   0.990   5.368 -0.4747  0.0580 -0.4410
26598SOL     OW91852   9.869   3.023   4.299 -0.5785  0.0450 -0.3935
26598SOL    HW191853   9.907   3.063   4.215 -0.4027 -0.6465 -0.6450
26598SOL    HW291854   9.777   2.990   4.282 -1.5062  2.1734  0.3486
26599SOL     OW91855   5.090   3.194   1.780 -0.3174 -0.0057  0.0971
26599SOL    HW191856   4.993   3.169   1.771 -0.5934  0.8909  0.5337
26599SOL    HW291857   5.141   3.116   1.815 -0.8683 -0.5162 -0.2290
26600SOL     OW91858   1.148   1.317   1.065  0.4143  0.1466 -0.7471
26600SOL    HW191859   1.209   1.387   1.029  0.6075 -0.5340 -1.7566
26600SOL    HW291860   1.168   1.229   1.021 -0.0514 -0.4685  0.2602
26601SOL     OW91861   1.224   2.867   3.918 -0.4606  0.1373  0.1528
26601SOL    HW191862   1.211   2.946   3.978 -2.6894 -0.4728  0.5104
26601SOL    HW291863   1.296   2.887   3.852 -0.6569  2.2778  0.5448
26602SOL     OW91864   2.910   7.319   0.571  0.1052 -0.2416 -0.2654
26602SOL    HW191865   3.001   7.348   0.542 -0.0262  0.9380  0.4907
26602SOL    HW291866   2.898   7.337   0.668 -0.6349 -1.1874 -0.1693
26603SOL     OW91867   1.181   1.984   5.263  0.3720 -0.6208 -0.7803
26603SOL    HW191868   1.266   2.019   5.304  0.6477 -0.5267 -1.4278
26603SOL    HW291869   1.179   2.007   5.166 -0.2502 -0.9059 -0.8360
26604SOL     OW91870   3.279   1.479   4.301 -0.1453  0.1387 -0.3124
26604SOL    HW191871   3.302   1.525   4.386  0.4891 -0.7304 -0.0038
26604SOL    HW291872   3.256   1.383   4.321 -0.2478 -0.0003 -1.0890
26605SOL     OW91873   5.497   2.745   3.479 -0.9843 -0.5564  0.1867
26605SOL    HW191874   5.462   2.806   3.407 -1.1906 -1.1475 -0.2167
26605SOL    HW291875   5.578   2.787   3.520 -2.0950  0.7729  1.0635
26606SOL     OW91876   7.062   3.593   8.561 -0.6471 -0.1001 -0.3362
26606SOL    HW191877   6.971   3.607   8.600 -1.4355 -1.3734 -1.6865
26606SOL    HW291878   7.130   3.598   8.634 -1.6219  2.4020  0.4727
26607SOL     OW91879   8.317   5.748   5.588 -0.0306  0.2978  0.2236
26607SOL    HW191880   8.328   5.727   5.491 -2.0856 -1.4188  0.3024
26607SOL    HW291881   8.309   5.847   5.601 -1.5998  0.4256 -1.5928
26608SOL     OW91882   0.235   6.061   3.731 -0.5009  0.2575 -0.9127
26608SOL    HW191883   0.276   6.147   3.761 -0.9886  1.5164 -3.6849
26608SOL    HW291884   0.259   6.044   3.636 -0.7095 -2.5263 -0.5103
26609SOL     OW91885   1.467   9.961   9.975  0.2896  0.1821 -0.2030
26609SOL    HW191886   1.557   9.987  10.009  1.5615 -1.8974 -1.8738
26609SOL    HW291887   1.460   9.862   9.970 -2.3779  0.2919  0.5758
26610SOL     OW91888   0.550   8.775   2.734  0.0626 -0.1166  0.7527
26610SOL    HW191889   0.639   8.819   2.749 -0.0456  0.1201  0.6967
26610SOL    HW291890   0.485   8.806   2.802 -0.4672  1.0669 -0.2844
26611SOL     OW91891   2.885   8.019   1.461  0.3381  0.0416 -0.8592
26611SOL    HW191892   2.843   8.033   1.372  0.7212  0.3217 -0.9985
26611SOL    HW291893   2.844   7.939   1.505 -0.3654  0.3299 -0.9743
26612SOL     OW91894   0.654   0.773   6.675 -0.2378  0.1823 -0.1585
26612SOL    HW191895   0.604   0.776   6.588  2.4141 -3.3397 -1.9263
26612SOL    HW291896   0.622   0.695   6.728  0.3320  0.5196  0.6800
26613SOL     OW91897   0.257   0.413   8.793 -0.1230 -0.4220  0.2625
26613SOL    HW191898   0.316   0.338   8.764 -0.8486 -0.5495 -0.9332
26613SOL    HW291899   0.308   0.475   8.853  0.6167 -1.6032  0.8652
26614SOL     OW91900   1.035   3.553   8.823 -0.5226  0.4367 -0.1976
26614SOL    HW191901   1.130   3.580   8.838 -0.5038 -0.2251  0.9059
26614SOL    HW291902   0.974   3.623   8.860 -0.4719 -0.7044  2.0767
26615SOL     OW91903   4.036   6.085   4.631  0.2950 -0.5435  0.3835
26615SOL    HW191904   4.092   6.166   4.644 -0.2376 -0.2047  0.6051
26615SOL    HW291905   4.045   6.053   4.537 -0.4867  0.5409 -0.0759
26616SOL     OW91906   5.711   3.497   3.470 -0.3674 -0.2446  0.2014
26616SOL    HW191907   5.648   3.460   3.538  0.5632 -1.8183  0.2387
26616SOL    HW291908   5.662   3.513   3.384 -0.9010 -1.1012  0.3377
26617SOL     OW91909   2.043   5.302   4.602  0.0461  0.0705 -0.0985
26617SOL    HW191910   1.968   5.363   4.574 -0.1614  0.3475  1.0412
26617SOL    HW291911   2.120   5.357   4.634  0.6042 -0.2261 -0.9394
26618SOL     OW91912   4.424   5.198   0.642  0.4321  0.0325  0.2080
26618SOL    HW191913   4.404   5.296   0.639  2.8163  0.5225 -0.3185
26618SOL    HW291914   4.340   5.147   0.626 -0.6754  2.0016 -0.4542
26619SOL     OW91915   8.929   4.444   5.450 -0.3395  0.2064 -0.4425
26619SOL    HW191916   8.948   4.349   5.426  0.1294 -0.2419  1.5640
26619SOL    HW291917   9.005   4.502   5.421  0.5732 -0.4319  0.6392
26620SOL     OW91918   4.521   5.101   9.799  0.5582  0.6442 -0.5895
26620SOL    HW191919   4.559   5.194   9.797 -1.1785  1.3493 -1.9621
26620SOL    HW291920   4.593   5.036   9.773  1.1453  1.8648 -2.1654
26621SOL     OW91921   8.786   4.913   1.483 -0.9084 -0.6795  0.0277
26621SOL    HW191922   8.785   4.994   1.425 -0.6289  0.2683  1.3374
26621SOL    HW291923   8.734   4.840   1.438  0.8312 -0.5851 -2.2633
26622SOL     OW91924   8.658   2.292   5.224  0.3666  0.6382  0.3428
26622SOL    HW191925   8.721   2.214   5.224 -1.1965 -0.6639  0.4774
26622SOL    HW291926   8.610   2.295   5.136 -1.0369  0.2303  1.0902
26623SOL     OW91927   9.413   2.783   9.809  0.3213 -0.5201  0.2764
26623SOL    HW191928   9.417   2.711   9.879  1.9261 -0.5512  0.1772
26623SOL    HW291929   9.502   2.828   9.802  0.5282 -1.2412 -2.4971
26624SOL     OW91930   0.826   2.161   5.083 -0.4207  0.2793  0.1868
26624SOL    HW191931   0.755   2.103   5.043 -1.4811  1.8038 -0.1769
26624SOL    HW291932   0.803   2.257   5.069  1.8677  0.8015 -0.1765
26625SOL     OW91933   2.139   9.524   5.604  1.1671  0.1636 -0.0361
26625SOL    HW191934   2.165   9.558   5.694 -1.1803 -2.3947  1.7064
26625SOL    HW291935   2.162   9.426   5.598 -0.7543 -0.2281 -1.3610
26626SOL     OW91936   2.521   9.922   0.807  0.2753 -0.7696 -0.1473
26626SOL    HW191937   2.529   9.948   0.903  1.8332  1.6700 -0.8857
26626SOL    HW291938   2.437   9.960   0.769  0.1295 -0.9445 -0.0035
26627SOL     OW91939   0.595   7.424   1.156  0.2871  0.7420 -0.2420
26627SOL    HW191940   0.545   7.506   1.130  0.1647  1.0779  1.0050
26627SOL    HW291941   0.553   7.344   1.114  0.4099  1.3063 -1.4639
26628SOL     OW91942   0.944   3.412   2.014  0.2627  0.4046  0.0130
26628SOL    HW191943   0.876   3.345   2.045 -1.0652  2.1454  1.0120
26628SOL    HW291944   1.035   3.386   2.046 -0.4180 -0.3082  1.4072
26629SOL     OW91945   1.098   0.941   2.934  0.1411  0.0894 -0.5168
26629SOL    HW191946   1.024   0.876   2.916  0.2335  0.3870 -1.9933
26629SOL    HW291947   1.115   0.944   3.033 -0.0796 -1.8741 -0.3912
26630SOL     OW91948   7.598   2.267   3.468  0.5730 -0.4331 -0.2992
26630SOL    HW191949   7.610   2.320   3.384 -0.1818 -0.6796 -0.5660
26630SOL    HW291950   7.538   2.189   3.450 -0.3423  0.0297  0.6910
26631SOL     OW91951   0.649   2.690   0.937 -0.6527 -0.5789  0.0016
26631SOL    HW191952   0.742   2.722   0.921 -1.0922 -0.0731 -1.6009
26631SOL    HW291953   0.590   2.768   0.962 -0.0511 -1.2953  3.9721
26632SOL     OW91954   2.198   1.451   3.353 -0.0650 -0.1852 -0.2499
26632SOL    HW191955   2.264   1.379   3.331 -1.7149 -1.6394 -0.5064
26632SOL    HW291956   2.168   1.440   3.448 -1.2168 -0.5694 -0.6561
26633SOL     OW91957   7.439   0.484   3.807  0.6695  0.3167  0.3665
26633SOL    HW191958   7.494   0.540   3.746 -0.1586  1.1916  0.4016
26633SOL    HW291959   7.395   0.542   3.875  0.8438 -0.5404  1.2151
26634SOL     OW91960   0.051   6.266   2.455 -0.0234 -0.7643  0.1462
26634SOL    HW191961   0.054   6.263   2.356  1.0455  0.5263  0.1288
26634SOL    HW291962  -0.044   6.256   2.486 -0.4037 -0.7719 -1.0107
26635SOL     OW91963   7.122   8.028   8.498 -0.2365  0.3987 -0.3401
26635SOL    HW191964   7.056   8.102   8.509 -1.3512 -0.4953 -0.8717
26635SOL    HW291965   7.151   8.024   8.402  0.9501  1.0681 -0.0269
26636SOL     OW91966   0.123   2.020   2.793 -0.1518  0.9121  0.8576
26636SOL    HW191967   0.141   2.088   2.722  1.9171  0.4662  0.9039
26636SOL    HW291968   0.029   1.989   2.787  0.5302 -0.6437 -3.0729
26637SOL     OW91969   0.293   1.519   1.261  0.2335 -0.5469 -0.5881
26637SOL    HW191970   0.284   1.604   1.209  2.2516 -1.4002 -2.3769
26637SOL    HW291971   0.229   1.451   1.224 -1.1647  0.0521  0.6504
26638SOL     OW91972   0.104   3.596   1.488 -0.1494 -0.2098 -0.0987
26638SOL    HW191973   0.069   3.505   1.467 -2.3599 -0.0262  2.4904
26638SOL    HW291974   0.064   3.663   1.424 -1.0183 -0.6338 -0.0120
26639SOL     OW91975   4.820   4.616   5.078  0.0550 -0.9795 -0.5456
26639SOL    HW191976   4.839   4.575   4.989  1.1325 -0.4182 -0.5761
26639SOL    HW291977   4.729   4.657   5.077 -0.9174 -3.0659 -0.6180
26640SOL     OW91978   8.364   1.961   3.555  0.5355 -0.2056 -0.2268
26640SOL    HW191979   8.451   1.963   3.505  1.5744 -1.3725  1.4705
26640SOL    HW291980   8.378   1.996   3.647 -0.4164 -1.8825  0.5815
26641SOL     OW91981   6.699   9.007   4.040  0.1068  0.0909  0.8317
26641SOL    HW191982   6.665   8.913   4.040 -0.6895  0.3725 -0.2064
26641SOL    HW291983   6.629   9.068   4.079  0.4440  0.3144  1.0908
26642SOL     OW91984   1.536   8.048   9.678 -0.0809  0.1416 -0.1080
26642SOL    HW191985   1.582   8.041   9.589 -2.1728 -0.0811 -1.2037
26642SOL    HW291986   1.544   7.961   9.727  1.0109  0.2410 -0.0933
26643SOL     OW91987   6.380   4.825   9.286 -0.0144  0.0743  0.4971
26643SOL    HW191988   6.453   4.799   9.349  0.6099 -1.5617 -0.8484
26643SOL    HW291989   6.355   4.746   9.230 -2.1447  0.8866  0.2591
26644SOL     OW91990   2.263   6.330   2.588  1.1506  0.3393  0.1607
26644SOL    HW191991   2.265   6.332   2.688  1.4030  0.6680  0.1536
26644SOL    HW291992   2.296   6.242   2.555  0.2076 -0.0973  0.3828
26645SOL     OW91993   1.192   9.332   4.849 -0.0302 -0.3949  0.0237
26645SOL    HW191994   1.128   9.305   4.920 -0.4041 -1.8321 -0.8450
26645SOL    HW291995   1.159   9.415   4.803 -0.5146 -0.3045  0.5334
26646SOL     OW91996   1.364   1.237   7.593  0.1178  0.3800  0.5839
26646SOL    HW191997   1.404   1.156   7.551 -0.3796 -0.7530  2.2352
26646SOL    HW291998   1.278   1.259   7.548  0.2148 -0.0621  0.1818
26647SOL     OW91999   6.592   6.350   4.719  0.5195 -0.0888 -0.1207
26647SOL    HW192000   6.641   6.318   4.800  0.5551 -2.6387 -1.1100
26647SOL    HW292001   6.655   6.354   4.642 -0.3129 -1.2101 -0.8660
26648SOL     OW92002   4.510   6.574   1.955 -0.1869 -0.3597  0.3617
26648SOL    HW192003   4.562   6.494   1.926 -0.1512  0.4424 -1.8992
26648SOL    HW292004   4.513   6.644   1.883 -1.8187  0.9079  1.4784
26649SOL     OW92005   5.856   8.243   3.119 -0.3409  0.2339 -0.2741
26649SOL    HW192006   5.914   8.198   3.186 -0.4306  1.9439  0.9689
26649SOL    HW292007   5.910   8.263   3.036  0.3008 -0.0401  0.0762
26650SOL     OW92008   9.935   4.203   1.137  0.5461  0.1282 -0.0011
26650SOL    HW192009  10.016   4.144   1.133  0.2041 -0.2089 -3.3401
26650SOL    HW292010   9.961   4.297   1.116  0.1201  0.0761 -0.7659
26651SOL     OW92011   0.655   7.684   8.459 -0.2099  0.2573  0.2611
26651SOL    HW192012   0.603   7.757   8.413  1.0141  0.2884 -1.1219
26651SOL    HW292013   0.734   7.724   8.505 -0.4229 -0.0138  0.8719
26652SOL     OW92014   2.869   2.191   5.516  0.5285 -0.2811  0.5670
26652SOL    HW192015   2.957   2.144   5.525  0.4058 -0.3841  1.2104
26652SOL    HW292016   2.807   2.161   5.588  0.0580  0.0054  0.2864
26653SOL     OW92017   9.516   7.260   5.987  0.3575  0.3166  0.7675
26653SOL    HW192018   9.545   7.224   6.075  0.3914  1.7337  1.3604
26653SOL    HW292019   9.574   7.223   5.914  1.8714  0.9453  1.6163
26654SOL     OW92020   7.223   5.765   2.188 -0.1572  0.2030 -0.0359
26654SOL    HW192021   7.293   5.834   2.205 -0.6172  0.7604 -0.4126
26654SOL    HW292022   7.132   5.805   2.201 -0.4019 -0.6705  1.0326
26655SOL     OW92023   7.717   3.808   9.658  1.0040 -0.0696  0.1150
26655SOL    HW192024   7.660   3.726   9.667 -1.4099  1.3619 -1.7827
26655SOL    HW292025   7.694   3.873   9.731 -1.7996  1.6307 -2.1840
26656SOL     OW92026   1.862   2.952   1.573  0.0075  0.2542  0.8809
26656SOL    HW192027   1.900   2.980   1.661  0.1111 -0.7739  1.1608
26656SOL    HW292028   1.893   2.860   1.550  0.9359  0.9680 -0.7989
26657SOL     OW92029   9.841   4.059   6.767  0.2717  0.3469 -0.0177
26657SOL    HW192030   9.882   4.029   6.681 -0.8081 -1.2233 -0.0024
26657SOL    HW292031   9.744   4.080   6.753  0.2824  0.8708  0.6478
26658SOL     OW92032   0.868   0.003   4.411 -0.5146 -0.0804  0.4254
26658SOL    HW192033   0.780  -0.034   4.439 -1.0059  1.3743  0.8723
26658SOL    HW292034   0.913   0.044   4.491 -0.2253  0.7471 -0.1591
26659SOL     OW92035   9.520   5.561   0.899 -0.0288 -0.0924 -0.6408
26659SOL    HW192036   9.506   5.469   0.936 -1.6050 -0.4291 -1.9933
26659SOL    HW292037   9.483   5.628   0.962 -0.7007 -0.5275 -0.5629
26660SOL     OW92038   9.653   3.721   3.831  0.6512  0.4245  0.7415
26660SOL    HW192039   9.751   3.736   3.816  0.6915  0.8631  1.4034
26660SOL    HW292040   9.638   3.693   3.925  0.0871  0.8781  0.7876
26661SOL     OW92041   8.449   0.760   0.193 -0.4074 -0.2428  0.0044
26661SOL    HW192042   8.527   0.809   0.233  0.7510 -0.7618 -1.5624
26661SOL    HW292043   8.426   0.800   0.104  0.2078 -2.1435 -1.0570
26662SOL     OW92044   7.405   3.130   2.095  0.2446 -0.1642 -0.2099
26662SOL    HW192045   7.468   3.120   2.172  1.4631  1.1138 -1.0197
26662SOL    HW292046   7.345   3.050   2.091  0.8950 -0.7564  1.3991
26663SOL     OW92047   8.286   3.097   0.058  0.0484 -0.3059  0.0949
26663SOL    HW192048   8.372   3.063   0.097  0.6194 -1.2984 -1.9329
26663SOL    HW292049   8.214   3.093   0.127  1.2541 -1.0701  1.3337
26664SOL     OW92050   6.451   3.541   6.622  0.1190 -0.4543  0.1261
26664SOL    HW192051   6.499   3.622   6.588  1.1706 -0.5747  1.2590
26664SOL    HW292052   6.380   3.568   6.686  0.4951 -0.4124  0.5335
26665SOL     OW92053   8.578   3.731   7.546 -0.1478 -0.6713  0.8048
26665SOL    HW192054   8.497   3.730   7.605 -1.3067  1.0527 -0.7170
26665SOL    HW292055   8.561   3.673   7.466 -0.6507  1.2464 -0.4942
26666SOL     OW92056   6.086   5.853   8.198 -0.0478  0.0676  0.6111
26666SOL    HW192057   5.992   5.821   8.192  0.3479 -1.3330  1.4517
26666SOL    HW292058   6.102   5.891   8.289  0.2287  0.1735  0.5184
26667SOL     OW92059   0.717   5.593   6.453 -0.0831 -0.1817  0.0253
26667SOL    HW192060   0.659   5.551   6.383  1.0438  1.0910 -1.7310
26667SOL    HW292061   0.662   5.658   6.506 -0.8578 -0.8402  0.0347
26668SOL     OW92062   1.781   3.944   5.784 -0.8539 -0.1940 -0.3226
26668SOL    HW192063   1.741   4.021   5.733  0.4957  0.3894 -0.5189
26668SOL    HW292064   1.708   3.887   5.820 -1.9376  1.9802  1.0718
26669SOL     OW92065   1.027   3.240   1.237 -0.3979  0.0788 -0.2322
26669SOL    HW192066   0.959   3.196   1.294 -0.2898 -0.0525 -0.2039
26669SOL    HW292067   1.009   3.219   1.141  0.3768 -1.0532 -0.1407
26670SOL     OW92068   6.759   5.971   2.980  0.3893  0.3766  0.1545
26670SOL    HW192069   6.716   6.005   2.897  1.6520  0.7911 -0.3547
26670SOL    HW292070   6.742   6.036   3.055  0.2111  0.5914 -0.0716
26671SOL     OW92071   6.679   4.279   2.895  0.1222  0.2698 -0.3325
26671SOL    HW192072   6.711   4.369   2.864  0.0387  0.2935 -0.3480
26671SOL    HW292073   6.647   4.226   2.817  0.2301  0.2031 -0.3316
26672SOL     OW92074   5.843   4.453   8.280 -0.0221 -0.1084  0.4483
26672SOL    HW192075   5.904   4.502   8.217  0.7740 -0.3525  1.0234
26672SOL    HW292076   5.754   4.441   8.237 -0.0346  1.2764  0.0393
26673SOL     OW92077   8.227   4.993   0.664 -0.0945 -0.1579 -0.0004
26673SOL    HW192078   8.283   5.076   0.660 -1.4080  0.7172 -0.8965
26673SOL    HW292079   8.135   5.016   0.697 -0.6742 -1.1316 -0.8844
26674SOL     OW92080   4.955   4.920   2.424  0.2434 -0.2714 -0.4425
26674SOL    HW192081   4.995   4.872   2.502 -1.2615 -0.3030  0.3234
26674SOL    HW292082   4.856   4.926   2.435 -0.0063 -0.3540 -2.4111
26675SOL     OW92083   7.608   6.418   4.561  0.1721  0.0781 -0.1943
26675SOL    HW192084   7.627   6.430   4.659  1.0913 -1.0908 -0.2160
26675SOL    HW292085   7.624   6.323   4.536  2.1268  0.8304 -1.9571
26676SOL     OW92086   1.660   4.384   5.405  0.2142  0.8686 -0.1567
26676SOL    HW192087   1.658   4.286   5.385  0.4604  0.7018  0.6402
26676SOL    HW292088   1.664   4.435   5.319  0.5408  0.1674 -0.5623
26677SOL     OW92089   0.000   1.487   4.578  0.2752  0.0530  0.0073
26677SOL    HW192090  -0.040   1.549   4.511 -0.5914 -0.0927  0.3776
26677SOL    HW292091  -0.073   1.435   4.623  0.9983 -1.3734 -0.4326
26678SOL     OW92092   8.572   2.801   8.706  0.0550  0.3923  0.2190
26678SOL    HW192093   8.519   2.868   8.759 -0.2935  1.2466 -1.1708
26678SOL    HW292094   8.604   2.844   8.621  1.1598 -0.7569  0.0349
26679SOL     OW92095   1.773   2.071   4.602  0.3097  0.3217  0.8920
26679SOL    HW192096   1.853   2.084   4.660  0.3169  2.1587  0.4977
26679SOL    HW292097   1.794   2.098   4.508 -1.4467  3.2203  1.2676
26680SOL     OW92098   2.248   5.456   4.649  0.3451 -0.3046 -0.3413
26680SOL    HW192099   2.331   5.512   4.640 -0.8998  1.5332 -0.7895
26680SOL    HW292100   2.192   5.492   4.724 -1.2350  0.0701 -1.6652
26681SOL     OW92101   6.391   9.801   5.230 -0.2340 -0.6851 -0.1551
26681SOL    HW192102   6.314   9.862   5.248 -0.4472 -1.2797  0.9790
26681SOL    HW292103   6.428   9.768   5.316 -1.1641 -3.4653 -0.7625
26682SOL     OW92104   3.217   7.775   3.811 -0.0086 -0.0064  0.1865
26682SOL    HW192105   3.201   7.687   3.766  1.8663  0.0749 -0.6852
26682SOL    HW292106   3.202   7.766   3.910 -0.6063 -1.0883  0.0004
26683SOL     OW92107   9.816   0.893   9.823  0.5714 -1.0117  0.2844
26683SOL    HW192108   9.727   0.869   9.861  0.9479 -4.0074 -0.6113
26683SOL    HW292109   9.876   0.926   9.896 -0.6628 -0.7355  1.1947
26684SOL     OW92110   1.889   3.390   5.108 -0.1806 -0.5521 -0.2307
26684SOL    HW192111   1.988   3.404   5.101 -0.3620  0.2692 -1.2627
26684SOL    HW292112   1.846   3.474   5.140 -0.4281 -1.2914  1.4392
26685SOL     OW92113   8.341   2.678   4.440  0.0901 -0.1555  0.3528
26685SOL    HW192114   8.384   2.619   4.373 -1.8934 -1.5323  0.2520
26685SOL    HW292115   8.245   2.693   4.416  0.1021  1.7175  1.3114
26686SOL     OW92116   2.378   9.918   5.097  0.2511  0.3988 -0.5386
26686SOL    HW192117   2.465   9.962   5.074 -0.4436  2.1462  0.1391
26686SOL    HW292118   2.355   9.937   5.193 -1.4646  0.9413 -1.0441
26687SOL     OW92119   8.213   2.093   1.408 -0.6082 -0.3270  0.2203
26687SOL    HW192120   8.250   2.009   1.449 -1.6513 -1.1949 -0.5859
26687SOL    HW292121   8.178   2.072   1.316 -1.6556  0.8080  0.3524
26688SOL     OW92122   8.004   2.121   7.567 -0.0293  0.3506  0.5439
26688SOL    HW192123   8.009   2.093   7.471 -0.4265 -1.0578  0.9306
26688SOL    HW292124   8.042   2.213   7.576 -1.5229  1.1802 -1.2516
26689SOL     OW92125   7.442   1.495   4.036  0.5659  0.5990 -0.6071
26689SOL    HW192126   7.436   1.461   4.130 -0.6459  0.5556 -0.6884
26689SOL    HW292127   7.537   1.491   4.005  0.8419 -0.2233  0.3109
26690SOL     OW92128   2.126   2.587   2.568  0.0084  0.1939  0.3178
26690SOL    HW192129   2.199   2.534   2.610  0.3410  0.6551  0.3288
26690SOL    HW292130   2.051   2.598   2.634 -0.3613 -0.8419  0.0777
26691SOL     OW92131   9.914   3.957   4.676  0.2263  0.4227  0.2439
26691SOL    HW192132   9.899   3.935   4.772 -0.0220  0.1622  0.1461
26691SOL    HW292133   9.894   4.054   4.660 -0.8593  0.2029  0.2221
26692SOL     OW92134   3.115   0.186   3.370 -0.3802 -1.2299 -0.3272
26692SOL    HW192135   3.140   0.280   3.350 -2.5577 -0.8799 -1.6295
26692SOL    HW292136   3.191   0.140   3.415  1.6255  0.4307 -1.8881
26693SOL     OW92137   9.355   1.063   3.014  0.0064  0.1534 -0.7379
26693SOL    HW192138   9.262   1.061   2.978 -0.1909 -2.3385 -0.2174
26693SOL    HW292139   9.409   0.991   2.970  1.1190  0.2750  0.3942
26694SOL     OW92140   5.578   5.525   9.328 -0.4635 -0.0551  0.3817
26694SOL    HW192141   5.614   5.437   9.360 -0.7442 -0.0653  0.6801
26694SOL    HW292142   5.642   5.567   9.265 -0.8010 -0.9645 -0.5766
26695SOL     OW92143   5.638   1.377   3.826  0.0150  0.0733 -0.3695
26695SOL    HW192144   5.561   1.416   3.876 -0.2409  1.0399 -1.4713
26695SOL    HW292145   5.714   1.443   3.824 -0.1487  0.2492 -1.6175
26696SOL     OW92146   2.264   4.741   7.428  0.1363 -0.0068  0.9795
26696SOL    HW192147   2.267   4.642   7.442  1.4366 -0.0817  0.2207
26696SOL    HW292148   2.183   4.778   7.473  0.5313 -1.1825  2.7304
26697SOL     OW92149   5.039   5.774   4.013  0.3458 -0.3139 -0.1050
26697SOL    HW192150   5.117   5.795   4.073 -1.0107 -1.7478  2.2150
26697SOL    HW292151   4.971   5.847   4.020  1.3114  0.8127 -1.9405
26698SOL     OW92152   2.608   7.451   4.645  0.4707  0.0197 -0.5803
26698SOL    HW192153   2.556   7.532   4.617 -1.7305 -0.9474  0.6610
26698SOL    HW292154   2.604   7.382   4.572 -1.7527 -0.8609  0.3495
26699SOL     OW92155   6.897   3.286   2.486  0.1040 -0.1496  0.4907
26699SOL    HW192156   6.972   3.301   2.422 -0.0568  0.2343  0.3853
26699SOL    HW292157   6.835   3.217   2.449 -0.7159  1.0533 -0.4162
26700SOL     OW92158   9.286   5.859   2.716 -0.0275 -0.2487  0.2851
26700SOL    HW192159   9.338   5.803   2.651  0.2396 -0.3880  0.6218
26700SOL    HW292160   9.189   5.838   2.707  0.0681 -0.7495  0.3926
26701SOL     OW92161   0.052   0.533   1.574 -0.3713 -0.2279 -0.0383
26701SOL    HW192162   0.028   0.603   1.506 -0.8293 -0.8043 -0.4817
26701SOL    HW292163   0.118   0.470   1.533 -0.2273 -0.2552  0.2411
26702SOL     OW92164   3.685   8.017   2.752  0.3137  0.2626 -0.1394
26702SOL    HW192165   3.624   8.068   2.690  0.7353 -0.4103 -1.1133
26702SOL    HW292166   3.778   8.020   2.716  0.2129 -1.8738 -0.6487
26703SOL     OW92167   9.071   4.950   3.446  0.0960 -0.0415  0.1915
26703SOL    HW192168   9.094   5.027   3.505  1.2661 -0.0970 -0.1712
26703SOL    HW292169   9.143   4.938   3.377 -0.5613 -0.8390 -0.3738
26704SOL     OW92170   6.634   4.842   2.599  0.0873 -0.5217 -0.2440
26704SOL    HW192171   6.661   4.756   2.555  0.0506 -0.2616 -0.7849
26704SOL    HW292172   6.585   4.899   2.533  1.1030  0.3993 -0.2286
26705SOL     OW92173   8.892   1.840   8.100  0.1365  0.1030  0.0284
26705SOL    HW192174   8.827   1.766   8.083 -0.8427  1.0203 -0.3508
26705SOL    HW292175   8.985   1.808   8.083 -0.3405 -0.7947 -0.9506
26706SOL     OW92176   2.510   0.672   4.457 -0.2104 -0.1312  0.1907
26706SOL    HW192177   2.551   0.763   4.452  1.0941 -0.7585 -0.8860
26706SOL    HW292178   2.433   0.667   4.393  0.7898 -0.2919 -1.0292
26707SOL     OW92179   3.603   1.123   6.444 -0.0314 -0.5361  0.4101
26707SOL    HW192180   3.642   1.031   6.449 -1.4136 -1.0398  2.2898
26707SOL    HW292181   3.536   1.126   6.370 -1.0073 -1.4401  1.2516
26708SOL     OW92182   1.184   4.094   4.771 -0.3448 -0.1153  0.0619
26708SOL    HW192183   1.165   4.030   4.846 -0.1078 -1.6688 -1.1889
26708SOL    HW292184   1.116   4.168   4.772  0.1288  0.3352  2.2900
26709SOL     OW92185   9.019   6.803   2.862 -0.0312  0.3196  0.4453
26709SOL    HW192186   9.064   6.715   2.847 -1.2027 -0.4023  1.0881
26709SOL    HW292187   9.075   6.860   2.922  0.3517 -0.3009  0.6748
26710SOL     OW92188   4.006   4.542   6.177  0.0744 -0.0007  0.0528
26710SOL    HW192189   3.990   4.607   6.251 -3.6831 -0.8514  0.0886
26710SOL    HW292190   4.090   4.567   6.129  1.2183  2.0650  2.9755
26711SOL     OW92191   9.310   6.215   2.279  0.0099  0.8158  0.3502
26711SOL    HW192192   9.335   6.265   2.362  1.6997  0.9672 -0.2256
26711SOL    HW292193   9.363   6.130   2.274 -0.0891  0.8022 -0.5600
26712SOL     OW92194   0.991   6.860   3.935 -0.3252 -0.6915  0.0197
26712SOL    HW192195   0.929   6.897   3.865 -1.4647 -0.8777  0.9215
26712SOL    HW292196   1.081   6.902   3.924 -0.8882  0.3823 -0.6369
26713SOL     OW92197   5.745   0.550   3.077  1.1734 -0.4459 -0.2996
26713SOL    HW192198   5.724   0.579   2.984  2.0088  0.6956 -0.1515
26713SOL    HW292199   5.813   0.612   3.116  0.2892 -0.4698  1.3216
26714SOL     OW92200   0.696   5.379   0.367  0.7704 -0.0535 -0.1070
26714SOL    HW192201   0.655   5.461   0.406  2.1559 -0.4111  2.1716
26714SOL    HW292202   0.656   5.362   0.277 -2.9553  0.4240  1.3618
26715SOL     OW92203   1.482   4.065   6.502 -0.1851  0.0114  0.5439
26715SOL    HW192204   1.581   4.061   6.490 -0.2820  1.3600 -0.8094
26715SOL    HW292205   1.439   3.992   6.450 -0.2428  2.7454 -3.4331
26716SOL     OW92206   8.813   6.179   5.555  0.0631  0.0339 -0.4412
26716SOL    HW192207   8.728   6.127   5.558  0.5011 -0.7892 -1.7985
26716SOL    HW292208   8.813   6.249   5.627 -2.3018  0.9115 -1.2685
26717SOL     OW92209   0.862   4.036   5.293 -0.4255 -0.6453  0.6707
26717SOL    HW192210   0.911   4.099   5.353 -1.0471 -0.9883  1.5488
26717SOL    HW292211   0.826   3.960   5.347 -2.4715 -0.0640  0.1462
26718SOL     OW92212   5.474   4.243   0.808  0.2432  0.3839  0.4296
26718SOL    HW192213   5.416   4.162   0.808 -2.7186  2.4108 -0.7429
26718SOL    HW292214   5.455   4.297   0.890  0.8052  0.8455  0.2543
26719SOL     OW92215   8.526   0.901   1.777 -0.3271  0.7738 -0.2281
26719SOL    HW192216   8.569   0.845   1.706 -0.2520  0.3771  0.1290
26719SOL    HW292217   8.506   0.992   1.740  0.0291  0.6811 -0.6527
26720SOL     OW92218   5.175   5.231   3.967  0.6950  0.2015  0.6984
26720SOL    HW192219   5.091   5.243   4.019 -0.1151 -2.0484 -0.0326
26720SOL    HW292220   5.164   5.270   3.876  0.4282 -0.0895  0.6040
26721SOL     OW92221   4.804   1.536   9.983  0.3718  0.2740  0.0893
26721SOL    HW192222   4.775   1.579   9.898  0.5603  1.7356  0.7486
26721SOL    HW292223   4.769   1.589  10.061 -0.9154 -1.7744  0.9452
26722SOL     OW92224   9.978   8.898   7.739 -0.6996 -0.5140  0.0442
26722SOL    HW192225  10.008   8.819   7.793 -1.8729 -1.1464 -0.1891
26722SOL    HW292226   9.978   8.873   7.642 -0.7529 -0.1222 -0.0556
26723SOL     OW92227   7.778   4.769   3.207 -0.0522 -0.3054  0.5394
26723SOL    HW192228   7.690   4.799   3.245  0.1361  1.5466 -0.4033
26723SOL    HW292229   7.809   4.836   3.139  1.6302 -1.4296  0.1716
26724SOL     OW92230   7.010   2.685   2.521  0.3964 -0.0407  0.3212
26724SOL    HW192231   7.030   2.599   2.474 -0.8184 -0.7616  1.0794
26724SOL    HW292232   7.061   2.759   2.478  1.2046 -1.0852 -0.5581
26725SOL     OW92233   1.763   4.047   6.141 -0.3784 -1.1670  0.3628
26725SOL    HW192234   1.706   3.968   6.163  0.6984 -1.6043  1.6118
26725SOL    HW292235   1.830   4.061   6.213  1.2077 -0.7433 -1.1726
26726SOL     OW92236   1.752   9.743   9.561 -0.1208  0.7153  0.5303
26726SOL    HW192237   1.776   9.771   9.467 -0.1123  1.4156  0.7388
26726SOL    HW292238   1.722   9.648   9.560 -0.1665  0.7281 -0.1947
26727SOL     OW92239   1.011   2.649   6.932 -0.2498 -0.6021  0.4418
26727SOL    HW192240   0.972   2.561   6.957  0.4269 -0.9485  0.2821
26727SOL    HW292241   1.024   2.654   6.833 -2.8951  0.7573  0.1219
26728SOL     OW92242   7.071   9.812   9.798  0.3959 -0.7176  0.1628
26728SOL    HW192243   7.130   9.759   9.859  1.7932 -0.2702 -0.7688
26728SOL    HW292244   7.065   9.767   9.709  0.0482 -0.3105 -0.0229
26729SOL     OW92245   9.677   6.055   7.929  0.3951  0.3473  0.1906
26729SOL    HW192246   9.659   5.966   7.969  0.2626  1.1829  2.0218
26729SOL    HW292247   9.596   6.084   7.877 -0.3289  0.2741  1.2518
26730SOL     OW92248   9.943   0.912   7.580 -0.0700  0.0662  0.0245
26730SOL    HW192249  10.036   0.907   7.617  0.6363 -0.0426 -1.6944
26730SOL    HW292250   9.910   1.006   7.584  0.3235  0.1971  0.1475
26731SOL     OW92251   0.238   1.699   4.829 -0.3420 -0.3341 -0.3518
26731SOL    HW192252   0.154   1.733   4.787  0.1305  2.4858  0.8995
26731SOL    HW292253   0.314   1.708   4.765 -0.2038  1.0667  0.0094
26732SOL     OW92254   7.827   3.369   0.437  0.2278  0.3044  0.5912
26732SOL    HW192255   7.805   3.415   0.350  0.5537 -0.9775 -0.1806
26732SOL    HW292256   7.889   3.427   0.489  1.1321  0.5017 -0.6599
26733SOL     OW92257   1.634   8.559   5.249 -0.5423  0.0174 -0.2173
26733SOL    HW192258   1.579   8.611   5.314  0.0885 -0.3031  0.5782
26733SOL    HW292259   1.706   8.510   5.298  0.5391  0.5422 -1.2560
26734SOL     OW92260   7.935   4.069   4.366  0.0195  0.1048  1.0594
26734SOL    HW192261   7.866   4.014   4.319  0.7203  0.6209 -0.6369
26734SOL    HW292262   7.955   4.151   4.312  1.2555  0.4420  1.9939
26735SOL     OW92263   7.168   6.928   8.405 -0.0396 -0.0403  0.0616
26735SOL    HW192264   7.231   6.858   8.438  0.3126  0.5426  0.6417
26735SOL    HW292265   7.168   7.005   8.468 -2.2298 -0.5315  0.6792
26736SOL     OW92266   8.804   0.628   2.206 -0.3522 -0.2144 -0.1126
26736SOL    HW192267   8.734   0.676   2.153 -0.2330 -0.6033 -0.6213
26736SOL    HW292268   8.767   0.540   2.237  0.0479 -0.5936 -0.7166
26737SOL     OW92269   9.947   2.841   0.367 -0.5687 -0.0353  0.1896
26737SOL    HW192270   9.936   2.857   0.465 -0.9913  0.6030  0.0456
26737SOL    HW292271   9.859   2.857   0.321  0.2417  2.2627 -0.6338
26738SOL     OW92272   9.742   1.443   0.114 -0.2487 -0.0728  0.3198
26738SOL    HW192273   9.713   1.517   0.053  0.4023 -0.3974 -0.3903
26738SOL    HW292274   9.838   1.456   0.139 -0.3560 -0.2476  0.8314
26739SOL     OW92275   8.011   4.156   9.619  0.2163  0.4044  0.8350
26739SOL    HW192276   8.094   4.192   9.577  0.7713 -1.5977  0.1944
26739SOL    HW292277   7.938   4.151   9.551  0.4239 -0.5996  0.6855
26740SOL     OW92278   2.035   3.558   6.980  0.0255 -1.3219 -0.0897
26740SOL    HW192279   2.058   3.463   6.958  1.5740 -0.5729 -1.8542
26740SOL    HW292280   2.079   3.584   7.066  1.6921 -1.4637 -0.8709
26741SOL     OW92281   8.773   0.392   2.827  0.1725 -0.0484  0.2252
26741SOL    HW192282   8.844   0.337   2.870  1.9241  0.6932 -1.6694
26741SOL    HW292283   8.801   0.488   2.828  0.4114 -0.0589 -2.8814
26742SOL     OW92284   4.533   3.608   1.500 -0.2804 -0.0556 -0.2256
26742SOL    HW192285   4.596   3.621   1.577 -0.1577  3.2552 -0.7779
26742SOL    HW292286   4.441   3.637   1.528 -0.6314 -0.6318 -0.7755
26743SOL     OW92287   7.547   1.685   5.577  0.2096  0.2993  0.0090
26743SOL    HW192288   7.610   1.614   5.610  0.8286  1.7574  2.0888
26743SOL    HW292289   7.494   1.720   5.654 -1.9735  0.2753 -1.4492
26744SOL     OW92290   8.131   2.109   5.976 -0.6194 -0.1140  0.5587
26744SOL    HW192291   8.154   2.192   5.925  0.7574 -1.7767 -1.6393
26744SOL    HW292292   8.038   2.081   5.954 -0.3328 -0.3405 -0.3903
26745SOL     OW92293   5.666   3.886   1.137 -0.1715  0.5327 -0.3784
26745SOL    HW192294   5.580   3.838   1.155 -0.4869  0.5933 -1.6741
26745SOL    HW292295   5.676   3.961   1.203 -0.3383 -0.4513  0.7820
26746SOL     OW92296   7.766   3.514   5.690  0.0643  0.0590  0.3469
26746SOL    HW192297   7.796   3.556   5.775  1.7356  0.2746 -0.3297
26746SOL    HW292298   7.670   3.485   5.699  0.3945 -0.4585  2.4896
26747SOL     OW92299   6.436   7.298   7.340  0.0605  0.6367 -0.7595
26747SOL    HW192300   6.435   7.228   7.268 -0.4233  0.4716 -0.5954
26747SOL    HW292301   6.434   7.253   7.429 -0.3650  0.8638 -0.6555
26748SOL     OW92302   1.021   7.307   8.244 -0.0665 -0.1762  0.3903
26748SOL    HW192303   0.976   7.230   8.290 -0.4548  0.3500  0.9052
26748SOL    HW292304   0.997   7.307   8.147 -1.8415  0.5465  0.8059
26749SOL     OW92305   2.848   2.861   9.409 -0.2287 -0.3095 -0.2684
26749SOL    HW192306   2.850   2.805   9.326 -1.3786 -1.6688  0.6060
26749SOL    HW292307   2.757   2.901   9.420 -0.1817 -0.4285  0.5409
26750SOL     OW92308   4.462   8.005   4.971 -0.0448  0.1244 -0.4122
26750SOL    HW192309   4.559   7.984   4.986 -0.0306  1.2842  1.3155
26750SOL    HW292310   4.447   8.027   4.875  1.9230  2.4741 -0.2195
26751SOL     OW92311   1.035   2.667   4.621  0.3245  0.4561  0.1879
26751SOL    HW192312   1.036   2.717   4.708 -0.0622 -1.0018  1.0506
26751SOL    HW292313   1.128   2.655   4.588  0.5751 -0.1820  1.1109
26752SOL     OW92314   7.263   4.094   1.034 -0.1219  0.3512  0.5547
26752SOL    HW192315   7.286   4.127   1.125  0.0796  0.8696  0.3214
26752SOL    HW292316   7.197   4.019   1.041 -0.9010  1.0683  1.0900
26753SOL     OW92317   8.431   4.379   6.932 -0.2675  0.4067  0.3825
26753SOL    HW192318   8.397   4.461   6.886  1.9647 -0.1619 -2.3557
26753SOL    HW292319   8.528   4.390   6.951  0.2751 -1.9761 -0.8887
26754SOL     OW92320   9.635   1.935   1.835  0.0147  0.4605 -0.4864
26754SOL    HW192321   9.597   1.864   1.776  0.1633  0.7031 -0.8765
26754SOL    HW292322   9.621   2.025   1.793  1.9139  0.4768 -1.1368
26755SOL     OW92323   9.320   3.870   3.976  0.0614  0.2253  0.4438
26755SOL    HW192324   9.390   3.894   4.044  0.2129 -1.9822  1.1288
26755SOL    HW292325   9.316   3.770   3.967 -0.7230  0.4482 -2.0153
26756SOL     OW92326   4.827   6.499   4.425  0.2807 -0.2828 -0.1336
26756SOL    HW192327   4.789   6.580   4.469  2.0097  0.0131  0.8391
26756SOL    HW292328   4.776   6.480   4.341 -0.7626  1.2295  0.1427
26757SOL     OW92329   6.731   1.119   9.788  0.4252 -0.1217  0.1937
26757SOL    HW192330   6.642   1.163   9.774  0.3729 -0.2341  0.1713
26757SOL    HW292331   6.742   1.046   9.721  0.2701 -0.5146  0.5958
26758SOL     OW92332   8.652   3.177   0.398  0.4804 -0.0439 -0.1951
26758SOL    HW192333   8.581   3.106   0.402  0.7157 -0.2525  0.4072
26758SOL    HW292334   8.741   3.134   0.381  0.6084  0.1146  0.0693
26759SOL     OW92335   3.011   0.593   2.930  0.1778 -0.1016 -0.4124
26759SOL    HW192336   3.073   0.671   2.940 -0.2231  0.0847  0.6883
26759SOL    HW292337   3.064   0.508   2.935  0.2417  0.0306  1.5087
26760SOL     OW92338   9.223   9.109   7.002  0.1460  0.2343 -0.1077
26760SOL    HW192339   9.228   9.048   7.082  1.0188 -0.0964 -0.4079
26760SOL    HW292340   9.205   9.202   7.032  0.2795  0.0769  0.4645
26761SOL     OW92341   1.192   2.871   6.884  0.0748  0.5469 -0.5751
26761SOL    HW192342   1.180   2.968   6.905  0.4774  0.5923 -0.5501
26761SOL    HW292343   1.138   2.816   6.948  0.6946  0.7130  0.1004
26762SOL     OW92344   4.121   6.068   2.099 -0.3711 -0.2661 -0.2857
26762SOL    HW192345   4.194   6.068   2.167 -0.6921 -1.5028  0.0700
26762SOL    HW292346   4.041   6.019   2.135 -1.2014  0.6394 -0.8577
26763SOL     OW92347   6.527   0.924   5.932 -0.9161 -0.0886  0.2432
26763SOL    HW192348   6.450   0.944   5.992 -0.8553  1.2093 -0.0923
26763SOL    HW292349   6.604   0.890   5.987 -1.2896 -0.1267  0.7437
26764SOL     OW92350   4.083   2.668   9.692 -0.0152  0.3491 -0.4464
26764SOL    HW192351   4.124   2.578   9.705 -0.7621  0.0370 -0.2233
26764SOL    HW292352   4.099   2.725   9.773  1.6226  0.8829 -1.1311
26765SOL     OW92353   4.581   8.602   3.750  0.1871  0.3031  0.3017
26765SOL    HW192354   4.570   8.617   3.848  0.1716  1.8837  0.0764
26765SOL    HW292355   4.498   8.562   3.712 -0.3347  1.0207  0.6856
26766SOL     OW92356   8.534   9.781   7.715 -0.2987 -0.6922  0.7666
26766SOL    HW192357   8.449   9.740   7.682  0.8085 -1.5510 -1.0599
26766SOL    HW292358   8.552   9.865   7.665 -1.4482  0.9404  3.0273
26767SOL     OW92359   1.298   3.798   3.196  0.4931 -0.4566  0.5309
26767SOL    HW192360   1.334   3.706   3.179  2.0860  0.2071  0.2102
26767SOL    HW292361   1.300   3.850   3.110 -1.6552 -0.5367  0.4145
26768SOL     OW92362   3.122   4.328   7.289 -0.3633  0.1208  0.1385
26768SOL    HW192363   3.189   4.301   7.220 -0.6930  0.4404 -0.3110
26768SOL    HW292364   3.169   4.369   7.367 -0.1034  1.2030 -0.5835
26769SOL     OW92365   8.714   2.580   5.284 -0.2230 -0.3396  0.6070
26769SOL    HW192366   8.669   2.496   5.256  0.8972 -1.0296  0.8561
26769SOL    HW292367   8.765   2.564   5.368  0.5427  0.4166  0.2929
26770SOL     OW92368   3.363   2.612   8.331 -0.2084  0.2342 -0.8056
26770SOL    HW192369   3.419   2.536   8.298  0.9781  0.4762  0.6169
26770SOL    HW292370   3.412   2.698   8.314 -0.8957  0.5756 -1.0665
26771SOL     OW92371   9.811   3.584   9.354 -0.2496 -0.6904  0.1610
26771SOL    HW192372   9.860   3.670   9.339 -0.0304 -0.4652  2.0453
26771SOL    HW292373   9.877   3.508   9.360 -0.3418 -0.7970 -0.1553
26772SOL     OW92374   8.298   1.335   6.462  0.4269 -0.3012 -0.3558
26772SOL    HW192375   8.396   1.325   6.449  0.2436 -2.0097 -0.4877
26772SOL    HW292376   8.268   1.279   6.539 -0.5971 -0.5660 -0.9315
26773SOL     OW92377   9.328   4.497   5.306  0.9806  0.1413  0.1977
26773SOL    HW192378   9.326   4.397   5.304 -1.3634  0.1889 -1.0924
26773SOL    HW292379   9.305   4.529   5.398  1.8665 -0.4821  0.6499
26774SOL     OW92380   7.127   8.602   7.154 -0.4754  0.1085 -0.1437
26774SOL    HW192381   7.219   8.625   7.186 -0.3386 -0.5389 -0.0607
26774SOL    HW292382   7.081   8.684   7.121  0.4249  0.2949 -0.9373
26775SOL     OW92383   9.911   0.964   9.559 -0.2264 -0.2930 -0.4442
26775SOL    HW192384  10.008   0.963   9.534  0.0561 -0.0560  0.6229
26775SOL    HW292385   9.902   0.955   9.658 -1.1622  2.8241 -0.1808
26776SOL     OW92386   0.629   3.642   6.088 -0.2188  0.4887  0.3467
26776SOL    HW192387   0.680   3.715   6.135  1.4601 -0.3916 -0.0768
26776SOL    HW292388   0.542   3.679   6.055  0.8007  2.4480 -0.2494
26777SOL     OW92389   9.539   6.557   5.652  0.2597 -0.0841 -0.0507
26777SOL    HW192390   9.482   6.566   5.571 -0.0906 -1.7467 -0.0079
26777SOL    HW292391   9.635   6.550   5.624  0.2832  0.8749 -0.2250
26778SOL     OW92392   8.259   7.961   8.207 -0.0823 -0.3132 -0.0117
26778SOL    HW192393   8.245   7.969   8.108 -0.5490  2.1305  0.2211
26778SOL    HW292394   8.201   8.026   8.255  2.3943  0.7551  1.6864
26779SOL     OW92395   2.352   3.068   3.945  0.2669  0.1602  0.0631
26779SOL    HW192396   2.357   3.014   4.029 -0.3125  0.7535  0.4816
26779SOL    HW292397   2.257   3.084   3.921  0.4252 -0.5169 -1.0472
26780SOL     OW92398   0.166   3.711   4.362  0.2453  0.5051  0.2382
26780SOL    HW192399   0.136   3.792   4.313  0.5492 -0.5040 -1.6770
26780SOL    HW292400   0.218   3.738   4.443 -0.7191  2.2076  0.2949
26781SOL     OW92401   7.587   2.889   5.128  0.1273 -0.5418 -0.6422
26781SOL    HW192402   7.540   2.894   5.216 -0.5285  1.3816 -1.0656
26781SOL    HW292403   7.519   2.884   5.055  0.5887  1.2184 -1.2036
26782SOL     OW92404   1.669   1.978   0.047 -0.5078  0.4383 -0.4947
26782SOL    HW192405   1.580   2.023   0.037 -1.2963 -0.5599  1.7218
26782SOL    HW292406   1.660   1.881   0.025  0.4724  0.6745 -2.0557
26783SOL     OW92407   7.199   0.073   2.396  0.0306 -0.6326  0.0529
26783SOL    HW192408   7.245  -0.010   2.427  0.3616 -0.0587  1.1262
26783SOL    HW292409   7.104   0.051   2.371  0.9992 -1.9099 -2.6596
26784SOL     OW92410   2.773   1.387   4.795 -0.5268 -0.6984  0.8813
26784SOL    HW192411   2.698   1.384   4.729 -0.0097  0.8755  0.1779
26784SOL    HW292412   2.824   1.301   4.792 -0.1004 -0.3978 -1.2777
26785SOL     OW92413   4.902   9.873   5.865 -0.4001  0.4523 -0.3549
26785SOL    HW192414   4.879   9.932   5.788  0.7558  1.4598  0.0741
26785SOL    HW292415   4.821   9.818   5.889 -1.3157  1.4575 -1.0851
26786SOL     OW92416   9.005   7.044   7.791  0.0430  0.0529  0.3304
26786SOL    HW192417   8.955   7.017   7.709 -0.5894 -0.6836  0.9543
26786SOL    HW292418   9.081   7.104   7.765 -0.9429  0.9076 -0.6584
26787SOL     OW92419   9.631   2.595   0.227  0.1818 -0.4133  0.7762
26787SOL    HW192420   9.532   2.591   0.221  0.1756 -2.3245  1.7196
26787SOL    HW292421   9.658   2.617   0.321  0.6258  3.3138 -0.1715
26788SOL     OW92422   8.739   6.110   5.248  0.0708 -0.2902 -0.0604
26788SOL    HW192423   8.695   6.185   5.296 -0.6038 -1.3620  1.0089
26788SOL    HW292424   8.827   6.090   5.290 -2.5366 -4.3665  3.9296
26789SOL     OW92425   0.197   4.500   3.627 -0.3250  0.5229 -0.9816
26789SOL    HW192426   0.198   4.536   3.534  2.6721 -0.7678 -1.5240
26789SOL    HW292427   0.228   4.572   3.690 -0.9967  0.9646 -1.1507
26790SOL     OW92428   9.323   3.077   3.632 -0.7050  0.4418  0.1321
26790SOL    HW192429   9.235   3.069   3.585 -0.8747  2.1868  0.1327
26790SOL    HW292430   9.377   3.151   3.591  0.0504  0.5327  1.2640
26791SOL     OW92431   8.462   9.410   7.687 -0.4272  0.3404 -0.1540
26791SOL    HW192432   8.498   9.419   7.780  1.1943 -0.2763 -0.7084
26791SOL    HW292433   8.405   9.490   7.666 -0.3566  0.7575  1.1599
26792SOL     OW92434   9.007   5.165   2.836  0.5393 -0.1351  0.5497
26792SOL    HW192435   9.084   5.228   2.824  1.1954 -0.9286  0.5599
26792SOL    HW292436   9.031   5.076   2.798 -0.4236 -0.3558  0.4464
26793SOL     OW92437   8.610   3.966   2.523  0.1248 -0.8851  0.0940
26793SOL    HW192438   8.682   3.906   2.557  1.4963  1.5056  1.6031
26793SOL    HW292439   8.543   3.981   2.595  0.2592  0.0407  0.0379
26794SOL     OW92440   6.623   3.357   3.856  0.4239 -0.7611 -0.1947
26794SOL    HW192441   6.561   3.430   3.826  2.0428  0.2095 -1.2515
26794SOL    HW292442   6.675   3.388   3.936 -0.1396 -1.4189  0.4339
26795SOL     OW92443   9.551   2.294   9.822  0.0450 -0.2283 -0.2096
26795SOL    HW192444   9.530   2.269   9.917 -1.1397 -1.6154 -0.8182
26795SOL    HW292445   9.530   2.217   9.762 -0.8734  1.2475 -1.8044
26796SOL     OW92446   7.079   6.807   9.901  0.3635  0.0048  0.1060
26796SOL    HW192447   6.995   6.756   9.916  1.5903 -1.1540  3.5965
26796SOL    HW292448   7.134   6.762   9.831 -0.6038 -0.8464 -0.1121
26797SOL     OW92449   0.239   5.416   8.629 -0.6234  0.0327 -0.7648
26797SOL    HW192450   0.336   5.439   8.636 -0.8453  0.8544 -0.2387
26797SOL    HW292451   0.217   5.344   8.695 -0.2246 -0.6679 -1.3946
26798SOL     OW92452   3.510   4.829   1.939 -0.3342  0.4532 -0.2770
26798SOL    HW192453   3.507   4.853   2.036 -0.1346  1.1311 -0.4302
26798SOL    HW292454   3.466   4.741   1.924  0.5316 -0.1380  0.5775
26799SOL     OW92455   9.536   4.508   3.066 -0.1452  0.1225  0.1453
26799SOL    HW192456   9.578   4.544   2.983 -0.8156 -0.5160 -0.4837
26799SOL    HW292457   9.451   4.557   3.085 -0.0902  0.1409  0.3521
26800SOL     OW92458   9.183   2.178   9.603 -0.5840 -0.3599  0.1439
26800SOL    HW192459   9.164   2.184   9.506 -0.6464  0.7765  0.2264
26800SOL    HW292460   9.282   2.174   9.617 -0.5066  1.2446  0.1220
26801SOL     OW92461   8.427   8.557   6.640 -0.3491 -0.1986  0.6473
26801SOL    HW192462   8.389   8.471   6.673 -0.8030 -0.0384  0.5512
26801SOL    HW292463   8.525   8.546   6.623 -0.6411 -1.0478 -0.5609
26802SOL     OW92464   0.904   2.072   5.335  0.1512  0.8331 -0.3167
26802SOL    HW192465   0.858   2.102   5.251 -2.3708 -1.0376  0.3535
26802SOL    HW292466   0.991   2.028   5.312 -0.2020  0.9329 -1.8872
26803SOL     OW92467   5.603   0.859   3.250  0.3027  0.8124  0.4950
26803SOL    HW192468   5.601   0.770   3.295  0.4807  1.2661  1.4061
26803SOL    HW292469   5.526   0.915   3.282  0.2150  1.0058 -0.0399
26804SOL     OW92470   8.588   3.200   3.903  0.3349 -0.2887  0.1066
26804SOL    HW192471   8.649   3.263   3.856  0.7747 -0.2928  0.6769
26804SOL    HW292472   8.595   3.109   3.860 -0.4184  0.0732 -0.8148
26805SOL     OW92473   7.554   9.211   4.498  0.2793  0.4096 -0.2569
26805SOL    HW192474   7.561   9.216   4.398 -1.8393  0.3495 -0.4324
26805SOL    HW292475   7.469   9.254   4.528  0.1603 -0.9157  1.3939
26806SOL     OW92476   4.098   3.530   1.938 -0.6902  0.3166 -0.0808
26806SOL    HW192477   4.161   3.516   1.861 -0.5557  1.6600 -0.2241
26806SOL    HW292478   4.150   3.540   2.023 -0.7418  0.8331 -0.1105
26807SOL     OW92479   8.060   5.722   4.108  0.2984 -0.1647  0.0791
26807SOL    HW192480   8.067   5.626   4.136 -0.4153 -0.0756  0.5956
26807SOL    HW292481   8.150   5.765   4.114  0.5986 -0.7708 -0.0307
26808SOL     OW92482   9.113   7.633   7.186  0.1627 -0.2669  0.0434
26808SOL    HW192483   9.044   7.562   7.175 -1.4539  1.2721  0.0174
26808SOL    HW292484   9.068   7.722   7.197  2.1474  0.8240 -0.3938
26809SOL     OW92485   7.036   5.033   5.783  0.0435 -0.2741 -0.0509
26809SOL    HW192486   7.105   4.967   5.812  0.7151  0.9368  1.2016
26809SOL    HW292487   7.080   5.121   5.763 -0.8901 -0.0605 -1.1777
26810SOL     OW92488   2.862   4.327   7.400  0.6673 -0.2462  0.5310
26810SOL    HW192489   2.951   4.310   7.358  0.1600 -0.4178 -0.4832
26810SOL    HW292490   2.841   4.252   7.463  0.7528 -0.7763 -0.0595
26811SOL     OW92491   7.673   2.620   4.874 -0.6454 -0.0462 -0.0012
26811SOL    HW192492   7.614   2.573   4.940  0.7718 -3.0145 -0.7638
26811SOL    HW292493   7.651   2.589   4.782  1.2057 -0.2038 -0.4075
26812SOL     OW92494   0.982   3.445   4.692  0.3143 -0.2202  0.3681
26812SOL    HW192495   0.909   3.395   4.645  2.8344 -2.9179 -0.8896
26812SOL    HW292496   1.019   3.515   4.631 -1.5602  1.5641  1.2247
26813SOL     OW92497   4.879   2.360   6.365  0.3147 -0.8380  0.2529
26813SOL    HW192498   4.949   2.313   6.420  0.0986 -0.2378  1.0462
26813SOL    HW292499   4.906   2.456   6.353  0.4742 -1.0257 -0.8891
26814SOL     OW92500   1.372   5.017   0.516 -0.3422  0.0341 -0.5379
26814SOL    HW192501   1.457   5.017   0.464 -0.8691 -2.5616 -1.4935
26814SOL    HW292502   1.296   5.042   0.456 -0.4112  1.1232  0.0059
26815SOL     OW92503   6.621   3.777   6.593  0.2136  0.6120  0.2668
26815SOL    HW192504   6.698   3.744   6.539  0.5547  0.5274  0.8022
26815SOL    HW292505   6.605   3.874   6.573  1.0475  0.8748  0.8367
26816SOL     OW92506   9.354   7.525   5.467  0.1520  0.1471  0.1373
26816SOL    HW192507   9.261   7.535   5.501  0.2168 -0.3131  0.4447
26816SOL    HW292508   9.398   7.446   5.510  0.1085 -0.6651 -1.3001
26817SOL     OW92509   9.488   2.555   9.930  0.2978  0.0297  0.2945
26817SOL    HW192510   9.563   2.560   9.995 -0.5620  0.5923  1.2585
26817SOL    HW292511   9.501   2.476   9.870 -1.0259 -2.9587  3.7764
26818SOL     OW92512   1.999   9.624   6.269  0.0107 -0.6379  0.3119
26818SOL    HW192513   1.928   9.616   6.339 -0.1798  1.3102  0.3709
26818SOL    HW292514   1.956   9.644   6.181  0.3622 -1.5661 -0.0803
26819SOL     OW92515   9.290   8.355   5.061 -0.7252 -0.0667 -0.1535
26819SOL    HW192516   9.342   8.420   5.116 -0.6731  0.1208 -0.4250
26819SOL    HW292517   9.341   8.269   5.055 -0.6709 -0.0451 -0.0152
26820SOL     OW92518   6.208   0.320   8.021 -0.0763  0.2825  0.1195
26820SOL    HW192519   6.109   0.325   8.010 -0.1072 -0.2573  0.1248
26820SOL    HW292520   6.252   0.369   7.946 -0.3407 -0.0701 -0.2693
26821SOL     OW92521   0.489   1.232   4.870  0.3805 -0.9389  0.4916
26821SOL    HW192522   0.416   1.300   4.868  0.3881 -0.9566 -0.5962
26821SOL    HW292523   0.507   1.205   4.965 -0.2715 -0.1308  0.8487
26822SOL     OW92524   3.248   9.446   7.058  0.3438  0.2483  0.2011
26822SOL    HW192525   3.274   9.423   6.965  2.5699 -1.3387  1.1555
26822SOL    HW292526   3.262   9.544   7.073  0.7267  0.3700 -0.9049
26823SOL     OW92527   1.770   4.437   0.302  0.6569  0.0498  0.3226
26823SOL    HW192528   1.715   4.435   0.385  1.4311 -1.4681  0.8215
26823SOL    HW292529   1.715   4.403   0.225 -0.3478  2.3207  0.0169
26824SOL     OW92530   0.639   1.703   8.827 -0.2303  0.3104  0.0705
26824SOL    HW192531   0.735   1.718   8.803 -0.2922 -0.2522 -0.5450
26824SOL    HW292532   0.596   1.645   8.757 -0.0159 -2.6230  2.2946
26825SOL     OW92533   9.618   6.569   0.224 -0.0937  0.7070 -0.1259
26825SOL    HW192534   9.610   6.623   0.308  1.4308  0.9370 -0.1116
26825SOL    HW292535   9.549   6.497   0.224 -1.2702  1.8218  0.4799
26826SOL     OW92536   9.331   2.745   4.959  0.1280  0.4757 -0.2712
26826SOL    HW192537   9.253   2.713   5.012  2.0009 -0.1630  2.2041
26826SOL    HW292538   9.414   2.741   5.015  1.4782  3.9622 -1.8268
26827SOL     OW92539   2.982   8.231   9.708  0.0464  0.9867  0.3467
26827SOL    HW192540   2.955   8.321   9.676  2.4977  2.7289  2.9674
26827SOL    HW292541   2.967   8.223   9.806  0.6032 -1.1731  0.2994
26828SOL     OW92542   8.860   4.685   3.739  0.0228  0.4782 -0.3527
26828SOL    HW192543   8.804   4.604   3.722 -0.4608  0.4571  1.3047
26828SOL    HW292544   8.955   4.657   3.750 -0.0703  0.1914 -0.2607
26829SOL     OW92545   6.133   5.712   7.777  0.4588 -0.3836 -0.0457
26829SOL    HW192546   6.142   5.742   7.872  0.3427  2.2435 -0.8335
26829SOL    HW292547   6.156   5.615   7.771  3.0115  0.0143  2.2345
26830SOL     OW92548   1.459   3.866   8.463 -0.0641  0.4469  0.5898
26830SOL    HW192549   1.424   3.845   8.371 -0.5804  1.5175  0.5210
26830SOL    HW292550   1.430   3.959   8.488 -0.8719 -0.2473  2.2942
26831SOL     OW92551   3.965   5.579   1.470 -0.3399  0.1208  0.9113
26831SOL    HW192552   4.003   5.486   1.463 -2.6501 -0.7846 -0.4409
26831SOL    HW292553   3.968   5.610   1.565  1.3377 -0.9595  1.2224
26832SOL     OW92554   5.463   4.528   4.563 -0.2071 -0.3824 -0.2882
26832SOL    HW192555   5.448   4.430   4.559  0.9162 -0.5633 -0.1310
26832SOL    HW292556   5.523   4.556   4.488 -1.0652  0.2922 -0.7428
26833SOL     OW92557   8.908   5.239   7.171 -0.0960 -0.3883 -0.2914
26833SOL    HW192558   8.949   5.241   7.263 -0.0406  2.3320 -0.3357
26833SOL    HW292559   8.828   5.180   7.172 -0.7704  0.4930  1.8428
26834SOL     OW92560   8.220   5.404   5.683  0.4780  0.5326  0.2904
26834SOL    HW192561   8.285   5.461   5.633 -1.8138  2.3271 -0.7393
26834SOL    HW292562   8.148   5.462   5.722 -1.7696 -1.6256 -0.5559
26835SOL     OW92563   1.295   0.151   9.934 -0.2373  0.3814 -0.2692
26835SOL    HW192564   1.365   0.082   9.950 -0.9456 -0.3893 -0.4888
26835SOL    HW292565   1.292   0.173   9.836 -0.2194  0.5110 -0.2419
26836SOL     OW92566   6.070   7.034   2.983 -0.4005 -0.0141 -0.1747
26836SOL    HW192567   5.970   7.032   2.981 -0.3978  0.6969 -1.4540
26836SOL    HW292568   6.100   7.116   3.032 -0.4283 -1.1176  1.7468
26837SOL     OW92569   7.204   2.494   9.680 -0.0252  0.0648 -0.2975
26837SOL    HW192570   7.291   2.498   9.632 -0.7241  0.4053 -1.5659
26837SOL    HW292571   7.129   2.498   9.614 -1.0059 -2.0101  0.6320
26838SOL     OW92572   2.883   2.239   8.406 -0.3027  0.0029  0.5578
26838SOL    HW192573   2.868   2.268   8.312 -0.3208 -1.9488 -0.0798
26838SOL    HW292574   2.911   2.317   8.461 -1.6289  1.4430 -0.7478
26839SOL     OW92575   6.461   3.312   1.929  0.7684  0.5207 -0.3685
26839SOL    HW192576   6.405   3.230   1.920 -0.7646  1.6050 -1.0585
26839SOL    HW292577   6.489   3.323   2.024 -2.1329  1.1638  0.4701
26840SOL     OW92578   4.995   2.300   4.314 -0.8404  0.1715 -0.2693
26840SOL    HW192579   4.912   2.330   4.362 -1.3064 -1.2840 -0.1389
26840SOL    HW292580   5.003   2.351   4.228 -0.2541  2.4433  1.1026
26841SOL     OW92581   7.851   9.214   8.295  0.1822  0.1802 -0.2949
26841SOL    HW192582   7.799   9.294   8.266  0.8157  0.5750 -0.3477
26841SOL    HW292583   7.826   9.136   8.238 -1.2141  0.0727  0.4426
26842SOL     OW92584   1.937   2.009   5.174 -0.1383 -0.6359  0.3362
26842SOL    HW192585   1.890   1.976   5.093  0.9613 -0.0215 -0.5637
26842SOL    HW292586   2.036   2.000   5.161  0.2012  2.7500  0.1554
26843SOL     OW92587   3.732   0.668   5.045  0.8334  0.0481  0.1391
26843SOL    HW192588   3.706   0.742   5.107  1.2590  1.2386 -1.0991
26843SOL    HW292589   3.649   0.627   5.006  0.6754  2.2169 -1.9009
26844SOL     OW92590   7.088   5.548   6.365 -0.1822  0.4234 -0.4573
26844SOL    HW192591   7.006   5.500   6.397 -0.0586  0.3666 -0.2274
26844SOL    HW292592   7.061   5.623   6.305 -0.3141 -0.9525 -2.1763
26845SOL     OW92593   6.449   2.147   9.856 -0.1132 -0.4550 -0.5957
26845SOL    HW192594   6.445   2.053   9.888  0.4466  0.1469  1.3153
26845SOL    HW292595   6.464   2.208   9.934 -0.4801  1.2145 -1.8073
26846SOL     OW92596   1.511   1.312   6.785  0.1281 -0.0222  0.1303
26846SOL    HW192597   1.608   1.294   6.767 -0.2832 -1.5223 -0.6737
26846SOL    HW292598   1.501   1.360   6.872  1.6041  0.3125  0.1203
26847SOL     OW92599   0.091   4.091   2.748 -0.5085  0.1476  0.2533
26847SOL    HW192600   0.126   4.133   2.831  1.6801  1.4694 -1.2949
26847SOL    HW292601   0.147   4.011   2.726  0.6852  1.4039 -1.4135
26848SOL     OW92602   3.411   1.298   8.562  0.0878 -0.2094 -0.1533
26848SOL    HW192603   3.464   1.273   8.643 -0.2169  0.1005  0.1437
26848SOL    HW292604   3.316   1.272   8.575 -0.1544  0.7409 -0.0083
26849SOL     OW92605   4.147   9.308   8.575  0.3134  0.2994  0.2067
26849SOL    HW192606   4.205   9.341   8.501 -1.3661  1.3645 -0.6488
26849SOL    HW292607   4.193   9.324   8.663  1.5345  0.6568 -0.4917
26850SOL     OW92608   0.311   8.242   2.512  0.2564 -0.0450 -0.4473
26850SOL    HW192609   0.372   8.310   2.553  0.2517 -1.1832  1.4591
26850SOL    HW292610   0.366   8.168   2.474  0.0973 -0.5348  0.2923
26851SOL     OW92611   6.433   2.169   9.578  0.4987  0.5855  0.1782
26851SOL    HW192612   6.435   2.078   9.537  0.4130 -0.0252  1.5205
26851SOL    HW292613   6.437   2.161   9.678  1.1841  2.0759  0.2809
26852SOL     OW92614   9.809   8.539   0.149  0.0066 -0.6595  0.1055
26852SOL    HW192615   9.791   8.631   0.184 -2.3101 -0.0418 -2.5991
26852SOL    HW292616   9.870   8.544   0.070  0.4015 -1.5212  0.3422
26853SOL     OW92617   8.506   2.201   1.947  0.2055 -0.2534  0.2293
26853SOL    HW192618   8.411   2.191   1.919  0.0860 -0.1858  0.6012
26853SOL    HW292619   8.549   2.273   1.893  0.8151 -2.1181 -1.8085
26854SOL     OW92620   3.380   1.348   0.208  0.2043  0.2338  0.2490
26854SOL    HW192621   3.474   1.319   0.191  0.5366  1.4865 -0.0805
26854SOL    HW292622   3.349   1.406   0.133 -0.6715  0.2089  0.5884
26855SOL     OW92623   1.972   1.081   7.904 -0.2209  0.0625 -0.2443
26855SOL    HW192624   1.963   1.008   7.971  0.7099 -0.2310 -0.4262
26855SOL    HW292625   1.982   1.169   7.951 -0.4987 -0.0313 -0.0135
26856SOL     OW92626   2.296   4.945   5.200  0.2395 -0.3999 -0.1365
26856SOL    HW192627   2.386   4.943   5.242  0.4164 -1.2343 -0.5545
26856SOL    HW292628   2.285   4.866   5.140 -0.3905  0.2416 -0.8762
26857SOL     OW92629   6.664   9.608   7.071 -0.7336 -0.7602 -0.3991
26857SOL    HW192630   6.705   9.610   6.980  1.5923 -0.7403  0.6138
26857SOL    HW292631   6.688   9.522   7.116 -1.5223 -0.5860  0.3743
26858SOL     OW92632   8.695   5.635   6.130 -0.0882  0.2473  0.0100
26858SOL    HW192633   8.729   5.631   6.224  1.7200 -0.6588 -0.6738
26858SOL    HW292634   8.736   5.561   6.076 -2.0604 -0.0071 -1.1923
26859SOL     OW92635   3.917   5.478   9.173 -0.3471  0.0149  0.0687
26859SOL    HW192636   3.960   5.424   9.246 -0.8965 -0.3653  0.1134
26859SOL    HW292637   3.976   5.555   9.150  0.2747 -0.3935  0.2646
26860SOL     OW92638   2.276   9.570   5.191 -0.3968 -0.1842 -0.1859
26860SOL    HW192639   2.185   9.529   5.181 -1.3070  1.6771  0.0710
26860SOL    HW292640   2.312   9.594   5.101 -0.7056  0.1867 -0.2132
26861SOL     OW92641   8.113   4.503   7.002  0.1903 -0.3490 -0.0401
26861SOL    HW192642   8.130   4.414   7.044  1.0446  0.3735  1.1685
26861SOL    HW292643   8.020   4.533   7.025  0.5293 -0.1194  1.0623
26862SOL     OW92644   7.349   0.701   0.905  0.5107  0.1190  0.3664
26862SOL    HW192645   7.257   0.709   0.867  0.6751 -1.4380 -0.3949
26862SOL    HW292646   7.407   0.772   0.866 -0.1076  0.4714  0.0749
26863SOL     OW92647   3.601   1.266   1.164 -0.8669  0.0472  0.1670
26863SOL    HW192648   3.628   1.192   1.103 -1.5045  1.5685 -1.9893
26863SOL    HW292649   3.533   1.232   1.229 -0.3064 -1.5339 -0.0473
26864SOL     OW92650   8.098   4.772   7.182  0.2182  0.1118 -0.2348
26864SOL    HW192651   8.018   4.823   7.213 -0.4409  0.3325 -2.2688
26864SOL    HW292652   8.156   4.750   7.261 -1.0138  1.3593  1.0416
26865SOL     OW92653   6.690   8.243   9.431 -0.1812  0.7430  0.7065
26865SOL    HW192654   6.650   8.279   9.515 -2.8061 -0.4778  0.0195
26865SOL    HW292655   6.680   8.144   9.429  0.6220  0.6753 -0.6688
26866SOL     OW92656   3.800   9.092   8.586  0.3919  0.3198 -0.3370
26866SOL    HW192657   3.850   9.124   8.507  0.1104  1.9660  0.1343
26866SOL    HW292658   3.863   9.077   8.662  0.5565 -0.4850 -0.6314
26867SOL     OW92659   7.851   1.534   3.207  0.1685 -0.0476  0.5026
26867SOL    HW192660   7.807   1.498   3.124 -0.7781  1.3254  0.3995
26867SOL    HW292661   7.783   1.544   3.279  0.4186  1.5270  0.5313
26868SOL     OW92662   0.558   0.682   5.867  0.5696  0.5319 -0.0029
26868SOL    HW192663   0.491   0.647   5.931  1.2711 -0.8583  0.0075
26868SOL    HW292664   0.554   0.782   5.864 -1.0771  0.4812  0.4220
26869SOL     OW92665   7.091   6.297   8.082 -0.6172  0.1654  0.3829
26869SOL    HW192666   7.136   6.217   8.123 -0.3721  0.4530  0.6858
26869SOL    HW292667   7.118   6.379   8.132 -0.7806  0.4524  0.0052
26870SOL     OW92668   8.700   1.076   6.561 -0.0495 -0.2832 -0.0663
26870SOL    HW192669   8.713   1.032   6.473  0.4903  0.0611 -0.1639
26870SOL    HW292670   8.736   1.170   6.558  3.5257 -1.4756  1.5940
26871SOL     OW92671   3.671   3.213   1.279  0.0764 -0.1637  0.2666
26871SOL    HW192672   3.696   3.119   1.302 -0.7058 -0.7965 -1.3578
26871SOL    HW292673   3.753   3.263   1.249  0.2703 -0.7489 -0.1978
26872SOL     OW92674   7.242   9.433   6.732 -0.3808 -0.1059 -0.0023
26872SOL    HW192675   7.156   9.405   6.688 -1.1117 -0.6958  1.7259
26872SOL    HW292676   7.233   9.420   6.831  1.6621 -0.0075  0.1999
26873SOL     OW92677   6.055   4.823   9.285 -0.4871  0.3621  0.0615
26873SOL    HW192678   5.990   4.818   9.361  0.0408 -0.2945  0.4674
26873SOL    HW292679   6.146   4.843   9.320 -0.8014  3.2957 -0.6776
26874SOL     OW92680   6.153   3.614   0.754 -0.0351  0.5143  0.0458
26874SOL    HW192681   6.163   3.525   0.709 -0.3037  0.2389  0.5309
26874SOL    HW292682   6.197   3.611   0.843 -0.9327  0.5541  0.4934
26875SOL     OW92683   2.916   8.157   6.657  0.1874  0.4117 -0.0556
26875SOL    HW192684   2.923   8.108   6.570  0.8158  0.6698 -0.1533
26875SOL    HW292685   2.846   8.229   6.648  0.4025  0.5785 -0.4157
26876SOL     OW92686   5.629   7.554   3.362 -0.0498  0.2617 -0.0655
26876SOL    HW192687   5.544   7.586   3.320 -0.0883  0.2674  0.0151
26876SOL    HW292688   5.638   7.595   3.453  0.4661  0.9437 -0.4143
26877SOL     OW92689   4.562   7.620   1.039 -0.3973  0.0457 -0.1729
26877SOL    HW192690   4.506   7.659   1.112 -0.1349  1.1282 -0.5456
26877SOL    HW292691   4.503   7.570   0.976 -0.7752  0.0746  0.1571
26878SOL     OW92692   0.214   4.304   9.372  0.0465 -0.3348 -0.2040
26878SOL    HW192693   0.252   4.255   9.451 -0.8597 -0.4156  0.1902
26878SOL    HW292694   0.165   4.386   9.404  0.5943  0.2150 -0.7696
26879SOL     OW92695   7.802   2.681   5.191 -0.2408 -0.1264  0.1426
26879SOL    HW192696   7.733   2.738   5.147  0.2053  1.3510  1.2846
26879SOL    HW292697   7.860   2.638   5.122 -1.9683 -0.9648 -0.7996
26880SOL     OW92698   0.988   2.907   9.582  0.2045  0.4791  0.8865
26880SOL    HW192699   0.934   2.969   9.639  0.2338 -0.6970  2.2318
26880SOL    HW292700   0.935   2.824   9.562  0.5978  0.4075  0.1111
26881SOL     OW92701   0.668   0.406   1.644 -0.6395 -0.0745  0.3913
26881SOL    HW192702   0.598   0.336   1.661 -0.6884 -0.0361  0.3489
26881SOL    HW292703   0.680   0.462   1.726  0.4060 -1.0274  0.8980
26882SOL     OW92704   0.834   3.395   0.873 -0.3668 -0.2623 -0.3278
26882SOL    HW192705   0.785   3.421   0.956 -3.5419  1.7871 -2.7128
26882SOL    HW292706   0.876   3.306   0.885 -2.7955 -1.0671  2.6494
26883SOL     OW92707   0.962   2.090   2.617  0.2478 -0.1866  0.1586
26883SOL    HW192708   0.978   2.178   2.571 -1.0778  0.1583  0.3369
26883SOL    HW292709   0.877   2.050   2.583  0.0925 -0.7071  1.1489
26884SOL     OW92710   6.990   0.517   3.988  0.4081  0.1245  0.3258
26884SOL    HW192711   7.036   0.565   4.063  0.4080  0.2511  0.2452
26884SOL    HW292712   7.055   0.497   3.915  0.2717  0.6057  0.0637
26885SOL     OW92713   7.052   4.731   7.830 -0.2381  0.2914 -0.0384
26885SOL    HW192714   7.080   4.637   7.847  1.0161  0.6630 -0.0247
26885SOL    HW292715   6.961   4.732   7.787  0.0696 -0.9483 -0.7293
26886SOL     OW92716   4.615   0.582   3.692  0.6605  0.1660 -0.4068
26886SOL    HW192717   4.669   0.584   3.776 -0.7231  3.1448  0.4662
26886SOL    HW292718   4.518   0.574   3.714  0.3156  0.5795 -1.7146
26887SOL     OW92719   2.903   7.189   0.993 -0.0865  0.1847 -0.4447
26887SOL    HW192720   2.951   7.274   0.971  1.5077 -0.8205 -0.9446
26887SOL    HW292721   2.915   7.123   0.918 -0.9694 -0.6227  0.1083
26888SOL     OW92722   6.075   0.291   9.157  0.0947  0.3740 -0.2689
26888SOL    HW192723   6.069   0.253   9.065 -1.1644 -0.9318  0.3252
26888SOL    HW292724   6.048   0.387   9.155 -1.5237 -0.0757 -1.0131
26889SOL     OW92725   7.966   1.149   5.814 -0.1434 -0.0458  0.3359
26889SOL    HW192726   7.972   1.050   5.805  0.7681  0.3447 -4.0913
26889SOL    HW292727   8.056   1.186   5.836  0.0279  0.0357 -0.5161
26890SOL     OW92728   8.096   1.729   0.051 -0.3566  0.9200 -0.1122
26890SOL    HW192729   8.192   1.756   0.052 -0.3005  0.8043  2.6665
26890SOL    HW292730   8.060   1.734   0.144 -2.7689 -0.0018 -0.9764
26891SOL     OW92731   6.078   7.344   7.546 -0.0530 -0.7382 -0.3942
26891SOL    HW192732   6.016   7.406   7.498 -0.7894 -1.3986 -0.3034
26891SOL    HW292733   6.028   7.262   7.574  0.6691 -0.9118  0.3988
26892SOL     OW92734   8.427   7.145   8.990  0.0797 -0.0918  0.0013
26892SOL    HW192735   8.501   7.120   9.053  0.2073 -0.1393 -0.1657
26892SOL    HW292736   8.398   7.239   9.008  0.9213  0.3068 -0.6373
26893SOL     OW92737   9.396   6.023   7.891  0.3622  0.8448  0.0672
26893SOL    HW192738   9.341   5.964   7.831 -0.3607  0.2089  1.3471
26893SOL    HW292739   9.390   5.989   7.985  0.5470  2.5305  0.6905
26894SOL     OW92740   2.500   2.754   5.173  0.2712  0.1432  0.2238
26894SOL    HW192741   2.433   2.797   5.112  0.3966 -0.8183 -0.5920
26894SOL    HW292742   2.569   2.706   5.119  1.3195  0.6632  1.0771
26895SOL     OW92743   2.230   5.871   8.158 -0.3455  0.1925 -0.2974
26895SOL    HW192744   2.237   5.829   8.248 -2.4890  1.4861  0.5004
26895SOL    HW292745   2.283   5.956   8.156 -1.4432  0.8988  0.2086
26896SOL     OW92746   0.969   8.210   2.320  0.0375 -0.3389  0.0541
26896SOL    HW192747   0.885   8.169   2.285 -0.3067  0.5935 -0.2300
26896SOL    HW292748   1.045   8.191   2.258 -0.3458  0.3787 -0.6434
26897SOL     OW92749   8.728   4.661   6.476 -0.6733  0.4838 -0.1363
26897SOL    HW192750   8.666   4.738   6.489 -1.9503 -0.5566  0.0355
26897SOL    HW292751   8.676   4.576   6.477  0.3498 -0.2413 -2.8515
26898SOL     OW92752   3.774   3.215   4.818  0.0382 -0.3145 -0.1019
26898SOL    HW192753   3.789   3.137   4.757 -0.5636 -0.8818  0.4627
26898SOL    HW292754   3.825   3.200   4.903 -0.0080 -0.0459 -0.0282
26899SOL     OW92755   0.134   4.154   1.715  0.8420  0.7033  0.0486
26899SOL    HW192756   0.193   4.213   1.770  2.5609  1.3359 -2.3637
26899SOL    HW292757   0.141   4.181   1.619  0.0177 -2.0563 -0.8310
26900SOL     OW92758   9.329   0.548   9.954  0.1756  0.1327 -0.3530
26900SOL    HW192759   9.275   0.482  10.006 -0.2030 -0.3567 -1.3553
26900SOL    HW292760   9.270   0.593   9.887  0.5679  1.0513 -0.0806
26901SOL     OW92761   5.536   0.092   7.689  0.8752 -0.1416  0.0792
26901SOL    HW192762   5.602   0.132   7.754  1.9571  0.9623 -1.6413
26901SOL    HW292763   5.451   0.145   7.692  1.1271  0.2652  0.1796
26902SOL     OW92764   2.523   9.344   0.884  0.7120 -0.0562 -0.6300
26902SOL    HW192765   2.430   9.377   0.898  0.5195 -0.8654  0.0195
26902SOL    HW292766   2.583   9.378   0.956  0.7655 -0.1548 -0.6274
26903SOL     OW92767   0.272   3.023   9.277  0.0680 -0.6276 -0.3104
26903SOL    HW192768   0.327   2.998   9.197  0.4252  1.3714 -0.7057
26903SOL    HW292769   0.265   3.122   9.284  1.2979 -0.6884  2.9983
26904SOL     OW92770   5.065   3.970   1.110 -0.6704  0.1645 -0.7362
26904SOL    HW192771   5.096   4.056   1.069  0.1909  0.8095  1.2135
26904SOL    HW292772   5.020   3.914   1.040  0.7650  1.2160 -2.5470
26905SOL     OW92773   8.230   1.931   9.543  0.5966  0.0342 -0.2825
26905SOL    HW192774   8.328   1.916   9.528  1.0509  1.8667  0.6720
26905SOL    HW292775   8.217   2.019   9.589 -1.5488  0.0580 -0.9030
26906SOL     OW92776   9.311   3.657   1.146 -0.7069 -0.4091 -0.0689
26906SOL    HW192777   9.350   3.641   1.056  1.6622  1.7725  0.5328
26906SOL    HW292778   9.381   3.644   1.216 -2.1050 -0.4739  1.3531
26907SOL     OW92779   9.959   6.308   8.584  0.3180 -0.2710  0.7163
26907SOL    HW192780   9.932   6.311   8.487 -1.7745 -1.4967  1.2236
26907SOL    HW292781   9.942   6.397   8.625  0.5526  0.0557  0.1147
26908SOL     OW92782   0.420   3.049   7.258 -0.1518 -0.3478 -0.1116
26908SOL    HW192783   0.400   2.999   7.342 -0.6609  0.2551  0.1307
26908SOL    HW292784   0.458   3.139   7.280 -0.8371  0.0446 -0.5148
26909SOL     OW92785   3.626   4.922   0.083  0.1169 -0.2918 -0.1150
26909SOL    HW192786   3.691   4.984   0.127  0.7110 -0.4599 -0.7408
26909SOL    HW292787   3.576   4.871   0.152 -1.9074  2.4010  0.4908
26910SOL     OW92788   3.679   5.492   0.264  0.1824 -0.0584  0.4088
26910SOL    HW192789   3.752   5.506   0.330 -0.0905 -0.1213  0.7222
26910SOL    HW292790   3.655   5.580   0.222  1.6123 -0.2928 -0.9419
26911SOL     OW92791   7.644   3.819   9.399 -0.2610  0.1339  0.4169
26911SOL    HW192792   7.659   3.826   9.497 -0.5504  0.6005  0.4261
26911SOL    HW292793   7.550   3.792   9.381 -0.6929  1.7209  0.2236
26912SOL     OW92794   2.161   1.410   2.855 -0.4999  0.1010  0.3669
26912SOL    HW192795   2.180   1.334   2.918  0.5424 -0.5112 -0.6494
26912SOL    HW292796   2.184   1.381   2.762 -0.7303  1.4523 -0.1096
26913SOL     OW92797   1.193   5.204   6.368 -0.2697  0.6531 -0.0374
26913SOL    HW192798   1.095   5.220   6.379 -0.4968 -1.1156  0.7481
26913SOL    HW292799   1.207   5.133   6.298  0.4197  0.5693  0.1851
26914SOL     OW92800   3.395   6.881   8.804  0.0664  0.3228  0.1667
26914SOL    HW192801   3.376   6.853   8.898 -0.5037  1.4910  0.4083
26914SOL    HW292802   3.319   6.937   8.770  0.2378 -0.1568 -1.0107
26915SOL     OW92803   9.559   6.844   3.730 -0.7247  0.0250  0.0945
26915SOL    HW192804   9.572   6.775   3.659 -0.3631  1.0513 -0.8630
26915SOL    HW292805   9.569   6.803   3.820 -0.8467 -1.2273 -0.4563
26916SOL     OW92806   8.686   8.871   8.316  0.1663 -0.6276 -0.1211
26916SOL    HW192807   8.735   8.819   8.386  0.3281  0.3098  0.4691
26916SOL    HW292808   8.744   8.943   8.280 -0.1985 -0.5892 -0.6423
26917SOL     OW92809   3.887   2.411   9.367  0.3853 -0.1431 -0.1340
26917SOL    HW192810   3.863   2.467   9.446  0.9912 -0.6885  0.4392
26917SOL    HW292811   3.820   2.337   9.358  1.5650 -1.4003  1.2024
26918SOL     OW92812   4.610   1.589   8.442  0.1295  0.5759  0.8334
26918SOL    HW192813   4.642   1.515   8.382  0.6561  2.0041 -0.6906
26918SOL    HW292814   4.537   1.640   8.396 -0.7736  0.5323  2.1934
26919SOL     OW92815   9.584   4.338   6.057  0.3399 -0.3925  0.0250
26919SOL    HW192816   9.633   4.254   6.034  0.6201 -0.7149  1.7352
26919SOL    HW292817   9.486   4.324   6.041  0.1958 -1.5946  1.7492
26920SOL     OW92818   0.691   7.730   7.747  0.4159  0.5500  0.3438
26920SOL    HW192819   0.628   7.807   7.737  2.8426  2.3549 -1.7187
26920SOL    HW292820   0.689   7.698   7.841 -2.1260  1.8149  0.7735
26921SOL     OW92821   2.496   6.011   3.073 -0.8668  0.2212 -0.5723
26921SOL    HW192822   2.408   6.057   3.086 -1.0403 -0.0519 -0.7661
26921SOL    HW292823   2.501   5.932   3.135 -2.1400 -1.7245 -2.8722
26922SOL     OW92824   7.196   2.151   9.668 -0.3542 -0.2801 -0.2023
26922SOL    HW192825   7.234   2.074   9.719  0.8418  0.7087  0.4204
26922SOL    HW292826   7.197   2.233   9.725 -1.3516  0.2684 -0.9521
26923SOL     OW92827   6.073   6.100   8.788  0.2508  0.7265 -0.0325
26923SOL    HW192828   6.064   6.149   8.875  0.6286  1.5078 -0.4245
26923SOL    HW292829   5.991   6.114   8.732 -0.6154 -0.9714  0.7832
26924SOL     OW92830   1.962   3.615   2.612  0.1141 -0.2596  0.2008
26924SOL    HW192831   1.950   3.574   2.522  0.6752 -0.8231  0.3726
26924SOL    HW292832   1.938   3.712   2.609 -0.6021 -0.4563 -0.3706
26925SOL     OW92833   8.070   9.196   7.076  0.4825 -0.0201 -0.2181
26925SOL    HW192834   8.060   9.174   7.173 -0.3136 -0.9584 -0.5067
26925SOL    HW292835   8.092   9.293   7.065 -0.0822  0.2316  0.8640
26926SOL     OW92836   9.474   9.213   6.897 -0.1410 -0.2084 -0.5571
26926SOL    HW192837   9.404   9.148   6.928 -3.0403  3.1230  0.1462
26926SOL    HW292838   9.447   9.251   6.808  0.5716  1.4408 -0.0771
26927SOL     OW92839   7.978   9.260   9.008  0.4836 -0.6413  0.7553
26927SOL    HW192840   8.064   9.311   9.004 -0.2148  0.6038  1.2678
26927SOL    HW292841   7.987   9.176   8.954  0.5701  1.6731 -3.0932
26928SOL     OW92842   1.700   5.459   6.955  0.0635 -0.3442  0.1885
26928SOL    HW192843   1.723   5.487   6.862  0.5771  0.7390  0.6217
26928SOL    HW292844   1.734   5.528   7.019 -2.0070 -0.1076  1.0519
26929SOL     OW92845   9.764   1.702   2.011  0.2744  0.1902  0.3783
26929SOL    HW192846   9.843   1.669   1.959  1.9428  0.6205  2.5837
26929SOL    HW292847   9.742   1.796   1.982  1.7735  0.7691  1.0728
26930SOL     OW92848   9.959   3.884   8.221 -0.2014  0.7592 -0.5347
26930SOL    HW192849   9.950   3.850   8.314 -0.1464 -0.9717 -1.1357
26930SOL    HW292850  10.052   3.867   8.188 -0.2864  1.1458 -0.9846
26931SOL     OW92851   3.837   3.860   7.055  0.1647 -0.4528  0.0652
26931SOL    HW192852   3.743   3.889   7.038 -0.1879 -1.4601  0.2187
26931SOL    HW292853   3.899   3.909   6.994 -0.1865  1.9547  1.5821
26932SOL     OW92854   7.265   3.593   7.317  0.2583 -0.0157 -0.4426
26932SOL    HW192855   7.356   3.564   7.345 -0.3462 -0.2320  1.3687
26932SOL    HW292856   7.231   3.662   7.381 -0.4374  0.8121 -1.6935
26933SOL     OW92857   6.651   9.314   3.783 -0.5318  0.0137 -0.7212
26933SOL    HW192858   6.674   9.308   3.686  0.0192 -1.0707 -0.5300
26933SOL    HW292859   6.701   9.243   3.834 -0.6568  0.7047  0.3808
26934SOL     OW92860   0.858   2.916   8.580  0.2069 -0.3253  0.5611
26934SOL    HW192861   0.912   2.970   8.645 -1.7213 -0.0208  1.9309
26934SOL    HW292862   0.770   2.959   8.565 -0.1989 -1.5269 -0.6459
26935SOL     OW92863   6.537   3.002   9.013  0.1358  0.6291  0.5243
26935SOL    HW192864   6.496   2.912   9.003 -2.1817  1.6133  0.7371
26935SOL    HW292865   6.636   2.994   9.021 -0.0425 -1.8666  0.3945
26936SOL     OW92866   2.839   4.828   3.721 -0.1947 -0.0899 -0.4781
26936SOL    HW192867   2.919   4.881   3.748  0.3099 -1.2447  0.3612
26936SOL    HW292868   2.832   4.825   3.622  2.0727 -1.8184 -0.6176
26937SOL     OW92869   1.969   2.698   3.953 -0.7935  0.4530  0.1090
26937SOL    HW192870   1.968   2.709   3.854 -0.5972  0.6299  0.1266
26937SOL    HW292871   1.994   2.785   3.996 -0.4204  0.2513  0.2954
26938SOL     OW92872   8.347   2.099   8.713 -0.2390  0.3453 -0.2219
26938SOL    HW192873   8.414   2.026   8.728 -0.4142  0.3321  0.4749
26938SOL    HW292874   8.390   2.172   8.658 -0.0879 -0.3104 -0.9899
26939SOL     OW92875   9.473   1.277   7.846 -0.1758  0.3439 -0.3015
26939SOL    HW192876   9.523   1.306   7.765  0.2562  2.7464  0.7756
26939SOL    HW292877   9.459   1.356   7.907 -2.7192 -0.8795  0.7826
26940SOL     OW92878   1.063   9.838   9.118  0.2881 -0.0772  0.7321
26940SOL    HW192879   0.996   9.772   9.151 -0.0886 -0.3930 -0.6376
26940SOL    HW292880   1.018   9.925   9.099  0.0789 -0.5653 -1.0754
26941SOL     OW92881   0.043   5.847   8.176  0.0147  0.2880 -0.1280
26941SOL    HW192882   0.113   5.829   8.107 -0.4059  1.2928 -0.8299
26941SOL    HW292883   0.047   5.776   8.247  0.3358 -0.8575 -1.2682
26942SOL     OW92884   6.182   2.897   8.322 -0.2087 -0.2179  0.3832
26942SOL    HW192885   6.122   2.830   8.278 -0.2114  0.1151 -0.1214
26942SOL    HW292886   6.130   2.946   8.393 -0.8865  0.9122 -0.8708
26943SOL     OW92887   9.016   4.348   9.256 -0.0326  0.4845 -0.2371
26943SOL    HW192888   8.942   4.354   9.323  0.7884  0.6123  0.6733
26943SOL    HW292889   8.993   4.403   9.176 -0.8411  0.6677  0.1158
26944SOL     OW92890   8.897   1.533   5.802  0.1145 -0.6798  0.0522
26944SOL    HW192891   8.829   1.502   5.868 -0.8578 -0.6518 -0.9306
26944SOL    HW292892   8.987   1.497   5.828  0.0774  0.8647  2.4379
26945SOL     OW92893   6.101   1.189   9.262 -0.0725  0.7808  0.2695
26945SOL    HW192894   6.201   1.194   9.267 -0.0891  0.5265  0.9271
26945SOL    HW292895   6.062   1.276   9.290 -0.0273  0.9744 -0.2696
26946SOL     OW92896   8.603   1.935   4.437  0.1507  0.0941 -0.5235
26946SOL    HW192897   8.678   1.929   4.504 -0.0038  1.4390 -0.2174
26946SOL    HW292898   8.559   1.846   4.430  2.1722 -0.8975 -1.1790
26947SOL     OW92899   7.458   1.728   0.917  0.3202  0.3089 -0.0757
26947SOL    HW192900   7.467   1.703   0.820  0.8977  0.6416 -0.1120
26947SOL    HW292901   7.488   1.823   0.929 -0.0875  0.3788  0.3688
26948SOL     OW92902   1.054   4.737   2.026 -0.2807 -0.2590  0.1110
26948SOL    HW192903   1.043   4.810   2.094 -1.7626  0.5065 -0.9115
26948SOL    HW292904   0.997   4.758   1.946  1.1765 -1.3199 -1.2257
26949SOL     OW92905   2.674   4.603   6.720 -0.5206 -0.4274 -0.0070
26949SOL    HW192906   2.675   4.530   6.652 -0.6388 -0.9085  0.5071
26949SOL    HW292907   2.683   4.692   6.674 -0.9751 -0.7275 -0.6759
26950SOL     OW92908   6.680   8.618   9.160  0.5525  0.6729  0.7076
26950SOL    HW192909   6.743   8.627   9.237  2.0067  2.5019 -0.6365
26950SOL    HW292910   6.689   8.526   9.121 -0.0170 -0.1784  2.5478
26951SOL     OW92911   9.435   7.320   5.649 -0.0672  0.1514 -0.4311
26951SOL    HW192912   9.534   7.311   5.666 -0.4058 -2.3617  0.4982
26951SOL    HW292913   9.385   7.285   5.728 -1.7706  4.1607  0.4035
26952SOL     OW92914   7.375   3.929   2.590 -0.6470  0.1457 -0.0139
26952SOL    HW192915   7.337   3.908   2.500 -2.6807  0.4005  0.7714
26952SOL    HW292916   7.400   3.844   2.636 -0.6277 -0.0403 -0.3641
26953SOL     OW92917   9.542   3.942   9.944  0.8880  0.2019  0.6873
26953SOL    HW192918   9.457   3.902   9.979 -0.3660  1.5740 -0.7284
26953SOL    HW292919   9.526   4.037   9.918  2.4536  0.0245 -1.0592
26954SOL     OW92920   5.832   0.903   8.416 -0.0446  0.1681 -0.6072
26954SOL    HW192921   5.870   0.934   8.329 -0.7986  1.1014 -0.6129
26954SOL    HW292922   5.769   0.972   8.451  1.5200  0.5313  1.5080
26955SOL     OW92923   9.296   2.598   3.443 -0.6506 -0.2142 -0.4438
26955SOL    HW192924   9.277   2.683   3.491 -1.9133 -0.4569 -0.5016
26955SOL    HW292925   9.391   2.570   3.460 -0.7571  0.2777  1.0102
26956SOL     OW92926   1.869   0.964   9.018 -0.5180 -0.0663  0.3296
26956SOL    HW192927   1.792   1.025   8.999 -0.5051 -0.5340 -1.2789
26956SOL    HW292928   1.925   1.002   9.092 -2.0515  0.4875  1.2292
26957SOL     OW92929   8.027   4.687   0.733 -0.3129 -0.3816 -0.7396
26957SOL    HW192930   8.081   4.694   0.649  0.2747 -0.7594 -0.3978
26957SOL    HW292931   8.086   4.656   0.808 -0.2237  2.3832  0.4004
26958SOL     OW92932   6.770   0.081   9.066  0.0719  0.1104  0.0216
26958SOL    HW192933   6.676   0.099   9.092  0.1996 -0.0187  0.5680
26958SOL    HW292934   6.801  -0.004   9.108  0.5860  0.3985  0.2305
26959SOL     OW92935   0.271   8.117   9.549  0.1449  0.4681  0.1653
26959SOL    HW192936   0.172   8.116   9.554  0.0533 -2.7426 -1.2271
26959SOL    HW292937   0.309   8.082   9.635 -0.0454 -0.9163 -0.2902
26960SOL     OW92938   7.448   3.565   4.587  0.1526  0.5524 -0.0623
26960SOL    HW192939   7.448   3.581   4.686 -1.6557 -1.1228  0.2380
26960SOL    HW292940   7.481   3.473   4.567 -2.0170 -0.1083 -0.7871
26961SOL     OW92941   6.501   5.921   9.709  0.2377 -0.0328 -0.0730
26961SOL    HW192942   6.485   5.921   9.610  1.8202  1.0759 -0.3489
26961SOL    HW292943   6.599   5.908   9.727  0.0815  0.6888  1.3239
26962SOL     OW92944   9.005   3.948   2.374 -0.3167 -0.0673  0.0786
26962SOL    HW192945   9.068   4.023   2.357 -0.9777  0.9182  1.7735
26962SOL    HW292946   8.999   3.889   2.294  1.7328  0.5736 -0.5578
26963SOL     OW92947   9.993   7.435   9.509 -0.3180  0.1557 -0.0610
26963SOL    HW192948  10.019   7.338   9.512  1.5845  0.7137  2.6200
26963SOL    HW292949   9.912   7.445   9.450 -0.9386 -3.1364  0.1029
26964SOL     OW92950   9.822   3.476   1.074 -0.0561  0.2331  0.3441
26964SOL    HW192951   9.810   3.449   1.170 -1.9855 -2.3273 -0.5553
26964SOL    HW292952   9.801   3.574   1.064  2.1631  1.0080  2.8450
26965SOL     OW92953   9.860   1.599   0.550  0.2414  0.0784 -0.2537
26965SOL    HW192954   9.785   1.557   0.601  0.4014 -1.0297 -0.9305
26965SOL    HW292955   9.843   1.698   0.541 -0.3007  0.1094  1.0358
26966SOL     OW92956   6.280   6.410   9.730  0.1750  0.0327  0.0356
26966SOL    HW192957   6.262   6.388   9.634  0.0125  1.1467 -0.1858
26966SOL    HW292958   6.268   6.327   9.785  0.2092 -0.5990 -0.8911
26967SOL     OW92959   0.319   5.367   0.433 -0.1251 -0.1533 -0.0312
26967SOL    HW192960   0.362   5.365   0.343 -1.6145 -0.0442 -0.7557
26967SOL    HW292961   0.228   5.326   0.428 -1.1527  1.8926  0.9067
26968SOL     OW92962   9.922   7.285   0.871 -0.0627 -0.0298  0.1367
26968SOL    HW192963   9.995   7.347   0.841 -0.8666  0.2647 -1.2324
26968SOL    HW292964   9.962   7.213   0.927  1.3974 -0.2544 -1.1414
26969SOL     OW92965   1.392   0.144   0.539 -0.1022 -0.1273  0.2966
26969SOL    HW192966   1.380   0.237   0.573 -1.9101  0.8111 -2.7257
26969SOL    HW292967   1.426   0.147   0.445  1.3148 -2.5638  0.6765
26970SOL     OW92968   9.598   1.031   7.516  0.1372 -0.6368 -0.6285
26970SOL    HW192969   9.525   1.008   7.581 -0.1627 -0.8889 -1.0491
26970SOL    HW292970   9.677   1.067   7.565  0.0259 -1.1084 -0.0987
26971SOL     OW92971   0.435   3.579   2.944 -0.0765 -0.5268  0.0036
26971SOL    HW192972   0.484   3.635   2.877 -1.1412 -2.7794 -2.7365
26971SOL    HW292973   0.499   3.516   2.989  0.0882 -1.3201 -1.3284
26972SOL     OW92974   7.482   3.673   2.213 -0.0086 -0.3853  0.6580
26972SOL    HW192975   7.506   3.741   2.144 -2.3720  1.8662  1.9631
26972SOL    HW292976   7.563   3.653   2.269  1.2474 -0.2540 -1.0845
26973SOL     OW92977   6.833   2.444   5.808  0.6138  0.6480  0.0518
26973SOL    HW192978   6.777   2.374   5.763  0.8157  0.8148 -0.4700
26973SOL    HW292979   6.877   2.500   5.738  2.0257  0.0391  0.4358
26974SOL     OW92980   9.106   0.316   8.034 -0.0922 -0.3331 -0.2663
26974SOL    HW192981   9.108   0.282   7.940 -2.7342 -0.3526 -0.3549
26974SOL    HW292982   9.074   0.410   8.035  1.2758  0.1292  0.5013
26975SOL     OW92983   4.421   7.818   0.339 -0.1247 -0.5210 -0.0179
26975SOL    HW192984   4.385   7.774   0.422 -0.9427 -2.0600 -1.1603
26975SOL    HW292985   4.504   7.869   0.362 -1.0444  0.0923  1.9722
26976SOL     OW92986   8.346   3.927   6.606 -0.0481 -0.4441  0.1296
26976SOL    HW192987   8.337   3.985   6.525  0.9581 -0.0732  0.2858
26976SOL    HW292988   8.333   3.981   6.688  0.3977 -0.5349  0.2607
26977SOL     OW92989   5.760   0.129   9.893 -0.5090 -0.0401 -0.0673
26977SOL    HW192990   5.671   0.138   9.848  0.6773  4.1222 -1.8006
26977SOL    HW292991   5.829   0.104   9.825  0.2751  0.3705  0.5670
26978SOL     OW92992   7.579   3.555   7.889  0.0439 -0.3108  0.0679
26978SOL    HW192993   7.557   3.642   7.933 -1.1733 -0.0372 -1.0751
26978SOL    HW292994   7.633   3.571   7.807 -1.5675 -0.5099 -1.0500
26979SOL     OW92995   1.476   4.284   1.914  0.2542  0.3559  0.3368
26979SOL    HW192996   1.458   4.235   1.999 -0.9944  1.4032  0.6763
26979SOL    HW292997   1.529   4.366   1.934  0.9754 -0.0108 -0.0453
26980SOL     OW92998   0.954   7.923   5.880  0.2267 -0.2486  0.3450
26980SOL    HW192999   0.981   7.929   5.784  1.5247 -1.7567  0.5981
26980SOL    HW293000   0.856   7.906   5.885  0.4039 -1.6797 -0.7581
26981SOL     OW93001   0.605   2.180   1.588  0.3571  0.3286  0.2365
26981SOL    HW193002   0.524   2.178   1.529  1.6742  0.9919 -1.6712
26981SOL    HW293003   0.674   2.117   1.552  1.7386  1.8221  0.2099
26982SOL     OW93004   0.644   6.944   6.972 -0.0907 -0.0825 -0.1207
26982SOL    HW193005   0.590   7.027   6.987 -0.0112  0.0586 -0.6353
26982SOL    HW293006   0.690   6.919   7.057  0.3597  0.7305 -0.1240
26983SOL     OW93007   9.779   6.046   3.165  0.2279 -0.0048  0.1649
26983SOL    HW193008   9.845   6.108   3.208 -0.1270  0.0866  0.5922
26983SOL    HW293009   9.826   5.965   3.131  0.6225  0.2606  0.0741
26984SOL     OW93010   1.251   9.317   8.999 -0.1182 -0.3197 -0.0481
26984SOL    HW193011   1.195   9.351   8.923  1.3518  0.9758 -0.5910
26984SOL    HW293012   1.324   9.259   8.963  0.3269 -0.0386  0.3965
26985SOL     OW93013   9.821   4.683   8.048  0.4380 -0.3190 -0.2946
26985SOL    HW193014   9.726   4.710   8.033  0.2829 -0.4012  0.5351
26985SOL    HW293015   9.830   4.584   8.038  0.6787 -0.1832 -1.5979
26986SOL     OW93016   9.624   2.258   3.577 -0.2769  0.0314 -0.4613
26986SOL    HW193017   9.686   2.215   3.512  0.3284 -0.1155  0.1992
26986SOL    HW293018   9.529   2.238   3.552 -0.0124 -2.7850  0.5165
26987SOL     OW93019   0.935   6.160   0.249  0.6363  0.4320  0.5640
26987SOL    HW193020   0.901   6.147   0.342  1.6899 -1.0558  0.7558
26987SOL    HW293021   0.916   6.254   0.220 -1.3946  0.3610  1.5569
26988SOL     OW93022   7.204   5.118   0.321  0.5131 -0.2385  0.3991
26988SOL    HW193023   7.291   5.087   0.359  0.4340  0.2973  1.0294
26988SOL    HW293024   7.218   5.147   0.226  1.0841  0.1020  0.5799
26989SOL     OW93025   2.130   4.393   0.981 -0.0383  0.6261  0.4022
26989SOL    HW193026   2.102   4.456   0.909  2.0958  2.3024  0.9885
26989SOL    HW293027   2.168   4.310   0.940 -0.0980  0.9794 -0.3815
26990SOL     OW93028   4.728   5.467   6.645  0.2240 -0.5597  0.2328
26990SOL    HW193029   4.789   5.534   6.687 -0.4273 -1.2368  2.2977
26990SOL    HW293030   4.747   5.462   6.547  2.4960  0.2819  0.6022
26991SOL     OW93031   2.307   1.866   0.375  0.6289  0.1776 -0.4347
26991SOL    HW193032   2.290   1.863   0.276  0.3739  1.7648 -0.4470
26991SOL    HW293033   2.402   1.840   0.392 -0.1175 -3.0984 -0.8225
26992SOL     OW93034   0.136   0.498   9.544 -0.7437 -0.0628 -0.4524
26992SOL    HW193035   0.059   0.562   9.546 -1.2918 -0.5518 -3.8503
26992SOL    HW293036   0.124   0.429   9.615 -1.6964  1.8018  1.2531
26993SOL     OW93037   9.794   8.239   0.589 -0.3712 -0.7006  0.1783
26993SOL    HW193038   9.861   8.267   0.520 -0.2652 -1.3827  0.0041
26993SOL    HW293039   9.841   8.193   0.664 -0.3750  0.7981  1.1333
26994SOL     OW93040   0.220   5.821   3.907  0.0656 -0.0332 -0.2140
26994SOL    HW193041   0.168   5.747   3.866  1.1868 -0.4581 -0.8977
26994SOL    HW293042   0.206   5.906   3.856 -2.4911  0.6420  1.5134
26995SOL     OW93043   1.366   1.242   9.478  0.2285 -0.3373  0.6341
26995SOL    HW193044   1.379   1.285   9.567 -1.4107  0.3593  0.5736
26995SOL    HW293045   1.322   1.153   9.490 -1.2574  0.3543  0.4678
26996SOL     OW93046   8.315   2.805   3.718  0.2749 -0.3264  0.2904
26996SOL    HW193047   8.254   2.736   3.679  0.0605 -0.3465  0.6538
26996SOL    HW293048   8.294   2.895   3.679  0.5633 -0.4716 -0.1946
26997SOL     OW93049   3.432   3.626   0.698 -0.8054 -0.0794 -0.2858
26997SOL    HW193050   3.471   3.548   0.747  1.0147  1.0374  0.1157
26997SOL    HW293051   3.482   3.709   0.723 -1.0759  0.8201 -2.6156
26998SOL     OW93052   0.091   2.332   0.006 -0.1581  0.2472 -0.0091
26998SOL    HW193053   0.027   2.408  -0.011 -0.2779  0.3783  1.0220
26998SOL    HW293054   0.172   2.345  -0.051 -0.1009  1.2478  0.2936
26999SOL     OW93055   4.510   4.573   0.041 -0.1548  0.4912  0.0559
26999SOL    HW193056   4.425   4.592  -0.009  1.2144  1.3658 -1.9788
26999SOL    HW293057   4.588   4.579  -0.021  1.4937  0.4456  2.0654
27000SOL     OW93058   8.631   4.836   2.714  0.0751  0.6773 -0.1569
27000SOL    HW193059   8.627   4.799   2.621  0.9520  1.7379 -0.6358
27000SOL    HW293060   8.619   4.935   2.711  2.2366  0.9862  0.6429
27001SOL     OW93061   0.588   0.959   6.974 -0.1709  0.4594 -0.0085
27001SOL    HW193062   0.568   0.969   6.877  0.4815  0.3282 -0.1600
27001SOL    HW293063   0.537   0.880   7.010 -0.3978  0.4962 -0.2450
27002SOL     OW93064   1.144   9.745   7.736 -0.2285  0.3493 -0.5402
27002SOL    HW193065   1.064   9.805   7.733 -1.0060 -0.6365 -0.0252
27002SOL    HW293066   1.124   9.661   7.685  0.6016  0.2264 -0.6749
27003SOL     OW93067   1.801   7.981   8.843  0.0095 -0.2447  0.2173
27003SOL    HW193068   1.749   7.955   8.761 -0.7167 -1.4498  1.0384
27003SOL    HW293069   1.752   7.950   8.925  0.3063  1.6786  1.1562
27004SOL     OW93070   9.697   7.838   3.670 -0.1038  0.1068 -0.5264
27004SOL    HW193071   9.639   7.814   3.593  0.4916 -0.7162 -0.7159
27004SOL    HW293072   9.722   7.756   3.721  1.5228  0.3642 -0.8881
27005SOL     OW93073   0.393   4.132   1.536  1.0459 -0.1498 -0.7193
27005SOL    HW193074   0.447   4.192   1.595 -0.3448  1.5242 -1.0972
27005SOL    HW293075   0.335   4.073   1.593  1.4873 -0.2510 -0.3686
27006SOL     OW93076   0.620   6.374   7.219 -0.3381 -0.3870 -0.5169
27006SOL    HW193077   0.585   6.355   7.311 -0.4259 -0.5204 -0.5774
27006SOL    HW293078   0.594   6.299   7.157  0.2214 -0.5864 -0.5153
27007SOL     OW93079   9.714   1.384   5.452  0.1891 -0.1139  0.0765
27007SOL    HW193080   9.784   1.355   5.386 -1.2356 -1.5483 -0.8335
27007SOL    HW293081   9.756   1.443   5.521  2.3429 -1.0797 -0.3688
27008SOL     OW93082   8.682   1.683   0.797  0.1535 -0.0315 -0.0771
27008SOL    HW193083   8.662   1.586   0.813  0.4773 -0.5431 -2.6277
27008SOL    HW293084   8.608   1.724   0.745  0.7928  0.6992 -0.4135
27009SOL     OW93085   7.093   4.168   5.992  0.1681  0.2850  0.1115
27009SOL    HW193086   7.030   4.232   6.036 -0.3770 -0.7765  0.9115
27009SOL    HW293087   7.155   4.218   5.932  0.1241  1.6308  1.1509
27010SOL     OW93088   1.960   4.872   1.846 -0.4335 -0.4790  0.1945
27010SOL    HW193089   1.875   4.890   1.795 -1.6742 -2.6329  1.4201
27010SOL    HW293090   1.981   4.951   1.904 -1.1123  0.4289 -0.7617
27011SOL     OW93091   9.634   0.862   1.917 -0.0157  0.3464 -0.2320
27011SOL    HW193092   9.649   0.897   1.825 -0.8077  0.9915 -0.1108
27011SOL    HW293093   9.538   0.870   1.942  0.4634  1.8020  1.3121
27012SOL     OW93094   9.450   2.087   2.521  0.4928 -0.3223  0.2465
27012SOL    HW193095   9.494   2.177   2.515  1.3253 -0.6350  1.3813
27012SOL    HW293096   9.499   2.031   2.588  0.0452 -1.6608 -0.5265
27013SOL     OW93097   0.495   7.996   6.441  0.1509 -0.4661  0.4589
27013SOL    HW193098   0.535   7.942   6.367  2.4115  1.1793  0.4426
27013SOL    HW293099   0.423   8.055   6.403 -1.3625 -2.3920  0.2521
27014SOL     OW93100   8.157   3.210   2.840  0.0976  0.1308 -0.0694
27014SOL    HW193101   8.076   3.152   2.836 -0.6875  1.1754  0.4541
27014SOL    HW293102   8.188   3.231   2.748 -0.6685  0.3352 -0.2821
27015SOL     OW93103   5.135   4.726   4.039  0.3475  0.2108  0.1646
27015SOL    HW193104   5.072   4.788   3.994  0.4714  0.0346 -0.2524
27015SOL    HW293105   5.214   4.777   4.073  0.9754  0.1171 -1.1423
27016SOL     OW93106   7.988   4.202   1.965 -0.0756  0.1847  0.0269
27016SOL    HW193107   8.036   4.284   1.936  0.3989 -0.7778 -1.9900
27016SOL    HW293108   7.909   4.186   1.905  0.7947 -1.7198 -0.6577
27017SOL     OW93109   2.401   7.440   9.579  0.1177  0.3036  0.3044
27017SOL    HW193110   2.426   7.344   9.570 -1.8356 -0.1921 -0.2276
27017SOL    HW293111   2.483   7.496   9.585  1.2931 -1.2797 -0.6361
27018SOL     OW93112   5.322   4.779   8.234  0.1175 -0.4029 -0.4794
27018SOL    HW193113   5.419   4.760   8.245 -0.1510 -1.2384  0.5373
27018SOL    HW293114   5.286   4.724   8.159  0.9983  1.9673 -2.7171
27019SOL     OW93115   0.750   6.650   8.607  0.7065  0.0524  0.7426
27019SOL    HW193116   0.674   6.608   8.657  1.3770 -1.8721  0.1574
27019SOL    HW293117   0.714   6.708   8.535 -0.2239  0.3182  1.4107
27020SOL     OW93118   1.627   8.183   8.222 -0.5573  0.0955  0.6679
27020SOL    HW193119   1.597   8.278   8.218 -0.8016 -0.0234 -1.0456
27020SOL    HW293120   1.639   8.149   8.129  3.5835 -0.2943  1.2498
27021SOL     OW93121   3.129   1.602   7.282  0.7858  0.7121 -0.1884
27021SOL    HW193122   3.053   1.648   7.236 -0.9556 -1.5501  0.4111
27021SOL    HW293123   3.134   1.632   7.377 -0.3622 -0.3555  0.2080
27022SOL     OW93124   0.493   8.168   1.236 -0.0893 -0.1551 -0.2793
27022SOL    HW193125   0.542   8.221   1.305  0.1502 -1.1266  0.3044
27022SOL    HW293126   0.506   8.070   1.253 -1.4605 -0.4188 -0.6722
27023SOL     OW93127   9.635   3.113   9.850 -0.3058 -0.0499  0.9266
27023SOL    HW193128   9.673   3.021   9.840  0.6072  0.5101 -0.8280
27023SOL    HW293129   9.621   3.153   9.760  1.0985  2.2793  1.7164
27024SOL     OW93130   1.661   4.914   2.108 -0.0922  0.2031 -0.2354
27024SOL    HW193131   1.751   4.958   2.115 -0.6186  1.3112 -0.4065
27024SOL    HW293132   1.636   4.875   2.196  0.5869 -0.1874 -0.2061
27025SOL     OW93133   5.464   2.364   2.706  0.7142 -0.1025 -0.1291
27025SOL    HW193134   5.397   2.436   2.689 -0.2242 -0.6144  1.2855
27025SOL    HW293135   5.530   2.361   2.631 -0.1263  1.2188 -0.9389
27026SOL     OW93136   1.535   6.361   5.733  0.3144 -0.1429 -0.3835
27026SOL    HW193137   1.543   6.269   5.697 -0.1900 -0.6591  0.8014
27026SOL    HW293138   1.452   6.405   5.698 -0.7568 -1.0354  0.9843
27027SOL     OW93139   7.480   4.930   4.102  0.6174  0.2973 -0.2479
27027SOL    HW193140   7.511   4.837   4.083 -1.6024 -0.4807 -0.1979
27027SOL    HW293141   7.459   4.939   4.199  1.4675  1.0508 -0.1307
27028SOL     OW93142   9.507   3.666   2.637 -0.2743 -0.1450 -0.6753
27028SOL    HW193143   9.522   3.699   2.730  1.5037 -3.5280  0.3324
27028SOL    HW293144   9.572   3.710   2.575 -1.3113  1.9465 -0.3116
27029SOL     OW93145   1.533   5.531   4.774 -0.6202  0.0752  0.7906
27029SOL    HW193146   1.554   5.437   4.746 -0.0408 -0.0611  1.6711
27029SOL    HW293147   1.442   5.534   4.816 -0.7175 -0.0559  0.5898
27030SOL     OW93148   1.500   9.513   3.986  0.5425 -0.3949  0.4857
27030SOL    HW193149   1.574   9.511   4.054  1.0062  0.9577  0.0464
27030SOL    HW293150   1.412   9.508   4.033  0.8888 -0.6642  1.1094
27031SOL     OW93151   9.745   3.141   5.909  0.1731 -0.0572  0.0730
27031SOL    HW193152   9.670   3.076   5.898 -0.2508  0.6344 -1.1970
27031SOL    HW293153   9.829   3.091   5.931  0.0522 -1.1294 -1.8288
27032SOL     OW93154   1.368   0.977   4.817  0.1052 -0.5776  0.2797
27032SOL    HW193155   1.379   1.046   4.889  0.7670 -0.1781 -0.1913
27032SOL    HW293156   1.271   0.960   4.801 -0.1748  2.3385 -1.5585
27033SOL     OW93157   1.845   4.688   3.642  0.0147  0.0469  0.1943
27033SOL    HW193158   1.932   4.692   3.593 -0.3428  0.4117 -0.4256
27033SOL    HW293159   1.786   4.762   3.609 -0.4701 -0.1059  0.7210
27034SOL     OW93160   9.959   9.264   8.329  0.1908  0.1683  0.4858
27034SOL    HW193161   9.873   9.259   8.278 -0.0434  3.1049  0.5121
27034SOL    HW293162   9.947   9.326   8.407  3.0366  2.7150 -0.9962
27035SOL     OW93163   6.379   7.192   4.418  0.2606 -0.0877 -0.0308
27035SOL    HW193164   6.443   7.116   4.428 -0.9239 -0.9337  1.3628
27035SOL    HW293165   6.423   7.277   4.446  0.8427 -0.6217  0.6892
27036SOL     OW93166   2.983   4.348   3.565  0.4185  0.5582 -0.4755
27036SOL    HW193167   3.011   4.350   3.661 -2.2372 -0.1102  0.3358
27036SOL    HW293168   2.942   4.259   3.544 -2.5207  2.0310 -1.2028
27037SOL     OW93169   5.684   0.229   9.450 -0.1848 -0.3129  0.1505
27037SOL    HW193170   5.599   0.188   9.419 -1.1125  0.3551  1.7413
27037SOL    HW293171   5.695   0.319   9.407 -0.5526 -0.1681  0.3549
27038SOL     OW93172   7.734   6.745   2.105 -0.2768 -0.7497 -0.0903
27038SOL    HW193173   7.793   6.819   2.071 -1.7574  0.8720  0.8123
27038SOL    HW293174   7.778   6.657   2.087  2.0090  0.3854 -0.2187
27039SOL     OW93175   8.623   9.809   7.277 -0.0089  0.8808  0.2253
27039SOL    HW193176   8.526   9.787   7.269  0.2526 -1.1012  2.0057
27039SOL    HW293177   8.677   9.740   7.229  0.5765  1.0130  0.6888
27040SOL     OW93178   2.218   2.129   5.010  0.3166 -0.2470 -0.3675
27040SOL    HW193179   2.212   2.144   5.108 -2.2521  0.1842 -0.5556
27040SOL    HW293180   2.287   2.190   4.971  0.7437  0.1886  1.0396
27041SOL     OW93181   3.402   4.462   2.190 -0.0195 -0.4154 -0.6080
27041SOL    HW193182   3.466   4.506   2.253 -2.4762  0.6758  1.2604
27041SOL    HW293183   3.435   4.371   2.166  2.1051  0.0532  0.4379
27042SOL     OW93184   1.340   4.103   1.779  0.0645 -0.6014  0.3874
27042SOL    HW193185   1.399   4.163   1.834  1.8250 -1.1855 -0.8440
27042SOL    HW293186   1.245   4.117   1.806  0.6732  0.9938  1.7969
27043SOL     OW93187   0.004   4.918   2.635  0.3947 -0.3185  0.5307
27043SOL    HW193188   0.102   4.928   2.652  0.1540  3.0375  0.3106
27043SOL    HW293189  -0.043   5.003   2.661 -2.2243 -1.2711 -0.9201
27044SOL     OW93190   9.130   8.359   2.797  0.0517  0.1213  0.0306
27044SOL    HW193191   9.152   8.417   2.876 -0.8563  2.2080 -1.2022
27044SOL    HW293192   9.040   8.383   2.762 -0.1846 -1.7990 -0.7724
27045SOL     OW93193   3.770   8.325   1.858  0.3301 -0.2184 -0.1514
27045SOL    HW193194   3.797   8.407   1.809 -1.0680  0.0103 -0.5675
27045SOL    HW293195   3.773   8.247   1.795  1.1500 -0.3977  0.1073
27046SOL     OW93196   4.312   7.592   3.877 -0.0002 -0.7458  0.4257
27046SOL    HW193197   4.386   7.535   3.914  0.4740 -0.0993  0.4885
27046SOL    HW293198   4.317   7.683   3.919 -0.6474 -0.6090  0.1989
27047SOL     OW93199   0.488   2.554   6.682  0.0245 -0.4352 -0.1036
27047SOL    HW193200   0.428   2.516   6.752  1.3648 -0.1705  1.2133
27047SOL    HW293201   0.538   2.632   6.720  1.4760 -0.8863 -1.0722
27048SOL     OW93202   0.457   1.524   9.252 -0.3310 -0.3140 -0.1697
27048SOL    HW193203   0.458   1.607   9.197 -0.2881  0.5977  1.1894
27048SOL    HW293204   0.396   1.457   9.209 -2.2405  1.2806 -0.0267
27049SOL     OW93205   4.395   7.310   1.551  0.1504  0.8226 -0.0509
27049SOL    HW193206   4.330   7.336   1.622 -0.6133 -0.1989 -0.3652
27049SOL    HW293207   4.436   7.221   1.575  0.7402  1.0226 -0.3165
27050SOL     OW93208   2.296   2.001   9.540 -0.0932  0.1496 -0.3711
27050SOL    HW193209   2.379   2.058   9.539 -1.4307  2.2304  1.0439
27050SOL    HW293210   2.291   1.951   9.626 -1.3278  1.7142  0.5176
27051SOL     OW93211   1.254   6.179   2.601  0.6849  0.4846 -0.5281
27051SOL    HW193212   1.198   6.218   2.528 -1.0345 -0.8037  0.0647
27051SOL    HW293213   1.249   6.079   2.598  2.4827  0.3553 -0.0836
27052SOL     OW93214   0.758   9.371   3.841 -0.3161 -0.2704 -0.4532
27052SOL    HW193215   0.693   9.374   3.765  0.1774  1.3226 -0.8205
27052SOL    HW293216   0.710   9.391   3.927 -0.3376  0.8750 -0.7210
27053SOL     OW93217   0.847   3.640   0.755  0.8107  0.1969  0.7116
27053SOL    HW193218   0.848   3.554   0.805 -1.9231 -0.7901 -0.8507
27053SOL    HW293219   0.849   3.622   0.656  0.3202  1.9030  0.3693
27054SOL     OW93220   8.363   1.772   3.821  0.1269 -0.0490 -0.0317
27054SOL    HW193221   8.330   1.719   3.743  0.0610 -0.5391  0.3272
27054SOL    HW293222   8.323   1.736   3.905  0.9613 -0.1456  0.3246
27055SOL     OW93223   4.155   4.572   2.964  0.1010 -0.7007 -0.3275
27055SOL    HW193224   4.070   4.547   3.011  0.2177  0.4330  0.5168
27055SOL    HW293225   4.233   4.540   3.017  0.2174 -0.4984 -0.3775
27056SOL     OW93226   1.678   4.482   5.892 -0.0901 -0.3086 -0.4110
27056SOL    HW193227   1.649   4.396   5.934 -0.7608 -0.1077 -0.4610
27056SOL    HW293228   1.677   4.473   5.792 -0.7864 -0.0444 -0.4319
27057SOL     OW93229   0.463   5.256   3.610 -0.7620 -0.2315 -0.3866
27057SOL    HW193230   0.545   5.232   3.663  0.2824  0.1261 -1.7969
27057SOL    HW293231   0.399   5.306   3.668 -0.0147 -0.5938  0.7647
27058SOL     OW93232   7.347   2.719   2.271  0.0280 -0.2515 -0.1525
27058SOL    HW193233   7.259   2.763   2.293 -0.0883 -0.8004  0.4916
27058SOL    HW293234   7.386   2.763   2.191  1.1840  2.8268  1.9824
27059SOL     OW93235   1.008   3.196   2.231 -0.3004 -0.4962 -0.0270
27059SOL    HW193236   1.081   3.257   2.263  0.4604 -0.4877 -1.7256
27059SOL    HW293237   1.044   3.104   2.219 -0.1590 -0.1755 -2.2991
27060SOL     OW93238   0.173   3.519   5.711  0.2848 -0.0843  0.4495
27060SOL    HW193239   0.089   3.469   5.690  0.4558 -0.4483  0.6384
27060SOL    HW293240   0.252   3.470   5.674  0.4126  0.2762  0.2412
27061SOL     OW93241   9.779   6.583   4.745 -0.0850  0.0975  0.3834
27061SOL    HW193242   9.686   6.546   4.757 -0.1812  0.5831  1.2126
27061SOL    HW293243   9.791   6.612   4.650 -0.3840 -1.0429 -0.0101
27062SOL     OW93244   2.928   1.828   9.615  0.1345  0.1622 -0.2556
27062SOL    HW193245   3.023   1.854   9.629 -0.5807  1.8008  1.9167
27062SOL    HW293246   2.923   1.736   9.577  2.5461 -0.2836  0.4546
27063SOL     OW93247   7.821   0.330   2.754  0.0805 -0.2798 -0.6232
27063SOL    HW193248   7.789   0.272   2.828  0.2948 -0.3258 -0.5672
27063SOL    HW293249   7.816   0.280   2.667 -2.2295  0.4781 -0.9758
27064SOL     OW93250   0.378   3.147   3.251  0.9545 -0.4424  0.2557
27064SOL    HW193251   0.360   3.096   3.167  1.9379 -0.4817  0.0655
27064SOL    HW293252   0.471   3.183   3.249  0.2381  1.4810  0.3244
27065SOL     OW93253   9.340   5.162   2.480  0.0525  0.5751  0.5787
27065SOL    HW193254   9.397   5.133   2.403  2.0405  2.5053  1.2595
27065SOL    HW293255   9.280   5.236   2.451 -1.6232 -0.9551  0.0569
27066SOL     OW93256   0.060   5.508   5.860 -0.6829 -0.4273  0.0281
27066SOL    HW193257  -0.025   5.454   5.863  0.1349 -1.7902 -0.7137
27066SOL    HW293258   0.137   5.447   5.841  0.5308  0.7346  1.1345
27067SOL     OW93259   8.593   4.325   4.119 -0.0042  0.0434  0.0948
27067SOL    HW193260   8.505   4.337   4.073  0.2314  0.0260 -0.3623
27067SOL    HW293261   8.630   4.235   4.096  0.1257  0.0419  0.3084
27068SOL     OW93262   1.085   0.977   4.785  0.0107  0.3525 -0.1625
27068SOL    HW193263   1.017   1.030   4.836  0.1490 -1.2680  1.7926
27068SOL    HW293264   1.068   0.986   4.687 -2.7686  0.3589  0.2573
27069SOL     OW93265   3.082   4.038   3.661  0.6386  0.1984 -0.1770
27069SOL    HW193266   3.106   4.030   3.758  3.3346  0.2757 -0.7858
27069SOL    HW293267   3.063   4.134   3.640  0.1362  0.1962  0.2553
27070SOL     OW93268   2.373   3.475   2.002 -0.4835 -0.2166 -0.0049
27070SOL    HW193269   2.369   3.573   1.982 -1.9357  0.1101  1.7040
27070SOL    HW293270   2.388   3.462   2.100 -2.6323 -1.6833  0.1805
27071SOL     OW93271   0.019   5.055   3.435  0.6382  1.0322 -0.6422
27071SOL    HW193272   0.118   5.066   3.437  0.9951 -1.8744  2.5708
27071SOL    HW293273  -0.021   5.094   3.518 -0.8832  1.8553 -1.7434
27072SOL     OW93274   9.710   4.908   4.360  0.4453 -0.1969 -0.9512
27072SOL    HW193275   9.629   4.901   4.303 -0.3803  0.7707  0.0841
27072SOL    HW293276   9.772   4.832   4.341 -1.9482 -2.4891  0.2432
27073SOL     OW93277   7.029   6.564   5.911 -0.1301  0.0215 -0.0395
27073SOL    HW193278   6.969   6.500   5.958 -0.7735  2.4094  2.5360
27073SOL    HW293279   7.074   6.518   5.835 -1.1568 -3.2426  1.2466
27074SOL     OW93280   7.179   0.039   6.197 -0.5107  0.0082 -0.0157
27074SOL    HW193281   7.193   0.137   6.179  0.4075 -0.3001 -0.9994
27074SOL    HW293282   7.221   0.015   6.285  0.9215  0.1059 -0.6644
27075SOL     OW93283   1.075   4.844   0.327 -0.1226 -0.0712  0.3088
27075SOL    HW193284   1.150   4.790   0.290  2.0685  1.9709  1.5900
27075SOL    HW293285   1.052   4.812   0.419 -0.1440 -0.0986  0.2936
27076SOL     OW93286   9.804   3.783   5.495  0.1926  0.0840  0.4317
27076SOL    HW193287   9.850   3.844   5.559 -1.2584  1.4312  0.2162
27076SOL    HW293288   9.740   3.724   5.545 -0.2714  0.5104  0.3509
27077SOL     OW93289   1.891   3.841   3.086  0.7159  0.1324  0.1969
27077SOL    HW193290   1.917   3.821   3.180  1.4133  1.5387  0.3150
27077SOL    HW293291   1.961   3.900   3.044  0.3665 -0.3908 -1.1669
27078SOL     OW93292   1.929   7.374   5.349  0.1003  0.2284 -0.2535
27078SOL    HW193293   1.924   7.352   5.252  0.4503 -1.1645  0.0345
27078SOL    HW293294   2.022   7.398   5.374  0.5590 -1.8896  0.2265
27079SOL     OW93295   1.005   0.887   4.171 -0.1163 -0.0762 -0.5686
27079SOL    HW193296   1.081   0.831   4.206 -0.5951 -0.0901  0.4547
27079SOL    HW293297   1.043   0.965   4.120  0.5687 -0.6833 -1.0094
27080SOL     OW93298   0.944   6.009   5.080 -0.2906  0.2880  0.5492
27080SOL    HW193299   0.950   6.062   4.995 -0.1346 -0.7846 -0.1155
27080SOL    HW293300   0.999   5.926   5.072  0.3630  0.5579  1.9963
27081SOL     OW93301   8.727   4.695   0.933  0.1455  0.1712 -0.3834
27081SOL    HW193302   8.639   4.688   0.887 -0.1983 -2.4833  0.5389
27081SOL    HW293303   8.786   4.619   0.904  1.4343  0.8546  0.3911
27082SOL     OW93304   9.260   1.923   4.969  0.6655 -0.0956 -0.0111
27082SOL    HW193305   9.242   1.993   4.900  0.5090  0.1084  0.2324
27082SOL    HW293306   9.355   1.893   4.964  0.1670 -1.5126 -1.6276
27083SOL     OW93307   8.208   7.320   8.270 -0.0052  0.3361 -0.2631
27083SOL    HW193308   8.125   7.298   8.217  0.3606 -1.0282 -0.3083
27083SOL    HW293309   8.192   7.301   8.366 -0.4092  2.0614  0.0249
27084SOL     OW93310   7.500   8.388   8.932  0.1275 -0.3480  0.2019
27084SOL    HW193311   7.487   8.397   9.031 -0.2325 -2.8875  0.4313
27084SOL    HW293312   7.423   8.338   8.893  0.3881  0.4311 -1.3402
27085SOL     OW93313   2.800   5.522   6.280 -0.2015  0.0841 -0.2870
27085SOL    HW193314   2.890   5.557   6.253  1.0109 -1.7901  1.1776
27085SOL    HW293315   2.807   5.424   6.301 -2.6039 -0.0966 -0.2032
27086SOL     OW93316   0.710   6.765   2.981  0.1616 -0.5567  0.0567
27086SOL    HW193317   0.741   6.860   2.989 -0.3420 -0.1760 -2.1185
27086SOL    HW293318   0.748   6.725   2.898 -0.3477 -1.9953  0.5046
27087SOL     OW93319   0.908   2.165   3.956 -0.9602  0.4661  0.1811
27087SOL    HW193320   0.948   2.236   3.898  0.0538  0.5050  0.9089
27087SOL    HW293321   0.885   2.203   4.045  1.7489 -0.6081  1.3976
27088SOL     OW93322   4.312   5.122   5.789 -0.3633  0.4358  0.4848
27088SOL    HW193323   4.347   5.215   5.795  0.1565  0.1488  2.0028
27088SOL    HW293324   4.360   5.064   5.854 -0.3584 -1.0068 -0.7750
27089SOL     OW93325   3.455   7.179   0.998  0.1834  0.1610 -0.6480
27089SOL    HW193326   3.516   7.141   0.929  1.2691 -0.5297  0.6473
27089SOL    HW293327   3.510   7.230   1.065 -0.7025 -0.1983  0.3580
27090SOL     OW93328   7.218   8.699   2.069  0.2003 -0.3709 -0.5938
27090SOL    HW193329   7.122   8.674   2.077  0.4335 -1.3223 -0.6891
27090SOL    HW293330   7.274   8.636   2.123  0.7262  0.4794 -0.1342
27091SOL     OW93331   8.242   2.112   4.447 -0.1953 -0.3580 -0.2872
27091SOL    HW193332   8.254   2.032   4.505 -0.6727 -0.3513 -0.1795
27091SOL    HW293333   8.220   2.083   4.354 -0.0042 -0.3585 -0.3324
27092SOL     OW93334   5.855   6.839   9.272 -0.1047 -0.0008  0.2114
27092SOL    HW193335   5.852   6.744   9.304  1.2855 -0.4503 -0.9655
27092SOL    HW293336   5.908   6.845   9.188  0.1437  1.8944  0.4714
27093SOL     OW93337   6.585   2.498   0.409 -0.0162 -0.3198 -0.1424
27093SOL    HW193338   6.639   2.504   0.493  0.7216 -0.5649 -0.5952
27093SOL    HW293339   6.641   2.525   0.331 -0.7142 -0.0431 -0.5509
27094SOL     OW93340   1.353   3.042   2.266  0.1203  0.0889 -0.3278
27094SOL    HW193341   1.337   3.041   2.167  0.3242 -0.2130 -0.3576
27094SOL    HW293342   1.341   3.136   2.300  1.8162  0.5442 -0.9325
27095SOL     OW93343   8.170   7.775   4.361  0.5430 -0.1470  0.7316
27095SOL    HW193344   8.080   7.761   4.320  0.3261 -0.4966  1.3195
27095SOL    HW293345   8.235   7.710   4.322  0.9814  1.3378 -1.0532
27096SOL     OW93346   0.722   5.852   7.851  0.0337 -0.1091 -0.0726
27096SOL    HW193347   0.787   5.794   7.802  0.1363 -0.1620  0.1246
27096SOL    HW293348   0.719   5.942   7.809 -0.1402 -0.2610 -0.3920
27097SOL     OW93349   3.647   0.324   7.128  0.8711  0.0789 -0.5015
27097SOL    HW193350   3.669   0.342   7.224  0.4119 -1.4608 -0.0947
27097SOL    HW293351   3.598   0.402   7.090  1.2470  0.7949  0.4528
27098SOL     OW93352   3.628   8.849   8.841 -0.3745 -0.1471  0.5909
27098SOL    HW193353   3.542   8.881   8.803  0.1695 -0.3548 -0.8514
27098SOL    HW293354   3.617   8.755   8.874 -0.5547 -0.3703 -0.1058
27099SOL     OW93355   6.201   4.035   7.589  0.0241  0.0425 -0.0441
27099SOL    HW193356   6.165   3.959   7.642 -1.6724  0.1013 -1.0745
27099SOL    HW293357   6.262   4.000   7.518  2.5257 -0.0098  2.0716
27100SOL     OW93358   5.943   5.481   3.000 -0.1498  0.2932  0.1420
27100SOL    HW193359   5.922   5.419   3.076 -2.4965  1.2722  0.3338
27100SOL    HW293360   5.905   5.444   2.916  1.7617 -0.3938 -0.4310
27101SOL     OW93361   8.641   5.216   4.395  0.0652 -0.0591 -0.3863
27101SOL    HW193362   8.613   5.307   4.427  1.3087 -0.0039  0.5813
27101SOL    HW293363   8.651   5.155   4.474  2.7035 -0.0653 -0.6969
27102SOL     OW93364   6.208   2.810   4.168 -0.2988 -0.5345  0.9862
27102SOL    HW193365   6.168   2.746   4.103  0.7230  0.6096 -0.7840
27102SOL    HW293366   6.289   2.768   4.211 -0.0628 -0.7037  0.3714
27103SOL     OW93367   7.146   3.438   0.355 -0.1492 -0.3181 -0.2828
27103SOL    HW193368   7.160   3.463   0.259 -0.5747  0.5906 -0.1204
27103SOL    HW293369   7.126   3.341   0.363 -0.1216 -0.3893 -1.1198
27104SOL     OW93370   7.304   5.626   4.180 -0.4190  0.0470  0.1872
27104SOL    HW193371   7.348   5.689   4.116  0.3104  0.1373  0.7749
27104SOL    HW293372   7.343   5.535   4.169  0.4182  0.2823  1.2069
27105SOL     OW93373   1.411   5.153   2.676  0.2581  0.3491 -0.4986
27105SOL    HW193374   1.364   5.236   2.646  0.1392  0.1966 -0.7336
27105SOL    HW293375   1.352   5.074   2.661  0.7508  0.1090 -1.1802
27106SOL     OW93376   9.018   7.194   6.622 -0.1399 -0.1332  0.3682
27106SOL    HW193377   9.020   7.214   6.720  1.7909  0.9240  0.1443
27106SOL    HW293378   8.987   7.275   6.572  0.9851  0.0575 -0.0376
27107SOL     OW93379   8.945   3.721   5.719  0.0148  0.4017 -0.1253
27107SOL    HW193380   8.967   3.738   5.815 -0.1284 -1.8593  0.3233
27107SOL    HW293381   9.027   3.691   5.671 -0.5557 -1.3194 -0.0354
27108SOL     OW93382   0.398   7.551   8.878  0.0152 -0.4297  0.4058
27108SOL    HW193383   0.459   7.624   8.847 -0.8840  0.2810  0.3021
27108SOL    HW293384   0.446   7.463   8.873  0.3167 -0.1585 -1.7390
27109SOL     OW93385   7.799   7.968   6.710  0.1526 -0.7598 -0.1450
27109SOL    HW193386   7.818   7.960   6.808  1.6469 -0.5594 -0.4041
27109SOL    HW293387   7.803   7.878   6.667 -0.5459 -0.8530 -0.0171
27110SOL     OW93388   8.398   5.197   4.951  0.6541 -0.5214 -0.1628
27110SOL    HW193389   8.418   5.100   4.962  1.0748 -0.3817  0.3308
27110SOL    HW293390   8.469   5.239   4.895  3.0539  0.4201  3.3771
27111SOL     OW93391   8.413   6.755   8.863  0.4868 -0.0128  0.2812
27111SOL    HW193392   8.390   6.692   8.937  0.9465  0.6742  1.0110
27111SOL    HW293393   8.345   6.829   8.860 -0.4891 -0.9389 -1.0614
27112SOL     OW93394   1.016   6.283   5.787  0.1383 -0.2364 -0.2786
27112SOL    HW193395   0.944   6.308   5.722  0.1835 -0.6479 -0.4821
27112SOL    HW293396   1.046   6.190   5.770  0.3755 -0.2346  0.1263
27113SOL     OW93397   0.533   6.908   0.474  0.5080  0.2457  0.4734
27113SOL    HW193398   0.517   6.918   0.376 -0.7688  4.1876  0.9798
27113SOL    HW293399   0.628   6.883   0.490  1.7262  3.1552 -1.6964
27114SOL     OW93400   1.787   4.662   1.967  0.0539 -0.2754 -0.3942
27114SOL    HW193401   1.863   4.660   1.902  1.9616  0.4981  1.7473
27114SOL    HW293402   1.786   4.750   2.015 -0.9915 -0.9997  0.9669
27115SOL     OW93403   9.120   1.367   2.824 -0.4016  0.1926  0.3092
27115SOL    HW193404   9.217   1.354   2.805 -0.2731  2.2143 -0.5683
27115SOL    HW293405   9.084   1.439   2.765 -2.7307 -1.3378 -0.2197
27116SOL     OW93406   1.010   8.206   7.393  0.1697 -0.5113  0.0302
27116SOL    HW193407   0.952   8.184   7.471  1.6679 -1.2247  0.9515
27116SOL    HW293408   1.000   8.303   7.370 -1.8117 -0.7360 -0.2053
27117SOL     OW93409   1.420   7.252   2.722 -0.2562  0.4772  0.2828
27117SOL    HW193410   1.517   7.229   2.734  0.3002  1.1692 -2.5051
27117SOL    HW293411   1.379   7.187   2.658 -1.4664  0.6189  0.9071
27118SOL     OW93412   2.400   2.853   0.066  0.1295 -0.1135  0.0626
27118SOL    HW193413   2.471   2.783   0.053 -0.0691 -0.4741  0.8770
27118SOL    HW293414   2.392   2.873   0.163 -1.3441 -0.5427  0.0346
27119SOL     OW93415   8.829   6.069   5.878  0.6122  0.3565  0.3538
27119SOL    HW193416   8.753   6.133   5.866 -2.3265 -3.2573 -1.3859
27119SOL    HW293417   8.814   6.013   5.960  1.0095 -0.8771 -0.3935
27120SOL     OW93418   0.280   7.035   3.528 -0.0059 -0.2735 -0.2493
27120SOL    HW193419   0.366   6.986   3.539 -0.5440 -1.1128  0.2968
27120SOL    HW293420   0.205   6.978   3.562 -0.6179  1.0254  0.6137
27121SOL     OW93421   8.644   9.046   2.911  0.6380 -0.0825  0.1786
27121SOL    HW193422   8.718   9.078   2.852  1.8383 -0.8843  1.2262
27121SOL    HW293423   8.590   8.977   2.863 -0.8512  2.1372 -1.4286
27122SOL     OW93424   0.145   5.373   3.224  0.3446 -0.4668  0.0256
27122SOL    HW193425   0.195   5.320   3.292  0.2515 -1.0698 -0.3685
27122SOL    HW293426   0.048   5.377   3.249 -0.0077 -2.1735 -0.9645
27123SOL     OW93427   0.576   1.973   2.307  0.6228 -0.0877  0.2177
27123SOL    HW193428   0.530   2.062   2.302  0.5409 -0.2101 -1.4896
27123SOL    HW293429   0.516   1.907   2.353 -0.8231 -0.1737 -1.7350
27124SOL     OW93430   4.250   5.931   4.211  0.4005  0.4532  0.2755
27124SOL    HW193431   4.203   5.890   4.133  0.3368 -0.8438  0.9849
27124SOL    HW293432   4.348   5.917   4.203  0.4712  1.1164 -0.0292
27125SOL     OW93433   0.308   3.815   3.558 -0.3692 -0.1197  0.1919
27125SOL    HW193434   0.399   3.777   3.541 -0.2328  0.0980  0.4410
27125SOL    HW293435   0.251   3.745   3.603 -0.2807 -0.2070  0.1689
27126SOL     OW93436   2.814   2.358   9.839 -0.4756  0.2620 -0.2662
27126SOL    HW193437   2.760   2.379   9.757 -0.8197  1.9375  0.3771
27126SOL    HW293438   2.782   2.414   9.915  1.0718  0.0420  0.5658
27127SOL     OW93439   4.027   0.387   5.274  0.0872 -0.0876  0.1558
27127SOL    HW193440   4.072   0.329   5.205 -1.8685 -0.3510 -0.9226
27127SOL    HW293441   4.044   0.349   5.365  1.8033 -0.3327 -0.2401
27128SOL     OW93442   3.438   8.227   1.075  0.5585 -0.9178 -0.0082
27128SOL    HW193443   3.390   8.313   1.060 -0.0232 -1.1847  0.2902
27128SOL    HW293444   3.531   8.245   1.106  0.3075 -0.3960  0.4553
27129SOL     OW93445   9.507   3.882   4.211 -0.5040 -0.2705 -0.1597
27129SOL    HW193446   9.562   3.930   4.280 -0.3217  0.0434 -0.5234
27129SOL    HW293447   9.430   3.837   4.255  0.5293 -1.4532  0.4952
27130SOL     OW93448   2.207   3.068   0.781 -0.9951  0.2951 -0.4988
27130SOL    HW193449   2.115   3.078   0.743 -1.6344  0.2610  0.9839
27130SOL    HW293450   2.224   2.971   0.801 -0.8767  0.3752 -0.2068
27131SOL     OW93451   6.633   6.357   0.258 -0.3781  0.2455 -0.5884
27131SOL    HW193452   6.724   6.382   0.291 -0.3139  0.6376 -1.0485
27131SOL    HW293453   6.626   6.380   0.161 -0.6913 -0.5369 -0.7539
27132SOL     OW93454   4.417   5.471   0.572  0.5869  0.2918  0.3177
27132SOL    HW193455   4.335   5.516   0.607  0.2054 -0.8608  0.9383
27132SOL    HW293456   4.397   5.432   0.482  0.4690  0.0921  0.4283
27133SOL     OW93457   4.246   7.984   7.322  0.5687 -0.5202 -0.1130
27133SOL    HW193458   4.159   8.034   7.323  1.6815  1.4693  1.6177
27133SOL    HW293459   4.312   8.033   7.266  0.9334 -1.4331 -0.4939
27134SOL     OW93460   6.922   9.095   6.141 -0.2854 -0.0142 -0.2518
27134SOL    HW193461   6.922   9.038   6.059  0.1207  0.4979 -0.6092
27134SOL    HW293462   6.965   9.046   6.217 -1.4430 -0.8270 -0.1024
27135SOL     OW93463   1.093   6.693   4.648 -0.1134 -0.0656 -0.6988
27135SOL    HW193464   1.078   6.600   4.614 -1.1460  0.5416 -1.9404
27135SOL    HW293465   1.064   6.759   4.579  1.8421  1.1908 -0.3499
27136SOL     OW93466   5.853   0.284   3.155  0.1501  0.4493 -0.2367
27136SOL    HW193467   5.835   0.381   3.137 -1.3347  0.3040  0.4001
27136SOL    HW293468   5.909   0.276   3.238  0.5210  0.7693 -0.4525
27137SOL     OW93469   2.835   5.098   6.118 -0.1886 -0.0314  0.6298
27137SOL    HW193470   2.739   5.070   6.122 -0.3338  0.5128  1.0343
27137SOL    HW293471   2.892   5.019   6.098 -0.7159 -0.3765  0.4888
27138SOL     OW93472   1.799   2.302   5.527  0.0314  0.0363  0.0052
27138SOL    HW193473   1.775   2.282   5.432  0.2944 -0.8095  0.1159
27138SOL    HW293474   1.741   2.376   5.561 -1.6796 -1.2360 -0.0755
27139SOL     OW93475   3.495   4.595   7.579 -0.1383 -0.0075 -0.2381
27139SOL    HW193476   3.538   4.575   7.667 -1.2910 -1.5397 -0.0133
27139SOL    HW293477   3.558   4.568   7.505 -0.8969 -2.7946  0.0835
27140SOL     OW93478   4.000   5.508   6.699 -0.6583 -0.7286  0.4017
27140SOL    HW193479   3.929   5.451   6.659  1.5207 -2.5540 -1.0498
27140SOL    HW293480   4.038   5.568   6.629  0.5918 -1.2329  0.6189
27141SOL     OW93481   9.655   0.741   4.969 -0.3801  0.4281 -0.2525
27141SOL    HW193482   9.701   0.697   5.046 -0.5539  1.0800  0.2310
27141SOL    HW293483   9.664   0.841   4.977  1.4464  0.4534 -2.2090
27142SOL     OW93484   8.558   3.868   5.028  0.0023 -0.3944  0.2421
27142SOL    HW193485   8.629   3.879   5.097 -0.1922 -0.8868  0.5189
27142SOL    HW293486   8.489   3.803   5.060 -0.3023 -0.3137 -0.2423
27143SOL     OW93487   7.608   4.890   5.591 -0.0048  0.2073 -0.0212
27143SOL    HW193488   7.521   4.936   5.612 -0.5163 -0.0847 -1.4790
27143SOL    HW293489   7.650   4.860   5.676 -1.4893  0.0800  0.6985
27144SOL     OW93490   0.236   4.314   3.380  0.0245 -0.3287  0.0746
27144SOL    HW193491   0.239   4.375   3.301 -0.5858  1.0147  1.0632
27144SOL    HW293492   0.328   4.279   3.399  0.6950  1.5966  0.4683
27145SOL     OW93493   2.516   7.995   3.908  0.2850  0.0248  0.6712
27145SOL    HW193494   2.454   7.927   3.870  0.2380 -0.4008  1.5010
27145SOL    HW293495   2.550   8.054   3.835  0.3221 -0.8920 -0.0555
27146SOL     OW93496   9.780   2.059   2.020  0.2354  0.2390 -0.1975
27146SOL    HW193497   9.731   2.124   2.078  0.2544  2.5262 -2.6293
27146SOL    HW293498   9.715   2.019   1.955 -0.2508 -3.9887  2.7198
27147SOL     OW93499   8.096   9.574   8.559  0.5082  0.4481  0.1877
27147SOL    HW193500   8.071   9.629   8.479  2.1215  1.3290  0.2751
27147SOL    HW293501   8.195   9.561   8.562  0.1830 -2.4102  0.2273
27148SOL     OW93502   1.503   1.814   2.039 -0.6155 -0.1516  0.5372
27148SOL    HW193503   1.482   1.905   2.075  1.2670  0.7014 -0.4502
27148SOL    HW293504   1.576   1.821   1.971 -1.8688 -2.1563 -1.0653
27149SOL     OW93505   4.669   7.692   5.004 -0.2846  0.2996 -0.0783
27149SOL    HW193506   4.710   7.781   5.022  3.0269 -0.8339 -1.7184
27149SOL    HW293507   4.694   7.628   5.077 -0.3059 -0.0558 -0.3823
27150SOL     OW93508   1.478   5.362   5.696 -0.8341 -0.3649  0.0083
27150SOL    HW193509   1.439   5.269   5.694 -1.1243 -0.2740  1.0018
27150SOL    HW293510   1.560   5.362   5.754 -2.0198  0.4218  1.7468
27151SOL     OW93511   8.347   4.092   5.175  0.0164 -0.4272 -0.3441
27151SOL    HW193512   8.411   4.103   5.099 -0.2424 -0.0423 -0.5069
27151SOL    HW293513   8.321   3.996   5.183  0.3102 -0.5237 -0.5232
27152SOL     OW93514   3.210   9.896   8.536  0.2702  0.2047  0.3489
27152SOL    HW193515   3.227   9.991   8.508  0.6609 -0.4805 -1.8037
27152SOL    HW293516   3.202   9.892   8.636  1.8200  2.2498  0.5818
27153SOL     OW93517   1.597   5.139   7.276  0.1073 -0.3121 -0.4108
27153SOL    HW193518   1.627   5.049   7.307 -0.3798 -0.4738 -0.4094
27153SOL    HW293519   1.627   5.154   7.182  3.4582  1.0312  0.7944
27154SOL     OW93520   7.898   2.807   8.608 -0.0487 -0.0318 -0.2660
27154SOL    HW193521   7.835   2.884   8.624 -1.0051 -0.7552 -0.4912
27154SOL    HW293522   7.941   2.817   8.519 -0.8532 -0.2118 -0.6843
27155SOL     OW93523   8.177   1.714   4.539  0.3857  0.0918 -0.9864
27155SOL    HW193524   8.264   1.729   4.585  1.3502  0.3920 -2.8247
27155SOL    HW293525   8.134   1.631   4.575  1.5141 -0.1592 -0.1743
27156SOL     OW93526   3.001   4.430   0.616  0.4510  0.1661  0.3930
27156SOL    HW193527   3.020   4.351   0.674 -0.5446 -0.9170 -0.7386
27156SOL    HW293528   2.939   4.403   0.542 -0.1940  2.0960  0.2182
27157SOL     OW93529   9.520   6.941   2.688 -0.7652 -0.0161 -0.3574
27157SOL    HW193530   9.477   7.011   2.630 -1.1705  0.3920  0.4303
27157SOL    HW293531   9.523   6.854   2.639 -1.3157  0.2740 -0.9048
27158SOL     OW93532   0.087   2.294   4.443 -0.0243 -0.3982 -0.1885
27158SOL    HW193533   0.074   2.391   4.421  0.4727 -0.2983 -0.0531
27158SOL    HW293534  -0.000   2.254   4.472 -0.0339  0.2623  0.7309
27159SOL     OW93535   7.570   1.309   4.741  0.3274  0.2654 -0.0311
27159SOL    HW193536   7.489   1.314   4.682  1.5726 -0.2215 -1.8394
27159SOL    HW293537   7.630   1.388   4.721  0.7807  0.0672  0.5386
27160SOL     OW93538   0.466   7.667   5.952  0.6096 -0.3763 -0.3448
27160SOL    HW193539   0.434   7.647   5.860  1.7880  0.0751 -0.8654
27160SOL    HW293540   0.487   7.581   6.000 -1.3828 -0.6755  0.0203
27161SOL     OW93541   0.583   3.877   2.450 -0.0754  0.4761 -0.2914
27161SOL    HW193542   0.656   3.920   2.503 -0.9827  2.6409 -0.7270
27161SOL    HW293543   0.574   3.924   2.362 -0.5019 -1.2224 -1.1640
27162SOL     OW93544   9.138   3.706   3.761  0.3816 -0.4581 -0.0522
27162SOL    HW193545   9.171   3.697   3.855  2.0832 -0.8926 -0.6844
27162SOL    HW293546   9.214   3.695   3.698 -0.3799  2.0180 -1.4380
27163SOL     OW93547   5.088   2.224   0.387 -0.0148 -0.0586  0.3654
27163SOL    HW193548   5.095   2.148   0.452 -0.3110  0.9412  1.5898
27163SOL    HW293549   5.139   2.202   0.304 -0.6477 -1.8547  0.4514
27164SOL     OW93550   8.129   8.332   6.281  0.1119  0.2370 -0.7443
27164SOL    HW193551   8.189   8.387   6.339 -0.5236 -0.5355  0.6662
27164SOL    HW293552   8.183   8.258   6.239  0.3306  0.0989 -0.2198
27165SOL     OW93553   0.664   1.726   2.583  0.2013 -0.0229  0.2262
27165SOL    HW193554   0.636   1.674   2.664  4.1244 -0.5685  1.3316
27165SOL    HW293555   0.683   1.664   2.508 -1.5784  0.3552 -0.5619
27166SOL     OW93556   3.607   8.319   6.410  0.4610  0.6215 -0.0180
27166SOL    HW193557   3.522   8.299   6.361 -0.3594 -3.1023  2.6886
27166SOL    HW293558   3.587   8.373   6.492  0.4193 -1.5840  1.4618
27167SOL     OW93559   8.799   5.069   6.376  0.0526  0.2579 -0.3940
27167SOL    HW193560   8.846   5.043   6.461 -0.2465  1.2590  0.0753
27167SOL    HW293561   8.789   4.988   6.318 -1.3727 -0.8121  1.3032
27168SOL     OW93562   3.178   4.280   6.421 -0.0363  0.4308  0.1727
27168SOL    HW193563   3.181   4.348   6.349  0.1557 -1.7394 -1.9273
27168SOL    HW293564   3.271   4.265   6.456 -0.2403  2.0559  1.4491
27169SOL     OW93565   9.296   5.557   0.046  0.0992 -0.4586 -0.4450
27169SOL    HW193566   9.390   5.593   0.049  0.1288 -0.5715  0.0003
27169SOL    HW293567   9.254   5.568   0.136 -0.5011  0.0862 -0.7878
27170SOL     OW93568   4.576   8.216   6.835 -0.3831  0.5534 -0.0800
27170SOL    HW193569   4.585   8.301   6.887  2.4257 -1.1892  2.4564
27170SOL    HW293570   4.486   8.177   6.851 -0.0094  0.6701  2.6192
27171SOL     OW93571   7.417   1.600   1.314 -0.2588 -0.3660  0.0590
27171SOL    HW193572   7.486   1.528   1.313  0.0353 -0.0813 -0.0750
27171SOL    HW293573   7.400   1.629   1.408 -0.2374 -0.4696  0.0953
27172SOL     OW93574   7.093   0.789   2.237 -0.4823  0.1714 -0.5036
27172SOL    HW193575   7.090   0.820   2.332  1.0414 -0.5796 -0.1980
27172SOL    HW293576   7.165   0.838   2.188  0.0692 -0.8660 -0.7427
27173SOL     OW93577   1.760   1.012   7.707  0.2239 -0.5247  0.4179
27173SOL    HW193578   1.685   1.013   7.641  1.7466 -0.3376 -1.3885
27173SOL    HW293579   1.824   1.087   7.685  1.8967 -1.8260  0.7191
27174SOL     OW93580   9.058   4.554   1.764  0.4453  0.3190 -0.1345
27174SOL    HW193581   9.042   4.470   1.817 -0.6249  1.5651  1.5500
27174SOL    HW293582   9.156   4.568   1.753  0.6324 -1.0640 -0.2751
27175SOL     OW93583   6.367   2.414   6.259  0.0777  0.3105 -0.1667
27175SOL    HW193584   6.329   2.325   6.285  1.2222 -0.2409 -0.3094
27175SOL    HW293585   6.409   2.457   6.339 -1.5164  1.2731  0.1654
27176SOL     OW93586   7.666   4.527   9.224 -0.1230 -0.0339  0.4309
27176SOL    HW193587   7.628   4.617   9.245 -1.0172 -0.3536  0.1810
27176SOL    HW293588   7.618   4.457   9.275 -0.3481 -0.5123 -0.4247
27177SOL     OW93589   8.854   1.413   5.569  0.1091  0.1284  0.5397
27177SOL    HW193590   8.866   1.487   5.636 -0.8378  0.0903  0.7561
27177SOL    HW293591   8.793   1.444   5.496 -0.8564 -0.6945  1.0022
27178SOL     OW93592   3.509   3.414   3.547  0.3926 -0.5446  0.2038
27178SOL    HW193593   3.589   3.447   3.496  0.5641 -0.4468  0.5340
27178SOL    HW293594   3.488   3.477   3.621  0.3616 -0.8693  0.4747
27179SOL     OW93595   2.908   7.093   4.149  0.1023  0.0637 -0.3760
27179SOL    HW193596   2.925   7.159   4.223 -0.7303  0.0991 -0.2138
27179SOL    HW293597   2.825   7.041   4.170 -0.5340  0.5616 -1.6374
27180SOL     OW93598   3.657   6.420   1.915  0.4332 -0.4154 -0.0543
27180SOL    HW193599   3.630   6.331   1.879  1.3999 -0.4471 -0.7323
27180SOL    HW293600   3.712   6.407   1.998 -1.5833 -0.3519  1.3338
27181SOL     OW93601   0.174   5.618   6.087 -0.1634 -0.1576 -0.3752
27181SOL    HW193602   0.249   5.562   6.122 -0.2434  0.5837  1.0148
27181SOL    HW293603   0.118   5.564   6.025  0.4952 -1.2410 -0.0430
27182SOL     OW93604   2.734   2.834   2.403 -0.2279  0.2369 -0.7008
27182SOL    HW193605   2.775   2.762   2.347 -1.0505 -0.7611 -0.0329
27182SOL    HW293606   2.667   2.794   2.465  0.8748  1.2783  1.2056
27183SOL     OW93607   8.768   5.144   3.407 -0.1926 -0.2310 -0.2050
27183SOL    HW193608   8.808   5.119   3.495 -0.5358  1.6237  0.5028
27183SOL    HW293609   8.798   5.079   3.337  0.7824 -1.2141  1.0950
27184SOL     OW93610   3.610   4.051   8.581 -0.6074 -0.0445  0.1172
27184SOL    HW193611   3.643   4.011   8.667 -3.2782 -0.1897  1.1146
27184SOL    HW293612   3.558   4.134   8.600  1.0148  1.4306 -1.6095
27185SOL     OW93613   0.044   5.538   5.389 -0.3496  0.2323  0.4919
27185SOL    HW193614   0.065   5.440   5.385  1.2230  0.5968 -0.6329
27185SOL    HW293615   0.036   5.565   5.485 -1.0333 -1.0432  0.8123
27186SOL     OW93616   1.151   0.534   7.134  0.4311 -0.3137 -0.5474
27186SOL    HW193617   1.087   0.504   7.205  2.7110 -0.3159  1.5380
27186SOL    HW293618   1.114   0.616   7.090 -1.7200 -1.1749 -0.4436
27187SOL     OW93619   1.397   7.996   1.326 -0.0230  0.2037  0.1552
27187SOL    HW193620   1.370   7.976   1.231 -1.2402 -2.5525  1.0420
27187SOL    HW293621   1.377   8.091   1.347 -0.1508  0.7258 -2.2209
27188SOL     OW93622   8.701   2.461   2.980  0.0344 -0.6860  0.3845
27188SOL    HW193623   8.686   2.547   2.931  1.2630  0.0721  1.3124
27188SOL    HW293624   8.617   2.435   3.028 -0.2920  0.0730  0.2271
27189SOL     OW93625   9.450   3.286   4.624 -0.4377 -0.3356  0.2055
27189SOL    HW193626   9.360   3.328   4.609  0.9446  1.8626 -2.3547
27189SOL    HW293627   9.481   3.307   4.717 -1.3930  1.2853  0.1802
27190SOL     OW93628   7.102   7.099   3.029 -0.5757 -0.2776  0.3364
27190SOL    HW193629   7.114   7.108   2.930  1.1918 -1.4140  0.4216
27190SOL    HW293630   7.170   7.035   3.065 -0.9015  0.4770  2.3601
27191SOL     OW93631   1.068   8.125   8.356 -0.9618 -0.2949  0.3527
27191SOL    HW193632   0.969   8.134   8.345 -1.3081 -1.8410  2.0001
27191SOL    HW293633   1.088   8.060   8.429  1.2902 -1.7789 -1.5070
27192SOL     OW93634   2.829   6.446   2.529  0.2077  0.1860  0.0706
27192SOL    HW193635   2.734   6.471   2.550  0.7502  2.0708  0.4133
27192SOL    HW293636   2.832   6.353   2.493 -1.6112 -0.4137  1.3772
27193SOL     OW93637   5.670   4.256   1.648  0.7144 -0.5330 -0.2650
27193SOL    HW193638   5.741   4.295   1.589  0.2409 -1.5291 -1.5277
27193SOL    HW293639   5.657   4.313   1.729  1.9974  0.3805 -0.7047
27194SOL     OW93640   9.749   3.957   9.037 -0.3042 -0.3115  0.3489
27194SOL    HW193641   9.839   3.977   9.075  0.4041  0.5618 -1.6945
27194SOL    HW293642   9.682   4.022   9.072  0.2890  0.3618  0.2364
27195SOL     OW93643   9.336   2.240   3.695 -0.0872  0.2447  0.4504
27195SOL    HW193644   9.277   2.316   3.720 -0.0261  1.6969 -3.4396
27195SOL    HW293645   9.419   2.242   3.750 -0.1800  2.8858  0.5493
27196SOL     OW93646   1.033   2.263   9.423 -0.0420 -0.6987  0.3484
27196SOL    HW193647   1.044   2.288   9.326 -1.2564 -1.5167 -0.0233
27196SOL    HW293648   1.029   2.345   9.479  1.1236 -0.2301 -0.2541
27197SOL     OW93649   8.947   4.944   7.877  0.3558  0.0338 -0.5323
27197SOL    HW193650   8.961   4.851   7.842 -2.1302 -0.4117 -0.4808
27197SOL    HW293651   8.922   4.939   7.974  1.1354  0.8157 -0.2920
27198SOL     OW93652   0.172   2.814   0.168 -0.6369  0.3997  0.2289
27198SOL    HW193653   0.235   2.858   0.233 -1.5123 -0.6965  1.8637
27198SOL    HW293654   0.078   2.827   0.199 -1.1162  0.5592 -1.2769
27199SOL     OW93655   4.403   2.526   9.321 -0.0299  0.7140 -0.2771
27199SOL    HW193656   4.403   2.624   9.303 -0.2493  0.8816  0.6038
27199SOL    HW293657   4.456   2.507   9.404 -0.4871  0.1545 -0.1051
27200SOL     OW93658   0.542   3.553   1.935  0.0321  0.1659  0.3832
27200SOL    HW193659   0.458   3.600   1.960  0.1553  0.4615  0.2429
27200SOL    HW293660   0.593   3.608   1.869  0.3783  0.0309  0.5345
27201SOL     OW93661   7.587   1.708   3.683 -0.4107 -0.1956  0.1701
27201SOL    HW193662   7.495   1.739   3.662 -0.1426 -1.0122 -2.4176
27201SOL    HW293663   7.645   1.788   3.702 -1.2514  0.4346  0.1294
27202SOL     OW93664   0.101   5.017   1.130  0.2183  0.1722 -0.2936
27202SOL    HW193665   0.003   5.016   1.110 -0.3966  1.5956  2.4540
27202SOL    HW293666   0.138   4.924   1.119 -1.8936 -0.8233  0.7514
27203SOL     OW93667   5.964   4.603   6.259  0.5108  0.1486 -0.2786
27203SOL    HW193668   5.985   4.653   6.343 -1.3434  0.2614  0.1295
27203SOL    HW293669   5.934   4.667   6.189  0.9956 -0.0754 -0.6964
27204SOL     OW93670   1.918   7.098   7.103  0.1947  0.1980  0.4440
27204SOL    HW193671   1.969   7.071   7.185 -2.2564 -2.7395  1.1083
27204SOL    HW293672   1.852   7.026   7.080 -1.1437  2.2636 -2.4613
27205SOL     OW93673   7.619   5.722   7.779 -0.2181  0.1812 -0.0553
27205SOL    HW193674   7.711   5.688   7.795  0.2409  0.7176 -1.4665
27205SOL    HW293675   7.552   5.659   7.818  0.7049 -0.9105 -0.2123
27206SOL     OW93676   0.209   9.238   4.065 -0.2820 -0.3913  0.1095
27206SOL    HW193677   0.267   9.281   3.996  2.6152 -2.6093  1.0449
27206SOL    HW293678   0.220   9.138   4.059 -0.7353 -0.6555  3.1072
27207SOL     OW93679   1.443   6.006   8.877 -0.0838 -0.4070 -0.1751
27207SOL    HW193680   1.524   5.970   8.830 -0.3284  1.1607 -1.8642
27207SOL    HW293681   1.470   6.076   8.942 -0.1483  1.1594 -1.7781
27208SOL     OW93682   9.742   2.694   8.386  0.0266 -0.0107  0.4276
27208SOL    HW193683   9.698   2.769   8.337  0.5952 -0.2523 -0.4569
27208SOL    HW293684   9.695   2.679   8.473 -1.7975 -0.4462 -0.6339
27209SOL     OW93685   9.952   8.766   0.738 -0.2804  0.0148  0.5049
27209SOL    HW193686   9.991   8.788   0.828 -3.0337 -2.0932  2.2820
27209SOL    HW293687   9.867   8.816   0.726  0.5320  0.9832 -1.3620
27210SOL     OW93688   0.281   1.963   8.789 -0.4274  0.2911  0.0784
27210SOL    HW193689   0.211   1.904   8.750 -0.1079 -1.4414  2.0348
27210SOL    HW293690   0.364   1.910   8.807  0.1667  1.5153  1.1055
27211SOL     OW93691   2.123   5.543   4.292 -0.1071  0.3199 -0.1263
27211SOL    HW193692   2.026   5.545   4.270 -0.2005  2.8194  0.3046
27211SOL    HW293693   2.137   5.575   4.386  1.1096 -0.3405 -0.0705
27212SOL     OW93694   3.485   5.017   9.730 -0.0042 -0.5489 -0.2406
27212SOL    HW193695   3.541   4.939   9.758 -0.1885 -0.6067 -0.0282
27212SOL    HW293696   3.403   5.022   9.788  1.5738  1.6745  1.8832
27213SOL     OW93697   2.219   8.426   7.694 -0.2411 -0.1220 -0.0594
27213SOL    HW193698   2.181   8.366   7.764  1.8353  0.5450  1.6718
27213SOL    HW293699   2.216   8.380   7.605  0.1484 -2.2757  1.0193
27214SOL     OW93700   1.090   8.037   3.087 -0.4877  0.0107  0.2944
27214SOL    HW193701   1.000   8.040   3.042 -0.3200 -1.8923 -0.2135
27214SOL    HW293702   1.125   8.130   3.098 -1.4378  0.6305 -1.7130
27215SOL     OW93703   0.486   7.985   9.998  0.3961  0.0779 -0.4393
27215SOL    HW193704   0.439   7.906  10.038  0.3245 -0.0592 -0.7903
27215SOL    HW293705   0.560   8.013  10.059  1.1590 -0.9889 -0.8498
27216SOL     OW93706   8.764   4.743   1.226 -0.1255 -0.0176  0.2710
27216SOL    HW193707   8.743   4.741   1.128 -0.9122  1.1676  0.4076
27216SOL    HW293708   8.861   4.764   1.240  0.0841 -0.6356 -0.2611
27217SOL     OW93709   2.251   1.132   4.794  0.5201 -0.2842  0.0764
27217SOL    HW193710   2.299   1.046   4.812 -1.1271 -0.5527  3.5287
27217SOL    HW293711   2.154   1.122   4.815  0.0014  2.0001 -0.9809
27218SOL     OW93712   0.660   3.064   7.671  0.0040  0.0240  0.7072
27218SOL    HW193713   0.667   2.979   7.723  0.2006  0.5299  1.5100
27218SOL    HW293714   0.646   3.141   7.734 -1.0315  0.4845 -0.0661
27219SOL     OW93715   7.938   4.565   5.492 -0.2698 -0.1386 -0.3731
27219SOL    HW193716   7.933   4.546   5.393  0.2652 -1.0910 -0.2211
27219SOL    HW293717   7.913   4.483   5.543 -1.4274  0.6105  0.2923
27220SOL     OW93718   8.408   1.980   5.312 -0.5487  0.6337 -0.7206
27220SOL    HW193719   8.403   1.982   5.212 -3.1293  0.3247 -0.6160
27220SOL    HW293720   8.369   1.895   5.346 -0.2527  1.0103  0.5948
27221SOL     OW93721   9.319   3.892   5.857  0.1916  0.2842 -0.4554
27221SOL    HW193722   9.373   3.969   5.822  0.3706  0.6184  0.5358
27221SOL    HW293723   9.228   3.924   5.883  0.6873  0.4242  1.1495
27222SOL     OW93724   2.037   3.745   9.308  0.1358  0.2456 -0.9551
27222SOL    HW193725   2.075   3.712   9.394 -1.3710 -0.7490 -0.6527
27222SOL    HW293726   2.061   3.682   9.234  2.4273  1.7078 -1.5146
27223SOL     OW93727   5.428   0.611   2.471 -0.2627  0.3804  0.7664
27223SOL    HW193728   5.339   0.627   2.514 -0.0925 -0.0710  1.2924
27223SOL    HW293729   5.419   0.540   2.401 -0.4596  0.8382  0.3256
27224SOL     OW93730   9.845   7.289   9.914  0.2182 -0.4460  0.3233
27224SOL    HW193731   9.768   7.351   9.926  0.2289 -0.2123 -0.8096
27224SOL    HW293732   9.921   7.337   9.870  0.4022 -1.1373 -0.1192
27225SOL     OW93733   1.217   5.583   2.837 -0.2060 -0.1453 -0.0652
27225SOL    HW193734   1.259   5.663   2.881  0.5699 -0.9925  0.7461
27225SOL    HW293735   1.195   5.514   2.906  0.8085 -1.3982 -0.9714
27226SOL     OW93736   1.218   4.186   2.220  0.3502  0.4048  0.2214
27226SOL    HW193737   1.176   4.268   2.261 -1.1604 -0.2177 -0.0298
27226SOL    HW293738   1.188   4.105   2.270  1.9237 -0.0029  0.5334
27227SOL     OW93739   3.733   4.600   6.085 -0.6114  0.2242 -0.4707
27227SOL    HW193740   3.824   4.594   6.126 -0.3794  1.4249 -0.7754
27227SOL    HW293741   3.709   4.512   6.045  0.4952 -0.0688 -0.5247
27228SOL     OW93742   8.391   5.836   7.240  0.0565 -0.1391 -0.4922
27228SOL    HW193743   8.449   5.824   7.160  0.5276 -0.4090 -0.1110
27228SOL    HW293744   8.329   5.913   7.224 -0.1395 -0.4491 -1.2767
27229SOL     OW93745   2.781   3.953   1.406 -0.4039 -0.7302  0.3831
27229SOL    HW193746   2.688   3.928   1.380 -0.8571  0.6692  0.5783
27229SOL    HW293747   2.777   4.021   1.480  0.7583 -0.4625  0.2037
27230SOL     OW93748   8.682   5.254   6.567  0.4054  0.1021  0.4292
27230SOL    HW193749   8.717   5.178   6.511  0.0413 -0.3359  0.7855
27230SOL    HW293750   8.690   5.230   6.664 -2.0010 -0.5330  0.5016
27231SOL     OW93751   0.301   5.381   4.418  0.5757 -0.3885 -0.5448
27231SOL    HW193752   0.325   5.284   4.424  1.8998 -0.0294  0.2182
27231SOL    HW293753   0.288   5.418   4.510  2.4107  0.7185 -0.7161
27232SOL     OW93754   8.214   1.681   4.041 -0.7515 -0.9769  0.2295
27232SOL    HW193755   8.192   1.713   4.132  5.0821 -0.9032  1.8392
27232SOL    HW293756   8.238   1.584   4.045 -1.1826 -1.1633 -1.3608
27233SOL     OW93757   1.327   3.653   7.610  0.0787 -0.8690  0.0086
27233SOL    HW193758   1.265   3.656   7.689  2.2355  0.5425  1.7205
27233SOL    HW293759   1.318   3.737   7.557  0.6612 -0.5345  0.4188
27234SOL     OW93760   3.880   6.952   8.391  0.4758 -0.2731 -0.0466
27234SOL    HW193761   3.955   6.947   8.457 -0.4155 -0.1387  0.9896
27234SOL    HW293762   3.831   7.038   8.404 -0.7526 -1.0218  0.2518
27235SOL     OW93763   9.422   4.528   6.366  0.2349  0.1918  0.2720
27235SOL    HW193764   9.503   4.471   6.365 -0.2731 -0.5364  0.2641
27235SOL    HW293765   9.371   4.512   6.450  0.2418  0.8506  0.4051
27236SOL     OW93766   1.681   2.395   3.441  0.1238  0.0144 -0.2632
27236SOL    HW193767   1.594   2.416   3.486  0.8684 -0.5595  1.4864
27236SOL    HW293768   1.757   2.417   3.503  1.1663 -0.8895 -1.1980
27237SOL     OW93769   8.100   7.404   5.089  0.2231  0.3351  0.1521
27237SOL    HW193770   8.127   7.413   4.993  0.5823  0.4676  0.2635
27237SOL    HW293771   8.110   7.493   5.134 -0.9024  0.5099  0.0705
27238SOL     OW93772   9.738   9.267   5.450  0.2321 -0.2138 -0.1338
27238SOL    HW193773   9.721   9.251   5.547  0.0242  1.7810  0.1845
27238SOL    HW293774   9.657   9.242   5.398 -0.6112  1.1453  0.4916
27239SOL     OW93775   9.643   0.560   6.038  0.0997  0.1095 -0.1260
27239SOL    HW193776   9.593   0.547   5.952 -1.1557 -0.6281  0.6917
27239SOL    HW293777   9.741   0.571   6.019 -0.1787  0.0639 -1.6472
27240SOL     OW93778   9.410   3.954   0.374 -0.2861 -0.5218 -0.6704
27240SOL    HW193779   9.320   3.996   0.387  0.5505  0.7594  1.2645
27240SOL    HW293780   9.448   3.928   0.462  1.3758 -0.7793 -1.4369
27241SOL     OW93781   8.929   6.508   7.276 -0.2978  0.3900 -0.3918
27241SOL    HW193782   8.877   6.567   7.338 -0.2981 -2.4453  2.4598
27241SOL    HW293783   9.026   6.532   7.281 -0.2989  0.1904  0.7203
27242SOL     OW93784   8.553   6.076   5.645  0.2570 -0.3804 -0.2663
27242SOL    HW193785   8.484   6.010   5.614  0.5825 -1.5003  1.3299
27242SOL    HW293786   8.548   6.085   5.745  1.9806  0.0472 -0.2039
27243SOL     OW93787   1.331   3.615   7.065 -0.0428 -0.8253  0.0907
27243SOL    HW193788   1.389   3.682   7.111 -1.6142  0.4263  0.3040
27243SOL    HW293789   1.264   3.580   7.129 -0.3494 -1.2974 -0.4838
27244SOL     OW93790   1.812   3.781   3.390  0.2754  0.3644  0.2024
27244SOL    HW193791   1.833   3.859   3.449 -0.8543  1.1133 -0.3620
27244SOL    HW293792   1.859   3.700   3.424 -1.7986  0.3473  3.2715
27245SOL     OW93793   9.881   7.975   0.762 -0.1282 -0.0656  0.2772
27245SOL    HW193794   9.878   7.875   0.767 -0.4931 -0.0339  0.6960
27245SOL    HW293795   9.790   8.011   0.742 -0.2470  0.2438  1.3113
27246SOL     OW93796   5.683   6.302   3.415  0.4324 -0.3232 -0.5571
27246SOL    HW193797   5.778   6.278   3.399  0.9740  0.6801  1.0413
27246SOL    HW293798   5.666   6.309   3.514 -1.3025 -0.5284 -0.8215
27247SOL     OW93799   6.781   9.865   6.779 -0.3191 -0.6280 -0.4402
27247SOL    HW193800   6.735   9.954   6.775  0.9022  0.0106 -0.5403
27247SOL    HW293801   6.831   9.857   6.865  0.5968 -0.7040 -0.9772
27248SOL     OW93802   9.674   8.964   8.183 -0.0364  0.4174 -0.4144
27248SOL    HW193803   9.659   8.999   8.276 -1.3895  0.6921 -0.7147
27248SOL    HW293804   9.762   8.918   8.178 -0.0852  0.1307  1.0953
27249SOL     OW93805   1.422   7.669   4.793  0.3205  0.2269  0.5260
27249SOL    HW193806   1.466   7.758   4.784 -0.5694  0.7700  1.4437
27249SOL    HW293807   1.482   7.597   4.756  0.4590  1.3626 -1.5324
27250SOL     OW93808   6.404   1.936   3.369  0.6682  0.3228 -0.1055
27250SOL    HW193809   6.372   1.854   3.321  0.3265 -0.2156  1.0345
27250SOL    HW293810   6.496   1.959   3.338  0.6506 -0.3124 -0.6489
27251SOL     OW93811   7.325   6.124   6.242 -0.2599  0.3603 -0.6202
27251SOL    HW193812   7.317   6.221   6.222 -0.6765 -0.0272 -2.4305
27251SOL    HW293813   7.392   6.082   6.181 -1.4723 -0.8402 -1.1604
27252SOL     OW93814   0.283   5.703   7.001  0.1168 -0.5605 -0.1707
27252SOL    HW193815   0.184   5.692   7.008  0.2928 -1.0753  1.7833
27252SOL    HW293816   0.319   5.739   7.087  1.4760  0.9156 -1.3215
27253SOL     OW93817   6.687   4.178   9.362  0.6124 -0.0850  0.2165
27253SOL    HW193818   6.747   4.213   9.434 -0.2251 -3.2890  2.5799
27253SOL    HW293819   6.738   4.115   9.304  0.8492  1.1721 -0.9370
27254SOL     OW93820   5.170   4.297   4.746 -0.2381 -0.3255 -0.2866
27254SOL    HW193821   5.156   4.393   4.724 -0.4881 -0.9614 -3.1667
27254SOL    HW293822   5.108   4.269   4.819  0.3297  1.8543  1.0502
27255SOL     OW93823   1.665   8.614   9.926  0.3505 -0.0230 -0.7628
27255SOL    HW193824   1.598   8.567   9.983  0.7170  0.1054 -0.2321
27255SOL    HW293825   1.634   8.611   9.830  0.1376 -0.9161 -0.6682
27256SOL     OW93826   9.075   3.943   5.308  0.0766  0.2114  0.5626
27256SOL    HW193827   8.977   3.936   5.286  0.8882 -3.6444 -2.3736
27256SOL    HW293828   9.093   3.898   5.395 -0.5624 -0.5559  0.3079
27257SOL     OW93829   9.725   9.919   3.533 -0.4609  0.3873  1.1224
27257SOL    HW193830   9.627   9.913   3.553 -0.3180  1.2349  2.1417
27257SOL    HW293831   9.750  10.015   3.522  0.4713  0.2371  1.9654
27258SOL     OW93832   0.451   5.991   0.922  0.3384 -0.4756 -0.5250
27258SOL    HW193833   0.413   5.949   0.839  0.8030 -1.0742 -0.4444
27258SOL    HW293834   0.470   5.919   0.989 -0.3153  0.0436  0.2109
27259SOL     OW93835   2.130   8.515   1.977 -0.7547 -0.1280 -0.5055
27259SOL    HW193836   2.077   8.444   2.023 -0.0287 -1.3995 -1.5559
27259SOL    HW293837   2.075   8.597   1.967 -1.2172 -0.1325  1.7968
27260SOL     OW93838   9.190   0.322   0.088 -0.1726  0.3270  0.6747
27260SOL    HW193839   9.127   0.332   0.011 -0.2488 -0.3105  0.6554
27260SOL    HW293840   9.139   0.294   0.169 -0.1840  1.5790  1.1071
27261SOL     OW93841   0.429   4.759   9.275 -0.0026 -0.1410  0.0498
27261SOL    HW193842   0.506   4.773   9.213 -0.9680 -1.1453 -1.3910
27261SOL    HW293843   0.404   4.662   9.278 -2.1917  0.3590 -0.7094
27262SOL     OW93844   4.684   5.623   4.951  0.1634  0.2907  0.2846
27262SOL    HW193845   4.763   5.677   4.981 -0.1217 -0.0204  1.6378
27262SOL    HW293846   4.704   5.526   4.965  0.0660  0.1297 -0.6653
27263SOL     OW93847   4.656   5.440   5.305  0.3870 -0.0644  0.4303
27263SOL    HW193848   4.612   5.425   5.216 -0.1444  0.2548  0.6420
27263SOL    HW293849   4.704   5.357   5.333  0.4786 -0.1958 -0.1112
27264SOL     OW93850   4.269   3.621   7.319  1.2806 -0.1545 -0.0207
27264SOL    HW193851   4.182   3.590   7.358  0.9723 -1.1249 -1.4298
27264SOL    HW293852   4.332   3.646   7.393  0.9923 -2.6971  1.1531
27265SOL     OW93853   1.137   3.744   7.816  0.5696 -0.3598  0.2310
27265SOL    HW193854   1.128   3.692   7.901 -0.7430  0.5474  0.6608
27265SOL    HW293855   1.096   3.835   7.828 -0.0015 -0.3708 -1.5066
27266SOL     OW93856   6.506   7.373   5.634 -0.2448 -0.0768  0.4077
27266SOL    HW193857   6.595   7.388   5.677  0.7850 -0.5132 -1.5270
27266SOL    HW293858   6.435   7.414   5.690  1.3905  2.1797  0.9057
27267SOL     OW93859   3.588   4.434   5.544  0.5496 -0.6627 -0.7268
27267SOL    HW193860   3.649   4.466   5.617 -0.8010 -2.3093  1.1760
27267SOL    HW293861   3.566   4.510   5.482  2.2760  0.5862  0.1562
27268SOL     OW93862   1.567   4.768   6.331 -0.3863 -0.1426  0.4216
27268SOL    HW193863   1.564   4.687   6.390  1.0904  0.0052  0.7102
27268SOL    HW293864   1.653   4.769   6.279 -1.8427 -0.5053 -2.0872
27269SOL     OW93865   0.077   2.809   5.537 -0.5841 -0.1523  0.3663
27269SOL    HW193866   0.144   2.736   5.544 -0.7973 -0.7209 -2.8042
27269SOL    HW293867   0.124   2.897   5.529 -0.2271 -0.4359 -0.6941
27270SOL     OW93868   2.357   2.798   0.359 -0.2508  0.3597  0.4035
27270SOL    HW193869   2.268   2.829   0.325 -0.5566  0.0445  0.9002
27270SOL    HW293870   2.348   2.705   0.394  0.0922  0.6194  1.1839
27271SOL     OW93871   9.289   4.908   7.901 -0.8690 -0.5231  0.2117
27271SOL    HW193872   9.190   4.894   7.905 -0.7107 -2.0104 -0.6186
27271SOL    HW293873   9.325   4.925   7.993 -2.0686  1.3997  0.3497
27272SOL     OW93874   6.017   1.373   2.611  0.1383 -0.2796 -0.0265
27272SOL    HW193875   5.963   1.416   2.539 -0.5281  0.3270  0.8301
27272SOL    HW293876   6.110   1.411   2.610 -0.1473  0.4376  0.0542
27273SOL     OW93877   3.065   2.434   4.674  0.1094 -0.3485  0.6544
27273SOL    HW193878   3.058   2.522   4.627  1.8371  1.4255  3.5710
27273SOL    HW293879   3.005   2.368   4.629 -0.7049  2.0987 -2.0303
27274SOL     OW93880   8.634   2.264   9.659  0.1249  0.3206 -0.0418
27274SOL    HW193881   8.694   2.184   9.662  0.1830  0.3226 -0.8337
27274SOL    HW293882   8.603   2.287   9.751  1.1001  0.1334  0.3424
27275SOL     OW93883   8.489   0.177   4.639  0.5459 -0.7741 -0.1682
27275SOL    HW193884   8.499   0.260   4.585  1.1551 -0.5643  0.2623
27275SOL    HW293885   8.539   0.186   4.725  0.8900 -1.7099 -0.2553
27276SOL     OW93886   6.600   0.280   1.503  0.3463  0.0800 -0.7596
27276SOL    HW193887   6.653   0.201   1.473  0.7871  0.5094 -1.1388
27276SOL    HW293888   6.662   0.349   1.541  0.1319  0.8159 -1.7175
27277SOL     OW93889   7.891   3.769   6.340 -0.8387 -0.2936  0.4527
27277SOL    HW193890   7.964   3.828   6.376 -1.5497 -0.2410  1.8516
27277SOL    HW293891   7.921   3.727   6.255  0.4838  0.4429  0.5391
27278SOL     OW93892   6.434   3.179   0.110  0.1781  0.4556 -0.4018
27278SOL    HW193893   6.468   3.147   0.022 -0.3377  1.0306 -0.8101
27278SOL    HW293894   6.356   3.240   0.096 -1.9035 -1.9000  0.5850
27279SOL     OW93895   0.005   7.979   0.032 -0.1434 -0.3008  1.0962
27279SOL    HW193896  -0.044   8.021   0.109 -0.5077 -0.8293  1.1560
27279SOL    HW293897  -0.038   7.892   0.009  0.4260 -0.5007  0.7794
27280SOL     OW93898   9.931   2.644   5.410  0.5405 -0.1805 -0.2822
27280SOL    HW193899   9.980   2.705   5.472  0.5710 -1.0776  0.5805
27280SOL    HW293900   9.844   2.618   5.451  0.5058 -0.6812 -0.6684
27281SOL     OW93901   1.851   7.600   6.321  0.4186  0.3089 -0.1403
27281SOL    HW193902   1.835   7.582   6.224 -1.8724 -0.4770  0.3570
27281SOL    HW293903   1.808   7.686   6.347 -1.0933 -0.6743  0.6988
27282SOL     OW93904   7.315   5.519   0.316 -0.0843 -0.4034 -0.1452
27282SOL    HW193905   7.284   5.454   0.386 -0.3530  0.9937  1.0709
27282SOL    HW293906   7.355   5.598   0.361 -1.1412  0.9567 -1.5655
27283SOL     OW93907   4.326   8.537   5.637 -0.1590  0.5110  0.4605
27283SOL    HW193908   4.309   8.470   5.710  0.7732 -1.4456 -1.0785
27283SOL    HW293909   4.286   8.505   5.552  0.1769  1.9985 -0.2824
27284SOL     OW93910   0.715   5.516   8.009  0.0298  0.4266 -0.6511
27284SOL    HW193911   0.645   5.482   8.072  0.2644  0.4776 -0.3650
27284SOL    HW293912   0.737   5.611   8.032  1.3918 -0.1148  0.2947
27285SOL     OW93913   9.720   2.129   1.069 -0.0417 -0.2657 -0.6918
27285SOL    HW193914   9.683   2.039   1.043  2.0718 -0.9898 -1.2881
27285SOL    HW293915   9.742   2.181   0.986 -0.2048  0.3496 -0.3468
27286SOL     OW93916   8.929   7.382   7.738  0.5310  1.1049  0.5673
27286SOL    HW193917   8.859   7.315   7.711  1.6150 -0.2287  0.9792
27286SOL    HW293918   8.916   7.467   7.687 -0.2326  0.2023 -0.7687
27287SOL     OW93919   1.835   6.357   7.752  0.0844 -0.2969  0.2099
27287SOL    HW193920   1.852   6.267   7.791  1.4054  0.3725  1.1896
27287SOL    HW293921   1.864   6.358   7.656  1.3798 -0.4993  0.5948
27288SOL     OW93922   6.012   1.433   9.334 -0.0908 -0.5399 -0.2400
27288SOL    HW193923   5.984   1.446   9.429  0.8332  2.0698 -0.2812
27288SOL    HW293924   5.957   1.492   9.275  1.2278 -0.0935 -1.0248
27289SOL     OW93925   7.465   5.758   8.538 -0.5065 -0.1539 -0.1844
27289SOL    HW193926   7.522   5.692   8.490  1.6611  1.7107 -0.2887
27289SOL    HW293927   7.393   5.792   8.477 -0.3170 -0.8537 -0.7924
27290SOL     OW93928   7.075   4.029   6.813  0.7591 -0.1829 -0.1087
27290SOL    HW193929   7.096   3.932   6.802  0.4642 -0.1157 -1.4322
27290SOL    HW293930   6.997   4.052   6.754  2.3468  1.3678 -1.6179
27291SOL     OW93931   0.935   2.744   0.937  0.0616 -0.0937 -0.4548
27291SOL    HW193932   0.988   2.828   0.949 -1.1340  0.7611 -1.1508
27291SOL    HW293933   0.988   2.679   0.882  0.4001  0.7435 -1.1227
27292SOL     OW93934   9.744   6.825   9.169 -0.4786 -0.0677  0.2417
27292SOL    HW193935   9.741   6.785   9.261  2.4987 -0.5351  0.1899
27292SOL    HW293936   9.727   6.923   9.175 -0.3446 -0.0988  1.2998
27293SOL     OW93937   0.336   7.947   9.761  0.2117  0.0597 -0.4320
27293SOL    HW193938   0.341   7.854   9.725 -2.6979 -1.0080  1.7156
27293SOL    HW293939   0.396   7.955   9.840  0.0130 -0.1678 -0.2589
27294SOL     OW93940   1.420   6.671   2.278 -0.5791  0.0287  0.1472
27294SOL    HW193941   1.350   6.600   2.273 -0.9951  0.5370 -1.1811
27294SOL    HW293942   1.510   6.630   2.260 -0.5913 -0.4930  1.2010
27295SOL     OW93943   8.653   8.685   5.866  0.6838 -0.6300  0.3541
27295SOL    HW193944   8.666   8.776   5.906 -1.7636  0.8948 -2.1472
27295SOL    HW293945   8.626   8.621   5.938  0.0840  1.1572  1.7530
27296SOL     OW93946   9.178   5.371   2.778  0.2479  0.4265 -0.0202
27296SOL    HW193947   9.270   5.379   2.740  0.6041  2.2004  1.1649
27296SOL    HW293948   9.168   5.435   2.855 -1.9575  0.2321 -0.1215
27297SOL     OW93949   1.983   7.517   6.885 -0.0373  0.5780  0.4441
27297SOL    HW193950   2.050   7.482   6.819  0.0605  0.1089  0.7881
27297SOL    HW293951   1.905   7.555   6.836 -0.0545  0.0545  0.0565
27298SOL     OW93952   2.727   0.980   9.336 -0.1809 -0.4670 -0.5066
27298SOL    HW193953   2.809   0.938   9.376 -0.5678 -0.2128  0.5652
27298SOL    HW293954   2.732   1.079   9.348 -0.7663 -0.4742 -0.2346
27299SOL     OW93955   0.929   4.026   6.958  0.3580  0.2008  0.2637
27299SOL    HW193956   0.946   3.987   7.049 -0.5972  0.8973  0.7436
27299SOL    HW293957   0.929   3.952   6.890 -1.8528 -0.7156  1.2161
27300SOL     OW93958   2.212   7.255   7.217 -0.1539  0.5310 -0.3095
27300SOL    HW193959   2.143   7.291   7.281 -0.5517 -0.1872 -0.3259
27300SOL    HW293960   2.206   7.305   7.131  0.9366  2.0598  0.4821
27301SOL     OW93961   3.809   6.384   8.447  0.5013 -0.3690  0.0088
27301SOL    HW193962   3.797   6.430   8.535  0.8139 -0.9833  0.3694
27301SOL    HW293963   3.724   6.338   8.421  0.1239  0.5590 -0.4472
27302SOL     OW93964   3.517   4.882   2.196 -0.1369  0.7714 -0.2959
27302SOL    HW193965   3.439   4.907   2.253 -0.5430  1.5311 -1.1727
27302SOL    HW293966   3.601   4.893   2.248 -0.5722  0.4765  0.4806
27303SOL     OW93967   9.015   5.418   8.359 -0.0050 -0.2303 -0.0756
27303SOL    HW193968   9.101   5.465   8.377 -0.1085  0.4308 -1.2943
27303SOL    HW293969   9.034   5.324   8.329  0.2805 -0.2208  0.0760
27304SOL     OW93970   4.220   5.193   9.517 -0.0983 -1.0552 -0.5563
27304SOL    HW193971   4.319   5.204   9.521 -0.1993  0.3056 -1.4384
27304SOL    HW293972   4.196   5.097   9.533  1.2713 -1.1757  0.8384
27305SOL     OW93973   6.122   8.910   9.281  0.3411 -0.2901  0.3175
27305SOL    HW193974   6.155   9.003   9.266  1.0313 -0.0112  3.2787
27305SOL    HW293975   6.022   8.908   9.270  0.0000  1.3922  2.6803
27306SOL     OW93976   9.150   3.184   2.626 -0.2415 -0.5079 -0.3394
27306SOL    HW193977   9.197   3.262   2.668 -1.1802 -0.7965  1.3062
27306SOL    HW293978   9.051   3.203   2.622 -0.2110 -0.6303 -2.1448
27307SOL     OW93979   8.432   0.804   6.776 -0.3880  1.1579 -0.1347
27307SOL    HW193980   8.433   0.885   6.718  1.4247  1.4820  0.3233
27307SOL    HW293981   8.526   0.775   6.796 -1.0022 -0.8028  0.0660
27308SOL     OW93982   2.887   4.393   0.993  0.0582  0.3460  0.2044
27308SOL    HW193983   2.849   4.482   0.967 -0.7290  0.0762  0.4227
27308SOL    HW293984   2.822   4.344   1.050  0.4828 -0.3861  0.0691
27309SOL     OW93985   9.767   8.050   8.950 -0.3458  0.2513 -0.6265
27309SOL    HW193986   9.674   8.053   8.987 -0.0272  0.7725  0.1320
27309SOL    HW293987   9.789   8.138   8.909  0.1127  0.3981 -0.0680
27310SOL     OW93988   4.090   1.123   9.222  0.4452  0.1657  0.6156
27310SOL    HW193989   4.097   1.023   9.222  0.9860  0.2029  0.8790
27310SOL    HW293990   4.181   1.163   9.211 -0.0327  0.6167 -1.9337
27311SOL     OW93991   9.728   6.396   7.605 -0.7177 -0.2604  0.5765
27311SOL    HW193992   9.786   6.376   7.683 -1.5117  1.0141  1.5154
27311SOL    HW293993   9.660   6.465   7.630 -0.7189  0.4839 -1.3506
27312SOL     OW93994   5.187   1.314   7.212  0.0273  0.5173 -0.3885
27312SOL    HW193995   5.162   1.375   7.287 -2.5033 -0.7983 -0.1027
27312SOL    HW293996   5.232   1.232   7.248 -1.1254 -0.0830 -0.3087
27313SOL     OW93997   0.055   7.977   6.992  0.0061 -0.3422  0.1184
27313SOL    HW193998   0.127   7.951   7.056 -0.1469 -1.5047 -0.1606
27313SOL    HW293999   0.080   7.947   6.900  0.7431  2.3075 -0.5825
27314SOL     OW94000   3.254   7.143   2.957  0.2983  0.2146 -0.1935
27314SOL    HW194001   3.286   7.049   2.945 -0.6604 -0.1293 -0.1504
27314SOL    HW294002   3.308   7.188   3.028  0.1543 -0.6082  0.4401
27315SOL     OW94003   9.889   6.582   8.667  0.2443  0.0713  0.1237
27315SOL    HW194004   9.906   6.672   8.708 -0.4849 -0.8900  2.6026
27315SOL    HW294005   9.837   6.594   8.582 -2.7002  1.8667  2.0673
27316SOL     OW94006   7.857   2.870   9.071  0.2033 -0.0728 -0.2420
27316SOL    HW194007   7.939   2.882   9.127  0.0908  0.2095 -0.1345
27316SOL    HW294008   7.877   2.811   8.993  0.0956 -1.3218  0.6569
27317SOL     OW94009   1.994   9.826   7.384 -0.0707  0.6556  0.3460
27317SOL    HW194010   2.023   9.777   7.466 -2.2770 -1.5946 -0.1611
27317SOL    HW294011   2.011   9.770   7.303 -2.8370  0.5911 -0.2298
27318SOL     OW94012   4.824   4.171   9.590 -0.0264 -0.3747 -0.0880
27318SOL    HW194013   4.897   4.156   9.656 -0.1502  1.2163  0.4184
27318SOL    HW294014   4.805   4.085   9.542  0.1980 -1.4954  1.7798
27319SOL     OW94015   0.178   8.356   8.906  0.1004 -0.0228  0.4895
27319SOL    HW194016   0.272   8.375   8.934 -0.1677  0.5898  0.9775
27319SOL    HW294017   0.153   8.264   8.935  0.7946 -0.4703 -0.2960
27320SOL     OW94018   6.584   2.701   0.107  0.1353 -0.0831  0.2553
27320SOL    HW194019   6.652   2.656   0.164  0.5775 -1.0946 -1.0428
27320SOL    HW294020   6.526   2.760   0.163  0.9155 -0.6282  1.6408
27321SOL     OW94021   1.711   1.635   8.124  0.4154  0.5688 -0.7149
27321SOL    HW194022   1.744   1.711   8.068 -0.0403  0.2300 -1.4564
27321SOL    HW294023   1.626   1.600   8.085 -0.5606  1.1188  0.8963
27322SOL     OW94024   9.663   3.721   8.396 -0.1941 -0.1208  0.0788
27322SOL    HW194025   9.709   3.807   8.420  1.4855 -0.5352 -1.5101
27322SOL    HW294026   9.714   3.644   8.434 -0.7140 -0.4886  0.0364
27323SOL     OW94027   0.150   5.252   1.298  0.0176  0.1339  0.1432
27323SOL    HW194028   0.125   5.240   1.394  1.5160  0.3972  0.5841
27323SOL    HW294029   0.129   5.168   1.247  1.4389 -0.8900  1.2029
27324SOL     OW94030   0.672   3.182   8.966  0.0751 -0.0852 -0.0469
27324SOL    HW194031   0.589   3.236   8.955 -0.6783 -1.0218  0.9411
27324SOL    HW294032   0.750   3.232   8.928 -0.9776  0.6864 -1.2365
27325SOL     OW94033   8.047   1.078   0.561 -0.0273  0.1478  0.4178
27325SOL    HW194034   8.004   1.153   0.510  1.4400 -0.1722 -1.3495
27325SOL    HW294035   8.003   0.991   0.537  0.3809  0.0508  0.0117
27326SOL     OW94036   7.744   5.453   1.671 -0.6414  0.1219  0.0563
27326SOL    HW194037   7.702   5.521   1.730  1.6138 -0.1469  2.0515
27326SOL    HW294038   7.749   5.488   1.577 -0.3190  2.3453  0.8866
27327SOL     OW94039   3.607   8.430   6.666  0.0192 -0.1568  0.3617
27327SOL    HW194040   3.698   8.469   6.682 -0.0169 -0.0889  0.3980
27327SOL    HW294041   3.538   8.501   6.676  0.1194  0.2960 -1.7892
27328SOL     OW94042   1.746   4.859   4.228  0.3333 -1.0489  0.3009
27328SOL    HW194043   1.773   4.848   4.132  0.7761 -1.2015  0.4455
27328SOL    HW294044   1.825   4.888   4.282 -0.5612  1.8542  0.1224
27329SOL     OW94045   8.495   3.517   4.887 -0.4452  0.5028 -0.5123
27329SOL    HW194046   8.526   3.430   4.849 -1.2529 -0.2006  0.4128
27329SOL    HW294047   8.398   3.510   4.913 -0.7045  1.8886 -1.0646
27330SOL     OW94048   9.430   5.897   0.514  0.1981  0.1064  0.9588
27330SOL    HW194049   9.479   5.963   0.572 -0.1337  0.3880  0.9179
27330SOL    HW294050   9.350   5.863   0.562  0.7718 -0.8183  1.2641
27331SOL     OW94051   1.480   6.729   8.708  0.2984  0.0424 -0.2647
27331SOL    HW194052   1.390   6.686   8.705  0.4190 -0.3645  1.5417
27331SOL    HW294053   1.476   6.817   8.659 -1.3163  0.4543  0.5630
27332SOL     OW94054   9.876   7.468   6.424 -0.1478 -0.2939 -0.3466
27332SOL    HW194055   9.890   7.509   6.514  1.1586 -0.0310 -0.6508
27332SOL    HW294056   9.800   7.514   6.378  0.2585  0.7092 -0.0369
27333SOL     OW94057   0.121   9.293   4.899 -0.4255 -0.0531 -0.5085
27333SOL    HW194058   0.133   9.324   4.993 -1.3855 -2.5638  0.4899
27333SOL    HW294059   0.031   9.251   4.889 -0.4313  0.4241 -2.6259
27334SOL     OW94060   5.180   9.358   9.162 -0.3233 -0.7766 -0.2356
27334SOL    HW194061   5.086   9.351   9.129 -0.0719  0.2384 -1.1844
27334SOL    HW294062   5.192   9.445   9.210  0.8829  0.3984 -2.5988
27335SOL     OW94063   5.919   6.128   5.534 -0.1590  0.3908  0.1968
27335SOL    HW194064   5.880   6.039   5.514  0.8392 -0.1372  0.5644
27335SOL    HW294065   5.858   6.200   5.500 -1.5701 -0.4061  1.0043
27336SOL     OW94066   3.944   4.820   7.983 -0.2002  0.3104 -0.2562
27336SOL    HW194067   4.037   4.856   7.994  0.3109 -0.7118 -1.1538
27336SOL    HW294068   3.944   4.750   7.912 -1.1981 -1.3777  1.3782
27337SOL     OW94069   0.641   4.891   2.963 -0.2625  0.0652  0.1624
27337SOL    HW194070   0.708   4.819   2.941 -0.2744 -0.0834  0.6061
27337SOL    HW294071   0.581   4.859   3.036 -1.4590 -0.1784 -0.9100
27338SOL     OW94072   3.327   0.391   7.597 -0.8121 -0.7576  0.3982
27338SOL    HW194073   3.257   0.463   7.601  0.7023  0.8929 -1.5810
27338SOL    HW294074   3.309   0.331   7.519 -0.0866 -0.3597 -0.0864
27339SOL     OW94075   0.217   3.486   7.914 -0.0717  0.1548 -0.0133
27339SOL    HW194076   0.290   3.486   7.846  0.5035  0.2111  0.6108
27339SOL    HW294077   0.193   3.392   7.936 -0.0328  0.1369 -0.0452
27340SOL     OW94078   3.667   9.417   1.418  0.3074 -0.4439 -0.2410
27340SOL    HW194079   3.568   9.402   1.421  0.1762  0.3868 -0.3444
27340SOL    HW294080   3.711   9.344   1.366 -0.4930  0.4294 -2.1489
27341SOL     OW94081   0.725   9.002   8.864 -0.0595 -0.6877  0.2147
27341SOL    HW194082   0.675   8.953   8.793 -1.9492  0.4874  0.6819
27341SOL    HW294083   0.660   9.044   8.927  1.5567  0.1857  1.3408
27342SOL     OW94084   8.951   2.525   0.019  0.0046  0.7457  0.5675
27342SOL    HW194085   9.040   2.509   0.060  0.2308 -0.0887 -0.2352
27342SOL    HW294086   8.959   2.594  -0.054  0.0822  0.3431  0.1920
27343SOL     OW94087   1.562   3.372   8.257 -0.4329 -0.1692  0.3865
27343SOL    HW194088   1.578   3.404   8.351  0.9456  0.1055  0.0779
27343SOL    HW294089   1.631   3.413   8.197  0.0711 -2.0887 -0.3712
27344SOL     OW94090   6.633   7.937   3.629 -0.3142  0.4715 -0.6825
27344SOL    HW194091   6.579   7.942   3.545  0.4825  1.5110 -1.1448
27344SOL    HW294092   6.606   8.011   3.691 -0.2998  0.2311 -0.3895
27345SOL     OW94093   6.618   2.535   6.107  0.3672 -0.0642  0.1930
27345SOL    HW194094   6.553   2.460   6.113  1.3544 -1.2670 -2.8770
27345SOL    HW294095   6.711   2.500   6.120  0.7990  0.6883 -0.8067
27346SOL     OW94096   9.655   0.386   2.835  0.2483  0.2115 -0.2687
27346SOL    HW194097   9.688   0.294   2.815  1.8360  0.3233  1.7045
27346SOL    HW294098   9.557   0.383   2.853  0.3017 -1.1016 -0.1737
27347SOL     OW94099   9.110   5.581   1.659  0.2459 -0.0444  0.5072
27347SOL    HW194100   9.066   5.562   1.572  1.3428 -1.0185  0.1518
27347SOL    HW294101   9.056   5.649   1.710 -0.6509  0.1690 -0.7090
27348SOL     OW94102   0.442   0.432   2.684  0.0694  0.2881 -0.9000
27348SOL    HW194103   0.482   0.428   2.775 -1.8093  2.2233  0.0546
27348SOL    HW294104   0.383   0.352   2.670 -1.6572  1.2767  0.5809
27349SOL     OW94105   6.674   8.299   7.544 -0.4598  0.0373 -0.2621
27349SOL    HW194106   6.745   8.292   7.613  0.9063  2.8791 -1.3005
27349SOL    HW294107   6.600   8.356   7.579 -0.3749  0.3925 -0.6677
27350SOL     OW94108   1.646   5.019   1.525  0.2450  0.4277 -0.0729
27350SOL    HW194109   1.680   5.112   1.540  0.2011  0.6553 -1.3564
27350SOL    HW294110   1.552   5.023   1.492  1.0366  0.0259 -2.4218
27351SOL     OW94111   6.102   4.279   0.620  0.1704 -0.1031 -0.5466
27351SOL    HW194112   6.147   4.333   0.549 -0.8829  1.2049 -0.2217
27351SOL    HW294113   6.142   4.300   0.709 -0.8941  0.8601 -0.2928
27352SOL     OW94114   1.243   2.895   5.637 -0.2487 -0.2569 -0.4327
27352SOL    HW194115   1.236   2.983   5.685  1.4858 -0.6217  0.5322
27352SOL    HW294116   1.178   2.830   5.676 -1.8572  0.7114 -1.4462
27353SOL     OW94117   2.220   3.813   0.153  0.2623 -0.0497  0.0001
27353SOL    HW194118   2.198   3.754   0.075 -0.2473  0.1547 -0.0174
27353SOL    HW294119   2.270   3.893   0.122  0.3596 -0.1367 -0.0689
27354SOL     OW94120   1.155   8.364   9.744  0.0257 -0.4584  0.8175
27354SOL    HW194121   1.212   8.290   9.709 -0.9962 -0.9771  0.2168
27354SOL    HW294122   1.171   8.375   9.842 -0.7316 -2.3412  1.1787
27355SOL     OW94123   2.661   4.543   9.325 -0.7889  0.1566  0.6781
27355SOL    HW194124   2.698   4.520   9.415 -0.0212 -2.7743 -0.3250
27355SOL    HW294125   2.731   4.589   9.271  1.0863 -4.0454 -0.6898
27356SOL     OW94126   2.853   4.976   0.618  0.1460  0.8083 -0.3714
27356SOL    HW194127   2.901   5.032   0.550  0.6894  1.0811  0.2288
27356SOL    HW294128   2.867   4.879   0.597  0.5740  0.8901 -0.4665
27357SOL     OW94129   4.094   2.954   5.166 -0.3263  0.1395  0.1916
27357SOL    HW194130   4.097   2.867   5.117 -1.1884  0.5702 -0.6653
27357SOL    HW294131   4.030   3.016   5.118  0.1804  1.1836  0.8622
27358SOL     OW94132   1.875   6.086   9.446 -0.2071  0.2095 -0.2338
27358SOL    HW194133   1.963   6.097   9.492 -0.0933 -0.0101 -0.3934
27358SOL    HW294134   1.880   6.009   9.383 -0.8185 -0.4309  0.4837
27359SOL     OW94135   3.927   5.506   7.020 -0.1699  0.0368 -0.4443
27359SOL    HW194136   4.017   5.538   7.047  0.4677 -1.5841 -0.5890
27359SOL    HW294137   3.933   5.457   6.933 -0.8337 -1.7010  0.4437
27360SOL     OW94138   5.113   2.643   9.453 -0.3976  0.0219  0.2935
27360SOL    HW194139   5.118   2.635   9.353 -0.3180  0.2157  0.2807
27360SOL    HW294140   5.201   2.615   9.492 -0.6908 -0.8168  0.3629
27361SOL     OW94141   3.774   2.922   9.918 -0.1877 -0.1996  0.0375
27361SOL    HW194142   3.685   2.948   9.955  0.7355  1.5487  1.0875
27361SOL    HW294143   3.847   2.952   9.980  1.1757 -1.1875 -1.0302
27362SOL     OW94144   3.023   4.292   9.550 -0.5897  0.2125 -0.3065
27362SOL    HW194145   2.936   4.340   9.541 -0.8604 -0.1719  0.2544
27362SOL    HW294146   3.054   4.295   9.645 -0.7713 -0.9951 -0.2018
27363SOL     OW94147   1.210   3.831   0.124  0.0850 -0.1868  0.3576
27363SOL    HW194148   1.259   3.883   0.194 -1.8275  1.1726  0.7305
27363SOL    HW294149   1.236   3.863   0.033  0.9209 -0.4458  0.5015
27364SOL     OW94150   0.139   4.172   3.026 -0.3250 -0.2552  0.2572
27364SOL    HW194151   0.059   4.231   3.037 -0.6405 -0.7572  0.6266
27364SOL    HW294152   0.111   4.076   3.027  0.3704 -0.4527  1.1501
27365SOL     OW94153   0.324   9.700   1.240  0.0941  0.0232  0.3307
27365SOL    HW194154   0.238   9.672   1.198  0.0863  1.1682 -0.4271
27365SOL    HW294155   0.344   9.640   1.317 -2.4191  1.0051  1.8112
27366SOL     OW94156   2.376   1.732   9.404  0.4751  0.1799  0.3598
27366SOL    HW194157   2.371   1.813   9.462  1.0570 -0.7013  1.6463
27366SOL    HW294158   2.343   1.755   9.312  2.0364  2.2512  0.2869
27367SOL     OW94159   0.253   2.201   7.239  0.0466  0.1845  0.1799
27367SOL    HW194160   0.326   2.218   7.172 -1.5387  0.8214 -1.4218
27367SOL    HW294161   0.250   2.277   7.304  0.3235  0.5020 -0.1752
27368SOL     OW94162   1.998   2.275   8.002  0.2043  0.2385 -0.5360
27368SOL    HW194163   1.914   2.244   7.958  0.6412  1.4227 -2.2352
27368SOL    HW294164   2.024   2.209   8.074 -0.4228 -1.8218 -2.1386
27369SOL     OW94165   0.480   6.153   2.526  0.3247  0.0648 -0.0025
27369SOL    HW194166   0.467   6.249   2.552  0.3872 -0.2753  1.3693
27369SOL    HW294167   0.392   6.105   2.533  0.5548 -0.2705  0.6512
27370SOL     OW94168   9.494   6.682   8.245  0.0132 -0.4424 -1.2690
27370SOL    HW194169   9.486   6.593   8.290 -1.5246  0.3097  0.0074
27370SOL    HW294170   9.403   6.714   8.219  0.1902  2.0622  0.9195
27371SOL     OW94171   7.177   2.464   5.114 -0.1877 -0.2028 -0.0158
27371SOL    HW194172   7.185   2.564   5.118 -1.0463 -0.1375  0.0723
27371SOL    HW294173   7.158   2.436   5.020 -0.5508 -0.2396  0.0691
27372SOL     OW94174   6.022   1.357   1.460  0.5499  0.4045 -0.0542
27372SOL    HW194175   6.113   1.380   1.493 -0.6150  2.2728  2.0206
27372SOL    HW294176   5.990   1.274   1.506  1.5336 -0.8277 -1.5115
27373SOL     OW94177   8.950   4.386   0.481  0.1937 -0.5778  0.5442
27373SOL    HW194178   9.028   4.449   0.483 -0.2375 -0.0461  0.8047
27373SOL    HW294179   8.898   4.401   0.397 -0.8429  0.5748  1.3640
27374SOL     OW94180   1.451   5.189   7.801 -0.1699 -0.2782 -0.2431
27374SOL    HW194181   1.416   5.276   7.764 -0.1514 -0.2502 -0.1935
27374SOL    HW294182   1.522   5.154   7.740  1.4106  0.8710  0.9076
27375SOL     OW94183   9.738   0.864   9.389 -1.0302 -0.1244 -0.3258
27375SOL    HW194184   9.806   0.908   9.448 -1.1843 -0.3490  0.0207
27375SOL    HW294185   9.704   0.781   9.434  0.9278 -1.8751 -1.9050
27376SOL     OW94186   2.263   1.355   0.571 -0.3289  0.3059 -0.4977
27376SOL    HW194187   2.355   1.372   0.604 -0.2044  1.6992 -1.5430
27376SOL    HW294188   2.235   1.428   0.508 -1.2747 -1.2791 -1.9865
27377SOL     OW94189   0.790   1.912   3.884  0.5132  0.1649  0.6400
27377SOL    HW194190   0.817   1.857   3.963  1.1617 -0.5355 -0.0541
27377SOL    HW294191   0.831   2.002   3.890  1.7347 -0.3650  0.3901
27378SOL     OW94192   1.574   2.848   0.811  0.0719 -0.5183 -0.3138
27378SOL    HW194193   1.588   2.754   0.781 -0.4435 -0.5714 -0.3981
27378SOL    HW294194   1.600   2.911   0.737  1.0567 -0.5669 -0.0180
27379SOL     OW94195   1.421   4.452   1.632  0.2036  0.1390  0.4199
27379SOL    HW194196   1.398   4.366   1.586 -0.9499 -0.0193  1.2832
27379SOL    HW294197   1.345   4.480   1.691  0.5043  1.8199  0.0450
27380SOL     OW94198   2.701   3.013   7.974 -0.4652  0.1183 -0.6064
27380SOL    HW194199   2.629   2.956   8.014 -0.4701 -0.7581 -1.8367
27380SOL    HW294200   2.719   2.983   7.881  1.1110  0.6965 -0.5015
27381SOL     OW94201   2.563   4.086   8.616  0.0116  0.3725  0.1665
27381SOL    HW194202   2.472   4.126   8.603 -0.2948 -0.2181  0.4430
27381SOL    HW294203   2.591   4.096   8.711 -1.3505 -2.6541  0.9553
27382SOL     OW94204   8.285   4.952   5.447  0.2352  0.0891 -0.1525
27382SOL    HW194205   8.374   4.915   5.422 -0.0305 -0.7979  0.2005
27382SOL    HW294206   8.297   5.039   5.494  0.8573  0.5010 -1.0666
27383SOL     OW94207   7.729   6.214   3.249 -0.5922 -0.1997 -0.2777
27383SOL    HW194208   7.796   6.260   3.307 -2.1556 -0.0338  1.4462
27383SOL    HW294209   7.736   6.115   3.263 -0.9142 -0.1648  0.1480
27384SOL     OW94210   8.733   1.938   2.226  0.1720 -0.4202  0.1538
27384SOL    HW194211   8.699   1.957   2.134 -0.8084  2.0680  0.9952
27384SOL    HW294212   8.657   1.907   2.284  0.1021  1.2985  0.9979
27385SOL     OW94213   0.567   3.979   0.713 -0.1305  0.0961 -0.5588
27385SOL    HW194214   0.594   3.936   0.626  0.4698  1.0205 -0.8331
27385SOL    HW294215   0.530   4.070   0.695  0.6523  0.5681  0.2193
27386SOL     OW94216   1.237   6.326   9.345 -0.4793  1.0743  0.3380
27386SOL    HW194217   1.256   6.229   9.360 -1.7401  0.4484 -1.9958
27386SOL    HW294218   1.156   6.353   9.398 -1.2294  0.4044 -0.4685
27387SOL     OW94219   7.879   4.804   0.370  0.3636 -0.7198 -0.5919
27387SOL    HW194220   7.914   4.719   0.329  1.2111 -1.0699  0.8196
27387SOL    HW294221   7.820   4.782   0.447  0.9966 -0.0188  0.1031
27388SOL     OW94222   4.173   9.397   4.935  0.0910  0.4812 -0.0222
27388SOL    HW194223   4.196   9.445   5.020  0.2032  1.8544 -0.8036
27388SOL    HW294224   4.248   9.337   4.909 -0.2453 -0.5059  1.2246
27389SOL     OW94225   4.194   8.370   2.162  0.1429  0.0005 -0.0283
27389SOL    HW194226   4.194   8.270   2.162 -1.0208 -0.0068 -0.9147
27389SOL    HW294227   4.139   8.405   2.237  0.7318 -0.0137  0.4158
27390SOL     OW94228   4.933   8.731   8.936  0.0491 -0.4214  0.5303
27390SOL    HW194229   4.846   8.694   8.902  0.3547 -0.7391  0.0968
27390SOL    HW294230   4.916   8.783   9.019 -0.7705  0.7255 -0.3329
27391SOL     OW94231   0.606   4.254   2.047 -0.3520 -0.7479 -0.7938
27391SOL    HW194232   0.574   4.173   1.997 -2.3885 -0.3189 -0.2670
27391SOL    HW294233   0.527   4.309   2.073  0.9215  0.7026  0.0679
27392SOL     OW94234   1.333   6.928   6.885 -1.0947 -0.2659 -0.1777
27392SOL    HW194235   1.256   6.901   6.943  0.3177 -0.1040  1.7967
27392SOL    HW294236   1.341   7.028   6.886  0.3588 -0.3908  1.2123
27393SOL     OW94237   9.710   4.726   3.312  0.3497  0.5868 -0.3650
27393SOL    HW194238   9.659   4.764   3.235 -0.3201 -0.8683 -0.6524
27393SOL    HW294239   9.788   4.674   3.278  0.2707  0.2533 -0.0382
27394SOL     OW94240   6.162   7.459   3.425 -0.0267 -0.0871  0.1503
27394SOL    HW194241   6.158   7.362   3.447 -1.2023  0.3764  2.2167
27394SOL    HW294242   6.074   7.489   3.388 -0.1054  0.4210  0.7202
27395SOL     OW94243   1.722   4.187   2.253 -0.1030  0.3811 -0.1272
27395SOL    HW194244   1.723   4.257   2.325 -0.2787  0.5021 -0.2408
27395SOL    HW294245   1.630   4.181   2.214 -0.6003 -1.3318  1.2651
27396SOL     OW94246   4.062   7.037   7.490 -0.3390  0.2979 -0.0297
27396SOL    HW194247   3.999   7.067   7.562 -1.0707  0.6546 -0.8144
27396SOL    HW294248   4.155   7.066   7.513 -0.4830 -0.0715  1.0449
27397SOL     OW94249   7.978   2.524   0.038  0.5565  0.3645 -0.2229
27397SOL    HW194250   8.020   2.466   0.107  0.4320 -0.3972 -0.7820
27397SOL    HW294251   7.879   2.518   0.045  0.5430  0.4438 -0.3394
27398SOL     OW94252   6.288   4.571   9.528 -0.5122  0.1474 -0.4607
27398SOL    HW194253   6.363   4.508   9.547  0.2675  0.9566 -0.8437
27398SOL    HW294254   6.309   4.661   9.566 -1.4313  0.3018 -0.2935
27399SOL     OW94255   1.281   7.629   3.553  0.2683 -0.5410 -0.4431
27399SOL    HW194256   1.207   7.662   3.612  0.1147  0.1233 -1.0021
27399SOL    HW294257   1.328   7.707   3.512 -0.1072 -1.0109 -1.7980
27400SOL     OW94258   8.881   5.251   4.242 -0.0120  0.3034  0.1926
27400SOL    HW194259   8.877   5.293   4.151 -1.5163  0.2784  0.2325
27400SOL    HW294260   8.788   5.234   4.274  0.5167  0.3216  1.7488
27401SOL     OW94261   7.081   1.662   4.814  0.2356  0.3475  0.2051
27401SOL    HW194262   7.160   1.709   4.855 -0.9292  1.5444  1.1005
27401SOL    HW294263   7.011   1.729   4.791 -0.6981 -0.7622 -0.2049
27402SOL     OW94264   0.064   9.746   1.893 -0.2820  0.0443  0.2874
27402SOL    HW194265   0.102   9.757   1.801  0.0627  1.6841  0.6063
27402SOL    HW294266  -0.035   9.732   1.886  0.1389 -3.0375 -0.4811
27403SOL     OW94267   1.860   6.751   1.991  0.4729  0.2389 -0.1354
27403SOL    HW194268   1.951   6.717   1.970  0.6908  0.6420  0.1670
27403SOL    HW294269   1.844   6.838   1.945  1.0200  1.2183  1.5005
27404SOL     OW94270   1.477   8.706   0.812  0.2951  0.0247 -0.2259
27404SOL    HW194271   1.507   8.617   0.845  1.1509  0.3496 -0.1166
27404SOL    HW294272   1.377   8.708   0.806  0.1836 -0.3917  1.3284
27405SOL     OW94273   9.838   0.603   2.570 -0.4030 -0.7968 -0.0095
27405SOL    HW194274   9.835   0.505   2.547 -0.1763 -0.8070 -0.0013
27405SOL    HW294275   9.767   0.624   2.636  2.1373 -1.8100  3.1972
27406SOL     OW94276   1.122   7.607   5.182 -0.3974  0.0585 -0.3958
27406SOL    HW194277   1.133   7.561   5.269 -0.8276 -0.9180 -0.8504
27406SOL    HW294278   1.204   7.595   5.126 -0.2450  0.4186 -0.2516
27407SOL     OW94279   9.265   3.277   5.146  0.0843 -0.0653  0.1929
27407SOL    HW194280   9.168   3.258   5.134 -0.1155  0.6590  0.6703
27407SOL    HW294281   9.299   3.228   5.226  0.0053  0.0444  0.2937
27408SOL     OW94282   8.438   5.114   7.238  0.8687 -0.1561 -0.1911
27408SOL    HW194283   8.428   5.202   7.286  2.1325  0.2877 -0.7034
27408SOL    HW294284   8.535   5.101   7.215  0.5402 -1.2605 -0.9278
27409SOL     OW94285   6.252   8.304   3.832 -0.6278  0.8384  0.2633
27409SOL    HW194286   6.338   8.259   3.854 -0.4213  1.3652  0.5735
27409SOL    HW294287   6.208   8.333   3.917 -1.8371 -0.7440  0.1828
27410SOL     OW94288   3.031   6.806   8.741 -0.5455  0.1565 -0.1180
27410SOL    HW194289   3.054   6.802   8.838 -1.1147  0.3174  0.0245
27410SOL    HW294290   3.111   6.777   8.687  0.0115  0.7789  0.3622
27411SOL     OW94291   1.308   7.507   3.780 -0.1786  0.3328 -0.0502
27411SOL    HW194292   1.292   7.531   3.684  2.5153 -2.0946 -1.1798
27411SOL    HW294293   1.241   7.439   3.809 -0.0445 -0.0920 -0.7159
27412SOL     OW94294   9.926   3.403   5.644  0.1414  0.1038  0.1496
27412SOL    HW194295   9.898   3.386   5.549  0.0063 -2.5543  0.6339
27412SOL    HW294296   9.845   3.404   5.703  0.4613 -1.1368  0.6307
27413SOL     OW94297   7.023   9.826   6.336  0.3734 -0.0743  0.0441
27413SOL    HW194298   6.946   9.799   6.393 -0.6899  1.5918 -0.5685
27413SOL    HW294299   6.990   9.876   6.256  2.0634  0.3388 -0.4245
27414SOL     OW94300   7.142   6.901   2.070 -0.4358 -0.2116  0.3106
27414SOL    HW194301   7.215   6.843   2.036  0.1875 -0.4475  2.0072
27414SOL    HW294302   7.164   6.997   2.052 -1.9953 -0.4751 -3.5149
27415SOL     OW94303   9.411   5.645   3.828 -0.4103  0.5201 -0.1837
27415SOL    HW194304   9.465   5.712   3.778  0.9275 -0.3485  0.0647
27415SOL    HW294305   9.368   5.581   3.764 -2.2642  2.0082 -0.4653
27416SOL     OW94306   2.089   6.877   3.686 -0.7562  0.0328  0.3954
27416SOL    HW194307   2.049   6.785   3.684 -0.3439 -0.1364 -0.2581
27416SOL    HW294308   2.186   6.870   3.709 -1.0465  0.4222  1.7679
27417SOL     OW94309   8.218   5.009   1.901 -0.0870 -0.4046  0.3237
27417SOL    HW194310   8.311   4.972   1.895 -0.1981 -0.6070 -0.1348
27417SOL    HW294311   8.173   4.970   1.982  0.7373  0.8566  1.4287
27418SOL     OW94312   2.877   9.389   9.354 -0.1102 -0.0124  0.0805
27418SOL    HW194313   2.975   9.376   9.341 -0.4039 -0.1743 -2.0664
27418SOL    HW294314   2.841   9.319   9.416  1.0420 -0.2126  0.5203
27419SOL     OW94315   8.269   5.293   0.266 -0.3603  0.3180 -0.0252
27419SOL    HW194316   8.316   5.224   0.211 -1.5790 -0.0750 -0.5952
27419SOL    HW294317   8.238   5.252   0.352  0.9090  0.7460  0.6395
27420SOL     OW94318   0.496   6.340   7.482 -0.4227 -0.5186  0.5911
27420SOL    HW194319   0.480   6.243   7.461 -0.1017 -0.6052  0.7434
27420SOL    HW294320   0.456   6.362   7.570 -1.2066 -0.3131  0.1907
27421SOL     OW94321   0.708   4.755   2.469  0.0960 -0.5724  0.2168
27421SOL    HW194322   0.765   4.677   2.494  0.3547 -0.1609  0.9406
27421SOL    HW294323   0.674   4.799   2.552 -0.2775 -0.0909 -0.1897
27422SOL     OW94324   3.719   5.579   0.674 -0.2633  0.1057 -0.4433
27422SOL    HW194325   3.772   5.546   0.752  0.6739 -0.8299 -1.4573
27422SOL    HW294326   3.746   5.673   0.652  2.0479 -0.8627 -1.8628
27423SOL     OW94327   0.171   0.397   0.631  0.4757  0.1572 -0.1049
27423SOL    HW194328   0.115   0.332   0.684  1.1909 -1.3215 -1.1365
27423SOL    HW294329   0.237   0.440   0.692  0.1742 -0.2869  0.5481
27424SOL     OW94330   0.140   8.832   6.682 -0.0786  1.2865 -0.1680
27424SOL    HW194331   0.146   8.849   6.584  1.2985  1.5151 -0.0502
27424SOL    HW294332   0.051   8.864   6.716  0.9108  4.7331 -0.6529
27425SOL     OW94333   0.092   5.415   1.078  0.1441 -0.2178 -0.2379
27425SOL    HW194334   0.103   5.353   1.155 -0.9507 -0.0056  0.0905
27425SOL    HW294335   0.155   5.388   1.005  0.4245 -1.0689  0.3095
27426SOL     OW94336   0.708   3.228   2.875  0.1026 -0.4790  0.3169
27426SOL    HW194337   0.620   3.210   2.833  0.5973  0.3901 -1.1200
27426SOL    HW294338   0.775   3.252   2.805  1.3033 -0.4073  1.4540
27427SOL     OW94339   2.867   3.579   1.956 -0.3167  0.2992 -0.7610
27427SOL    HW194340   2.884   3.537   2.046 -0.1457  0.2571 -0.8131
27427SOL    HW294341   2.792   3.531   1.911 -0.6165  0.5221 -0.5053
27428SOL     OW94342   9.201   4.195   0.529  0.1369  0.3143 -0.2671
27428SOL    HW194343   9.279   4.208   0.589 -0.9284 -0.0050  1.2254
27428SOL    HW294344   9.136   4.270   0.542  0.0143  0.3829 -1.2205
27429SOL     OW94345   8.769   1.048   4.438 -0.5050  0.2946  0.1984
27429SOL    HW194346   8.808   1.140   4.436  0.7199 -0.2216  0.0197
27429SOL    HW294347   8.677   1.051   4.478  0.3368  1.3020  2.1148
27430SOL     OW94348   9.875   9.138   0.720 -0.2659  0.2188  0.0551
27430SOL    HW194349   9.870   9.209   0.790  1.2798  0.6256 -0.2107
27430SOL    HW294350   9.858   9.180   0.630  0.0043  0.1360 -0.0351
27431SOL     OW94351   0.561   7.846   6.208 -0.0215  0.3364 -0.1422
27431SOL    HW194352   0.631   7.778   6.230  0.5767  0.7447 -0.7168
27431SOL    HW294353   0.512   7.817   6.126 -0.2342  0.2566  0.0147
27432SOL     OW94354   7.701   0.087   9.489 -0.1413 -0.1941  0.0608
27432SOL    HW194355   7.710   0.028   9.570 -1.3770 -0.4112  0.0584
27432SOL    HW294356   7.769   0.160   9.493 -0.3410 -0.0762  1.4114
27433SOL     OW94357   4.194   4.989   6.631  0.1643 -0.4680  0.2343
27433SOL    HW194358   4.249   4.958   6.708 -1.2601 -1.6486  0.7965
27433SOL    HW294359   4.140   4.913   6.596 -0.3345  0.4291 -0.9575
27434SOL     OW94360   0.083   7.012   3.998 -0.1209 -0.6474  0.0490
27434SOL    HW194361   0.011   6.957   4.041 -0.4636 -0.6257 -0.4998
27434SOL    HW294362   0.041   7.086   3.945  0.2472 -2.0800 -2.2578
27435SOL     OW94363   1.625   4.826   0.472 -1.0848 -0.1487 -0.7112
27435SOL    HW194364   1.633   4.925   0.460 -3.2964  0.4460  2.2704
27435SOL    HW294365   1.711   4.789   0.506 -0.6322  0.9444 -0.6675
27436SOL     OW94366   9.915   1.489   5.614 -0.0199  0.3534 -0.1281
27436SOL    HW194367  10.012   1.475   5.593 -0.1629  0.4438 -0.8794
27436SOL    HW294368   9.903   1.578   5.659  0.3105  0.1000  0.4724
27437SOL     OW94369   1.429   7.955   8.996  0.1169 -0.7557  0.5834
27437SOL    HW194370   1.443   8.043   8.952 -1.0276 -0.7691  0.1739
27437SOL    HW294371   1.382   7.893   8.933 -0.6786 -1.0783  1.4722
27438SOL     OW94372   8.593   4.274   2.713 -0.4208 -0.0254  0.6117
27438SOL    HW194373   8.571   4.279   2.810 -0.2836  0.2741  0.6291
27438SOL    HW294374   8.509   4.278   2.659 -0.5808 -1.3743  0.7509
27439SOL     OW94375   4.962   6.259   5.653  0.2373  0.0217 -0.3836
27439SOL    HW194376   4.973   6.237   5.749  0.0233  1.2242 -0.0761
27439SOL    HW294377   4.870   6.296   5.638  0.6414  0.8597 -0.8435
27440SOL     OW94378   7.863   6.244   2.493  0.0760  0.4359  0.1879
27440SOL    HW194379   7.940   6.246   2.557 -0.6069  2.2017  0.9512
27440SOL    HW294380   7.881   6.308   2.418  1.8125 -3.0484 -2.5384
27441SOL     OW94381   2.505   1.280   0.154  0.3453 -0.0667 -0.1044
27441SOL    HW194382   2.430   1.218   0.178  1.0052 -0.3189  1.3429
27441SOL    HW294383   2.499   1.363   0.209  1.7183 -0.5339  0.7893
27442SOL     OW94384   1.071   8.216   3.875  0.2667 -0.2782  0.1241
27442SOL    HW194385   1.124   8.301   3.865 -0.4074  0.2026  0.5890
27442SOL    HW294386   1.065   8.192   3.972  0.4591 -0.8697 -0.0078
27443SOL     OW94387   6.222   7.650   0.714 -0.4718  0.0741 -0.0078
27443SOL    HW194388   6.154   7.691   0.776  0.0066  2.5043 -1.0204
27443SOL    HW294389   6.221   7.700   0.627  0.4686 -1.8443 -1.1360
27444SOL     OW94390   8.030   4.168   4.973  0.4954 -0.0870  0.2400
27444SOL    HW194391   8.101   4.237   4.990  0.9591 -0.2580 -0.9341
27444SOL    HW294392   7.950   4.211   4.932  0.2846 -0.0448  0.6935
27445SOL     OW94393   9.142   6.176   9.876 -0.2346  0.3214 -0.0687
27445SOL    HW194394   9.092   6.144   9.957 -1.1744 -0.6283 -1.0093
27445SOL    HW294395   9.240   6.178   9.896 -0.5977  2.0661  1.7509
27446SOL     OW94396   2.554   1.909   8.978 -0.4240  0.1420  0.0351
27446SOL    HW194397   2.488   1.980   8.954 -0.1291  0.3813 -0.0596
27446SOL    HW294398   2.515   1.851   9.050 -0.2916  0.9637  0.7752
27447SOL     OW94399   4.245   3.025   4.110 -0.8409  0.4418  0.1458
27447SOL    HW194400   4.311   3.060   4.043  1.0653  0.1036  1.7987
27447SOL    HW294401   4.210   2.937   4.078 -0.0117  0.3181 -0.4601
27448SOL     OW94402   0.907   5.621   3.325  0.3769  0.2919  0.7141
27448SOL    HW194403   0.896   5.523   3.312 -0.4936  0.6711 -1.5117
27448SOL    HW294404   0.823   5.669   3.299  0.9249  1.6688  1.3899
27449SOL     OW94405   6.532   6.076   0.108  0.2613  0.3784 -0.4247
27449SOL    HW194406   6.446   6.106   0.148  0.5093 -1.0804  1.2766
27449SOL    HW294407   6.584   6.156   0.077 -0.4124  1.4788  1.2139
27450SOL     OW94408   8.275   2.231   2.652  0.0434 -0.6961  0.2835
27450SOL    HW194409   8.207   2.162   2.677  0.4975 -0.9640  0.7954
27450SOL    HW294410   8.329   2.255   2.732  0.5777 -0.5080 -0.1280
27451SOL     OW94411   3.624   3.852   0.187 -0.9583  0.4080 -0.2267
27451SOL    HW194412   3.552   3.918   0.209 -0.5401  0.3996  1.2446
27451SOL    HW294413   3.599   3.801   0.105 -0.6933  3.2769 -2.1490
27452SOL     OW94414   6.895   3.840   3.367  0.1709 -0.1630  0.1309
27452SOL    HW194415   6.802   3.861   3.335  0.9240 -1.6333 -3.2060
27452SOL    HW294416   6.905   3.871   3.462 -3.4737  0.6951  0.3175
27453SOL     OW94417   8.659   1.208   4.028 -0.1828  0.4413 -0.9519
27453SOL    HW194418   8.729   1.245   3.967 -0.9357  2.1483 -0.8417
27453SOL    HW294419   8.702   1.167   4.108  0.7057  1.3691 -0.9405
27454SOL     OW94420   7.391   4.228   3.677  1.0088  0.4049  0.0990
27454SOL    HW194421   7.370   4.169   3.755 -1.7191 -0.2887 -1.0998
27454SOL    HW294422   7.357   4.320   3.694  1.6116  0.5882  0.2949
27455SOL     OW94423   1.574   0.519   9.026 -0.3367  0.5669  0.7303
27455SOL    HW194424   1.641   0.446   9.027  0.7910  1.5838  0.1597
27455SOL    HW294425   1.518   0.513   8.944  0.1423  0.6961  0.3962
27456SOL     OW94426   1.984   9.731   1.633  0.4863  0.5283  0.0065
27456SOL    HW194427   1.986   9.743   1.733 -0.2942 -0.7707  0.1894
27456SOL    HW294428   1.921   9.797   1.593 -0.1591  0.2342  0.5160
27457SOL     OW94429   6.858   5.115   0.732 -0.1841  0.3114 -0.3057
27457SOL    HW194430   6.823   5.038   0.679  1.1686  0.8866 -2.1189
27457SOL    HW294431   6.947   5.091   0.772 -0.7292  0.2285  0.8727
27458SOL     OW94432   9.711   0.883   7.279 -0.1811  0.1109 -0.1917
27458SOL    HW194433   9.773   0.805   7.290 -0.1903 -0.0302 -1.0711
27458SOL    HW294434   9.702   0.931   7.366  1.4873  0.3837 -0.1520
27459SOL     OW94435   6.869   1.369   4.413 -0.0543  0.6549 -0.0825
27459SOL    HW194436   6.813   1.449   4.429  0.2501  0.6261  1.1883
27459SOL    HW294437   6.815   1.298   4.368 -0.5599  1.2550 -0.4121
27460SOL     OW94438   7.067   8.725   1.408 -0.1778  0.4555  0.4799
27460SOL    HW194439   7.024   8.670   1.480 -0.2807 -0.1437 -0.0414
27460SOL    HW294440   7.165   8.731   1.425 -0.1601  0.0883  0.5229
27461SOL     OW94441   5.052   5.526   3.545  1.0482 -0.2890  0.1296
27461SOL    HW194442   5.047   5.607   3.603 -0.1712 -1.2916  1.4695
27461SOL    HW294443   5.141   5.523   3.500  0.7771  2.2754 -0.6904
27462SOL     OW94444   9.064   6.245   2.868 -0.0701 -0.2612 -0.1767
27462SOL    HW194445   9.135   6.199   2.815 -0.5021 -2.4327  1.0783
27462SOL    HW294446   9.086   6.239   2.966 -1.3996  0.0636  0.1529
27463SOL     OW94447   6.373   8.047   9.519 -0.1382  0.0827 -0.0411
27463SOL    HW194448   6.315   8.017   9.443 -0.4628 -1.6701  0.8803
27463SOL    HW294449   6.362   7.985   9.597  2.0356  0.4443  0.5977
27464SOL     OW94450   6.390   6.769   2.817 -0.2408 -0.2083 -0.1979
27464SOL    HW194451   6.419   6.675   2.801  0.9433  0.1938 -0.4476
27464SOL    HW294452   6.469   6.830   2.811 -0.8950  0.7310  0.5766
27465SOL     OW94453   9.216   7.519   0.696  0.1815  0.1144 -0.0706
27465SOL    HW194454   9.201   7.617   0.697 -2.3405 -0.2553  1.0072
27465SOL    HW294455   9.232   7.489   0.601  0.7636  1.4972 -0.4272
27466SOL     OW94456   8.493   8.384   6.273  0.0485 -0.0342 -0.0495
27466SOL    HW194457   8.523   8.296   6.309 -0.3981 -0.6632 -1.1754
27466SOL    HW294458   8.556   8.414   6.201  0.0652  0.4412  0.1623
27467SOL     OW94459   8.982   4.685   2.767 -0.5897  0.7114  0.5004
27467SOL    HW194460   8.955   4.624   2.842  2.0640 -1.4808 -0.2084
27467SOL    HW294461   8.941   4.653   2.681  0.7711 -0.1074  0.1346
27468SOL     OW94462   2.807   5.705   2.964  0.1118  0.2570  0.1235
27468SOL    HW194463   2.767   5.739   2.879 -0.3130 -0.8475 -0.1208
27468SOL    HW294464   2.853   5.618   2.947  0.0049  0.0157  1.0365
27469SOL     OW94465   9.747   0.424   3.207  0.1312 -0.0231  0.3749
27469SOL    HW194466   9.658   0.388   3.179 -0.1944  0.3523  0.9074
27469SOL    HW294467   9.820   0.362   3.177 -0.1794  0.5365 -1.5932
27470SOL     OW94468   7.530   1.105   9.893 -0.6800 -0.2253  0.1706
27470SOL    HW194469   7.500   1.074   9.803  1.5038  0.0908 -0.7068
27470SOL    HW294470   7.588   1.186   9.882  0.0210 -0.4877  1.8207
27471SOL     OW94471   6.233   6.813   4.394 -0.4054 -0.4341  0.1096
27471SOL    HW194472   6.285   6.746   4.446 -0.3107 -0.9231 -0.6051
27471SOL    HW294473   6.179   6.766   4.324 -0.0703  0.2623 -0.6270
27472SOL     OW94474   2.287   8.416   4.217  0.9028 -0.1722  0.2560
27472SOL    HW194475   2.218   8.439   4.149 -0.0964  1.8302  1.8933
27472SOL    HW294476   2.299   8.317   4.220  0.0124 -0.3687 -1.8832
27473SOL     OW94477   1.269   6.570   0.254 -0.2039  0.0074 -0.3872
27473SOL    HW194478   1.309   6.519   0.330  0.3742 -0.7969 -1.2207
27473SOL    HW294479   1.339   6.587   0.184 -0.5606  1.3374 -0.4362
27474SOL     OW94480   8.556   5.525   7.609 -0.1778  0.4744 -0.3247
27474SOL    HW194481   8.516   5.602   7.658 -0.5233 -0.3226  0.6662
27474SOL    HW294482   8.569   5.448   7.672 -1.8410 -1.0242 -1.7693
27475SOL     OW94483   2.966   3.614   4.674 -0.3166 -0.2246  0.1079
27475SOL    HW194484   2.874   3.608   4.635 -0.3299  2.2808 -0.3125
27475SOL    HW294485   2.960   3.639   4.771 -0.0809 -0.0592  0.0811
27476SOL     OW94486   7.738   6.347   6.311  0.1253  0.1135  0.1155
27476SOL    HW194487   7.764   6.271   6.251 -1.6730 -1.0856  0.8035
27476SOL    HW294488   7.774   6.332   6.402  0.1780  0.3242  0.1299
27477SOL     OW94489   4.739   7.639   0.232  0.0219 -0.0562 -0.3181
27477SOL    HW194490   4.657   7.587   0.256  0.3600 -0.3593  0.1904
27477SOL    HW294491   4.767   7.615   0.138  0.0351 -0.6158 -0.1757
27478SOL     OW94492   8.301   6.333   3.209  0.0698  0.3375 -0.1294
27478SOL    HW194493   8.329   6.336   3.113 -2.6712 -0.2404 -0.9813
27478SOL    HW294494   8.347   6.257   3.255  0.7875  0.1281 -1.1827
27479SOL     OW94495   7.718   8.725   3.962  0.0528 -1.1563  0.5007
27479SOL    HW194496   7.650   8.795   3.979  0.2694 -0.4771 -1.3254
27479SOL    HW294497   7.807   8.756   3.997  0.1926 -0.4230 -0.4911
27480SOL     OW94498   4.256   4.667   6.000  0.9016 -0.0613 -0.0355
27480SOL    HW194499   4.295   4.684   6.090  1.7453  0.4619 -0.5016
27480SOL    HW294500   4.306   4.718   5.931 -0.4557  0.4598 -0.6692
27481SOL     OW94501   0.877   9.845   9.509  0.3480 -0.1551 -0.1109
27481SOL    HW194502   0.974   9.869   9.506  0.7285 -1.8203 -2.0322
27481SOL    HW294503   0.828   9.893   9.436  0.0953 -0.8718 -0.4144
27482SOL     OW94504   1.325   4.331   7.120 -0.3905 -0.3118 -0.4083
27482SOL    HW194505   1.267   4.338   7.039 -0.8087  0.5350 -0.0508
27482SOL    HW294506   1.399   4.398   7.113 -1.2833  0.8105  0.5756
27483SOL     OW94507   1.667   7.396   5.669  0.1076  0.3122  0.2843
27483SOL    HW194508   1.716   7.477   5.702  0.3456  0.0329  0.6269
27483SOL    HW294509   1.733   7.323   5.650 -0.3259 -0.7930  2.7899
27484SOL     OW94510   0.786   6.836   0.286  0.1547 -0.2250 -0.0773
27484SOL    HW194511   0.865   6.775   0.275  1.7104  1.5301  1.1840
27484SOL    HW294512   0.742   6.850   0.198  1.5366 -0.8271 -0.8668
27485SOL     OW94513   0.978   8.317   7.791 -0.2254  0.1624  0.0673
27485SOL    HW194514   0.912   8.281   7.725 -0.6556  0.7103  0.1864
27485SOL    HW294515   1.065   8.333   7.746 -0.3138 -0.1214 -0.2056
27486SOL     OW94516   7.998   7.374   2.591 -0.1322  0.8093 -0.4427
27486SOL    HW194517   8.015   7.383   2.493  0.5667 -0.9568 -0.4931
27486SOL    HW294518   8.073   7.417   2.642  0.5371 -0.0638 -0.6819
27487SOL     OW94519   7.201   7.126   2.477  0.3857  0.0961  0.2563
27487SOL    HW194520   7.294   7.143   2.445  0.4702  0.8546  0.9031
27487SOL    HW294521   7.150   7.077   2.406  1.6594 -1.4922  0.4132
27488SOL     OW94522   9.424   7.904   9.565  0.3485 -0.6313  0.3593
27488SOL    HW194523   9.445   7.815   9.605 -0.1372 -0.4792  0.9485
27488SOL    HW294524   9.504   7.964   9.573  0.8725 -1.1983 -0.5613
27489SOL     OW94525   0.284   4.681   2.171 -0.3882 -0.0609  0.1279
27489SOL    HW194526   0.313   4.652   2.080  0.3381  0.7011  0.0990
27489SOL    HW294527   0.365   4.707   2.224 -0.9937  1.8810  0.1398
27490SOL     OW94528   5.329   6.264   5.650 -0.3123 -0.2210 -0.5994
27490SOL    HW194529   5.304   6.203   5.726 -0.4727  1.5110  0.7814
27490SOL    HW294530   5.251   6.322   5.628 -0.0692 -0.3163 -1.7103
27491SOL     OW94531   0.999   2.226   5.536  0.5584  0.1180 -0.0201
27491SOL    HW194532   1.050   2.164   5.596  0.1901  0.6485  0.8492
27491SOL    HW294533   0.952   2.172   5.465  0.0449 -0.6195  0.8696
27492SOL     OW94534   4.456   6.507   6.961  0.5922 -0.2898  0.2158
27492SOL    HW194535   4.410   6.572   7.020  2.2001 -0.9703  2.2528
27492SOL    HW294536   4.555   6.516   6.970  0.8654 -1.3345 -1.3496
27493SOL     OW94537   7.340   4.417   2.749  0.3139 -0.5274 -0.0069
27493SOL    HW194538   7.434   4.448   2.735 -0.3469  0.6663 -1.9306
27493SOL    HW294539   7.277   4.481   2.705 -1.4553 -0.9048  1.9120
27494SOL     OW94540   0.532   6.552   9.975  0.6654 -0.0870 -0.4016
27494SOL    HW194541   0.481   6.574  10.058  1.7772  0.0498  0.2638
27494SOL    HW294542   0.526   6.454   9.956  0.6009 -0.1534 -0.0305
27495SOL     OW94543   9.889   7.713   5.337  0.0346  0.0725 -0.1022
27495SOL    HW194544   9.935   7.705   5.425 -0.7619 -1.9372  0.1486
27495SOL    HW294545   9.790   7.702   5.350 -0.1626  0.5249 -1.1542
27496SOL     OW94546   2.702   2.937   1.634  0.1448  0.0814  0.2615
27496SOL    HW194547   2.762   2.995   1.579 -0.0352 -0.1737 -0.2070
27496SOL    HW294548   2.655   2.872   1.575 -0.3453  0.0609  0.6694
27497SOL     OW94549   8.144   6.994   8.545 -0.7412 -0.3482 -0.2118
27497SOL    HW194550   8.204   6.966   8.620  2.7788 -0.3112 -2.8841
27497SOL    HW294551   8.137   7.094   8.543  0.2270 -0.2819 -0.6787
27498SOL     OW94552   1.974   7.959   3.384 -0.3540  0.2428 -0.1392
27498SOL    HW194553   1.892   7.910   3.412 -0.4634  1.9676  2.7778
27498SOL    HW294554   1.987   7.950   3.285 -3.1645 -1.3325 -0.3998
27499SOL     OW94555   0.262   3.863   8.790 -0.2137  0.2815 -0.4499
27499SOL    HW194556   0.228   3.770   8.807  1.0271  0.0874  1.1922
27499SOL    HW294557   0.353   3.872   8.832  0.3905  1.7251 -2.0373
27500SOL     OW94558   9.199   5.221   1.076 -0.7083  0.5874  0.5404
27500SOL    HW194559   9.212   5.124   1.091  0.3286  0.9363  1.9274
27500SOL    HW294560   9.221   5.244   0.981  0.0032 -0.3484  0.4832
27501SOL     OW94561   3.223   7.450   0.673 -0.4577  0.6231  0.0479
27501SOL    HW194562   3.266   7.377   0.726  1.5593  0.2486 -1.9738
27501SOL    HW294563   3.267   7.537   0.696 -0.8621  0.7478  0.3467
27502SOL     OW94564   7.931   6.231   4.680 -0.0105  0.2017  0.5486
27502SOL    HW194565   7.929   6.240   4.580  0.9836 -2.6379  0.2472
27502SOL    HW294566   7.920   6.135   4.705  1.8063  0.6406  3.1068
27503SOL     OW94567   2.341   9.153   6.920 -0.3725 -0.1130  0.4437
27503SOL    HW194568   2.305   9.214   6.850  1.8778  1.6986  0.8027
27503SOL    HW294569   2.279   9.076   6.933 -2.3851  1.1834 -1.2716
27504SOL     OW94570   7.843   2.743   2.986  0.4139 -0.4720  0.5898
27504SOL    HW194571   7.891   2.830   3.001 -0.1154 -0.0587 -0.0859
27504SOL    HW294572   7.834   2.695   3.073 -0.4544  0.7725  1.1959
27505SOL     OW94573   3.798   0.609   2.896 -0.1164  0.8805 -0.1833
27505SOL    HW194574   3.728   0.568   2.838  0.2400 -1.0826  0.7344
27505SOL    HW294575   3.876   0.637   2.840 -0.5237  0.6415 -0.8753
27506SOL     OW94576   2.471   4.772   7.817  0.1331 -0.0012 -0.2503
27506SOL    HW194577   2.374   4.761   7.840 -0.5245  1.4221 -2.1763
27506SOL    HW294578   2.482   4.852   7.759  2.1894 -1.4010 -1.8609
27507SOL     OW94579   8.241   3.821   6.136  0.4141  0.2343  0.2398
27507SOL    HW194580   8.282   3.793   6.222 -0.3832  0.0920  0.5748
27507SOL    HW294581   8.152   3.864   6.153  0.5952  0.9020 -0.4459
27508SOL     OW94582   1.456   3.670   1.776 -0.4751  0.3830 -0.4626
27508SOL    HW194583   1.471   3.757   1.729  0.8675  1.5109  2.0032
27508SOL    HW294584   1.534   3.609   1.760  0.5266  1.2024  1.2327
27509SOL     OW94585   8.917   5.245   1.663 -0.2700  0.1403  0.0808
27509SOL    HW194586   8.872   5.327   1.627  0.5076  0.9398  0.8933
27509SOL    HW294587   8.927   5.178   1.590 -2.9313 -0.1332 -0.0859
27510SOL     OW94588   6.851   4.977   1.583 -0.4698 -0.5266 -0.8307
27510SOL    HW194589   6.769   4.948   1.633  0.1548  0.4431  0.8130
27510SOL    HW294590   6.916   4.902   1.577  0.2082 -0.1504  1.4406
27511SOL     OW94591   6.359   9.687   4.560  0.0961  0.3353  0.5100
27511SOL    HW194592   6.402   9.695   4.650 -0.1484  1.1792  0.5558
27511SOL    HW294593   6.417   9.731   4.492 -0.5068  1.1668  0.5183
27512SOL     OW94594   9.407   5.258   4.053 -0.6451 -0.0000  0.1238
27512SOL    HW194595   9.436   5.192   4.122  0.9738 -0.2595 -0.7919
27512SOL    HW294596   9.402   5.349   4.093 -1.0025 -0.3575  0.8986
27513SOL     OW94597   0.323   3.788   9.848  0.2329  0.0865  0.9438
27513SOL    HW194598   0.411   3.805   9.802 -0.0110  1.0146  0.8006
27513SOL    HW294599   0.301   3.691   9.844  0.2937  0.1303 -0.7671
27514SOL     OW94600   9.997   8.099   9.473  0.2059 -0.1416  0.5105
27514SOL    HW194601  10.018   8.001   9.480  0.6408  0.0404  1.9691
27514SOL    HW294602   9.978   8.122   9.378  0.9796 -1.4686  0.0147
27515SOL     OW94603   3.278   2.877   6.141 -0.6871 -0.2171 -0.0193
27515SOL    HW194604   3.295   2.808   6.211  0.9970 -0.4023 -0.5828
27515SOL    HW294605   3.219   2.839   6.070  0.4272 -1.1577 -0.4457
27516SOL     OW94606   5.339   5.968   3.181 -0.1921  0.4867  0.1486
27516SOL    HW194607   5.381   6.046   3.227 -1.0343  0.9706  0.1118
27516SOL    HW294608   5.380   5.957   3.090 -0.6947  1.4489 -0.2055
27517SOL     OW94609   7.126   6.690   5.514  0.4307  0.4080 -0.3013
27517SOL    HW194610   7.118   6.765   5.580  1.8395  1.6307 -1.4685
27517SOL    HW294611   7.094   6.721   5.424  0.8493 -0.4559 -0.7539
27518SOL     OW94612   1.012   4.692   8.944 -0.0556 -0.0597  0.0524
27518SOL    HW194613   1.004   4.628   8.868 -0.1775 -0.9853  0.8338
27518SOL    HW294614   1.086   4.663   9.005  1.1287  1.5850 -0.5642
27519SOL     OW94615   0.810   9.075   3.276 -0.4039  0.3126 -0.0562
27519SOL    HW194616   0.774   9.119   3.194 -0.7244 -1.2675 -0.7877
27519SOL    HW294617   0.734   9.053   3.338 -0.3021  0.3875  0.0941
27520SOL     OW94618   5.371   4.440   2.154 -0.3656 -0.1720 -0.0213
27520SOL    HW194619   5.299   4.416   2.089 -0.9711 -0.1212  0.6245
27520SOL    HW294620   5.428   4.512   2.115  0.2213 -1.2008 -1.1350
27521SOL     OW94621   8.651   8.703   3.597  0.2103 -0.2519  0.3231
27521SOL    HW194622   8.593   8.783   3.615  0.7580  0.1836  0.1695
27521SOL    HW294623   8.619   8.658   3.514  1.1770  1.0248 -0.7680
27522SOL     OW94624   6.930   6.034   5.008 -0.0799  0.2258 -0.1309
27522SOL    HW194625   7.028   6.039   4.986 -0.1768 -0.8070 -0.8176
27522SOL    HW294626   6.917   6.053   5.105  0.9038 -0.5941  0.1735
27523SOL     OW94627   1.902   9.385   3.830  0.5141 -0.0221  0.2924
27523SOL    HW194628   1.834   9.456   3.811  0.7629  0.2460  0.4039
27523SOL    HW294629   1.961   9.415   3.906 -0.8753 -1.3446  1.9453
27524SOL     OW94630   3.803   2.737   4.923  0.2369 -0.2870 -0.6704
27524SOL    HW194631   3.760   2.663   4.976 -0.8060  0.8800  0.1323
27524SOL    HW294632   3.799   2.714   4.826 -0.6835 -1.0023 -0.4793
27525SOL     OW94633   2.888   3.343   4.330 -0.1341 -0.2774 -0.2862
27525SOL    HW194634   2.866   3.428   4.378 -1.0309 -1.0330  0.6737
27525SOL    HW294635   2.942   3.284   4.390  0.4676 -0.3922 -0.9415
27526SOL     OW94636   9.758   1.855   4.234 -0.2366 -0.1472 -0.4960
27526SOL    HW194637   9.673   1.852   4.181 -1.1031  0.5384  0.8381
27526SOL    HW294638   9.826   1.911   4.186 -0.7322 -0.2292 -1.2881
27527SOL     OW94639   0.370   8.360   4.825 -0.2332 -0.2100 -0.1899
27527SOL    HW194640   0.375   8.451   4.866  1.3547 -0.0227 -0.7595
27527SOL    HW294641   0.277   8.325   4.833 -0.2387  0.2993  2.5246
27528SOL     OW94642   5.014   5.243   4.207 -0.1340 -0.0668  0.0240
27528SOL    HW194643   4.965   5.170   4.254  1.5740 -0.0136  1.9817
27528SOL    HW294644   4.974   5.332   4.231 -1.2437 -0.2416 -1.1398
27529SOL     OW94645   8.235   0.620   3.703 -0.1450 -0.5084 -0.8193
27529SOL    HW194646   8.325   0.632   3.660  0.2199 -2.4519 -0.6299
27529SOL    HW294647   8.165   0.659   3.643  0.6512 -0.5019 -1.7667
27530SOL     OW94648   9.448   4.707   9.823 -0.1702  0.3625  0.0253
27530SOL    HW194649   9.368   4.742   9.872 -0.7086 -1.2645  0.3401
27530SOL    HW294650   9.520   4.684   9.888  0.8000  2.3268 -0.2922
27531SOL     OW94651   8.531   2.838   4.335 -0.5071  0.0148  0.2278
27531SOL    HW194652   8.509   2.936   4.338 -1.9599 -0.3020  0.3476
27531SOL    HW294653   8.460   2.787   4.384 -0.1986 -1.1768 -0.5646
27532SOL     OW94654   9.442   7.499   6.333  0.0953 -0.5631  0.3894
27532SOL    HW194655   9.391   7.569   6.383 -2.6850 -1.3142 -1.3060
27532SOL    HW294656   9.466   7.424   6.395 -1.6039 -0.5763  1.0579
27533SOL     OW94657   0.611   5.598   9.311  0.4106  0.0500 -0.5930
27533SOL    HW194658   0.593   5.632   9.403 -0.2886  1.1793 -1.1382
27533SOL    HW294659   0.614   5.675   9.247  0.3456 -0.7749 -1.5964
27534SOL     OW94660   1.886   5.330   3.197  0.0108  0.2396 -0.0910
27534SOL    HW194661   1.926   5.285   3.117 -0.4902 -0.2501 -0.0629
27534SOL    HW294662   1.823   5.401   3.168  0.5413  0.7023 -0.1317
27535SOL     OW94663   7.827   2.880   1.480 -0.8489  0.2558 -0.3346
27535SOL    HW194664   7.787   2.844   1.564 -0.3964  2.0434  0.6545
27535SOL    HW294665   7.819   2.979   1.478  0.4741  0.3588 -1.7095
27536SOL     OW94666   3.805   6.388   3.737  0.4477  0.0816 -0.1916
27536SOL    HW194667   3.775   6.443   3.659 -0.7460 -0.0450  0.1693
27536SOL    HW294668   3.822   6.447   3.815  0.7249  0.1026 -0.2661
27537SOL     OW94669   1.756   6.996   1.914 -0.2981 -0.5683  0.1551
27537SOL    HW194670   1.803   7.076   1.877  0.9637 -1.5507 -0.3876
27537SOL    HW294671   1.694   7.025   1.987 -1.4550  1.1639 -1.4748
27538SOL     OW94672   8.356   3.701   3.691  0.0269 -0.0649  0.7823
27538SOL    HW194673   8.367   3.790   3.735 -2.0537  0.9518 -0.6330
27538SOL    HW294674   8.439   3.678   3.640  0.6190  1.0099  1.2599
27539SOL     OW94675   7.341   4.111   7.231  0.5607 -0.4815 -0.3713
27539SOL    HW194676   7.264   4.051   7.209  0.4617 -0.3902 -0.2795
27539SOL    HW294677   7.422   4.056   7.250  0.5497 -0.5736 -0.5888
27540SOL     OW94678   0.922   8.520   3.141 -0.3864 -0.0109  0.1768
27540SOL    HW194679   0.902   8.509   3.043 -1.0832  0.6598  0.2331
27540SOL    HW294680   0.999   8.583   3.152 -0.0066 -0.4486  0.0473
27541SOL     OW94681   9.307   5.806   0.734 -0.1511 -0.0097  0.1296
27541SOL    HW194682   9.392   5.831   0.782 -0.4595  0.0245  0.6653
27541SOL    HW294683   9.250   5.750   0.794 -0.4604 -0.1259 -0.2694
27542SOL     OW94684   0.653   6.493   7.668 -0.2701  0.2000  0.2325
27542SOL    HW194685   0.678   6.411   7.720 -0.7544 -0.0134  0.1304
27542SOL    HW294686   0.640   6.469   7.572 -1.2087  0.2411  0.3446
27543SOL     OW94687   5.806   3.283   3.194 -0.1377  0.0879  0.1466
27543SOL    HW194688   5.864   3.363   3.207  0.2838  0.2862 -2.5628
27543SOL    HW294689   5.854   3.201   3.227  1.0618  0.4488 -0.6761
27544SOL     OW94690   0.283   7.266   3.042  0.1919  0.4017 -0.4702
27544SOL    HW194691   0.210   7.330   3.019  1.3159  1.2602 -1.7587
27544SOL    HW294692   0.361   7.317   3.079  0.4816 -0.4001  0.0304
27545SOL     OW94693   6.498   0.137   9.102  0.2528 -0.4554 -0.1725
27545SOL    HW194694   6.450   0.124   9.188 -2.4577 -0.9178 -1.7098
27545SOL    HW294695   6.479   0.229   9.067  1.5171 -0.1873 -0.1575
27546SOL     OW94696   4.958   5.072   4.407 -0.2876  0.3402  0.1320
27546SOL    HW194697   5.038   5.025   4.444  0.3867  0.3235 -1.3361
27546SOL    HW294698   4.927   5.141   4.472 -0.5919 -1.3266  1.8052
27547SOL     OW94699   2.979   5.227   2.810  0.2666 -0.1085  0.6223
27547SOL    HW194700   3.045   5.167   2.854  3.3017 -0.2030 -3.6966
27547SOL    HW294701   2.911   5.171   2.762 -0.8633 -0.0140  2.0820
27548SOL     OW94702   1.459   5.851   4.863 -0.0320  0.2609 -0.0200
27548SOL    HW194703   1.366   5.857   4.827  0.3459  0.3741 -1.0125
27548SOL    HW294704   1.498   5.761   4.840 -0.2854 -0.2071  1.3640
27549SOL     OW94705   0.623   5.877   7.060  0.2647  0.5283  0.2490
27549SOL    HW194706   0.589   5.812   7.128  2.0419 -1.4861 -0.7547
27549SOL    HW294707   0.722   5.863   7.047 -0.1540  0.4699 -3.2071
27550SOL     OW94708   2.854   3.220   0.989 -0.3835  0.4906 -0.7574
27550SOL    HW194709   2.884   3.145   1.048 -1.4237 -0.8046 -1.8478
27550SOL    HW294710   2.916   3.228   0.910 -1.0698 -0.1284 -1.3623
27551SOL     OW94711   6.463   1.050   5.142 -0.2853 -0.1931 -0.3681
27551SOL    HW194712   6.407   1.129   5.166 -1.0430 -0.7725 -0.2234
27551SOL    HW294713   6.491   1.003   5.225  0.6057  0.2237 -0.4295
27552SOL     OW94714   8.747   5.938   7.671 -0.5940  0.5734 -0.3851
27552SOL    HW194715   8.818   5.871   7.694  0.1954  1.7514  0.7477
27552SOL    HW294716   8.770   5.982   7.585 -0.1504  0.6704 -0.2200
27553SOL     OW94717   1.014   5.500   5.362  0.5432  0.2479  0.3505
27553SOL    HW194718   1.067   5.477   5.281  1.8823 -1.8554  1.7835
27553SOL    HW294719   1.076   5.531   5.435 -0.2918 -1.1325  1.6740
27554SOL     OW94720   9.396   8.670   8.220  0.1747  0.3818 -0.2517
27554SOL    HW194721   9.436   8.673   8.129 -1.1659  0.5336 -0.8479
27554SOL    HW294722   9.427   8.588   8.268  2.5992  1.4094 -0.0309
27555SOL     OW94723   8.422   5.822   8.284  0.0107 -0.3679  0.0778
27555SOL    HW194724   8.345   5.879   8.257  0.0628 -0.1215  0.4492
27555SOL    HW294725   8.440   5.754   8.213 -0.9977 -0.8810  0.3029
27556SOL     OW94726   1.537   4.545   6.477  0.2738 -0.0372  0.2829
27556SOL    HW194727   1.516   4.571   6.571  1.4721 -1.8752  1.0853
27556SOL    HW294728   1.589   4.460   6.477  0.6567  0.1728 -2.0371
27557SOL     OW94729   0.370   6.783   7.771  0.1913  0.3444 -0.2393
27557SOL    HW194730   0.301   6.726   7.726  0.8025 -1.5689  1.1612
27557SOL    HW294731   0.445   6.800   7.708 -0.8805  1.2750 -1.3121
27558SOL     OW94732   7.975   4.778   5.216 -0.3185 -0.1609  0.2979
27558SOL    HW194733   8.044   4.835   5.172 -0.1531 -0.6634 -0.1156
27558SOL    HW294734   7.981   4.787   5.315  0.3053 -0.1511  0.2621
27559SOL     OW94735   9.059   7.410   7.963  0.1652  0.5510 -0.1113
27559SOL    HW194736   9.046   7.504   7.995 -3.3050  0.1640 -0.2195
27559SOL    HW294737   9.015   7.399   7.873  0.0895 -1.2932  0.1280
27560SOL     OW94738   3.639   8.676   5.022 -0.2443  0.3929 -0.4719
27560SOL    HW194739   3.597   8.733   4.951 -1.6899  0.1017  0.1244
27560SOL    HW294740   3.672   8.591   4.982 -0.5719  0.4637 -0.8906
27561SOL     OW94741   4.860   0.582   8.143  0.4576  0.0944  0.5167
27561SOL    HW194742   4.951   0.624   8.138  0.4958 -0.1921 -2.5361
27561SOL    HW294743   4.869   0.484   8.156  0.4982  0.3354  2.4568
27562SOL     OW94744   0.529   0.801   6.439 -0.0377 -0.5883 -0.3957
27562SOL    HW194745   0.572   0.825   6.352 -0.0781  0.0139 -0.2539
27562SOL    HW294746   0.433   0.777   6.424  0.0606 -0.8823 -0.5667
27563SOL     OW94747   0.403   8.415   8.567  0.0613  0.6024 -0.4210
27563SOL    HW194748   0.312   8.450   8.591  0.7200  2.3420 -0.3617
27563SOL    HW294749   0.452   8.391   8.650  0.7678  2.5985 -0.2179
27564SOL     OW94750   2.057   8.783   8.275  0.0071  0.3481 -0.1612
27564SOL    HW194751   2.110   8.704   8.307 -1.1699 -0.5299 -0.3411
27564SOL    HW294752   2.090   8.810   8.184 -0.2239 -0.5509 -0.5217
27565SOL     OW94753   0.604   9.861   3.032  0.5444  0.8163 -0.0302
27565SOL    HW194754   0.594   9.952   2.990 -1.5725 -0.1540 -1.7185
27565SOL    HW294755   0.525   9.805   3.009  1.7326 -1.4173  1.1678
27566SOL     OW94756   7.618   6.270   2.687 -0.3841 -0.2869  0.0942
27566SOL    HW194757   7.628   6.195   2.622  0.6965 -0.2699  0.2406
27566SOL    HW294758   7.547   6.333   2.654  0.5413  0.0318 -1.3685
27567SOL     OW94759   8.457   7.253   8.260 -0.1739 -0.4328 -0.4973
27567SOL    HW194760   8.360   7.266   8.239 -0.3955 -1.5233 -0.1555
27567SOL    HW294761   8.468   7.175   8.321  1.0879 -1.5114 -2.0643
27568SOL     OW94762   7.655   2.619   6.258 -0.1912  0.7065  0.6957
27568SOL    HW194763   7.569   2.614   6.207  0.1144 -0.4036  0.2689
27568SOL    HW294764   7.731   2.618   6.194  0.1400  2.2703  1.0456
27569SOL     OW94765   9.136   5.926   5.733 -0.5118  0.5614 -0.0464
27569SOL    HW194766   9.120   6.013   5.779 -0.4052  0.1423  0.7978
27569SOL    HW294767   9.109   5.851   5.794 -2.9441  0.0401 -1.7056
27570SOL     OW94768   8.613   7.844   3.532  0.9495  0.0694 -0.2415
27570SOL    HW194769   8.703   7.822   3.569  0.4484 -1.1798  0.2627
27570SOL    HW294770   8.543   7.795   3.583  0.0275  0.5263 -1.0465
27571SOL     OW94771   1.861   6.404   4.688  0.1322 -0.3840  0.2072
27571SOL    HW194772   1.771   6.394   4.730 -0.8191  1.1851 -1.3886
27571SOL    HW294773   1.894   6.497   4.703  1.9164 -1.2127  1.5582
27572SOL     OW94774   9.614   7.033   5.863  0.1339 -0.6171 -0.1130
27572SOL    HW194775   9.559   6.955   5.834 -0.4599 -0.5217  0.7262
27572SOL    HW294776   9.711   7.014   5.846 -0.1132 -1.0346 -1.0347
27573SOL     OW94777   0.914   4.482   0.269  0.6744  0.1332 -0.7658
27573SOL    HW194778   0.928   4.401   0.326 -0.0569  0.1881 -0.5088
27573SOL    HW294779   0.967   4.559   0.307  1.6683 -0.3091 -1.2220
27574SOL     OW94780   0.172   1.112   7.023  0.5205 -0.0401  0.1305
27574SOL    HW194781   0.209   1.072   6.939 -0.9110 -0.6527 -0.2103
27574SOL    HW294782   0.126   1.198   7.002 -1.5814 -1.1755 -0.0349
27575SOL     OW94783   3.395   2.851   6.437 -0.2607  0.0163 -0.1535
27575SOL    HW194784   3.435   2.899   6.358 -0.6600  0.1463 -0.2788
27575SOL    HW294785   3.417   2.754   6.431 -0.6704 -0.0483 -0.6675
27576SOL     OW94786   0.468   0.100   8.205 -0.2617  0.0065 -0.0567
27576SOL    HW194787   0.371   0.101   8.180 -0.7408  0.5038  1.8194
27576SOL    HW294788   0.482   0.041   8.284  0.9202  0.2107 -0.0991
27577SOL     OW94789   0.201   2.173   5.478 -0.0623  0.2101  0.1203
27577SOL    HW194790   0.199   2.215   5.568  2.0774  1.9393 -0.5910
27577SOL    HW294791   0.209   2.245   5.408 -1.1623 -1.1276 -1.4347
27578SOL     OW94792   2.611   6.108   4.441 -0.2546  0.0055 -0.1977
27578SOL    HW194793   2.583   6.197   4.477 -0.4393 -0.2663  0.3309
27578SOL    HW294794   2.569   6.093   4.352 -0.8510  0.1060  0.0679
27579SOL     OW94795   1.308   5.667   4.552 -0.1531  0.4578 -0.0585
27579SOL    HW194796   1.278   5.572   4.557  1.0653  0.0248 -0.6752
27579SOL    HW294797   1.266   5.719   4.626  3.4896 -1.7900  3.8152
27580SOL     OW94798   9.810   5.372   0.133  0.0822 -0.3011 -0.3859
27580SOL    HW194799   9.773   5.352   0.042  1.0111  0.3281 -0.9144
27580SOL    HW294800   9.735   5.375   0.200 -0.7745  0.5216 -1.3547
27581SOL     OW94801   9.870   2.169   9.881 -0.0153  0.1266  0.1851
27581SOL    HW194802   9.877   2.225   9.799 -0.4767 -0.4940 -0.2731
27581SOL    HW294803   9.933   2.205   9.951  1.0512  0.0951 -0.7490
27582SOL     OW94804   4.724   5.456   9.229 -0.3229  0.0949  0.0306
27582SOL    HW194805   4.690   5.387   9.166  1.5718 -0.5546 -0.3143
27582SOL    HW294806   4.732   5.417   9.321 -1.2862  0.4889  0.2886
27583SOL     OW94807   4.417   5.278   6.001 -0.3352 -0.0973  0.1814
27583SOL    HW194808   4.405   5.350   6.071  2.0449  0.7999 -0.3098
27583SOL    HW294809   4.380   5.192   6.036  0.7048  0.3625  2.5271
27584SOL     OW94810   5.680   4.812   6.524  0.0550  0.2352 -0.0034
27584SOL    HW194811   5.635   4.882   6.580  0.5322 -2.0183  3.3859
27584SOL    HW294812   5.613   4.743   6.497  0.2997  0.0239 -0.0651
27585SOL     OW94813   8.089   6.044   7.736  0.1179 -0.2161 -0.2506
27585SOL    HW194814   7.997   6.062   7.702 -0.2953  1.0812  1.4658
27585SOL    HW294815   8.112   6.110   7.808  1.0328 -2.6397  1.7850
27586SOL     OW94816   0.120   8.709   2.857  0.2550  0.9438  0.2450
27586SOL    HW194817   0.074   8.754   2.780  0.4052 -1.2961 -1.1961
27586SOL    HW294818   0.059   8.707   2.935 -0.5484  1.6902 -0.3441
27587SOL     OW94819   7.018   9.679   3.305 -0.4232  0.1514 -0.9851
27587SOL    HW194820   7.084   9.712   3.372  0.8981 -1.2821 -1.5623
27587SOL    HW294821   6.955   9.615   3.349 -0.5598  0.4382 -0.7598
27588SOL     OW94822   9.682   5.404   6.289 -0.1467 -0.0266  0.5253
27588SOL    HW194823   9.730   5.335   6.344  0.5224  0.0717  0.0681
27588SOL    HW294824   9.618   5.358   6.228 -0.7593 -0.1481  1.2420
27589SOL     OW94825   0.739   3.702   2.943 -0.5669 -0.1818 -0.1955
27589SOL    HW194826   0.771   3.632   2.878 -0.1679 -1.2569  1.1252
27589SOL    HW294827   0.764   3.674   3.036  0.5293  2.2450  0.2759
27590SOL     OW94828   1.837   7.932   7.357 -0.0040  0.1268  0.5780
27590SOL    HW194829   1.870   7.841   7.330 -2.3070 -1.2734  2.2073
27590SOL    HW294830   1.760   7.958   7.299  1.9566  2.0177 -1.2462
27591SOL     OW94831   6.118   5.435   1.364 -0.1034  0.2375 -0.7299
27591SOL    HW194832   6.121   5.352   1.309 -1.3601  1.0727 -2.0696
27591SOL    HW294833   6.046   5.426   1.433 -1.6918  1.0358 -2.2457
27592SOL     OW94834   9.505   7.347   8.249 -0.2290  0.4527  0.3225
27592SOL    HW194835   9.424   7.358   8.306  1.0133  1.6086  1.9145
27592SOL    HW294836   9.586   7.340   8.308  1.2274  2.8702 -1.3201
27593SOL     OW94837   8.568   4.912   5.698 -0.8344 -0.3790 -0.2567
27593SOL    HW194838   8.469   4.929   5.703 -0.4428  1.6759  1.4867
27593SOL    HW294839   8.616   4.993   5.731  1.4604 -1.2386 -1.4294
27594SOL     OW94840   2.802   7.614   4.443  0.3033 -0.5577 -0.2501
27594SOL    HW194841   2.800   7.699   4.495  0.7390 -0.7552  0.0919
27594SOL    HW294842   2.737   7.619   4.367  0.5389  0.1823 -0.3999
27595SOL     OW94843   7.945   2.870   9.770  0.5931  0.5345  0.6058
27595SOL    HW194844   7.868   2.930   9.792  1.0639  1.9012 -1.3687
27595SOL    HW294845   8.004   2.914   9.703  1.8979 -1.4410  0.4029
27596SOL     OW94846   5.645   7.480   7.545 -0.1591 -0.8890 -0.0770
27596SOL    HW194847   5.649   7.577   7.567 -3.4849 -0.6967 -0.0308
27596SOL    HW294848   5.665   7.467   7.448 -0.7868 -0.0446 -0.3189
27597SOL     OW94849   3.088   1.306   5.294 -0.3353 -0.0401  1.0211
27597SOL    HW194850   3.100   1.291   5.196  1.4881  0.5316  1.1432
27597SOL    HW294851   3.110   1.401   5.316 -1.5609  0.0654  1.8651
27598SOL     OW94852   1.150   4.431   8.004 -0.0965  0.4543 -0.2581
27598SOL    HW194853   1.133   4.337   7.976  3.2381  0.0776 -1.3040
27598SOL    HW294854   1.135   4.441   8.102  1.3845 -1.6947  0.2147
27599SOL     OW94855   1.265   4.447   4.062 -0.0028 -0.1014 -0.5682
27599SOL    HW194856   1.327   4.419   3.988  1.9129 -0.8281  1.2523
27599SOL    HW294857   1.296   4.534   4.101 -1.8122  0.9963 -1.5000
27600SOL     OW94858   1.144   3.345   1.717 -0.1959  0.3184 -0.1825
27600SOL    HW194859   1.162   3.274   1.649  0.4417 -0.9127  1.2252
27600SOL    HW294860   1.141   3.435   1.673 -1.5563 -0.6366 -2.0651
27601SOL     OW94861   2.860   0.348   0.927 -0.1041 -0.0322 -0.1105
27601SOL    HW194862   2.952   0.387   0.940 -0.8252  1.3383  0.9171
27601SOL    HW294863   2.836   0.354   0.830 -0.5023  2.8280  0.1212
27602SOL     OW94864   6.023   7.809   6.232  0.1168  0.1681  0.2750
27602SOL    HW194865   5.968   7.844   6.308 -0.9649  0.8614 -0.7965
27602SOL    HW294866   6.108   7.861   6.225  0.3655 -0.1120  1.2029
27603SOL     OW94867   8.273   5.526   4.609 -0.0496  0.2726  0.2975
27603SOL    HW194868   8.242   5.432   4.626  1.9489 -0.5777 -0.5346
27603SOL    HW294869   8.324   5.560   4.688 -0.3066  0.4617  0.3837
27604SOL     OW94870   4.491   9.092   0.105  0.3059  0.1616  0.4932
27604SOL    HW194871   4.463   9.002   0.138 -0.2254 -0.2982 -1.1401
27604SOL    HW294872   4.409   9.147   0.086  0.5919  0.3412 -0.2337
27605SOL     OW94873   0.945   2.343   2.513 -0.5701 -0.1828 -0.3761
27605SOL    HW194874   0.888   2.418   2.546  0.2776  0.6001 -0.6866
27605SOL    HW294875   1.041   2.370   2.515 -0.2552 -1.2771 -0.4420
27606SOL     OW94876   8.853   8.365   6.378 -0.4458 -0.1443 -0.3178
27606SOL    HW194877   8.912   8.420   6.437 -0.8310 -0.7772  0.6917
27606SOL    HW294878   8.898   8.349   6.291  0.7493 -0.3669  0.3250
27607SOL     OW94879   8.938   6.251   7.200 -0.1454 -0.2823 -0.1639
27607SOL    HW194880   9.014   6.216   7.254  0.4406  0.4115 -0.5243
27607SOL    HW294881   8.936   6.351   7.206 -0.8826 -0.2803 -0.3493
27608SOL     OW94882   8.919   4.946   0.969  0.0046 -0.5307  0.3607
27608SOL    HW194883   8.832   4.897   0.970 -0.4804  0.3448  0.5233
27608SOL    HW294884   8.920   5.011   0.893 -0.1035  0.6012  1.3358
27609SOL     OW94885   1.740   2.161   6.772 -0.0008  0.8264  0.0476
27609SOL    HW194886   1.673   2.087   6.770  2.1387 -1.1479 -1.2374
27609SOL    HW294887   1.801   2.149   6.850  0.6888  0.8975 -0.4690
27610SOL     OW94888   1.410   3.116   7.917 -1.0307  0.2306 -0.6590
27610SOL    HW194889   1.421   3.203   7.869 -0.0714  0.1059 -0.6695
27610SOL    HW294890   1.390   3.134   8.014  0.0433  0.4669 -0.4704
27611SOL     OW94891   0.250   6.107   4.351 -0.0905 -0.3101  0.0084
27611SOL    HW194892   0.214   6.045   4.420  2.1504  0.4029  1.8960
27611SOL    HW294893   0.250   6.061   4.262 -3.7678 -0.9528  0.2611
27612SOL     OW94894   9.935   0.180   3.093 -0.6500  0.2062 -0.0879
27612SOL    HW194895   9.968   0.190   2.999 -4.1362  3.3084 -1.1041
27612SOL    HW294896   9.871   0.103   3.097  2.1115 -2.1746  0.6428
27613SOL     OW94897   0.302   6.492   4.823 -0.3221  0.2001  0.0841
27613SOL    HW194898   0.353   6.530   4.747  0.0172  0.0089  0.2126
27613SOL    HW294899   0.296   6.392   4.813  1.5397 -0.0750  1.3774
27614SOL     OW94900   9.832   5.059   6.800  0.4021  0.1290 -0.1559
27614SOL    HW194901   9.846   5.051   6.898  3.7049 -0.2622 -0.6046
27614SOL    HW294902   9.811   4.969   6.762 -1.1202  0.3189  0.1778
27615SOL     OW94903   7.801   9.137   5.178 -0.8883  0.7156 -0.1345
27615SOL    HW194904   7.860   9.216   5.192  2.6618 -2.0379  1.2965
27615SOL    HW294905   7.760   9.110   5.265 -1.1538  0.2943 -0.3864
27616SOL     OW94906   0.678   9.702   6.836  0.0309  0.1465  0.4559
27616SOL    HW194907   0.595   9.656   6.806  0.4679  1.0753 -2.3054
27616SOL    HW294908   0.753   9.636   6.841 -0.2316 -0.1630  0.2943
27617SOL     OW94909   2.320   1.639   8.216  0.3295  0.0386  0.0974
27617SOL    HW194910   2.401   1.588   8.242  0.3844  0.4880  0.8072
27617SOL    HW294911   2.318   1.727   8.264 -0.1750  0.3675 -0.5028
27618SOL     OW94912   0.060   6.774   5.274  0.4146 -0.4637  0.7033
27618SOL    HW194913   0.131   6.752   5.208 -0.8763 -2.5908 -0.0536
27618SOL    HW294914   0.012   6.857   5.246 -1.0543 -2.1258 -1.8445
27619SOL     OW94915   2.017   7.113   6.653  0.3027  0.0991  0.3176
27619SOL    HW194916   1.929   7.077   6.683 -0.3419  1.5230  0.1806
27619SOL    HW294917   2.070   7.143   6.732  1.3458 -2.2352  0.5324
27620SOL     OW94918   0.888   3.330   5.864 -0.0097  0.2655  0.4026
27620SOL    HW194919   0.852   3.278   5.942  0.6886  1.2246  1.3837
27620SOL    HW294920   0.886   3.273   5.782 -1.0740 -0.6458  1.0499
27621SOL     OW94921   6.606   8.411   7.989 -0.2963 -0.1217  0.5590
27621SOL    HW194922   6.608   8.488   8.052 -1.2059 -0.3352  0.8589
27621SOL    HW294923   6.700   8.378   7.973  0.0311  0.6165  0.9448
27622SOL     OW94924   7.283   2.465   6.044  0.2634  0.6558 -0.2554
27622SOL    HW194925   7.200   2.455   6.099 -0.1728 -0.5887 -1.1161
27622SOL    HW294926   7.360   2.422   6.092  0.3281  1.4310  0.3440
27623SOL     OW94927   0.805   3.964   9.156  0.2992 -0.5862 -0.0292
27623SOL    HW194928   0.748   4.023   9.098  1.1272  0.7183  0.4393
27623SOL    HW294929   0.749   3.894   9.198 -1.3435  1.7703  1.8598
27624SOL     OW94930   0.121   9.281   5.618  0.4837 -0.5190 -0.3588
27624SOL    HW194931   0.094   9.370   5.583 -0.6445 -0.8227 -0.2933
27624SOL    HW294932   0.114   9.213   5.545 -1.3808 -1.0585  0.2799
27625SOL     OW94933   7.173   4.615   8.469 -0.0057  0.1007 -0.1762
27625SOL    HW194934   7.148   4.709   8.444 -1.6332  0.3399  2.1392
27625SOL    HW294935   7.209   4.614   8.563 -0.5767 -1.6589  0.0396
27626SOL     OW94936   7.364   4.745   1.168 -0.1799  0.2156  1.0129
27626SOL    HW194937   7.306   4.824   1.152  2.7037  2.3166  0.5326
27626SOL    HW294938   7.380   4.733   1.266 -1.6762 -0.5914  1.1687
27627SOL     OW94939   3.859   3.427   8.021 -0.0806 -0.5869  0.1635
27627SOL    HW194940   3.809   3.491   7.964 -0.2366 -0.2259  0.7041
27627SOL    HW294941   3.834   3.334   7.997  1.3874 -0.5191 -1.7877
27628SOL     OW94942   1.391   5.605   7.449 -0.0550 -0.2165 -0.0081
27628SOL    HW194943   1.326   5.677   7.422  0.9225  0.9131  0.5868
27628SOL    HW294944   1.482   5.630   7.417  0.4754 -0.6853  1.1255
27629SOL     OW94945   4.912   9.653   9.605 -0.0071  0.4939  0.4418
27629SOL    HW194946   4.869   9.740   9.632 -0.1613  0.7454 -0.5867
27629SOL    HW294947   4.848   9.602   9.547 -0.2304 -0.6756  1.6983
27630SOL     OW94948   3.278   7.367   2.200 -0.1994 -0.3181 -0.0485
27630SOL    HW194949   3.373   7.349   2.225 -0.0083 -0.8031 -1.0949
27630SOL    HW294950   3.247   7.449   2.247  0.7629 -0.1152  0.2564
27631SOL     OW94951   8.879   3.075   7.977 -0.1659  0.3773 -0.1081
27631SOL    HW194952   8.815   3.069   7.901 -0.4133 -1.2833  0.2027
27631SOL    HW294953   8.844   3.023   8.055  0.9743  0.4608  0.4780
27632SOL     OW94954   3.661   4.238   5.162  0.3632  0.0280  0.3963
27632SOL    HW194955   3.637   4.158   5.217  2.2847 -1.1606 -0.4495
27632SOL    HW294956   3.580   4.270   5.112 -0.4233 -1.3634  0.7550
27633SOL     OW94957   0.326   3.859   9.175 -0.4286  0.6303 -0.2960
27633SOL    HW194958   0.291   3.952   9.182  0.0318  0.6126  3.2557
27633SOL    HW294959   0.416   3.860   9.131 -0.7816  1.7663 -1.0072
27634SOL     OW94960   5.390   8.824   0.444  0.3671  0.0092 -0.1594
27634SOL    HW194961   5.418   8.890   0.374 -1.6653  1.0758  0.0015
27634SOL    HW294962   5.372   8.872   0.530 -0.7767 -0.8043  0.0622
27635SOL     OW94963   3.020   5.568   9.504  0.3774  0.3838 -0.3864
27635SOL    HW194964   3.048   5.660   9.477 -1.1984  0.3867 -2.1110
27635SOL    HW294965   2.989   5.517   9.423  1.6643 -1.8240  0.4771
27636SOL     OW94966   3.572   4.831   7.473  0.3144  0.7095 -0.3054
27636SOL    HW194967   3.528   4.763   7.532  0.9094  1.4454  0.9970
27636SOL    HW294968   3.535   4.922   7.494 -0.9430  0.7291 -2.4757
27637SOL     OW94969   9.432   6.412   3.005 -0.2255 -0.0087  0.2848
27637SOL    HW194970   9.381   6.465   3.072  0.5289 -1.1670  1.8100
27637SOL    HW294971   9.499   6.355   3.051  0.1262 -1.0506 -1.4356
27638SOL     OW94972   0.167   6.938   9.144 -0.0895 -0.1757 -0.2552
27638SOL    HW194973   0.244   6.938   9.080  1.0942 -0.9543  1.1332
27638SOL    HW294974   0.132   6.845   9.154  0.5283 -0.2789  1.1234
27639SOL     OW94975   8.376   8.054   9.185  0.0002 -0.3412 -0.5592
27639SOL    HW194976   8.425   8.094   9.262  0.2828  2.1930 -2.0151
27639SOL    HW294977   8.296   8.004   9.218  0.2094  0.5820  1.3798
27640SOL     OW94978   5.009   8.304   6.265 -0.0715 -0.0336  0.5406
27640SOL    HW194979   4.962   8.312   6.178 -0.0771 -0.9512  0.4533
27640SOL    HW294980   5.073   8.380   6.276 -1.9635  1.5355  0.9128
27641SOL     OW94981   9.412   5.241   7.239 -0.0112 -0.2168  0.1439
27641SOL    HW194982   9.509   5.215   7.234  0.1455  0.3767  0.0658
27641SOL    HW294983   9.402   5.338   7.217 -0.8717 -0.7518 -1.9120
27642SOL     OW94984   0.409   0.927   2.527 -0.2205 -0.2632 -0.2715
27642SOL    HW194985   0.499   0.964   2.506  0.1448 -1.2378 -0.4393
27642SOL    HW294986   0.348   1.001   2.557  1.2705  0.0849  2.0358
27643SOL     OW94987   8.509   9.538   7.000  0.0566 -0.1591  0.7587
27643SOL    HW194988   8.527   9.443   6.972 -2.0425 -0.1807 -0.6526
27643SOL    HW294989   8.432   9.574   6.948  0.0585  1.9448  2.1453
27644SOL     OW94990   9.286   4.259   1.735 -0.0948 -0.6740  0.1782
27644SOL    HW194991   9.321   4.349   1.711  0.8538 -0.9388  0.5595
27644SOL    HW294992   9.310   4.238   1.829 -1.4978 -0.7598  0.5277
27645SOL     OW94993   9.942   5.115   8.619 -0.4112 -0.2852 -0.0082
27645SOL    HW194994   9.913   5.209   8.634 -0.2123 -0.4411  1.5150
27645SOL    HW294995  10.024   5.113   8.563  1.0971  0.6390  2.0790
27646SOL     OW94996   7.703   4.384   4.954  0.3025  0.0769 -0.5339
27646SOL    HW194997   7.676   4.359   5.047 -1.5460 -0.3523 -1.1650
27646SOL    HW294998   7.740   4.476   4.954 -0.5534  0.4320  0.4956
27647SOL     OW94999   9.970   8.806   7.049 -0.0927 -0.1087  0.1080
27647SOL    HW195000   9.891   8.854   7.011  0.1280 -1.2366 -1.8756
27647SOL    HW295001  10.052   8.861   7.035 -0.4252  0.7736  1.5849
27648SOL     OW95002   8.684   7.011   6.046 -0.2116 -0.1988  0.5596
27648SOL    HW195003   8.714   7.005   6.141 -0.7559  1.4648  0.8583
27648SOL    HW295004   8.700   7.104   6.012 -1.3359 -0.3833 -0.5169
27649SOL     OW95005   2.255   5.252   7.864 -0.0502  0.4293 -0.0422
27649SOL    HW195006   2.323   5.268   7.936 -0.8956 -1.8663  1.3422
27649SOL    HW295007   2.246   5.154   7.848  0.4807  0.9177 -3.6958
27650SOL     OW95008   9.736   4.934   3.477  0.1127  0.2250 -0.6325
27650SOL    HW195009   9.746   4.852   3.421 -0.8999 -0.0256 -0.4508
27650SOL    HW295010   9.825   4.958   3.517  0.2247 -1.3689  0.1341
27651SOL     OW95011   6.702   5.996   5.298 -0.7441  0.0991 -0.1751
27651SOL    HW195012   6.750   5.938   5.232  0.2953  0.2957  0.4036
27651SOL    HW295013   6.614   5.954   5.320  1.1169 -2.6827  2.2709
27652SOL     OW95014   1.361   2.264   6.618 -0.2125  0.1390  0.2416
27652SOL    HW195015   1.347   2.284   6.521  1.5807 -0.2949 -0.1274
27652SOL    HW295016   1.384   2.349   6.666 -0.5518  0.2633  0.1865
27653SOL     OW95017   9.840   9.098   9.089  0.6336 -0.1992  0.3841
27653SOL    HW195018   9.785   9.020   9.121  0.7259 -0.6081 -0.4472
27653SOL    HW295019   9.802   9.183   9.126  0.1013 -0.5746  0.7083
27654SOL     OW95020   0.996   1.030   5.901 -0.0160  0.7399  0.0680
27654SOL    HW195021   1.019   0.993   5.991 -1.4740 -2.6416 -0.8409
27654SOL    HW295022   1.066   1.095   5.872  2.6678 -1.2481  1.8578
27655SOL     OW95023   8.074   2.824   9.255 -0.0163  0.3184  0.3091
27655SOL    HW195024   8.073   2.742   9.198 -1.7370  0.1574  0.5454
27655SOL    HW295025   8.151   2.819   9.319  1.2235 -0.0485 -1.1877
27656SOL     OW95026   2.312   4.896   6.172  0.2275  0.1288 -0.0393
27656SOL    HW195027   2.360   4.880   6.086  1.7547 -1.0584  1.0374
27656SOL    HW295028   2.233   4.956   6.154  0.7536  0.2305 -2.1858
27657SOL     OW95029   8.004   8.471   4.010  0.4409 -0.0156  0.6069
27657SOL    HW195030   8.042   8.446   4.099  0.8880 -0.5506  0.2651
27657SOL    HW295031   7.995   8.570   4.004  0.0206 -0.0076  1.4115
27658SOL     OW95032   8.204   7.390   4.024  0.5086  0.0605  0.1492
27658SOL    HW195033   8.149   7.374   4.106 -1.6619  3.1909 -0.5947
27658SOL    HW295034   8.207   7.306   3.969 -1.5632 -0.8619  1.3609
27659SOL     OW95035   0.308   7.898   0.546 -0.3598  0.4899 -0.0328
27659SOL    HW195036   0.235   7.830   0.536  0.9148 -0.8570 -0.3557
27659SOL    HW295037   0.362   7.901   0.462  1.9021 -0.8546  1.3126
27660SOL     OW95038   6.804   6.214   9.287  0.4475  0.1944 -0.3115
27660SOL    HW195039   6.719   6.264   9.302 -0.4732 -1.3283 -0.3197
27660SOL    HW295040   6.876   6.278   9.259 -0.1388  1.7793  1.7186
27661SOL     OW95041   6.994   3.348   2.773 -0.0579 -0.1779  0.5714
27661SOL    HW195042   6.952   3.439   2.772  1.7856  0.6914 -0.9185
27661SOL    HW295043   6.957   3.294   2.697  1.5467  0.6466 -0.8466
27662SOL     OW95044   9.007   6.088   3.419  1.1259  0.6479 -0.7360
27662SOL    HW195045   8.933   6.127   3.364  0.5886  0.9260  0.1675
27662SOL    HW295046   8.994   6.113   3.515  0.3256 -2.3310  0.0028
27663SOL     OW95047   9.796   6.551   6.866  0.2114  0.3213  0.1965
27663SOL    HW195048   9.865   6.485   6.895 -0.1529 -1.0117 -1.9015
27663SOL    HW295049   9.730   6.564   6.940  1.1882 -0.4355  1.2139
27664SOL     OW95050   7.262   3.152   7.720  1.0566 -0.4959  0.5861
27664SOL    HW195051   7.302   3.135   7.810 -1.5678 -0.2623  1.8190
27664SOL    HW295052   7.336   3.164   7.653  3.0434 -0.4278  2.7246
27665SOL     OW95053   8.849   5.637   2.111 -0.1267  0.0368  0.5841
27665SOL    HW195054   8.849   5.725   2.063  0.2009 -0.2260  0.1120
27665SOL    HW295055   8.772   5.635   2.176 -0.2845  0.5711  0.4152
27666SOL     OW95056   4.511   4.824   7.341  0.7984 -0.0266 -0.1142
27666SOL    HW195057   4.507   4.739   7.289  2.0936  0.1742 -0.5624
27666SOL    HW295058   4.419   4.862   7.350  0.2472 -1.3396 -0.1206
27667SOL     OW95059   1.100   3.699   0.923 -0.3561 -0.5090  0.1762
27667SOL    HW195060   1.159   3.633   0.876 -0.6622 -0.3175 -0.4943
27667SOL    HW295061   1.013   3.656   0.946  0.0802 -0.8258  1.2728
27668SOL     OW95062   5.567   9.625   2.560  0.5027  0.3394  0.2850
27668SOL    HW195063   5.508   9.579   2.626  1.5059  0.1727  1.0676
27668SOL    HW295064   5.603   9.709   2.601 -0.0991  1.0434 -0.6008
27669SOL     OW95065   7.617   6.600   9.850 -0.1209 -0.2065  0.2526
27669SOL    HW195066   7.536   6.609   9.792  0.3459  0.2585 -0.3442
27669SOL    HW295067   7.698   6.624   9.796  0.1897  1.5523  1.4802
27670SOL     OW95068   6.581   7.730   1.356  0.4039 -0.4240 -0.3512
27670SOL    HW195069   6.529   7.743   1.440 -0.2482 -1.7052 -0.5500
27670SOL    HW295070   6.613   7.819   1.322 -0.6824  0.2494  0.3805
27671SOL     OW95071   1.235   7.079   2.477 -1.1371  0.2890  0.3923
27671SOL    HW195072   1.261   7.164   2.431  0.6019 -0.6996 -0.5331
27671SOL    HW295073   1.148   7.046   2.440 -1.4138  1.2455  0.1848
27672SOL     OW95074   2.462   1.350   6.950 -0.0904  0.0070  0.5020
27672SOL    HW195075   2.432   1.284   7.019 -0.0591 -0.7363 -0.1887
27672SOL    HW295076   2.392   1.357   6.879  1.1179 -1.3173 -0.8325
27673SOL     OW95077   0.317   5.277   6.421  0.4659  0.5119 -0.7726
27673SOL    HW195078   0.320   5.376   6.440  0.8733  0.5062 -0.7960
27673SOL    HW295079   0.318   5.263   6.322 -4.5549  0.6334 -0.9277
27674SOL     OW95080   7.015   1.853   4.397  0.3381  0.4124 -0.1806
27674SOL    HW195081   6.964   1.827   4.480  0.5958  0.7458  0.0850
27674SOL    HW295082   6.952   1.855   4.319  0.0393  0.3492  0.0564
27675SOL     OW95083   2.291   5.232   0.188  0.7078  0.2680 -0.5685
27675SOL    HW195084   2.267   5.280   0.104  0.3205  1.9981  0.5142
27675SOL    HW295085   2.260   5.284   0.267  0.5205 -1.6433  0.6536
27676SOL     OW95086   8.556   0.081   7.119 -0.9878  0.1683  0.1155
27676SOL    HW195087   8.606   0.164   7.142  0.8322 -1.3161  1.7155
27676SOL    HW295088   8.536   0.030   7.203 -0.1746 -2.0558 -0.9938
27677SOL     OW95089   6.895   8.763   8.591 -0.4182  0.0134  0.6563
27677SOL    HW195090   6.833   8.814   8.531 -0.5528 -0.1617  0.6447
27677SOL    HW295091   6.923   8.821   8.667  0.0506  0.3557  0.2231
27678SOL     OW95092   6.751   0.735   4.981  0.5749 -0.9353  0.3957
27678SOL    HW195093   6.691   0.714   5.058 -1.9648 -1.0940 -1.5881
27678SOL    HW295094   6.749   0.833   4.962  1.2470 -0.8886  0.5372
27679SOL     OW95095   0.115   7.939   5.261  0.0797  0.2070 -0.5242
27679SOL    HW195096   0.040   7.874   5.252 -0.5131  0.9900 -1.2725
27679SOL    HW295097   0.169   7.916   5.342 -1.6013  0.3054  0.6482
27680SOL     OW95098   2.076   4.124   4.254 -0.4485  0.1043 -0.0522
27680SOL    HW195099   2.101   4.114   4.351  2.4345 -0.9556 -0.8377
27680SOL    HW295100   2.044   4.217   4.238 -0.4208  0.4655  1.8206
27681SOL     OW95101   0.614   4.228   1.396  0.0511  0.1067  1.1754
27681SOL    HW195102   0.536   4.174   1.426 -1.0590  0.8635 -0.2570
27681SOL    HW295103   0.681   4.169   1.352 -1.3534 -0.0800 -0.7762
27682SOL     OW95104   8.441   6.349   6.398 -0.4016 -0.2467  0.0340
27682SOL    HW195105   8.344   6.352   6.421 -0.7808 -0.6298 -1.5139
27682SOL    HW295106   8.455   6.288   6.320  0.7440  1.8833 -1.4511
27683SOL     OW95107   8.802   9.964   6.639  0.2729  1.1516  0.5365
27683SOL    HW195108   8.751   9.934   6.719  1.7491 -0.9631  0.7116
27683SOL    HW295109   8.900   9.944   6.652  0.8115  2.6988 -0.9116
27684SOL     OW95110   0.730   6.453   0.331  0.1395  0.4221 -0.0464
27684SOL    HW195111   0.637   6.482   0.351  0.8030  1.9465  0.8425
27684SOL    HW295112   0.790   6.475   0.408  0.8742 -2.3276  0.2201
27685SOL     OW95113   0.066   1.287   4.933 -0.3159 -0.6156 -0.2189
27685SOL    HW195114  -0.021   1.334   4.950 -0.5227 -0.2910 -1.9897
27685SOL    HW295115   0.136   1.354   4.911  0.1362 -0.9414  0.2282
27686SOL     OW95116   6.040   8.045   7.895  0.1958 -0.2934 -0.1414
27686SOL    HW195117   6.103   7.984   7.846  1.0760  1.0654 -0.7358
27686SOL    HW295118   6.001   8.111   7.830 -1.3438 -0.6986  0.3497
27687SOL     OW95119   1.995   4.033   8.687  0.3713 -0.0416  0.3390
27687SOL    HW195120   2.007   3.945   8.733 -1.8653  0.2379  1.5091
27687SOL    HW295121   2.079   4.087   8.696  1.3231 -1.5343  0.6877
27688SOL     OW95122   9.474   8.522   0.160  0.1159 -0.0176  0.3779
27688SOL    HW195123   9.563   8.504   0.203 -0.0960  0.5059  1.0321
27688SOL    HW295124   9.468   8.618   0.132 -0.2916 -0.0260  0.4328
27689SOL     OW95125   8.012   4.401   6.326 -0.2719  0.0606  0.4991
27689SOL    HW195126   8.074   4.386   6.404 -0.5683  0.4404  0.8068
27689SOL    HW295127   8.052   4.361   6.244  0.0192 -0.3891  0.8581
27690SOL     OW95128   1.031   7.795   7.933  0.1066 -0.1689  0.0319
27690SOL    HW195129   1.024   7.889   7.900  1.7795 -0.2032 -0.4256
27690SOL    HW295130   1.035   7.795   8.033  0.1418  0.2373  0.0315
27691SOL     OW95131   7.453   2.980   6.759 -0.5181  0.2460 -0.0089
27691SOL    HW195132   7.539   2.947   6.720 -0.3781  1.9146 -1.1856
27691SOL    HW295133   7.380   2.968   6.692 -0.6367  1.4499 -0.1096
27692SOL     OW95134   0.920   9.292   6.978  0.8544  0.4803 -0.5970
27692SOL    HW195135   0.960   9.203   6.999 -1.4247 -0.7223 -1.1939
27692SOL    HW295136   0.872   9.327   7.058  0.1044  0.2571 -0.9467
27693SOL     OW95137   2.156   1.532   6.958  1.1419 -0.1232 -0.3758
27693SOL    HW195138   2.214   1.600   7.003  0.8977 -0.0930 -0.1077
27693SOL    HW295139   2.170   1.443   7.000  0.8812 -0.0863 -0.2132
27694SOL     OW95140   0.849   0.127   0.926  0.0352  0.0780 -0.0471
27694SOL    HW195141   0.833   0.189   1.004  1.6476 -0.4700  0.7436
27694SOL    HW295142   0.768   0.070   0.913 -0.8210  1.1775  0.2932
27695SOL     OW95143   2.388   8.859   6.030 -0.0099 -0.1912  0.2090
27695SOL    HW195144   2.346   8.900   6.111 -1.7806 -2.0617  0.2843
27695SOL    HW295145   2.396   8.929   5.959 -2.1822  0.5399  0.6225
27696SOL     OW95146   3.117   3.058   1.678 -0.0745  0.3986  0.1791
27696SOL    HW195147   3.048   3.107   1.731 -1.0390  1.9366 -2.4356
27696SOL    HW295148   3.166   3.122   1.619  1.6346 -1.1353 -0.1172
27697SOL     OW95149   9.159   6.783   8.386  0.2475 -0.1736 -0.1897
27697SOL    HW195150   9.185   6.868   8.432  0.8029 -1.2917  1.6318
27697SOL    HW295151   9.093   6.734   8.444  0.8549 -1.5516 -0.6682
27698SOL     OW95152   5.504   0.876   9.613  0.4425 -0.6494  0.2395
27698SOL    HW195153   5.530   0.918   9.700  0.0139 -0.1591  0.1379
27698SOL    HW295154   5.420   0.918   9.580 -1.7592 -3.7617  1.6673
27699SOL     OW95155   7.547   8.371   9.883  0.2666  0.4306  0.3198
27699SOL    HW195156   7.460   8.421   9.885 -0.6208 -1.0513  0.2266
27699SOL    HW295157   7.594   8.383   9.970 -1.2128 -0.7072  1.3225
27700SOL     OW95158   7.697   7.676   0.403  0.0072  0.0722  0.1249
27700SOL    HW195159   7.677   7.761   0.452  1.8931  0.7037 -0.1685
27700SOL    HW295160   7.764   7.694   0.331  0.4424 -1.6617  0.0755
27701SOL     OW95161   6.130   8.931   7.400  0.0309 -0.0883 -0.3686
27701SOL    HW195162   6.098   8.962   7.310  0.3111 -1.0152 -0.7890
27701SOL    HW295163   6.095   8.839   7.418 -0.1636  0.1593  0.5523
27702SOL     OW95164   8.102   8.193   6.826  0.3857 -0.1143  0.3218
27702SOL    HW195165   8.051   8.239   6.898  1.0208 -0.8282  1.2461
27702SOL    HW295166   8.060   8.212   6.738 -0.4295  0.7334  0.8801
27703SOL     OW95167   0.930   6.594   8.339  0.0926  0.1187  0.5987
27703SOL    HW195168   0.914   6.497   8.357 -1.5372  0.4221  0.9060
27703SOL    HW295169   0.842   6.642   8.336  0.8551  1.5110  0.0080
27704SOL     OW95170   2.129   8.569   0.366  0.0177  0.1245  0.4181
27704SOL    HW195171   2.158   8.618   0.284  1.6519  0.2454  1.0430
27704SOL    HW295172   2.050   8.615   0.407 -0.5677  0.2728 -0.8804
27705SOL     OW95173   6.545   9.621   8.023 -0.1365 -1.0675 -0.4776
27705SOL    HW195174   6.559   9.719   8.005 -2.4107 -0.2289  1.9788
27705SOL    HW295175   6.448   9.599   8.010 -0.2844 -2.2403  2.2618
27706SOL     OW95176   1.778   7.056   9.227  0.1304 -0.5859  0.2797
27706SOL    HW195177   1.800   7.051   9.325 -0.3485 -3.5149  0.2893
27706SOL    HW295178   1.838   6.994   9.176  0.6766  1.2538 -1.3658
27707SOL     OW95179   7.589   8.552   4.260 -0.3459 -0.1037  0.0664
27707SOL    HW195180   7.644   8.555   4.343 -1.0681 -0.7061  0.5788
27707SOL    HW295181   7.649   8.545   4.180  0.3676  1.0626  0.4973
27708SOL     OW95182   2.313   0.163   5.622  0.6089 -0.0455  0.2706
27708SOL    HW195183   2.352   0.252   5.646 -0.3954  0.5456 -0.2484
27708SOL    HW295184   2.230   0.148   5.676  1.9801 -1.6648  1.9835
27709SOL     OW95185   9.035   2.019   6.799 -0.3700 -0.1076  0.2877
27709SOL    HW195186   9.032   1.919   6.790 -2.1388  0.0672 -1.1743
27709SOL    HW295187   8.987   2.046   6.882  0.6650 -0.4933  1.0311
27710SOL     OW95188   5.390   4.844   9.593  0.6615  0.4108  0.0906
27710SOL    HW195189   5.432   4.818   9.506  1.0554 -0.7418  0.6171
27710SOL    HW295190   5.442   4.805   9.669  0.1267  1.1251  0.8426
27711SOL     OW95191   2.783   7.149   0.406 -0.5988 -0.2227 -0.3905
27711SOL    HW195192   2.832   7.086   0.346  0.3589  0.7025 -0.6011
27711SOL    HW295193   2.849   7.202   0.460 -1.3666  0.7485 -0.3845
27712SOL     OW95194   0.080   4.099   7.236  0.1484 -0.8428  0.3735
27712SOL    HW195195   0.011   4.171   7.235  2.5679  1.6497  2.6732
27712SOL    HW295196   0.141   4.111   7.158  0.2502 -0.6932  0.4757
27713SOL     OW95197   8.299   1.207   5.773  0.1329 -0.7293  0.1433
27713SOL    HW195198   8.234   1.279   5.751  1.6486  0.7636  0.5006
27713SOL    HW295199   8.282   1.174   5.866  0.4335  0.2612  0.5522
27714SOL     OW95200   9.167   5.828   9.979 -0.3447  0.4588  0.4723
27714SOL    HW195201   9.187   5.733   9.953  1.4074  0.6457  1.0713
27714SOL    HW295202   9.094   5.829  10.048 -1.8953 -0.2989 -1.1092
27715SOL     OW95203   3.457   8.749   7.550  0.0839 -0.2605 -0.2542
27715SOL    HW195204   3.538   8.780   7.499  1.3756 -1.1256  1.2239
27715SOL    HW295205   3.484   8.678   7.615 -1.9218 -0.7077  0.1161
27716SOL     OW95206   0.426   3.335   1.795  0.3958 -0.6235  1.0484
27716SOL    HW195207   0.507   3.277   1.808  0.3533 -0.6452  1.2162
27716SOL    HW295208   0.436   3.418   1.849 -0.1586 -1.0890  1.8755
27717SOL     OW95209   1.960   4.294   7.960  0.4817 -0.3106 -0.0396
27717SOL    HW195210   2.041   4.313   7.905  1.8454 -1.5104  1.5008
27717SOL    HW295211   1.983   4.229   8.032 -1.9086 -0.8189  0.3165
27718SOL     OW95212   7.266   0.067   8.597  0.3308  0.4013  0.0084
27718SOL    HW195213   7.357   0.056   8.636  0.6859 -0.3719 -1.0186
27718SOL    HW295214   7.270   0.050   8.498 -0.9154  0.4337 -0.0550
27719SOL     OW95215   8.639   7.737   8.016  0.6646  0.1656  0.1015
27719SOL    HW195216   8.652   7.824   7.968  2.3977  0.8567  1.7652
27719SOL    HW295217   8.659   7.662   7.952  0.7815  1.0161 -0.8844
27720SOL     OW95218   1.181   8.121   1.125 -0.2183  0.0431  0.2588
27720SOL    HW195219   1.218   8.182   1.195 -0.8567  1.8223 -0.9252
27720SOL    HW295220   1.089   8.091   1.152 -0.2220  0.2353  0.4624
27721SOL     OW95221   8.573   7.518   6.635 -0.1939  0.5226 -0.0872
27721SOL    HW195222   8.564   7.583   6.559  0.0900 -0.7340 -1.2198
27721SOL    HW295223   8.547   7.563   6.721 -1.2506  1.7548 -1.0254
27722SOL     OW95224   4.761   5.458   4.235 -0.4702 -0.1871  0.2097
27722SOL    HW195225   4.734   5.528   4.168  1.1479  0.1838 -0.0652
27722SOL    HW295226   4.729   5.368   4.204 -0.6875  0.1365 -0.5083
27723SOL     OW95227   1.317   7.564   0.830  0.3453  0.2120  0.1524
27723SOL    HW195228   1.296   7.495   0.760  0.6321 -0.2919  0.5658
27723SOL    HW295229   1.382   7.630   0.792  2.1647 -1.2840  0.6519
27724SOL     OW95230   0.974   5.476   7.871  0.5429  0.2700 -0.1722
27724SOL    HW195231   1.035   5.534   7.925 -0.5445  1.2957 -0.0170
27724SOL    HW295232   0.880   5.487   7.903  0.1006 -0.3254 -1.2278
27725SOL     OW95233   1.658   9.316   4.274  0.5218 -0.3051  0.1449
27725SOL    HW195234   1.669   9.250   4.348  0.0016  1.3104  1.6930
27725SOL    HW295235   1.583   9.378   4.296 -0.1091 -0.2214 -2.0764
27726SOL     OW95236   9.243   7.949   6.213  0.3184  0.1222 -0.0941
27726SOL    HW195237   9.280   8.031   6.169 -1.6991  0.0990 -1.9552
27726SOL    HW295238   9.286   7.868   6.173  1.5141  0.2301  0.9618
27727SOL     OW95239   9.009   7.522   5.119 -0.2993 -0.2821  0.0205
27727SOL    HW195240   9.095   7.526   5.069 -1.1673  1.7791 -1.3408
27727SOL    HW295241   8.977   7.427   5.122  1.0326 -0.7852 -1.1138
27728SOL     OW95242   2.882   9.511   8.963  0.1599  0.3315 -0.4418
27728SOL    HW195243   2.934   9.579   9.014 -1.4684  0.6341  0.8533
27728SOL    HW295244   2.848   9.552   8.878  1.6111  0.2676 -1.0641
27729SOL     OW95245   1.022   4.295   2.041  0.0293 -0.1195  0.3719
27729SOL    HW195246   0.956   4.271   2.111  1.6539 -2.2663  1.2122
27729SOL    HW295247   1.113   4.304   2.082  1.0421 -1.6583 -1.4865
27730SOL     OW95248   8.830   0.742   9.478  0.1375  0.1048  0.0780
27730SOL    HW195249   8.818   0.643   9.472 -0.6236  0.2478 -0.9344
27730SOL    HW295250   8.767   0.780   9.546  1.2685 -0.2396  1.3403
27731SOL     OW95251   7.031   8.699   4.692 -0.6280 -0.8131  0.0637
27731SOL    HW195252   7.008   8.602   4.693 -1.2067 -0.6691  1.3140
27731SOL    HW295253   7.060   8.725   4.600 -1.4200 -1.9483 -0.5236
27732SOL     OW95254   0.348   5.858   0.310  0.4003  0.1676  0.0558
27732SOL    HW195255   0.428   5.902   0.351 -0.1691  2.3189 -1.0810
27732SOL    HW295256   0.315   5.913   0.233  0.0239 -2.5775 -1.8174
27733SOL     OW95257   9.384   0.628   3.531  0.1642  0.6832 -0.1299
27733SOL    HW195258   9.316   0.562   3.563  1.2101 -0.1703  0.3755
27733SOL    HW295259   9.464   0.578   3.497  0.5145  1.6767 -0.7602
27734SOL     OW95260   2.760   1.464   1.008  0.4447 -0.0628 -0.0404
27734SOL    HW195261   2.792   1.502   0.921 -1.2621  0.6893 -0.3606
27734SOL    HW295262   2.710   1.379   0.990  1.9222 -1.0533  0.4264
27735SOL     OW95263   2.782   0.146   1.091 -0.3642  0.1675  0.1187
27735SOL    HW195264   2.871   0.106   1.111 -0.6040  0.3652  1.6233
27735SOL    HW295265   2.795   0.235   1.047  0.1634 -0.9707 -2.1302
27736SOL     OW95266   2.475   6.912   7.700 -0.4002 -0.2598 -0.2717
27736SOL    HW195267   2.401   6.887   7.762  0.5165 -1.2739  0.4322
27736SOL    HW295268   2.554   6.943   7.754  0.2600 -0.7548 -0.9470
27737SOL     OW95269   0.847   9.625   8.258  0.1974  0.4041 -0.1277
27737SOL    HW195270   0.754   9.618   8.294  0.5927 -0.0733  0.8218
27737SOL    HW295271   0.882   9.717   8.272  1.0840 -0.2963  2.5831
27738SOL     OW95272   5.982   5.171   9.326  0.0118 -1.0424 -0.4805
27738SOL    HW195273   6.027   5.258   9.349 -0.0074 -1.0591 -0.3842
27738SOL    HW295274   5.891   5.168   9.367 -0.1176 -0.9679 -0.7535
27739SOL     OW95275   0.881   4.507   6.147  0.2086  0.1408 -0.0333
27739SOL    HW195276   0.963   4.563   6.158 -0.5025  1.0402  0.8004
27739SOL    HW295277   0.898   4.435   6.081  1.4842  0.6950 -0.3125
27740SOL     OW95278   4.243   6.405   7.586 -0.1549 -0.0834 -0.2306
27740SOL    HW195279   4.212   6.358   7.669 -3.1955 -0.2502 -1.4097
27740SOL    HW295280   4.223   6.502   7.593  0.0945 -0.0090 -0.5530
27741SOL     OW95281   9.371   3.243   9.673  0.3075  0.0155  0.0501
27741SOL    HW195282   9.355   3.335   9.710 -1.3842  0.8823 -2.7335
27741SOL    HW295283   9.460   3.240   9.627  1.0714 -0.2196  1.5125
27742SOL     OW95284   4.525   6.484   8.658 -0.2004  0.3299  0.0424
27742SOL    HW195285   4.608   6.434   8.631  0.7907  1.2562  1.2927
27742SOL    HW295286   4.460   6.485   8.582  1.2684  0.2920 -1.2370
27743SOL     OW95287   5.701   5.990   1.403  0.3332  0.3857  0.0131
27743SOL    HW195288   5.800   5.987   1.389  0.6293  0.0177  1.9741
27743SOL    HW295289   5.662   5.899   1.394  0.1733  0.5245 -0.7231
27744SOL     OW95290   1.987   7.169   7.597  0.3292  0.1491 -0.0499
27744SOL    HW195291   1.892   7.146   7.576 -0.0497 -0.0618  1.8235
27744SOL    HW295292   1.997   7.182   7.695  1.5187  3.6170 -0.5620
27745SOL     OW95293   2.943   6.987   1.355 -0.4167 -0.3457  0.8552
27745SOL    HW195294   3.030   6.977   1.404 -0.5941 -0.2551  1.1885
27745SOL    HW295295   2.908   7.079   1.367 -0.1753 -0.1508  0.0778
27746SOL     OW95296   1.175   3.394   2.350 -0.0523 -0.1994  0.1902
27746SOL    HW195297   1.244   3.390   2.422 -0.0182 -0.5867  0.1390
27746SOL    HW295298   1.217   3.425   2.265  0.1484 -0.8200  0.0581
27747SOL     OW95299   8.141   3.993   9.005 -0.5365 -0.5563  0.0333
27747SOL    HW195300   8.112   4.037   8.920  0.2495  0.8215  0.4571
27747SOL    HW295301   8.217   3.932   8.986 -2.2809 -2.5471 -0.7297
27748SOL     OW95302   0.826   8.181   6.946 -0.1403  0.3712 -0.3949
27748SOL    HW195303   0.842   8.273   6.982  1.1316 -0.0681  0.2029
27748SOL    HW295304   0.887   8.165   6.869 -0.7012  0.1949 -0.8038
27749SOL     OW95305   1.029   0.526   4.435  0.8587 -0.3880 -0.0271
27749SOL    HW195306   1.047   0.615   4.476  0.3297 -0.6184  0.7017
27749SOL    HW295307   0.939   0.527   4.391  0.7865 -0.6192  0.1195
27750SOL     OW95308   6.066   5.113   0.358  0.3267 -0.4153 -0.0651
27750SOL    HW195309   6.040   5.064   0.441  2.0326 -1.1448  0.0586
27750SOL    HW295310   6.053   5.054   0.279 -0.6411  0.0405 -0.2503
27751SOL     OW95311   7.203   4.950   7.454 -0.1424  0.4032  0.5103
27751SOL    HW195312   7.293   4.969   7.416 -0.3543 -0.1562 -0.2733
27751SOL    HW295313   7.140   4.925   7.381 -0.1647 -2.1547  1.3511
27752SOL     OW95314   6.553   0.670   7.590  0.9238  0.1799 -0.3486
27752SOL    HW195315   6.648   0.668   7.621  0.8733  0.0798 -0.1981
27752SOL    HW295316   6.493   0.679   7.669  0.8308  0.7292 -0.4834
27753SOL     OW95317   8.164   0.276   6.994 -0.0032 -0.1275 -0.4186
27753SOL    HW195318   8.117   0.206   6.940  0.8256 -1.8510  1.0259
27753SOL    HW295319   8.185   0.239   7.085  0.1250  2.1388  0.5059
27754SOL     OW95320   5.189   4.632   8.059  0.0884 -0.0165  0.5587
27754SOL    HW195321   5.114   4.596   8.114 -1.3311 -1.1040 -2.0039
27754SOL    HW295322   5.156   4.654   7.967  2.5554  1.0428 -0.1222
27755SOL     OW95323   5.603   1.362   2.548  0.2246  0.3589 -0.1963
27755SOL    HW195324   5.632   1.274   2.508 -1.2904 -0.0038 -0.5543
27755SOL    HW295325   5.665   1.387   2.622  0.8628 -0.8676 -0.2912
27756SOL     OW95326   5.436   0.463   0.073  0.3057  0.4686 -0.0671
27756SOL    HW195327   5.417   0.423   0.163 -1.1557 -1.6415 -1.2586
27756SOL    HW295328   5.524   0.510   0.075  1.0088 -0.8616  2.0367
27757SOL     OW95329   9.980   6.675   7.552  0.2433 -0.0346  0.1440
27757SOL    HW195330   9.908   6.682   7.621 -0.3167 -1.2347 -0.3279
27757SOL    HW295331   9.940   6.680   7.461  0.6476 -1.6594 -0.1334
27758SOL     OW95332   1.230   5.072   6.144 -0.3495  0.6191  0.2509
27758SOL    HW195333   1.267   5.133   6.073  0.2319  0.7811  0.6906
27758SOL    HW295334   1.298   5.002   6.165 -1.7230 -1.3484 -1.6200
27759SOL     OW95335   8.142   5.521   8.848  0.0382  0.3097 -0.0521
27759SOL    HW195336   8.116   5.428   8.822 -1.8371  0.1851  2.1066
27759SOL    HW295337   8.087   5.587   8.799 -0.5706  0.1951  0.4733
27760SOL     OW95338   0.544   1.639   8.067  0.3416  0.0357 -0.7426
27760SOL    HW195339   0.525   1.730   8.105  2.0712 -0.7859  2.2903
27760SOL    HW295340   0.465   1.580   8.081  0.1313  0.3752 -0.4805
27761SOL     OW95341   9.717   3.379   0.825 -1.6551 -0.6639 -0.3335
27761SOL    HW195342   9.751   3.402   0.916 -1.6952 -1.5346 -0.0964
27761SOL    HW295343   9.794   3.373   0.761 -1.6408  0.1014 -0.3979
27762SOL     OW95344   6.437   7.720   4.821  0.3859 -0.2869 -0.0853
27762SOL    HW195345   6.531   7.687   4.813  0.8548  0.8805  0.3790
27762SOL    HW295346   6.383   7.685   4.744  1.1435 -1.1468 -0.2349
27763SOL     OW95347   0.425   7.039   3.003 -0.6017  0.2655  0.2588
27763SOL    HW195348   0.390   7.130   2.982 -0.3802  0.7701  1.9929
27763SOL    HW295349   0.353   6.986   3.049 -1.0375 -0.7703 -1.5583
27764SOL     OW95350   0.082   5.231   0.500  0.4421 -0.0577 -0.2244
27764SOL    HW195351   0.091   5.165   0.425 -1.5543  0.5686 -1.0582
27764SOL    HW295352   0.059   5.183   0.584 -1.9159 -0.4084 -1.0198
27765SOL     OW95353   0.260   8.955   9.944  0.3165 -0.3653  0.0727
27765SOL    HW195354   0.342   8.903   9.917  0.9456  0.1666  0.9146
27765SOL    HW295355   0.253   8.955  10.044 -1.1118 -0.9941 -0.0160
27766SOL     OW95356   9.342   0.871   9.224  0.2564 -0.0645  0.2774
27766SOL    HW195357   9.426   0.857   9.172 -0.5838  0.2685 -1.2005
27766SOL    HW295358   9.328   0.795   9.287  1.3847 -0.3796  0.1606
27767SOL     OW95359   1.291   7.382   6.625  0.2898 -0.2357  0.6037
27767SOL    HW195360   1.354   7.353   6.553  2.3121  0.4309  2.0547
27767SOL    HW295361   1.283   7.482   6.624  1.8603 -0.0454  2.4709
27768SOL     OW95362   9.919   7.274   1.417 -0.1335  0.5235 -0.9754
27768SOL    HW195363   9.864   7.289   1.499  1.2441 -0.5113  0.1626
27768SOL    HW295364   9.896   7.185   1.377 -2.2400  1.8697 -2.8951
27769SOL     OW95365   2.154   0.164   8.211  0.0350  0.1049 -0.4011
27769SOL    HW195366   2.092   0.210   8.274  1.7087  2.8084 -0.6559
27769SOL    HW295367   2.230   0.124   8.262  0.5390  0.9006 -0.5091
27770SOL     OW95368   7.429   3.625   0.401 -0.1226  0.1567 -0.0062
27770SOL    HW195369   7.527   3.626   0.418  0.1225 -0.6759 -1.2793
27770SOL    HW295370   7.380   3.607   0.486  0.8090  0.7547  0.6673
27771SOL     OW95371   7.911   8.654   8.759  0.3915 -0.0128  0.1364
27771SOL    HW195372   7.972   8.732   8.766 -1.5532  1.3789  2.3120
27771SOL    HW295373   7.915   8.600   8.843 -1.9142  0.5626  0.6566
27772SOL     OW95374   0.387   3.719   7.505  0.4767  0.2407 -0.0875
27772SOL    HW195375   0.357   3.705   7.411 -0.3704  1.2955  0.0024
27772SOL    HW295376   0.482   3.751   7.506  0.0398  1.5953 -0.6786
27773SOL     OW95377   4.315   9.313   1.665  0.4346 -0.4258  0.1300
27773SOL    HW195378   4.288   9.285   1.573 -0.2441  1.7583 -0.3685
27773SOL    HW295379   4.413   9.297   1.678  0.6297 -0.2930 -1.1451
27774SOL     OW95380   6.196   5.892   2.284  0.0620  0.4215  0.1111
27774SOL    HW195381   6.245   5.825   2.340 -0.7014  0.0196  0.3140
27774SOL    HW295382   6.191   5.979   2.333 -1.3044 -0.1595  1.0435
27775SOL     OW95383   2.537   7.661   9.751  0.1605  0.0420  0.0275
27775SOL    HW195384   2.556   7.725   9.827  0.3267  0.6407 -0.5116
27775SOL    HW295385   2.550   7.567   9.783 -0.8665  0.2331  1.0588
27776SOL     OW95386   8.844   3.443   0.891  0.5641  0.0344  0.1738
27776SOL    HW195387   8.855   3.518   0.825 -0.4358  0.5108  0.5413
27776SOL    HW295388   8.824   3.481   0.981 -5.6987 -0.6757 -0.6636
27777SOL     OW95389   1.383   2.592   8.278 -0.5810 -0.0087 -0.0978
27777SOL    HW195390   1.415   2.519   8.217 -2.0421 -0.9005  0.1787
27777SOL    HW295391   1.363   2.674   8.225  4.7389  1.5330  0.0217
27778SOL     OW95392   6.464   6.391   1.993 -0.5171 -0.1382  0.1547
27778SOL    HW195393   6.387   6.381   2.057  0.1535  0.7033  1.1000
27778SOL    HW295394   6.549   6.375   2.042  0.0511  1.3282 -0.3584
27779SOL     OW95395   9.885   7.529   1.043  0.3716  0.1011 -0.0384
27779SOL    HW195396   9.849   7.441   1.014  0.0018  0.0472  0.5733
27779SOL    HW295397   9.876   7.538   1.143 -1.7164  1.7797 -0.3343
27780SOL     OW95398   4.983   7.504   1.258 -0.1436 -0.3990 -0.5172
27780SOL    HW195399   5.013   7.561   1.335  1.1748 -0.1726 -1.1759
27780SOL    HW295400   4.930   7.426   1.293  1.3943 -0.9276  0.7390
27781SOL     OW95401   2.650   0.361   9.107 -0.1919 -0.0259 -0.4302
27781SOL    HW195402   2.597   0.439   9.073  3.5474  2.4559 -0.8022
27781SOL    HW295403   2.677   0.304   9.030 -2.4803 -1.4763 -0.2103
27782SOL     OW95404   0.029   9.233   6.245  0.3900 -0.3202  0.7195
27782SOL    HW195405   0.038   9.134   6.233  0.0416 -0.3433  0.6616
27782SOL    HW295406   0.066   9.280   6.164 -0.1322 -0.4227  0.4246
27783SOL     OW95407   2.598   6.422   2.037 -0.5769  0.2816 -0.0782
27783SOL    HW195408   2.560   6.440   1.946  1.4906  1.3416 -0.7593
27783SOL    HW295409   2.621   6.324   2.044  1.7354  0.6422 -1.7271
27784SOL     OW95410   2.824   5.042   8.462  0.2235  0.2414 -0.1923
27784SOL    HW195411   2.729   5.011   8.465  0.4449 -0.5470 -1.0295
27784SOL    HW295412   2.827   5.142   8.466 -0.6100  0.2525  0.3043
27785SOL     OW95413   9.099   4.221   0.833  0.0610  0.6658  0.0122
27785SOL    HW195414   9.082   4.200   0.929  0.1227 -1.5929 -0.4307
27785SOL    HW295415   9.159   4.301   0.826 -2.0046  2.4113  1.7683
27786SOL     OW95416   9.584   6.940   7.847  0.6830  0.1680 -0.1761
27786SOL    HW195417   9.598   7.038   7.861 -0.8852  0.1480  1.6385
27786SOL    HW295418   9.597   6.892   7.933 -1.3121 -0.8800 -0.4253
27787SOL     OW95419   0.577   4.878   0.891  0.0749 -0.5991 -0.1367
27787SOL    HW195420   0.508   4.930   0.840  0.7328  0.8879  0.4511
27787SOL    HW295421   0.534   4.797   0.932 -0.8155 -0.9249 -1.6447
27788SOL     OW95422   2.922   6.914   9.422  0.2787  0.7680  0.1739
27788SOL    HW195423   2.974   6.971   9.486  0.1545  1.2515 -0.1570
27788SOL    HW295424   2.966   6.916   9.332 -0.0993  0.8725 -0.0082
27789SOL     OW95425   5.556   8.003   0.953 -0.4343 -0.5730  0.0488
27789SOL    HW195426   5.563   7.926   1.017 -1.3908 -0.1989  0.6147
27789SOL    HW295427   5.503   8.076   0.995 -2.0735 -0.7846 -1.5988
27790SOL     OW95428   0.462   5.866   2.828 -0.1734 -0.0745  0.3020
27790SOL    HW195429   0.449   5.965   2.833 -0.2380 -0.0866  0.3689
27790SOL    HW295430   0.402   5.821   2.894 -0.5326 -0.1913 -0.0996
27791SOL     OW95431   3.789   5.922   7.970 -0.5013 -0.0716 -0.3510
27791SOL    HW195432   3.787   5.845   7.906 -0.5672 -0.1777 -0.2200
27791SOL    HW295433   3.803   5.888   8.063 -0.0826  0.1036 -0.3464
27792SOL     OW95434   1.218   9.874   0.416 -0.4063 -0.6110  0.1052
27792SOL    HW195435   1.309   9.834   0.431  0.1028  0.8412  1.0224
27792SOL    HW295436   1.219   9.927   0.331 -0.6612 -1.3728 -0.3686
27793SOL     OW95437   2.290   4.630   8.325  0.3078 -0.0114  0.2354
27793SOL    HW195438   2.267   4.654   8.419 -0.3467  1.1030 -0.2076
27793SOL    HW295439   2.304   4.713   8.271 -0.6335 -0.6335 -0.9857
27794SOL     OW95440   9.061   1.586   4.785 -0.3428  0.2525 -0.2974
27794SOL    HW195441   9.009   1.660   4.742 -0.8591 -0.4459 -0.8935
27794SOL    HW295442   9.072   1.605   4.882  0.1234  1.4524 -0.5787
27795SOL     OW95443   8.893   8.296   7.773 -0.4026 -0.0669  0.0238
27795SOL    HW195444   8.796   8.285   7.792 -0.0261 -2.0977  0.9212
27795SOL    HW295445   8.944   8.295   7.859  0.4022  1.2920 -0.4237
27796SOL     OW95446   8.910   8.803   7.028  0.2607 -0.2475  0.0635
27796SOL    HW195447   8.884   8.893   6.992  1.8102  0.1225 -0.1606
27796SOL    HW295448   8.827   8.751   7.049 -0.6637  0.6886 -1.1463
27797SOL     OW95449   1.483   5.268   9.492 -0.5120  0.2417  0.1281
27797SOL    HW195450   1.493   5.225   9.581  3.2084 -0.0586 -0.3453
27797SOL    HW295451   1.536   5.353   9.490 -0.9943  0.5179 -1.6221
27798SOL     OW95452   2.323   7.918   5.169 -0.3912 -0.1704 -0.1518
27798SOL    HW195453   2.398   7.961   5.219 -0.8262  0.8749 -0.3823
27798SOL    HW295454   2.352   7.899   5.075  0.5936 -2.6043  0.6265
27799SOL     OW95455   6.063   5.291   9.085 -0.3499 -0.2497 -0.0995
27799SOL    HW195456   6.005   5.252   9.157 -1.5710 -0.0690 -0.9745
27799SOL    HW295457   6.022   5.376   9.052  1.1550  0.6319  0.2577
27800SOL     OW95458   1.932   7.458   1.671  0.1318 -0.2413  0.4587
27800SOL    HW195459   1.851   7.415   1.631 -0.1615  0.1595  0.6196
27800SOL    HW295460   1.922   7.557   1.666 -0.5371 -0.1609  2.7803
27801SOL     OW95461   1.637   1.317   0.702  0.0975  0.0058  0.5154
27801SOL    HW195462   1.562   1.375   0.673 -0.5918 -1.3283 -0.4399
27801SOL    HW295463   1.602   1.227   0.728  1.4198 -0.8164 -0.4780
27802SOL     OW95464   8.195   0.689   0.595 -0.1405  0.0715  0.1119
27802SOL    HW195465   8.101   0.724   0.591  0.0656  0.8819  1.6739
27802SOL    HW295466   8.248   0.744   0.660  1.8127  0.4935 -1.8025
27803SOL     OW95467   5.086   8.133   3.047 -0.0667 -0.0474  0.1059
27803SOL    HW195468   5.168   8.190   3.058  0.5452 -0.9853  0.4062
27803SOL    HW295469   5.054   8.104   3.137 -0.1515 -0.4917 -0.0669
27804SOL     OW95470   3.541   5.427   9.629 -0.2348 -0.6735  0.0350
27804SOL    HW195471   3.508   5.342   9.588 -1.8915 -0.3368  0.6183
27804SOL    HW295472   3.480   5.502   9.603 -0.6821 -0.2660  2.1534
27805SOL     OW95473   5.274   8.501   9.402 -0.3567  0.4408  0.1321
27805SOL    HW195474   5.286   8.495   9.501 -0.1827 -0.9126  0.0343
27805SOL    HW295475   5.345   8.448   9.356 -1.8982 -0.9923 -0.6473
27806SOL     OW95476   6.533   9.625   9.286  0.0435  0.0247  0.8870
27806SOL    HW195477   6.613   9.577   9.322 -1.0327 -2.0922  0.5519
27806SOL    HW295478   6.562   9.705   9.234  2.0133 -1.5036 -0.4099
27807SOL     OW95479   4.918   9.298   9.069 -0.0825 -0.2479  0.1889
27807SOL    HW195480   4.917   9.241   8.987 -0.5514 -1.3708  0.9682
27807SOL    HW295481   4.839   9.360   9.067 -0.3029 -0.5341 -0.0288
27808SOL     OW95482   6.129   7.231   3.180  0.4372  0.4110  0.0634
27808SOL    HW195483   6.209   7.172   3.196  0.9393  1.6351  2.3269
27808SOL    HW295484   6.161   7.322   3.152 -0.0717  1.3197  2.3446
27809SOL     OW95485   1.265   1.030   2.747 -0.1236 -0.2947  0.6271
27809SOL    HW195486   1.198   1.000   2.815  0.2234 -0.6434  0.8125
27809SOL    HW295487   1.219   1.086   2.678 -0.7662 -1.2085  0.3054
27810SOL     OW95488   8.416   6.743   2.194  0.0638 -0.4597 -0.4123
27810SOL    HW195489   8.393   6.817   2.257 -1.0704 -1.8747  0.8753
27810SOL    HW295490   8.466   6.671   2.243 -0.5728 -1.4459 -1.1686
27811SOL     OW95491   0.666   8.370   0.968 -0.1241 -0.2456 -0.7260
27811SOL    HW195492   0.709   8.367   1.058  0.1376  1.5906 -0.7599
27811SOL    HW295493   0.583   8.314   0.968 -0.6915  0.5672  0.9549
27812SOL     OW95494   6.803   9.800   1.272 -0.0127  0.1361 -0.1470
27812SOL    HW195495   6.745   9.755   1.341  1.2869  0.9431  1.5149
27812SOL    HW295496   6.885   9.745   1.256  1.7294  1.9639  2.1142
27813SOL     OW95497   6.999   7.060   7.381 -0.2849 -0.4852  0.7172
27813SOL    HW195498   6.969   6.968   7.407 -0.5780 -0.6232 -0.0917
27813SOL    HW295499   6.956   7.086   7.295  0.5279  0.0473  0.4651
27814SOL     OW95500   9.265   6.139   2.703  0.0658  0.1811  0.0766
27814SOL    HW195501   9.282   6.041   2.717 -0.5912  0.0388 -0.0629
27814SOL    HW295502   9.349   6.190   2.717 -0.0872 -0.1535  2.5248
27815SOL     OW95503   6.771   9.626   4.373 -0.6994 -0.6845  0.2506
27815SOL    HW195504   6.867   9.655   4.367 -0.7191 -0.8331 -0.8915
27815SOL    HW295505   6.765   9.527   4.366 -0.9828 -0.6297 -0.3722
27816SOL     OW95506   9.211   5.850   7.772  0.5338 -0.2811 -0.6356
27816SOL    HW195507   9.236   5.784   7.701 -1.7818  1.1653 -2.8718
27816SOL    HW295508   9.112   5.858   7.777  0.7557  2.4149  0.1957
27817SOL     OW95509   0.951   5.175   1.067  0.4459 -0.3941 -0.0447
27817SOL    HW195510   0.889   5.098   1.063 -0.5021  0.1459  3.1089
27817SOL    HW295511   0.902   5.259   1.043  0.4085 -0.2001  0.7129
27818SOL     OW95512   4.787   4.716   8.388 -0.3879 -0.0223 -0.1349
27818SOL    HW195513   4.884   4.737   8.377 -0.5269  0.7111  0.0084
27818SOL    HW295514   4.734   4.767   8.319 -0.7163 -0.0214  0.1188
27819SOL     OW95515   2.246   3.021   6.824  0.7528 -0.2519  0.0181
27819SOL    HW195516   2.209   3.003   6.733  2.6353 -0.6380 -0.6949
27819SOL    HW295517   2.277   3.116   6.829 -1.5300  0.4752  1.0615
27820SOL     OW95518   5.345   0.782   1.430 -0.7946  0.2007  0.1256
27820SOL    HW195519   5.439   0.753   1.448 -0.4663  0.6595 -0.8130
27820SOL    HW295520   5.282   0.711   1.459 -0.1157 -0.4278  0.0804
27821SOL     OW95521   8.634   7.681   7.473 -0.0628  0.4290  0.1548
27821SOL    HW195522   8.569   7.681   7.549  0.0400 -1.1672  0.2733
27821SOL    HW295523   8.715   7.734   7.499 -0.7176  1.2563  0.5309
27822SOL     OW95524   6.194   0.042   8.653  0.0955 -0.3303 -0.1322
27822SOL    HW195525   6.251   0.044   8.571 -0.4652  0.4687 -0.5120
27822SOL    HW295526   6.101   0.015   8.628 -0.0608 -0.1469  0.2459
27823SOL     OW95527   4.526   9.044   7.206  0.4269  0.6354  0.0415
27823SOL    HW195528   4.606   8.989   7.181  0.2367 -0.1710  1.1578
27823SOL    HW295529   4.535   9.135   7.167  2.1682  0.7373  0.6209
27824SOL     OW95530   4.525   3.866   6.925 -0.9390  0.1597  0.2311
27824SOL    HW195531   4.472   3.820   6.996 -2.2840  0.3119 -0.6581
27824SOL    HW295532   4.600   3.807   6.895 -0.9208 -0.2727  1.1239
27825SOL     OW95533   7.774   8.174   2.958  0.3930 -0.5833 -0.2821
27825SOL    HW195534   7.746   8.222   3.041  1.6541 -1.4226  0.6415
27825SOL    HW295535   7.758   8.076   2.970 -0.2726 -0.6234 -1.3901
27826SOL     OW95536   1.633   9.706   1.476  0.0743  0.5528  0.5265
27826SOL    HW195537   1.583   9.631   1.520  0.3181 -0.1525 -0.3758
27826SOL    HW295538   1.584   9.735   1.394  0.8077  0.3020 -0.0020
27827SOL     OW95539   6.692   6.857   9.668  0.0634  0.0553  0.4857
27827SOL    HW195540   6.728   6.934   9.614  0.5354 -0.6184 -0.1579
27827SOL    HW295541   6.705   6.876   9.765  0.7545  0.5009  0.3081
27828SOL     OW95542   5.562   4.981   9.931 -0.2817  0.9066  0.2864
27828SOL    HW195543   5.464   4.998   9.929 -0.4687 -0.2097 -0.3769
27828SOL    HW295544   5.603   5.031  10.007 -1.2527  1.9219  0.1633
27829SOL     OW95545   8.677   2.422   4.428 -0.6423  0.2122  0.0276
27829SOL    HW195546   8.669   2.500   4.490  0.1654 -0.6933  1.3123
27829SOL    HW295547   8.618   2.348   4.459 -1.4215  0.3062 -1.1977
27830SOL     OW95548   5.950   2.293   9.084  0.6534 -0.7187 -0.2215
27830SOL    HW195549   5.867   2.248   9.114  0.4708 -0.2585 -0.0394
27830SOL    HW295550   6.027   2.229   9.089  0.6311 -0.6499  1.2146
27831SOL     OW95551   5.280   5.934   4.381  0.0202  0.2139 -0.3905
27831SOL    HW195552   5.198   5.915   4.435  0.9515  1.3411  1.4582
27831SOL    HW295553   5.286   5.869   4.305 -3.2173  0.8674 -1.2794
27832SOL     OW95554   7.713   1.786   5.079 -0.0091 -0.0022  0.1418
27832SOL    HW195555   7.672   1.753   5.165  2.2514 -0.4172  1.1086
27832SOL    HW295556   7.690   1.882   5.067 -0.7188 -0.0476  0.9803
27833SOL     OW95557   7.612   6.076   0.112 -0.1565  0.0186 -0.2404
27833SOL    HW195558   7.709   6.086   0.132 -0.2992  0.1419  0.3763
27833SOL    HW295559   7.591   6.124   0.027  0.1651  0.6569  0.0381
27834SOL     OW95560   1.202   8.697   2.794  0.1958  0.7715  0.3220
27834SOL    HW195561   1.200   8.699   2.694 -0.1748  1.3153  0.3329
27834SOL    HW295562   1.283   8.648   2.826  1.2634  2.1116 -0.2482
27835SOL     OW95563   2.857   6.630   2.299 -0.0355 -0.1153  0.5551
27835SOL    HW195564   2.896   6.559   2.357 -2.4621 -0.9546  1.2001
27835SOL    HW295565   2.836   6.592   2.209  0.2745  0.2506  0.3225
27836SOL     OW95566   1.782   4.994   4.908  0.0699  0.3408  0.1623
27836SOL    HW195567   1.872   5.017   4.871 -0.6030 -0.0602 -1.7907
27836SOL    HW295568   1.790   4.912   4.965  0.5674 -1.0723 -1.8817
27837SOL     OW95569   0.325   0.025   4.472  0.0345  0.0948 -0.4903
27837SOL    HW195570   0.254  -0.045   4.479  1.3136 -1.5069 -2.7902
27837SOL    HW295571   0.352   0.036   4.376  3.4230  0.0961  0.3951
27838SOL     OW95572   5.566   4.490   0.603  0.1915  0.4376 -0.6060
27838SOL    HW195573   5.626   4.410   0.609  0.6320  0.5384 -3.2410
27838SOL    HW295574   5.537   4.503   0.508 -0.7557  2.7809 -0.0283
27839SOL     OW95575   0.708   0.563   7.991 -0.4954 -0.0443  0.2591
27839SOL    HW195576   0.635   0.494   7.994  1.2031 -1.8492  1.2337
27839SOL    HW295577   0.721   0.593   7.897 -1.7531 -0.5046 -0.0809
27840SOL     OW95578   9.813   7.911   6.383 -0.8524 -0.1848 -0.2067
27840SOL    HW195579   9.775   7.840   6.324 -1.8081  0.6094 -0.5618
27840SOL    HW295580   9.785   7.894   6.478 -1.0112 -0.3367 -0.2792
27841SOL     OW95581   4.751   7.975   9.713  0.3700  0.1261  0.4510
27841SOL    HW195582   4.725   8.070   9.700 -0.2876 -0.2412 -0.9828
27841SOL    HW295583   4.701   7.937   9.791  0.0836  0.7401  0.5664
27842SOL     OW95584   5.786   6.352   2.202  0.2506  0.2149 -0.6020
27842SOL    HW195585   5.802   6.254   2.189 -0.3590  0.0729 -0.2452
27842SOL    HW295586   5.775   6.396   2.112  0.6742 -0.0101 -0.7689
27843SOL     OW95587   2.620   5.885   7.691 -0.1119  0.5625 -0.0308
27843SOL    HW195588   2.709   5.924   7.713  0.2191 -0.4974  0.5335
27843SOL    HW295589   2.577   5.940   7.618  0.2910  2.0200  0.8043
27844SOL     OW95590   1.229   9.063   8.711 -0.0681  0.7573  0.2261
27844SOL    HW195591   1.164   8.994   8.740  0.8420 -0.9630 -1.7233
27844SOL    HW295592   1.310   9.060   8.771  0.0228  0.0507  0.0669
27845SOL     OW95593   1.968   2.970   4.431  0.6333  0.2429  0.3463
27845SOL    HW195594   1.935   3.045   4.373  1.2036 -1.1590 -1.8777
27845SOL    HW295595   1.932   2.980   4.523  1.3469  3.6872  0.3014
27846SOL     OW95596   4.364   3.739   7.090 -0.6428  0.1479 -0.3453
27846SOL    HW195597   4.324   3.697   7.171 -0.3570 -1.2793 -0.9272
27846SOL    HW295598   4.310   3.715   7.010 -0.7791  1.3476 -0.6247
27847SOL     OW95599   1.455   1.697   9.197 -0.3902 -0.5219  0.2240
27847SOL    HW195600   1.543   1.744   9.192 -0.7633  0.0217 -1.5587
27847SOL    HW295601   1.405   1.728   9.278  0.1590  0.7419  0.0888
27848SOL     OW95602   0.632   8.175   1.825  0.8170  0.7200 -0.3281
27848SOL    HW195603   0.576   8.203   1.747  0.6959  0.8270 -0.2027
27848SOL    HW295604   0.606   8.229   1.906  0.7616  0.4291 -0.1510
27849SOL     OW95605   2.597   0.187   6.420 -0.1942  0.2660  0.2953
27849SOL    HW195606   2.693   0.174   6.394  0.1452  1.6020  0.8340
27849SOL    HW295607   2.541   0.195   6.338 -0.0171 -1.6435 -0.0333
27850SOL     OW95608   9.312   6.336   8.974 -0.0125 -0.5103  0.8488
27850SOL    HW195609   9.329   6.249   8.928  0.2150 -0.8043  1.4914
27850SOL    HW295610   9.216   6.363   8.961  0.6023  0.5915 -1.8378
27851SOL     OW95611   9.772   4.954   0.885 -0.5045 -0.1570  0.5477
27851SOL    HW195612   9.788   5.026   0.817  0.6704 -1.0374 -0.1390
27851SOL    HW295613   9.750   4.996   0.973  3.2411  1.1738  0.9549
27852SOL     OW95614   9.074   7.995   0.095  0.0188  0.0994 -0.3787
27852SOL    HW195615   9.006   7.924   0.076 -0.0529  0.2564 -0.7195
27852SOL    HW295616   9.165   7.960   0.073  0.0291 -0.0480 -0.0993
27853SOL     OW95617   5.127   9.174   8.685  0.2605 -0.3513  0.1084
27853SOL    HW195618   5.223   9.167   8.710  0.5376  1.2764 -0.4051
27853SOL    HW295619   5.105   9.107   8.614  0.4330 -2.3032  1.8767
27854SOL     OW95620   3.386   6.885   3.006 -0.1090 -0.0944  0.4368
27854SOL    HW195621   3.484   6.873   3.016 -0.0061 -1.2962 -1.5968
27854SOL    HW295622   3.339   6.798   3.021 -0.4045 -0.6397 -3.0710
27855SOL     OW95623   1.742   5.414   2.572  0.0022  0.3171 -0.4995
27855SOL    HW195624   1.733   5.340   2.506 -0.1186  0.1419 -0.2875
27855SOL    HW295625   1.834   5.454   2.566  0.2651 -0.2431 -0.1999
27856SOL     OW95626   8.597   9.297   9.085  0.2957 -0.2710 -0.2250
27856SOL    HW195627   8.518   9.244   9.116 -0.2520 -0.2098 -1.4912
27856SOL    HW295628   8.630   9.354   9.160 -0.8571 -0.3055  0.3226
27857SOL     OW95629   7.060   6.258   2.464  0.5170  0.1932 -0.2421
27857SOL    HW195630   7.116   6.332   2.501 -0.7315  1.2341 -0.4399
27857SOL    HW295631   7.020   6.206   2.538 -1.2304  1.7090 -0.1021
27858SOL     OW95632   5.934   6.397   4.949  0.0509  0.0525  0.0042
27858SOL    HW195633   6.000   6.326   4.926 -1.0976 -0.8668 -0.4928
27858SOL    HW295634   5.975   6.460   5.015  0.8630 -1.4466  0.9754
27859SOL     OW95635   0.069   9.968   1.149  0.1568  0.2530  0.2418
27859SOL    HW195636   0.011  10.045   1.123  0.2668 -0.1279 -1.2006
27859SOL    HW295637   0.161   9.983   1.113  0.2376 -0.4314  0.1602
27860SOL     OW95638   0.286   6.135   1.115 -0.2919  0.6144 -0.0960
27860SOL    HW195639   0.198   6.172   1.086  0.4626  2.0523 -0.6376
27860SOL    HW295640   0.330   6.090   1.037  0.0127  1.0329 -0.1681
27861SOL     OW95641   6.259   8.446   9.354  0.4690 -0.0423 -0.6484
27861SOL    HW195642   6.295   8.405   9.438 -3.1130 -0.7873  0.6251
27861SOL    HW295643   6.250   8.545   9.367 -0.6216 -0.2235  0.1330
27862SOL     OW95644   2.320   7.112   1.647  0.1405  0.2188 -0.3364
27862SOL    HW195645   2.416   7.086   1.636  0.0352 -0.5166  0.4465
27862SOL    HW295646   2.266   7.075   1.572  0.4479  0.5432 -0.7208
27863SOL     OW95647   0.839   9.463   8.038  0.1048  0.3301 -0.6264
27863SOL    HW195648   0.924   9.455   7.986  0.0628 -1.8436 -0.4036
27863SOL    HW295649   0.851   9.531   8.111  1.4883  0.3799 -0.8831
27864SOL     OW95650   0.772   3.030   9.733  0.0652 -0.0388 -0.3287
27864SOL    HW195651   0.696   2.985   9.780  0.4553 -0.6708 -0.2927
27864SOL    HW295652   0.813   3.099   9.793 -0.2978  0.0998 -0.2419
27865SOL     OW95653   1.588   7.570   2.165  0.0918  0.2206  0.3647
27865SOL    HW195654   1.604   7.563   2.264 -1.7605  1.1867  0.7801
27865SOL    HW295655   1.633   7.652   2.130 -0.6811  0.8432  0.7806
27866SOL     OW95656   8.121   6.723   4.676  0.3755 -0.0200 -0.1641
27866SOL    HW195657   8.217   6.748   4.673  0.1613  0.7362 -1.0232
27866SOL    HW295658   8.094   6.683   4.588 -0.1707  0.0909 -0.0521
27867SOL     OW95659   7.954   2.701   6.245 -0.4708 -0.2024  0.1504
27867SOL    HW195660   7.964   2.800   6.243  0.4605 -0.3000 -0.7977
27867SOL    HW295661   7.961   2.668   6.339 -1.3921  0.6849  0.5366
27868SOL     OW95662   6.158   5.167   6.755  0.0825  0.7551 -0.6400
27868SOL    HW195663   6.250   5.194   6.730  0.7967  0.1345  1.2113
27868SOL    HW295664   6.094   5.242   6.735  1.0053  1.2704 -1.7090
27869SOL     OW95665   7.924   5.585   8.372  0.5949  0.2821  0.3462
27869SOL    HW195666   7.993   5.540   8.429  1.1438  0.5589 -0.0953
27869SOL    HW295667   7.833   5.565   8.408  0.8076 -1.4614 -0.0362
27870SOL     OW95668   6.880   2.525   8.757  0.0744 -0.2471 -0.0990
27870SOL    HW195669   6.844   2.481   8.839  0.6954  0.2444  0.4481
27870SOL    HW295670   6.856   2.622   8.758  3.3206  0.6307  1.4584
27871SOL     OW95671   3.829   9.338   0.009  0.3343 -0.0943  0.5998
27871SOL    HW195672   3.756   9.396   0.045  0.7008  0.6134  0.2196
27871SOL    HW295673   3.917   9.385   0.018  0.2265  0.9132 -2.9256
27872SOL     OW95674   5.451   1.503   4.283 -0.0159  0.4436 -0.2336
27872SOL    HW195675   5.524   1.557   4.241 -0.1281  0.7846  0.0093
27872SOL    HW295676   5.362   1.541   4.255 -0.0937  0.4116 -0.0289
27873SOL     OW95677   6.535   0.386   4.820 -0.2428 -0.0358 -0.6483
27873SOL    HW195678   6.449   0.358   4.777 -0.1516  0.1206 -0.9317
27873SOL    HW295679   6.605   0.317   4.803 -0.5123 -0.5417  0.2358
27874SOL     OW95680   5.502   6.634   8.197  0.0165 -0.1614  0.0219
27874SOL    HW195681   5.537   6.723   8.168 -0.2520  1.2859  3.7939
27874SOL    HW295682   5.456   6.644   8.286 -1.4781 -3.7834 -0.2653
27875SOL     OW95683   3.807   7.948   2.152 -0.1433  0.8098  0.1239
27875SOL    HW195684   3.743   7.884   2.110 -1.0151  0.6905  1.5995
27875SOL    HW295685   3.836   7.912   2.241 -0.2913  2.2374  0.7584
27876SOL     OW95686   1.366   8.529   2.573 -0.1499 -0.1841  0.2790
27876SOL    HW195687   1.401   8.445   2.615 -1.0055 -0.8303 -0.2806
27876SOL    HW295688   1.266   8.522   2.564 -0.1239  0.5401 -0.5745
27877SOL     OW95689   5.501   1.227   2.832  0.0981 -0.4527 -0.3271
27877SOL    HW195690   5.601   1.228   2.837  0.1546 -1.0821 -1.2096
27877SOL    HW295691   5.464   1.210   2.923  0.7585  0.8447  0.2004
27878SOL     OW95692   0.250   7.759   3.380 -0.3486 -0.0118 -0.1428
27878SOL    HW195693   0.235   7.738   3.477 -1.3940 -0.3011 -0.3560
27878SOL    HW295694   0.343   7.792   3.367 -0.0235 -0.4966  0.8749
27879SOL     OW95695   7.374   0.832   5.535 -0.1640  0.3682 -0.1024
27879SOL    HW195696   7.334   0.903   5.593 -1.9747 -0.9243  0.3044
27879SOL    HW295697   7.364   0.857   5.439 -0.5432  0.8160  0.0527
27880SOL     OW95698   1.095   5.573   8.791 -0.0472  1.0037 -0.0480
27880SOL    HW195699   1.033   5.495   8.791  0.6938  0.4114 -1.3420
27880SOL    HW295700   1.150   5.572   8.875  0.2457 -0.0712 -0.2581
27881SOL     OW95701   4.652   2.467   6.693 -0.2151  0.0285 -0.3988
27881SOL    HW195702   4.630   2.450   6.597 -1.1392  1.5454 -0.4819
27881SOL    HW295703   4.648   2.382   6.744 -2.4134 -0.3957 -1.2042
27882SOL     OW95704   0.946   6.655   0.733  0.5036 -0.2558 -0.6168
27882SOL    HW195705   0.950   6.751   0.758  1.4239 -0.0881 -1.3611
27882SOL    HW295706   0.983   6.599   0.807  1.1773  0.0690 -0.7037
27883SOL     OW95707   1.343   6.027   5.373  0.3868 -0.1609  0.2293
27883SOL    HW195708   1.401   6.006   5.294  0.4816  0.3371  0.1632
27883SOL    HW295709   1.326   5.944   5.425 -0.9472 -0.7896 -1.1761
27884SOL     OW95710   1.988   8.412   2.635  0.3531  0.5344 -0.5002
27884SOL    HW195711   2.082   8.388   2.613  0.0030 -1.8547  0.5089
27884SOL    HW295712   1.926   8.369   2.569 -0.1473  0.6443 -0.1078
27885SOL     OW95713   1.424   4.381   9.502 -0.2035  0.2793  0.2301
27885SOL    HW195714   1.330   4.404   9.480 -0.4272  0.5767  1.4806
27885SOL    HW295715   1.431   4.283   9.521 -0.1445  0.1540 -0.4115
27886SOL     OW95716   4.356   5.073   1.706  0.2162 -0.7240 -0.2703
27886SOL    HW195717   4.328   5.061   1.802 -0.0088 -0.0565 -0.2505
27886SOL    HW295718   4.431   5.011   1.686  1.4272  0.3633  0.8347
27887SOL     OW95719   0.127   6.098   1.882  0.3039  0.4695  0.3899
27887SOL    HW195720   0.106   6.167   1.813  0.6261  0.5275  0.3511
27887SOL    HW295721   0.226   6.084   1.888  0.3804  1.4718  1.8228
27888SOL     OW95722   9.672   4.398   0.180  0.8731 -0.5936 -0.2153
27888SOL    HW195723   9.622   4.313   0.192 -2.2393  1.1594 -0.2004
27888SOL    HW295724   9.763   4.379   0.143  1.0408 -4.0391  1.8069
27889SOL     OW95725   0.433   7.646   1.365  0.2687 -0.6830 -0.8148
27889SOL    HW195726   0.432   7.551   1.332 -1.1089 -0.9242 -0.1331
27889SOL    HW295727   0.485   7.651   1.450  0.8634 -0.7122 -1.1757
27890SOL     OW95728   7.305   6.925   6.417 -0.0043 -0.1832  0.1908
27890SOL    HW195729   7.212   6.888   6.420 -0.4383  0.4040 -3.3346
27890SOL    HW295730   7.369   6.852   6.394 -0.1283  0.1610 -1.2737
27891SOL     OW95731   7.859   4.895   7.261  0.1171 -0.2778 -0.3484
27891SOL    HW195732   7.870   4.970   7.326 -0.1511 -0.6965  0.1809
27891SOL    HW295733   7.780   4.914   7.202  0.8813  0.5156 -1.1263
27892SOL     OW95734   1.662   0.892   2.707 -0.1802 -0.0628  0.4414
27892SOL    HW195735   1.670   0.908   2.608 -2.2506 -0.8829  0.1101
27892SOL    HW295736   1.749   0.860   2.743  1.1797  2.1601 -0.7261
27893SOL     OW95737   9.795   6.557   1.423  0.1118 -0.6093  0.1110
27893SOL    HW195738   9.737   6.583   1.345  0.7718 -0.2315 -0.2531
27893SOL    HW295739   9.797   6.458   1.431  1.7431 -0.7507 -1.6684
27894SOL     OW95740   0.796   9.595   1.092  0.2556 -0.2626 -0.7537
27894SOL    HW195741   0.767   9.690   1.097  0.9303 -0.0739 -0.4055
27894SOL    HW295742   0.729   9.537   1.139  0.9685  0.2916  1.0044
27895SOL     OW95743   1.050   8.945   1.152  0.3084  0.4467  0.3841
27895SOL    HW195744   1.142   8.904   1.148  0.2859  0.3058  1.3463
27895SOL    HW295745   1.027   8.967   1.246 -0.6013  0.6154  0.1269
27896SOL     OW95746   6.841   3.197   6.168 -0.0255  0.4217  0.3194
27896SOL    HW195747   6.890   3.252   6.235 -1.2954  1.6081  0.2886
27896SOL    HW295748   6.743   3.215   6.175 -0.1554  0.8385 -2.0977
27897SOL     OW95749   8.638   2.781   2.140  0.5274 -0.2145 -0.2336
27897SOL    HW195750   8.656   2.709   2.207 -1.4708  0.9508  1.6345
27897SOL    HW295751   8.663   2.870   2.180 -0.1888  0.4577 -1.2475
27898SOL     OW95752   7.259   4.325   9.436  0.7933  0.3203  0.4952
27898SOL    HW195753   7.195   4.397   9.463  0.2372 -0.2475  0.7131
27898SOL    HW295754   7.287   4.274   9.517  1.6257  0.6397  0.4172
27899SOL     OW95755   6.373   0.171   6.297  0.2713 -0.1536 -0.1491
27899SOL    HW195756   6.434   0.093   6.286  0.3170 -0.1509  0.0869
27899SOL    HW295757   6.413   0.236   6.362 -1.3265 -1.5310  2.2882
27900SOL     OW95758   1.882   6.582   3.891 -0.0017  0.1843 -0.3209
27900SOL    HW195759   1.816   6.594   3.816 -2.1569 -3.4389  0.8711
27900SOL    HW295760   1.859   6.645   3.966  0.3735  1.7499 -1.4951
27901SOL     OW95761   0.454   7.164   1.667  0.1431  0.2443  0.3445
27901SOL    HW195762   0.470   7.252   1.623 -0.1495  0.7949  1.3340
27901SOL    HW295763   0.527   7.100   1.643  0.9116  1.0747  0.4643
27902SOL     OW95764   2.179   1.206   3.047 -0.0223  0.0527  0.2955
27902SOL    HW195765   2.086   1.199   3.013  0.3104 -1.1723 -0.3779
27902SOL    HW295766   2.231   1.125   3.022  1.3229  0.8515  0.3911
27903SOL     OW95767   4.658   8.408   5.590  0.6541 -0.0757  0.4452
27903SOL    HW195768   4.630   8.504   5.589  0.2642 -0.1523  2.4155
27903SOL    HW295769   4.755   8.401   5.567  0.7876  0.8272  0.7403
27904SOL     OW95770   7.815   4.627   5.006 -0.0208 -0.3130  0.6644
27904SOL    HW195771   7.893   4.637   5.067 -1.9199  1.4184  2.9141
27904SOL    HW295772   7.782   4.718   4.979 -1.8637 -0.9955  0.5703
27905SOL     OW95773   9.402   6.650   1.798  0.0122  0.2407  0.2932
27905SOL    HW195774   9.468   6.667   1.725  1.2506  0.2153  1.3827
27905SOL    HW295775   9.445   6.671   1.887 -1.7616  1.1773  0.9501
27906SOL     OW95776   9.476   4.901   1.805 -0.2088 -0.3616 -0.1913
27906SOL    HW195777   9.510   4.839   1.735 -0.2486 -0.7591  0.1396
27906SOL    HW295778   9.485   4.859   1.895  1.9387  1.0280  0.2925
27907SOL     OW95779   5.142   0.252   9.515 -0.3944  0.3969  0.3954
27907SOL    HW195780   5.093   0.340   9.520 -0.6194  0.2096  1.4696
27907SOL    HW295781   5.148   0.211   9.606 -1.9252 -1.5894 -0.3525
27908SOL     OW95782   2.508   8.644   1.588 -0.8719 -0.7480  0.0306
27908SOL    HW195783   2.499   8.699   1.670  0.4580  0.4753 -0.6170
27908SOL    HW295784   2.462   8.689   1.511 -1.0753 -1.2771 -0.1595
27909SOL     OW95785   0.729   1.371   7.916  0.0219  0.2158  0.3840
27909SOL    HW195786   0.825   1.401   7.912 -0.7412  2.8474  0.9014
27909SOL    HW295787   0.678   1.414   7.842 -0.9708 -0.4202  0.6981
27910SOL     OW95788   7.188   8.456   4.315  0.4887  0.1368  0.3198
27910SOL    HW195789   7.180   8.553   4.341 -0.3999  0.8381 -2.4342
27910SOL    HW295790   7.108   8.406   4.347  0.4239  0.5318  0.7793
27911SOL     OW95791   3.747   9.595   4.118 -0.0310  0.1989 -0.5447
27911SOL    HW195792   3.703   9.551   4.196  2.4186 -3.3117 -1.0118
27911SOL    HW295793   3.822   9.654   4.150 -0.4216  0.4781 -0.1422
27912SOL     OW95794   9.783   4.620   6.067  0.2712  0.4396  0.0268
27912SOL    HW195795   9.842   4.642   5.989 -2.2877 -1.4667 -2.5470
27912SOL    HW295796   9.698   4.673   6.060 -0.4508 -0.5805  0.9117
27913SOL     OW95797   5.961   2.822   2.670  0.2210  0.9819  0.0160
27913SOL    HW195798   5.987   2.906   2.622 -1.1718  0.3794 -1.8219
27913SOL    HW295799   5.863   2.823   2.690 -0.3325 -1.2625 -2.2607
27914SOL     OW95800   9.299   9.085   4.723  0.5559 -0.3262 -0.3044
27914SOL    HW195801   9.301   8.986   4.738  0.9538 -0.4050 -0.8653
27914SOL    HW295802   9.374   9.128   4.772  1.6452 -0.5460 -1.7442
27915SOL     OW95803   3.081   8.505   6.786  0.0994  0.1344  0.5027
27915SOL    HW195804   3.137   8.581   6.816  0.2286  0.0329  0.5209
27915SOL    HW295805   2.990   8.511   6.827 -0.2494  0.8863 -0.3714
27916SOL     OW95806   5.238   9.286   0.360 -0.1414 -0.4218  0.4932
27916SOL    HW195807   5.264   9.362   0.419 -0.5350 -0.7216  1.0512
27916SOL    HW295808   5.184   9.220   0.411  0.5279 -1.2793  0.1158
27917SOL     OW95809   3.378   3.901   3.622  0.6033 -0.2244 -0.1614
27917SOL    HW195810   3.447   3.889   3.550  2.3628 -1.7323  1.7349
27917SOL    HW295811   3.421   3.938   3.704 -1.2911  0.9457  0.3462
27918SOL     OW95812   8.110   0.328   3.445  0.3873  1.0652  0.0082
27918SOL    HW195813   8.084   0.257   3.380 -2.2250  1.2683  0.7879
27918SOL    HW295814   8.157   0.286   3.522  0.7856  0.4649 -0.5476
27919SOL     OW95815   4.565   8.128   3.555  0.1373  0.0692 -0.3171
27919SOL    HW195816   4.663   8.119   3.570  0.4024  0.7686 -1.5818
27919SOL    HW295817   4.534   8.217   3.590 -0.8225 -1.7876  3.8435
27920SOL     OW95818   4.772   0.210   3.338  0.4486 -0.3379  0.1007
27920SOL    HW195819   4.779   0.264   3.422  0.8010 -1.1803  0.6116
27920SOL    HW295820   4.679   0.175   3.328 -0.5450  2.5589 -1.6016
27921SOL     OW95821   2.050   2.510   5.063 -1.0096 -0.1837  0.1150
27921SOL    HW195822   1.959   2.506   5.104 -0.6804 -0.3134  0.8300
27921SOL    HW295823   2.043   2.552   4.972 -2.0097 -1.6001 -0.4857
27922SOL     OW95824   2.073   6.208   3.953  0.3019  0.4312  0.0808
27922SOL    HW195825   2.090   6.112   3.971  2.1071  0.9309  1.1575
27922SOL    HW295826   2.160   6.257   3.945 -0.5600  1.6969 -2.0744
27923SOL     OW95827   1.319   8.560   3.120 -0.1996  0.1722  0.2640
27923SOL    HW195828   1.332   8.559   3.020 -0.4969 -1.9245  0.2121
27923SOL    HW295829   1.405   8.584   3.164  0.0716  0.6285 -0.5005
27924SOL     OW95830   4.086   6.705   0.012  0.1325 -0.1512 -0.0515
27924SOL    HW195831   4.030   6.649   0.073 -1.6969  2.2486  0.5348
27924SOL    HW295832   4.074   6.674  -0.082 -0.9206 -0.6993  0.2573
27925SOL     OW95833   0.937   8.107   4.368  0.3935  0.3913 -0.1031
27925SOL    HW195834   1.021   8.051   4.363  0.6918  0.6815  1.4303
27925SOL    HW295835   0.858   8.047   4.374  0.3239  0.0768 -3.1280
27926SOL     OW95836   0.192   5.767   2.629 -0.0210  0.1881  1.2358
27926SOL    HW195837   0.262   5.768   2.700 -0.2871  0.2471  1.4994
27926SOL    HW295838   0.159   5.674   2.615  0.7198  0.0283  0.5036
27927SOL     OW95839   9.160   0.217   5.532 -0.1147 -0.2538 -0.0458
27927SOL    HW195840   9.138   0.120   5.525 -0.9169 -0.0425 -0.6014
27927SOL    HW295841   9.205   0.247   5.448 -1.3117  0.2033 -0.5383
27928SOL     OW95842   9.994   3.397   7.157  0.3094 -0.2920 -0.3778
27928SOL    HW195843   9.937   3.394   7.074 -0.0137 -0.5915 -0.1485
27928SOL    HW295844   9.951   3.456   7.225  1.1066  0.7882 -0.8109
27929SOL     OW95845   7.207   9.728   1.737 -0.5982  0.2276 -0.1454
27929SOL    HW195846   7.204   9.674   1.653  0.9790  2.9250 -2.0424
27929SOL    HW295847   7.279   9.694   1.796 -1.0235 -1.0493 -0.3598
27930SOL     OW95848   0.402   9.325   3.874 -0.0243 -0.0263  0.6374
27930SOL    HW195849   0.470   9.360   3.938  0.6448  0.9779 -0.6095
27930SOL    HW295850   0.427   9.233   3.845  0.6512  0.2186  0.4311
27931SOL     OW95851   2.171   8.378   4.821  0.1488  0.0396  0.1608
27931SOL    HW195852   2.110   8.301   4.840  0.1972 -0.0828 -0.1711
27931SOL    HW295853   2.264   8.355   4.848 -0.2718  0.9529  2.5106
27932SOL     OW95854   5.249   7.147   3.326  0.0255  0.2824  0.1484
27932SOL    HW195855   5.284   7.178   3.237  0.3215 -1.2610 -0.2808
27932SOL    HW295856   5.178   7.210   3.357 -0.0660  0.8521 -1.1707
27933SOL     OW95857   0.369   5.365   0.973  0.4107  0.4384  0.5061
27933SOL    HW195858   0.440   5.336   0.909 -0.3258 -0.5622  0.1220
27933SOL    HW295859   0.407   5.365   1.066  1.4014  1.6248  0.1166
27934SOL     OW95860   9.644   7.191   5.188  0.3983  0.2779 -0.4606
27934SOL    HW195861   9.650   7.108   5.133  0.9385  1.3132 -1.9915
27934SOL    HW295862   9.717   7.190   5.256  0.1897 -0.6553 -0.2351
27935SOL     OW95863   5.591   4.801   5.720 -0.0485  0.0386 -0.6079
27935SOL    HW195864   5.606   4.875   5.786 -0.8926 -0.0379 -0.3238
27935SOL    HW295865   5.627   4.829   5.631  1.2759  0.0661 -0.0825
27936SOL     OW95866   3.080   8.309   7.165 -0.1295  0.0685  0.1991
27936SOL    HW195867   3.142   8.259   7.105  0.2850  1.3071 -0.4397
27936SOL    HW295868   3.005   8.250   7.193 -0.6800 -0.3448 -2.0697
27937SOL     OW95869   2.068   1.245   8.523 -0.5346 -0.1052  0.6773
27937SOL    HW195870   2.069   1.160   8.576  2.3042  0.3460  1.4740
27937SOL    HW295871   2.097   1.226   8.429 -1.0480 -0.1871  0.5338
27938SOL     OW95872   9.417   6.509   5.143 -0.4257 -0.0944  0.5043
27938SOL    HW195873   9.387   6.414   5.153 -0.9299  0.0261  0.1165
27938SOL    HW295874   9.386   6.545   5.055 -0.9470  0.6962  1.0045
27939SOL     OW95875   6.336   4.947   2.479  0.2668 -0.8376  0.5824
27939SOL    HW195876   6.244   4.986   2.471  0.2069 -1.1734 -0.4787
27939SOL    HW295877   6.336   4.874   2.548 -0.2902 -0.9003  0.5169
27940SOL     OW95878   0.292   2.769   5.300  0.5387  0.3180 -0.2509
27940SOL    HW195879   0.242   2.686   5.277  1.3988  0.1370 -1.5151
27940SOL    HW295880   0.239   2.849   5.272  0.4552  0.1522 -0.5638
27941SOL     OW95881   9.188   9.007   2.450 -0.0381 -0.3939 -0.2140
27941SOL    HW195882   9.167   9.006   2.352 -0.4933  0.0744 -0.1253
27941SOL    HW295883   9.145   9.087   2.492  1.1024  0.0274  0.1646
27942SOL     OW95884   0.119   7.333   4.815  0.1219 -0.0540 -0.0813
27942SOL    HW195885   0.171   7.262   4.862  0.4772  0.6563  0.6087
27942SOL    HW295886   0.031   7.346   4.861  0.5886  0.8404  0.5714
27943SOL     OW95887   0.983   5.230   4.330 -0.4172 -0.0925  0.4212
27943SOL    HW195888   1.060   5.234   4.267 -1.2393  0.9923 -0.5236
27943SOL    HW295889   0.921   5.307   4.314 -1.2010 -0.3933  1.8273
27944SOL     OW95890   1.220   2.633   6.513  0.4684 -0.7485  0.3908
27944SOL    HW195891   1.214   2.557   6.579 -1.6988 -1.0272 -0.0939
27944SOL    HW295892   1.186   2.717   6.555  1.9212 -0.2449  0.5923
27945SOL     OW95893   7.093   6.459   5.661 -0.0525  0.1519 -0.0424
27945SOL    HW195894   7.111   6.540   5.605 -1.3244  1.0596  0.8152
27945SOL    HW295895   7.004   6.420   5.635 -0.4945  0.3804  1.0955
27946SOL     OW95896   8.986   8.226   8.482  0.1444  0.0859  0.7507
27946SOL    HW195897   9.008   8.322   8.500 -2.1431  0.1361  3.5457
27946SOL    HW295898   8.968   8.214   8.384  0.5021  2.4727  0.3702
27947SOL     OW95899   0.702   5.410   2.283 -0.2013  0.0184 -0.1066
27947SOL    HW195900   0.791   5.372   2.257 -0.2296  1.0317 -1.7447
27947SOL    HW295901   0.715   5.476   2.357  0.3555 -0.2117  0.0051
27948SOL     OW95902   7.187   2.396   6.355 -0.1191 -0.2072 -0.5725
27948SOL    HW195903   7.126   2.472   6.333  0.4591  0.7093  0.9646
27948SOL    HW295904   7.269   2.430   6.401 -0.5851 -1.9093  1.5836
27949SOL     OW95905   0.256   1.464   7.740 -0.2145  0.1702  0.0774
27949SOL    HW195906   0.338   1.517   7.761 -0.6763  0.4534  1.1709
27949SOL    HW295907   0.281   1.388   7.680  0.5735  1.1889 -0.9292
27950SOL     OW95908   9.227   1.560   0.458  0.2969  0.4695 -0.4874
27950SOL    HW195909   9.278   1.631   0.408  0.8153 -0.1694 -0.8741
27950SOL    HW295910   9.132   1.590   0.470  0.9169  2.0032  0.8890
27951SOL     OW95911   5.272   6.077   5.854  0.6406  0.3116  0.4447
27951SOL    HW195912   5.308   6.066   5.947  0.6513  0.8550  0.5070
27951SOL    HW295913   5.179   6.043   5.850  1.2746 -1.4385  0.1988
27952SOL     OW95914   2.399   0.427   5.788  0.4331  0.4947 -0.5487
27952SOL    HW195915   2.330   0.448   5.857  0.3295  1.6202 -0.9779
27952SOL    HW295916   2.394   0.495   5.715  1.4697  0.1225 -0.9734
27953SOL     OW95917   7.020   5.816   6.575 -0.1791 -0.1521 -0.5244
27953SOL    HW195918   7.005   5.914   6.593 -1.0471  0.0748 -2.3847
27953SOL    HW295919   7.116   5.800   6.556  0.2901  0.0362  1.5217
27954SOL     OW95920   7.930   0.350   6.053 -0.3503  0.6733 -0.7192
27954SOL    HW195921   7.994   0.304   6.114  0.4401 -0.0402 -2.0620
27954SOL    HW295922   7.931   0.448   6.072 -0.1888  0.4454  0.4679
27955SOL     OW95923   9.582   1.635   8.974 -0.0900 -1.0589  0.7305
27955SOL    HW195924   9.643   1.572   8.927  0.8700 -1.1688  2.1103
27955SOL    HW295925   9.487   1.605   8.963  0.0836 -0.8807 -1.4272
27956SOL     OW95926   0.365   6.043   3.194 -0.2942  0.3565 -0.3522
27956SOL    HW195927   0.300   6.118   3.206 -0.1598  0.1830  1.6667
27956SOL    HW295928   0.440   6.072   3.136 -0.1792  1.8383  0.5248
27957SOL     OW95929   0.788   6.775   7.969 -0.5600 -0.4606 -0.3934
27957SOL    HW195930   0.797   6.792   7.871  1.2670 -2.3083 -0.5939
27957SOL    HW295931   0.809   6.679   7.988  0.4396  0.1851  1.9726
27958SOL     OW95932   9.507   4.411   3.952  0.1088 -0.2358  0.1292
27958SOL    HW195933   9.452   4.481   3.998  0.1374  0.6427 -1.1286
27958SOL    HW295934   9.582   4.456   3.903  0.3389 -1.1932 -0.3942
27959SOL     OW95935   2.365   7.159   8.571 -0.5147 -0.3282 -0.1481
27959SOL    HW195936   2.436   7.229   8.565 -0.1765 -0.5139  1.4335
27959SOL    HW295937   2.279   7.194   8.534 -0.5487  1.2153  1.3450
27960SOL     OW95938   9.420   8.946   7.972  0.3358  1.0925 -0.1362
27960SOL    HW195939   9.457   8.859   7.940 -1.6099 -0.0837  0.6822
27960SOL    HW295940   9.485   8.988   8.036  2.4411  1.5372 -2.5189
27961SOL     OW95941   1.144   0.194   5.691 -0.0867 -0.0817 -0.4271
27961SOL    HW195942   1.208   0.188   5.615 -0.5223  1.0385 -0.8787
27961SOL    HW295943   1.152   0.283   5.736 -3.0983  1.0842 -2.0780
27962SOL     OW95944   6.443   7.775   8.029  0.3339  0.0310  0.2680
27962SOL    HW195945   6.508   7.786   8.105  0.0923  2.4387  0.1807
27962SOL    HW295946   6.350   7.792   8.062 -0.0627 -1.5697 -0.0070
27963SOL     OW95947   1.954   3.755   0.530 -0.2455  0.1708  0.1807
27963SOL    HW195948   2.021   3.812   0.483 -1.0831 -0.3660 -1.7335
27963SOL    HW295949   1.878   3.811   0.560  0.4265  0.5659  1.1462
27964SOL     OW95950   3.661   3.534   4.264 -0.3064 -0.0616 -0.3324
27964SOL    HW195951   3.617   3.487   4.341 -1.2228  0.0326 -0.7985
27964SOL    HW295952   3.752   3.495   4.249 -0.8432 -1.3227 -0.3701
27965SOL     OW95953   3.303   3.821   8.722  0.1936  0.6720 -0.5514
27965SOL    HW195954   3.391   3.774   8.732 -0.1172 -0.1284 -1.6162
27965SOL    HW295955   3.318   3.920   8.723  0.9170  0.5663  1.0178
27966SOL     OW95956   3.239   8.830   3.823 -0.1152  0.4568  0.5531
27966SOL    HW195957   3.274   8.922   3.805 -0.8098  0.5342 -0.3752
27966SOL    HW295958   3.289   8.763   3.768  0.2334  0.2911  1.0578
27967SOL     OW95959   9.552   7.408   8.643 -0.0961 -0.4699 -0.3914
27967SOL    HW195960   9.458   7.402   8.607 -0.5449 -1.3554  0.8749
27967SOL    HW295961   9.614   7.359   8.583 -0.3887  0.3820 -1.4064
27968SOL     OW95962   2.342   0.053   4.133  0.1130  0.5126 -0.2845
27968SOL    HW195963   2.377  -0.016   4.196  0.5455  2.2892  1.4724
27968SOL    HW295964   2.244   0.066   4.150 -0.0218  0.1402 -0.7878
27969SOL     OW95965   8.319   3.005   5.602  0.0505 -0.0872  0.0619
27969SOL    HW195966   8.309   3.105   5.598 -2.4383 -0.2780  0.5000
27969SOL    HW295967   8.324   2.968   5.509  0.3611  0.3960 -0.1159
27970SOL     OW95968   1.862   4.854   5.453 -0.2414  0.3440 -0.2524
27970SOL    HW195969   1.875   4.906   5.538  1.1298  1.4048 -1.0882
27970SOL    HW295970   1.795   4.901   5.396 -1.7386 -0.7760  0.5487
27971SOL     OW95971   2.058   8.444   4.468  0.4557 -0.0973  0.3929
27971SOL    HW195972   2.037   8.412   4.376  0.7144  0.5896  0.0938
27971SOL    HW295973   1.978   8.492   4.505  1.3259  2.1799 -0.5972
27972SOL     OW95974   1.044   9.143   3.376  0.2302 -0.4068 -0.2509
27972SOL    HW195975   0.959   9.108   3.336  0.9371 -0.6785 -1.5661
27972SOL    HW295976   1.038   9.140   3.475 -0.9077 -1.3678 -0.3342
27973SOL     OW95977   0.234   8.952   3.683  0.1575 -0.5946  0.1400
27973SOL    HW195978   0.168   8.999   3.742  1.0750  0.7002  0.1449
27973SOL    HW295979   0.212   8.969   3.587  0.5548 -0.0703  0.1429
27974SOL     OW95980   4.510   6.620   9.434 -0.5204 -0.0329 -0.0624
27974SOL    HW195981   4.552   6.544   9.482  1.1093  0.3090 -0.9084
27974SOL    HW295982   4.457   6.675   9.498  0.0812 -0.6465  0.9696
27975SOL     OW95983   1.417   0.617   5.414 -0.4844  0.6715  0.0648
27975SOL    HW195984   1.508   0.575   5.421 -0.5308  0.3255 -1.2797
27975SOL    HW295985   1.421   0.692   5.348 -1.7756 -0.9726 -1.8965
27976SOL     OW95986   1.167   6.109   4.497  0.0912 -0.0489  0.1973
27976SOL    HW195987   1.133   6.045   4.428 -1.2118  0.7695  0.0498
27976SOL    HW295988   1.255   6.078   4.531  0.1681 -1.1271 -0.9421
27977SOL     OW95989   7.206   6.797   4.412  0.1117  0.1912  0.1036
27977SOL    HW195990   7.210   6.879   4.469  2.1070 -0.7329  1.3525
27977SOL    HW295991   7.128   6.740   4.441 -0.6243  1.1207 -0.0485
27978SOL     OW95992   4.915   8.342   5.555 -1.0721  0.4717  0.4813
27978SOL    HW195993   4.872   8.252   5.555 -1.3176  0.5142 -3.6671
27978SOL    HW295994   5.010   8.334   5.526 -0.5605  1.3834  1.8251
27979SOL     OW95995   9.371   6.348   4.365  0.1458 -0.1879  0.4022
27979SOL    HW195996   9.402   6.309   4.279 -0.1514 -0.3826  0.3802
27979SOL    HW295997   9.402   6.442   4.372  0.8911 -0.4377  0.4672
27980SOL     OW95998   8.481   6.873   6.864 -0.4924  0.1334  0.8048
27980SOL    HW195999   8.502   6.865   6.767  1.1173  0.5058  1.1133
27980SOL    HW296000   8.483   6.782   6.906 -0.1711  0.0877  0.6915
27981SOL     OW96001   0.245   1.591   8.820 -0.2560 -0.4014 -0.1920
27981SOL    HW196002   0.316   1.520   8.825 -1.6614 -1.7803  0.5778
27981SOL    HW296003   0.258   1.655   8.895 -0.5643 -1.3580  0.6861
27982SOL     OW96004   2.797   9.399   2.711 -0.1084 -0.4014  0.2118
27982SOL    HW196005   2.756   9.356   2.631  0.2308 -0.8313  0.2671
27982SOL    HW296006   2.727   9.449   2.762 -0.1678  0.5570 -0.8001
27983SOL     OW96007   1.222   4.794   5.392 -0.4670 -0.2996  0.0799
27983SOL    HW196008   1.244   4.791   5.489 -1.7465 -1.6770  0.3451
27983SOL    HW296009   1.134   4.749   5.376  0.1740 -0.9356 -1.8311
27984SOL     OW96010   5.467   1.914   3.314  0.1538  0.1007 -0.1892
27984SOL    HW196011   5.498   1.977   3.385  0.3379 -0.2773  0.0648
27984SOL    HW296012   5.431   1.831   3.356  1.3347 -0.6206 -0.5668
27985SOL     OW96013   9.336   5.227   8.395  0.7122  0.5262 -0.3106
27985SOL    HW196014   9.329   5.280   8.479  3.6906  1.9378 -0.9060
27985SOL    HW296015   9.403   5.154   8.406 -1.3768 -1.4667 -0.3907
27986SOL     OW96016   4.271   7.409   5.762 -0.0746 -0.2606  0.0800
27986SOL    HW196017   4.278   7.392   5.664  0.1515 -0.9755  0.2144
27986SOL    HW296018   4.363   7.419   5.801 -0.0140 -2.6885  0.6655
27987SOL     OW96019   2.329   9.346   4.180 -0.1158 -0.4182  0.0919
27987SOL    HW196020   2.428   9.342   4.192  0.3092  1.3574 -2.5452
27987SOL    HW296021   2.295   9.255   4.156  1.2420 -0.5523 -1.4242
27988SOL     OW96022   1.709   9.751   7.206  0.3349  0.2733  0.4354
27988SOL    HW196023   1.731   9.834   7.155 -0.7167 -0.2302 -0.8835
27988SOL    HW296024   1.648   9.694   7.151  3.1775 -2.6613  0.1888
27989SOL     OW96025   6.700   8.178   6.418  0.4055 -0.1912 -0.2902
27989SOL    HW196026   6.784   8.199   6.368  0.1319 -0.7539 -0.9850
27989SOL    HW296027   6.629   8.244   6.393  0.8628  0.7872  0.9044
27990SOL     OW96028   1.298   0.368   0.250  0.0232 -0.1586  0.0619
27990SOL    HW196029   1.382   0.423   0.249 -0.4175  0.5412  1.0854
27990SOL    HW296030   1.245   0.387   0.168  0.3360  0.2199 -0.0548
27991SOL     OW96031   2.857   9.458   9.959 -0.1522  0.2648  0.2226
27991SOL    HW196032   2.924   9.436   9.888 -0.3194  0.8382 -0.1132
27991SOL    HW296033   2.765   9.438   9.925 -0.1747 -0.2586  0.5836
27992SOL     OW96034   0.654   7.993   3.909  0.0722  0.3430  0.2416
27992SOL    HW196035   0.698   7.939   3.980 -0.4819 -0.5840 -0.1128
27992SOL    HW296036   0.724   8.033   3.850  0.5635  1.6529  1.6734
27993SOL     OW96037   9.876   9.530   3.410  0.1485 -0.1465 -0.3052
27993SOL    HW196038   9.925   9.610   3.445 -1.7046  0.6472  0.5810
27993SOL    HW296039   9.888   9.454   3.474 -0.9680  0.4899  0.6896
27994SOL     OW96040   2.326   0.407   1.636 -0.2808 -0.4398  0.3527
27994SOL    HW196041   2.410   0.369   1.675  0.3809  1.6740  1.0035
27994SOL    HW296042   2.296   0.486   1.689 -0.9974  0.6821 -1.6539
27995SOL     OW96043   8.016   7.749   3.295 -1.1302  0.2966 -0.1661
27995SOL    HW196044   8.026   7.847   3.314 -0.4371  0.3427 -0.7244
27995SOL    HW296045   7.926   7.732   3.254 -0.3811  1.0526 -2.1980
27996SOL     OW96046   3.261   3.246   4.736  0.4811  0.5589  0.1774
27996SOL    HW196047   3.326   3.218   4.665  0.1380 -0.6012  0.3080
27996SOL    HW296048   3.285   3.201   4.822 -0.7158 -0.1608  0.1376
27997SOL     OW96049   3.669   9.969   4.932 -0.0497  0.3392 -0.0701
27997SOL    HW196050   3.726  10.033   4.879 -0.5899  0.7088 -0.2052
27997SOL    HW296051   3.680   9.877   4.896 -0.1103  0.5282 -0.5667
27998SOL     OW96052   9.445   0.629   7.662 -0.6351 -0.0806  0.1577
27998SOL    HW196053   9.455   0.548   7.720 -1.9589  0.9222  1.8045
27998SOL    HW296054   9.356   0.672   7.678 -0.2112  1.3600 -1.1664
27999SOL     OW96055   1.107   9.569   4.749 -0.3699 -0.3408 -0.3089
27999SOL    HW196056   1.119   9.605   4.657  0.2892  0.0018 -0.0937
27999SOL    HW296057   1.117   9.643   4.815  1.2481 -0.9501  0.1528
28000SOL     OW96058   7.962   8.176   6.582  0.3446  0.4756 -0.3385
28000SOL    HW196059   7.932   8.158   6.488  2.5987 -2.3621 -0.5773
28000SOL    HW296060   7.900   8.133   6.646  0.0006  0.5850 -0.5975
28001SOL     OW96061   9.268   7.289   4.937 -0.0451  0.1971  0.7848
28001SOL    HW196062   9.215   7.325   4.860 -1.3134 -0.5123  1.3028
28001SOL    HW296063   9.325   7.214   4.905 -0.7843 -0.2847  0.5660
28002SOL     OW96064   5.100   9.271   7.344 -0.0914  0.3654  0.0209
28002SOL    HW196065   5.123   9.353   7.291 -0.4914  0.4000 -0.1045
28002SOL    HW296066   5.033   9.295   7.414 -0.6761  0.0237 -0.4158
28003SOL     OW96067   3.868   6.851   4.072 -0.0598 -0.4811  0.3146
28003SOL    HW196068   3.893   6.940   4.034  1.3187 -0.7850  0.4969
28003SOL    HW296069   3.858   6.785   3.998  2.4836 -1.0375  0.4086
28004SOL     OW96070   8.495   6.584   4.443  0.5347 -0.1746  0.2432
28004SOL    HW196071   8.515   6.552   4.351  0.9010  0.2851  0.1600
28004SOL    HW296072   8.568   6.555   4.505  1.1397  0.9515  0.0643
28005SOL     OW96073   2.314   2.318   9.350  0.0787 -0.7177  0.4123
28005SOL    HW196074   2.317   2.414   9.379  0.6933 -1.3495  2.5319
28005SOL    HW296075   2.405   2.288   9.322 -0.4150 -0.2565 -1.8356
28006SOL     OW96076   8.117   6.732   4.963 -0.1803  0.4513  0.7243
28006SOL    HW196077   8.088   6.710   4.871  0.7966 -1.1110  0.7777
28006SOL    HW296078   8.211   6.768   4.961 -0.0848  0.2304  1.1328
28007SOL     OW96079   6.950   6.034   2.634  0.1149 -0.0965 -0.0838
28007SOL    HW196080   6.855   6.021   2.662 -0.3002  3.5335  0.3404
28007SOL    HW296081   6.966   5.985   2.548 -1.5940 -2.2276  0.7528
28008SOL     OW96082   2.259   8.727   0.165 -0.4317  0.1145 -0.1888
28008SOL    HW196083   2.344   8.685   0.134  0.2220 -0.6245  2.5364
28008SOL    HW296084   2.260   8.825   0.142  0.3296 -0.2475 -1.7872
28009SOL     OW96085   1.905   8.041   3.624  0.8208 -0.1357 -0.0634
28009SOL    HW196086   1.896   8.138   3.644 -2.0426 -0.1358 -1.1887
28009SOL    HW296087   1.939   8.029   3.531  1.5122 -0.2182  0.1976
28010SOL     OW96088   9.800   9.596   6.452 -0.3290  0.2012 -0.4098
28010SOL    HW196089   9.756   9.666   6.508 -1.0691  0.0018 -0.7379
28010SOL    HW296090   9.894   9.624   6.431 -1.8086  3.0400 -3.8609
28011SOL     OW96091   4.688   1.753   7.342 -0.3541 -0.0797  0.1236
28011SOL    HW196092   4.676   1.798   7.430  2.2195  1.6811 -0.3903
28011SOL    HW296093   4.778   1.710   7.338 -0.2287  0.3256 -1.8680
28012SOL     OW96094   4.723   8.791   2.021  0.0128 -0.3369 -0.3394
28012SOL    HW196095   4.728   8.883   2.060 -0.3304 -0.4929  0.0708
28012SOL    HW296096   4.814   8.763   1.990  0.0873  0.2077 -0.6223
28013SOL     OW96097   9.332   8.291   6.951  0.4045  0.4685 -0.3594
28013SOL    HW196098   9.358   8.252   7.040  1.1750  0.8980 -0.3888
28013SOL    HW296099   9.329   8.218   6.882  1.3141  0.3660 -0.3028
28014SOL     OW96100   4.848   2.049   2.951 -0.7843  0.4716  0.1781
28014SOL    HW196101   4.868   2.063   2.854 -2.7178  1.0591 -0.1613
28014SOL    HW296102   4.855   2.136   3.000  0.6570  0.0942  0.6774
28015SOL     OW96103   6.128   5.665   6.683  0.0012  0.1194  0.1187
28015SOL    HW196104   6.126   5.763   6.664 -1.0744  0.3569  1.3736
28015SOL    HW296105   6.151   5.650   6.779 -1.4590 -0.7684  0.3517
28016SOL     OW96106   2.377   9.723   2.721 -0.6828  0.0618 -0.9555
28016SOL    HW196107   2.285   9.719   2.760 -0.2571 -1.2043 -0.0271
28016SOL    HW296108   2.399   9.635   2.679  0.6600 -0.1368  0.1321
28017SOL     OW96109   9.351   0.402   9.694  0.0819  0.0547  0.4308
28017SOL    HW196110   9.299   0.318   9.713 -0.8364  0.2674 -1.0192
28017SOL    HW296111   9.399   0.431   9.776 -3.0221  0.4533  2.1813
28018SOL     OW96112   7.795   8.534   9.564  0.4251 -0.1145 -0.5598
28018SOL    HW196113   7.720   8.586   9.524 -0.0151  0.3429  0.8216
28018SOL    HW296114   7.765   8.440   9.582  0.2283  0.0163 -0.1827
28019SOL     OW96115   2.358   0.657   6.854  0.0962 -0.5672 -0.0091
28019SOL    HW196116   2.261   0.646   6.874  0.0498  1.7476  1.0887
28019SOL    HW296117   2.398   0.727   6.913  2.1334 -0.5080 -1.3781
28020SOL     OW96118   3.882   8.231   0.255  0.5001  0.4199 -0.2735
28020SOL    HW196119   3.814   8.299   0.228  0.2671  0.0055 -0.7373
28020SOL    HW296120   3.841   8.140   0.253  0.7085  0.3044  0.7122
28021SOL     OW96121   9.403   7.326   0.125  0.9761 -0.5138 -0.3857
28021SOL    HW196122   9.374   7.294   0.216  1.0374  0.7075  0.0764
28021SOL    HW296123   9.346   7.403   0.098  4.4428  2.6753  1.0309
28022SOL     OW96124   2.163   0.454   5.317 -0.4808 -0.5604 -0.4909
28022SOL    HW196125   2.257   0.481   5.340 -0.8727 -1.2423  2.0112
28022SOL    HW296126   2.162   0.359   5.286 -0.3318 -0.5285 -0.5945
28023SOL     OW96127   7.376   0.379   5.572  0.3934  0.3973  0.4247
28023SOL    HW196128   7.380   0.399   5.475  1.6807 -0.4202  0.2962
28023SOL    HW296129   7.396   0.462   5.624  0.7279  0.5951 -0.0230
28024SOL     OW96130   8.896   2.252   8.327  0.4751  0.4856 -0.1884
28024SOL    HW196131   8.922   2.209   8.241 -2.0675  1.9553 -1.7573
28024SOL    HW296132   8.852   2.185   8.387  1.2924 -0.3009 -0.4703
28025SOL     OW96133   7.291   7.300   6.196 -0.1222  0.1577  0.0513
28025SOL    HW196134   7.275   7.215   6.147 -0.1506 -0.0732  0.4568
28025SOL    HW296135   7.345   7.362   6.139 -0.9284  0.2498 -0.6368
28026SOL     OW96136   8.818   9.966   4.672 -0.1389 -0.1303  0.3062
28026SOL    HW196137   8.841  10.002   4.762 -0.6106 -3.1379  1.6965
28026SOL    HW296138   8.722   9.936   4.671  0.0906 -0.8764 -0.9291
28027SOL     OW96139   3.185   1.874   9.997  0.0849  0.4737 -0.1416
28027SOL    HW196140   3.120   1.950  10.000 -1.0146 -0.4849  1.2056
28027SOL    HW296141   3.146   1.795  10.044  2.2928 -0.0732  0.8578
28028SOL     OW96142   3.216   9.428   7.957 -0.3831 -0.4088 -0.0959
28028SOL    HW196143   3.308   9.404   7.986 -0.5866 -1.8025 -0.5732
28028SOL    HW296144   3.164   9.461   8.036  0.8946  1.6694 -0.0652
28029SOL     OW96145   9.824   7.510   7.077 -0.3039  0.2046  0.3987
28029SOL    HW196146   9.809   7.526   6.979 -1.1083 -0.9758  0.3233
28029SOL    HW296147   9.747   7.549   7.128 -0.1740  0.2935  0.5254
28030SOL     OW96148   9.801   9.943   3.068  0.1903 -0.5178  0.3186
28030SOL    HW196149   9.704   9.921   3.060  0.0506  0.5186 -1.0838
28030SOL    HW296150   9.831   9.925   3.161 -1.2109 -1.3994  0.6192
28031SOL     OW96151   9.830   4.134   7.521  0.2593 -0.2296 -0.2159
28031SOL    HW196152   9.911   4.081   7.547  0.3398  0.0794  0.1611
28031SOL    HW296153   9.805   4.195   7.595  0.5507  0.7309 -0.9034
28032SOL     OW96154   5.836   1.814   3.883 -0.4091  0.7710 -0.4296
28032SOL    HW196155   5.814   1.892   3.824 -1.5351  0.6778 -0.1480
28032SOL    HW296156   5.810   1.729   3.836  0.7738  0.5600 -0.7191
28033SOL     OW96157   8.974   5.644   6.440 -0.2149  0.7632  0.5348
28033SOL    HW196158   8.875   5.658   6.442 -0.7075 -2.4025  1.7663
28033SOL    HW296159   9.014   5.672   6.527 -0.3208  0.2789  0.7427
28034SOL     OW96160   9.542   4.385   3.558  0.2214 -0.6513  0.0638
28034SOL    HW196161   9.543   4.485   3.562 -0.4581 -0.5927 -1.0897
28034SOL    HW296162   9.492   4.355   3.476 -0.2582 -1.9433  0.8175
28035SOL     OW96163   8.526   9.978   5.027 -0.0408  0.6903 -0.2263
28035SOL    HW196164   8.538   9.949   5.122  2.7417  0.7860 -0.5210
28035SOL    HW296165   8.550   9.903   4.966  1.0387  1.5702 -0.8904
28036SOL     OW96166   0.800   8.290   9.446 -0.1146  0.1339  0.2839
28036SOL    HW196167   0.745   8.362   9.404 -0.0585  1.5059  2.4760
28036SOL    HW296168   0.741   8.222   9.489 -0.1275  0.2771  0.4925
28037SOL     OW96169   7.648   6.794   4.419  0.1429 -0.7320  0.0076
28037SOL    HW196170   7.687   6.705   4.396  1.3319  0.0249 -0.9598
28037SOL    HW296171   7.652   6.807   4.519 -0.5836 -1.9898  0.2106
28038SOL     OW96172   1.857   7.948   0.655  0.2838 -0.1051  0.2751
28038SOL    HW196173   1.829   7.936   0.559  0.8940  1.1235 -0.0735
28038SOL    HW296174   1.828   8.038   0.686 -0.1853 -0.6275  1.3549
28039SOL     OW96175   2.707   7.783   3.152  0.5068  0.7158 -0.2951
28039SOL    HW196176   2.676   7.721   3.224  2.1419 -0.2837 -0.4268
28039SOL    HW296177   2.733   7.870   3.192 -1.0110  1.0628 -0.0089
28040SOL     OW96178   8.165   7.019   4.509  1.1370  0.0495 -0.1581
28040SOL    HW196179   8.173   6.936   4.453  0.2240  0.1378 -0.4359
28040SOL    HW296180   8.252   7.038   4.553  0.8211 -2.2244  1.5833
28041SOL     OW96181   1.303   6.211   6.936  0.1057 -0.0796  0.4905
28041SOL    HW196182   1.299   6.213   6.837 -1.5578  2.2993  0.5402
28041SOL    HW296183   1.366   6.281   6.969  1.0958 -1.2427  1.1176
28042SOL     OW96184   9.880   8.727   0.460 -0.0249 -0.7357  0.0801
28042SOL    HW196185   9.790   8.683   0.458 -1.3774  1.8012  1.8051
28042SOL    HW296186   9.918   8.720   0.552  1.7989 -2.2152 -0.7639
28043SOL     OW96187   6.708   9.968   8.179 -0.1218  0.5942  0.1450
28043SOL    HW196188   6.658   9.925   8.253  0.1418 -0.5996 -0.3650
28043SOL    HW296189   6.659   9.954   8.093 -1.7836  4.1764  0.4091
28044SOL     OW96190   5.411   9.894   9.669  0.0990 -0.0255 -0.1751
28044SOL    HW196191   5.319   9.877   9.634  0.2547 -0.6395 -0.3021
28044SOL    HW296192   5.444   9.811   9.715  1.3489 -0.4633 -1.8079
28045SOL     OW96193   8.585   9.990   4.426 -0.1164  0.2934  0.1838
28045SOL    HW196194   8.567  10.065   4.490  0.0213 -0.9106  1.6620
28045SOL    HW296195   8.678   9.998   4.391  0.4949 -0.1489  1.6707
28046SOL     OW96196   6.696   7.453   8.321  0.3757 -0.0459  0.1704
28046SOL    HW196197   6.787   7.431   8.285 -0.1218  0.7594 -1.6289
28046SOL    HW296198   6.637   7.373   8.313 -0.2765  0.6798 -2.6171
28047SOL     OW96199   9.084   8.321   7.374 -0.4700  0.1605  0.4994
28047SOL    HW196200   9.110   8.225   7.384  1.7579  0.9173  2.3986
28047SOL    HW296201   8.988   8.332   7.400 -0.6235 -1.4865  0.6811
28048SOL     OW96202   7.511   7.933   7.728  0.2006 -0.5357 -0.1671
28048SOL    HW196203   7.437   7.990   7.762  1.3107 -0.0738  1.5424
28048SOL    HW296204   7.578   7.989   7.679 -0.7720 -1.0163 -2.1005
28049SOL     OW96205   1.172   1.822   4.857  0.0633 -0.0948  0.3635
28049SOL    HW196206   1.173   1.722   4.862 -1.5103 -0.3004 -2.1620
28049SOL    HW296207   1.243   1.853   4.793  1.5428  0.5221  2.2718
28050SOL     OW96208   7.434   9.816   8.268 -0.0998 -0.0618 -0.6332
28050SOL    HW196209   7.436   9.916   8.274 -1.2778 -0.0429 -0.5133
28050SOL    HW296210   7.355   9.786   8.216 -0.4116 -0.9768  0.3265
28051SOL     OW96211   9.212   1.999   1.551 -0.4219 -0.2582  0.2039
28051SOL    HW196212   9.195   2.087   1.596 -0.1869 -0.1784  0.1321
28051SOL    HW296213   9.310   1.985   1.540 -0.4727 -0.3709 -0.1049
28052SOL     OW96214   3.683   6.503   9.565 -0.0248 -0.3889  0.1437
28052SOL    HW196215   3.637   6.445   9.632 -0.0534 -0.5467 -0.0109
28052SOL    HW296216   3.620   6.576   9.535 -0.1786 -0.6103 -0.0754
28053SOL     OW96217   7.852   6.377   5.157  0.1665  0.3467 -0.1217
28053SOL    HW196218   7.894   6.401   5.070 -0.0293 -0.4013 -0.4201
28053SOL    HW296219   7.846   6.459   5.214 -0.4916  1.0144 -1.1355
28054SOL     OW96220   7.719   0.629   0.678  0.1365 -0.2467  0.1829
28054SOL    HW196221   7.644   0.562   0.684  0.9163 -1.1239  0.2608
28054SOL    HW296222   7.681   0.720   0.662 -0.9212 -0.7787 -0.4012
28055SOL     OW96223   0.445   0.674   5.354  0.1312 -0.2992  0.1565
28055SOL    HW196224   0.491   0.588   5.379 -1.3806 -1.2296 -0.2115
28055SOL    HW296225   0.401   0.713   5.435 -2.6331 -2.0085 -0.4717
28056SOL     OW96226   8.579   9.378   5.816  0.3293  0.2908 -0.6553
28056SOL    HW196227   8.556   9.281   5.812  0.7315  0.1536  0.2079
28056SOL    HW296228   8.656   9.391   5.878 -0.7967  1.3510  0.5621
28057SOL     OW96229   9.786   3.307   8.891  0.0326 -0.3087 -0.7855
28057SOL    HW196230   9.713   3.243   8.867 -0.3467  0.7550 -2.5729
28057SOL    HW296231   9.748   3.399   8.905  0.9052  0.0883 -0.9205
28058SOL     OW96232   5.379   8.839   8.381  0.1964 -0.1515 -0.5078
28058SOL    HW196233   5.341   8.929   8.400 -1.0467 -0.6664 -0.5081
28058SOL    HW296234   5.368   8.781   8.462  1.5956 -0.1122 -0.2715
28059SOL     OW96235   2.670   9.315   6.407 -0.2780  0.5446  0.4096
28059SOL    HW196236   2.615   9.346   6.485  0.3310  0.4723  0.8758
28059SOL    HW296237   2.762   9.355   6.413  0.1339 -0.3721  0.3606
28060SOL     OW96238   2.332   1.282   9.036  0.0565  0.2803 -0.0386
28060SOL    HW196239   2.374   1.339   9.106  0.3499 -1.2727  1.0653
28060SOL    HW296240   2.340   1.328   8.947  2.4656  0.8595  0.4312
28061SOL     OW96241   1.128   3.149   6.304  0.5612  0.1888  0.2289
28061SOL    HW196242   1.166   3.057   6.311 -0.0052 -0.0508  0.1503
28061SOL    HW296243   1.112   3.172   6.208  1.3789  0.6504  0.1926
28062SOL     OW96244   9.101   6.996   8.050 -0.6866  0.3073  0.5004
28062SOL    HW196245   9.051   6.985   7.964  0.0361 -0.9549  0.2370
28062SOL    HW296246   9.143   7.087   8.052 -0.6885  0.3360 -0.5002
28063SOL     OW96247   9.173   8.182   6.579 -0.0318 -0.1081 -0.1015
28063SOL    HW196248   9.096   8.242   6.600 -0.9723 -1.1159 -0.6567
28063SOL    HW296249   9.236   8.229   6.517  0.2384  1.0295  1.0108
28064SOL     OW96250   7.289   9.721   6.789 -0.1272  0.1757  0.2986
28064SOL    HW196251   7.240   9.716   6.876 -1.2736  0.9093 -0.2888
28064SOL    HW296252   7.280   9.634   6.741 -0.9227  0.3233  0.1709
28065SOL     OW96253   7.536   2.963   0.652 -0.0186  0.0605  0.0483
28065SOL    HW196254   7.558   3.036   0.588  0.0277 -1.0018 -1.1898
28065SOL    HW296255   7.531   2.876   0.602  1.1029 -0.9598  1.6812
28066SOL     OW96256   2.622   0.507   4.014 -0.1243 -0.6210 -0.3654
28066SOL    HW196257   2.617   0.607   4.016  0.2355 -0.6090  0.3298
28066SOL    HW296258   2.531   0.469   3.998 -0.6238 -0.2264  1.4508
28067SOL     OW96259   7.182   6.416   1.616 -0.0860 -0.1606  0.4627
28067SOL    HW196260   7.155   6.364   1.697 -0.0740  1.1290  1.2927
28067SOL    HW296261   7.121   6.495   1.605  0.7611  0.4320 -0.0156
28068SOL     OW96262   5.161   5.281   5.935 -0.1653  0.2044 -0.0187
28068SOL    HW196263   5.237   5.328   5.980  1.3020 -3.0291  1.0629
28068SOL    HW296264   5.189   5.255   5.843 -0.3251 -0.1165  0.0261
28069SOL     OW96265   8.434   9.889   6.813 -0.6785  0.4898 -0.9727
28069SOL    HW196266   8.405   9.977   6.849  0.5935  0.7758 -0.6379
28069SOL    HW296267   8.526   9.867   6.846 -0.4210 -0.3076 -2.1707
28070SOL     OW96268   9.099   5.356   3.465 -0.0464 -0.6616  0.2768
28070SOL    HW196269   9.117   5.318   3.375  0.1687 -0.1716  0.1130
28070SOL    HW296270   9.052   5.287   3.521  1.2277 -1.5253  0.3146
28071SOL     OW96271   6.837   6.086   9.023 -0.2972 -0.4506 -0.1086
28071SOL    HW196272   6.789   6.106   9.108  0.3305  1.5144 -0.1939
28071SOL    HW296273   6.936   6.082   9.041 -0.2089 -0.6166 -0.6265
28072SOL     OW96274   7.987   6.151   8.312  0.0554  0.0349  0.0386
28072SOL    HW196275   7.942   6.154   8.223 -1.2807  2.3184  0.7665
28072SOL    HW296276   7.972   6.060   8.353 -0.5550 -0.5341 -1.4077
28073SOL     OW96277   6.355   8.509   0.863  0.3008 -0.1310  0.2007
28073SOL    HW196278   6.285   8.504   0.792  3.0341  0.5040 -2.6910
28073SOL    HW296279   6.318   8.553   0.945 -2.8287 -0.4993 -0.9707
28074SOL     OW96280   4.528   1.329   2.185 -0.0841  0.0212 -0.0494
28074SOL    HW196281   4.573   1.319   2.273  0.1173 -0.6161 -0.2223
28074SOL    HW296282   4.429   1.324   2.198 -0.0296 -0.9051  0.0395
28075SOL     OW96283   8.719   3.121   4.113 -0.6174 -0.4135  0.2554
28075SOL    HW196284   8.785   3.054   4.080  0.2458 -0.6042  2.2460
28075SOL    HW296285   8.662   3.152   4.038  1.8971 -0.0567 -1.5810
28076SOL     OW96286   9.058   7.330   8.941 -0.2736 -0.2808  0.0965
28076SOL    HW196287   9.142   7.382   8.924 -1.2301  0.5579 -2.2990
28076SOL    HW296288   8.979   7.389   8.925 -1.3475 -1.4294  1.0609
28077SOL     OW96289   2.415   7.652   4.977  0.0920 -0.2789 -0.5372
28077SOL    HW196290   2.354   7.614   5.046 -0.5557  0.5554 -0.6313
28077SOL    HW296291   2.374   7.736   4.939  0.2110 -0.9782 -2.2709
28078SOL     OW96292   2.267   7.869   7.058  0.6296  0.7202  0.3659
28078SOL    HW196293   2.172   7.898   7.043  0.1676 -0.9145  0.0513
28078SOL    HW296294   2.319   7.883   6.974  0.8611  2.2826  0.7484
28079SOL     OW96295   1.945   3.093   8.645 -0.1397  0.3512  0.4403
28079SOL    HW196296   2.014   3.160   8.620 -0.1002  0.4359  0.7795
28079SOL    HW296297   1.863   3.140   8.679  0.7346  0.1637  2.8399
28080SOL     OW96298   8.932   7.834   7.223  0.0463 -0.4250 -0.1556
28080SOL    HW196299   8.954   7.926   7.192  2.0912 -0.9839 -0.4147
28080SOL    HW296300   8.925   7.833   7.323 -0.2757  0.0589 -0.1711
28081SOL     OW96301   9.529   0.668   8.868  0.2646 -0.0024 -0.1822
28081SOL    HW196302   9.620   0.663   8.825  0.7939  1.7165  0.6951
28081SOL    HW296303   9.532   0.732   8.945 -1.8623  0.5637 -0.5430
28082SOL     OW96304   5.814   4.937   0.953  0.1370  0.3747  0.4421
28082SOL    HW196305   5.905   4.969   0.929  0.0619  0.4916  0.3085
28082SOL    HW296306   5.759   5.014   0.984  0.4520  0.1028  1.6783
28083SOL     OW96307   4.554   8.651   4.325 -0.4574 -0.5918  0.5514
28083SOL    HW196308   4.561   8.677   4.421  3.2846  1.3389 -0.1790
28083SOL    HW296309   4.484   8.708   4.281 -1.2660 -0.5817  1.8121
28084SOL     OW96310   0.991   9.511   7.665 -0.0173 -0.0389 -0.7727
28084SOL    HW196311   1.028   9.452   7.593  2.4932  2.2226 -1.4573
28084SOL    HW296312   1.014   9.473   7.754 -0.1415 -1.1119 -1.1918
28085SOL     OW96313   4.381   7.388   5.120 -0.4139 -0.3740 -0.0492
28085SOL    HW196314   4.442   7.359   5.046 -0.4357  1.2833 -0.7381
28085SOL    HW296315   4.432   7.395   5.205  0.2988  0.6931 -0.5561
28086SOL     OW96316   3.565   7.056   9.204  0.3825 -0.2911  0.0404
28086SOL    HW196317   3.562   7.045   9.303 -0.4910  1.0330  0.1755
28086SOL    HW296318   3.661   7.058   9.174  0.6294 -2.6725  0.5966
28087SOL     OW96319   0.557   3.862   5.806 -0.0506  0.4984  0.0738
28087SOL    HW196320   0.594   3.878   5.897 -0.4321  0.4514  0.2393
28087SOL    HW296321   0.458   3.878   5.806 -0.2811 -0.8042  0.0032
28088SOL     OW96322   1.128   7.488   6.129  0.1930  0.2996  0.1497
28088SOL    HW196323   1.056   7.550   6.161 -2.0690 -1.4211 -1.4341
28088SOL    HW296324   1.166   7.523   6.044  0.2070  0.4370  0.2115
28089SOL     OW96325   5.474   7.745   9.044  0.4251  0.1101  0.4303
28089SOL    HW196326   5.538   7.815   9.075  1.2616 -0.3950 -0.1239
28089SOL    HW296327   5.425   7.778   8.963 -1.4023  1.2340  1.9658
28090SOL     OW96328   9.208   4.635   6.548 -0.5068 -0.7744  0.4008
28090SOL    HW196329   9.256   4.718   6.522  1.3450 -1.7499  0.6028
28090SOL    HW296330   9.116   4.658   6.580  0.3128  1.2878  1.3600
28091SOL     OW96331   1.986   8.884   3.359  0.4513  0.1664 -0.4410
28091SOL    HW196332   2.030   8.930   3.282  2.0581  0.5028  0.6397
28091SOL    HW296333   1.889   8.871   3.339  0.5060  1.6857 -1.8496
28092SOL     OW96334   8.828   4.137   6.327  0.0751 -0.4143 -0.5258
28092SOL    HW196335   8.787   4.159   6.238  0.8015 -1.7603 -1.2233
28092SOL    HW296336   8.926   4.122   6.315 -0.0415 -1.9327  0.2483
28093SOL     OW96337   5.614   1.686   1.159 -0.1582  0.2235 -0.2963
28093SOL    HW196338   5.618   1.627   1.078  1.4938  0.4811 -0.4235
28093SOL    HW296339   5.695   1.745   1.161  0.1028 -0.1780  1.8369
28094SOL     OW96340   0.213   1.086   7.287 -0.5881 -0.1334  0.0776
28094SOL    HW196341   0.223   1.092   7.188 -2.2633 -0.5062 -0.1369
28094SOL    HW296342   0.156   1.162   7.319 -2.5949 -1.7051  0.3384
28095SOL     OW96343   3.150   6.107   8.652 -0.2958 -0.0889 -0.4267
28095SOL    HW196344   3.089   6.035   8.620  0.8737 -2.1805  1.8587
28095SOL    HW296345   3.245   6.081   8.634  0.3594 -0.8922  3.5775
28096SOL     OW96346   0.076   6.317   6.327 -0.2911  0.2576  0.0157
28096SOL    HW196347   0.055   6.348   6.420 -1.3084 -0.2433 -0.0401
28096SOL    HW296348   0.174   6.301   6.318 -0.3191 -0.7017  1.3178
28097SOL     OW96349   2.337   0.801   6.531 -0.1666 -0.1086  0.0140
28097SOL    HW196350   2.403   0.754   6.590 -0.9152 -1.9760 -0.5965
28097SOL    HW296351   2.247   0.760   6.542 -1.1541  2.0771  0.4441
28098SOL     OW96352   4.627   8.682   5.583 -0.5668 -0.7112  0.0558
28098SOL    HW196353   4.611   8.780   5.587 -0.8373 -0.8099  1.5256
28098SOL    HW296354   4.708   8.664   5.528 -1.9545  0.1640 -2.3594
28099SOL     OW96355   2.143   4.782   1.182  0.2069  0.3622  0.3545
28099SOL    HW196356   2.058   4.834   1.186  0.8214  1.3198  1.2615
28099SOL    HW296357   2.215   4.839   1.142  0.3009 -0.6337 -0.9401
28100SOL     OW96358   9.995   2.395   9.704 -0.0870  0.4150  0.1684
28100SOL    HW196359  10.068   2.446   9.657  1.7998 -0.2502  2.3144
28100SOL    HW296360   9.916   2.455   9.716  0.1778  1.2414 -1.9267
28101SOL     OW96361   1.913   6.036   5.120 -0.2657  0.5570  0.2237
28101SOL    HW196362   1.992   6.087   5.155  0.5686  1.2704 -2.5890
28101SOL    HW296363   1.908   6.046   5.021 -3.1715 -0.5627  0.2157
28102SOL     OW96364   0.600   3.019   8.272 -0.4876 -0.4880  0.2891
28102SOL    HW196365   0.629   2.988   8.362  2.8023  1.6899  0.0585
28102SOL    HW296366   0.582   3.118   8.275 -0.4564 -0.4206 -1.3982
28103SOL     OW96367   8.689   8.503   8.366 -0.3777  0.3369 -0.0182
28103SOL    HW196368   8.705   8.543   8.276  0.2296  2.1929  0.8926
28103SOL    HW296369   8.777   8.488   8.412 -0.4953 -3.0509 -0.7146
28104SOL     OW96370   5.285   4.586   5.070 -0.0831  0.0905  0.2411
28104SOL    HW196371   5.278   4.666   5.010  0.1042 -0.2578 -0.2496
28104SOL    HW296372   5.359   4.526   5.038 -0.0450 -0.1442  0.7639
28105SOL     OW96373   2.358   5.248   6.158 -0.7507  0.5375 -0.3299
28105SOL    HW196374   2.334   5.233   6.254  0.8766  0.1195  0.0307
28105SOL    HW296375   2.425   5.322   6.152 -1.1562  0.8396 -1.1886
28106SOL     OW96376   0.064   5.912   9.684  0.1278  0.3432  0.0859
28106SOL    HW196377   0.075   5.852   9.763 -1.6298 -2.4283 -1.7026
28106SOL    HW296378  -0.032   5.939   9.677  0.0863 -0.2816 -1.7302
28107SOL     OW96379   2.731   1.545   7.586  0.2833 -0.2879 -0.2763
28107SOL    HW196380   2.692   1.505   7.503 -1.7271  0.6873  0.1958
28107SOL    HW296381   2.664   1.544   7.659  0.6135  2.7844  0.1315
28108SOL     OW96382   9.575   7.950   0.535 -0.5746  0.2205 -0.0138
28108SOL    HW196383   9.647   7.913   0.476 -0.5944 -0.3815  0.3338
28108SOL    HW296384   9.513   8.006   0.481  0.4688  1.2050 -0.2224
28109SOL     OW96385   3.860   0.869   7.037 -0.5294  0.0655  0.3875
28109SOL    HW196386   3.891   0.784   7.079  0.0389  0.5287  0.9187
28109SOL    HW296387   3.786   0.909   7.091  0.3293  0.7584  1.0655
28110SOL     OW96388   3.012   8.194   5.687 -0.2494  0.2712  0.4362
28110SOL    HW196389   3.101   8.155   5.713 -0.1133 -0.0578 -0.4855
28110SOL    HW296390   2.947   8.181   5.761  0.1067 -0.7241  0.5870
28111SOL     OW96391   6.813   8.167   8.515  0.4981  0.3187 -0.1576
28111SOL    HW196392   6.821   8.264   8.494 -1.9635  0.6618  0.3315
28111SOL    HW296393   6.772   8.155   8.606 -1.0178 -1.1592 -0.9964
28112SOL     OW96394   0.465   7.943   7.690  0.0372  0.0547 -0.3454
28112SOL    HW196395   0.366   7.952   7.693  0.0934  0.6155 -0.0783
28112SOL    HW296396   0.505   7.986   7.771  0.4836 -0.3840 -0.3292
28113SOL     OW96397   2.741   1.623   9.947 -0.2525  0.1309  0.1927
28113SOL    HW196398   2.652   1.589   9.979  0.5144 -0.4559  1.7963
28113SOL    HW296399   2.782   1.555   9.886 -0.3355 -0.1841  0.4852
28114SOL     OW96400   1.575   8.256   7.001  0.0239 -0.7835 -0.4090
28114SOL    HW196401   1.610   8.230   6.911  0.9333  0.2318 -0.3583
28114SOL    HW296402   1.511   8.333   6.990  1.3402  0.3708 -0.0297
28115SOL     OW96403   8.694   3.226   1.602  0.1832  0.4777 -0.2434
28115SOL    HW196404   8.784   3.233   1.558  0.1852 -0.6649 -0.4257
28115SOL    HW296405   8.700   3.165   1.681 -0.4729  0.2432 -0.3680
28116SOL     OW96406   2.368   3.276   6.826 -0.1803  0.1704 -0.7681
28116SOL    HW196407   2.332   3.367   6.807  0.9831  0.7615 -0.2202
28116SOL    HW296408   2.462   3.269   6.792  0.1966 -0.3868  0.3483
28117SOL     OW96409   9.520   0.323   8.341 -0.1019  0.0718 -0.3341
28117SOL    HW196410   9.499   0.420   8.358  0.4342  0.1028  0.1668
28117SOL    HW296411   9.480   0.268   8.414  0.6073  0.0295  0.0272
28118SOL     OW96412   9.087   7.045   9.957 -0.1656 -0.0306  0.3927
28118SOL    HW196413   9.152   7.023   9.885 -1.1966 -1.0499 -0.2463
28118SOL    HW296414   9.130   7.032  10.047  0.2562 -1.4721 -0.0147
28119SOL     OW96415   1.306   9.863   9.648 -0.0646  0.3913 -0.0771
28119SOL    HW196416   1.224   9.894   9.696  0.2117  1.4960 -0.3103
28119SOL    HW296417   1.324   9.921   9.569  1.7497  1.0708  0.7911
28120SOL     OW96418   3.658   8.240   9.427  0.5467 -0.0265 -0.0146
28120SOL    HW196419   3.714   8.234   9.344 -0.9611 -2.0083 -0.9255
28120SOL    HW296420   3.585   8.308   9.413  0.2486 -0.4118 -0.3486
28121SOL     OW96421   1.180   5.803   8.463  0.4657 -0.6680 -0.0218
28121SOL    HW196422   1.123   5.853   8.399  0.9140  0.1999  0.2511
28121SOL    HW296423   1.232   5.733   8.413 -0.8989 -1.5414 -0.2507
28122SOL     OW96424   7.570   8.071   6.569 -0.1702 -0.7031  0.1849
28122SOL    HW196425   7.649   8.022   6.606 -0.3780 -0.2395  1.2770
28122SOL    HW296426   7.488   8.047   6.621 -0.0730  1.6556  1.5095
28123SOL     OW96427   3.432   1.629   5.984 -0.3002  0.0742  0.1696
28123SOL    HW196428   3.479   1.688   5.918  2.5939 -0.7790  1.3968
28123SOL    HW296429   3.364   1.574   5.936  0.3142  0.9422 -1.7668
28124SOL     OW96430   3.708   8.319   1.089 -0.4411  0.1855  0.2524
28124SOL    HW196431   3.669   8.407   1.062  0.1600  0.2529 -0.4119
28124SOL    HW296432   3.750   8.328   1.179 -0.9713  0.4036  0.4769
28125SOL     OW96433   9.010   5.538   4.848  0.0463 -0.0458 -0.0675
28125SOL    HW196434   9.104   5.572   4.837  0.2743 -0.1421  1.4864
28125SOL    HW296435   8.953   5.573   4.774  1.5275 -0.7795 -1.5965
28126SOL     OW96436   0.578   9.267   0.582  0.7646  0.4751  0.1604
28126SOL    HW196437   0.666   9.310   0.562  1.2309  0.2568  1.7364
28126SOL    HW296438   0.588   9.168   0.578 -0.1351  0.4514 -2.6956
28127SOL     OW96439   8.138   0.730   4.479 -0.2073 -0.3951  0.6961
28127SOL    HW196440   8.169   0.640   4.507  1.2657 -0.9482 -2.5490
28127SOL    HW296441   8.136   0.736   4.379 -0.1534  3.1983  0.8357
28128SOL     OW96442   0.327   8.198   9.919  0.2301  0.3748  0.0229
28128SOL    HW196443   0.248   8.165   9.867  1.0922 -0.0373 -1.0541
28128SOL    HW296444   0.390   8.122   9.933  1.0524  1.0011 -0.2694
28129SOL     OW96445   6.263   0.807   6.095  1.1482  0.2041  0.6061
28129SOL    HW196446   6.231   0.811   6.001  2.1803 -0.4470  0.2117
28129SOL    HW296447   6.191   0.770   6.154  0.4176  0.8488  0.1135
28130SOL     OW96448   0.156   7.975   7.724 -0.1672  0.1634  0.0841
28130SOL    HW196449   0.167   8.060   7.775 -0.0397 -1.9797  3.8504
28130SOL    HW296450   0.058   7.959   7.706 -0.2619  0.7012  0.1266
28131SOL     OW96451   9.981   0.430   2.033  0.2773  0.2400 -0.4207
28131SOL    HW196452   9.933   0.400   1.951 -0.0109  0.8477 -0.4766
28131SOL    HW296453   9.915   0.462   2.101  0.4842 -0.6728  0.2194
28132SOL     OW96454   9.542   6.481   8.924 -0.0493  0.1021  0.0198
28132SOL    HW196455   9.454   6.437   8.943 -0.1065  0.5904  0.9218
28132SOL    HW296456   9.600   6.419   8.872 -0.2658 -0.9160  0.9691
28133SOL     OW96457   4.667   3.379   7.312  0.0931  0.3581 -0.5757
28133SOL    HW196458   4.710   3.413   7.396 -0.0463 -0.4193 -0.1888
28133SOL    HW296459   4.669   3.451   7.243  1.1998  0.6317 -0.2695
28134SOL     OW96460   0.241   7.556   7.534  0.3777 -0.5580  0.1481
28134SOL    HW196461   0.210   7.466   7.503  0.2871 -0.6273  0.4356
28134SOL    HW296462   0.188   7.584   7.614  1.5091 -0.9883  1.0739
28135SOL     OW96463   2.527   7.457   0.983 -0.1170  0.1480 -0.3322
28135SOL    HW196464   2.460   7.396   0.941 -1.2857  0.8162  0.5359
28135SOL    HW296465   2.560   7.418   1.068 -0.4284  0.4451 -0.0724
28136SOL     OW96466   0.460   8.184   0.948  0.1285 -0.2396 -0.3154
28136SOL    HW196467   0.500   8.158   1.036 -1.4433 -0.1717  0.4448
28136SOL    HW296468   0.428   8.101   0.901 -3.2026  0.0407  1.2792
28137SOL     OW96469   6.817   6.970   9.885 -0.0401  0.5851 -0.1960
28137SOL    HW196470   6.899   7.028   9.886 -0.3330  1.0023 -0.3240
28137SOL    HW296471   6.830   6.893   9.947 -0.2826  1.6562  1.2089
28138SOL     OW96472   9.652   7.343   0.747 -0.1220 -0.3398  0.5929
28138SOL    HW196473   9.739   7.315   0.788  0.4118  1.8453  0.9953
28138SOL    HW296474   9.577   7.318   0.809  0.2606 -1.6155  0.5564
28139SOL     OW96475   2.416   8.882   9.406 -0.2643  0.2697 -0.1265
28139SOL    HW196476   2.497   8.842   9.363 -0.4326 -0.9343  0.6787
28139SOL    HW296477   2.411   8.854   9.501 -0.5065  2.0208  0.3986
28140SOL     OW96478   5.087   3.546   8.943 -0.1243  0.1283  0.3325
28140SOL    HW196479   4.991   3.524   8.957  0.0614 -1.0350 -0.2226
28140SOL    HW296480   5.096   3.615   8.871 -0.5789  0.6816  0.8056
28141SOL     OW96481   6.157   7.747   0.463  0.1620 -0.5105  0.8665
28141SOL    HW196482   6.212   7.826   0.436  1.5797 -2.1497 -1.1870
28141SOL    HW296483   6.068   7.750   0.416  0.2607 -0.1946  0.7032
28142SOL     OW96484   6.736   5.791   7.809 -0.1498  0.4262  0.0358
28142SOL    HW196485   6.814   5.767   7.868  0.6250 -0.0993 -1.1762
28142SOL    HW296486   6.769   5.814   7.718 -1.5560 -1.7792 -1.0756
28143SOL     OW96487   5.909   6.391   7.656  0.0979 -0.0052  0.3998
28143SOL    HW196488   5.838   6.435   7.710  1.0487  1.7010  0.2883
28143SOL    HW296489   5.878   6.384   7.560  0.4863  1.6480  0.1533
28144SOL     OW96490   3.656   9.887   8.190 -0.1929  0.2251  0.2907
28144SOL    HW196491   3.642   9.986   8.201 -0.7150  0.1752  0.0387
28144SOL    HW296492   3.708   9.870   8.106  1.7646  0.4338  1.4135
28145SOL     OW96493   2.351   3.337   1.244 -0.0707 -0.5619  0.1384
28145SOL    HW196494   2.339   3.433   1.219  0.9786 -0.6627 -0.7806
28145SOL    HW296495   2.324   3.279   1.167  0.3961 -0.9652  0.2799
28146SOL     OW96496   7.557   4.098   2.212 -0.6591  0.4297  0.1476
28146SOL    HW196497   7.607   4.055   2.137 -0.0483 -2.6517  2.2288
28146SOL    HW296498   7.601   4.184   2.237  1.6491 -0.6030 -0.2636
28147SOL     OW96499   2.447   5.274   7.141 -0.1346 -0.2629 -0.3608
28147SOL    HW196500   2.371   5.338   7.155  0.2485  0.0379  0.3765
28147SOL    HW296501   2.531   5.326   7.126  0.2884 -0.5964  0.8612
28148SOL     OW96502   6.637   2.381   7.994  0.2001 -0.0691 -1.1035
28148SOL    HW196503   6.675   2.296   7.958  0.8004  0.1377 -0.9625
28148SOL    HW296504   6.710   2.434   8.038 -0.6529 -0.6794  1.1286
28149SOL     OW96505   6.362   1.025   9.939  0.5266 -0.1026 -0.4201
28149SOL    HW196506   6.280   0.977   9.971  1.2015 -2.8662 -2.6327
28149SOL    HW296507   6.437   1.009  10.002  0.6094 -1.5771 -0.8811
28150SOL     OW96508   0.528   8.785   7.963 -0.7140 -0.1991  0.5026
28150SOL    HW196509   0.597   8.713   7.964  0.3182  0.7060 -1.8480
28150SOL    HW296510   0.562   8.864   8.014 -0.1497  0.1055 -0.3289
28151SOL     OW96511   3.768   9.001   0.986 -0.3793 -0.1486 -0.2174
28151SOL    HW196512   3.695   9.067   1.002 -0.4041 -0.0211 -0.8379
28151SOL    HW296513   3.786   8.950   1.070 -0.9135  0.0904  0.0451
28152SOL     OW96514   8.261   6.003   5.653 -0.7397  0.0057 -0.1835
28152SOL    HW196515   8.255   6.032   5.748  0.4016  0.1409 -0.1383
28152SOL    HW296516   8.229   6.077   5.594  1.2231  1.0197 -0.0210
28153SOL     OW96517   0.169   0.936   9.483  0.6072  0.4790  0.4379
28153SOL    HW196518   0.175   0.883   9.399 -1.9164  1.2268 -0.2640
28153SOL    HW296519   0.200   0.880   9.560  1.6821 -0.6515 -0.7926
28154SOL     OW96520   3.737   4.370   8.256  0.3447 -0.2686  0.1717
28154SOL    HW196521   3.812   4.344   8.317 -1.2941  0.0118  2.3393
28154SOL    HW296522   3.702   4.459   8.282 -0.9423 -0.5285 -0.6337
28155SOL     OW96523   1.391   8.672   6.646 -0.2490 -0.2001  0.6172
28155SOL    HW196524   1.367   8.632   6.735 -1.3604  1.6134  1.1640
28155SOL    HW296525   1.318   8.734   6.617  0.5002 -0.1246 -1.1854
28156SOL     OW96526   0.958   9.382   8.357 -0.0075  0.4206  0.2471
28156SOL    HW196527   1.045   9.421   8.386  0.5286  0.2102 -1.0352
28156SOL    HW296528   0.900   9.453   8.317 -0.3633  0.5315  0.9599
28157SOL     OW96529   7.796   7.688   8.306 -0.4113  0.0042 -0.0933
28157SOL    HW196530   7.779   7.782   8.335 -1.1393 -0.2685  0.3868
28157SOL    HW296531   7.891   7.662   8.326  0.1817  1.0767 -1.4616
28158SOL     OW96532   7.422   5.947   7.770  0.3960  0.2710 -0.4761
28158SOL    HW196533   7.429   6.002   7.687 -0.5157 -0.2858 -0.9272
28158SOL    HW296534   7.464   5.857   7.753 -2.6946 -1.0768 -1.4365
28159SOL     OW96535   6.477   7.280   8.016 -0.1720 -0.0642  0.2400
28159SOL    HW196536   6.529   7.360   7.987  0.8328 -0.9155 -0.3529
28159SOL    HW296537   6.421   7.247   7.940 -3.3377  2.1507  1.4935
28160SOL     OW96538   9.173   3.281   3.029 -0.3323 -0.3548  0.0293
28160SOL    HW196539   9.259   3.325   3.004 -1.1142  1.1571 -0.0022
28160SOL    HW296540   9.115   3.271   2.947  0.3149 -2.5615 -0.2116
28161SOL     OW96541   1.582   8.461   8.242  0.5743  0.0127 -0.3194
28161SOL    HW196542   1.589   8.530   8.171  0.5712 -0.7373 -1.0627
28161SOL    HW296543   1.506   8.484   8.304 -0.5457 -0.2328 -1.5764
28162SOL     OW96544   3.093   8.856   7.075 -0.0485 -0.6428 -0.4948
28162SOL    HW196545   2.997   8.829   7.075 -0.2593  0.0418  1.8824
28162SOL    HW296546   3.147   8.789   7.127  0.5984 -0.4625 -0.9236
28163SOL     OW96547   3.151   0.787   3.919 -0.2262 -0.0298  0.4174
28163SOL    HW196548   3.130   0.793   3.821  0.8445 -2.0118  0.0390
28163SOL    HW296549   3.083   0.731   3.964  0.7727 -1.3543  0.3038
28164SOL     OW96550   8.024   1.112   0.823 -0.0738 -0.1509  0.2190
28164SOL    HW196551   7.948   1.064   0.866  0.7444 -0.6284  1.1762
28164SOL    HW296552   8.029   1.089   0.726  0.5524 -2.3533  0.7406
28165SOL     OW96553   0.651   7.665   7.480  0.3291  0.0841 -0.0441
28165SOL    HW196554   0.667   7.665   7.579  1.1459 -0.3059 -0.1704
28165SOL    HW296555   0.640   7.760   7.449  0.0123  0.2048  0.4294
28166SOL     OW96556   9.570   5.529   8.608  0.0212  0.1958  0.4341
28166SOL    HW196557   9.628   5.570   8.537  0.7736 -1.8196 -0.1466
28166SOL    HW296558   9.564   5.592   8.686  1.5015  1.2152 -0.2357
28167SOL     OW96559   8.094   2.189   6.691 -0.0862 -0.1491  0.0900
28167SOL    HW196560   8.157   2.218   6.619  1.9841 -1.8062  1.1490
28167SOL    HW296561   8.041   2.111   6.659 -0.0788 -0.0796 -0.0929
28168SOL     OW96562   1.997   0.597   0.299 -0.5409  0.3943  0.2021
28168SOL    HW196563   1.968   0.540   0.222 -2.5801  1.6537  0.0128
28168SOL    HW296564   1.964   0.558   0.385 -1.1567  0.7904  0.1481
28169SOL     OW96565   6.699   0.863   9.369 -0.2032 -0.0191 -0.5217
28169SOL    HW196566   6.744   0.776   9.389 -0.1199 -0.1446 -1.2632
28169SOL    HW296567   6.754   0.916   9.304 -0.1136  0.7092  0.1393
28170SOL     OW96568   6.509   0.130   8.705  0.3937  0.3338  0.0498
28170SOL    HW196569   6.543   0.100   8.616  0.5327  1.5377 -0.3068
28170SOL    HW296570   6.410   0.144   8.700  0.0908 -1.3717  0.5954
28171SOL     OW96571   2.771   6.078   9.040  0.0308 -0.0631 -0.2947
28171SOL    HW196572   2.807   6.089   9.132 -1.0940 -2.1514  0.4326
28171SOL    HW296573   2.810   6.148   8.980  1.4080  0.7993  1.5665
28172SOL     OW96574   6.876   9.986   0.550  0.1485  0.3623  0.2797
28172SOL    HW196575   6.920   9.980   0.461 -0.3937 -1.5591  0.1239
28172SOL    HW296576   6.857  10.082   0.572  0.0599  0.8237 -1.7643
28173SOL     OW96577   9.569   2.994   8.605  0.3061 -0.4006  0.0282
28173SOL    HW196578   9.561   2.991   8.505 -1.7508 -0.6611  0.1829
28173SOL    HW296579   9.515   2.920   8.645 -1.0908  1.3235  1.4162
28174SOL     OW96580   5.292   7.053   1.053 -0.3753 -0.5345 -0.0469
28174SOL    HW196581   5.346   6.969   1.056  0.7026  0.1785  0.6484
28174SOL    HW296582   5.208   7.036   1.002  0.6025 -1.5938 -1.3358
28175SOL     OW96583   1.327   3.934   8.015  0.2387  0.3531  0.0801
28175SOL    HW196584   1.359   3.893   7.930  1.6125 -1.3977  1.4150
28175SOL    HW296585   1.387   4.010   8.040  1.9580 -1.3600  1.2882
28176SOL     OW96586   3.635   1.828   0.649 -0.6756 -0.1355  0.3511
28176SOL    HW196587   3.550   1.830   0.702  0.3192 -1.3257  2.0174
28176SOL    HW296588   3.711   1.805   0.709  0.4620 -1.6245 -1.6370
28177SOL     OW96589   0.181   2.854   2.024 -0.4811 -0.1641 -0.1755
28177SOL    HW196590   0.226   2.926   2.078 -0.8358 -0.0871  0.0166
28177SOL    HW296591   0.149   2.893   1.938 -0.3984 -0.1640 -0.2067
28178SOL     OW96592   3.782   2.610   8.854 -0.1082 -0.3449  0.2484
28178SOL    HW196593   3.684   2.596   8.865 -0.1984  0.1417  0.0848
28178SOL    HW296594   3.818   2.544   8.788 -0.8476  1.2775 -1.8434
28179SOL     OW96595   9.833   5.956   1.456  0.1416  0.0105  0.2724
28179SOL    HW196596   9.735   5.976   1.464  0.1933 -0.1286  1.4324
28179SOL    HW296597   9.873   6.014   1.386 -0.7414  0.1703 -0.1159
28180SOL     OW96598   0.424   9.462   8.171 -0.5147 -0.1477  0.0857
28180SOL    HW196599   0.387   9.369   8.170 -1.8041  0.3360  1.4743
28180SOL    HW296600   0.470   9.480   8.084 -0.8085 -1.8572 -0.4453
28181SOL     OW96601   0.068   9.309   2.713  0.4377 -0.4213 -0.1169
28181SOL    HW196602   0.161   9.275   2.730 -0.0995 -1.4556  0.7497
28181SOL    HW296603   0.002   9.239   2.737 -0.5653  0.1848 -1.0958
28182SOL     OW96604   3.049   0.953   8.818 -0.3588 -0.1445  0.2606
28182SOL    HW196605   3.125   1.017   8.826  0.4127 -1.2718  2.3686
28182SOL    HW296606   3.071   0.882   8.750 -0.6495  1.0153 -1.0644
28183SOL     OW96607   4.624   0.989   1.473  0.2726 -0.1036 -0.0197
28183SOL    HW196608   4.546   1.050   1.488  1.4959  1.5302 -0.1929
28183SOL    HW296609   4.696   1.010   1.540  1.0405 -0.8043 -0.6139
28184SOL     OW96610   7.373   8.213   0.972 -0.3732  0.2599 -0.3606
28184SOL    HW196611   7.368   8.128   1.024  1.5312  1.8921  2.6504
28184SOL    HW296612   7.439   8.203   0.897 -1.0467 -1.2352 -0.7720
28185SOL     OW96613   8.442   6.923   6.011  0.3469  0.2520 -0.2826
28185SOL    HW196614   8.439   6.902   5.913  1.1942 -1.4847  0.0423
28185SOL    HW296615   8.528   6.971   6.032  0.2008  0.5549 -0.3727
28186SOL     OW96616   9.370   0.389   2.630 -0.0557 -0.3003  0.4603
28186SOL    HW196617   9.297   0.423   2.571 -0.5317 -0.4808  0.9395
28186SOL    HW296618   9.430   0.330   2.577 -1.0025 -1.1955  0.3746
28187SOL     OW96619   5.887   6.116   2.206 -0.0537 -0.4964 -0.0700
28187SOL    HW196620   5.911   6.116   2.303  0.4905  0.9560 -0.1989
28187SOL    HW296621   5.969   6.111   2.151 -0.2280  0.7619 -0.4670
28188SOL     OW96622   2.108   5.833   8.698  0.1058 -0.6628 -0.1343
28188SOL    HW196623   2.096   5.781   8.614 -0.8775 -0.9118  0.1490
28188SOL    HW296624   2.196   5.880   8.696  1.8386 -3.7054  0.3356
28189SOL     OW96625   7.277   1.646   1.883 -1.1127  0.5455  0.4349
28189SOL    HW196626   7.323   1.734   1.871  0.1669  0.0751  1.7904
28189SOL    HW296627   7.179   1.660   1.890 -1.2867  1.5271 -3.0390
28190SOL     OW96628   4.387   8.028   8.029  0.1499  0.2543 -0.1163
28190SOL    HW196629   4.338   8.038   7.943  0.9888  0.6326 -0.5538
28190SOL    HW296630   4.481   8.000   8.011 -0.4558 -2.6205  0.8055
28191SOL     OW96631   0.247   9.258   4.348 -0.1103  0.0472 -0.0714
28191SOL    HW196632   0.231   9.259   4.250  0.9455 -0.1426 -0.2495
28191SOL    HW296633   0.238   9.351   4.385 -0.0564  0.1843 -0.4098
28192SOL     OW96634   7.320   7.763   0.041 -0.2048  0.3096 -0.0302
28192SOL    HW196635   7.267   7.802  -0.035 -0.6587 -1.6366 -0.7434
28192SOL    HW296636   7.418   7.770   0.019 -0.2514  1.4044  0.0488
28193SOL     OW96637   8.372   0.414   1.080  0.8086 -0.0840 -0.2698
28193SOL    HW196638   8.467   0.402   1.052  0.4590  0.8568 -1.9281
28193SOL    HW296639   8.316   0.438   1.000 -0.0537  3.6420  1.3435
28194SOL     OW96640   6.578   3.800   7.701 -0.8879 -0.5647  0.0818
28194SOL    HW196641   6.625   3.832   7.618 -0.2672 -0.6519  0.3965
28194SOL    HW296642   6.549   3.879   7.754 -0.2961 -0.5076  0.3304
28195SOL     OW96643   2.185   7.971   0.962 -0.8533  0.0546  0.1217
28195SOL    HW196644   2.168   8.001   0.868  0.9503  0.0266 -0.2237
28195SOL    HW296645   2.231   7.883   0.962  0.7210  0.8544  0.9801
28196SOL     OW96646   1.370   0.866   7.628 -0.1416  0.3285 -0.1411
28196SOL    HW196647   1.381   0.809   7.547 -1.4085  0.7761 -0.6430
28196SOL    HW296648   1.358   0.808   7.709 -0.0327 -0.1148 -0.4425
28197SOL     OW96649   6.443   7.056   2.151  0.0758  0.3561 -0.0499
28197SOL    HW196650   6.476   6.977   2.202 -0.1654  0.9080  0.9807
28197SOL    HW296651   6.504   7.075   2.075  0.2234 -0.7208 -0.2001
28198SOL     OW96652   3.031   8.697   5.187  0.4558  0.1686 -0.1638
28198SOL    HW196653   2.984   8.635   5.123  0.7398  1.5714 -1.7749
28198SOL    HW296654   3.016   8.666   5.281 -1.3696 -0.9842 -0.8131
28199SOL     OW96655   3.401   8.684   9.316  0.3656  0.4358 -0.4450
28199SOL    HW196656   3.420   8.690   9.218 -1.0330 -0.5305 -0.7913
28199SOL    HW296657   3.314   8.730   9.335 -0.5309 -1.3850 -0.0341
28200SOL     OW96658   5.718   7.719   7.660 -0.1302 -0.3026  0.3032
28200SOL    HW196659   5.760   7.750   7.746 -2.0246  0.5785  0.9354
28200SOL    HW296660   5.714   7.795   7.596  2.1596 -1.1958 -0.9592
28201SOL     OW96661   0.495   2.399   0.992 -0.2300  0.4852 -0.4273
28201SOL    HW196662   0.561   2.330   0.963  0.1371 -0.0330  1.6105
28201SOL    HW296663   0.542   2.469   1.046 -1.2541  0.4427  0.5106
28202SOL     OW96664   1.362   7.514   8.689  0.3481  0.2011 -0.5044
28202SOL    HW196665   1.395   7.467   8.771 -2.0709  0.7440  0.8201
28202SOL    HW296666   1.419   7.488   8.611  2.8317 -0.1417  1.3652
28203SOL     OW96667   8.782   7.712   9.650 -0.0694  0.0156 -0.4816
28203SOL    HW196668   8.761   7.636   9.712  0.7833  1.4021  1.5769
28203SOL    HW296669   8.862   7.689   9.595  0.9293 -0.1407  0.9954
28204SOL     OW96670   5.217   9.849   0.705  0.4715 -0.3005 -0.2391
28204SOL    HW196671   5.198   9.751   0.715  0.7560 -0.3394 -0.0569
28204SOL    HW296672   5.173   9.899   0.779  1.3152 -0.4228  0.3548
28205SOL     OW96673   1.999   8.646   1.356 -0.6212  0.0275  0.2582
28205SOL    HW196674   1.923   8.598   1.402 -0.9722 -2.1753 -2.5079
28205SOL    HW296675   2.070   8.580   1.332  0.3125  1.4160 -0.8429
28206SOL     OW96676   0.034   5.912   2.404 -0.6576 -0.0281  0.1444
28206SOL    HW196677  -0.003   5.865   2.324  0.5417 -0.9639  0.1371
28206SOL    HW296678   0.076   5.846   2.466 -0.5798  0.8200  1.0144
28207SOL     OW96679   8.099   3.051   5.769  0.4977 -0.3463  0.3731
28207SOL    HW196680   8.180   3.030   5.714  0.6643 -1.0571  0.8897
28207SOL    HW296681   8.118   3.130   5.827  0.2046  0.6375 -0.8322
28208SOL     OW96682   4.915   9.213   0.262  0.4715  0.2064  0.2112
28208SOL    HW196683   4.823   9.177   0.277 -0.4427  1.3994 -2.3359
28208SOL    HW296684   4.951   9.180   0.175  2.4595 -0.1935  1.1359
28209SOL     OW96685   0.417   2.425   8.057 -0.7171  0.0606  0.1565
28209SOL    HW196686   0.498   2.374   8.088  0.4775  1.4621 -0.5770
28209SOL    HW296687   0.339   2.363   8.052  0.7203 -1.7221 -0.8199
28210SOL     OW96688   2.489   3.985   8.228 -0.6827 -0.3578  0.0938
28210SOL    HW196689   2.407   3.929   8.212 -1.2589  0.0066  1.7174
28210SOL    HW296690   2.559   3.929   8.273 -0.1866 -0.5536 -0.9130
28211SOL     OW96691   6.120   9.540   9.810 -0.6580  0.4183 -0.0920
28211SOL    HW196692   6.053   9.571   9.878  0.2552  0.6817  0.6988
28211SOL    HW296693   6.213   9.553   9.846 -0.2202 -2.5981 -0.0284
28212SOL     OW96694   4.193   0.439   2.450  0.4160 -0.4099 -0.4508
28212SOL    HW196695   4.230   0.346   2.448  0.9076 -0.2456  0.7145
28212SOL    HW296696   4.248   0.499   2.392 -0.2702 -0.9712 -1.7027
28213SOL     OW96697   8.929   7.178   2.922  0.1156 -0.5230  0.7278
28213SOL    HW196698   8.984   7.160   2.841  0.6663 -0.4382  1.0794
28213SOL    HW296699   8.895   7.091   2.960  1.1218 -0.6834  1.2783
28214SOL     OW96700   9.681   4.819   6.749  0.2246 -0.3383 -0.6397
28214SOL    HW196701   9.652   4.816   6.845 -0.4440 -1.0101 -0.8520
28214SOL    HW296702   9.665   4.730   6.707  0.4839 -0.0361 -1.3900
28215SOL     OW96703   0.677   2.226   3.799 -0.4682 -0.1727  0.0690
28215SOL    HW196704   0.757   2.182   3.841  0.3375  0.5767 -0.6826
28215SOL    HW296705   0.600   2.162   3.801  0.0134 -0.7418  1.2092
28216SOL     OW96706   1.849   3.870   2.620  0.2894 -0.1173  0.0179
28216SOL    HW196707   1.920   3.921   2.668 -1.5356  2.6436 -0.0838
28216SOL    HW296708   1.846   3.898   2.525  0.8018 -2.1901 -0.6447
28217SOL     OW96709   6.351   6.247   8.402  0.5369  0.3779  0.3541
28217SOL    HW196710   6.267   6.296   8.378 -0.5663 -1.4670  0.3598
28217SOL    HW296711   6.328   6.158   8.442  2.4967 -0.4424 -0.2665
28218SOL     OW96712   9.450   8.670   9.579  0.2985  0.3598  0.2515
28218SOL    HW196713   9.386   8.726   9.527  0.6967 -0.8747 -1.6136
28218SOL    HW296714   9.433   8.573   9.561  0.1256 -0.1374  2.8231
28219SOL     OW96715   3.326   1.451   9.764 -0.0850 -0.3706  0.4061
28219SOL    HW196716   3.364   1.543   9.773  0.3689 -0.6075  0.9330
28219SOL    HW296717   3.282   1.441   9.674  1.1193 -0.1060 -0.2217
28220SOL     OW96718   0.500   0.415   2.961 -0.0544  0.0786 -0.3978
28220SOL    HW196719   0.553   0.498   2.943 -1.7101  1.1914 -0.3096
28220SOL    HW296720   0.456   0.422   3.050 -0.5802 -0.6885 -0.5863
28221SOL     OW96721   1.197   1.493   5.489 -0.4327 -0.2171 -0.5944
28221SOL    HW196722   1.181   1.583   5.448 -0.5167  0.6033  1.1928
28221SOL    HW296723   1.248   1.504   5.574  0.4800 -1.9573 -0.8940
28222SOL     OW96724   1.133   1.671   5.758  0.3662 -0.0812 -0.2370
28222SOL    HW196725   1.212   1.707   5.710 -0.9322 -1.6527 -3.6944
28222SOL    HW296726   1.163   1.604   5.826  2.2283  2.1945  1.2553
28223SOL     OW96727   0.601   9.075   5.146  0.2116 -0.6865 -0.4609
28223SOL    HW196728   0.508   9.041   5.157  1.0288 -1.9656  3.3030
28223SOL    HW296729   0.599   9.174   5.133 -1.6494 -0.6431  0.0043
28224SOL     OW96730   9.343   8.709   0.413  0.2758 -0.1503 -0.5801
28224SOL    HW196731   9.403   8.769   0.466 -0.5826  0.4493 -0.2937
28224SOL    HW296732   9.327   8.749   0.323 -0.6635  0.2778 -0.2260
28225SOL     OW96733   9.296   0.632   6.881  0.4718  0.9346  0.0037
28225SOL    HW196734   9.286   0.537   6.910  0.2158  0.4931 -1.4443
28225SOL    HW296735   9.223   0.688   6.920  1.4362  0.8382  2.0138
28226SOL     OW96736   0.196   5.537   4.948  0.0647 -0.0007  0.0055
28226SOL    HW196737   0.171   5.468   5.016  1.8965  0.9756  1.7433
28226SOL    HW296738   0.120   5.600   4.934 -0.3640 -0.2683  1.0874
28227SOL     OW96739   3.074   3.742   5.449  0.1455  0.7095  0.2190
28227SOL    HW196740   3.132   3.669   5.486  0.1540  0.9142  0.6066
28227SOL    HW296741   3.119   3.830   5.462  0.9759  0.6406 -1.8582
28228SOL     OW96742   0.976   5.897   2.397  0.1921  0.3105  0.2221
28228SOL    HW196743   0.929   5.815   2.431 -1.4603  1.2491  0.2673
28228SOL    HW296744   1.064   5.906   2.443  0.8770 -2.0227 -0.5577
28229SOL     OW96745   2.399   1.588   5.982 -0.1469 -0.3848  0.3463
28229SOL    HW196746   2.440   1.528   5.913  0.5309  1.7571 -1.1552
28229SOL    HW296747   2.307   1.556   6.003 -0.4484 -0.9351 -1.7197
28230SOL     OW96748   1.921   1.115   2.976  0.0937 -0.1009  0.1434
28230SOL    HW196749   1.865   1.110   2.893 -0.4740  0.1611  0.5069
28230SOL    HW296750   1.863   1.138   3.054  0.2509 -2.5382  1.0242
28231SOL     OW96751   1.126   5.577   4.070 -0.0373  0.6792 -0.4591
28231SOL    HW196752   1.164   5.612   4.155 -1.3562  1.5572 -0.2072
28231SOL    HW296753   1.182   5.502   4.036  0.3017  0.0805  1.3814
28232SOL     OW96754   9.825   1.654   0.869 -0.4496 -0.2127  0.5242
28232SOL    HW196755   9.863   1.745   0.885 -0.5490 -0.2096  0.7575
28232SOL    HW296756   9.881   1.604   0.803  0.6238 -0.6315  1.7301
28233SOL     OW96757   9.823   2.096   7.997  0.0227  0.0439  0.2272
28233SOL    HW196758   9.749   2.077   8.062  0.6131  0.5766  1.0732
28233SOL    HW296759   9.821   2.193   7.971 -0.2015 -0.1661 -0.5416
28234SOL     OW96760   2.641   8.755   2.751  0.5822  0.3945  0.0440
28234SOL    HW196761   2.627   8.719   2.659  0.5706 -1.1175  0.6355
28234SOL    HW296762   2.556   8.748   2.803  1.0343 -0.2370  0.6916
28235SOL     OW96763   6.838   8.431   7.337 -0.0737 -0.5543  0.4866
28235SOL    HW196764   6.933   8.413   7.364  0.0796 -1.6074 -0.7276
28235SOL    HW296765   6.779   8.429   7.418  0.8107 -0.7767  1.1232
28236SOL     OW96766   1.419   0.668   0.951  0.5110  0.3531 -0.1653
28236SOL    HW196767   1.372   0.675   1.039  0.0483 -0.1427 -0.3760
28236SOL    HW296768   1.446   0.573   0.935  1.5537  0.6221 -0.0636
28237SOL     OW96769   6.474   3.086   6.553  0.4538  0.2696 -0.4753
28237SOL    HW196770   6.491   3.024   6.476 -0.5822  0.4311 -0.8450
28237SOL    HW296771   6.432   3.036   6.628 -0.8907  0.6286 -0.9801
28238SOL     OW96772   7.895   9.882   3.528 -0.1078  0.0711  0.0188
28238SOL    HW196773   7.974   9.820   3.521  1.1537  1.8416 -1.8433
28238SOL    HW296774   7.896   9.927   3.618 -0.4534 -1.7866  0.9830
28239SOL     OW96775   6.813   8.427   3.247  0.4134 -0.0848  0.4378
28239SOL    HW196776   6.781   8.431   3.341 -1.0096  0.5223 -0.0592
28239SOL    HW296777   6.775   8.504   3.195  1.1310 -0.4444 -0.6472
28240SOL     OW96778   7.747   6.897   6.017 -0.4809 -0.3763  0.0256
28240SOL    HW196779   7.813   6.971   6.007 -1.3867  0.5838  0.8969
28240SOL    HW296780   7.700   6.906   6.106 -1.7877 -1.0117 -0.5793
28241SOL     OW96781   9.039   8.574   4.674  0.0001 -0.5197 -0.3411
28241SOL    HW196782   9.087   8.528   4.748  0.3500  0.5038  0.0732
28241SOL    HW296783   8.958   8.522   4.649 -0.9458 -0.1055  1.7698
28242SOL     OW96784   2.339   9.219   3.556 -0.1922  0.7051 -0.7702
28242SOL    HW196785   2.384   9.275   3.486 -0.5747 -1.5372 -2.8645
28242SOL    HW296786   2.243   9.247   3.565 -0.5030  0.1281 -2.1357
28243SOL     OW96787   5.954   8.717   6.413  0.3659  0.2284 -0.5968
28243SOL    HW196788   6.053   8.703   6.422  0.2169 -1.4571 -1.3773
28243SOL    HW296789   5.937   8.801   6.362  1.3918  0.5158 -0.4883
28244SOL     OW96790   0.876   6.443   5.990 -0.0616 -0.1452 -0.5131
28244SOL    HW196791   0.833   6.488   5.912  2.2592  0.9532 -1.2167
28244SOL    HW296792   0.948   6.381   5.958 -0.0037 -0.7191  0.6866
28245SOL     OW96793   3.455   8.413   9.397 -0.1168 -0.7288 -0.6278
28245SOL    HW196794   3.378   8.382   9.454  0.0055 -0.4877 -0.3310
28245SOL    HW296795   3.425   8.488   9.339  0.4470  0.8491  1.0550
28246SOL     OW96796   6.403   2.426   8.086 -0.5872  0.0087 -0.7018
28246SOL    HW196797   6.369   2.495   8.022  1.6617  0.7742 -1.1382
28246SOL    HW296798   6.491   2.391   8.053 -0.4389 -1.1542  0.8685
28247SOL     OW96799   9.818   7.827   6.051 -0.2190 -0.0382 -0.4055
28247SOL    HW196800   9.907   7.855   6.085 -0.8668  0.0119  1.3027
28247SOL    HW296801   9.818   7.829   5.951  1.1642  1.5692 -0.3869
28248SOL     OW96802   7.729   3.863   4.781  0.1368 -0.7301 -0.6641
28248SOL    HW196803   7.775   3.827   4.863  1.2271  0.2048 -0.8655
28248SOL    HW296804   7.719   3.962   4.789 -1.5746 -0.8903 -0.7635
28249SOL     OW96805   2.798   9.826   7.574  0.0319 -0.0223 -0.6896
28249SOL    HW196806   2.748   9.893   7.627  0.8570  0.1016 -0.0588
28249SOL    HW296807   2.765   9.734   7.595 -0.0796  0.0745 -0.4450
28250SOL     OW96808   9.537   9.491   3.701  0.1569  0.0448 -0.3626
28250SOL    HW196809   9.631   9.509   3.728 -0.4634  2.4657  0.2673
28250SOL    HW296810   9.513   9.550   3.624 -1.0263 -0.1501 -0.1452
28251SOL     OW96811   0.354   1.806   8.277  0.2833  0.0727  0.1780
28251SOL    HW196812   0.270   1.830   8.230 -0.0453 -1.9060 -0.3136
28251SOL    HW296813   0.377   1.876   8.344 -0.9593  1.3430 -0.7158
28252SOL     OW96814   3.943   9.464   4.569 -0.7570  0.0342 -0.2274
28252SOL    HW196815   3.934   9.488   4.665 -0.7045 -1.3637  0.1362
28252SOL    HW296816   4.021   9.514   4.529 -0.0097 -0.3142  0.7768
28253SOL     OW96817   1.843   4.758   8.375 -0.5650 -0.3285  0.3859
28253SOL    HW196818   1.890   4.763   8.463 -1.2372 -1.3376  0.8109
28253SOL    HW296819   1.783   4.838   8.365 -0.2185 -0.0280  0.6808
28254SOL     OW96820   4.077   7.543   4.780 -0.3640 -0.0053  0.2257
28254SOL    HW196821   4.011   7.600   4.731 -1.6534  0.7275  2.7229
28254SOL    HW296822   4.166   7.551   4.737 -1.0714  2.0006 -0.9348
28255SOL     OW96823   9.148   8.704   6.620  0.4373 -0.2561  0.1268
28255SOL    HW196824   9.238   8.742   6.644  0.2251 -0.0257  0.5476
28255SOL    HW296825   9.094   8.691   6.703  0.9710 -2.6559  0.1195
28256SOL     OW96826   1.795   6.285   2.246 -0.5070 -0.2362 -0.1914
28256SOL    HW196827   1.788   6.187   2.226 -2.6133 -0.0110 -0.6748
28256SOL    HW296828   1.801   6.298   2.345 -1.3940 -0.8132 -0.0537
28257SOL     OW96829   1.617   6.899   3.736  0.6632  0.1640  0.1798
28257SOL    HW196830   1.704   6.943   3.714  0.6000  0.3282  0.2613
28257SOL    HW296831   1.549   6.921   3.666  0.4696  0.6656  0.5274
28258SOL     OW96832   4.667   9.823   7.610  0.1617  0.2134 -0.3721
28258SOL    HW196833   4.644   9.918   7.634  2.4030  0.6676  0.1211
28258SOL    HW296834   4.608   9.761   7.661 -1.2320  1.3313 -0.5699
28259SOL     OW96835   2.499   9.179   6.211 -0.1566  0.4933  0.4782
28259SOL    HW196836   2.559   9.126   6.151 -0.6222 -0.5535  0.9219
28259SOL    HW296837   2.554   9.233   6.274  0.3334  1.2258 -0.5672
28260SOL     OW96838   4.565   9.973   6.321 -0.5764  0.1375 -0.0556
28260SOL    HW196839   4.543  10.061   6.363 -0.2039 -0.4660  1.4438
28260SOL    HW296840   4.663   9.958   6.324 -0.8251 -1.3346  1.8179
28261SOL     OW96841   9.267   5.671   7.600  0.0116  0.2365 -0.6954
28261SOL    HW196842   9.328   5.601   7.637 -2.4044 -1.3399  0.4416
28261SOL    HW296843   9.303   5.704   7.513  1.1176 -2.5289 -1.3345
28262SOL     OW96844   1.302   5.301   0.319  0.7000  0.2725 -0.1699
28262SOL    HW196845   1.316   5.319   0.221  0.8249 -0.4036 -0.2754
28262SOL    HW296846   1.208   5.272   0.333  0.1541  2.1085  0.1622
28263SOL     OW96847   8.774   4.566   5.628  0.2472  0.6036 -0.9041
28263SOL    HW196848   8.798   4.526   5.539  0.0563  0.7882 -1.0406
28263SOL    HW296849   8.812   4.510   5.701  0.1144  0.2619 -1.0956
28264SOL     OW96850   7.460   5.486   7.360  0.4675 -0.1988 -0.3041
28264SOL    HW196851   7.531   5.528   7.303  0.3618 -2.7056 -2.3244
28264SOL    HW296852   7.503   5.425   7.427  0.2485 -2.0296 -1.7918
28265SOL     OW96853   3.452   9.352   9.830 -0.1456 -0.4150  0.1712
28265SOL    HW196854   3.469   9.450   9.835 -2.4119 -0.0163  0.2226
28265SOL    HW296855   3.525   9.308   9.777  2.0806  0.9606  1.9897
28266SOL     OW96856   7.386   0.706   6.269  0.1768 -0.3994 -0.0747
28266SOL    HW196857   7.375   0.793   6.317 -1.5312 -0.5949 -0.0790
28266SOL    HW296858   7.318   0.641   6.302 -0.3787 -0.8535 -2.0341
28267SOL     OW96859   8.485   4.353   6.125 -0.4011  0.2571  0.1045
28267SOL    HW196860   8.486   4.364   6.026 -2.8370  0.3371  0.0706
28267SOL    HW296861   8.578   4.335   6.157  0.3743 -0.0437 -2.2187
28268SOL     OW96862   7.888   6.425   8.282 -0.1314 -0.0702  0.0597
28268SOL    HW196863   7.932   6.341   8.315  1.8835  0.5217 -1.0303
28268SOL    HW296864   7.921   6.447   8.191  0.8515  2.9273  1.0608
28269SOL     OW96865   8.307   5.148   4.032 -0.2406 -0.0553 -0.2476
28269SOL    HW196866   8.278   5.199   3.951  1.7318 -2.0108 -2.2533
28269SOL    HW296867   8.266   5.056   4.030  0.8724 -0.5749  0.2570
28270SOL     OW96868   5.383   9.596   9.649 -0.3292 -0.1923 -0.1446
28270SOL    HW196869   5.382   9.571   9.746  0.6886 -0.3906 -0.1834
28270SOL    HW296870   5.445   9.535   9.600 -0.1439  0.4962 -0.7645
28271SOL     OW96871   7.372   8.810   5.171 -0.0510 -0.1671 -0.2070
28271SOL    HW196872   7.339   8.877   5.237 -1.5773 -0.4201 -0.6942
28271SOL    HW296873   7.294   8.763   5.129  0.9207 -0.5467 -1.6298
28272SOL     OW96874   8.604   1.406   2.016  0.3597 -0.1473 -0.0123
28272SOL    HW196875   8.670   1.481   2.008  0.1461  0.0125 -0.2704
28272SOL    HW296876   8.578   1.394   2.112  1.7636 -1.0665  0.2741
28273SOL     OW96877   4.581   0.120   5.905 -0.0891 -0.5235  0.0120
28273SOL    HW196878   4.646   0.174   5.959 -1.6751  0.4956  0.9593
28273SOL    HW296879   4.556   0.037   5.956 -0.5105 -0.2608  0.2416
28274SOL     OW96880   1.247   1.264   3.616  0.0332  0.0753  0.2526
28274SOL    HW196881   1.213   1.355   3.593  0.5104  0.2662  0.3032
28274SOL    HW296882   1.207   1.197   3.553 -0.6089  0.2683  0.4526
28275SOL     OW96883   8.919   7.999   4.068  0.0493 -0.1927  0.6491
28275SOL    HW196884   8.918   8.006   3.968 -0.1354 -0.1295  0.6561
28275SOL    HW296885   8.861   8.070   4.108  1.6225  1.0147  0.8727
28276SOL     OW96886   5.465   4.238   5.466  0.7549 -0.5109 -0.8535
28276SOL    HW196887   5.490   4.330   5.496 -0.6266 -0.7883  1.2824
28276SOL    HW296888   5.470   4.233   5.366  1.5321  1.6718 -0.9510
28277SOL     OW96889   2.053   6.987   2.976  0.5720  0.5840  0.0656
28277SOL    HW196890   2.113   7.007   2.899  2.1700  0.5450  1.2735
28277SOL    HW296891   2.103   6.935   3.045 -0.0010  2.9744  2.3819
28278SOL     OW96892   6.483   8.166   5.689 -0.4838  0.4810  0.2232
28278SOL    HW196893   6.567   8.132   5.647 -0.7824  0.3641 -0.2828
28278SOL    HW296894   6.459   8.254   5.648  0.8046  1.7848  2.1869
28279SOL     OW96895   7.651   4.029   6.799 -0.2322 -0.7232 -0.6086
28279SOL    HW196896   7.665   4.027   6.700 -2.0835  1.2313 -0.9408
28279SOL    HW296897   7.714   4.095   6.840  0.0036 -0.9695 -0.5723
28280SOL     OW96898   0.423   3.334   1.529  0.2130  0.0904  0.0265
28280SOL    HW196899   0.441   3.327   1.627  0.4732  1.7327  0.1148
28280SOL    HW296900   0.447   3.249   1.484 -2.4332 -1.6472  1.7766
28281SOL     OW96901   9.131   1.690   5.033  0.3309  0.1565  0.8544
28281SOL    HW196902   9.153   1.657   5.126 -0.4924  1.2441  1.4378
28281SOL    HW296903   9.178   1.776   5.016 -0.7978  0.7830  0.8624
28282SOL     OW96904   0.243   9.575   8.796  0.3771 -1.0203 -0.1737
28282SOL    HW196905   0.309   9.502   8.782 -0.7451 -1.8717 -1.1211
28282SOL    HW296906   0.289   9.664   8.791  1.4503 -1.6090 -0.7149
28283SOL     OW96907   4.368   0.611   5.553  0.3906  0.5180 -0.2530
28283SOL    HW196908   4.367   0.681   5.624  0.4048  0.5762 -0.3104
28283SOL    HW296909   4.328   0.648   5.469  1.5223  0.8632 -0.6588
28284SOL     OW96910   0.338   5.704   5.828 -0.7510  0.1915 -0.1852
28284SOL    HW196911   0.278   5.675   5.903 -1.7681 -0.5576 -1.2781
28284SOL    HW296912   0.407   5.633   5.811 -0.4043  0.4436  0.1524
28285SOL     OW96913   6.391   8.716   1.491  0.1290 -0.4164 -0.1488
28285SOL    HW196914   6.329   8.782   1.448 -0.6725 -0.6567  0.6377
28285SOL    HW296915   6.409   8.744   1.585 -1.2303 -1.9945  0.6025
28286SOL     OW96916   0.158   6.727   5.533  0.0430  0.3835  0.5752
28286SOL    HW196917   0.139   6.630   5.551  1.0839  0.2587  1.0364
28286SOL    HW296918   0.126   6.750   5.441  1.9361 -1.0197 -0.4654
28287SOL     OW96919   0.586   8.503   0.449 -0.6775  0.4318 -0.3108
28287SOL    HW196920   0.516   8.490   0.379 -2.8679  1.9486  1.4961
28287SOL    HW296921   0.556   8.461   0.535  0.2888  1.6957  0.6760
28288SOL     OW96922   6.337   1.907   1.450  0.1566  0.0823  0.2073
28288SOL    HW196923   6.407   1.837   1.462  0.8292  0.7683  0.3347
28288SOL    HW296924   6.304   1.938   1.539  0.4521  0.5149  0.1673
28289SOL     OW96925   7.290   7.601   7.576 -0.3435  0.4992 -0.1241
28289SOL    HW196926   7.245   7.537   7.513  2.5752 -1.2499 -0.5586
28289SOL    HW296927   7.348   7.549   7.640 -1.2794  2.4431  2.3594
28290SOL     OW96928   3.419   3.506   0.994 -0.5851 -0.1779 -0.2815
28290SOL    HW196929   3.324   3.508   0.962 -0.9071  1.0662  0.7318
28290SOL    HW296930   3.430   3.571   1.069  1.2737  0.2758 -0.9344
28291SOL     OW96931   0.475   6.811   7.355  0.0358 -0.1463 -0.3196
28291SOL    HW196932   0.502   6.798   7.450  0.3108 -1.3185 -0.5526
28291SOL    HW296933   0.452   6.907   7.340  2.4101  0.5497  0.3072
28292SOL     OW96934   9.493   0.374   4.538  0.1107 -0.0906  0.4152
28292SOL    HW196935   9.446   0.401   4.622 -1.9662 -2.6938  0.1532
28292SOL    HW296936   9.462   0.431   4.462 -1.1542 -0.5110  0.6175
28293SOL     OW96937   1.954   1.906   6.161  0.6875 -0.2809  0.6054
28293SOL    HW196938   2.036   1.925   6.213  1.0352  0.6640 -0.2653
28293SOL    HW296939   1.959   1.952   6.072 -0.8208 -0.0992  0.5845
28294SOL     OW96940   7.679   0.701   1.423 -0.0226 -0.8134 -0.5119
28294SOL    HW196941   7.612   0.631   1.447  2.0088 -2.6963 -0.1487
28294SOL    HW296942   7.716   0.742   1.507 -0.2527 -0.2072 -0.6988
28295SOL     OW96943   8.956   0.008   8.365  0.2563  0.0636  1.0217
28295SOL    HW196944   8.902   0.086   8.334  1.5096  0.8736  0.8602
28295SOL    HW296945   8.975   0.017   8.463  1.3895  0.5665  0.7639
28296SOL     OW96946   9.773   5.835   6.782 -0.5470  0.3603 -0.2925
28296SOL    HW196947   9.784   5.933   6.798  1.7827 -0.0740  1.0414
28296SOL    HW296948   9.788   5.816   6.685  0.6237  1.1434 -0.2804
28297SOL     OW96949   9.731   9.188   4.358  0.1866 -0.3098 -0.7015
28297SOL    HW196950   9.698   9.229   4.273 -0.3926 -0.8276 -0.7292
28297SOL    HW296951   9.801   9.248   4.398  1.3623 -0.6593 -2.1683
28298SOL     OW96952   0.646   2.453   9.477  0.3642  0.6662  0.2128
28298SOL    HW196953   0.702   2.401   9.541 -0.3262  3.0236  2.8538
28298SOL    HW296954   0.584   2.512   9.528 -1.8221  0.9770 -2.6613
28299SOL     OW96955   1.750   0.815   0.596  0.1310 -0.1662 -0.1487
28299SOL    HW196956   1.716   0.798   0.689 -1.3481  0.0060 -0.6415
28299SOL    HW296957   1.710   0.900   0.561  0.5688 -0.3049 -0.9970
28300SOL     OW96958   1.216   0.145   7.376 -0.0584 -0.2373  0.0880
28300SOL    HW196959   1.202   0.079   7.302  0.8245  0.6408 -0.8952
28300SOL    HW296960   1.281   0.216   7.345 -0.8798  1.0064  1.1618
28301SOL     OW96961   8.212   8.997   9.034  0.7328  0.0908 -0.2602
28301SOL    HW196962   8.233   8.935   8.959  0.0488 -1.1191  0.5289
28301SOL    HW296963   8.153   8.950   9.100 -1.1476  2.1179 -0.4612
28302SOL     OW96964   8.356   1.911   8.000 -0.6166  0.3310 -0.1890
28302SOL    HW196965   8.348   1.832   8.060 -0.5970  0.1199 -0.4605
28302SOL    HW296966   8.288   1.980   8.026 -1.4750 -0.2991 -0.7347
28303SOL     OW96967   0.597   9.441   7.439 -0.2640 -0.1205  0.5746
28303SOL    HW196968   0.540   9.503   7.385 -0.5036 -0.5529  0.3210
28303SOL    HW296969   0.644   9.492   7.511  0.4604  0.5397 -0.3742
28304SOL     OW96970   1.827   0.836   0.196  0.2309  0.0572  0.0688
28304SOL    HW196971   1.852   0.742   0.220  1.2043  0.0672 -0.8936
28304SOL    HW296972   1.892   0.900   0.237 -0.5672  0.3329  0.9192
28305SOL     OW96973   0.133   7.660   8.762 -0.3533  0.1755 -0.1075
28305SOL    HW196974   0.221   7.616   8.777 -0.2604 -0.0429 -1.2547
28305SOL    HW296975   0.120   7.734   8.829 -0.3656 -1.3470  1.6218
28306SOL     OW96976   0.975   4.467   6.877 -0.1196  0.6315 -0.3957
28306SOL    HW196977   0.918   4.397   6.919  0.0935 -0.0136 -1.1626
28306SOL    HW296978   0.948   4.479   6.781  0.3345  1.0733 -0.4736
28307SOL     OW96979   3.082   3.640   8.522  0.2916  0.0977  0.3931
28307SOL    HW196980   3.087   3.587   8.437 -0.0642 -0.9662  1.0305
28307SOL    HW296981   3.053   3.733   8.500 -1.1248 -0.5312 -0.5162
28308SOL     OW96982   1.120   7.703   8.184  0.2584 -0.0662 -0.2124
28308SOL    HW196983   1.193   7.766   8.213  0.1875 -0.5532  1.0466
28308SOL    HW296984   1.159   7.633   8.124  0.7569 -0.1102  0.1610
28309SOL     OW96985   7.696   4.384   4.261 -0.7375  0.1422 -0.6540
28309SOL    HW196986   7.686   4.365   4.163 -2.0526 -1.7709 -0.1848
28309SOL    HW296987   7.781   4.344   4.295 -1.4169 -1.2514 -0.5569
28310SOL     OW96988   3.007   0.009   5.734  0.1098 -0.3753 -0.4223
28310SOL    HW196989   3.010  -0.000   5.635  0.8399 -1.6116 -0.2971
28310SOL    HW296990   3.072  -0.055   5.775  1.0515  1.3165  0.7843
28311SOL     OW96991   9.202   5.159   5.880  0.5596 -0.0346 -0.5414
28311SOL    HW196992   9.201   5.076   5.823  2.1898  0.9415 -2.0589
28311SOL    HW296993   9.184   5.134   5.975  0.3624 -2.0480 -1.0738
28312SOL     OW96994   6.502   6.969   7.863 -0.1411  0.0428 -0.0490
28312SOL    HW196995   6.439   7.047   7.857 -0.6333 -0.2927  0.6588
28312SOL    HW296996   6.595   7.002   7.878 -0.6609  0.4488  2.4991
28313SOL     OW96997   3.233   6.975   7.928  0.0570 -0.5326  0.0914
28313SOL    HW196998   3.312   7.035   7.914  1.2525 -1.9562  0.6564
28313SOL    HW296999   3.222   6.917   7.848 -1.5603  0.9192 -0.7809
28314SOL     OW97000   9.564   4.517   9.978  0.7279  0.3579  0.0727
28314SOL    HW197001   9.612   4.474  10.055 -0.3064 -0.2791  0.3685
28314SOL    HW297002   9.587   4.467   9.894 -0.5201 -0.8295  0.4254
28315SOL     OW97003   0.249   1.252   5.237 -0.0106  0.1906 -0.0648
28315SOL    HW197004   0.282   1.181   5.175 -0.0371 -0.1582  0.3189
28315SOL    HW297005   0.206   1.210   5.316 -0.4131  0.6370 -0.0403
28316SOL     OW97006   4.952   8.413   5.180 -0.6453  0.0773 -0.1127
28316SOL    HW197007   5.051   8.423   5.167 -0.6134 -1.4015 -1.0826
28316SOL    HW297008   4.928   8.316   5.181 -1.8486  0.3655  2.0150
28317SOL     OW97009   9.610   0.107   8.565 -0.2790 -0.3279 -0.1309
28317SOL    HW197010   9.637   0.178   8.631 -2.9323  1.0963 -0.5234
28317SOL    HW297011   9.623   0.017   8.606 -0.3631  0.4808  1.7337
28318SOL     OW97012   1.772   7.281   5.997 -0.2638  0.3968  0.3204
28318SOL    HW197013   1.807   7.294   6.089 -2.4381  2.5918  0.8785
28318SOL    HW297014   1.706   7.205   5.997 -1.7172  1.6391  1.0018
28319SOL     OW97015   1.429   9.489   0.992  0.4340 -0.0212  0.3823
28319SOL    HW197016   1.492   9.524   0.922  0.9705 -1.2858  0.2086
28319SOL    HW297017   1.480   9.432   1.056 -0.2008  0.5044  1.3630
28320SOL     OW97018   5.209   1.884   1.282 -0.5466  0.5167  0.3872
28320SOL    HW197019   5.158   1.829   1.348 -1.2847 -0.5667 -1.0670
28320SOL    HW297020   5.262   1.824   1.222  2.7936  1.6039  2.0735
28321SOL     OW97021   0.622   6.231   9.166  0.4990  0.4148  0.1945
28321SOL    HW197022   0.593   6.249   9.072  0.1893 -0.9947  0.0234
28321SOL    HW297023   0.722   6.231   9.170  0.5162 -0.1901 -0.2536
28322SOL     OW97024   1.048   0.795   1.023  0.4320 -0.3100 -0.0039
28322SOL    HW197025   0.976   0.795   1.092  0.8890  0.7338  0.4804
28322SOL    HW297026   1.134   0.765   1.064  0.9124  1.1958  0.1098
28323SOL     OW97027   7.694   2.684   0.288  0.3246  0.4150  0.4771
28323SOL    HW197028   7.732   2.722   0.204 -0.4673 -1.1621 -0.6199
28323SOL    HW297029   7.759   2.696   0.363  1.6368  0.5449 -0.6739
28324SOL     OW97030   2.755   6.420   7.133 -0.1448 -0.3418 -0.1861
28324SOL    HW197031   2.797   6.508   7.156 -0.6445 -0.0389 -0.4230
28324SOL    HW297032   2.755   6.360   7.213 -0.7770  0.2666  0.2754
28325SOL     OW97033   6.090   6.087   9.523  0.4723  0.4756 -0.5616
28325SOL    HW197034   6.077   6.058   9.618  3.4196 -0.1093 -0.2908
28325SOL    HW297035   6.001   6.090   9.476 -0.6353 -2.5437  1.2362
28326SOL     OW97036   4.414   7.992   8.823 -0.1746  0.1600  0.0311
28326SOL    HW197037   4.466   7.988   8.908  1.3592 -0.5981 -0.9210
28326SOL    HW297038   4.387   7.900   8.795 -0.9116  0.4271 -0.1528
28327SOL     OW97039   9.651   7.512   0.125 -0.1406 -0.6040  0.6315
28327SOL    HW197040   9.578   7.490   0.190  0.6996  0.6646  2.0503
28327SOL    HW297041   9.649   7.610   0.106  2.7959 -0.0384  2.7776
28328SOL     OW97042   7.463   9.806   0.234 -0.0643  0.2125  0.4887
28328SOL    HW197043   7.417   9.891   0.208 -1.1601 -0.5371 -0.0839
28328SOL    HW297044   7.521   9.774   0.159 -0.6570 -0.2152  0.2074
28329SOL     OW97045   2.714   8.373   6.702 -0.6201  0.0479  0.3627
28329SOL    HW197046   2.708   8.417   6.612 -0.8293  0.7433  0.7146
28329SOL    HW297047   2.752   8.438   6.768  1.3464 -1.0502  0.3678
28330SOL     OW97048   2.026   3.511   6.224  0.4219  0.1816  0.1484
28330SOL    HW197049   2.014   3.605   6.255 -1.6112 -0.1046  0.3192
28330SOL    HW297050   2.055   3.454   6.301 -1.7472  0.0282  0.8857
28331SOL     OW97051   2.982   0.208   8.582 -0.4716 -0.1216  0.2007
28331SOL    HW197052   2.970   0.280   8.651 -0.9686  2.7352 -2.7566
28331SOL    HW297053   3.070   0.219   8.537 -0.4495 -1.5544 -0.1402
28332SOL     OW97054   7.114   2.436   1.306  0.4784  0.4758 -0.0810
28332SOL    HW197055   7.180   2.496   1.351 -0.2005 -0.3954  2.1202
28332SOL    HW297056   7.067   2.486   1.233  1.8307  1.8049 -0.0515
28333SOL     OW97057   0.398   8.781   4.676 -0.3764 -0.2473  0.5634
28333SOL    HW197058   0.471   8.730   4.722  0.2040  1.0125  1.0751
28333SOL    HW297059   0.437   8.839   4.605 -0.8205  0.7915  1.1543
28334SOL     OW97060   4.871   7.829   8.393 -0.3877 -0.4328 -0.2331
28334SOL    HW197061   4.959   7.873   8.374  0.1436 -1.2209  0.3402
28334SOL    HW297062   4.810   7.843   8.315 -0.4024  1.6949  0.1284
28335SOL     OW97063   7.333   2.825   9.142 -0.6869 -0.1538  0.2435
28335SOL    HW197064   7.376   2.890   9.205 -1.6257  0.0516  0.6856
28335SOL    HW297065   7.402   2.784   9.083 -0.1566  1.6465 -0.4064
28336SOL     OW97066   8.094   9.699   8.323 -0.2609  0.0613  0.1509
28336SOL    HW197067   8.035   9.734   8.249  0.2701 -1.5523 -1.0556
28336SOL    HW297068   8.183   9.676   8.286 -0.0882 -1.0768  1.2453
28337SOL     OW97069   6.909   6.685   6.935 -0.5319 -0.1207 -0.1178
28337SOL    HW197070   6.948   6.596   6.915  1.9016  0.9999 -0.4748
28337SOL    HW297071   6.901   6.696   7.034 -0.0300 -0.3990 -0.0447
28338SOL     OW97072   3.283   9.309   2.776  0.4238  0.4638 -0.0315
28338SOL    HW197073   3.189   9.280   2.759  0.7240 -0.8880  0.5630
28338SOL    HW297074   3.283   9.383   2.843 -0.0689 -1.1488  1.7769
28339SOL     OW97075   8.998   9.698   0.015  0.2798  0.3362 -0.8895
28339SOL    HW197076   9.087   9.660   0.036 -1.0431 -0.8204  2.9112
28339SOL    HW297077   8.945   9.632  -0.039  0.0698 -0.8916  0.7990
28340SOL     OW97078   6.810   8.872   9.089  0.4704  0.1335  0.1155
28340SOL    HW197079   6.783   8.777   9.105 -0.0217  0.1538 -0.6082
28340SOL    HW297080   6.886   8.875   9.024 -0.8712  0.3503 -1.4612
28341SOL     OW97081   8.602   8.486   7.682  0.3114  0.0628 -0.3842
28341SOL    HW197082   8.639   8.471   7.774  1.2356 -1.7512 -1.0213
28341SOL    HW297083   8.672   8.526   7.624  0.0294  0.2879 -0.5698
28342SOL     OW97084   5.589   3.940   5.269  0.0190  0.3799 -0.2658
28342SOL    HW197085   5.549   4.029   5.291 -0.7153  0.2640 -1.1303
28342SOL    HW297086   5.671   3.952   5.213 -0.6299  0.4731 -1.2020
28343SOL     OW97087   9.970   8.267   3.669 -0.1709  0.4518  0.2927
28343SOL    HW197088   9.928   8.357   3.683 -1.0877 -0.2286  2.0622
28343SOL    HW297089   9.913   8.196   3.710 -0.0450 -1.0970 -2.1035
28344SOL     OW97090   2.535   5.194   0.096  0.5824  0.4067  0.1844
28344SOL    HW197091   2.539   5.262   0.023  2.4545  1.5238  1.2783
28344SOL    HW297092   2.448   5.203   0.145  0.7670  1.9456  0.2552
28345SOL     OW97093   9.597   5.493   3.245 -0.1115  0.7249  0.0531
28345SOL    HW197094   9.674   5.522   3.188 -0.5466  1.9308  0.0660
28345SOL    HW297095   9.622   5.411   3.296  0.8395  0.5704 -0.6492
28346SOL     OW97096   2.223   2.046   2.588  0.8325 -0.0618  0.3555
28346SOL    HW197097   2.275   2.110   2.531  1.6960 -0.8703  0.2218
28346SOL    HW297098   2.150   2.095   2.635 -1.8451  0.0936 -3.7887
28347SOL     OW97099   2.484   8.230   6.599  0.2128  0.0584 -0.3910
28347SOL    HW197100   2.481   8.280   6.512 -0.8337  0.7872  0.0533
28347SOL    HW297101   2.559   8.265   6.654 -0.1890  0.7984 -0.3011
  10.00000  10.00000  10.00000
