UNITED ATOM STRUCTURE FOR MOLECULE UNL
 8460
    0CHTO  H203    1   2.326   5.604   3.790
    0CHTO   O82    2   2.269   5.574   3.860
    0CHTO  C123    3   2.334   5.584   3.986
    0CHTO  H227    4   2.361   5.690   4.004
    0CHTO   O77    5   2.240   5.538   4.085
    0CHTO  C118    6   2.290   5.553   4.218
    0CHTO  H222    7   2.315   5.659   4.238
    0CHTO  C125    8   2.183   5.507   4.321
    0CHTO   O84    9   2.066   5.587   4.303
    0CHTO  H205   10   1.996   5.558   4.360
    0CHTO  C114   11   2.416   5.467   4.238
    0CHTO  H218   12   2.388   5.361   4.227
    0CHTO  C116   13   2.523   5.503   4.131
    0CHTO  H220   14   2.562   5.605   4.148
    0CHTO   O79   15   2.633   5.411   4.137
    0CHTO  H201   16   2.698   5.431   4.071
    0CHTO  C120   17   2.458   5.492   3.991
    0CHTO  H224   18   2.429   5.386   3.976
    0CHTO   N21   19   2.558   5.528   3.891
    0CHTO  H211   20   2.573   5.635   3.889
    0CHTO  H212   21   2.529   5.492   3.793
    0CHTO   O75   22   2.458   5.495   4.371
    0CHTO  C112   23   2.565   5.409   4.418
    0CHTO  H216   24   2.658   5.430   4.363
    0CHTO   O73   25   2.523   5.272   4.405
    0CHTO  C113   26   2.620   5.182   4.458
    0CHTO  H217   27   2.717   5.200   4.408
    0CHTO  C124   28   2.576   5.039   4.425
    0CHTO   O83   29   2.544   5.028   4.285
    0CHTO  H204   30   2.512   4.940   4.266
    0CHTO  C109   31   2.638   5.202   4.611
    0CHTO  H213   32   2.538   5.187   4.657
    0CHTO  C110   33   2.686   5.347   4.630
    0CHTO  H214   34   2.784   5.361   4.583
    0CHTO   O78   35   2.696   5.378   4.769
    0CHTO  H200   36   2.723   5.468   4.782
    0CHTO  C111   37   2.582   5.441   4.568
    0CHTO  H215   38   2.485   5.428   4.620
    0CHTO   N19   39   2.621   5.582   4.582
    0CHTO  H207   40   2.541   5.645   4.547
    0CHTO  H208   41   2.711   5.602   4.526
    0CHTO   O74   42   2.730   5.105   4.667
    0CHTO  C115   43   2.718   5.090   4.810
    0CHTO  H219   44   2.661   5.171   4.854
    0CHTO   O76   45   2.647   4.970   4.845
    0CHTO  C122   46   2.700   4.855   4.776
    0CHTO  H226   47   2.668   4.861   4.672
    0CHTO  C126   48   2.637   4.725   4.834
    0CHTO   O85   49   2.675   4.700   4.970
    0CHTO  H206   50   2.654   4.773   5.026
    0CHTO  C121   51   2.856   4.851   4.782
    0CHTO  H225   52   2.890   4.748   4.805
    0CHTO   O81   53   2.907   4.891   4.654
    0CHTO  H202   54   2.881   4.832   4.585
    0CHTO  C119   55   2.905   4.947   4.893
    0CHTO  H223   56   2.851   4.914   4.982
    0CHTO  C117   57   2.860   5.093   4.871
    0CHTO  H221   58   2.925   5.153   4.806
    0CHTO   N20   59   2.855   5.165   4.999
    0CHTO  H209   60   2.952   5.162   5.047
    0CHTO  H210   61   2.780   5.124   5.065
    0CHTO   O80   62   3.042   4.934   4.935
    0CHTO  C103   63   3.145   4.921   4.834
    0CHTO  H190   64   3.124   4.836   4.768
    0CHTO  C101   65   3.174   5.046   4.745
    0CHTO  H188   66   3.190   5.135   4.807
    0CHTO   O68   67   3.066   5.070   4.652
    0CHTO  H168   68   3.076   5.154   4.607
    0CHTO   C99   69   3.305   5.019   4.664
    0CHTO  H186   70   3.291   4.931   4.598
    0CHTO   N17   71   3.346   5.133   4.580
    0CHTO  H174   72   3.349   5.223   4.640
    0CHTO  H175   73   3.279   5.146   4.496
    0CHTO   C97   74   3.422   4.985   4.757
    0CHTO  H184   75   3.438   5.070   4.825
    0CHTO   O64   76   3.387   4.866   4.829
    0CHTO  C104   77   3.274   4.887   4.914
    0CHTO  H191   78   3.295   4.968   4.984
    0CHTO  C108   79   3.250   4.762   4.998
    0CHTO   O71   80   3.372   4.728   5.066
    0CHTO  H171   81   3.360   4.648   5.115
    0CHTO   O62   82   3.539   4.961   4.678
    0CHTO   C91   83   3.663   4.980   4.749
    0CHTO  H178   84   3.666   5.085   4.782
    0CHTO   C92   85   3.777   4.963   4.648
    0CHTO  H179   86   3.762   5.030   4.561
    0CHTO   O66   87   3.899   5.004   4.710
    0CHTO  H166   88   3.972   5.001   4.649
    0CHTO   C93   89   3.790   4.816   4.602
    0CHTO  H180   90   3.891   4.802   4.560
    0CHTO   N16   91   3.694   4.783   4.495
    0CHTO  H172   92   3.593   4.790   4.532
    0CHTO  H173   93   3.714   4.683   4.459
    0CHTO   C94   94   3.772   4.721   4.724
    0CHTO  H181   95   3.672   4.680   4.729
    0CHTO   O61   96   3.798   4.796   4.844
    0CHTO   C95   97   3.690   4.887   4.870
    0CHTO  H182   98   3.600   4.830   4.894
    0CHTO  C106   99   3.726   4.970   4.996
    0CHTO   O69  100   3.743   4.877   5.104
    0CHTO  H169  101   3.759   4.924   5.186
    0CHTO   O63  102   3.872   4.618   4.707
    0CHTO   C96  103   3.858   4.509   4.800
    0CHTO  H183  104   3.754   4.475   4.797
    0CHTO   C98  105   3.893   4.545   4.946
    0CHTO  H185  106   3.825   4.622   4.986
    0CHTO   O67  107   3.872   4.428   5.025
    0CHTO  H167  108   3.886   4.450   5.116
    0CHTO  C102  109   4.042   4.590   4.957
    0CHTO  H189  110   4.071   4.575   5.062
    0CHTO   N18  111   4.063   4.733   4.928
    0CHTO  H176  112   4.001   4.794   4.993
    0CHTO  H177  113   4.042   4.758   4.825
    0CHTO  C105  114   4.130   4.502   4.867
    0CHTO  H192  115   4.151   4.555   4.773
    0CHTO   O65  116   4.064   4.378   4.837
    0CHTO  C100  117   3.950   4.395   4.752
    0CHTO  H187  118   3.987   4.420   4.651
    0CHTO  C107  119   3.874   4.261   4.743
    0CHTO   O70  120   3.810   4.234   4.867
    0CHTO  H170  121   3.756   4.156   4.863
    0CHTO   O57  122   4.250   4.485   4.945
    0CHTO   C85  123   4.346   4.393   4.892
    0CHTO  H157  124   4.303   4.291   4.891
    0CHTO   C83  125   4.464   4.392   4.991
    0CHTO  H155  126   4.429   4.368   5.093
    0CHTO   O56  127   4.521   4.524   4.995
    0CHTO  H135  128   4.457   4.588   5.023
    0CHTO   C81  129   4.569   4.289   4.948
    0CHTO  H153  130   4.531   4.188   4.968
    0CHTO   N14  131   4.693   4.307   5.026
    0CHTO  H141  132   4.671   4.290   5.130
    0CHTO  H142  133   4.731   4.408   5.014
    0CHTO   C79  134   4.600   4.302   4.797
    0CHTO  H151  135   4.548   4.219   4.746
    0CHTO   O52  136   4.548   4.427   4.745
    0CHTO   C86  137   4.403   4.434   4.753
    0CHTO  H158  138   4.381   4.540   4.732
    0CHTO   C90  139   4.338   4.353   4.640
    0CHTO   O60  140   4.416   4.371   4.521
    0CHTO  H138  141   4.378   4.320   4.450
    0CHTO   O50  142   4.741   4.292   4.773
    0CHTO   C73  143   4.780   4.303   4.635
    0CHTO  H145  144   4.739   4.394   4.589
    0CHTO   C74  145   4.739   4.180   4.552
    0CHTO  H146  146   4.629   4.173   4.547
    0CHTO   O54  147   4.787   4.195   4.418
    0CHTO  H133  148   4.760   4.120   4.367
    0CHTO   C75  149   4.801   4.055   4.618
    0CHTO  H147  150   4.764   4.047   4.722
    0CHTO   N13  151   4.764   3.933   4.543
    0CHTO  H139  152   4.657   3.922   4.543
    0CHTO  H140  153   4.808   3.847   4.591
    0CHTO   C76  154   4.955   4.074   4.619
    0CHTO  H148  155   4.988   4.079   4.514
    0CHTO   O49  156   4.993   4.194   4.690
    0CHTO   C77  157   4.935   4.312   4.635
    0CHTO  H149  158   4.970   4.327   4.533
    0CHTO   C88  159   4.981   4.435   4.716
    0CHTO   O58  160   5.125   4.445   4.711
    0CHTO  H136  161   5.157   4.522   4.756
    0CHTO   O51  162   5.012   3.962   4.690
    0CHTO   C78  163   5.156   3.964   4.694
    0CHTO  H150  164   5.195   4.067   4.705
    0CHTO   C80  165   5.216   3.901   4.567
    0CHTO  H152  166   5.171   3.801   4.552
    0CHTO   O55  167   5.188   3.985   4.454
    0CHTO  H134  168   5.218   3.945   4.373
    0CHTO   C84  169   5.369   3.889   4.583
    0CHTO  H156  170   5.412   3.989   4.589
    0CHTO   N15  171   5.426   3.821   4.466
    0CHTO  H143  172   5.385   3.722   4.459
    0CHTO  H144  173   5.533   3.814   4.478
    0CHTO   C87  174   5.401   3.811   4.712
    0CHTO  H159  175   5.361   3.709   4.703
    0CHTO   O53  176   5.343   3.880   4.824
    0CHTO   C82  177   5.200   3.883   4.817
    0CHTO  H154  178   5.160   3.781   4.813
    0CHTO   C89  179   5.143   3.949   4.945
    0CHTO   O59  180   5.190   3.874   5.058
    0CHTO  H137  181   5.158   3.914   5.137
    0CHTO   O45  182   5.545   3.807   4.726
    0CHTO   C67  183   5.585   3.770   4.859
    0CHTO  H124  184   5.551   3.845   4.931
    0CHTO   C65  185   5.525   3.633   4.898
    0CHTO  H122  186   5.521   3.571   4.808
    0CHTO   O44  187   5.393   3.659   4.950
    0CHTO  H102  188   5.345   3.579   4.968
    0CHTO   C63  189   5.618   3.561   4.998
    0CHTO  H120  190   5.693   3.503   4.942
    0CHTO   N11  191   5.549   3.461   5.082
    0CHTO  H108  192   5.498   3.390   5.020
    0CHTO  H109  193   5.477   3.509   5.148
    0CHTO   C61  194   5.692   3.665   5.086
    0CHTO  H118  195   5.752   3.608   5.159
    0CHTO   O40  196   5.781   3.743   5.008
    0CHTO   C68  197   5.739   3.764   4.872
    0CHTO  H125  198   5.777   3.681   4.810
    0CHTO   C72  199   5.805   3.894   4.819
    0CHTO   O48  200   5.781   3.915   4.680
    0CHTO  H105  201   5.826   3.993   4.650
    0CHTO   O38  202   5.602   3.754   5.155
    0CHTO   C55  203   5.668   3.816   5.266
    0CHTO  H112  204   5.774   3.833   5.242
    0CHTO   C56  205   5.650   3.734   5.397
    0CHTO  H113  206   5.542   3.730   5.419
    0CHTO   O42  207   5.694   3.598   5.383
    0CHTO  H100  208   5.672   3.547   5.460
    0CHTO   C57  209   5.726   3.803   5.512
    0CHTO  H114  210   5.833   3.805   5.489
    0CHTO   N10  211   5.705   3.732   5.640
    0CHTO  H106  212   5.722   3.798   5.723
    0CHTO  H107  213   5.770   3.647   5.647
    0CHTO   C58  214   5.675   3.947   5.524
    0CHTO  H115  215   5.570   3.945   5.560
    0CHTO   O37  216   5.684   4.018   5.400
    0CHTO   C59  217   5.607   3.955   5.296
    0CHTO  H116  218   5.502   3.947   5.326
    0CHTO   C70  219   5.620   4.046   5.173
    0CHTO   O46  220   5.579   4.180   5.204
    0CHTO  H103  221   5.583   4.233   5.126
    0CHTO   O39  222   5.759   4.011   5.622
    0CHTO   C60  223   5.743   4.153   5.630
    0CHTO  H117  224   5.770   4.198   5.534
    0CHTO   C62  225   5.600   4.195   5.668
    0CHTO  H119  226   5.534   4.170   5.583
    0CHTO   O43  227   5.560   4.121   5.784
    0CHTO  H101  228   5.468   4.136   5.805
    0CHTO   C66  229   5.599   4.348   5.692
    0CHTO  H123  230   5.624   4.399   5.598
    0CHTO   N12  231   5.467   4.395   5.734
    0CHTO  H110  232   5.445   4.363   5.835
    0CHTO  H111  233   5.392   4.361   5.665
    0CHTO   C69  234   5.703   4.384   5.800
    0CHTO  H126  235   5.679   4.331   5.894
    0CHTO   O41  236   5.833   4.349   5.751
    0CHTO   C64  237   5.844   4.206   5.734
    0CHTO  H121  238   5.825   4.155   5.831
    0CHTO   C71  239   5.988   4.171   5.690
    0CHTO   O47  240   6.078   4.228   5.787
    0CHTO  H104  241   6.168   4.208   5.764
    0CHTO   O34  242   5.688   4.526   5.819
    0CHTO   C49  243   5.738   4.576   5.945
    0CHTO   H91  244   5.687   4.523   6.026
    0CHTO   C47  245   5.703   4.725   5.946
    0CHTO   H89  246   5.743   4.768   6.040
    0CHTO   O33  247   5.561   4.749   5.940
    0CHTO   H70  248   5.519   4.711   6.016
    0CHTO   C45  249   5.769   4.792   5.822
    0CHTO   H87  250   5.701   4.790   5.736
    0CHTO    N8  251   5.799   4.932   5.855
    0CHTO   H75  252   5.709   4.980   5.892
    0CHTO   H76  253   5.835   4.985   5.768
    0CHTO   C43  254   5.899   4.717   5.782
    0CHTO   H85  255   5.871   4.634   5.717
    0CHTO   O29  256   5.963   4.674   5.902
    0CHTO   C50  257   5.891   4.565   5.962
    0CHTO   H92  258   5.925   4.470   5.917
    0CHTO   C54  259   5.930   4.552   6.111
    0CHTO   O36  260   6.072   4.529   6.120
    0CHTO   H72  261   6.097   4.519   6.211
    0CHTO   O27  262   5.984   4.806   5.708
    0CHTO   C37  263   6.115   4.754   5.679
    0CHTO   H79  264   6.169   4.729   5.772
    0CHTO   C38  265   6.108   4.626   5.593
    0CHTO   H80  266   6.039   4.643   5.508
    0CHTO   O31  267   6.062   4.518   5.673
    0CHTO   H68  268   6.055   4.437   5.624
    0CHTO   C39  269   6.249   4.587   5.541
    0CHTO   H81  270   6.311   4.561   5.628
    0CHTO    N7  271   6.241   4.470   5.452
    0CHTO   H73  272   6.340   4.435   5.428
    0CHTO   H74  273   6.187   4.494   5.362
    0CHTO   C40  274   6.317   4.705   5.468
    0CHTO   H82  275   6.258   4.733   5.379
    0CHTO   O26  276   6.326   4.813   5.562
    0CHTO   C41  277   6.195   4.861   5.602
    0CHTO   H83  278   6.139   4.892   5.512
    0CHTO   C52  279   6.220   4.985   5.690
    0CHTO   O35  280   6.300   5.083   5.621
    0CHTO   H71  281   6.305   5.164   5.671
    0CHTO   O28  282   6.449   4.666   5.427
    0CHTO   C42  283   6.523   4.764   5.352
    0CHTO   H84  284   6.623   4.719   5.339
    0CHTO   C44  285   6.547   4.899   5.422
    0CHTO   H86  286   6.452   4.954   5.428
    0CHTO   O32  287   6.598   4.878   5.554
    0CHTO   H69  288   6.606   4.961   5.600
    0CHTO   C48  289   6.645   4.982   5.335
    0CHTO   H90  290   6.740   4.928   5.325
    0CHTO    N9  291   6.675   5.112   5.401
    0CHTO   H77  292   6.589   5.176   5.399
    0CHTO   H78  293   6.759   5.160   5.353
    0CHTO   C51  294   6.580   5.001   5.195
    0CHTO   H93  295   6.486   5.055   5.208
    0CHTO   O30  296   6.562   4.873   5.137
    0CHTO   C46  297   6.468   4.792   5.210
    0CHTO   H88  298   6.371   4.843   5.217
    0CHTO   C53  299   6.455   4.660   5.130
    0CHTO   O72  300   6.358   4.574   5.192
    0CHTO  H199  301   6.349   4.493   5.144
    0CHTO   O22  302   6.673   5.076   5.114
    0CHTO   C31  303   6.626   5.114   4.981
    0CHTO   H59  304   6.711   5.165   4.933
    0CHTO   C29  305   6.585   4.998   4.889
    0CHTO   H57  306   6.495   4.948   4.928
    0CHTO   O21  307   6.688   4.899   4.882
    0CHTO   H37  308   6.768   4.938   4.848
    0CHTO   C27  309   6.555   5.055   4.749
    0CHTO   H55  310   6.648   5.100   4.709
    0CHTO    N5  311   6.510   4.948   4.659
    0CHTO   H43  312   6.421   4.899   4.695
    0CHTO   H44  313   6.588   4.874   4.643
    0CHTO   C25  314   6.445   5.162   4.761
    0CHTO   H53  315   6.354   5.113   4.799
    0CHTO   O17  316   6.485   5.266   4.852
    0CHTO   C32  317   6.510   5.217   4.984
    0CHTO   H60  318   6.420   5.168   5.024
    0CHTO   C36  319   6.546   5.338   5.072
    0CHTO   O25  320   6.434   5.426   5.079
    0CHTO   H40  321   6.453   5.499   5.137
    0CHTO   O15  322   6.421   5.215   4.629
    0CHTO   C19  323   6.310   5.308   4.621
    0CHTO   H47  324   6.311   5.339   4.515
    0CHTO   C20  325   6.172   5.247   4.650
    0CHTO   H48  326   6.162   5.216   4.755
    0CHTO   O19  327   6.154   5.133   4.565
    0CHTO   H35  328   6.068   5.094   4.580
    0CHTO   C21  329   6.064   5.353   4.619
    0CHTO   H49  330   6.069   5.379   4.512
    0CHTO    N4  331   5.930   5.301   4.647
    0CHTO   H41  332   5.856   5.375   4.619
    0CHTO   H42  333   5.920   5.279   4.753
    0CHTO   C22  334   6.093   5.478   4.703
    0CHTO   H50  335   6.087   5.451   4.809
    0CHTO   O14  336   6.223   5.531   4.671
    0CHTO   C23  337   6.328   5.438   4.703
    0CHTO   H51  338   6.323   5.419   4.812
    0CHTO   C34  339   6.461   5.506   4.669
    0CHTO   O23  340   6.473   5.624   4.748
    0CHTO   H38  341   6.552   5.673   4.725
    0CHTO   O16  342   5.995   5.575   4.669
    0CHTO   C24  343   5.992   5.684   4.763
    0CHTO   H52  344   6.092   5.705   4.804
    0CHTO   C26  345   5.894   5.653   4.877
    0CHTO   H54  346   5.797   5.621   4.834
    0CHTO   O20  347   5.943   5.549   4.964
    0CHTO   H36  348   5.877   5.529   5.030
    0CHTO   C30  349   5.870   5.780   4.960
    0CHTO   H58  350   5.962   5.812   5.010
    0CHTO    N6  351   5.769   5.754   5.065
    0CHTO   H45  352   5.673   5.739   5.019
    0CHTO   H46  353   5.764   5.840   5.129
    0CHTO   C33  354   5.824   5.893   4.866
    0CHTO   H61  355   5.732   5.864   4.813
    0CHTO   O18  356   5.926   5.920   4.771
    0CHTO   C28  357   5.949   5.808   4.683
    0CHTO   H56  358   5.858   5.785   4.626
    0CHTO   C35  359   6.061   5.850   4.585
    0CHTO   O24  360   6.020   5.959   4.502
    0CHTO   H39  361   6.090   5.980   4.442
    0CHTO    O9  362   5.790   6.009   4.942
    0CHTO   C13  363   5.769   6.127   4.861
    0CHTO   H26  364   5.727   6.099   4.763
    0CHTO   C11  365   5.906   6.200   4.847
    0CHTO   H24  366   5.964   6.157   4.764
    0CHTO    O8  367   5.976   6.177   4.970
    0CHTO    H3  368   6.062   6.215   4.969
    0CHTO    C9  369   5.882   6.349   4.822
    0CHTO   H22  370   5.818   6.353   4.733
    0CHTO    N2  371   6.006   6.422   4.789
    0CHTO   H10  372   6.057   6.373   4.706
    0CHTO   H11  373   6.072   6.430   4.874
    0CHTO    C7  374   5.809   6.411   4.944
    0CHTO   H20  375   5.739   6.483   4.899
    0CHTO    O4  376   5.738   6.313   5.019
    0CHTO   C14  377   5.669   6.220   4.935
    0CHTO   H27  378   5.608   6.275   4.860
    0CHTO   C18  379   5.571   6.138   5.021
    0CHTO   O13  380   5.508   6.039   4.939
    0CHTO    H7  381   5.446   5.987   4.990
    0CHTO    O2  382   5.901   6.480   5.031
    0CHTO    C1  383   5.840   6.536   5.149
    0CHTO   H14  384   5.794   6.456   5.210
    0CHTO    C2  385   5.733   6.645   5.118
    0CHTO   H15  386   5.776   6.718   5.047
    0CHTO    O6  387   5.614   6.586   5.064
    0CHTO    H1  388   5.550   6.653   5.045
    0CHTO    C3  389   5.690   6.715   5.250
    0CHTO   H16  390   5.639   6.642   5.316
    0CHTO    N1  391   5.595   6.823   5.221
    0CHTO    H8  392   5.642   6.897   5.158
    0CHTO    H9  393   5.561   6.870   5.312
    0CHTO    C4  394   5.814   6.764   5.329
    0CHTO   H17  395   5.861   6.847   5.273
    0CHTO    O1  396   5.906   6.657   5.351
    0CHTO    C5  397   5.955   6.600   5.230
    0CHTO   H18  398   6.003   6.677   5.169
    0CHTO   C16  399   6.061   6.494   5.270
    0CHTO   O11  400   6.152   6.557   5.361
    0CHTO    H5  401   6.221   6.496   5.385
    0CHTO    O3  402   5.768   6.810   5.457
    0CHTO    C6  403   5.874   6.860   5.541
    0CHTO   H19  404   5.969   6.806   5.526
    0CHTO    C8  405   5.895   7.011   5.520
    0CHTO   H21  406   5.799   7.063   5.534
    0CHTO    O7  407   5.947   7.035   5.389
    0CHTO    H2  408   5.963   7.128   5.374
    0CHTO   C12  409   5.997   7.062   5.624
    0CHTO   H25  410   6.094   7.012   5.602
    0CHTO    N3  411   6.015   7.207   5.604
    0CHTO   H12  412   6.102   7.244   5.656
    0CHTO   H13  413   5.927   7.261   5.635
    0CHTO   C15  414   5.952   7.026   5.767
    0CHTO   H28  415   5.860   7.078   5.794
    0CHTO   O10  416   6.055   7.056   5.864
    0CHTO    H4  417   6.070   7.150   5.870
    0CHTO    O5  418   5.934   6.884   5.778
    0CHTO   C10  419   5.832   6.838   5.688
    0CHTO   H23  420   5.740   6.892   5.709
    0CHTO   C17  421   5.808   6.689   5.717
    0CHTO   O12  422   5.772   6.673   5.854
    0CHTO    H6  423   5.760   6.581   5.876
    1CHTO  H203  424   0.389   9.687   4.431
    1CHTO   O82  425   0.297   9.666   4.426
    1CHTO  C123  426   0.252   9.605   4.547
    1CHTO  H227  427   0.269   9.676   4.631
    1CHTO   O77  428   0.112   9.579   4.530
    1CHTO  C118  429   0.053   9.526   4.650
    1CHTO  H222  430   0.067   9.597   4.734
    1CHTO  C125  431  -0.100   9.504   4.628
    1CHTO   O84  432  -0.159   9.630   4.595
    1CHTO  H205  433  -0.251   9.620   4.575
    1CHTO  C114  434   0.116   9.391   4.686
    1CHTO  H218  435   0.093   9.319   4.606
    1CHTO  C116  436   0.270   9.406   4.699
    1CHTO  H220  437   0.296   9.468   4.787
    1CHTO   O79  438   0.332   9.277   4.715
    1CHTO  H201  439   0.426   9.285   4.721
    1CHTO  C120  440   0.325   9.471   4.570
    1CHTO  H224  441   0.304   9.400   4.486
    1CHTO   N21  442   0.469   9.487   4.583
    1CHTO  H211  443   0.492   9.569   4.649
    1CHTO  H212  444   0.515   9.501   4.486
    1CHTO   O75  445   0.053   9.353   4.808
    1CHTO  C112  446   0.084   9.218   4.850
    1CHTO  H216  447   0.189   9.210   4.880
    1CHTO   O73  448   0.049   9.127   4.744
    1CHTO  C113  449   0.069   8.991   4.783
    1CHTO  H217  450   0.173   8.978   4.816
    1CHTO  C124  451   0.047   8.903   4.659
    1CHTO   O83  452   0.124   8.953   4.548
    1CHTO  H204  453   0.106   8.900   4.471
    1CHTO  C109  454  -0.026   8.952   4.899
    1CHTO  H213  455  -0.130   8.970   4.863
    1CHTO  C110  456   0.009   9.044   5.017
    1CHTO  H214  457   0.111   9.026   5.050
    1CHTO   O78  458  -0.081   9.022   5.126
    1CHTO  H200  459  -0.062   9.080   5.198
    1CHTO  C111  460  -0.009   9.190   4.971
    1CHTO  H215  461  -0.114   9.207   4.941
    1CHTO   N19  462   0.023   9.285   5.078
    1CHTO  H207  463  -0.000   9.385   5.046
    1CHTO  H208  464   0.127   9.278   5.105
    1CHTO   O74  465  -0.013   8.811   4.933
    1CHTO  C115  466  -0.126   8.759   5.007
    1CHTO  H219  467  -0.188   8.839   5.046
    1CHTO   O76  468  -0.212   8.681   4.923
    1CHTO  C122  469  -0.139   8.583   4.847
    1CHTO  H226  470  -0.086   8.635   4.768
    1CHTO  C126  471  -0.238   8.485   4.777
    1CHTO   O85  472  -0.311   8.404   4.870
    1CHTO  H206  473  -0.358   8.456   4.932
    1CHTO  C121  474  -0.036   8.506   4.937
    1CHTO  H225  475  -0.040   8.398   4.914
    1CHTO   O81  476   0.095   8.557   4.908
    1CHTO  H202  477   0.120   8.541   4.818
    1CHTO  C119  478  -0.071   8.529   5.086
    1CHTO  H223  479  -0.176   8.498   5.093
    1CHTO  C117  480  -0.071   8.678   5.126
    1CHTO  H221  481   0.027   8.718   5.155
    1CHTO   N20  482  -0.159   8.699   5.242
    1CHTO  H209  483  -0.126   8.638   5.325
    1CHTO  H210  484  -0.262   8.679   5.219
    1CHTO   O80  485  -0.008   8.442   5.182
    1CHTO  C103  486   0.134   8.416   5.170
    1CHTO  H190  487   0.157   8.376   5.071
    1CHTO  C101  488   0.231   8.535   5.199
    1CHTO  H188  489   0.207   8.582   5.295
    1CHTO   O68  490   0.225   8.634   5.093
    1CHTO  H168  491   0.273   8.713   5.117
    1CHTO   C99  492   0.376   8.478   5.207
    1CHTO  H186  493   0.404   8.432   5.111
    1CHTO   N17  494   0.477   8.581   5.240
    1CHTO  H174  495   0.445   8.636   5.328
    1CHTO  H175  496   0.492   8.649   5.157
    1CHTO   C97  497   0.387   8.367   5.313
    1CHTO  H184  498   0.358   8.409   5.410
    1CHTO   O64  499   0.298   8.262   5.273
    1CHTO  C104  500   0.162   8.304   5.274
    1CHTO  H191  501   0.135   8.340   5.373
    1CHTO  C108  502   0.072   8.184   5.244
    1CHTO   O71  503   0.103   8.079   5.337
    1CHTO  H171  504   0.051   8.002   5.317
    1CHTO   O62  505   0.521   8.319   5.316
    1CHTO   C91  506   0.558   8.256   5.440
    1CHTO  H178  507   0.547   8.331   5.520
    1CHTO   C92  508   0.707   8.221   5.433
    1CHTO  H179  509   0.766   8.312   5.406
    1CHTO   O66  510   0.751   8.180   5.562
    1CHTO  H166  511   0.845   8.164   5.564
    1CHTO   C93  512   0.733   8.108   5.331
    1CHTO  H180  513   0.832   8.063   5.354
    1CHTO   N16  514   0.740   8.158   5.193
    1CHTO  H172  515   0.645   8.198   5.163
    1CHTO  H173  516   0.769   8.077   5.127
    1CHTO   C94  517   0.623   7.998   5.345
    1CHTO  H181  518   0.547   8.008   5.270
    1CHTO   O61  519   0.563   8.011   5.475
    1CHTO   C95  520   0.480   8.128   5.480
    1CHTO  H182  521   0.395   8.114   5.414
    1CHTO  C106  522   0.423   8.141   5.624
    1CHTO   O69  523   0.348   8.022   5.650
    1CHTO  H169  524   0.305   8.027   5.736
    1CHTO   O63  525   0.694   7.872   5.335
    1CHTO   C96  526   0.606   7.759   5.326
    1CHTO  H183  527   0.533   7.779   5.247
    1CHTO   C98  528   0.529   7.727   5.456
    1CHTO  H185  529   0.462   7.809   5.484
    1CHTO   O67  530   0.446   7.614   5.429
    1CHTO  H167  531   0.392   7.597   5.506
    1CHTO  C102  532   0.629   7.693   5.571
    1CHTO  H189  533   0.572   7.634   5.644
    1CHTO   N18  534   0.679   7.811   5.642
    1CHTO  H176  535   0.596   7.870   5.681
    1CHTO  H177  536   0.741   7.874   5.580
    1CHTO  C105  537   0.745   7.608   5.516
    1CHTO  H192  538   0.832   7.672   5.499
    1CHTO   O65  539   0.707   7.544   5.393
    1CHTO  C100  540   0.691   7.637   5.285
    1CHTO  H187  541   0.792   7.673   5.257
    1CHTO  C107  542   0.631   7.563   5.164
    1CHTO   O70  543   0.495   7.531   5.191
    1CHTO  H170  544   0.453   7.492   5.115
    1CHTO   O57  545   0.770   7.514   5.623
    1CHTO   C85  546   0.864   7.411   5.594
    1CHTO  H157  547   0.824   7.346   5.514
    1CHTO   C83  548   0.874   7.325   5.722
    1CHTO  H155  549   0.775   7.289   5.752
    1CHTO   O56  550   0.925   7.407   5.828
    1CHTO  H135  551   0.867   7.481   5.844
    1CHTO   C81  552   0.967   7.205   5.698
    1CHTO  H153  553   0.915   7.132   5.634
    1CHTO   N14  554   0.998   7.139   5.826
    1CHTO  H141  555   0.907   7.102   5.869
    1CHTO  H142  556   1.044   7.209   5.895
    1CHTO   C79  557   1.097   7.249   5.628
    1CHTO  H151  558   1.089   7.220   5.522
    1CHTO   O52  559   1.112   7.393   5.635
    1CHTO   C86  560   1.007   7.463   5.562
    1CHTO  H158  561   1.018   7.567   5.594
    1CHTO   C90  562   1.035   7.461   5.411
    1CHTO   O60  563   1.176   7.477   5.391
    1CHTO  H138  564   1.195   7.475   5.297
    1CHTO   O50  565   1.211   7.184   5.687
    1CHTO   C73  566   1.338   7.219   5.629
    1CHTO  H145  567   1.352   7.328   5.627
    1CHTO   C74  568   1.356   7.161   5.488
    1CHTO  H146  569   1.283   7.207   5.419
    1CHTO   O54  570   1.487   7.194   5.440
    1CHTO  H133  571   1.497   7.160   5.352
    1CHTO   C75  572   1.338   7.008   5.496
    1CHTO  H147  573   1.237   6.986   5.535
    1CHTO   N13  574   1.353   6.947   5.362
    1CHTO  H139  575   1.278   6.987   5.296
    1CHTO  H140  576   1.340   6.841   5.370
    1CHTO   C76  577   1.446   6.954   5.593
    1CHTO  H148  578   1.544   6.976   5.549
    1CHTO   O49  579   1.434   7.014   5.724
    1CHTO   C77  580   1.446   7.156   5.722
    1CHTO  H149  581   1.544   7.184   5.686
    1CHTO   C88  582   1.432   7.211   5.865
    1CHTO   O58  583   1.536   7.156   5.948
    1CHTO  H136  584   1.534   7.191   6.036
    1CHTO   O51  585   1.422   6.812   5.609
    1CHTO   C78  586   1.519   6.747   5.693
    1CHTO  H150  587   1.549   6.811   5.778
    1CHTO   C80  588   1.644   6.707   5.614
    1CHTO  H152  589   1.613   6.649   5.525
    1CHTO   O55  590   1.715   6.825   5.573
    1CHTO  H134  591   1.789   6.804   5.518
    1CHTO   C84  592   1.737   6.622   5.703
    1CHTO  H156  593   1.773   6.684   5.785
    1CHTO   N15  594   1.853   6.576   5.625
    1CHTO  H143  595   1.819   6.515   5.544
    1CHTO  H144  596   1.917   6.518   5.689
    1CHTO   C87  597   1.658   6.502   5.759
    1CHTO  H159  598   1.626   6.438   5.675
    1CHTO   O53  599   1.546   6.550   5.834
    1CHTO   C82  600   1.452   6.620   5.750
    1CHTO  H154  601   1.417   6.555   5.670
    1CHTO   C89  602   1.328   6.661   5.834
    1CHTO   O59  603   1.272   6.541   5.890
    1CHTO  H137  604   1.197   6.564   5.943
    1CHTO   O45  605   1.747   6.428   5.846
    1CHTO   C67  606   1.676   6.337   5.932
    1CHTO  H124  607   1.609   6.393   5.998
    1CHTO   C65  608   1.592   6.239   5.848
    1CHTO  H122  609   1.647   6.217   5.756
    1CHTO   O44  610   1.466   6.304   5.820
    1CHTO  H102  611   1.412   6.254   5.760
    1CHTO   C63  612   1.577   6.105   5.923
    1CHTO  H120  613   1.662   6.040   5.899
    1CHTO   N11  614   1.458   6.026   5.882
    1CHTO  H108  615   1.460   6.010   5.776
    1CHTO  H109  616   1.366   6.078   5.909
    1CHTO   C61  617   1.576   6.130   6.076
    1CHTO  H118  618   1.559   6.032   6.124
    1CHTO   O40  619   1.701   6.179   6.120
    1CHTO   C68  620   1.772   6.258   6.023
    1CHTO  H125  621   1.834   6.191   5.961
    1CHTO   C72  622   1.869   6.353   6.098
    1CHTO   O48  623   1.954   6.425   6.009
    1CHTO  H105  624   2.015   6.479   6.059
    1CHTO   O38  625   1.474   6.223   6.117
    1CHTO   C55  626   1.446   6.209   6.257
    1CHTO  H112  627   1.538   6.183   6.311
    1CHTO   C56  628   1.331   6.108   6.283
    1CHTO  H113  629   1.241   6.147   6.234
    1CHTO   O42  630   1.357   5.979   6.225
    1CHTO  H100  631   1.281   5.923   6.233
    1CHTO   C57  632   1.309   6.095   6.435
    1CHTO  H114  633   1.399   6.055   6.482
    1CHTO   N10  634   1.195   6.005   6.464
    1CHTO  H106  635   1.154   6.026   6.561
    1CHTO  H107  636   1.226   5.902   6.459
    1CHTO   C58  637   1.280   6.234   6.492
    1CHTO  H115  638   1.182   6.269   6.455
    1CHTO   O37  639   1.383   6.328   6.459
    1CHTO   C59  640   1.397   6.344   6.317
    1CHTO  H116  641   1.303   6.375   6.272
    1CHTO   C70  642   1.504   6.452   6.297
    1CHTO   O46  643   1.468   6.573   6.366
    1CHTO  H103  644   1.532   6.639   6.349
    1CHTO   O39  645   1.275   6.218   6.635
    1CHTO   C60  646   1.273   6.341   6.709
    1CHTO  H117  647   1.365   6.396   6.689
    1CHTO   C62  648   1.152   6.429   6.675
    1CHTO  H119  649   1.164   6.465   6.571
    1CHTO   O43  650   1.033   6.349   6.684
    1CHTO  H101  651   0.956   6.397   6.654
    1CHTO   C66  652   1.150   6.549   6.772
    1CHTO  H123  653   1.240   6.610   6.756
    1CHTO   N12  654   1.034   6.635   6.750
    1CHTO  H110  655   0.943   6.587   6.783
    1CHTO  H111  656   1.028   6.663   6.646
    1CHTO   C69  657   1.148   6.498   6.918
    1CHTO  H126  658   1.059   6.435   6.934
    1CHTO   O41  659   1.269   6.425   6.941
    1CHTO   C64  660   1.274   6.306   6.859
    1CHTO  H121  661   1.186   6.242   6.881
    1CHTO   C71  662   1.401   6.225   6.894
    1CHTO   O47  663   1.399   6.201   7.036
    1CHTO  H104  664   1.476   6.150   7.061
    1CHTO   O34  665   1.139   6.617   6.998
    1CHTO   C49  666   1.089   6.596   7.132
    1CHTO   H91  667   0.990   6.549   7.125
    1CHTO   C47  668   1.080   6.735   7.194
    1CHTO   H89  669   1.045   6.723   7.299
    1CHTO   O33  670   0.989   6.822   7.124
    1CHTO   H70  671   0.901   6.786   7.127
    1CHTO   C45  672   1.221   6.800   7.191
    1CHTO   H87  673   1.236   6.857   7.098
    1CHTO    N8  674   1.233   6.893   7.304
    1CHTO   H75  675   1.150   6.962   7.303
    1CHTO   H76  676   1.326   6.948   7.299
    1CHTO   C43  677   1.332   6.691   7.198
    1CHTO   H85  678   1.350   6.655   7.097
    1CHTO   O29  679   1.285   6.588   7.285
    1CHTO   C50  680   1.181   6.511   7.223
    1CHTO   H92  681   1.226   6.431   7.162
    1CHTO   C54  682   1.100   6.436   7.330
    1CHTO   O36  683   1.189   6.349   7.403
    1CHTO   H72  684   1.140   6.301   7.469
    1CHTO   O27  685   1.453   6.750   7.248
    1CHTO   C37  686   1.558   6.656   7.276
    1CHTO   H79  687   1.526   6.581   7.350
    1CHTO   C38  688   1.601   6.580   7.148
    1CHTO   H80  689   1.617   6.652   7.066
    1CHTO   O31  690   1.501   6.485   7.114
    1CHTO   H68  691   1.523   6.437   7.035
    1CHTO   C39  692   1.732   6.499   7.174
    1CHTO   H81  693   1.709   6.422   7.249
    1CHTO    N7  694   1.778   6.434   7.051
    1CHTO   H73  695   1.859   6.367   7.072
    1CHTO   H74  696   1.807   6.507   6.977
    1CHTO   C40  697   1.843   6.589   7.231
    1CHTO   H82  698   1.869   6.668   7.158
    1CHTO   O26  699   1.794   6.646   7.354
    1CHTO   C41  700   1.680   6.733   7.331
    1CHTO   H83  701   1.709   6.812   7.260
    1CHTO   C52  702   1.647   6.797   7.467
    1CHTO   O35  703   1.762   6.863   7.523
    1CHTO   H71  704   1.739   6.913   7.601
    1CHTO   O28  705   1.960   6.510   7.259
    1CHTO   C42  706   2.075   6.581   7.307
    1CHTO   H84  707   2.148   6.502   7.331
    1CHTO   C44  708   2.056   6.660   7.438
    1CHTO   H86  709   1.992   6.748   7.418
    1CHTO   O32  710   1.994   6.578   7.537
    1CHTO   H69  711   1.975   6.629   7.615
    1CHTO   C48  712   2.194   6.712   7.484
    1CHTO   H90  713   2.261   6.627   7.502
    1CHTO    N9  714   2.182   6.786   7.613
    1CHTO   H77  715   2.130   6.879   7.598
    1CHTO   H78  716   2.279   6.803   7.656
    1CHTO   C51  717   2.252   6.802   7.371
    1CHTO   H93  718   2.183   6.886   7.355
    1CHTO   O30  719   2.267   6.722   7.255
    1CHTO   C46  720   2.142   6.674   7.203
    1CHTO   H88  721   2.075   6.759   7.181
    1CHTO   C53  722   2.176   6.596   7.074
    1CHTO   O72  723   2.056   6.549   7.011
    1CHTO  H199  724   2.075   6.501   6.932
    1CHTO   O22  725   2.382   6.847   7.413
    1CHTO   C31  726   2.449   6.942   7.325
    1CHTO   H59  727   2.547   6.961   7.370
    1CHTO   C29  728   2.474   6.894   7.181
    1CHTO   H57  729   2.379   6.881   7.128
    1CHTO   O21  730   2.540   6.767   7.181
    1CHTO   H37  731   2.623   6.773   7.226
    1CHTO   C27  732   2.560   6.999   7.108
    1CHTO   H55  733   2.657   7.007   7.160
    1CHTO    N5  734   2.582   6.959   6.969
    1CHTO   H43  735   2.490   6.947   6.914
    1CHTO   H44  736   2.639   6.867   6.962
    1CHTO   C25  737   2.487   7.134   7.112
    1CHTO   H53  738   2.392   7.123   7.058
    1CHTO   O17  739   2.460   7.174   7.248
    1CHTO   C32  740   2.378   7.080   7.317
    1CHTO   H60  741   2.282   7.068   7.265
    1CHTO   C36  742   2.352   7.137   7.458
    1CHTO   O25  743   2.279   7.259   7.448
    1CHTO   H40  744   2.259   7.293   7.534
    1CHTO   O15  745   2.570   7.231   7.045
    1CHTO   C19  746   2.510   7.362   7.029
    1CHTO   H47  747   2.589   7.420   6.980
    1CHTO   C20  748   2.387   7.365   6.936
    1CHTO   H48  749   2.302   7.310   6.979
    1CHTO   O19  750   2.424   7.305   6.811
    1CHTO   H35  751   2.349   7.307   6.750
    1CHTO   C21  752   2.346   7.512   6.913
    1CHTO   H49  753   2.429   7.565   6.864
    1CHTO    N4  754   2.228   7.521   6.827
    1CHTO   H41  755   2.205   7.625   6.808
    1CHTO   H42  756   2.143   7.474   6.876
    1CHTO   C22  757   2.319   7.576   7.050
    1CHTO   H50  758   2.236   7.523   7.098
    1CHTO   O14  759   2.437   7.571   7.132
    1CHTO   C23  760   2.477   7.436   7.161
    1CHTO   H51  761   2.393   7.388   7.215
    1CHTO   C34  762   2.600   7.442   7.251
    1CHTO   O23  763   2.565   7.510   7.371
    1CHTO   H38  764   2.641   7.522   7.428
    1CHTO   O16  765   2.286   7.712   7.027
    1CHTO   C24  766   2.229   7.775   7.143
    1CHTO   H52  767   2.270   7.734   7.236
    1CHTO   C26  768   2.076   7.758   7.142
    1CHTO   H54  769   2.037   7.789   7.043
    1CHTO   O20  770   2.036   7.621   7.167
    1CHTO   H36  771   1.941   7.614   7.160
    1CHTO   C30  772   2.013   7.848   7.249
    1CHTO   H58  773   2.044   7.817   7.349
    1CHTO    N6  774   1.866   7.839   7.243
    1CHTO   H45  775   1.831   7.885   7.152
    1CHTO   H46  776   1.826   7.893   7.327
    1CHTO   C33  777   2.061   7.993   7.226
    1CHTO   H61  778   2.033   8.027   7.126
    1CHTO   O18  779   2.202   7.999   7.239
    1CHTO   C28  780   2.269   7.923   7.136
    1CHTO   H56  781   2.245   7.963   7.037
    1CHTO   C35  782   2.421   7.938   7.161
    1CHTO   O24  783   2.464   8.073   7.146
    1CHTO   H39  784   2.558   8.078   7.159
    1CHTO    O9  785   1.996   8.081   7.317
    1CHTO   C13  786   2.052   8.214   7.319
    1CHTO   H26  787   2.090   8.241   7.220
    1CHTO   C11  788   2.164   8.217   7.428
    1CHTO   H24  789   2.259   8.181   7.385
    1CHTO    O8  790   2.122   8.127   7.531
    1CHTO    H3  791   2.186   8.120   7.599
    1CHTO    C9  792   2.181   8.360   7.480
    1CHTO   H22  793   2.201   8.420   7.390
    1CHTO    N2  794   2.298   8.374   7.569
    1CHTO   H10  795   2.387   8.336   7.519
    1CHTO   H11  796   2.283   8.324   7.663
    1CHTO    C7  797   2.050   8.406   7.548
    1CHTO   H20  798   2.042   8.512   7.520
    1CHTO    O4  799   1.937   8.333   7.502
    1CHTO   C14  800   1.940   8.314   7.360
    1CHTO   H27  801   1.957   8.411   7.309
    1CHTO   C18  802   1.802   8.263   7.314
    1CHTO   O13  803   1.806   8.235   7.173
    1CHTO    H7  804   1.722   8.204   7.142
    1CHTO    O2  805   2.058   8.394   7.692
    1CHTO    C1  806   1.938   8.431   7.761
    1CHTO   H14  807   1.854   8.366   7.730
    1CHTO    C2  808   1.898   8.581   7.741
    1CHTO   H15  809   1.986   8.644   7.761
    1CHTO    O6  810   1.848   8.603   7.608
    1CHTO    H1  811   1.825   8.694   7.597
    1CHTO    C3  812   1.781   8.617   7.837
    1CHTO   H16  813   1.691   8.558   7.810
    1CHTO    N1  814   1.748   8.759   7.824
    1CHTO    H8  815   1.833   8.819   7.852
    1CHTO    H9  816   1.664   8.785   7.887
    1CHTO    C4  817   1.815   8.576   7.983
    1CHTO   H17  818   1.896   8.641   8.019
    1CHTO    O1  819   1.851   8.438   7.990
    1CHTO    C5  820   1.966   8.406   7.911
    1CHTO   H18  821   2.051   8.468   7.942
    1CHTO   C16  822   1.999   8.257   7.938
    1CHTO   O11  823   2.003   8.239   8.080
    1CHTO    H5  824   2.027   8.150   8.101
    1CHTO    O3  825   1.697   8.595   8.061
    1CHTO    C6  826   1.715   8.562   8.201
    1CHTO   H19  827   1.785   8.478   8.215
    1CHTO    C8  828   1.760   8.684   8.282
    1CHTO   H21  829   1.690   8.767   8.265
    1CHTO    O7  830   1.893   8.722   8.242
    1CHTO    H2  831   1.924   8.797   8.293
    1CHTO   C12  832   1.762   8.647   8.431
    1CHTO   H25  833   1.839   8.568   8.445
    1CHTO    N3  834   1.804   8.766   8.508
    1CHTO   H12  835   1.830   8.741   8.609
    1CHTO   H13  836   1.727   8.841   8.507
    1CHTO   C15  837   1.624   8.593   8.475
    1CHTO   H28  838   1.547   8.670   8.469
    1CHTO   O10  839   1.629   8.540   8.610
    1CHTO    H4  840   1.645   8.610   8.673
    1CHTO    O5  841   1.589   8.479   8.395
    1CHTO   C10  842   1.578   8.516   8.256
    1CHTO   H23  843   1.505   8.596   8.247
    1CHTO   C17  844   1.525   8.394   8.180
    1CHTO   O12  845   1.400   8.354   8.236
    1CHTO    H6  846   1.367   8.276   8.193
    2CHTO  H203  847   4.955   9.271   5.554
    2CHTO   O82  848   5.043   9.247   5.582
    2CHTO  C123  849   5.134   9.249   5.473
    2CHTO  H227  850   5.136   9.351   5.430
    2CHTO   O77  851   5.263   9.214   5.526
    2CHTO  C118  852   5.366   9.223   5.427
    2CHTO  H222  853   5.371   9.325   5.385
    2CHTO  C125  854   5.504   9.189   5.491
    2CHTO   O84  855   5.529   9.282   5.596
    2CHTO  H205  856   5.610   9.262   5.641
    2CHTO  C114  857   5.340   9.122   5.314
    2CHTO  H218  858   5.345   9.020   5.355
    2CHTO  C116  859   5.199   9.146   5.253
    2CHTO  H220  860   5.195   9.242   5.199
    2CHTO   O79  861   5.166   9.041   5.160
    2CHTO  H201  862   5.079   9.054   5.124
    2CHTO  C120  863   5.095   9.143   5.368
    2CHTO  H224  864   5.097   9.041   5.412
    2CHTO   N21  865   4.963   9.167   5.311
    2CHTO  H211  866   4.951   9.272   5.286
    2CHTO  H212  867   4.885   9.135   5.379
    2CHTO   O75  868   5.445   9.145   5.221
    2CHTO  C112  869   5.451   9.046   5.114
    2CHTO  H216  870   5.364   9.057   5.048
    2CHTO   O73  871   5.461   8.915   5.173
    2CHTO  C113  872   5.477   8.814   5.073
    2CHTO  H217  873   5.393   8.821   5.002
    2CHTO  C124  874   5.469   8.678   5.142
    2CHTO   O83  875   5.353   8.671   5.227
    2CHTO  H204  876   5.351   8.588   5.273
    2CHTO  C109  877   5.610   8.832   4.996
    2CHTO  H213  878   5.692   8.828   5.071
    2CHTO  C110  879   5.603   8.970   4.928
    2CHTO  H214  880   5.522   8.972   4.855
    2CHTO   O78  881   5.726   8.999   4.862
    2CHTO  H200  882   5.724   9.085   4.822
    2CHTO  C111  883   5.582   9.076   5.037
    2CHTO  H215  884   5.668   9.074   5.107
    2CHTO   N19  885   5.574   9.211   4.980
    2CHTO  H207  886   5.570   9.283   5.060
    2CHTO  H208  887   5.487   9.220   4.917
    2CHTO   O74  888   5.631   8.724   4.900
    2CHTO  C115  889   5.768   8.710   4.858
    2CHTO  H219  890   5.827   8.797   4.884
    2CHTO   O76  891   5.832   8.599   4.923
    2CHTO  C122  892   5.753   8.479   4.913
    2CHTO  H226  893   5.669   8.489   4.982
    2CHTO  C126  894   5.836   8.357   4.963
    2CHTO   O85  895   5.948   8.327   4.878
    2CHTO  H206  896   6.005   8.402   4.868
    2CHTO  C121  897   5.699   8.457   4.769
    2CHTO  H225  898   5.712   8.350   4.740
    2CHTO   O81  899   5.560   8.491   4.767
    2CHTO  H202  900   5.508   8.436   4.824
    2CHTO  C119  901   5.779   8.546   4.670
    2CHTO  H223  902   5.883   8.519   4.689
    2CHTO  C117  903   5.769   8.696   4.704
    2CHTO  H221  904   5.682   8.748   4.663
    2CHTO   N20  905   5.886   8.768   4.651
    2CHTO  H209  906   5.894   8.753   4.544
    2CHTO  H210  907   5.978   8.736   4.699
    2CHTO   O80  908   5.765   8.517   4.530
    2CHTO  C103  909   5.633   8.492   4.476
    2CHTO  H190  910   5.584   8.410   4.530
    2CHTO  C101  911   5.535   8.613   4.470
    2CHTO  H188  912   5.582   8.699   4.422
    2CHTO   O68  913   5.489   8.650   4.602
    2CHTO  H168  914   5.440   8.732   4.601
    2CHTO   C99  915   5.411   8.571   4.384
    2CHTO  H186  916   5.359   8.486   4.432
    2CHTO   N17  917   5.313   8.680   4.367
    2CHTO  H174  918   5.363   8.769   4.331
    2CHTO  H175  919   5.261   8.701   4.459
    2CHTO   C97  920   5.453   8.523   4.245
    2CHTO  H184  921   5.506   8.605   4.195
    2CHTO   O64  922   5.538   8.409   4.262
    2CHTO  C104  923   5.659   8.443   4.331
    2CHTO  H191  924   5.712   8.520   4.276
    2CHTO  C108  925   5.751   8.321   4.334
    2CHTO   O71  926   5.768   8.273   4.200
    2CHTO  H171  927   5.822   8.195   4.201
    2CHTO   O62  928   5.337   8.486   4.171
    2CHTO   C91  929   5.354   8.490   4.028
    2CHTO  H178  930   5.379   8.594   4.001
    2CHTO   C92  931   5.217   8.460   3.964
    2CHTO  H179  932   5.140   8.529   4.004
    2CHTO   O66  933   5.226   8.486   3.824
    2CHTO  H166  934   5.142   8.475   3.781
    2CHTO   C93  935   5.176   8.313   3.986
    2CHTO  H180  936   5.099   8.287   3.912
    2CHTO   N16  937   5.116   8.292   4.119
    2CHTO  H172  938   5.188   8.310   4.197
    2CHTO  H173  939   5.079   8.190   4.126
    2CHTO   C94  940   5.300   8.220   3.966
    2CHTO  H181  941   5.344   8.191   4.060
    2CHTO   O61  942   5.397   8.291   3.888
    2CHTO   C95  943   5.459   8.394   3.967
    2CHTO  H182  944   5.518   8.348   4.046
    2CHTO  C106  945   5.558   8.472   3.876
    2CHTO   O69  946   5.655   8.377   3.829
    2CHTO  H169  947   5.722   8.421   3.777
    2CHTO   O63  948   5.250   8.106   3.892
    2CHTO   C96  949   5.346   7.999   3.881
    2CHTO  H183  950   5.384   7.977   3.982
    2CHTO   C98  951   5.466   8.030   3.789
    2CHTO  H185  952   5.525   8.114   3.827
    2CHTO   O67  953   5.551   7.916   3.791
    2CHTO  H167  954   5.629   7.936   3.740
    2CHTO  C102  955   5.417   8.057   3.643
    2CHTO  H189  956   5.503   8.038   3.578
    2CHTO   N18  957   5.376   8.197   3.620
    2CHTO  H176  958   5.457   8.264   3.645
    2CHTO  H177  959   5.288   8.224   3.676
    2CHTO  C105  960   5.304   7.960   3.607
    2CHTO  H192  961   5.207   8.010   3.618
    2CHTO   O65  962   5.306   7.844   3.693
    2CHTO  C100  963   5.271   7.875   3.828
    2CHTO  H187  964   5.163   7.896   3.831
    2CHTO  C107  965   5.297   7.751   3.916
    2CHTO   O70  966   5.438   7.731   3.930
    2CHTO  H170  967   5.458   7.660   3.989
    2CHTO   O57  968   5.330   7.928   3.469
    2CHTO   C85  969   5.248   7.826   3.412
    2CHTO  H157  970   5.268   7.730   3.463
    2CHTO   C83  971   5.294   7.811   3.266
    2CHTO  H155  972   5.403   7.791   3.261
    2CHTO   O56  973   5.271   7.935   3.197
    2CHTO  H135  974   5.318   8.006   3.238
    2CHTO   C81  975   5.219   7.696   3.197
    2CHTO  H153  976   5.256   7.600   3.235
    2CHTO   N14  977   5.243   7.699   3.052
    2CHTO  H141  978   5.348   7.685   3.034
    2CHTO  H142  979   5.213   7.795   3.010
    2CHTO   C79  980   5.067   7.706   3.226
    2CHTO  H151  981   5.044   7.630   3.302
    2CHTO   O52  982   5.034   7.836   3.280
    2CHTO   C86  983   5.097   7.860   3.409
    2CHTO  H158  984   5.081   7.968   3.425
    2CHTO   C90  985   5.021   7.788   3.521
    2CHTO   O60  986   4.880   7.797   3.493
    2CHTO  H138  987   4.831   7.751   3.561
    2CHTO   O50  988   4.991   7.680   3.107
    2CHTO   C73  989   4.849   7.686   3.123
    2CHTO  H145  990   4.818   7.782   3.168
    2CHTO   C74  991   4.793   7.569   3.206
    2CHTO  H146  992   4.831   7.575   3.310
    2CHTO   O54  993   4.650   7.579   3.212
    2CHTO  H133  994   4.617   7.508   3.265
    2CHTO   C75  995   4.835   7.438   3.138
    2CHTO  H147  996   4.946   7.434   3.132
    2CHTO   N13  997   4.785   7.321   3.214
    2CHTO  H139  998   4.827   7.323   3.313
    2CHTO  H140  999   4.816   7.230   3.165
    2CHTO   C76 1000   4.776   7.438   2.994
    2CHTO  H148 1001   4.667   7.440   3.004
    2CHTO   O49 1002   4.822   7.553   2.919
    2CHTO   C77 1003   4.789   7.677   2.980
    2CHTO  H149 1004   4.681   7.688   2.986
    2CHTO   C88 1005   4.841   7.794   2.893
    2CHTO   O58 1006   4.780   7.787   2.762
    2CHTO  H136 1007   4.806   7.859   2.707
    2CHTO   O51 1008   4.825   7.320   2.927
    2CHTO   C78 1009   4.773   7.305   2.793
    2CHTO  H150 1010   4.764   7.403   2.742
    2CHTO   C80 1011   4.636   7.236   2.794
    2CHTO  H152 1012   4.643   7.142   2.852
    2CHTO   O55 1013   4.539   7.323   2.854
    2CHTO  H134 1014   4.454   7.280   2.862
    2CHTO   C84 1015   4.592   7.206   2.649
    2CHTO  H156 1016   4.577   7.300   2.597
    2CHTO   N15 1017   4.465   7.132   2.650
    2CHTO  H143 1018   4.479   7.039   2.701
    2CHTO  H144 1019   4.436   7.113   2.548
    2CHTO   C87 1020   4.702   7.124   2.579
    2CHTO  H159 1021   4.714   7.028   2.630
    2CHTO   O53 1022   4.825   7.199   2.581
    2CHTO   C82 1023   4.873   7.219   2.714
    2CHTO  H154 1024   4.889   7.123   2.764
    2CHTO   C89 1025   5.010   7.291   2.710
    2CHTO   O59 1026   5.100   7.211   2.632
    2CHTO  H137 1027   5.183   7.254   2.626
    2CHTO   O45 1028   4.660   7.103   2.442
    2CHTO   C67 1029   4.769   7.061   2.358
    2CHTO  H124 1030   4.845   7.140   2.353
    2CHTO   C65 1031   4.834   6.932   2.413
    2CHTO  H122 1032   4.755   6.872   2.458
    2CHTO   O44 1033   4.931   6.974   2.511
    2CHTO  H102 1034   4.970   6.900   2.557
    2CHTO   C63 1035   4.893   6.850   2.297
    2CHTO  H120 1036   4.815   6.783   2.257
    2CHTO   N11 1037   5.001   6.758   2.339
    2CHTO  H108 1038   4.967   6.694   2.417
    2CHTO  H109 1039   5.088   6.814   2.374
    2CHTO   C61 1040   4.942   6.944   2.184
    2CHTO  H118 1041   4.989   6.880   2.107
    2CHTO   O40 1042   4.832   7.011   2.124
    2CHTO   C68 1043   4.722   7.037   2.213
    2CHTO  H125 1044   4.654   6.951   2.211
    2CHTO   C72 1045   4.642   7.159   2.158
    2CHTO   O48 1046   4.523   7.183   2.232
    2CHTO  H105 1047   4.474   7.255   2.193
    2CHTO   O38 1048   5.036   7.042   2.230
    2CHTO   C55 1049   5.111   7.096   2.120
    2CHTO  H112 1050   5.047   7.100   2.030
    2CHTO   C56 1051   5.242   7.016   2.095
    2CHTO  H113 1052   5.304   7.025   2.186
    2CHTO   O42 1053   5.218   6.876   2.075
    2CHTO  H100 1054   5.299   6.828   2.071
    2CHTO   C57 1055   5.316   7.075   1.973
    2CHTO  H114 1056   5.254   7.065   1.884
    2CHTO   N10 1057   5.445   7.007   1.951
    2CHTO  H106 1058   5.512   7.070   1.896
    2CHTO  H107 1059   5.430   6.915   1.898
    2CHTO   C58 1060   5.341   7.224   2.000
    2CHTO  H115 1061   5.414   7.234   2.082
    2CHTO   O37 1062   5.220   7.294   2.031
    2CHTO   C59 1063   5.156   7.241   2.149
    2CHTO  H116 1064   5.224   7.245   2.234
    2CHTO   C70 1065   5.034   7.330   2.174
    2CHTO   O46 1066   5.072   7.468   2.185
    2CHTO  H103 1067   4.997   7.520   2.206
    2CHTO   O39 1068   5.396   7.277   1.878
    2CHTO   C60 1069   5.404   7.420   1.874
    2CHTO  H117 1070   5.303   7.462   1.881
    2CHTO   C62 1071   5.492   7.479   1.985
    2CHTO  H119 1072   5.440   7.462   2.081
    2CHTO   O43 1073   5.617   7.410   1.985
    2CHTO  H101 1074   5.671   7.435   2.060
    2CHTO   C66 1075   5.508   7.631   1.960
    2CHTO  H123 1076   5.409   7.679   1.968
    2CHTO   N12 1077   5.595   7.693   2.060
    2CHTO  H110 1078   5.698   7.663   2.045
    2CHTO  H111 1079   5.562   7.668   2.159
    2CHTO   C69 1080   5.566   7.654   1.819
    2CHTO  H126 1081   5.664   7.604   1.811
    2CHTO   O41 1082   5.472   7.604   1.723
    2CHTO   C64 1083   5.459   7.461   1.735
    2CHTO  H121 1084   5.558   7.412   1.721
    2CHTO   C71 1085   5.364   7.409   1.624
    2CHTO   O47 1086   5.417   7.455   1.498
    2CHTO  H104 1087   5.362   7.424   1.427
    2CHTO   O34 1088   5.583   7.797   1.810
    2CHTO   C49 1089   5.678   7.840   1.710
    2CHTO   H91 1090   5.775   7.793   1.732
    2CHTO   C47 1091   5.686   7.992   1.726
    2CHTO   H89 1092   5.756   8.030   1.648
    2CHTO   O33 1093   5.734   8.032   1.855
    2CHTO   H70 1094   5.822   7.999   1.869
    2CHTO   C45 1095   5.544   8.051   1.706
    2CHTO   H87 1096   5.491   8.057   1.801
    2CHTO    N8 1097   5.557   8.186   1.650
    2CHTO   H75 1098   5.624   8.245   1.713
    2CHTO   H76 1099   5.461   8.235   1.645
    2CHTO   C43 1100   5.460   7.961   1.610
    2CHTO   H85 1101   5.415   7.883   1.670
    2CHTO   O29 1102   5.548   7.911   1.510
    2CHTO   C50 1103   5.636   7.811   1.565
    2CHTO   H92 1104   5.585   7.713   1.561
    2CHTO   C54 1105   5.759   7.793   1.473
    2CHTO   O36 1106   5.714   7.753   1.342
    2CHTO   H72 1107   5.788   7.740   1.285
    2CHTO   O27 1108   5.356   8.040   1.551
    2CHTO   C37 1109   5.281   7.973   1.448
    2CHTO   H79 1110   5.347   7.942   1.365
    2CHTO   C38 1111   5.210   7.847   1.502
    2CHTO   H80 1112   5.157   7.873   1.596
    2CHTO   O31 1113   5.306   7.745   1.525
    2CHTO   H68 1114   5.266   7.666   1.559
    2CHTO   C39 1115   5.109   7.792   1.397
    2CHTO   H81 1116   5.167   7.759   1.309
    2CHTO    N7 1117   5.035   7.677   1.451
    2CHTO   H73 1118   4.976   7.631   1.374
    2CHTO   H74 1119   4.972   7.708   1.533
    2CHTO   C40 1120   5.011   7.901   1.350
    2CHTO   H82 1121   4.950   7.937   1.435
    2CHTO   O26 1122   5.090   8.007   1.293
    2CHTO   C41 1123   5.175   8.070   1.393
    2CHTO   H83 1124   5.112   8.108   1.475
    2CHTO   C52 1125   5.241   8.190   1.322
    2CHTO   O35 1126   5.143   8.278   1.265
    2CHTO   H71 1127   5.183   8.358   1.232
    2CHTO   O28 1128   4.924   7.847   1.249
    2CHTO   C42 1129   4.822   7.936   1.199
    2CHTO   H84 1130   4.774   7.880   1.118
    2CHTO   C44 1131   4.872   8.067   1.135
    2CHTO   H86 1132   4.912   8.133   1.214
    2CHTO   O32 1133   4.975   8.040   1.040
    2CHTO   H69 1134   5.011   8.121   1.006
    2CHTO   C48 1135   4.751   8.138   1.070
    2CHTO   H90 1136   4.707   8.074   0.993
    2CHTO    N9 1137   4.795   8.264   1.003
    2CHTO   H77 1138   4.823   8.337   1.075
    2CHTO   H78 1139   4.716   8.302   0.939
    2CHTO   C51 1140   4.646   8.165   1.182
    2CHTO   H93 1141   4.691   8.230   1.257
    2CHTO   O30 1142   4.604   8.041   1.234
    2CHTO   C46 1143   4.711   7.971   1.301
    2CHTO   H88 1144   4.753   8.033   1.382
    2CHTO   C53 1145   4.648   7.842   1.359
    2CHTO   O72 1146   4.746   7.768   1.433
    2CHTO  H199 1147   4.709   7.688   1.469
    2CHTO   O22 1148   4.532   8.229   1.119
    2CHTO   C31 1149   4.426   8.273   1.209
    2CHTO   H59 1150   4.347   8.314   1.145
    2CHTO   C29 1151   4.362   8.163   1.295
    2CHTO   H57 1152   4.434   8.124   1.368
    2CHTO   O21 1153   4.320   8.053   1.215
    2CHTO   H37 1154   4.256   8.082   1.150
    2CHTO   C27 1155   4.241   8.224   1.371
    2CHTO   H55 1156   4.167   8.258   1.296
    2CHTO    N5 1157   4.180   8.123   1.458
    2CHTO   H43 1158   4.250   8.085   1.531
    2CHTO   H44 1159   4.139   8.040   1.401
    2CHTO   C25 1160   4.290   8.343   1.455
    2CHTO   H53 1161   4.362   8.305   1.529
    2CHTO   O17 1162   4.354   8.441   1.372
    2CHTO   C32 1163   4.469   8.389   1.303
    2CHTO   H60 1164   4.542   8.351   1.376
    2CHTO   C36 1165   4.531   8.505   1.223
    2CHTO   O25 1166   4.577   8.605   1.313
    2CHTO   H40 1167   4.620   8.675   1.265
    2CHTO   O15 1168   4.175   8.399   1.522
    2CHTO   C19 1169   4.207   8.504   1.616
    2CHTO   H47 1170   4.107   8.535   1.653
    2CHTO   C20 1171   4.289   8.460   1.738
    2CHTO   H48 1172   4.391   8.430   1.710
    2CHTO   O19 1173   4.222   8.349   1.800
    2CHTO   H35 1174   4.271   8.320   1.878
    2CHTO   C21 1175   4.297   8.578   1.838
    2CHTO   H49 1176   4.196   8.604   1.871
    2CHTO    N4 1177   4.377   8.542   1.955
    2CHTO   H41 1178   4.376   8.624   2.026
    2CHTO   H42 1179   4.479   8.521   1.926
    2CHTO   C22 1180   4.358   8.698   1.765
    2CHTO   H50 1181   4.460   8.672   1.732
    2CHTO   O14 1182   4.277   8.736   1.652
    2CHTO   C23 1183   4.270   8.631   1.554
    2CHTO   H51 1184   4.373   8.612   1.519
    2CHTO   C34 1185   4.185   8.683   1.438
    2CHTO   O23 1186   4.248   8.798   1.383
    2CHTO   H38 1187   4.195   8.838   1.314
    2CHTO   O16 1188   4.361   8.806   1.857
    2CHTO   C24 1189   4.444   8.915   1.812
    2CHTO   H52 1190   4.442   8.923   1.702
    2CHTO   C26 1191   4.588   8.895   1.861
    2CHTO   H54 1192   4.587   8.875   1.970
    2CHTO   O20 1193   4.654   8.786   1.794
    2CHTO   H36 1194   4.741   8.773   1.831
    2CHTO   C30 1195   4.668   9.024   1.837
    2CHTO   H58 1196   4.678   9.044   1.730
    2CHTO    N6 1197   4.805   9.009   1.892
    2CHTO   H45 1198   4.800   9.006   1.999
    2CHTO   H46 1199   4.862   9.095   1.862
    2CHTO   C33 1200   4.595   9.142   1.903
    2CHTO   H61 1201   4.582   9.124   2.011
    2CHTO   O18 1202   4.467   9.157   1.843
    2CHTO   C28 1203   4.381   9.043   1.868
    2CHTO   H56 1204   4.365   9.031   1.976
    2CHTO   C35 1205   4.246   9.072   1.799
    2CHTO   O24 1206   4.181   9.185   1.856
    2CHTO   H39 1207   4.098   9.198   1.813
    2CHTO    O9 1208   4.673   9.260   1.892
    2CHTO   C13 1209   4.601   9.380   1.929
    2CHTO   H26 1210   4.528   9.358   2.009
    2CHTO   C11 1211   4.533   9.437   1.801
    2CHTO   H24 1212   4.436   9.388   1.785
    2CHTO    O8 1213   4.620   9.405   1.692
    2CHTO    H3 1214   4.585   9.433   1.610
    2CHTO    C9 1215   4.513   9.588   1.816
    2CHTO   H22 1216   4.455   9.600   1.909
    2CHTO    N2 1217   4.431   9.646   1.707
    2CHTO   H10 1218   4.337   9.591   1.698
    2CHTO   H11 1219   4.484   9.646   1.613
    2CHTO    C7 1220   4.650   9.657   1.829
    2CHTO   H20 1221   4.633   9.737   1.903
    2CHTO    O4 1222   4.751   9.568   1.876
    2CHTO   C14 1223   4.704   9.484   1.982
    2CHTO   H27 1224   4.656   9.546   2.061
    2CHTO   C18 1225   4.824   9.414   2.048
    2CHTO   O13 1226   4.777   9.323   2.148
    2CHTO    H7 1227   4.850   9.279   2.191
    2CHTO    O2 1228   4.693   9.715   1.704
    2CHTO    C1 1229   4.822   9.777   1.708
    2CHTO   H14 1230   4.900   9.703   1.735
    2CHTO    C2 1231   4.830   9.898   1.806
    2CHTO   H15 1232   4.745   9.966   1.786
    2CHTO    O6 1233   4.829   9.854   1.942
    2CHTO    H1 1234   4.833   9.928   2.001
    2CHTO    C3 1235   4.966   9.972   1.787
    2CHTO   H16 1236   5.049   9.905   1.816
    2CHTO    N1 1237   4.971  10.091   1.873
    2CHTO    H8 1238   4.892  10.159   1.846
    2CHTO    H9 1239   5.066  10.141   1.864
    2CHTO    C4 1240   4.989  10.006   1.637
    2CHTO   H17 1241   4.916  10.083   1.607
    2CHTO    O1 1242   4.978   9.889   1.556
    2CHTO    C5 1243   4.850   9.827   1.564
    2CHTO   H18 1244   4.772   9.898   1.536
    2CHTO   C16 1245   4.851   9.709   1.464
    2CHTO   O11 1246   4.898   9.760   1.338
    2CHTO    H5 1247   4.896   9.692   1.272
    2CHTO    O3 1248   5.123  10.057   1.625
    2CHTO    C6 1249   5.157  10.093   1.490
    2CHTO   H19 1250   5.109  10.029   1.415
    2CHTO    C8 1251   5.124  10.241   1.462
    2CHTO   H21 1252   5.171  10.304   1.539
    2CHTO    O7 1253   4.982  10.259   1.463
    2CHTO    H2 1254   4.958  10.350   1.443
    2CHTO   C12 1255   5.178  10.279   1.323
    2CHTO   H25 1256   5.123  10.218   1.248
    2CHTO    N3 1257   5.147  10.421   1.298
    2CHTO   H12 1258   5.160  10.447   1.195
    2CHTO   H13 1259   5.207  10.485   1.361
    2CHTO   C15 1260   5.329  10.248   1.313
    2CHTO   H28 1261   5.387  10.311   1.381
    2CHTO   O10 1262   5.378  10.265   1.178
    2CHTO    H4 1263   5.374  10.357   1.152
    2CHTO    O5 1264   5.352  10.109   1.341
    2CHTO   C10 1265   5.310  10.076   1.474
    2CHTO   H23 1266   5.362  10.140   1.544
    2CHTO   C17 1267   5.352   9.931   1.501
    2CHTO   O12 1268   5.493   9.919   1.483
    2CHTO    H6 1269   5.522   9.828   1.496
    3CHTO  H203 1270   2.152  11.311   2.828
    3CHTO   O82 1271   2.146  11.320   2.923
    3CHTO  C123 1272   2.175  11.196   2.987
    3CHTO  H227 1273   2.278  11.165   2.959
    3CHTO   O77 1274   2.166  11.219   3.129
    3CHTO  C118 1275   2.204  11.104   3.205
    3CHTO  H222 1276   2.307  11.073   3.179
    3CHTO  C125 1277   2.197  11.136   3.357
    3CHTO   O84 1278   2.286  11.244   3.384
    3CHTO  H205 1279   2.281  11.271   3.475
    3CHTO  C114 1280   2.108  10.987   3.176
    3CHTO  H218 1281   2.007  11.015   3.210
    3CHTO  C116 1282   2.104  10.957   3.023
    3CHTO  H220 1283   2.201  10.917   2.989
    3CHTO   O79 1284   2.002  10.862   2.993
    3CHTO  H201 1285   1.997  10.844   2.900
    3CHTO  C120 1286   2.071  11.089   2.948
    3CHTO  H224 1287   1.969  11.120   2.980
    3CHTO   N21 1288   2.069  11.061   2.805
    3CHTO  H211 1289   2.170  11.051   2.767
    3CHTO  H212 1290   2.017  11.139   2.752
    3CHTO   O75 1291   2.159  10.879   3.253
    3CHTO  C112 1292   2.072  10.763   3.256
    3CHTO  H216 1293   2.067  10.716   3.156
    3CHTO   O73 1294   1.943  10.804   3.304
    3CHTO  C113 1295   1.855  10.692   3.318
    3CHTO  H217 1296   1.847  10.640   3.221
    3CHTO  C124 1297   1.715  10.746   3.353
    3CHTO   O83 1298   1.678  10.850   3.260
    3CHTO  H204 1299   1.593  10.886   3.285
    3CHTO  C109 1300   1.906  10.593   3.426
    3CHTO  H213 1301   1.915  10.651   3.520
    3CHTO  C110 1302   2.043  10.544   3.377
    3CHTO  H214 1303   2.033  10.489   3.283
    3CHTO   O78 1304   2.103  10.459   3.475
    3CHTO  H200 1305   2.189  10.431   3.447
    3CHTO  C111 1306   2.134  10.666   3.358
    3CHTO  H215 1307   2.147  10.718   3.456
    3CHTO   N19 1308   2.268  10.627   3.312
    3CHTO  H207 1309   2.332  10.714   3.310
    3CHTO  H208 1310   2.263  10.584   3.213
    3CHTO   O74 1311   1.812  10.484   3.447
    3CHTO  C115 1312   1.832  10.415   3.572
    3CHTO  H219 1313   1.927  10.439   3.617
    3CHTO   O76 1314   1.733  10.454   3.670
    3CHTO  C122 1315   1.600  10.447   3.616
    3CHTO  H226 1316   1.586  10.531   3.548
    3CHTO  C126 1317   1.496  10.466   3.731
    3CHTO   O85 1318   1.497  10.359   3.826
    3CHTO  H206 1319   1.583  10.346   3.863
    3CHTO  C121 1320   1.576  10.313   3.539
    3CHTO  H225 1321   1.477  10.271   3.566
    3CHTO   O81 1322   1.579  10.342   3.398
    3CHTO  H202 1323   1.510  10.401   3.372
    3CHTO  C119 1324   1.687  10.212   3.576
    3CHTO  H223 1325   1.682  10.208   3.685
    3CHTO  C117 1326   1.829  10.263   3.544
    3CHTO  H221 1327   1.863  10.246   3.441
    3CHTO   N20 1328   1.928  10.197   3.631
    3CHTO  H209 1329   1.922  10.090   3.618
    3CHTO  H210 1330   1.913  10.223   3.735
    3CHTO   O80 1331   1.665  10.075   3.540
    3CHTO  C103 1332   1.615  10.044   3.407
    3CHTO  H190 1333   1.521  10.098   3.388
    3CHTO  C101 1334   1.712  10.071   3.287
    3CHTO  H188 1335   1.810  10.024   3.305
    3CHTO   O68 1336   1.729  10.212   3.264
    3CHTO  H168 1337   1.799  10.230   3.201
    3CHTO   C99 1338   1.650  10.006   3.159
    3CHTO  H186 1339   1.552  10.053   3.137
    3CHTO   N17 1340   1.735  10.020   3.040
    3CHTO  H174 1341   1.835   9.985   3.063
    3CHTO  H175 1342   1.738  10.122   3.005
    3CHTO   C97 1343   1.622   9.857   3.180
    3CHTO  H184 1344   1.717   9.807   3.204
    3CHTO   O64 1345   1.528   9.845   3.288
    3CHTO  C104 1346   1.583   9.892   3.411
    3CHTO  H191 1347   1.674   9.837   3.435
    3CHTO  C108 1348   1.485   9.865   3.524
    3CHTO   O71 1349   1.450   9.725   3.522
    3CHTO  H171 1350   1.386   9.707   3.589
    3CHTO   O62 1351   1.565   9.803   3.060
    3CHTO   C91 1352   1.582   9.660   3.046
    3CHTO  H178 1353   1.691   9.641   3.043
    3CHTO   C92 1354   1.528   9.621   2.908
    3CHTO  H179 1355   1.575   9.682   2.829
    3CHTO   O66 1356   1.564   9.486   2.882
    3CHTO  H166 1357   1.538   9.458   2.795
    3CHTO   C93 1358   1.374   9.634   2.903
    3CHTO  H180 1359   1.337   9.573   2.819
    3CHTO   N16 1360   1.331   9.773   2.877
    3CHTO  H172 1361   1.360   9.837   2.959
    3CHTO  H173 1362   1.224   9.775   2.864
    3CHTO   C94 1363   1.312   9.581   3.036
    3CHTO  H181 1364   1.287   9.661   3.104
    3CHTO   O61 1365   1.408   9.493   3.098
    3CHTO   C95 1366   1.516   9.570   3.153
    3CHTO  H182 1367   1.479   9.631   3.235
    3CHTO  C106 1368   1.620   9.471   3.213
    3CHTO   O69 1369   1.552   9.396   3.315
    3CHTO  H169 1370   1.613   9.338   3.360
    3CHTO   O63 1371   1.195   9.506   2.996
    3CHTO   C96 1372   1.113   9.465   3.106
    3CHTO  H183 1373   1.093   9.553   3.169
    3CHTO   C98 1374   1.175   9.355   3.195
    3CHTO  H185 1375   1.268   9.391   3.244
    3CHTO   O67 1376   1.083   9.328   3.301
    3CHTO  H167 1377   1.123   9.266   3.360
    3CHTO  C102 1378   1.201   9.226   3.112
    3CHTO  H189 1379   1.206   9.143   3.185
    3CHTO   N18 1380   1.329   9.226   3.040
    3CHTO  H176 1381   1.411   9.242   3.110
    3CHTO  H177 1382   1.333   9.300   2.962
    3CHTO  C105 1383   1.084   9.201   3.016
    3CHTO  H192 1384   1.111   9.236   2.916
    3CHTO   O65 1385   0.966   9.271   3.060
    3CHTO  C100 1386   0.979   9.413   3.049
    3CHTO  H187 1387   0.976   9.439   2.941
    3CHTO  C107 1388   0.858   9.480   3.117
    3CHTO   O70 1389   0.869   9.465   3.258
    3CHTO  H170 1390   0.800   9.511   3.304
    3CHTO   O57 1391   1.068   9.058   3.019
    3CHTO   C85 1392   0.955   9.006   2.949
    3CHTO  H157 1393   0.862   9.041   2.998
    3CHTO   C83 1394   0.960   8.853   2.966
    3CHTO  H155 1395   0.964   8.826   3.073
    3CHTO   O56 1396   1.080   8.805   2.904
    3CHTO  H135 1397   1.157   8.843   2.944
    3CHTO   C81 1398   0.836   8.788   2.902
    3CHTO  H153 1399   0.749   8.808   2.965
    3CHTO   N14 1400   0.854   8.642   2.894
    3CHTO  H141 1401   0.864   8.603   2.993
    3CHTO  H142 1402   0.944   8.618   2.837
    3CHTO   C79 1403   0.811   8.846   2.761
    3CHTO  H151 1404   0.726   8.917   2.770
    3CHTO   O52 1405   0.927   8.919   2.714
    3CHTO   C86 1406   0.955   9.036   2.796
    3CHTO  H158 1407   1.056   9.067   2.763
    3CHTO   C90 1408   0.860   9.152   2.762
    3CHTO   O60 1409   0.840   9.153   2.620
    3CHTO  H138 1410   0.780   9.223   2.597
    3CHTO   O50 1411   0.776   8.742   2.669
    3CHTO   C73 1412   0.750   8.786   2.534
    3CHTO  H145 1413   0.834   8.846   2.495
    3CHTO   C74 1414   0.619   8.864   2.522
    3CHTO  H146 1415   0.626   8.959   2.579
    3CHTO   O54 1416   0.597   8.899   2.385
    3CHTO  H133 1417   0.516   8.948   2.378
    3CHTO   C75 1418   0.505   8.775   2.575
    3CHTO  H147 1419   0.525   8.748   2.680
    3CHTO   N13 1420   0.375   8.846   2.566
    3CHTO  H139 1421   0.379   8.935   2.627
    3CHTO  H140 1422   0.297   8.782   2.604
    3CHTO   C76 1423   0.502   8.646   2.488
    3CHTO  H148 1424   0.479   8.677   2.385
    3CHTO   O49 1425   0.629   8.577   2.493
    3CHTO   C77 1426   0.738   8.657   2.449
    3CHTO  H149 1427   0.725   8.684   2.344
    3CHTO   C88 1428   0.868   8.575   2.457
    3CHTO   O58 1429   0.857   8.458   2.373
    3CHTO  H136 1430   0.937   8.407   2.372
    3CHTO   O51 1431   0.402   8.558   2.544
    3CHTO   C78 1432   0.385   8.436   2.469
    3CHTO  H150 1433   0.482   8.399   2.430
    3CHTO   C80 1434   0.288   8.456   2.352
    3CHTO  H152 1435   0.194   8.500   2.390
    3CHTO   O55 1436   0.347   8.542   2.254
    3CHTO  H134 1437   0.286   8.562   2.184
    3CHTO   C84 1438   0.259   8.319   2.286
    3CHTO  H156 1439   0.351   8.281   2.241
    3CHTO   N15 1440   0.159   8.336   2.179
    3CHTO  H143 1441   0.067   8.373   2.222
    3CHTO  H144 1442   0.140   8.240   2.134
    3CHTO   C87 1443   0.208   8.220   2.393
    3CHTO  H159 1444   0.113   8.258   2.434
    3CHTO   O53 1445   0.308   8.208   2.496
    3CHTO   C82 1446   0.329   8.331   2.566
    3CHTO  H154 1447   0.235   8.365   2.611
    3CHTO   C89 1448   0.429   8.308   2.682
    3CHTO   O59 1449   0.376   8.206   2.767
    3CHTO  H137 1450   0.436   8.189   2.837
    3CHTO   O45 1451   0.188   8.093   2.328
    3CHTO   C67 1452   0.176   7.985   2.423
    3CHTO  H124 1453   0.270   7.975   2.479
    3CHTO   C65 1454   0.061   8.012   2.523
    3CHTO  H122 1455  -0.018   8.065   2.469
    3CHTO   O44 1456   0.116   8.094   2.628
    3CHTO  H102 1457   0.050   8.123   2.689
    3CHTO   C63 1458   0.002   7.879   2.572
    3CHTO  H120 1459  -0.077   7.847   2.502
    3CHTO   N11 1460  -0.067   7.889   2.703
    3CHTO  H108 1461  -0.142   7.965   2.699
    3CHTO  H109 1462   0.004   7.913   2.781
    3CHTO   C61 1463   0.111   7.770   2.576
    3CHTO  H118 1464   0.065   7.679   2.617
    3CHTO   O40 1465   0.157   7.739   2.445
    3CHTO   C68 1466   0.152   7.850   2.353
    3CHTO  H125 1467   0.053   7.852   2.304
    3CHTO   C72 1468   0.257   7.825   2.240
    3CHTO   O48 1469   0.249   7.923   2.136
    3CHTO  H105 1470   0.311   7.902   2.068
    3CHTO   O38 1471   0.225   7.807   2.656
    3CHTO   C55 1472   0.301   7.692   2.693
    3CHTO  H112 1473   0.297   7.617   2.613
    3CHTO   C56 1474   0.254   7.633   2.829
    3CHTO  H113 1475   0.270   7.711   2.906
    3CHTO   O42 1476   0.113   7.603   2.830
    3CHTO  H100 1477   0.085   7.578   2.917
    3CHTO   C57 1478   0.336   7.507   2.863
    3CHTO  H114 1479   0.318   7.431   2.786
    3CHTO   N10 1480   0.299   7.453   2.995
    3CHTO  H106 1481   0.379   7.394   3.036
    3CHTO  H107 1482   0.210   7.394   2.989
    3CHTO   C58 1483   0.484   7.545   2.862
    3CHTO  H115 1484   0.505   7.612   2.947
    3CHTO   O37 1485   0.524   7.606   2.739
    3CHTO   C59 1486   0.450   7.727   2.713
    3CHTO  H116 1487   0.464   7.798   2.796
    3CHTO   C70 1488   0.508   7.786   2.584
    3CHTO   O46 1489   0.650   7.804   2.595
    3CHTO  H103 1490   0.683   7.844   2.516
    3CHTO   O39 1491   0.557   7.421   2.879
    3CHTO   C60 1492   0.698   7.432   2.856
    3CHTO  H117 1493   0.716   7.463   2.753
    3CHTO   C62 1494   0.766   7.530   2.952
    3CHTO  H119 1495   0.732   7.632   2.926
    3CHTO   O43 1496   0.726   7.499   3.086
    3CHTO  H101 1497   0.758   7.564   3.148
    3CHTO   C66 1498   0.919   7.519   2.932
    3CHTO  H123 1499   0.944   7.551   2.830
    3CHTO   N12 1500   0.992   7.607   3.024
    3CHTO  H110 1501   0.987   7.569   3.125
    3CHTO  H111 1502   0.954   7.707   3.018
    3CHTO   C69 1503   0.964   7.373   2.953
    3CHTO  H126 1504   0.938   7.341   3.055
    3CHTO   O41 1505   0.902   7.292   2.854
    3CHTO   C64 1506   0.758   7.290   2.872
    3CHTO  H121 1507   0.734   7.252   2.973
    3CHTO   C71 1508   0.695   7.194   2.768
    3CHTO   O47 1509   0.759   7.066   2.783
    3CHTO  H104 1510   0.723   7.004   2.722
    3CHTO   O34 1511   1.108   7.377   2.939
    3CHTO   C49 1512   1.177   7.266   3.000
    3CHTO   H91 1513   1.151   7.263   3.107
    3CHTO   C47 1514   1.326   7.296   2.981
    3CHTO   H89 1515   1.383   7.211   3.023
    3CHTO   O33 1516   1.367   7.418   3.046
    3CHTO   H70 1517   1.353   7.411   3.139
    3CHTO   C45 1518   1.354   7.310   2.828
    3CHTO   H87 1519   1.342   7.415   2.796
    3CHTO    N8 1520   1.492   7.269   2.802
    3CHTO   H75 1521   1.559   7.324   2.867
    3CHTO   H76 1522   1.519   7.287   2.699
    3CHTO   C43 1523   1.255   7.223   2.746
    3CHTO   H85 1524   1.164   7.282   2.731
    3CHTO   O29 1525   1.231   7.103   2.819
    3CHTO   C50 1526   1.149   7.129   2.935
    3CHTO   H92 1527   1.043   7.125   2.906
    3CHTO   C54 1528   1.165   7.014   3.037
    3CHTO   O36 1529   1.126   6.890   2.974
    3CHTO   H72 1530   1.133   6.819   3.036
    3CHTO   O27 1531   1.312   7.195   2.618
    3CHTO   C37 1532   1.237   7.101   2.538
    3CHTO   H79 1533   1.227   7.004   2.590
    3CHTO   C38 1534   1.096   7.153   2.507
    3CHTO   H80 1535   1.102   7.258   2.471
    3CHTO   O31 1536   1.016   7.146   2.624
    3CHTO   H68 1537   0.928   7.178   2.610
    3CHTO   C39 1538   1.027   7.064   2.400
    3CHTO   H81 1539   1.013   6.964   2.443
    3CHTO    N7 1540   0.895   7.118   2.363
    3CHTO   H73 1541   0.842   7.049   2.300
    3CHTO   H74 1542   0.905   7.213   2.314
    3CHTO   C40 1543   1.115   7.049   2.273
    3CHTO   H82 1544   1.130   7.147   2.226
    3CHTO   O26 1545   1.239   6.990   2.316
    3CHTO   C41 1546   1.312   7.078   2.405
    3CHTO   H83 1547   1.330   7.175   2.355
    3CHTO   C52 1548   1.448   7.010   2.430
    3CHTO   O35 1549   1.516   6.982   2.306
    3CHTO   H71 1550   1.605   6.951   2.322
    3CHTO   O28 1551   1.050   6.961   2.180
    3CHTO   C42 1552   1.118   6.942   2.055
    3CHTO   H84 1553   1.058   6.865   2.002
    3CHTO   C44 1554   1.260   6.884   2.062
    3CHTO   H86 1555   1.328   6.961   2.104
    3CHTO   O32 1556   1.263   6.769   2.146
    3CHTO   H69 1557   1.352   6.738   2.157
    3CHTO   C48 1558   1.307   6.852   1.918
    3CHTO   H90 1559   1.240   6.778   1.873
    3CHTO    N9 1560   1.444   6.792   1.921
    3CHTO   H77 1561   1.517   6.865   1.948
    3CHTO   H78 1562   1.468   6.749   1.825
    3CHTO   C51 1563   1.303   6.984   1.836
    3CHTO   H93 1564   1.371   7.055   1.882
    3CHTO   O30 1565   1.169   7.029   1.832
    3CHTO   C46 1566   1.120   7.066   1.963
    3CHTO   H88 1567   1.184   7.144   2.007
    3CHTO   C53 1568   0.977   7.120   1.940
    3CHTO   O72 1569   0.921   7.166   2.065
    3CHTO  H199 1570   0.833   7.199   2.052
    3CHTO   O22 1571   1.345   6.952   1.701
    3CHTO   C31 1572   1.358   7.065   1.610
    3CHTO   H59 1573   1.384   7.021   1.512
    3CHTO   C29 1574   1.231   7.149   1.588
    3CHTO   H57 1575   1.204   7.201   1.681
    3CHTO   O21 1576   1.120   7.066   1.554
    3CHTO   H37 1577   1.139   7.018   1.473
    3CHTO   C27 1578   1.258   7.252   1.477
    3CHTO   H55 1579   1.280   7.197   1.383
    3CHTO    N5 1580   1.141   7.338   1.457
    3CHTO   H43 1581   1.114   7.391   1.546
    3CHTO   H44 1582   1.055   7.281   1.422
    3CHTO   C25 1583   1.379   7.338   1.517
    3CHTO   H53 1584   1.353   7.392   1.610
    3CHTO   O17 1585   1.495   7.255   1.542
    3CHTO   C32 1586   1.474   7.161   1.647
    3CHTO   H60 1587   1.448   7.213   1.740
    3CHTO   C36 1588   1.605   7.083   1.666
    3CHTO   O25 1589   1.707   7.174   1.709
    3CHTO   H40 1590   1.788   7.127   1.726
    3CHTO   O15 1591   1.404   7.431   1.410
    3CHTO   C19 1592   1.507   7.529   1.439
    3CHTO   H47 1593   1.513   7.587   1.345
    3CHTO   C20 1594   1.474   7.627   1.552
    3CHTO   H48 1595   1.469   7.577   1.650
    3CHTO   O19 1596   1.347   7.688   1.524
    3CHTO   H35 1597   1.325   7.751   1.592
    3CHTO   C21 1598   1.584   7.736   1.557
    3CHTO   H49 1599   1.584   7.791   1.462
    3CHTO    N4 1600   1.558   7.831   1.665
    3CHTO   H41 1601   1.634   7.909   1.663
    3CHTO   H42 1602   1.562   7.781   1.761
    3CHTO   C22 1603   1.719   7.666   1.576
    3CHTO   H50 1604   1.718   7.612   1.672
    3CHTO   O14 1605   1.745   7.576   1.467
    3CHTO   C23 1606   1.649   7.470   1.461
    3CHTO   H51 1607   1.655   7.414   1.556
    3CHTO   C34 1608   1.688   7.379   1.344
    3CHTO   O23 1609   1.818   7.326   1.370
    3CHTO   H38 1610   1.850   7.274   1.297
    3CHTO   O16 1611   1.819   7.768   1.576
    3CHTO   C24 1612   1.945   7.720   1.624
    3CHTO   H52 1613   1.961   7.614   1.598
    3CHTO   C26 1614   1.955   7.738   1.776
    3CHTO   H54 1615   1.927   7.842   1.802
    3CHTO   O20 1616   1.867   7.648   1.847
    3CHTO   H36 1617   1.872   7.666   1.941
    3CHTO   C30 1618   2.099   7.713   1.822
    3CHTO   H58 1619   2.129   7.609   1.805
    3CHTO    N6 1620   2.111   7.739   1.968
    3CHTO   H45 1621   2.100   7.844   1.986
    3CHTO   H46 1622   2.209   7.709   1.999
    3CHTO   C33 1623   2.193   7.805   1.742
    3CHTO   H61 1624   2.166   7.910   1.756
    3CHTO   O18 1625   2.184   7.773   1.604
    3CHTO   C28 1626   2.053   7.801   1.550
    3CHTO   H56 1627   2.030   7.908   1.560
    3CHTO   C35 1628   2.056   7.762   1.401
    3CHTO   O24 1629   2.148   7.843   1.327
    3CHTO   H39 1630   2.145   7.818   1.236
    3CHTO    O9 1631   2.327   7.792   1.791
    3CHTO   C13 1632   2.425   7.856   1.706
    3CHTO   H26 1633   2.382   7.945   1.657
    3CHTO   C11 1634   2.474   7.750   1.602
    3CHTO   H24 1635   2.406   7.747   1.516
    3CHTO    O8 1636   2.470   7.624   1.669
    3CHTO    H3 1637   2.494   7.553   1.612
    3CHTO    C9 1638   2.615   7.786   1.555
    3CHTO   H22 1639   2.608   7.888   1.517
    3CHTO    N2 1640   2.661   7.701   1.443
    3CHTO   H10 1641   2.588   7.704   1.362
    3CHTO   H11 1642   2.679   7.599   1.474
    3CHTO    C7 1643   2.713   7.780   1.676
    3CHTO   H20 1644   2.781   7.864   1.659
    3CHTO    O4 1645   2.645   7.796   1.800
    3CHTO   C14 1646   2.545   7.899   1.794
    3CHTO   H27 1647   2.590   7.992   1.752
    3CHTO   C18 1648   2.499   7.932   1.937
    3CHTO   O13 1649   2.394   8.029   1.931
    3CHTO    H7 1650   2.364   8.052   2.019
    3CHTO    O2 1651   2.786   7.656   1.679
    3CHTO    C1 1652   2.875   7.642   1.791
    3CHTO   H14 1653   2.818   7.646   1.886
    3CHTO    C2 1654   2.988   7.749   1.795
    3CHTO   H15 1655   3.036   7.753   1.696
    3CHTO    O6 1656   2.935   7.878   1.831
    3CHTO    H1 1657   3.004   7.942   1.832
    3CHTO    C3 1658   3.091   7.713   1.905
    3CHTO   H16 1659   3.042   7.718   2.005
    3CHTO    N1 1660   3.202   7.809   1.905
    3CHTO    H8 1661   3.252   7.806   1.809
    3CHTO    H9 1662   3.272   7.788   1.983
    3CHTO    C4 1663   3.139   7.566   1.889
    3CHTO   H17 1664   3.200   7.559   1.798
    3CHTO    O1 1665   3.028   7.476   1.886
    3CHTO    C5 1666   2.939   7.502   1.778
    3CHTO   H18 1667   2.993   7.496   1.683
    3CHTO   C16 1668   2.831   7.390   1.781
    3CHTO   O11 1669   2.900   7.265   1.789
    3CHTO    H5 1670   2.837   7.193   1.787
    3CHTO    O3 1671   3.218   7.534   2.005
    3CHTO    C6 1672   3.271   7.400   2.002
    3CHTO   H19 1673   3.203   7.329   1.953
    3CHTO    C8 1674   3.409   7.396   1.934
    3CHTO   H21 1675   3.476   7.469   1.983
    3CHTO    O7 1676   3.396   7.425   1.795
    3CHTO    H2 1677   3.480   7.421   1.750
    3CHTO   C12 1678   3.468   7.254   1.950
    3CHTO   H25 1679   3.401   7.185   1.893
    3CHTO    N3 1680   3.601   7.252   1.886
    3CHTO   H12 1681   3.636   7.151   1.871
    3CHTO   H13 1682   3.672   7.308   1.944
    3CHTO   C15 1683   3.471   7.212   2.098
    3CHTO   H28 1684   3.540   7.274   2.155
    3CHTO   O10 1685   3.508   7.073   2.113
    3CHTO    H4 1686   3.598   7.058   2.085
    3CHTO    O5 1687   3.339   7.219   2.154
    3CHTO   C10 1688   3.289   7.354   2.148
    3CHTO   H23 1689   3.358   7.419   2.200
    3CHTO   C17 1690   3.155   7.356   2.224
    3CHTO   O12 1691   3.175   7.310   2.357
    3CHTO    H6 1692   3.093   7.307   2.405
    4CHTO  H203 1693   7.924   2.175   6.891
    4CHTO   O82 1694   7.855   2.153   6.830
    4CHTO  C123 1695   7.727   2.183   6.884
    4CHTO  H227 1696   7.722   2.291   6.907
    4CHTO   O77 1697   7.630   2.148   6.784
    4CHTO  C118 1698   7.497   2.183   6.823
    4CHTO  H222 1699   7.490   2.291   6.844
    4CHTO  C125 1700   7.396   2.148   6.709
    4CHTO   O84 1701   7.434   2.220   6.592
    4CHTO  H205 1702   7.379   2.197   6.519
    4CHTO  C114 1703   7.455   2.105   6.949
    4CHTO  H218 1704   7.454   1.997   6.925
    4CHTO  C116 1705   7.558   2.129   7.063
    4CHTO  H220 1706   7.553   2.234   7.098
    4CHTO   O79 1707   7.531   2.043   7.175
    4CHTO  H201 1708   7.594   2.056   7.244
    4CHTO  C120 1709   7.700   2.097   7.010
    4CHTO  H224 1710   7.702   1.989   6.985
    4CHTO   N21 1711   7.796   2.122   7.116
    4CHTO  H211 1712   7.812   2.228   7.129
    4CHTO  H212 1713   7.890   2.072   7.096
    4CHTO   O75 1714   7.325   2.152   6.980
    4CHTO  C112 1715   7.259   2.077   7.085
    4CHTO  H216 1716   7.309   2.094   7.181
    4CHTO   O73 1717   7.255   1.939   7.047
    4CHTO  C113 1718   7.183   1.860   7.142
    4CHTO  H217 1719   7.228   1.874   7.242
    4CHTO  C124 1720   7.199   1.713   7.104
    4CHTO   O83 1721   7.338   1.681   7.084
    4CHTO  H204 1722   7.347   1.590   7.055
    4CHTO  C109 1723   7.034   1.902   7.148
    4CHTO  H213 1724   6.993   1.890   7.045
    4CHTO  C110 1725   7.032   2.050   7.190
    4CHTO  H214 1726   7.073   2.060   7.291
    4CHTO   O78 1727   6.898   2.100   7.189
    4CHTO  H200 1728   6.896   2.192   7.212
    4CHTO  C111 1729   7.114   2.130   7.089
    4CHTO  H215 1730   7.068   2.121   6.989
    4CHTO   N19 1731   7.117   2.273   7.124
    4CHTO  H207 1732   7.166   2.328   7.045
    4CHTO  H208 1733   7.168   2.288   7.217
    4CHTO   O74 1734   6.958   1.817   7.237
    4CHTO  C115 1735   6.815   1.821   7.214
    4CHTO  H219 1736   6.788   1.905   7.152
    4CHTO   O76 1737   6.769   1.705   7.144
    4CHTO  C122 1738   6.817   1.583   7.205
    4CHTO  H226 1739   6.923   1.574   7.181
    4CHTO  C126 1740   6.747   1.460   7.141
    4CHTO   O85 1741   6.606   1.456   7.168
    4CHTO  H206 1742   6.562   1.535   7.141
    4CHTO  C121 1743   6.799   1.585   7.360
    4CHTO  H225 1744   6.760   1.488   7.394
    4CHTO   O81 1745   6.928   1.609   7.420
    4CHTO  H202 1746   6.989   1.540   7.401
    4CHTO  C119 1747   6.700   1.697   7.398
    4CHTO  H223 1748   6.611   1.675   7.338
    4CHTO  C117 1749   6.745   1.837   7.351
    4CHTO  H221 1750   6.813   1.890   7.419
    4CHTO   N20 1751   6.629   1.926   7.334
    4CHTO  H209 1752   6.574   1.933   7.427
    4CHTO  H210 1753   6.564   1.892   7.255
    4CHTO   O80 1754   6.646   1.695   7.531
    4CHTO  C103 1755   6.736   1.672   7.642
    4CHTO  H190 1756   6.791   1.578   7.628
    4CHTO  C101 1757   6.840   1.784   7.675
    4CHTO  H188 1758   6.790   1.882   7.684
    4CHTO   O68 1759   6.943   1.792   7.574
    4CHTO  H168 1760   6.998   1.869   7.586
    4CHTO   C99 1761   6.906   1.751   7.813
    4CHTO  H186 1762   6.960   1.654   7.806
    4CHTO   N17 1763   7.002   1.854   7.857
    4CHTO  H174 1764   6.955   1.951   7.853
    4CHTO  H175 1765   7.092   1.853   7.797
    4CHTO   C97 1766   6.801   1.734   7.923
    4CHTO  H184 1767   6.744   1.828   7.931
    4CHTO   O64 1768   6.716   1.625   7.885
    4CHTO  C104 1769   6.643   1.654   7.765
    4CHTO  H191 1770   6.584   1.744   7.779
    4CHTO  C108 1771   6.544   1.541   7.738
    4CHTO   O71 1772   6.463   1.521   7.855
    4CHTO  H171 1773   6.405   1.448   7.841
    4CHTO   O62 1774   6.867   1.704   8.046
    4CHTO   C91 1775   6.790   1.737   8.164
    4CHTO  H178 1776   6.772   1.845   8.161
    4CHTO   C92 1777   6.879   1.710   8.286
    4CHTO  H179 1778   6.975   1.764   8.276
    4CHTO   O66 1779   6.814   1.763   8.401
    4CHTO  H166 1780   6.869   1.754   8.479
    4CHTO   C93 1781   6.903   1.558   8.306
    4CHTO  H180 1782   6.935   1.542   8.410
    4CHTO   N16 1783   7.011   1.508   8.219
    4CHTO  H172 1784   6.983   1.516   8.115
    4CHTO  H173 1785   7.031   1.404   8.244
    4CHTO   C94 1786   6.770   1.481   8.280
    4CHTO  H181 1787   6.767   1.437   8.181
    4CHTO   O61 1788   6.660   1.572   8.295
    4CHTO   C95 1789   6.656   1.662   8.183
    4CHTO  H182 1790   6.631   1.606   8.093
    4CHTO  C106 1791   6.540   1.763   8.207
    4CHTO   O69 1792   6.419   1.686   8.218
    4CHTO  H169 1793   6.344   1.745   8.226
    4CHTO   O63 1794   6.765   1.380   8.384
    4CHTO   C96 1795   6.659   1.284   8.365
    4CHTO  H183 1796   6.665   1.246   8.263
    4CHTO   C98 1797   6.518   1.341   8.388
    4CHTO  H185 1798   6.494   1.421   8.315
    4CHTO   O67 1799   6.425   1.235   8.364
    4CHTO  H167 1800   6.337   1.270   8.370
    4CHTO  C102 1801   6.502   1.392   8.534
    4CHTO  H189 1802   6.394   1.393   8.555
    4CHTO   N18 1803   6.549   1.531   8.554
    4CHTO  H176 1804   6.498   1.598   8.486
    4CHTO  H177 1805   6.656   1.540   8.541
    4CHTO  C105 1806   6.572   1.296   8.631
    4CHTO  H192 1807   6.671   1.336   8.658
    4CHTO   O65 1808   6.589   1.167   8.571
    4CHTO  C100 1809   6.684   1.168   8.463
    4CHTO  H187 1810   6.784   1.180   8.508
    4CHTO  C107 1811   6.680   1.031   8.392
    4CHTO   O70 1812   6.558   1.020   8.319
    4CHTO  H170 1813   6.555   0.940   8.267
    4CHTO   O57 1814   6.484   1.294   8.745
    4CHTO   C85 1815   6.516   1.199   8.847
    4CHTO  H157 1816   6.506   1.096   8.807
    4CHTO   C83 1817   6.409   1.216   8.957
    4CHTO  H155 1818   6.308   1.205   8.915
    4CHTO   O56 1819   6.420   1.349   9.010
    4CHTO  H135 1820   6.406   1.414   8.943
    4CHTO   C81 1821   6.429   1.111   9.068
    4CHTO  H153 1822   6.398   1.013   9.031
    4CHTO   N14 1823   6.346   1.144   9.185
    4CHTO  H141 1824   6.242   1.141   9.155
    4CHTO  H142 1825   6.369   1.244   9.221
    4CHTO   C79 1826   6.578   1.105   9.110
    4CHTO  H151 1827   6.621   1.014   9.064
    4CHTO   O52 1828   6.651   1.219   9.059
    4CHTO   C86 1829   6.655   1.222   8.914
    4CHTO  H158 1830   6.692   1.324   8.891
    4CHTO   C90 1831   6.760   1.124   8.860
    4CHTO   O60 1832   6.874   1.128   8.947
    4CHTO  H138 1833   6.940   1.067   8.915
    4CHTO   O50 1834   6.590   1.096   9.253
    4CHTO   C73 1835   6.725   1.089   9.302
    4CHTO  H145 1836   6.786   1.172   9.263
    4CHTO   C74 1837   6.793   0.955   9.271
    4CHTO  H146 1838   6.805   0.943   9.162
    4CHTO   O54 1839   6.923   0.953   9.329
    4CHTO  H133 1840   6.965   0.871   9.307
    4CHTO   C75 1841   6.705   0.842   9.330
    4CHTO  H147 1842   6.604   0.847   9.285
    4CHTO   N13 1843   6.765   0.710   9.302
    4CHTO  H139 1844   6.771   0.695   9.196
    4CHTO  H140 1845   6.702   0.633   9.344
    4CHTO   C76 1846   6.696   0.867   9.483
    4CHTO  H148 1847   6.797   0.858   9.524
    4CHTO   O49 1848   6.639   0.997   9.513
    4CHTO   C77 1849   6.715   1.104   9.456
    4CHTO  H149 1850   6.815   1.106   9.499
    4CHTO   C88 1851   6.648   1.238   9.493
    4CHTO   O58 1852   6.644   1.252   9.637
    4CHTO  H136 1853   6.608   1.336   9.663
    4CHTO   O51 1854   6.605   0.768   9.537
    4CHTO   C78 1855   6.591   0.775   9.680
    4CHTO  H150 1856   6.592   0.880   9.716
    4CHTO   C80 1857   6.703   0.697   9.752
    4CHTO  H152 1858   6.707   0.595   9.710
    4CHTO   O55 1859   6.829   0.764   9.730
    4CHTO  H134 1860   6.901   0.714   9.768
    4CHTO   C84 1861   6.674   0.693   9.903
    4CHTO  H156 1862   6.679   0.794   9.943
    4CHTO   N15 1863   6.776   0.611   9.971
    4CHTO  H143 1864   6.772   0.511   9.933
    4CHTO  H144 1865   6.755   0.610  10.077
    4CHTO   C87 1866   6.534   0.635   9.927
    4CHTO  H159 1867   6.531   0.531   9.890
    4CHTO   O53 1868   6.437   0.716   9.858
    4CHTO   C82 1869   6.455   0.713   9.716
    4CHTO  H154 1870   6.448   0.610   9.679
    4CHTO   C89 1871   6.342   0.794   9.648
    4CHTO   O59 1872   6.217   0.737   9.688
    4CHTO  H137 1873   6.147   0.787   9.649
    4CHTO   O45 1874   6.509   0.638  10.069
    4CHTO   C67 1875   6.369   0.621  10.100
    4CHTO  H124 1876   6.311   0.704  10.058
    4CHTO   C65 1877   6.316   0.488  10.040
    4CHTO  H122 1878   6.396   0.414  10.045
    4CHTO   O44 1879   6.278   0.517   9.904
    4CHTO  H102 1880   6.253   0.438   9.856
    4CHTO   C63 1881   6.200   0.434  10.127
    4CHTO  H120 1882   6.242   0.372  10.207
    4CHTO   N11 1883   6.108   0.344  10.054
    4CHTO  H108 1884   6.163   0.264  10.009
    4CHTO  H109 1885   6.055   0.398   9.976
    4CHTO   C61 1886   6.122   0.552  10.191
    4CHTO  H118 1887   6.038   0.508  10.246
    4CHTO   O40 1888   6.204   0.621  10.284
    4CHTO   C68 1889   6.344   0.622  10.252
    4CHTO  H125 1890   6.391   0.532  10.297
    4CHTO   C72 1891   6.410   0.746  10.319
    4CHTO   O48 1892   6.552   0.746  10.305
    4CHTO  H105 1893   6.589   0.821  10.351
    4CHTO   O38 1894   6.073   0.646  10.094
    4CHTO   C55 1895   5.968   0.725  10.149
    4CHTO  H112 1896   5.986   0.742  10.256
    4CHTO   C56 1897   5.828   0.662  10.123
    4CHTO  H113 1898   5.814   0.657  10.014
    4CHTO   O42 1899   5.820   0.527  10.171
    4CHTO  H100 1900   5.738   0.486  10.145
    4CHTO   C57 1901   5.719   0.748  10.188
    4CHTO  H114 1902   5.734   0.751  10.297
    4CHTO   N10 1903   5.584   0.695  10.159
    4CHTO  H106 1904   5.510   0.772  10.168
    4CHTO  H107 1905   5.560   0.614  10.225
    4CHTO   C58 1906   5.731   0.891  10.133
    4CHTO  H115 1907   5.703   0.890  10.026
    4CHTO   O37 1908   5.862   0.944  10.150
    4CHTO   C59 1909   5.962   0.865  10.083
    4CHTO  H116 1910   5.939   0.857   9.976
    4CHTO   C70 1911   6.095   0.938  10.103
    4CHTO   O46 1912   6.086   1.074  10.057
    4CHTO  H103 1913   6.171   1.116  10.066
    4CHTO   O39 1914   5.637   0.971  10.207
    4CHTO   C60 1915   5.650   1.112  10.187
    4CHTO  H117 1916   5.749   1.144  10.221
    4CHTO   C62 1917   5.629   1.154  10.041
    4CHTO  H119 1918   5.714   1.115   9.982
    4CHTO   O43 1919   5.507   1.095   9.994
    4CHTO  H101 1920   5.495   1.109   9.900
    4CHTO   C66 1921   5.627   1.308  10.034
    4CHTO  H123 1922   5.725   1.347  10.065
    4CHTO   N12 1923   5.602   1.356   9.898
    4CHTO  H110 1924   5.499   1.337   9.869
    4CHTO  H111 1925   5.671   1.310   9.830
    4CHTO   C69 1926   5.517   1.362  10.129
    4CHTO  H126 1927   5.419   1.322  10.099
    4CHTO   O41 1928   5.551   1.325  10.263
    4CHTO   C64 1929   5.547   1.182  10.279
    4CHTO  H121 1930   5.446   1.144  10.253
    4CHTO   C71 1931   5.575   1.146  10.427
    4CHTO   O47 1932   5.481   1.219  10.507
    4CHTO  H104 1933   5.494   1.199  10.599
    4CHTO   O34 1934   5.520   1.505  10.109
    4CHTO   C49 1935   5.399   1.574  10.148
    4CHTO   H91 1936   5.315   1.531  10.092
    4CHTO   C47 1937   5.421   1.720  10.109
    4CHTO   H89 1938   5.331   1.777  10.141
    4CHTO   O33 1939   5.441   1.738   9.968
    4CHTO   H70 1940   5.364   1.709   9.921
    4CHTO   C45 1941   5.548   1.772  10.183
    4CHTO   H87 1942   5.638   1.755  10.122
    4CHTO    N8 1943   5.533   1.916  10.207
    4CHTO   H75 1944   5.510   1.965  10.113
    4CHTO   H76 1945   5.624   1.957  10.248
    4CHTO   C43 1946   5.567   1.696  10.318
    4CHTO   H85 1947   5.622   1.604  10.297
    4CHTO   O29 1948   5.438   1.673  10.373
    4CHTO   C50 1949   5.369   1.570  10.299
    4CHTO   H92 1950   5.398   1.471  10.339
    4CHTO   C54 1951   5.217   1.579  10.327
    4CHTO   O36 1952   5.194   1.563  10.468
    4CHTO   H72 1953   5.101   1.566  10.486
    4CHTO   O27 1954   5.647   1.777  10.406
    4CHTO   C37 1955   5.658   1.726  10.540
    4CHTO   H79 1956   5.559   1.716  10.587
    4CHTO   C38 1957   5.726   1.587  10.543
    4CHTO   H80 1958   5.817   1.590  10.480
    4CHTO   O31 1959   5.635   1.490  10.493
    4CHTO   H68 1960   5.673   1.403  10.492
    4CHTO   C39 1961   5.761   1.546  10.688
    4CHTO   H81 1962   5.667   1.535  10.744
    4CHTO    N7 1963   5.833   1.418  10.690
    4CHTO   H73 1964   5.845   1.384  10.792
    4CHTO   H74 1965   5.929   1.428  10.643
    4CHTO   C40 1966   5.845   1.656  10.759
    4CHTO   H82 1967   5.941   1.669  10.706
    4CHTO   O26 1968   5.766   1.776  10.758
    4CHTO   C41 1969   5.743   1.824  10.623
    4CHTO   H83 1970   5.841   1.841  10.574
    4CHTO   C52 1971   5.672   1.960  10.638
    4CHTO   O35 1972   5.748   2.050  10.721
    4CHTO   H71 1973   5.710   2.138  10.720
    4CHTO   O28 1974   5.870   1.616  10.895
    4CHTO   C42 1975   5.952   1.705  10.972
    4CHTO   H84 1976   5.951   1.662  11.074
    4CHTO   C44 1977   5.900   1.849  10.987
    4CHTO   H86 1978   5.909   1.901  10.891
    4CHTO   O32 1979   5.763   1.848  11.028
    4CHTO   H69 1980   5.729   1.937  11.031
    4CHTO   C48 1981   5.991   1.923  11.090
    4CHTO   H90 1982   5.986   1.871  11.186
    4CHTO    N9 1983   5.941   2.062  11.111
    4CHTO   H77 1984   5.959   2.122  11.024
    4CHTO   H78 1985   5.989   2.105  11.198
    4CHTO   C51 1986   6.136   1.920  11.035
    4CHTO   H93 1987   6.138   1.972  10.939
    4CHTO   O30 1988   6.177   1.785  11.025
    4CHTO   C46 1989   6.100   1.711  10.928
    4CHTO   H88 1990   6.108   1.759  10.829
    4CHTO   C53 1991   6.162   1.569  10.924
    4CHTO   O72 1992   6.096   1.489  10.825
    4CHTO  H199 1993   6.132   1.402  10.821
    4CHTO   O22 1994   6.220   1.986  11.133
    4CHTO   C31 1995   6.360   2.004  11.095
    4CHTO   H59 1996   6.408   2.051  11.183
    4CHTO   C29 1997   6.438   1.875  11.064
    4CHTO   H57 1998   6.399   1.828  10.973
    4CHTO   O21 1999   6.423   1.780  11.170
    4CHTO   H37 2000   6.456   1.816  11.251
    4CHTO   C27 2001   6.586   1.911  11.044
    4CHTO   H55 2002   6.625   1.953  11.139
    4CHTO    N5 2003   6.663   1.791  11.009
    4CHTO   H43 2004   6.627   1.745  10.919
    4CHTO   H44 2005   6.663   1.718  11.090
    4CHTO   C25 2006   6.597   2.015  10.931
    4CHTO   H53 2007   6.560   1.968  10.838
    4CHTO   O17 2008   6.519   2.132  10.961
    4CHTO   C32 2009   6.380   2.102  10.977
    4CHTO   H60 2010   6.340   2.056  10.885
    4CHTO   C36 2011   6.307   2.235  11.003
    4CHTO   O25 2012   6.321   2.320  10.889
    4CHTO   H40 2013   6.273   2.401  10.901
    4CHTO   O15 2014   6.737   2.048  10.916
    4CHTO   C19 2015   6.766   2.135  10.804
    4CHTO   H47 2016   6.875   2.151  10.812
    4CHTO   C20 2017   6.739   2.074  10.666
    4CHTO   H48 2018   6.632   2.058  10.648
    4CHTO   O19 2019   6.808   1.949  10.657
    4CHTO   H35 2020   6.794   1.909  10.571
    4CHTO   C21 2021   6.793   2.171  10.558
    4CHTO   H49 2022   6.902   2.182  10.571
    4CHTO    N4 2023   6.768   2.119  10.423
    4CHTO   H41 2024   6.811   2.186  10.350
    4CHTO   H42 2025   6.661   2.111  10.406
    4CHTO   C22 2026   6.725   2.307  10.577
    4CHTO   H50 2027   6.617   2.295  10.563
    4CHTO   O14 2028   6.754   2.360  10.708
    4CHTO   C23 2029   6.702   2.276  10.812
    4CHTO   H51 2030   6.592   2.272  10.799
    4CHTO   C34 2031   6.735   2.343  10.946
    4CHTO   O23 2032   6.673   2.471  10.949
    4CHTO   H38 2033   6.697   2.519  11.028
    4CHTO   O16 2034   6.779   2.395  10.480
    4CHTO   C24 2035   6.702   2.516  10.467
    4CHTO   H52 2036   6.657   2.546  10.563
    4CHTO   C26 2037   6.593   2.498  10.361
    4CHTO   H54 2038   6.638   2.457  10.268
    4CHTO   O20 2039   6.488   2.408  10.405
    4CHTO   H36 2040   6.425   2.395  10.335
    4CHTO   C30 2041   6.530   2.634  10.327
    4CHTO   H58 2042   6.478   2.676  10.414
    4CHTO    N6 2043   6.430   2.619  10.219
    4CHTO   H45 2044   6.481   2.595  10.128
    4CHTO   H46 2045   6.380   2.713  10.207
    4CHTO   C33 2046   6.642   2.731  10.286
    4CHTO   H61 2047   6.697   2.692  10.199
    4CHTO   O18 2048   6.732   2.748  10.395
    4CHTO   C28 2049   6.802   2.626  10.427
    4CHTO   H56 2050   6.862   2.592  10.342
    4CHTO   C35 2051   6.896   2.658  10.546
    4CHTO   O24 2052   6.996   2.753  10.509
    4CHTO   H39 2053   7.053   2.768  10.583
    4CHTO    O9 2054   6.586   2.855  10.244
    4CHTO   C13 2055   6.684   2.960  10.226
    4CHTO   H26 2056   6.780   2.918  10.193
    4CHTO   C11 2057   6.698   3.035  10.362
    4CHTO   H24 2058   6.770   2.983  10.427
    4CHTO    O8 2059   6.568   3.032  10.423
    4CHTO    H3 2060   6.568   3.073  10.508
    4CHTO    C9 2061   6.745   3.179  10.337
    4CHTO   H22 2062   6.839   3.168  10.280
    4CHTO    N2 2063   6.779   3.251  10.461
    4CHTO   H10 2064   6.850   3.192  10.520
    4CHTO   H11 2065   6.691   3.273  10.520
    4CHTO    C7 2066   6.639   3.254  10.253
    4CHTO   H20 2067   6.699   3.317  10.185
    4CHTO    O4 2068   6.556   3.165  10.179
    4CHTO   C14 2069   6.631   3.059  10.119
    4CHTO   H27 2070   6.718   3.101  10.062
    4CHTO   C18 2071   6.542   2.986  10.016
    4CHTO   O13 2072   6.614   2.875   9.962
    4CHTO    H7 2073   6.561   2.828   9.898
    4CHTO    O2 2074   6.556   3.338  10.336
    4CHTO    C1 2075   6.452   3.407  10.265
    4CHTO   H14 2076   6.384   3.335  10.216
    4CHTO    C2 2077   6.506   3.507  10.158
    4CHTO   H15 2078   6.583   3.571  10.204
    4CHTO    O6 2079   6.560   3.437  10.045
    4CHTO    H1 2080   6.592   3.499   9.981
    4CHTO    C3 2081   6.388   3.593  10.103
    4CHTO   H16 2082   6.317   3.528  10.049
    4CHTO    N1 2083   6.439   3.693  10.008
    4CHTO    H8 2084   6.508   3.759  10.058
    4CHTO    H9 2085   6.358   3.751   9.966
    4CHTO    C4 2086   6.308   3.657  10.219
    4CHTO   H17 2087   6.371   3.733  10.268
    4CHTO    O1 2088   6.264   3.557  10.312
    4CHTO    C5 2089   6.372   3.486  10.371
    4CHTO   H18 2090   6.440   3.555  10.422
    4CHTO   C16 2091   6.310   3.390  10.476
    4CHTO   O11 2092   6.222   3.468  10.558
    4CHTO    H5 2093   6.185   3.414  10.627
    4CHTO    O3 2094   6.192   3.719  10.162
    4CHTO    C6 2095   6.108   3.783  10.260
    4CHTO   H19 2096   6.108   3.731  10.357
    4CHTO    C8 2097   6.148   3.931  10.279
    4CHTO   H21 2098   6.149   3.981  10.181
    4CHTO    O7 2099   6.277   3.938  10.341
    4CHTO    H2 2100   6.304   4.029  10.355
    4CHTO   C12 2101   6.045   3.999  10.371
    4CHTO   H25 2102   6.052   3.950  10.471
    4CHTO    N3 2103   6.084   4.140  10.387
    4CHTO   H12 2104   6.031   4.187  10.469
    4CHTO   H13 2105   6.067   4.195  10.296
    4CHTO   C15 2106   5.902   3.982  10.316
    4CHTO   H28 2107   5.890   4.034  10.221
    4CHTO   O10 2108   5.803   4.028  10.410
    4CHTO    H4 2109   5.809   4.123  10.423
    4CHTO    O5 2110   5.873   3.842  10.301
    4CHTO   C10 2111   5.963   3.780  10.207
    4CHTO   H23 2112   5.956   3.834  10.113
    4CHTO   C17 2113   5.915   3.636  10.185
    4CHTO   O12 2114   5.780   3.638  10.138
    4CHTO    H6 2115   5.746   3.549  10.127
    5CHTO  H203 2116   3.546   2.297  -0.087
    5CHTO   O82 2117   3.504   2.218  -0.053
    5CHTO  C123 2118   3.439   2.245   0.070
    5CHTO  H227 2119   3.362   2.323   0.054
    5CHTO   O77 2120   3.378   2.121   0.112
    5CHTO  C118 2121   3.300   2.137   0.231
    5CHTO  H222 2122   3.221   2.213   0.215
    5CHTO  C125 2123   3.232   2.002   0.269
    5CHTO   O84 2124   3.149   1.961   0.160
    5CHTO  H205 2125   3.111   1.876   0.177
    5CHTO  C114 2126   3.389   2.180   0.348
    5CHTO  H218 2127   3.461   2.100   0.369
    5CHTO  C116 2128   3.466   2.310   0.311
    5CHTO  H220 2129   3.397   2.396   0.303
    5CHTO   O79 2130   3.563   2.342   0.413
    5CHTO  H201 2131   3.612   2.420   0.390
    5CHTO  C120 2132   3.541   2.287   0.178
    5CHTO  H224 2133   3.616   2.207   0.195
    5CHTO   N21 2134   3.611   2.410   0.143
    5CHTO  H211 2135   3.542   2.484   0.105
    5CHTO  H212 2136   3.689   2.390   0.070
    5CHTO   O75 2137   3.299   2.197   0.457
    5CHTO  C112 2138   3.365   2.220   0.585
    5CHTO  H216 2139   3.416   2.318   0.585
    5CHTO   O73 2140   3.456   2.111   0.609
    5CHTO  C113 2141   3.518   2.122   0.737
    5CHTO  H217 2142   3.568   2.220   0.745
    5CHTO  C124 2143   3.625   2.013   0.748
    5CHTO   O83 2144   3.710   2.015   0.633
    5CHTO  H204 2145   3.774   1.944   0.638
    5CHTO  C109 2146   3.413   2.111   0.852
    5CHTO  H213 2147   3.362   2.013   0.838
    5CHTO  C110 2148   3.315   2.228   0.831
    5CHTO  H214 2149   3.367   2.323   0.843
    5CHTO   O78 2150   3.209   2.220   0.926
    5CHTO  H200 2151   3.146   2.290   0.913
    5CHTO  C111 2152   3.254   2.216   0.691
    5CHTO  H215 2153   3.198   2.120   0.683
    5CHTO   N19 2154   3.158   2.324   0.664
    5CHTO  H207 2155   3.110   2.307   0.570
    5CHTO  H208 2156   3.209   2.419   0.662
    5CHTO   O74 2157   3.476   2.113   0.982
    5CHTO  C115 2158   3.393   2.061   1.087
    5CHTO  H219 2159   3.289   2.053   1.056
    5CHTO   O76 2160   3.432   1.928   1.125
    5CHTO  C122 2161   3.574   1.919   1.150
    5CHTO  H226 2162   3.625   1.923   1.053
    5CHTO  C126 2163   3.608   1.781   1.213
    5CHTO   O85 2164   3.552   1.764   1.344
    5CHTO  H206 2165   3.459   1.776   1.344
    5CHTO  C121 2166   3.624   2.037   1.239
    5CHTO  H225 2167   3.693   1.999   1.317
    5CHTO   O81 2168   3.693   2.131   1.155
    5CHTO  H202 2169   3.770   2.093   1.115
    5CHTO  C119 2170   3.502   2.104   1.307
    5CHTO  H223 2171   3.452   2.022   1.358
    5CHTO  C117 2172   3.399   2.159   1.207
    5CHTO  H221 2173   3.419   2.260   1.169
    5CHTO   N20 2174   3.266   2.166   1.269
    5CHTO  H209 2175   3.269   2.228   1.357
    5CHTO  H210 2176   3.228   2.068   1.295
    5CHTO   O80 2177   3.530   2.193   1.417
    5CHTO  C103 2178   3.636   2.290   1.403
    5CHTO  H190 2179   3.731   2.241   1.378
    5CHTO  C101 2180   3.614   2.407   1.301
    5CHTO  H188 2181   3.518   2.456   1.318
    5CHTO   O68 2182   3.620   2.359   1.165
    5CHTO  H168 2183   3.593   2.426   1.102
    5CHTO   C99 2184   3.727   2.513   1.322
    5CHTO  H186 2185   3.826   2.467   1.302
    5CHTO   N17 2186   3.713   2.631   1.235
    5CHTO  H174 2187   3.613   2.671   1.243
    5CHTO  H175 2188   3.735   2.606   1.132
    5CHTO   C97 2189   3.731   2.562   1.467
    5CHTO  H184 2190   3.633   2.607   1.491
    5CHTO   O64 2191   3.758   2.449   1.551
    5CHTO  C104 2192   3.652   2.352   1.544
    5CHTO  H191 2193   3.558   2.399   1.574
    5CHTO  C108 2194   3.679   2.241   1.645
    5CHTO   O71 2195   3.700   2.300   1.775
    5CHTO  H171 2196   3.722   2.233   1.837
    5CHTO   O62 2197   3.836   2.658   1.481
    5CHTO   C91 2198   3.818   2.749   1.592
    5CHTO  H178 2199   3.724   2.804   1.574
    5CHTO   C92 2200   3.931   2.852   1.585
    5CHTO  H179 2201   3.934   2.900   1.485
    5CHTO   O66 2202   3.903   2.956   1.679
    5CHTO  H166 2203   3.968   3.026   1.674
    5CHTO   C93 2204   4.068   2.789   1.619
    5CHTO  H180 2205   4.137   2.869   1.647
    5CHTO   N16 2206   4.127   2.720   1.502
    5CHTO  H172 2207   4.066   2.637   1.473
    5CHTO  H173 2208   4.227   2.687   1.527
    5CHTO   C94 2209   4.052   2.690   1.738
    5CHTO  H181 2210   4.045   2.587   1.706
    5CHTO   O61 2211   3.932   2.725   1.810
    5CHTO   C95 2212   3.816   2.687   1.734
    5CHTO  H182 2213   3.812   2.578   1.727
    5CHTO  C106 2214   3.690   2.733   1.812
    5CHTO   O69 2215   3.693   2.667   1.939
    5CHTO  H169 2216   3.614   2.687   1.989
    5CHTO   O63 2217   4.168   2.713   1.822
    5CHTO   C96 2218   4.181   2.617   1.928
    5CHTO  H183 2219   4.173   2.517   1.884
    5CHTO   C98 2220   4.075   2.630   2.039
    5CHTO  H185 2221   3.974   2.612   2.001
    5CHTO   O67 2222   4.101   2.527   2.135
    5CHTO  H167 2223   4.033   2.529   2.200
    5CHTO  C102 2224   4.086   2.769   2.108
    5CHTO  H189 2225   4.040   2.758   2.208
    5CHTO   N18 2226   4.010   2.875   2.039
    5CHTO  H176 2227   3.906   2.847   2.029
    5CHTO  H177 2228   4.051   2.898   1.942
    5CHTO  C105 2229   4.233   2.809   2.125
    5CHTO  H192 2230   4.262   2.878   2.045
    5CHTO   O65 2231   4.318   2.693   2.119
    5CHTO  C100 2232   4.322   2.634   1.989
    5CHTO  H187 2233   4.380   2.702   1.923
    5CHTO  C107 2234   4.397   2.499   1.997
    5CHTO   O70 2235   4.317   2.404   2.065
    5CHTO  H170 2236   4.357   2.318   2.066
    5CHTO   O57 2237   4.235   2.874   2.254
    5CHTO   C85 2238   4.365   2.908   2.304
    5CHTO  H157 2239   4.423   2.816   2.322
    5CHTO   C83 2240   4.342   2.976   2.440
    5CHTO  H155 2241   4.283   2.910   2.507
    5CHTO   O56 2242   4.265   3.096   2.419
    5CHTO  H135 2243   4.181   3.076   2.379
    5CHTO   C81 2244   4.476   3.009   2.507
    5CHTO  H153 2245   4.522   2.916   2.543
    5CHTO   N14 2246   4.455   3.097   2.623
    5CHTO  H141 2247   4.394   3.045   2.695
    5CHTO  H142 2248   4.403   3.188   2.593
    5CHTO   C79 2249   4.572   3.076   2.407
    5CHTO  H151 2250   4.646   3.000   2.376
    5CHTO   O52 2251   4.500   3.121   2.289
    5CHTO   C86 2252   4.442   3.010   2.215
    5CHTO  H158 2253   4.374   3.059   2.144
    5CHTO   C90 2254   4.549   2.939   2.130
    5CHTO   O60 2255   4.637   3.039   2.076
    5CHTO  H138 2256   4.705   2.997   2.025
    5CHTO   O50 2257   4.640   3.186   2.468
    5CHTO   C73 2258   4.732   3.256   2.383
    5CHTO  H145 2259   4.684   3.288   2.289
    5CHTO   C74 2260   4.858   3.173   2.350
    5CHTO  H146 2261   4.830   3.084   2.291
    5CHTO   O54 2262   4.947   3.251   2.271
    5CHTO  H133 2263   5.024   3.199   2.250
    5CHTO   C75 2264   4.925   3.133   2.484
    5CHTO  H147 2265   4.852   3.075   2.544
    5CHTO   N13 2266   5.046   3.052   2.459
    5CHTO  H139 2267   5.018   2.962   2.407
    5CHTO  H140 2268   5.090   3.025   2.554
    5CHTO   C76 2269   4.961   3.264   2.559
    5CHTO  H148 2270   5.034   3.318   2.497
    5CHTO   O49 2271   4.844   3.346   2.582
    5CHTO   C77 2272   4.777   3.382   2.462
    5CHTO  H149 2273   4.842   3.443   2.399
    5CHTO   C88 2274   4.654   3.470   2.495
    5CHTO   O58 2275   4.698   3.589   2.564
    5CHTO  H136 2276   4.625   3.648   2.583
    5CHTO   O51 2277   5.014   3.227   2.688
    5CHTO   C78 2278   5.057   3.339   2.767
    5CHTO  H150 2279   4.990   3.427   2.753
    5CHTO   C80 2280   5.201   3.380   2.731
    5CHTO  H152 2281   5.266   3.291   2.737
    5CHTO   O55 2282   5.204   3.434   2.598
    5CHTO  H134 2283   5.293   3.454   2.571
    5CHTO   C84 2284   5.249   3.489   2.830
    5CHTO  H156 2285   5.189   3.579   2.816
    5CHTO   N15 2286   5.390   3.522   2.802
    5CHTO  H143 2287   5.450   3.435   2.816
    5CHTO  H144 2288   5.422   3.599   2.870
    5CHTO   C87 2289   5.233   3.438   2.974
    5CHTO  H159 2290   5.298   3.350   2.988
    5CHTO   O53 2291   5.095   3.406   2.997
    5CHTO   C82 2292   5.051   3.297   2.915
    5CHTO  H154 2293   5.112   3.208   2.932
    5CHTO   C89 2294   4.905   3.260   2.951
    5CHTO   O59 2295   4.902   3.227   3.091
    5CHTO  H137 2296   4.813   3.206   3.116
    5CHTO   O45 2297   5.275   3.544   3.063
    5CHTO   C67 2298   5.230   3.522   3.198
    5CHTO  H124 2299   5.121   3.522   3.202
    5CHTO   C65 2300   5.282   3.387   3.251
    5CHTO  H122 2301   5.381   3.370   3.208
    5CHTO   O44 2302   5.188   3.287   3.208
    5CHTO  H102 2303   5.217   3.199   3.229
    5CHTO   C63 2304   5.300   3.394   3.404
    5CHTO  H120 2305   5.401   3.432   3.427
    5CHTO   N11 2306   5.295   3.262   3.471
    5CHTO  H108 2307   5.367   3.196   3.427
    5CHTO  H109 2308   5.196   3.218   3.461
    5CHTO   C61 2309   5.196   3.491   3.466
    5CHTO  H118 2310   5.210   3.487   3.575
    5CHTO   O40 2311   5.219   3.624   3.423
    5CHTO   C68 2312   5.276   3.636   3.292
    5CHTO  H125 2313   5.386   3.632   3.301
    5CHTO   C72 2314   5.240   3.775   3.234
    5CHTO   O48 2315   5.305   3.802   3.110
    5CHTO  H105 2316   5.284   3.889   3.080
    5CHTO   O38 2317   5.060   3.455   3.432
    5CHTO   C55 2318   4.968   3.516   3.523
    5CHTO  H112 2319   5.006   3.614   3.555
    5CHTO   C56 2320   4.937   3.423   3.644
    5CHTO  H113 2321   4.891   3.331   3.605
    5CHTO   O42 2322   5.056   3.382   3.714
    5CHTO  H100 2323   5.036   3.317   3.780
    5CHTO   C57 2324   4.841   3.495   3.741
    5CHTO  H114 2325   4.889   3.585   3.780
    5CHTO   N10 2326   4.804   3.407   3.854
    5CHTO  H106 2327   4.710   3.438   3.897
    5CHTO  H107 2328   4.880   3.407   3.929
    5CHTO   C58 2329   4.716   3.535   3.663
    5CHTO  H115 2330   4.660   3.444   3.635
    5CHTO   O37 2331   4.747   3.613   3.547
    5CHTO   C59 2332   4.831   3.542   3.456
    5CHTO  H116 2333   4.784   3.448   3.425
    5CHTO   C70 2334   4.849   3.634   3.334
    5CHTO   O46 2335   4.722   3.672   3.280
    5CHTO  H103 2336   4.735   3.724   3.202
    5CHTO   O39 2337   4.636   3.614   3.754
    5CHTO   C60 2338   4.526   3.682   3.693
    5CHTO  H117 2339   4.564   3.752   3.618
    5CHTO   C62 2340   4.426   3.586   3.627
    5CHTO  H119 2341   4.475   3.540   3.540
    5CHTO   O43 2342   4.392   3.484   3.722
    5CHTO  H101 2343   4.338   3.416   3.682
    5CHTO   C66 2344   4.303   3.668   3.581
    5CHTO  H123 2345   4.334   3.739   3.504
    5CHTO   N12 2346   4.200   3.582   3.522
    5CHTO  H110 2347   4.151   3.522   3.598
    5CHTO  H111 2348   4.243   3.520   3.446
    5CHTO   C69 2349   4.243   3.744   3.702
    5CHTO  H126 2350   4.213   3.672   3.780
    5CHTO   O41 2351   4.341   3.836   3.749
    5CHTO   C64 2352   4.456   3.766   3.802
    5CHTO  H121 2353   4.425   3.699   3.884
    5CHTO   C71 2354   4.556   3.869   3.860
    5CHTO   O47 2355   4.484   3.949   3.956
    5CHTO  H104 2356   4.542   4.013   3.996
    5CHTO   O34 2357   4.126   3.809   3.649
    5CHTO   C49 2358   4.028   3.847   3.748
    5CHTO   H91 2359   3.998   3.757   3.802
    5CHTO   C47 2360   3.911   3.906   3.668
    5CHTO   H89 2361   3.835   3.939   3.741
    5CHTO   O33 2362   3.852   3.810   3.578
    5CHTO   H70 2363   3.817   3.737   3.628
    5CHTO   C45 2364   3.964   4.026   3.584
    5CHTO   H87 2365   3.997   3.992   3.485
    5CHTO    N8 2366   3.854   4.122   3.567
    5CHTO   H75 2367   3.768   4.071   3.526
    5CHTO   H76 2368   3.884   4.202   3.500
    5CHTO   C43 2369   4.084   4.093   3.655
    5CHTO   H85 2370   4.175   4.039   3.627
    5CHTO   O29 2371   4.060   4.090   3.796
    5CHTO   C50 2372   4.075   3.956   3.847
    5CHTO   H92 2373   4.182   3.938   3.871
    5CHTO   C54 2374   4.003   3.943   3.983
    5CHTO   O36 2375   4.060   4.038   4.075
    5CHTO   H72 2376   4.018   4.030   4.159
    5CHTO   O27 2377   4.096   4.229   3.609
    5CHTO   C37 2378   4.194   4.308   3.679
    5CHTO   H79 2379   4.171   4.313   3.787
    5CHTO   C38 2380   4.336   4.249   3.665
    5CHTO   H80 2381   4.355   4.225   3.558
    5CHTO   O31 2382   4.347   4.132   3.744
    5CHTO   H68 2383   4.432   4.091   3.737
    5CHTO   C39 2384   4.443   4.349   3.718
    5CHTO   H81 2385   4.426   4.361   3.826
    5CHTO    N7 2386   4.578   4.296   3.696
    5CHTO   H73 2387   4.651   4.359   3.745
    5CHTO   H74 2388   4.601   4.290   3.591
    5CHTO   C40 2389   4.428   4.488   3.651
    5CHTO   H82 2390   4.445   4.479   3.542
    5CHTO   O26 2391   4.296   4.535   3.681
    5CHTO   C41 2392   4.194   4.451   3.621
    5CHTO   H83 2393   4.210   4.446   3.512
    5CHTO   C52 2394   4.059   4.521   3.648
    5CHTO   O35 2395   4.060   4.656   3.599
    5CHTO   H71 2396   3.973   4.695   3.605
    5CHTO   O28 2397   4.524   4.578   3.707
    5CHTO   C42 2398   4.527   4.710   3.651
    5CHTO   H84 2399   4.600   4.765   3.713
    5CHTO   C44 2400   4.396   4.790   3.660
    5CHTO   H86 2401   4.322   4.746   3.591
    5CHTO   O32 2402   4.344   4.786   3.793
    5CHTO   H69 2403   4.259   4.829   3.797
    5CHTO   C48 2404   4.424   4.936   3.613
    5CHTO   H90 2405   4.500   4.981   3.679
    5CHTO    N9 2406   4.301   5.018   3.624
    5CHTO   H77 2407   4.229   4.989   3.551
    5CHTO   H78 2408   4.325   5.123   3.614
    5CHTO   C51 2409   4.478   4.929   3.468
    5CHTO   H93 2410   4.401   4.884   3.405
    5CHTO   O30 2411   4.599   4.855   3.468
    5CHTO   C46 2412   4.579   4.718   3.505
    5CHTO   H88 2413   4.507   4.670   3.438
    5CHTO   C53 2414   4.718   4.650   3.494
    5CHTO   O72 2415   4.707   4.510   3.523
    5CHTO  H199 2416   4.792   4.468   3.517
    5CHTO   O22 2417   4.507   5.065   3.426
    5CHTO   C31 2418   4.548   5.082   3.287
    5CHTO   H59 2419   4.570   5.189   3.276
    5CHTO   C29 2420   4.674   5.005   3.246
    5CHTO   H57 2421   4.656   4.896   3.247
    5CHTO   O21 2422   4.782   5.030   3.336
    5CHTO   H37 2423   4.802   5.123   3.338
    5CHTO   C27 2424   4.713   5.048   3.103
    5CHTO   H55 2425   4.737   5.156   3.104
    5CHTO    N5 2426   4.830   4.973   3.056
    5CHTO   H43 2427   4.813   4.866   3.056
    5CHTO   H44 2428   4.918   4.995   3.117
    5CHTO   C25 2429   4.594   5.021   3.009
    5CHTO   H53 2430   4.575   4.913   3.008
    5CHTO   O17 2431   4.476   5.091   3.054
    5CHTO   C32 2432   4.436   5.050   3.185
    5CHTO   H60 2433   4.416   4.942   3.187
    5CHTO   C36 2434   4.307   5.127   3.219
    5CHTO   O25 2435   4.204   5.089   3.129
    5CHTO   H40 2436   4.122   5.132   3.151
    5CHTO   O15 2437   4.632   5.065   2.877
    5CHTO   C19 2438   4.535   5.034   2.773
    5CHTO   H47 2439   4.581   5.078   2.683
    5CHTO   C20 2440   4.515   4.884   2.746
    5CHTO   H48 2441   4.467   4.833   2.831
    5CHTO   O19 2442   4.643   4.825   2.721
    5CHTO   H35 2443   4.632   4.731   2.702
    5CHTO   C21 2444   4.424   4.869   2.622
    5CHTO   H49 2445   4.475   4.913   2.535
    5CHTO    N4 2446   4.399   4.727   2.593
    5CHTO   H41 2447   4.341   4.719   2.502
    5CHTO   H42 2448   4.345   4.681   2.675
    5CHTO   C22 2449   4.293   4.943   2.648
    5CHTO   H50 2450   4.243   4.898   2.734
    5CHTO   O14 2451   4.318   5.083   2.671
    5CHTO   C23 2452   4.398   5.103   2.789
    5CHTO   H51 2453   4.341   5.062   2.875
    5CHTO   C34 2454   4.415   5.255   2.807
    5CHTO   O23 2455   4.286   5.313   2.823
    5CHTO   H38 2456   4.292   5.409   2.828
    5CHTO   O16 2457   4.214   4.931   2.530
    5CHTO   C24 2458   4.077   4.969   2.553
    5CHTO   H52 2459   4.069   5.049   2.628
    5CHTO   C26 2460   3.995   4.847   2.598
    5CHTO   H54 2461   4.013   4.764   2.527
    5CHTO   O20 2462   4.029   4.805   2.731
    5CHTO   H36 2463   3.980   4.726   2.753
    5CHTO   C30 2464   3.845   4.882   2.594
    5CHTO   H58 2465   3.821   4.960   2.666
    5CHTO    N6 2466   3.764   4.763   2.628
    5CHTO   H45 2467   3.772   4.691   2.549
    5CHTO   H46 2468   3.662   4.794   2.637
    5CHTO   C33 2469   3.810   4.934   2.453
    5CHTO   H61 2470   3.834   4.858   2.377
    5CHTO   O18 2471   3.884   5.052   2.426
    5CHTO   C28 2472   4.026   5.026   2.420
    5CHTO   H56 2473   4.048   4.956   2.339
    5CHTO   C35 2474   4.095   5.162   2.390
    5CHTO   O24 2475   4.057   5.213   2.262
    5CHTO   H39 2476   4.103   5.294   2.246
    5CHTO    O9 2477   3.669   4.956   2.443
    5CHTO   C13 2478   3.630   5.028   2.323
    5CHTO   H26 2479   3.698   5.002   2.240
    5CHTO   C11 2480   3.633   5.180   2.356
    5CHTO   H24 2481   3.734   5.220   2.343
    5CHTO    O8 2482   3.594   5.192   2.494
    5CHTO    H3 2483   3.596   5.281   2.523
    5CHTO    C9 2484   3.536   5.254   2.263
    5CHTO   H22 2485   3.568   5.227   2.162
    5CHTO    N2 2486   3.546   5.400   2.275
    5CHTO   H10 2487   3.649   5.432   2.261
    5CHTO   H11 2488   3.508   5.436   2.369
    5CHTO    C7 2489   3.391   5.203   2.289
    5CHTO   H20 2490   3.346   5.201   2.188
    5CHTO    O4 2491   3.390   5.073   2.347
    5CHTO   C14 2492   3.485   4.986   2.286
    5CHTO   H27 2493   3.474   4.988   2.176
    5CHTO   C18 2494   3.457   4.841   2.331
    5CHTO   O13 2495   3.558   4.755   2.278
    5CHTO    H7 2496   3.542   4.664   2.304
    5CHTO    O2 2497   3.318   5.294   2.373
    5CHTO    C1 2498   3.184   5.250   2.405
    5CHTO   H14 2499   3.187   5.154   2.458
    5CHTO    C2 2500   3.092   5.237   2.280
    5CHTO   H15 2501   3.099   5.330   2.220
    5CHTO    O6 2502   3.129   5.123   2.201
    5CHTO    H1 2503   3.072   5.117   2.125
    5CHTO    C3 2504   2.945   5.213   2.326
    5CHTO   H16 2505   2.938   5.115   2.377
    5CHTO    N1 2506   2.857   5.208   2.209
    5CHTO    H8 2507   2.860   5.302   2.157
    5CHTO    H9 2508   2.755   5.187   2.238
    5CHTO    C4 2509   2.902   5.319   2.430
    5CHTO   H17 2510   2.894   5.417   2.379
    5CHTO    O1 2511   2.993   5.323   2.539
    5CHTO    C5 2512   3.126   5.358   2.500
    5CHTO   H18 2513   3.126   5.454   2.448
    5CHTO   C16 2514   3.210   5.370   2.629
    5CHTO   O11 2515   3.138   5.455   2.719
    5CHTO    H5 2516   3.188   5.468   2.799
    5CHTO    O3 2517   2.774   5.279   2.481
    5CHTO    C6 2518   2.720   5.370   2.579
    5CHTO   H19 2519   2.799   5.417   2.640
    5CHTO    C8 2520   2.634   5.479   2.512
    5CHTO   H21 2521   2.557   5.431   2.450
    5CHTO    O7 2522   2.717   5.565   2.433
    5CHTO    H2 2523   2.666   5.635   2.392
    5CHTO   C12 2524   2.566   5.563   2.622
    5CHTO   H25 2525   2.647   5.615   2.678
    5CHTO    N3 2526   2.482   5.666   2.557
    5CHTO   H12 2527   2.452   5.742   2.626
    5CHTO   H13 2528   2.396   5.621   2.511
    5CHTO   C15 2529   2.486   5.473   2.718
    5CHTO   H28 2530   2.403   5.425   2.668
    5CHTO   O10 2531   2.438   5.547   2.833
    5CHTO    H4 2532   2.373   5.612   2.806
    5CHTO    O5 2533   2.573   5.374   2.776
    5CHTO   C10 2534   2.629   5.289   2.674
    5CHTO   H23 2535   2.548   5.244   2.618
    5CHTO   C17 2536   2.708   5.178   2.744
    5CHTO   O12 2537   2.621   5.107   2.832
    5CHTO    H6 2538   2.668   5.040   2.880
    6CHTO  H203 2539  -2.682   0.892   6.021
    6CHTO   O82 2540  -2.662   0.800   6.033
    6CHTO  C123 2541  -2.541   0.783   6.104
    6CHTO  H227 2542  -2.551   0.830   6.203
    6CHTO   O77 2543  -2.520   0.641   6.118
    6CHTO  C118 2544  -2.406   0.610   6.197
    6CHTO  H222 2545  -2.415   0.655   6.298
    6CHTO  C125 2546  -2.391   0.456   6.213
    6CHTO   O84 2547  -2.509   0.406   6.276
    6CHTO  H205 2548  -2.507   0.312   6.282
    6CHTO  C114 2549  -2.278   0.664   6.130
    6CHTO  H218 2550  -2.264   0.611   6.034
    6CHTO  C116 2551  -2.291   0.816   6.103
    6CHTO  H220 2552  -2.292   0.872   6.199
    6CHTO   O79 2553  -2.181   0.863   6.025
    6CHTO  H201 2554  -2.189   0.956   6.006
    6CHTO  C120 2555  -2.422   0.841   6.024
    6CHTO  H224 2556  -2.412   0.790   5.926
    6CHTO   N21 2557  -2.435   0.984   6.001
    6CHTO  H211 2558  -2.467   1.035   6.092
    6CHTO  H212 2559  -2.505   1.004   5.921
    6CHTO   O75 2560  -2.173   0.631   6.221
    6CHTO  C112 2561  -2.040   0.656   6.168
    6CHTO  H216 2562  -2.023   0.764   6.156
    6CHTO   O73 2563  -2.026   0.583   6.045
    6CHTO  C113 2564  -1.894   0.595   5.993
    6CHTO  H217 2565  -1.870   0.702   5.980
    6CHTO  C124 2566  -1.891   0.529   5.854
    6CHTO   O83 2567  -2.000   0.579   5.774
    6CHTO  H204 2568  -2.001   0.534   5.689
    6CHTO  C109 2569  -1.789   0.531   6.088
    6CHTO  H213 2570  -1.819   0.425   6.101
    6CHTO  C110 2571  -1.799   0.608   6.220
    6CHTO  H214 2572  -1.770   0.713   6.206
    6CHTO   O78 2573  -1.712   0.549   6.318
    6CHTO  H200 2574  -1.719   0.594   6.401
    6CHTO  C111 2575  -1.943   0.597   6.272
    6CHTO  H215 2576  -1.967   0.490   6.290
    6CHTO   N19 2577  -1.960   0.668   6.399
    6CHTO  H207 2578  -2.059   0.650   6.438
    6CHTO  H208 2579  -1.945   0.774   6.386
    6CHTO   O74 2580  -1.656   0.535   6.030
    6CHTO  C115 2581  -1.564   0.441   6.091
    6CHTO  H219 2582  -1.603   0.403   6.185
    6CHTO   O76 2583  -1.543   0.326   6.008
    6CHTO  C122 2584  -1.511   0.363   5.872
    6CHTO  H226 2585  -1.603   0.399   5.825
    6CHTO  C126 2586  -1.466   0.238   5.792
    6CHTO   O85 2587  -1.343   0.182   5.839
    6CHTO  H206 2588  -1.347   0.161   5.931
    6CHTO  C121 2589  -1.403   0.476   5.868
    6CHTO  H225 2590  -1.328   0.453   5.790
    6CHTO   O81 2591  -1.469   0.600   5.835
    6CHTO  H202 2592  -1.509   0.597   5.750
    6CHTO  C119 2593  -1.334   0.486   6.006
    6CHTO  H223 2594  -1.299   0.384   6.024
    6CHTO  C117 2595  -1.432   0.516   6.121
    6CHTO  H221 2596  -1.454   0.622   6.137
    6CHTO   N20 2597  -1.378   0.466   6.248
    6CHTO  H209 2598  -1.282   0.512   6.268
    6CHTO  H210 2599  -1.369   0.359   6.249
    6CHTO   O80 2600  -1.211   0.561   6.012
    6CHTO  C103 2601  -1.205   0.690   5.947
    6CHTO  H190 2602  -1.231   0.681   5.840
    6CHTO  C101 2603  -1.291   0.806   6.008
    6CHTO  H188 2604  -1.273   0.815   6.115
    6CHTO   O68 2605  -1.432   0.784   5.984
    6CHTO  H168 2606  -1.486   0.846   6.032
    6CHTO   C99 2607  -1.248   0.940   5.939
    6CHTO  H186 2608  -1.268   0.934   5.830
    6CHTO   N17 2609  -1.319   1.057   5.993
    6CHTO  H174 2610  -1.311   1.058   6.101
    6CHTO  H175 2611  -1.423   1.058   5.963
    6CHTO   C97 2612  -1.098   0.964   5.955
    6CHTO  H184 2613  -1.074   0.969   6.062
    6CHTO   O64 2614  -1.029   0.856   5.890
    6CHTO  C104 2615  -1.056   0.731   5.955
    6CHTO  H191 2616  -1.026   0.737   6.060
    6CHTO  C108 2617  -0.970   0.622   5.891
    6CHTO   O71 2618  -0.832   0.665   5.893
    6CHTO  H171 2619  -0.778   0.600   5.850
    6CHTO   O62 2620  -1.064   1.088   5.890
    6CHTO   C91 2621  -0.943   1.149   5.940
    6CHTO  H178 2622  -0.958   1.170   6.047
    6CHTO   C92 2623  -0.928   1.285   5.870
    6CHTO  H179 2624  -1.020   1.345   5.884
    6CHTO   O66 2625  -0.823   1.357   5.934
    6CHTO  H166 2626  -0.814   1.444   5.898
    6CHTO   C93 2627  -0.896   1.268   5.720
    6CHTO  H180 2628  -0.852   1.362   5.684
    6CHTO   N16 2629  -1.017   1.243   5.640
    6CHTO  H172 2630  -1.061   1.149   5.667
    6CHTO  H173 2631  -0.990   1.243   5.535
    6CHTO   C94 2632  -0.792   1.153   5.702
    6CHTO  H181 2633  -0.839   1.060   5.672
    6CHTO   O61 2634  -0.724   1.133   5.827
    6CHTO   C95 2635  -0.811   1.069   5.921
    6CHTO  H182 2636  -0.834   0.968   5.887
    6CHTO  C106 2637  -0.736   1.056   6.056
    6CHTO   O69 2638  -0.619   0.976   6.031
    6CHTO  H169 2639  -0.572   0.959   6.113
    6CHTO   O63 2640  -0.699   1.201   5.602
    6CHTO   C96 2641  -0.607   1.101   5.556
    6CHTO  H183 2642  -0.665   1.012   5.528
    6CHTO   C98 2643  -0.501   1.059   5.661
    6CHTO  H185 2644  -0.548   1.013   5.749
    6CHTO   O67 2645  -0.420   0.958   5.601
    6CHTO  H167 2646  -0.359   0.926   5.666
    6CHTO  C102 2647  -0.413   1.181   5.701
    6CHTO  H189 2648  -0.320   1.140   5.741
    6CHTO   N18 2649  -0.471   1.264   5.808
    6CHTO  H176 2650  -0.492   1.203   5.896
    6CHTO  H177 2651  -0.562   1.314   5.778
    6CHTO  C105 2652  -0.382   1.266   5.577
    6CHTO  H192 2653  -0.449   1.353   5.574
    6CHTO   O65 2654  -0.399   1.189   5.457
    6CHTO  C100 2655  -0.536   1.156   5.431
    6CHTO  H187 2656  -0.587   1.249   5.400
    6CHTO  C107 2657  -0.542   1.057   5.314
    6CHTO   O70 2658  -0.492   0.930   5.356
    6CHTO  H170 2659  -0.502   0.864   5.288
    6CHTO   O57 2660  -0.246   1.308   5.599
    6CHTO   C85 2661  -0.183   1.377   5.490
    6CHTO  H157 2662  -0.174   1.309   5.403
    6CHTO   C83 2663  -0.040   1.411   5.537
    6CHTO  H155 2664   0.013   1.319   5.570
    6CHTO   O56 2665  -0.049   1.498   5.651
    6CHTO  H135 2666  -0.097   1.457   5.722
    6CHTO   C81 2667   0.038   1.477   5.424
    6CHTO  H153 2668   0.064   1.402   5.348
    6CHTO   N14 2669   0.164   1.534   5.476
    6CHTO  H141 2670   0.225   1.454   5.515
    6CHTO  H142 2671   0.144   1.605   5.555
    6CHTO   C79 2672  -0.045   1.589   5.357
    6CHTO  H151 2673  -0.082   1.548   5.261
    6CHTO   O52 2674  -0.160   1.623   5.439
    6CHTO   C86 2675  -0.252   1.511   5.453
    6CHTO  H158 2676  -0.320   1.544   5.534
    6CHTO   C90 2677  -0.339   1.496   5.327
    6CHTO   O60 2678  -0.373   1.627   5.280
    6CHTO  H138 2679  -0.426   1.620   5.201
    6CHTO   O50 2680   0.035   1.705   5.332
    6CHTO   C73 2681  -0.034   1.815   5.270
    6CHTO  H145 2682  -0.125   1.841   5.326
    6CHTO   C74 2683  -0.070   1.786   5.123
    6CHTO  H146 2684  -0.143   1.703   5.117
    6CHTO   O54 2685  -0.132   1.902   5.066
    6CHTO  H133 2686  -0.155   1.883   4.976
    6CHTO   C75 2687   0.061   1.752   5.048
    6CHTO  H147 2688   0.108   1.664   5.095
    6CHTO   N13 2689   0.032   1.723   4.905
    6CHTO  H139 2690  -0.034   1.638   4.899
    6CHTO  H140 2691   0.125   1.699   4.855
    6CHTO   C76 2692   0.155   1.874   5.060
    6CHTO  H148 2693   0.106   1.959   5.010
    6CHTO   O49 2694   0.183   1.906   5.199
    6CHTO   C77 2695   0.065   1.935   5.273
    6CHTO  H149 2696   0.015   2.023   5.233
    6CHTO   C88 2697   0.102   1.968   5.419
    6CHTO   O58 2698   0.190   2.083   5.421
    6CHTO  H136 2699   0.212   2.109   5.510
    6CHTO   O51 2700   0.281   1.838   4.999
    6CHTO   C78 2701   0.377   1.945   4.999
    6CHTO  H150 2702   0.372   2.005   5.092
    6CHTO   C80 2703   0.357   2.039   4.878
    6CHTO  H152 2704   0.354   1.978   4.786
    6CHTO   O55 2705   0.233   2.110   4.893
    6CHTO  H134 2706   0.214   2.163   4.817
    6CHTO   C84 2707   0.472   2.141   4.872
    6CHTO  H156 2708   0.467   2.205   4.960
    6CHTO   N15 2709   0.458   2.225   4.752
    6CHTO  H143 2710   0.463   2.163   4.665
    6CHTO  H144 2711   0.539   2.296   4.749
    6CHTO   C87 2712   0.607   2.066   4.870
    6CHTO  H159 2713   0.612   2.005   4.779
    6CHTO   O53 2714   0.617   1.985   4.988
    6CHTO   C82 2715   0.517   1.882   4.991
    6CHTO  H154 2716   0.526   1.818   4.902
    6CHTO   C89 2717   0.539   1.791   5.115
    6CHTO   O59 2718   0.672   1.738   5.107
    6CHTO  H137 2719   0.688   1.684   5.182
    6CHTO   O45 2720   0.712   2.166   4.870
    6CHTO   C67 2721   0.839   2.109   4.905
    6CHTO  H124 2722   0.837   2.070   5.007
    6CHTO   C65 2723   0.876   1.994   4.809
    6CHTO  H122 2724   0.838   2.019   4.710
    6CHTO   O44 2725   0.814   1.875   4.861
    6CHTO  H102 2726   0.824   1.800   4.803
    6CHTO   C63 2727   1.030   1.983   4.796
    6CHTO  H120 2728   1.064   2.050   4.715
    6CHTO   N11 2729   1.077   1.849   4.755
    6CHTO  H108 2730   1.029   1.820   4.663
    6CHTO  H109 2731   1.055   1.775   4.832
    6CHTO   C61 2732   1.098   2.027   4.928
    6CHTO  H118 2733   1.206   2.012   4.915
    6CHTO   O40 2734   1.076   2.165   4.953
    6CHTO   C68 2735   0.951   2.216   4.902
    6CHTO  H125 2736   0.966   2.249   4.798
    6CHTO   C72 2737   0.911   2.341   4.985
    6CHTO   O48 2738   0.797   2.407   4.933
    6CHTO  H105 2739   0.778   2.485   4.983
    6CHTO   O38 2740   1.051   1.952   5.042
    6CHTO   C55 2741   1.144   1.963   5.151
    6CHTO  H112 2742   1.192   2.062   5.150
    6CHTO   C56 2743   1.249   1.847   5.148
    6CHTO  H113 2744   1.194   1.752   5.158
    6CHTO   O42 2745   1.319   1.840   5.023
    6CHTO  H100 2746   1.374   1.763   5.019
    6CHTO   C57 2747   1.349   1.865   5.264
    6CHTO  H114 2748   1.403   1.960   5.251
    6CHTO   N10 2749   1.445   1.754   5.269
    6CHTO  H106 2750   1.487   1.744   5.367
    6CHTO  H107 2751   1.524   1.769   5.198
    6CHTO   C58 2752   1.270   1.871   5.395
    6CHTO  H115 2753   1.225   1.771   5.414
    6CHTO   O37 2754   1.168   1.972   5.392
    6CHTO   C59 2755   1.072   1.949   5.287
    6CHTO  H116 2756   1.026   1.850   5.298
    6CHTO   C70 2757   0.966   2.059   5.302
    6CHTO   O46 2758   0.910   2.058   5.434
    6CHTO  H103 2759   0.842   2.123   5.439
    6CHTO   O39 2760   1.365   1.903   5.498
    6CHTO   C60 2761   1.308   1.937   5.624
    6CHTO  H117 2762   1.246   2.026   5.613
    6CHTO   C62 2763   1.223   1.823   5.684
    6CHTO  H119 2764   1.133   1.811   5.620
    6CHTO   O43 2765   1.301   1.702   5.680
    6CHTO  H101 2766   1.248   1.627   5.707
    6CHTO   C66 2767   1.181   1.863   5.827
    6CHTO  H123 2768   1.117   1.952   5.822
    6CHTO   N12 2769   1.105   1.757   5.893
    6CHTO  H110 2770   1.169   1.673   5.917
    6CHTO  H111 2771   1.023   1.726   5.830
    6CHTO   C69 2772   1.307   1.894   5.911
    6CHTO  H126 2773   1.373   1.805   5.914
    6CHTO   O41 2774   1.373   2.007   5.852
    6CHTO   C64 2775   1.423   1.974   5.720
    6CHTO  H121 2776   1.493   1.888   5.727
    6CHTO   C71 2777   1.501   2.095   5.664
    6CHTO   O47 2778   1.603   2.129   5.760
    6CHTO  H104 2779   1.654   2.202   5.728
    6CHTO   O34 2780   1.257   1.923   6.043
    6CHTO   C49 2781   1.354   1.908   6.149
    6CHTO   H91 2782   1.394   1.806   6.146
    6CHTO   C47 2783   1.277   1.934   6.278
    6CHTO   H89 2784   1.349   1.927   6.362
    6CHTO   O33 2785   1.171   1.839   6.300
    6CHTO   H70 2786   1.207   1.751   6.307
    6CHTO   C45 2787   1.214   2.076   6.270
    6CHTO   H87 2788   1.113   2.072   6.227
    6CHTO    N8 2789   1.203   2.130   6.407
    6CHTO   H75 2790   1.151   2.059   6.469
    6CHTO   H76 2791   1.150   2.224   6.407
    6CHTO   C43 2792   1.301   2.170   6.182
    6CHTO   H85 2793   1.270   2.155   6.078
    6CHTO   O29 2794   1.437   2.136   6.205
    6CHTO   C50 2795   1.470   2.010   6.144
    6CHTO   H92 2796   1.498   2.027   6.038
    6CHTO   C54 2797   1.598   1.953   6.208
    6CHTO   O36 2798   1.706   2.047   6.189
    6CHTO   H72 2799   1.786   2.011   6.226
    6CHTO   O27 2800   1.275   2.306   6.218
    6CHTO   C37 2801   1.361   2.403   6.155
    6CHTO   H79 2802   1.467   2.383   6.180
    6CHTO   C38 2803   1.347   2.400   6.002
    6CHTO   H80 2804   1.240   2.401   5.975
    6CHTO   O31 2805   1.410   2.283   5.951
    6CHTO   H68 2806   1.403   2.276   5.857
    6CHTO   C39 2807   1.420   2.521   5.938
    6CHTO   H81 2808   1.528   2.510   5.958
    6CHTO    N7 2809   1.400   2.523   5.792
    6CHTO   H73 2810   1.462   2.598   5.747
    6CHTO   H74 2811   1.296   2.540   5.768
    6CHTO   C40 2812   1.373   2.654   6.000
    6CHTO   H82 2813   1.266   2.669   5.980
    6CHTO   O26 2814   1.401   2.647   6.140
    6CHTO   C41 2815   1.323   2.543   6.206
    6CHTO   H83 2816   1.216   2.562   6.188
    6CHTO   C52 2817   1.352   2.557   6.356
    6CHTO   O35 2818   1.322   2.691   6.403
    6CHTO   H71 2819   1.328   2.695   6.498
    6CHTO   O28 2820   1.447   2.763   5.942
    6CHTO   C42 2821   1.410   2.895   5.985
    6CHTO   H84 2822   1.484   2.961   5.937
    6CHTO   C44 2823   1.422   2.922   6.137
    6CHTO   H86 2824   1.343   2.866   6.189
    6CHTO   O32 2825   1.550   2.880   6.185
    6CHTO   H69 2826   1.555   2.890   6.279
    6CHTO   C48 2827   1.398   3.073   6.161
    6CHTO   H90 2828   1.474   3.131   6.107
    6CHTO    N9 2829   1.413   3.105   6.305
    6CHTO   H77 2830   1.332   3.064   6.362
    6CHTO   H78 2831   1.419   3.212   6.320
    6CHTO   C51 2832   1.257   3.109   6.107
    6CHTO   H93 2833   1.183   3.050   6.163
    6CHTO   O30 2834   1.254   3.082   5.968
    6CHTO   C46 2835   1.270   2.942   5.938
    6CHTO   H88 2836   1.193   2.883   5.988
    6CHTO   C53 2837   1.258   2.930   5.784
    6CHTO   O72 2838   1.267   2.792   5.745
    6CHTO  H199 2839   1.260   2.783   5.651
    6CHTO   O22 2840   1.237   3.250   6.128
    6CHTO   C31 2841   1.104   3.302   6.093
    6CHTO   H59 2842   1.110   3.410   6.110
    6CHTO   C29 2843   1.060   3.281   5.948
    6CHTO   H57 2844   1.045   3.173   5.927
    6CHTO   O21 2845   1.160   3.327   5.856
    6CHTO   H37 2846   1.175   3.420   5.870
    6CHTO   C27 2847   0.927   3.356   5.926
    6CHTO   H55 2848   0.945   3.464   5.942
    6CHTO    N5 2849   0.878   3.334   5.789
    6CHTO   H43 2850   0.862   3.229   5.768
    6CHTO   H44 2851   0.946   3.375   5.715
    6CHTO   C25 2852   0.823   3.304   6.027
    6CHTO   H53 2853   0.807   3.197   6.007
    6CHTO   O17 2854   0.871   3.320   6.162
    6CHTO   C32 2855   0.992   3.249   6.187
    6CHTO   H60 2856   0.977   3.142   6.167
    6CHTO   C36 2857   1.029   3.270   6.334
    6CHTO   O25 2858   0.927   3.213   6.417
    6CHTO   H40 2859   0.950   3.221   6.509
    6CHTO   O15 2860   0.701   3.378   6.006
    6CHTO   C19 2861   0.588   3.331   6.084
    6CHTO   H47 2862   0.508   3.402   6.057
    6CHTO   C20 2863   0.540   3.190   6.051
    6CHTO   H48 2864   0.613   3.113   6.078
    6CHTO   O19 2865   0.514   3.183   5.910
    6CHTO   H35 2866   0.482   3.096   5.886
    6CHTO   C21 2867   0.409   3.163   6.129
    6CHTO   H49 2868   0.332   3.235   6.096
    6CHTO    N4 2869   0.359   3.028   6.102
    6CHTO   H41 2870   0.264   3.014   6.153
    6CHTO   H42 2871   0.430   2.954   6.138
    6CHTO   C22 2872   0.437   3.182   6.278
    6CHTO   H50 2873   0.513   3.110   6.309
    6CHTO   O14 2874   0.481   3.317   6.304
    6CHTO   C23 2875   0.606   3.345   6.237
    6CHTO   H51 2876   0.681   3.275   6.277
    6CHTO   C34 2877   0.646   3.489   6.275
    6CHTO   O23 2878   0.662   3.496   6.416
    6CHTO   H38 2879   0.680   3.585   6.444
    6CHTO   O16 2880   0.314   3.162   6.347
    6CHTO   C24 2881   0.334   3.146   6.488
    6CHTO   H52 2882   0.418   3.206   6.525
    6CHTO   C26 2883   0.356   2.998   6.523
    6CHTO   H54 2884   0.276   2.937   6.476
    6CHTO   O20 2885   0.484   2.950   6.477
    6CHTO   H36 2886   0.491   2.857   6.495
    6CHTO   C30 2887   0.347   2.979   6.675
    6CHTO   H58 2888   0.429   3.032   6.726
    6CHTO    N6 2889   0.360   2.835   6.709
    6CHTO   H45 2890   0.272   2.783   6.675
    6CHTO   H46 2891   0.367   2.827   6.816
    6CHTO   C33 2892   0.213   3.036   6.725
    6CHTO   H61 2893   0.129   2.986   6.676
    6CHTO   O18 2894   0.208   3.175   6.697
    6CHTO   C28 2895   0.207   3.202   6.555
    6CHTO   H56 2896   0.118   3.156   6.509
    6CHTO   C35 2897   0.200   3.355   6.538
    6CHTO   O24 2898   0.078   3.409   6.590
    6CHTO   H39 2899   0.077   3.502   6.576
    6CHTO    O9 2900   0.198   3.009   6.865
    6CHTO   C13 2901   0.087   3.080   6.925
    6CHTO   H26 2902   0.006   3.093   6.852
    6CHTO   C11 2903   0.141   3.217   6.977
    6CHTO   H24 2904   0.140   3.291   6.896
    6CHTO    O8 2905   0.276   3.194   7.018
    6CHTO    H3 2906   0.318   3.272   7.048
    6CHTO    C9 2907   0.054   3.265   7.093
    6CHTO   H22 2908  -0.048   3.268   7.052
    6CHTO    N2 2909   0.086   3.403   7.135
    6CHTO   H10 2910   0.083   3.470   7.049
    6CHTO   H11 2911   0.182   3.409   7.184
    6CHTO    C7 2912   0.063   3.165   7.210
    6CHTO   H20 2913  -0.039   3.162   7.251
    6CHTO    O4 2914   0.102   3.035   7.166
    6CHTO   C14 2915   0.036   2.997   7.045
    6CHTO   H27 2916  -0.074   3.012   7.056
    6CHTO   C18 2917   0.058   2.846   7.022
    6CHTO   O13 2918  -0.000   2.809   6.896
    6CHTO    H7 2919   0.012   2.716   6.880
    6CHTO    O2 2920   0.155   3.210   7.312
    6CHTO    C1 2921   0.171   3.119   7.422
    6CHTO   H14 2922   0.211   3.022   7.385
    6CHTO    C2 2923   0.040   3.094   7.502
    6CHTO   H15 2924  -0.005   3.191   7.528
    6CHTO    O6 2925  -0.051   3.013   7.427
    6CHTO    H1 2926  -0.131   2.999   7.477
    6CHTO    C3 2927   0.073   3.013   7.631
    6CHTO   H16 2928   0.110   2.912   7.604
    6CHTO    N1 2929  -0.048   2.996   7.712
    6CHTO    H8 2930  -0.086   3.092   7.742
    6CHTO    H9 2931  -0.028   2.936   7.800
    6CHTO    C4 2932   0.188   3.080   7.710
    6CHTO   H17 2933   0.151   3.176   7.752
    6CHTO    O1 2934   0.303   3.100   7.627
    6CHTO    C5 2935   0.276   3.183   7.515
    6CHTO   H18 2936   0.239   3.281   7.549
    6CHTO   C16 2937   0.412   3.204   7.442
    6CHTO   O11 2938   0.508   3.244   7.540
    6CHTO    H5 2939   0.591   3.261   7.498
    6CHTO    O3 2940   0.225   2.991   7.817
    6CHTO    C6 2941   0.331   3.042   7.900
    6CHTO   H19 2942   0.404   3.103   7.843
    6CHTO    C8 2943   0.275   3.123   8.018
    6CHTO   H21 2944   0.202   3.061   8.072
    6CHTO    O7 2945   0.214   3.243   7.970
    6CHTO    H2 2946   0.180   3.296   8.042
    6CHTO   C12 2947   0.392   3.160   8.112
    6CHTO   H25 2948   0.459   3.228   8.055
    6CHTO    N3 2949   0.336   3.236   8.226
    6CHTO   H12 2950   0.414   3.286   8.282
    6CHTO   H13 2951   0.279   3.172   8.291
    6CHTO   C15 2952   0.469   3.035   8.156
    6CHTO   H28 2953   0.407   2.969   8.217
    6CHTO   O10 2954   0.589   3.069   8.228
    6CHTO    H4 2955   0.568   3.110   8.312
    6CHTO    O5 2956   0.517   2.965   8.040
    6CHTO   C10 2957   0.408   2.921   7.957
    6CHTO   H23 2958   0.342   2.859   8.017
    6CHTO   C17 2959   0.467   2.834   7.845
    6CHTO   O12 2960   0.539   2.726   7.902
    6CHTO    H6 2961   0.580   2.672   7.835
    7CHTO  H203 2962  10.317   1.272   4.748
    7CHTO   O82 2963  10.262   1.220   4.805
    7CHTO  C123 2964  10.210   1.107   4.735
    7CHTO  H227 2965  10.295   1.045   4.699
    7CHTO   O77 2966  10.130   1.034   4.829
    7CHTO  C118 2967  10.080   0.912   4.774
    7CHTO  H222 2968  10.163   0.848   4.740
    7CHTO  C125 2969   9.998   0.834   4.881
    7CHTO   O84 2970  10.084   0.806   4.992
    7CHTO  H205 2971  10.036   0.764   5.062
    7CHTO  C114 2972   9.987   0.941   4.655
    7CHTO  H218 2973   9.899   0.997   4.691
    7CHTO  C116 2974  10.061   1.027   4.549
    7CHTO  H220 2975  10.142   0.968   4.501
    7CHTO   O79 2976   9.971   1.070   4.446
    7CHTO  H201 2977  10.015   1.124   4.382
    7CHTO  C120 2978  10.119   1.152   4.619
    7CHTO  H224 2979  10.033   1.212   4.657
    7CHTO   N21 2980  10.191   1.232   4.519
    7CHTO  H211 2981  10.286   1.186   4.496
    7CHTO  H212 2982  10.205   1.333   4.554
    7CHTO   O75 2983   9.949   0.813   4.606
    7CHTO  C112 2984   9.845   0.817   4.505
    7CHTO  H216 2985   9.883   0.862   4.412
    7CHTO   O73 2986   9.732   0.887   4.558
    7CHTO  C113 2987   9.622   0.887   4.467
    7CHTO  H217 2988   9.655   0.930   4.371
    7CHTO  C124 2989   9.512   0.978   4.524
    7CHTO   O83 2990   9.568   1.106   4.561
    7CHTO  H204 2991   9.500   1.160   4.600
    7CHTO  C109 2992   9.569   0.743   4.443
    7CHTO  H213 2993   9.540   0.702   4.542
    7CHTO  C110 2994   9.687   0.664   4.383
    7CHTO  H214 2995   9.715   0.706   4.285
    7CHTO   O78 2996   9.650   0.527   4.366
    7CHTO  H200 2997   9.723   0.476   4.331
    7CHTO  C111 2998   9.804   0.670   4.481
    7CHTO  H215 2999   9.775   0.623   4.577
    7CHTO   N19 3000   9.921   0.596   4.430
    7CHTO  H207 3001   9.997   0.594   4.506
    7CHTO  H208 3002   9.959   0.643   4.341
    7CHTO   O74 3003   9.452   0.743   4.357
    7CHTO  C115 3004   9.374   0.622   4.366
    7CHTO  H219 3005   9.430   0.542   4.414
    7CHTO   O76 3006   9.256   0.640   4.445
    7CHTO  C122 3007   9.182   0.757   4.403
    7CHTO  H226 3008   9.237   0.845   4.438
    7CHTO  C126 3009   9.044   0.760   4.475
    7CHTO   O85 3010   8.958   0.653   4.435
    7CHTO  H206 3011   8.998   0.568   4.448
    7CHTO  C121 3012   9.167   0.764   4.248
    7CHTO  H225 3013   9.063   0.792   4.222
    7CHTO   O81 3014   9.258   0.863   4.198
    7CHTO  H202 3015   9.238   0.949   4.231
    7CHTO  C119 3016   9.199   0.625   4.188
    7CHTO  H223 3017   9.132   0.557   4.242
    7CHTO  C117 3018   9.341   0.575   4.222
    7CHTO  H221 3019   9.421   0.610   4.154
    7CHTO   N20 3020   9.347   0.429   4.217
    7CHTO  H209 3021   9.317   0.394   4.119
    7CHTO  H210 3022   9.285   0.384   4.293
    7CHTO   O80 3023   9.161   0.602   4.051
    7CHTO  C103 3024   9.189   0.704   3.953
    7CHTO  H190 3025   9.145   0.800   3.983
    7CHTO  C101 3026   9.339   0.729   3.917
    7CHTO  H188 3027   9.389   0.635   3.892
    7CHTO   O68 3028   9.409   0.794   4.026
    7CHTO  H168 3029   9.503   0.797   4.010
    7CHTO   C99 3030   9.344   0.822   3.791
    7CHTO  H186 3031   9.297   0.920   3.814
    7CHTO   N17 3032   9.482   0.848   3.744
    7CHTO  H174 3033   9.534   0.754   3.732
    7CHTO  H175 3034   9.535   0.913   3.812
    7CHTO   C97 3035   9.265   0.762   3.674
    7CHTO  H184 3036   9.309   0.664   3.649
    7CHTO   O64 3037   9.129   0.750   3.716
    7CHTO  C104 3038   9.115   0.657   3.825
    7CHTO  H191 3039   9.154   0.560   3.795
    7CHTO  C108 3040   8.967   0.637   3.856
    7CHTO   O71 3041   8.899   0.600   3.735
    7CHTO  H171 3042   8.806   0.592   3.752
    7CHTO   O62 3043   9.273   0.851   3.562
    7CHTO   C91 3044   9.251   0.787   3.435
    7CHTO  H178 3045   9.329   0.711   3.422
    7CHTO   C92 3046   9.275   0.892   3.326
    7CHTO  H179 3047   9.375   0.938   3.338
    7CHTO   O66 3048   9.276   0.827   3.199
    7CHTO  H166 3049   9.297   0.887   3.129
    7CHTO   C93 3050   9.165   1.000   3.326
    7CHTO  H180 3051   9.165   1.051   3.228
    7CHTO   N16 3052   9.189   1.104   3.428
    7CHTO  H172 3053   9.184   1.062   3.527
    7CHTO  H173 3054   9.116   1.183   3.417
    7CHTO   C94 3055   9.026   0.933   3.348
    7CHTO  H181 3056   8.993   0.941   3.451
    7CHTO   O61 3057   9.036   0.795   3.312
    7CHTO   C95 3058   9.111   0.723   3.412
    7CHTO  H182 3059   9.055   0.722   3.505
    7CHTO  C106 3060   9.126   0.576   3.365
    7CHTO   O69 3061   8.993   0.523   3.352
    7CHTO  H169 3062   8.997   0.430   3.330
    7CHTO   O63 3063   8.936   1.002   3.257
    7CHTO   C96 3064   8.798   0.967   3.277
    7CHTO  H183 3065   8.775   0.978   3.383
    7CHTO   C98 3066   8.761   0.823   3.234
    7CHTO  H185 3067   8.815   0.748   3.295
    7CHTO   O67 3068   8.623   0.804   3.262
    7CHTO  H167 3069   8.600   0.714   3.243
    7CHTO  C102 3070   8.788   0.803   3.082
    7CHTO  H189 3071   8.725   0.718   3.051
    7CHTO   N18 3072   8.927   0.765   3.050
    7CHTO  H176 3073   8.955   0.676   3.105
    7CHTO  H177 3074   8.997   0.844   3.073
    7CHTO  C105 3075   8.746   0.928   3.004
    7CHTO  H192 3076   8.834   0.989   2.982
    7CHTO   O65 3077   8.653   1.007   3.081
    7CHTO  C100 3078   8.713   1.067   3.196
    7CHTO  H187 3079   8.779   1.148   3.160
    7CHTO  C107 3080   8.602   1.131   3.283
    7CHTO   O70 3081   8.526   1.028   3.345
    7CHTO  H170 3082   8.461   1.064   3.405
    7CHTO   O57 3083   8.688   0.874   2.884
    7CHTO   C85 3084   8.625   0.969   2.797
    7CHTO  H157 3085   8.537   1.013   2.848
    7CHTO   C83 3086   8.572   0.889   2.676
    7CHTO  H155 3087   8.507   0.807   2.710
    7CHTO   O56 3088   8.685   0.830   2.609
    7CHTO  H135 3089   8.733   0.772   2.667
    7CHTO   C81 3090   8.494   0.981   2.581
    7CHTO  H153 3091   8.398   1.006   2.627
    7CHTO   N14 3092   8.468   0.912   2.454
    7CHTO  H141 3093   8.407   0.825   2.474
    7CHTO  H142 3094   8.561   0.879   2.408
    7CHTO   C79 3095   8.573   1.112   2.554
    7CHTO  H151 3096   8.525   1.191   2.614
    7CHTO   O52 3097   8.711   1.098   2.598
    7CHTO   C86 3098   8.721   1.078   2.741
    7CHTO  H158 3099   8.827   1.048   2.755
    7CHTO   C90 3100   8.705   1.211   2.816
    7CHTO   O60 3101   8.770   1.314   2.741
    7CHTO  H138 3102   8.759   1.398   2.785
    7CHTO   O50 3103   8.567   1.147   2.415
    7CHTO   C73 3104   8.637   1.267   2.380
    7CHTO  H145 3105   8.741   1.264   2.415
    7CHTO   C74 3106   8.568   1.394   2.434
    7CHTO  H146 3107   8.570   1.394   2.544
    7CHTO   O54 3108   8.640   1.509   2.389
    7CHTO  H133 3109   8.598   1.587   2.423
    7CHTO   C75 3110   8.423   1.395   2.380
    7CHTO  H147 3111   8.371   1.304   2.414
    7CHTO   N13 3112   8.351   1.515   2.429
    7CHTO  H139 3113   8.348   1.513   2.536
    7CHTO  H140 3114   8.250   1.514   2.390
    7CHTO   C76 3115   8.431   1.396   2.225
    7CHTO  H148 3116   8.481   1.489   2.195
    7CHTO   O49 3117   8.503   1.281   2.175
    7CHTO   C77 3118   8.636   1.273   2.225
    7CHTO  H149 3119   8.694   1.359   2.192
    7CHTO   C88 3120   8.706   1.148   2.167
    7CHTO   O58 3121   8.709   1.158   2.023
    7CHTO  H136 3122   8.755   1.085   1.983
    7CHTO   O51 3123   8.296   1.387   2.175
    7CHTO   C78 3124   8.288   1.392   2.031
    7CHTO  H150 3125   8.372   1.338   1.983
    7CHTO   C80 3126   8.286   1.537   1.980
    7CHTO  H152 3127   8.207   1.593   2.034
    7CHTO   O55 3128   8.414   1.598   2.005
    7CHTO  H134 3129   8.413   1.690   1.981
    7CHTO   C84 3130   8.259   1.538   1.828
    7CHTO  H156 3131   8.343   1.491   1.777
    7CHTO   N15 3132   8.249   1.677   1.781
    7CHTO  H143 3133   8.167   1.725   1.830
    7CHTO  H144 3134   8.231   1.676   1.674
    7CHTO   C87 3135   8.130   1.461   1.798
    7CHTO  H159 3136   8.045   1.512   1.847
    7CHTO   O53 3137   8.143   1.326   1.847
    7CHTO   C82 3138   8.157   1.322   1.990
    7CHTO  H154 3139   8.071   1.369   2.038
    7CHTO   C89 3140   8.161   1.174   2.037
    7CHTO   O59 3141   8.040   1.111   1.992
    7CHTO  H137 3142   8.042   1.020   2.019
    7CHTO   O45 3143   8.112   1.460   1.655
    7CHTO   C67 3144   8.016   1.361   1.614
    7CHTO  H124 3145   8.052   1.260   1.639
    7CHTO   C65 3146   7.880   1.384   1.683
    7CHTO  H122 3147   7.866   1.492   1.695
    7CHTO   O44 3148   7.887   1.317   1.811
    7CHTO  H102 3149   7.810   1.334   1.865
    7CHTO   C63 3150   7.765   1.333   1.593
    7CHTO  H120 3151   7.735   1.414   1.525
    7CHTO   N11 3152   7.642   1.299   1.667
    7CHTO  H108 3153   7.610   1.383   1.726
    7CHTO  H109 3154   7.659   1.214   1.733
    7CHTO   C61 3155   7.813   1.213   1.508
    7CHTO  H118 3156   7.726   1.178   1.451
    7CHTO   O40 3157   7.913   1.253   1.416
    7CHTO   C68 3158   7.996   1.362   1.460
    7CHTO  H125 3159   7.948   1.457   1.431
    7CHTO   C72 3160   8.132   1.355   1.386
    7CHTO   O48 3161   8.215   1.467   1.413
    7CHTO  H105 3162   8.295   1.462   1.362
    7CHTO   O38 3163   7.866   1.105   1.589
    7CHTO   C55 3164   7.867   0.983   1.514
    7CHTO  H112 3165   7.887   1.004   1.408
    7CHTO   C56 3166   7.736   0.902   1.534
    7CHTO  H113 3167   7.728   0.877   1.642
    7CHTO   O42 3168   7.619   0.979   1.502
    7CHTO  H100 3169   7.539   0.932   1.526
    7CHTO   C57 3170   7.740   0.774   1.450
    7CHTO  H114 3171   7.746   0.800   1.344
    7CHTO   N10 3172   7.620   0.690   1.472
    7CHTO  H106 3173   7.640   0.588   1.447
    7CHTO  H107 3174   7.538   0.727   1.414
    7CHTO   C58 3175   7.866   0.695   1.488
    7CHTO  H115 3176   7.853   0.657   1.592
    7CHTO   O37 3177   7.985   0.774   1.478
    7CHTO   C59 3178   7.980   0.890   1.563
    7CHTO  H116 3179   7.966   0.860   1.667
    7CHTO   C70 3180   8.116   0.959   1.547
    7CHTO   O46 3181   8.224   0.868   1.576
    7CHTO  H103 3182   8.306   0.914   1.570
    7CHTO   O39 3183   7.873   0.584   1.396
    7CHTO   C60 3184   7.997   0.512   1.401
    7CHTO  H117 3185   8.079   0.579   1.373
    7CHTO   C62 3186   8.025   0.450   1.539
    7CHTO  H119 3187   8.045   0.532   1.609
    7CHTO   O43 3188   7.909   0.377   1.581
    7CHTO  H101 3189   7.918   0.346   1.670
    7CHTO   C66 3190   8.150   0.359   1.527
    7CHTO  H123 3191   8.237   0.422   1.501
    7CHTO   N12 3192   8.180   0.292   1.653
    7CHTO  H110 3193   8.107   0.215   1.674
    7CHTO  H111 3194   8.186   0.364   1.733
    7CHTO   C69 3195   8.127   0.254   1.417
    7CHTO  H126 3196   8.038   0.192   1.442
    7CHTO   O41 3197   8.111   0.322   1.291
    7CHTO   C64 3198   7.991   0.402   1.292
    7CHTO  H121 3199   7.902   0.337   1.312
    7CHTO   C71 3200   7.971   0.466   1.153
    7CHTO   O47 3201   7.973   0.360   1.056
    7CHTO  H104 3202   7.960   0.395   0.969
    7CHTO   O34 3203   8.245   0.172   1.419
    7CHTO   C49 3204   8.230   0.040   1.362
    7CHTO   H91 3205   8.149  -0.011   1.414
    7CHTO   C47 3206   8.364  -0.030   1.384
    7CHTO   H89 3207   8.357  -0.131   1.338
    7CHTO   O33 3208   8.396  -0.045   1.524
    7CHTO   H70 3209   8.330  -0.098   1.567
    7CHTO   C45 3210   8.476   0.054   1.317
    7CHTO   H87 3211   8.517   0.127   1.388
    7CHTO    N8 3212   8.584  -0.036   1.275
    7CHTO   H75 3213   8.614  -0.097   1.360
    7CHTO   H76 3214   8.668   0.020   1.238
    7CHTO   C43 3215   8.420   0.132   1.195
    7CHTO   H85 3216   8.377   0.226   1.232
    7CHTO   O29 3217   8.323   0.049   1.131
    7CHTO   C50 3218   8.203   0.040   1.210
    7CHTO   H92 3219   8.138   0.125   1.185
    7CHTO   C54 3220   8.122  -0.084   1.167
    7CHTO   O36 3221   8.089  -0.073   1.027
    7CHTO   H72 3222   8.038  -0.147   1.000
    7CHTO   O27 3223   8.528   0.163   1.106
    7CHTO   C37 3224   8.487   0.221   0.980
    7CHTO   H79 3225   8.420   0.153   0.926
    7CHTO   C38 3226   8.413   0.355   1.000
    7CHTO   H80 3227   8.471   0.419   1.070
    7CHTO   O31 3228   8.283   0.330   1.052
    7CHTO   H68 3229   8.234   0.409   1.067
    7CHTO   C39 3230   8.394   0.428   0.865
    7CHTO   H81 3231   8.328   0.367   0.802
    7CHTO    N7 3232   8.331   0.560   0.885
    7CHTO   H73 3233   8.305   0.603   0.790
    7CHTO   H74 3234   8.396   0.625   0.940
    7CHTO   C40 3235   8.528   0.444   0.790
    7CHTO   H82 3236   8.597   0.507   0.849
    7CHTO   O26 3237   8.581   0.313   0.769
    7CHTO   C41 3238   8.613   0.247   0.894
    7CHTO   H83 3239   8.685   0.309   0.951
    7CHTO   C52 3240   8.682   0.114   0.857
    7CHTO   O35 3241   8.796   0.136   0.771
    7CHTO   H71 3242   8.845   0.056   0.758
    7CHTO   O28 3243   8.505   0.507   0.663
    7CHTO   C42 3244   8.622   0.534   0.584
    7CHTO   H84 3245   8.582   0.573   0.488
    7CHTO   C44 3246   8.709   0.413   0.547
    7CHTO   H86 3247   8.760   0.376   0.637
    7CHTO   O32 3248   8.627   0.308   0.493
    7CHTO   H69 3249   8.679   0.230   0.477
    7CHTO   C48 3250   8.816   0.459   0.445
    7CHTO   H90 3251   8.767   0.499   0.355
    7CHTO    N9 3252   8.900   0.344   0.403
    7CHTO   H77 3253   8.963   0.311   0.483
    7CHTO   H78 3254   8.960   0.370   0.317
    7CHTO   C51 3255   8.901   0.571   0.513
    7CHTO   H93 3256   8.948   0.529   0.602
    7CHTO   O30 3257   8.814   0.679   0.543
    7CHTO   C46 3258   8.714   0.645   0.641
    7CHTO   H88 3259   8.762   0.609   0.733
    7CHTO   C53 3260   8.634   0.774   0.667
    7CHTO   O72 3261   8.535   0.752   0.768
    7CHTO  H199 3262   8.485   0.830   0.785
    7CHTO   O22 3263   8.999   0.615   0.417
    7CHTO   C31 3264   9.096   0.713   0.465
    7CHTO   H59 3265   9.158   0.739   0.378
    7CHTO   C29 3266   9.037   0.845   0.518
    7CHTO   H57 3267   8.980   0.827   0.610
    7CHTO   O21 3268   8.946   0.902   0.423
    7CHTO   H37 3269   8.992   0.920   0.342
    7CHTO   C27 3270   9.153   0.942   0.548
    7CHTO   H55 3271   9.206   0.963   0.453
    7CHTO    N5 3272   9.101   1.067   0.604
    7CHTO   H43 3273   9.046   1.052   0.696
    7CHTO   H44 3274   9.038   1.120   0.533
    7CHTO   C25 3275   9.249   0.876   0.648
    7CHTO   H53 3276   9.193   0.858   0.742
    7CHTO   O17 3277   9.297   0.750   0.597
    7CHTO   C32 3278   9.192   0.657   0.572
    7CHTO   H60 3279   9.136   0.637   0.664
    7CHTO   C36 3280   9.258   0.526   0.524
    7CHTO   O25 3281   9.339   0.473   0.628
    7CHTO   H40 3282   9.377   0.389   0.601
    7CHTO   O15 3283   9.357   0.968   0.672
    7CHTO   C19 3284   9.450   0.926   0.776
    7CHTO   H47 3285   9.526   1.006   0.776
    7CHTO   C20 3286   9.390   0.918   0.917
    7CHTO   H48 3287   9.316   0.838   0.926
    7CHTO   O19 3288   9.329   1.044   0.947
    7CHTO   H35 3289   9.292   1.043   1.035
    7CHTO   C21 3290   9.505   0.891   1.017
    7CHTO   H49 3291   9.576   0.975   1.014
    7CHTO    N4 3292   9.453   0.881   1.154
    7CHTO   H41 3293   9.536   0.868   1.223
    7CHTO   H42 3294   9.386   0.796   1.162
    7CHTO   C22 3295   9.576   0.762   0.976
    7CHTO   H50 3296   9.504   0.679   0.980
    7CHTO   O14 3297   9.630   0.775   0.843
    7CHTO   C23 3298   9.527   0.795   0.745
    7CHTO   H51 3299   9.461   0.706   0.748
    7CHTO   C34 3300   9.595   0.803   0.608
    7CHTO   O23 3301   9.664   0.681   0.584
    7CHTO   H38 3302   9.713   0.684   0.502
    7CHTO   O16 3303   9.683   0.742   1.066
    7CHTO   C24 3304   9.738   0.609   1.058
    7CHTO   H52 3305   9.732   0.569   0.955
    7CHTO   C26 3306   9.664   0.515   1.154
    7CHTO   H54 3307   9.660   0.561   1.255
    7CHTO   O20 3308   9.529   0.488   1.111
    7CHTO   H36 3309   9.485   0.434   1.176
    7CHTO   C30 3310   9.740   0.382   1.165
    7CHTO   H58 3311   9.741   0.329   1.069
    7CHTO    N6 3312   9.675   0.294   1.265
    7CHTO   H45 3313   9.688   0.335   1.363
    7CHTO   H46 3314   9.723   0.198   1.261
    7CHTO   C33 3315   9.886   0.412   1.205
    7CHTO   H61 3316   9.890   0.466   1.301
    7CHTO   O18 3317   9.947   0.491   1.104
    7CHTO   C28 3318   9.887   0.621   1.093
    7CHTO   H56 3319   9.897   0.676   1.188
    7CHTO   C35 3320   9.962   0.697   0.981
    7CHTO   O24 3321  10.099   0.719   1.016
    7CHTO   H39 3322  10.141   0.767   0.947
    7CHTO    O9 3323   9.956   0.290   1.227
    7CHTO   C13 3324  10.099   0.307   1.241
    7CHTO   H26 3325  10.121   0.404   1.288
    7CHTO   C11 3326  10.163   0.296   1.099
    7CHTO   H24 3327  10.159   0.393   1.048
    7CHTO    O8 3328  10.082   0.201   1.027
    7CHTO    H3 3329  10.112   0.190   0.939
    7CHTO    C9 3330  10.308   0.249   1.112
    7CHTO   H22 3331  10.356   0.322   1.178
    7CHTO    N2 3332  10.381   0.254   0.984
    7CHTO   H10 3333  10.372   0.353   0.939
    7CHTO   H11 3334  10.346   0.179   0.915
    7CHTO    C7 3335  10.312   0.108   1.176
    7CHTO   H20 3336  10.400   0.111   1.241
    7CHTO    O4 3337  10.195   0.081   1.252
    7CHTO   C14 3338  10.154   0.193   1.331
    7CHTO   H27 3339  10.241   0.231   1.390
    7CHTO   C18 3340  10.048   0.147   1.432
    7CHTO   O13 3341  10.001   0.260   1.506
    7CHTO    H7 3342   9.935   0.234   1.570
    7CHTO    O2 3343  10.328   0.005   1.076
    7CHTO    C1 3344  10.328  -0.129   1.128
    7CHTO   H14 3345  10.232  -0.150   1.179
    7CHTO    C2 3346  10.445  -0.158   1.227
    7CHTO   H15 3347  10.540  -0.125   1.181
    7CHTO    O6 3348  10.424  -0.091   1.352
    7CHTO    H1 3349  10.496  -0.108   1.411
    7CHTO    C3 3350  10.450  -0.310   1.260
    7CHTO   H16 3351  10.358  -0.339   1.315
    7CHTO    N1 3352  10.564  -0.339   1.347
    7CHTO    H8 3353  10.656  -0.313   1.296
    7CHTO    H9 3354  10.566  -0.443   1.374
    7CHTO    C4 3355  10.450  -0.394   1.130
    7CHTO   H17 3356  10.547  -0.378   1.078
    7CHTO    O1 3357  10.340  -0.359   1.046
    7CHTO    C5 3358  10.341  -0.223   1.006
    7CHTO   H18 3359  10.435  -0.200   0.954
    7CHTO   C16 3360  10.223  -0.203   0.908
    7CHTO   O11 3361  10.232  -0.307   0.809
    7CHTO    H5 3362  10.163  -0.296   0.744
    7CHTO    O3 3363  10.435  -0.532   1.168
    7CHTO    C6 3364  10.436  -0.622   1.056
    7CHTO   H19 3365  10.389  -0.578   0.966
    7CHTO    C8 3366  10.578  -0.670   1.023
    7CHTO   H21 3367  10.623  -0.712   1.114
    7CHTO    O7 3368  10.656  -0.561   0.974
    7CHTO    H2 3369  10.745  -0.589   0.951
    7CHTO   C12 3370  10.570  -0.779   0.914
    7CHTO   H25 3371  10.530  -0.731   0.822
    7CHTO    N3 3372  10.707  -0.825   0.885
    7CHTO   H12 3373  10.712  -0.883   0.794
    7CHTO   H13 3374  10.746  -0.883   0.968
    7CHTO   C15 3375  10.476  -0.893   0.958
    7CHTO   H28 3376  10.515  -0.946   1.044
    7CHTO   O10 3377  10.453  -0.986   0.849
    7CHTO    H4 3378  10.533  -1.033   0.827
    7CHTO    O5 3379  10.346  -0.840   0.986
    7CHTO   C10 3380  10.352  -0.746   1.095
    7CHTO   H23 3381  10.395  -0.795   1.181
    7CHTO   C17 3382  10.207  -0.706   1.130
    7CHTO   O12 3383  10.133  -0.823   1.162
    7CHTO    H6 3384  10.042  -0.802   1.181
    8CHTO  H203 3385   5.728   1.219   5.776
    8CHTO   O82 3386   5.822   1.231   5.773
    8CHTO  C123 3387   5.866   1.312   5.882
    8CHTO  H227 3388   5.838   1.262   5.977
    8CHTO   O77 3389   6.009   1.322   5.870
    8CHTO  C118 3390   6.067   1.393   5.979
    8CHTO  H222 3391   6.042   1.343   6.075
    8CHTO  C125 3392   6.222   1.397   5.965
    8CHTO   O84 3393   6.271   1.263   5.962
    8CHTO  H205 3394   6.364   1.261   5.947
    8CHTO  C114 3395   6.016   1.538   5.983
    8CHTO  H218 3396   6.049   1.589   5.891
    8CHTO  C116 3397   5.860   1.539   5.988
    8CHTO  H220 3398   5.825   1.500   6.085
    8CHTO   O79 3399   5.810   1.673   5.973
    8CHTO  H201 3400   5.716   1.675   5.975
    8CHTO  C120 3401   5.806   1.454   5.871
    8CHTO  H224 3402   5.838   1.503   5.777
    8CHTO   N21 3403   5.661   1.453   5.878
    8CHTO  H211 3404   5.626   1.388   5.957
    8CHTO  H212 3405   5.618   1.423   5.783
    8CHTO   O75 3406   6.076   1.595   6.098
    8CHTO  C112 3407   6.056   1.738   6.110
    8CHTO  H216 3408   5.951   1.761   6.130
    8CHTO   O73 3409   6.104   1.802   5.990
    8CHTO  C113 3410   6.096   1.944   5.999
    8CHTO  H217 3411   5.992   1.973   6.021
    8CHTO  C124 3412   6.133   2.002   5.862
    8CHTO   O83 3413   6.057   1.937   5.758
    8CHTO  H204 3414   6.084   1.970   5.673
    8CHTO  C109 3415   6.189   1.999   6.111
    8CHTO  H213 3416   6.292   1.964   6.087
    8CHTO  C110 3417   6.140   1.936   6.242
    8CHTO  H214 3418   6.038   1.970   6.264
    8CHTO   O78 3419   6.225   1.974   6.350
    8CHTO  H200 3420   6.197   1.933   6.431
    8CHTO  C111 3421   6.145   1.784   6.228
    8CHTO  H215 3422   6.250   1.752   6.210
    8CHTO   N19 3423   6.099   1.716   6.350
    8CHTO  H207 3424   6.114   1.610   6.341
    8CHTO  H208 3425   5.995   1.737   6.368
    8CHTO   O74 3426   6.188   2.144   6.114
    8CHTO  C115 3427   6.301   2.201   6.183
    8CHTO  H219 3428   6.353   2.126   6.242
    8CHTO   O76 3429   6.399   2.252   6.092
    8CHTO  C122 3430   6.339   2.338   5.993
    8CHTO  H226 3431   6.285   2.275   5.922
    8CHTO  C126 3432   6.450   2.410   5.911
    8CHTO   O85 3433   6.527   2.502   5.990
    8CHTO  H206 3434   6.565   2.460   6.065
    8CHTO  C121 3435   6.240   2.440   6.057
    8CHTO  H225 3436   6.255   2.541   6.013
    8CHTO   O81 3437   6.106   2.396   6.030
    8CHTO  H202 3438   6.087   2.394   5.938
    8CHTO  C119 3439   6.265   2.446   6.210
    8CHTO  H223 3440   6.372   2.469   6.217
    8CHTO  C117 3441   6.249   2.310   6.280
    8CHTO  H221 3442   6.146   2.284   6.309
    8CHTO   N20 3443   6.328   2.305   6.403
    8CHTO  H209 3444   6.298   2.386   6.469
    8CHTO  H210 3445   6.434   2.312   6.383
    8CHTO   O80 3446   6.206   2.556   6.282
    8CHTO  C103 3447   6.068   2.591   6.255
    8CHTO  H190 3448   6.054   2.611   6.148
    8CHTO  C101 3449   5.959   2.489   6.301
    8CHTO  H188 3450   5.974   2.461   6.406
    8CHTO   O68 3451   5.960   2.371   6.218
    8CHTO  H168 3452   5.903   2.302   6.254
    8CHTO   C99 3453   5.819   2.558   6.288
    8CHTO  H186 3454   5.801   2.585   6.182
    8CHTO   N17 3455   5.708   2.474   6.334
    8CHTO  H174 3456   5.730   2.437   6.433
    8CHTO  H175 3457   5.690   2.392   6.266
    8CHTO   C97 3458   5.815   2.690   6.367
    8CHTO  H184 3459   5.834   2.667   6.473
    8CHTO   O64 3460   5.915   2.777   6.313
    8CHTO  C104 3461   6.046   2.724   6.331
    8CHTO  H191 3462   6.065   2.708   6.438
    8CHTO  C108 3463   6.149   2.827   6.285
    8CHTO   O71 3464   6.123   2.952   6.351
    8CHTO  H171 3465   6.183   3.018   6.320
    8CHTO   O62 3466   5.685   2.749   6.351
    8CHTO   C91 3467   5.649   2.840   6.457
    8CHTO  H178 3468   5.648   2.782   6.551
    8CHTO   C92 3469   5.504   2.884   6.432
    8CHTO  H179 3470   5.438   2.796   6.421
    8CHTO   O66 3471   5.458   2.955   6.547
    8CHTO  H166 3472   5.366   2.979   6.539
    8CHTO   C93 3473   5.494   2.976   6.308
    8CHTO  H180 3474   5.399   3.032   6.315
    8CHTO   N16 3475   5.489   2.898   6.183
    8CHTO  H172 3476   5.582   2.845   6.168
    8CHTO  H173 3477   5.471   2.966   6.100
    8CHTO   C94 3478   5.613   3.076   6.307
    8CHTO  H181 3479   5.692   3.044   6.241
    8CHTO   O61 3480   5.665   3.086   6.441
    8CHTO   C95 3481   5.737   2.966   6.475
    8CHTO  H182 3482   5.826   2.958   6.413
    8CHTO  C106 3483   5.785   2.979   6.622
    8CHTO   O69 3484   5.870   3.094   6.629
    8CHTO  H169 3485   5.908   3.103   6.716
    8CHTO   O63 3486   5.556   3.202   6.267
    8CHTO   C96 3487   5.655   3.304   6.240
    8CHTO  H183 3488   5.730   3.261   6.172
    8CHTO   C98 3489   5.728   3.356   6.366
    8CHTO  H185 3490   5.785   3.276   6.415
    8CHTO   O67 3491   5.823   3.453   6.323
    8CHTO  H167 3492   5.874   3.481   6.398
    8CHTO  C102 3493   5.626   3.421   6.465
    8CHTO  H189 3494   5.685   3.489   6.528
    8CHTO   N18 3495   5.561   3.325   6.555
    8CHTO  H176 3496   5.636   3.269   6.611
    8CHTO  H177 3497   5.496   3.256   6.503
    8CHTO  C105 3498   5.522   3.502   6.386
    8CHTO  H192 3499   5.430   3.443   6.376
    8CHTO   O65 3500   5.571   3.535   6.255
    8CHTO  C100 3501   5.583   3.421   6.170
    8CHTO  H187 3502   5.481   3.388   6.143
    8CHTO  C107 3503   5.656   3.462   6.041
    8CHTO   O70 3504   5.793   3.488   6.069
    8CHTO  H170 3505   5.843   3.507   5.991
    8CHTO   O57 3506   5.501   3.618   6.470
    8CHTO   C85 3507   5.418   3.721   6.414
    8CHTO  H157 3508   5.468   3.764   6.325
    8CHTO   C83 3509   5.410   3.832   6.520
    8CHTO  H155 3510   5.511   3.865   6.549
    8CHTO   O56 3511   5.347   3.778   6.637
    8CHTO  H135 3512   5.396   3.705   6.672
    8CHTO   C81 3513   5.331   3.952   6.466
    8CHTO  H153 3514   5.392   4.005   6.392
    8CHTO   N14 3515   5.300   4.046   6.575
    8CHTO  H141 3516   5.392   4.083   6.616
    8CHTO  H142 3517   5.245   3.995   6.654
    8CHTO   C79 3518   5.200   3.905   6.398
    8CHTO  H151 3519   5.216   3.911   6.289
    8CHTO   O52 3520   5.171   3.767   6.433
    8CHTO   C86 3521   5.273   3.675   6.383
    8CHTO  H158 3522   5.250   3.581   6.435
    8CHTO   C90 3523   5.253   3.648   6.234
    8CHTO   O60 3524   5.112   3.639   6.207
    8CHTO  H138 3525   5.098   3.624   6.114
    8CHTO   O50 3526   5.091   3.990   6.435
    8CHTO   C73 3527   4.964   3.955   6.377
    8CHTO  H145 3528   4.940   3.849   6.396
    8CHTO   C74 3529   4.959   3.983   6.225
    8CHTO  H146 3530   5.030   3.917   6.172
    8CHTO   O54 3531   4.828   3.951   6.176
    8CHTO  H133 3532   4.826   3.967   6.083
    8CHTO   C75 3533   4.991   4.132   6.203
    8CHTO  H147 3534   5.091   4.154   6.244
    8CHTO   N13 3535   4.988   4.165   6.059
    8CHTO  H139 3536   5.062   4.106   6.007
    8CHTO  H140 3537   5.011   4.269   6.045
    8CHTO   C76 3538   4.884   4.215   6.280
    8CHTO  H148 3539   4.787   4.192   6.235
    8CHTO   O49 3540   4.884   4.183   6.421
    8CHTO   C77 3541   4.859   4.045   6.446
    8CHTO  H149 3542   4.759   4.018   6.411
    8CHTO   C88 3543   4.859   4.019   6.598
    8CHTO   O58 3544   4.757   4.100   6.661
    8CHTO  H136 3545   4.751   4.084   6.755
    8CHTO   O51 3546   4.921   4.354   6.267
    8CHTO   C78 3547   4.827   4.443   6.330
    8CHTO  H150 3548   4.787   4.401   6.424
    8CHTO   C80 3549   4.710   4.476   6.236
    8CHTO  H152 3550   4.750   4.511   6.139
    8CHTO   O55 3551   4.630   4.358   6.216
    8CHTO  H134 3552   4.561   4.374   6.152
    8CHTO   C84 3553   4.621   4.585   6.299
    8CHTO  H156 3554   4.575   4.545   6.390
    8CHTO   N15 3555   4.514   4.623   6.206
    8CHTO  H143 3556   4.558   4.663   6.116
    8CHTO  H144 3557   4.453   4.699   6.252
    8CHTO   C87 3558   4.708   4.707   6.335
    8CHTO  H159 3559   4.750   4.749   6.242
    8CHTO   O53 3560   4.812   4.666   6.425
    8CHTO   C82 3561   4.902   4.573   6.364
    8CHTO  H154 3562   4.948   4.617   6.275
    8CHTO   C89 3563   5.017   4.540   6.463
    8CHTO   O59 3564   5.082   4.664   6.497
    8CHTO  H137 3565   5.152   4.646   6.558
    8CHTO   O45 3566   4.623   4.805   6.399
    8CHTO   C67 3567   4.699   4.905   6.468
    8CHTO  H124 3568   4.757   4.860   6.549
    8CHTO   C65 3569   4.796   4.977   6.372
    8CHTO  H122 3570   4.747   4.983   6.274
    8CHTO   O44 3571   4.915   4.897   6.367
    8CHTO  H102 3572   4.977   4.929   6.302
    8CHTO   C63 3573   4.820   5.122   6.419
    8CHTO  H120 3574   4.742   5.187   6.376
    8CHTO   N11 3575   4.947   5.180   6.371
    8CHTO  H108 3576   4.952   5.173   6.264
    8CHTO  H109 3577   5.032   5.127   6.414
    8CHTO   C61 3578   4.811   5.130   6.574
    8CHTO  H118 3579   4.835   5.234   6.602
    8CHTO   O40 3580   4.679   5.102   6.618
    8CHTO   C68 3581   4.606   5.010   6.535
    8CHTO  H125 3582   4.554   5.067   6.456
    8CHTO   C72 3583   4.496   4.941   6.621
    8CHTO   O48 3584   4.409   4.860   6.543
    8CHTO  H105 3585   4.341   4.823   6.598
    8CHTO   O38 3586   4.901   5.039   6.639
    8CHTO   C55 3587   4.923   5.079   6.775
    8CHTO  H112 3588   4.831   5.124   6.816
    8CHTO   C56 3589   5.046   5.173   6.788
    8CHTO  H113 3590   5.135   5.118   6.755
    8CHTO   O42 3591   5.035   5.289   6.704
    8CHTO  H100 3592   5.116   5.339   6.705
    8CHTO   C57 3593   5.062   5.217   6.936
    8CHTO  H114 3594   4.974   5.273   6.967
    8CHTO   N10 3595   5.182   5.301   6.953
    8CHTO  H106 3596   5.216   5.297   7.055
    8CHTO  H107 3597   5.162   5.402   6.925
    8CHTO   C58 3598   5.074   5.091   7.022
    8CHTO  H115 3599   5.170   5.040   6.999
    8CHTO   O37 3600   4.965   5.001   7.001
    8CHTO   C59 3601   4.956   4.957   6.865
    8CHTO  H116 3602   5.049   4.908   6.834
    8CHTO   C70 3603   4.840   4.856   6.860
    8CHTO   O46 3604   4.861   4.750   6.955
    8CHTO  H103 3605   4.791   4.687   6.947
    8CHTO   O39 3606   5.074   5.136   7.159
    8CHTO   C60 3607   5.060   5.031   7.255
    8CHTO  H117 3608   4.964   4.981   7.241
    8CHTO   C62 3609   5.174   4.928   7.249
    8CHTO  H119 3610   5.163   4.872   7.154
    8CHTO   O43 3611   5.299   4.998   7.249
    8CHTO  H101 3612   5.372   4.938   7.235
    8CHTO   C66 3613   5.159   4.831   7.369
    8CHTO  H123 3614   5.065   4.776   7.359
    8CHTO   N12 3615   5.267   4.733   7.372
    8CHTO  H110 3616   5.361   4.779   7.401
    8CHTO  H111 3617   5.276   4.684   7.277
    8CHTO   C69 3618   5.159   4.912   7.500
    8CHTO  H126 3619   5.253   4.969   7.509
    8CHTO   O41 3620   5.044   4.998   7.500
    8CHTO   C64 3621   5.055   5.097   7.395
    8CHTO  H121 3622   5.148   5.157   7.409
    8CHTO   C71 3623   4.935   5.193   7.404
    8CHTO   O47 3624   4.932   5.247   7.537
    8CHTO  H104 3625   4.860   5.308   7.547
    8CHTO   O34 3626   5.152   4.812   7.604
    8CHTO   C49 3627   5.198   4.856   7.734
    8CHTO   H91 3628   5.301   4.892   7.724
    8CHTO   C47 3629   5.190   4.733   7.823
    8CHTO   H89 3630   5.221   4.763   7.925
    8CHTO   O33 3631   5.276   4.626   7.778
    8CHTO   H70 3632   5.366   4.654   7.780
    8CHTO   C45 3633   5.043   4.681   7.823
    8CHTO   H87 3634   5.028   4.607   7.743
    8CHTO    N8 3635   5.017   4.615   7.952
    8CHTO   H75 3636   5.093   4.541   7.971
    8CHTO   H76 3637   4.920   4.568   7.952
    8CHTO   C43 3638   4.944   4.798   7.801
    8CHTO   H85 3639   4.934   4.813   7.693
    8CHTO   O29 3640   4.996   4.912   7.868
    8CHTO   C50 3641   5.110   4.965   7.799
    8CHTO   H92 3642   5.075   5.035   7.720
    8CHTO   C54 3643   5.193   5.055   7.894
    8CHTO   O36 3644   5.109   5.162   7.941
    8CHTO   H72 3645   5.159   5.219   7.998
    8CHTO   O27 3646   4.815   4.761   7.854
    8CHTO   C37 3647   4.718   4.867   7.854
    8CHTO   H79 3648   4.754   4.953   7.914
    8CHTO   C38 3649   4.689   4.919   7.711
    8CHTO   H80 3650   4.671   4.832   7.644
    8CHTO   O31 3651   4.800   4.994   7.665
    8CHTO   H68 3652   4.787   5.027   7.577
    8CHTO   C39 3653   4.566   5.013   7.711
    8CHTO   H81 3654   4.592   5.102   7.770
    8CHTO    N7 3655   4.533   5.055   7.574
    8CHTO   H73 3656   4.457   5.131   7.576
    8CHTO   H74 3657   4.500   4.971   7.515
    8CHTO   C40 3658   4.443   4.947   7.778
    8CHTO   H82 3659   4.413   4.857   7.720
    8CHTO   O26 3660   4.481   4.914   7.912
    8CHTO   C41 3661   4.587   4.814   7.915
    8CHTO   H83 3662   4.554   4.724   7.861
    8CHTO   C52 3663   4.607   4.778   8.064
    8CHTO   O35 3664   4.483   4.734   8.124
    8CHTO   H71 3665   4.498   4.700   8.212
    8CHTO   O28 3666   4.334   5.040   7.780
    8CHTO   C42 3667   4.210   4.990   7.834
    8CHTO   H84 3668   4.144   5.078   7.836
    8CHTO   C44 3669   4.215   4.939   7.979
    8CHTO   H86 3670   4.271   4.844   7.982
    8CHTO   O32 3671   4.280   5.035   8.064
    8CHTO   H69 3672   4.289   5.000   8.152
    8CHTO   C48 3673   4.070   4.910   8.025
    8CHTO   H90 3674   4.011   5.002   8.021
    8CHTO    N9 3675   4.069   4.864   8.167
    8CHTO   H77 3676   4.112   4.766   8.175
    8CHTO   H78 3677   3.969   4.865   8.206
    8CHTO   C51 3678   4.010   4.803   7.929
    8CHTO   H93 3679   4.071   4.713   7.936
    8CHTO   O30 3680   4.008   4.858   7.798
    8CHTO   C46 3681   4.140   4.883   7.747
    8CHTO   H88 3682   4.199   4.791   7.747
    8CHTO   C53 3683   4.120   4.936   7.603
    8CHTO   O72 3684   4.247   4.958   7.540
    8CHTO  H199 3685   4.236   4.990   7.452
    8CHTO   O22 3686   3.874   4.779   7.971
    8CHTO   C31 3687   3.803   4.673   7.900
    8CHTO   H59 3688   3.701   4.673   7.941
    8CHTO   C29 3689   3.789   4.693   7.748
    8CHTO   H57 3690   3.888   4.686   7.699
    8CHTO   O21 3691   3.736   4.822   7.717
    8CHTO   H37 3692   3.650   4.832   7.757
    8CHTO   C27 3693   3.698   4.582   7.692
    8CHTO   H55 3694   3.597   4.594   7.738
    8CHTO    N5 3695   3.686   4.594   7.546
    8CHTO   H43 3696   3.782   4.586   7.497
    8CHTO   H44 3697   3.639   4.687   7.517
    8CHTO   C25 3698   3.757   4.445   7.729
    8CHTO   H53 3699   3.855   4.437   7.680
    8CHTO   O17 3700   3.773   4.433   7.871
    8CHTO   C32 3701   3.861   4.532   7.926
    8CHTO   H60 3702   3.960   4.525   7.878
    8CHTO   C36 3703   3.873   4.504   8.076
    8CHTO   O25 3704   3.935   4.377   8.096
    8CHTO   H40 3705   3.948   4.360   8.189
    8CHTO   O15 3706   3.668   4.344   7.678
    8CHTO   C19 3707   3.717   4.208   7.692
    8CHTO   H47 3708   3.634   4.147   7.651
    8CHTO   C20 3709   3.843   4.175   7.610
    8CHTO   H48 3710   3.931   4.230   7.647
    8CHTO   O19 3711   3.818   4.210   7.474
    8CHTO   H35 3712   3.895   4.190   7.420
    8CHTO   C21 3713   3.870   4.024   7.621
    8CHTO   H49 3714   3.785   3.969   7.578
    8CHTO    N4 3715   3.991   3.987   7.547
    8CHTO   H41 3716   4.005   3.880   7.552
    8CHTO   H42 3717   4.078   4.036   7.591
    8CHTO   C22 3718   3.884   3.988   7.770
    8CHTO   H50 3719   3.969   4.042   7.811
    8CHTO   O14 3720   3.763   4.020   7.841
    8CHTO   C23 3721   3.735   4.161   7.838
    8CHTO   H51 3722   3.820   4.212   7.887
    8CHTO   C34 3723   3.608   4.184   7.920
    8CHTO   O23 3724   3.631   4.140   8.053
    8CHTO   H38 3725   3.551   4.147   8.106
    8CHTO   O16 3726   3.905   3.847   7.777
    8CHTO   C24 3727   3.950   3.806   7.907
    8CHTO   H52 3728   3.908   3.869   7.987
    8CHTO   C26 3729   4.104   3.809   7.913
    8CHTO   H54 3730   4.145   3.755   7.826
    8CHTO   O20 3731   4.155   3.944   7.912
    8CHTO   H36 3732   4.250   3.942   7.911
    8CHTO   C30 3733   4.152   3.739   8.041
    8CHTO   H58 3734   4.119   3.793   8.130
    8CHTO    N6 3735   4.300   3.734   8.043
    8CHTO   H45 3736   4.334   3.667   7.966
    8CHTO   H46 3737   4.330   3.695   8.139
    8CHTO   C33 3738   4.092   3.597   8.045
    8CHTO   H61 3739   4.122   3.540   7.955
    8CHTO   O18 3740   3.950   3.606   8.049
    8CHTO   C28 3741   3.896   3.664   7.928
    8CHTO   H56 3742   3.921   3.602   7.841
    8CHTO   C35 3743   3.742   3.667   7.945
    8CHTO   O24 3744   3.687   3.536   7.955
    8CHTO   H39 3745   3.593   3.542   7.963
    8CHTO    O9 3746   4.144   3.525   8.156
    8CHTO   C13 3747   4.075   3.400   8.182
    8CHTO   H26 3748   4.039   3.356   8.087
    8CHTO   C11 3749   3.958   3.430   8.280
    8CHTO   H24 3750   3.869   3.464   8.225
    8CHTO    O8 3751   4.004   3.535   8.365
    8CHTO    H3 3752   3.937   3.562   8.426
    8CHTO    C9 3753   3.924   3.303   8.359
    8CHTO   H22 3754   3.903   3.227   8.283
    8CHTO    N2 3755   3.802   3.317   8.441
    8CHTO   H10 3756   3.720   3.351   8.378
    8CHTO   H11 3757   3.817   3.385   8.524
    8CHTO    C7 3758   4.047   3.261   8.444
    8CHTO   H20 3759   4.046   3.151   8.439
    8CHTO    O4 3760   4.169   3.313   8.392
    8CHTO   C14 3761   4.175   3.302   8.249
    8CHTO   H27 3762   4.151   3.198   8.218
    8CHTO   C18 3763   4.319   3.330   8.203
    8CHTO   O13 3764   4.324   3.328   8.060
    8CHTO    H7 3765   4.413   3.345   8.029
    8CHTO    O2 3766   4.033   3.304   8.581
    8CHTO    C1 3767   4.146   3.272   8.665
    8CHTO   H14 3768   4.237   3.321   8.627
    8CHTO    C2 3769   4.172   3.119   8.679
    8CHTO   H15 3770   4.077   3.068   8.705
    8CHTO    O6 3771   4.226   3.065   8.557
    8CHTO    H1 3772   4.241   2.972   8.566
    8CHTO    C3 3773   4.280   3.094   8.788
    8CHTO   H16 3774   4.376   3.137   8.755
    8CHTO    N1 3775   4.300   2.950   8.807
    8CHTO    H8 3776   4.208   2.904   8.840
    8CHTO    H9 3777   4.377   2.931   8.879
    8CHTO    C4 3778   4.243   3.167   8.919
    8CHTO   H17 3779   4.154   3.118   8.963
    8CHTO    O1 3780   4.219   3.306   8.896
    8CHTO    C5 3781   4.113   3.330   8.805
    8CHTO   H18 3782   4.021   3.284   8.842
    8CHTO   C16 3783   4.093   3.483   8.798
    8CHTO   O11 3784   4.083   3.531   8.933
    8CHTO    H5 3785   4.067   3.625   8.933
    8CHTO    O3 3786   4.355   3.155   9.008
    8CHTO    C6 3787   4.333   3.218   9.136
    8CHTO   H19 3788   4.270   3.309   9.129
    8CHTO    C8 3789   4.272   3.119   9.237
    8CHTO   H21 3790   4.335   3.029   9.242
    8CHTO    O7 3791   4.139   3.086   9.197
    8CHTO    H2 3792   4.097   3.026   9.260
    8CHTO   C12 3793   4.267   3.187   9.376
    8CHTO   H25 3794   4.197   3.273   9.368
    8CHTO    N3 3795   4.210   3.091   9.472
    8CHTO   H12 3796   4.180   3.139   9.564
    8CHTO   H13 3797   4.279   3.011   9.492
    8CHTO   C15 3798   4.406   3.238   9.417
    8CHTO   H28 3799   4.476   3.155   9.432
    8CHTO   O10 3800   4.400   3.318   9.537
    8CHTO    H4 3801   4.374   3.265   9.612
    8CHTO    O5 3802   4.456   3.328   9.318
    8CHTO   C10 3803   4.470   3.263   9.191
    8CHTO   H23 3804   4.535   3.176   9.203
    8CHTO   C17 3805   4.539   3.361   9.095
    8CHTO   O12 3806   4.664   3.402   9.150
    8CHTO    H6 3807   4.707   3.466   9.094
    9CHTO  H203 3808   5.713   9.116   6.333
    9CHTO   O82 3809   5.658   9.060   6.279
    9CHTO  C123 3810   5.540   9.022   6.348
    9CHTO  H227 3811   5.483   9.114   6.375
    9CHTO   O77 3812   5.464   8.940   6.258
    9CHTO  C118 3813   5.337   8.903   6.312
    9CHTO  H222 3814   5.278   8.994   6.337
    9CHTO  C125 3815   5.256   8.819   6.209
    9CHTO   O84 3816   5.239   8.898   6.091
    9CHTO  H205 3817   5.196   8.848   6.023
    9CHTO  C114 3818   5.355   8.819   6.439
    9CHTO  H218 3819   5.405   8.725   6.412
    9CHTO  C116 3820   5.443   8.895   6.542
    9CHTO  H220 3821   5.389   8.984   6.581
    9CHTO   O79 3822   5.475   8.810   6.653
    9CHTO  H201 3823   5.530   8.855   6.716
    9CHTO  C120 3824   5.574   8.938   6.473
    9CHTO  H224 3825   5.628   8.845   6.444
    9CHTO   N21 3826   5.655   9.011   6.569
    9CHTO  H211 3827   5.616   9.111   6.583
    9CHTO  H212 3828   5.759   9.015   6.537
    9CHTO   O75 3829   5.222   8.794   6.485
    9CHTO  C112 3830   5.215   8.699   6.594
    9CHTO  H216 3831   5.260   8.741   6.685
    9CHTO   O73 3832   5.279   8.577   6.553
    9CHTO  C113 3833   5.267   8.475   6.652
    9CHTO  H217 3834   5.309   8.513   6.748
    9CHTO  C124 3835   5.352   8.355   6.608
    9CHTO   O83 3836   5.484   8.398   6.572
    9CHTO  H204 3837   5.535   8.324   6.540
    9CHTO  C109 3838   5.119   8.435   6.675
    9CHTO  H213 3839   5.080   8.401   6.577
    9CHTO  C110 3840   5.047   8.562   6.723
    9CHTO  H214 3841   5.088   8.595   6.819
    9CHTO   O78 3842   4.907   8.538   6.737
    9CHTO  H200 3843   4.861   8.616   6.764
    9CHTO  C111 3844   5.065   8.671   6.616
    9CHTO  H215 3845   5.019   8.637   6.521
    9CHTO   N19 3846   4.999   8.796   6.654
    9CHTO  H207 3847   5.005   8.867   6.573
    9CHTO  H208 3848   5.045   8.838   6.742
    9CHTO   O74 3849   5.107   8.326   6.770
    9CHTO  C115 3850   4.981   8.257   6.763
    9CHTO  H219 3851   4.907   8.313   6.707
    9CHTO   O76 3852   4.993   8.131   6.694
    9CHTO  C122 3853   5.102   8.053   6.745
    9CHTO  H226 3854   5.195   8.097   6.710
    9CHTO  C126 3855   5.097   7.909   6.685
    9CHTO   O85 3856   4.982   7.834   6.728
    9CHTO  H206 3857   4.902   7.880   6.708
    9CHTO  C121 3858   5.102   8.050   6.901
    9CHTO  H225 3859   5.122   7.946   6.937
    9CHTO   O81 3860   5.207   8.137   6.948
    9CHTO  H202 3861   5.292   8.108   6.920
    9CHTO  C119 3862   4.964   8.096   6.953
    9CHTO  H223 3863   4.894   8.031   6.903
    9CHTO  C117 3864   4.927   8.239   6.907
    9CHTO  H221 3865   4.966   8.320   6.969
    9CHTO   N20 3866   4.781   8.256   6.905
    9CHTO  H209 3867   4.741   8.236   7.004
    9CHTO  H210 3868   4.734   8.191   6.833
    9CHTO   O80 3869   4.935   8.071   7.092
    9CHTO  C103 3870   5.036   8.100   7.191
    9CHTO  H190 3871   5.129   8.046   7.169
    9CHTO  C101 3872   5.070   8.250   7.217
    9CHTO  H188 3873   4.979   8.309   7.234
    9CHTO   O68 3874   5.144   8.306   7.105
    9CHTO  H168 3875   5.153   8.401   7.113
    9CHTO   C99 3876   5.159   8.259   7.345
    9CHTO  H186 3877   5.253   8.203   7.330
    9CHTO   N17 3878   5.194   8.397   7.382
    9CHTO  H174 3879   5.104   8.457   7.387
    9CHTO  H175 3880   5.264   8.440   7.313
    9CHTO   C97 3881   5.090   8.194   7.465
    9CHTO  H184 3882   4.994   8.246   7.483
    9CHTO   O64 3883   5.068   8.056   7.434
    9CHTO  C104 3884   4.978   8.040   7.323
    9CHTO  H191 3885   4.883   8.088   7.346
    9CHTO  C108 3886   4.948   7.892   7.303
    9CHTO   O71 3887   4.902   7.837   7.427
    9CHTO  H171 3888   4.887   7.744   7.418
    9CHTO   O62 3889   5.175   8.204   7.580
    9CHTO   C91 3890   5.105   8.197   7.706
    9CHTO  H178 3891   5.035   8.281   7.709
    9CHTO   C92 3892   5.208   8.223   7.817
    9CHTO  H179 3893   5.262   8.318   7.798
    9CHTO   O66 3894   5.139   8.239   7.940
    9CHTO  H166 3895   5.198   8.261   8.011
    9CHTO   C93 3896   5.308   8.105   7.829
    9CHTO  H180 3897   5.355   8.110   7.929
    9CHTO   N16 3898   5.416   8.114   7.730
    9CHTO  H172 3899   5.377   8.104   7.630
    9CHTO  H173 3900   5.489   8.036   7.750
    9CHTO   C94 3901   5.231   7.970   7.816
    9CHTO  H181 3902   5.240   7.928   7.716
    9CHTO   O61 3903   5.092   7.993   7.845
    9CHTO   C95 3904   5.030   8.065   7.738
    9CHTO  H182 3905   5.028   8.002   7.649
    9CHTO  C106 3906   4.883   8.094   7.777
    9CHTO   O69 3907   4.820   7.967   7.798
    9CHTO  H169 3908   4.727   7.979   7.817
    9CHTO   O63 3909   5.289   7.883   7.916
    9CHTO   C96 3910   5.245   7.747   7.906
    9CHTO  H183 3911   5.258   7.714   7.802
    9CHTO   C98 3912   5.098   7.724   7.946
    9CHTO  H185 3913   5.029   7.779   7.878
    9CHTO   O67 3914   5.069   7.586   7.928
    9CHTO  H167 3915   4.977   7.571   7.945
    9CHTO  C102 3916   5.074   7.765   8.094
    9CHTO  H189 3917   4.984   7.711   8.127
    9CHTO   N18 3918   5.047   7.908   8.113
    9CHTO  H176 3919   4.961   7.938   8.053
    9CHTO  H177 3920   5.131   7.970   8.089
    9CHTO  C105 3921   5.194   7.720   8.180
    9CHTO  H192 3922   5.261   7.805   8.198
    9CHTO   O65 3923   5.267   7.616   8.114
    9CHTO  C100 3924   5.336   7.662   7.997
    9CHTO  H187 3925   5.421   7.724   8.031
    9CHTO  C107 3926   5.394   7.540   7.922
    9CHTO   O70 3927   5.288   7.466   7.862
    9CHTO  H170 3928   5.320   7.395   7.809
    9CHTO   O57 3929   5.132   7.676   8.303
    9CHTO   C85 3930   5.219   7.614   8.398
    9CHTO  H157 3931   5.258   7.519   8.355
    9CHTO   C83 3932   5.131   7.577   8.519
    9CHTO  H155 3933   5.045   7.515   8.487
    9CHTO   O56 3934   5.078   7.698   8.575
    9CHTO  H135 3935   5.026   7.745   8.511
    9CHTO   C81 3936   5.213   7.501   8.623
    9CHTO  H153 3937   5.233   7.399   8.587
    9CHTO   N14 3938   5.138   7.490   8.749
    9CHTO  H141 3939   5.048   7.434   8.731
    9CHTO  H142 3940   5.111   7.588   8.786
    9CHTO   C79 3941   5.348   7.571   8.649
    9CHTO  H151 3942   5.426   7.513   8.596
    9CHTO   O52 3943   5.347   7.706   8.594
    9CHTO   C86 3944   5.333   7.706   8.450
    9CHTO  H158 3945   5.310   7.812   8.426
    9CHTO   C90 3946   5.466   7.674   8.382
    9CHTO   O60 3947   5.571   7.738   8.456
    9CHTO  H138 3948   5.655   7.717   8.416
    9CHTO   O50 3949   5.378   7.574   8.789
    9CHTO   C73 3950   5.502   7.638   8.824
    9CHTO  H145 3951   5.508   7.739   8.780
    9CHTO   C74 3952   5.625   7.556   8.781
    9CHTO  H146 3953   5.629   7.549   8.671
    9CHTO   O54 3954   5.744   7.622   8.824
    9CHTO  H133 3955   5.819   7.572   8.796
    9CHTO   C75 3956   5.614   7.416   8.846
    9CHTO  H147 3957   5.520   7.368   8.812
    9CHTO   N13 3958   5.729   7.332   8.807
    9CHTO  H139 3959   5.731   7.320   8.700
    9CHTO  H140 3960   5.719   7.235   8.853
    9CHTO   C76 3961   5.610   7.436   9.000
    9CHTO  H148 3962   5.706   7.482   9.029
    9CHTO   O49 3963   5.499   7.521   9.039
    9CHTO   C77 3964   5.503   7.650   8.978
    9CHTO  H149 3965   5.592   7.703   9.010
    9CHTO   C88 3966   5.382   7.733   9.026
    9CHTO   O58 3967   5.387   7.747   9.170
    9CHTO  H136 3968   5.317   7.801   9.203
    9CHTO   O51 3969   5.589   7.307   9.060
    9CHTO   C78 3970   5.589   7.310   9.204
    9CHTO  H150 3971   5.540   7.402   9.242
    9CHTO   C80 3972   5.732   7.302   9.260
    9CHTO  H152 3973   5.783   7.215   9.215
    9CHTO   O55 3974   5.803   7.422   9.228
    9CHTO  H134 3975   5.894   7.417   9.255
    9CHTO   C84 3976   5.726   7.288   9.414
    9CHTO  H156 3977   5.683   7.379   9.456
    9CHTO   N15 3978   5.862   7.271   9.467
    9CHTO  H143 3979   5.905   7.182   9.427
    9CHTO  H144 3980   5.856   7.262   9.575
    9CHTO   C87 3981   5.638   7.167   9.450
    9CHTO  H159 3982   5.684   7.075   9.411
    9CHTO   O53 3983   5.506   7.186   9.396
    9CHTO   C82 3984   5.508   7.189   9.252
    9CHTO  H154 3985   5.550   7.095   9.213
    9CHTO   C89 3986   5.363   7.199   9.199
    9CHTO   O59 3987   5.289   7.088   9.250
    9CHTO  H137 3988   5.200   7.093   9.221
    9CHTO   O45 3989   5.631   7.160   9.595
    9CHTO   C67 3990   5.523   7.076   9.639
    9CHTO  H124 3991   5.427   7.117   9.607
    9CHTO   C65 3992   5.538   6.933   9.582
    9CHTO  H122 3993   5.645   6.911   9.575
    9CHTO   O44 3994   5.477   6.935   9.451
    9CHTO  H102 3995   5.490   6.853   9.405
    9CHTO   C63 3996   5.476   6.830   9.679
    9CHTO  H120 3997   5.553   6.800   9.752
    9CHTO   N11 3998   5.436   6.704   9.613
    9CHTO  H108 3999   5.519   6.662   9.561
    9CHTO  H109 4000   5.354   6.722   9.543
    9CHTO   C61 4001   5.357   6.894   9.755
    9CHTO  H118 4002   5.314   6.814   9.817
    9CHTO   O40 4003   5.402   6.997   9.840
    9CHTO   C68 4004   5.518   7.068   9.794
    9CHTO  H125 4005   5.608   7.016   9.830
    9CHTO   C72 4006   5.518   7.210   9.857
    9CHTO   O48 4007   5.638   7.282   9.828
    9CHTO  H105 4008   5.637   7.367   9.872
    9CHTO   O38 4009   5.257   6.948   9.666
    9CHTO   C55 4010   5.132   6.963   9.735
    9CHTO  H112 4011   5.151   6.990   9.841
    9CHTO   C56 4012   5.043   6.837   9.722
    9CHTO  H113 4013   5.021   6.823   9.615
    9CHTO   O42 4014   5.109   6.718   9.767
    9CHTO  H100 4015   5.057   6.641   9.748
    9CHTO   C57 4016   4.912   6.858   9.802
    9CHTO  H114 4017   4.935   6.871   9.908
    9CHTO   N10 4018   4.821   6.743   9.785
    9CHTO  H106 4019   4.719   6.772   9.805
    9CHTO  H107 4020   4.849   6.663   9.851
    9CHTO   C58 4021   4.844   6.985   9.750
    9CHTO  H115 4022   4.809   6.967   9.646
    9CHTO   O37 4023   4.931   7.098   9.754
    9CHTO   C59 4024   5.049   7.079   9.674
    9CHTO  H116 4025   5.022   7.058   9.571
    9CHTO   C70 4026   5.128   7.210   9.683
    9CHTO   O46 4027   5.047   7.321   9.642
    9CHTO  H103 4028   5.098   7.400   9.643
    9CHTO   O39 4029   4.731   7.008   9.837
    9CHTO   C60 4030   4.669   7.136   9.820
    9CHTO  H117 4031   4.741   7.215   9.843
    9CHTO   C62 4032   4.614   7.157   9.678
    9CHTO  H119 4033   4.700   7.165   9.609
    9CHTO   O43 4034   4.534   7.043   9.642
    9CHTO  H101 4035   4.506   7.047   9.551
    9CHTO   C66 4036   4.533   7.289   9.677
    9CHTO  H123 4037   4.600   7.373   9.698
    9CHTO   N12 4038   4.472   7.314   9.546
    9CHTO  H110 4039   4.391   7.245   9.527
    9CHTO  H111 4040   4.547   7.307   9.469
    9CHTO   C69 4041   4.422   7.283   9.784
    9CHTO  H126 4042   4.355   7.197   9.763
    9CHTO   O41 4043   4.484   7.272   9.912
    9CHTO   C64 4044   4.555   7.147   9.924
    9CHTO  H121 4045   4.485   7.062   9.909
    9CHTO   C71 4046   4.613   7.134  10.067
    9CHTO   O47 4047   4.504   7.151  10.159
    9CHTO  H104 4048   4.536   7.143  10.249
    9CHTO   O34 4049   4.349   7.406   9.768
    9CHTO   C49 4050   4.215   7.405   9.822
    9CHTO   H91 4051   4.159   7.324   9.774
    9CHTO   C47 4052   4.156   7.541   9.786
    9CHTO   H89 4053   4.054   7.545   9.829
    9CHTO   O33 4054   4.148   7.563   9.644
    9CHTO   H70 4055   4.092   7.498   9.605
    9CHTO   C45 4056   4.246   7.652   9.847
    9CHTO   H87 4057   4.324   7.682   9.777
    9CHTO    N8 4058   4.163   7.769   9.878
    9CHTO   H75 4059   4.108   7.797   9.788
    9CHTO   H76 4060   4.223   7.852   9.910
    9CHTO   C43 4061   4.316   7.601   9.977
    9CHTO   H85 4062   4.407   7.549   9.947
    9CHTO   O29 4063   4.223   7.516  10.045
    9CHTO   C50 4064   4.208   7.391   9.976
    9CHTO   H92 4065   4.287   7.321  10.009
    9CHTO   C54 4066   4.077   7.322  10.020
    9CHTO   O36 4067   4.081   7.300  10.162
    9CHTO   H72 4068   4.002   7.257  10.190
    9CHTO   O27 4069   4.352   7.713  10.059
    9CHTO   C37 4070   4.402   7.679  10.189
    9CHTO   H79 4071   4.328   7.621  10.246
    9CHTO   C38 4072   4.531   7.594  10.180
    9CHTO   H80 4073   4.601   7.641  10.108
    9CHTO   O31 4074   4.497   7.462  10.137
    9CHTO   H68 4075   4.574   7.406  10.129
    9CHTO   C39 4076   4.598   7.580  10.319
    9CHTO   H81 4077   4.529   7.524  10.385
    9CHTO    N7 4078   4.725   7.506  10.309
    9CHTO   H73 4079   4.763   7.485  10.408
    9CHTO   H74 4080   4.797   7.562  10.252
    9CHTO   C40 4081   4.621   7.719  10.384
    9CHTO   H82 4082   4.691   7.778  10.322
    9CHTO   O26 4083   4.493   7.782  10.395
    9CHTO   C41 4084   4.434   7.809  10.265
    9CHTO   H83 4085   4.504   7.871  10.206
    9CHTO   C52 4086   4.306   7.890  10.292
    9CHTO   O35 4087   4.334   8.008  10.369
    9CHTO   H71 4088   4.257   8.064  10.375
    9CHTO   O28 4089   4.678   7.701  10.515
    9CHTO   C42 4090   4.711   7.822  10.586
    9CHTO   H84 4091   4.743   7.787  10.686
    9CHTO   C44 4092   4.595   7.920  10.611
    9CHTO   H86 4093   4.566   7.966  10.516
    9CHTO   O32 4094   4.483   7.851  10.667
    9CHTO   H69 4095   4.409   7.910  10.675
    9CHTO   C48 4096   4.646   8.032  10.706
    9CHTO   H90 4097   4.679   7.988  10.801
    9CHTO    N9 4098   4.536   8.127  10.737
    9CHTO   H77 4099   4.511   8.185  10.650
    9CHTO   H78 4100   4.564   8.191  10.819
    9CHTO   C51 4101   4.766   8.102  10.636
    9CHTO   H93 4102   4.731   8.145  10.542
    9CHTO   O30 4103   4.869   8.006  10.617
    9CHTO   C46 4104   4.830   7.901  10.526
    9CHTO   H88 4105   4.801   7.944  10.429
    9CHTO   C53 4106   4.954   7.810  10.511
    9CHTO   O72 4107   4.928   7.705  10.417
    9CHTO  H199 4108   5.003   7.648  10.407
    9CHTO   O22 4109   4.815   8.204  10.726
    9CHTO   C31 4110   4.921   8.290  10.674
    9CHTO   H59 4111   4.948   8.357  10.757
    9CHTO   C29 4112   5.050   8.217  10.631
    9CHTO   H57 4113   5.031   8.154  10.542
    9CHTO   O21 4114   5.097   8.130  10.734
    9CHTO   H37 4115   5.116   8.181  10.813
    9CHTO   C27 4116   5.156   8.323  10.596
    9CHTO   H55 4117   5.178   8.382  10.687
    9CHTO    N5 4118   5.279   8.258  10.549
    9CHTO   H43 4119   5.262   8.197  10.461
    9CHTO   H44 4120   5.325   8.197  10.627
    9CHTO   C25 4121   5.101   8.415  10.485
    9CHTO   H53 4122   5.082   8.353  10.396
    9CHTO   O17 4123   4.978   8.477  10.528
    9CHTO   C32 4124   4.876   8.381  10.557
    9CHTO   H60 4125   4.855   8.319  10.469
    9CHTO   C36 4126   4.749   8.460  10.595
    9CHTO   O25 4127   4.706   8.536  10.483
    9CHTO   H40 4128   4.624   8.581  10.503
    9CHTO   O15 4129   5.202   8.514  10.457
    9CHTO   C19 4130   5.170   8.601  10.345
    9CHTO   H47 4131   5.256   8.670  10.342
    9CHTO   C20 4132   5.163   8.531  10.208
    9CHTO   H48 4133   5.078   8.462  10.202
    9CHTO   O19 4134   5.285   8.458  10.188
    9CHTO   H35 4135   5.284   8.414  10.103
    9CHTO   C21 4136   5.148   8.638  10.098
    9CHTO   H49 4137   5.237   8.704  10.100
    9CHTO    N4 4138   5.138   8.577   9.966
    9CHTO   H41 4139   5.134   8.655   9.890
    9CHTO   H42 4140   5.049   8.516   9.960
    9CHTO   C22 4141   5.023   8.722  10.129
    9CHTO   H50 4142   4.935   8.656  10.127
    9CHTO   O14 4143   5.036   8.786  10.258
    9CHTO   C23 4144   5.045   8.690  10.364
    9CHTO   H51 4145   4.951   8.630  10.363
    9CHTO   C34 4146   5.054   8.768  10.496
    9CHTO   O23 4147   4.936   8.847  10.509
    9CHTO   H38 4148   4.940   8.902  10.587
    9CHTO   O16 4149   5.014   8.823  10.029
    9CHTO   C24 4150   4.885   8.887  10.029
    9CHTO   H52 4151   4.842   8.893  10.130
    9CHTO   C26 4152   4.790   8.813   9.935
    9CHTO   H54 4153   4.839   8.798   9.837
    9CHTO   O20 4154   4.751   8.684   9.987
    9CHTO   H36 4155   4.696   8.639   9.924
    9CHTO   C30 4156   4.663   8.897   9.913
    9CHTO   H58 4157   4.607   8.909  10.006
    9CHTO    N6 4158   4.574   8.831   9.815
    9CHTO   H45 4159   4.619   8.833   9.718
    9CHTO   H46 4160   4.481   8.886   9.812
    9CHTO   C33 4161   4.705   9.037   9.863
    9CHTO   H61 4162   4.763   9.029   9.769
    9CHTO   O18 4163   4.785   9.100   9.961
    9CHTO   C28 4164   4.910   9.031   9.982
    9CHTO   H56 4165   4.969   9.030   9.890
    9CHTO   C35 4166   4.988   9.110  10.091
    9CHTO   O24 4167   5.021   9.242  10.046
    9CHTO   H39 4168   5.070   9.286  10.114
    9CHTO    O9 4169   4.590   9.114   9.830
    9CHTO   C13 4170   4.618   9.254   9.806
    9CHTO   H26 4171   4.718   9.265   9.761
    9CHTO   C11 4172   4.607   9.329   9.942
    9CHTO   H24 4173   4.701   9.323   9.997
    9CHTO    O8 4174   4.504   9.262  10.016
    9CHTO    H3 4175   4.493   9.299  10.102
    9CHTO    C9 4176   4.572   9.476   9.916
    9CHTO   H22 4177   4.651   9.512   9.849
    9CHTO    N2 4178   4.577   9.558  10.038
    9CHTO   H10 4179   4.674   9.546  10.087
    9CHTO   H11 4180   4.498   9.534  10.107
    9CHTO    C7 4181   4.433   9.485   9.846
    9CHTO   H20 4182   4.445   9.567   9.774
    9CHTO    O4 4183   4.400   9.364   9.779
    9CHTO   C14 4184   4.511   9.309   9.708
    9CHTO   H27 4185   4.558   9.387   9.644
    9CHTO   C18 4186   4.461   9.198   9.613
    9CHTO   O13 4187   4.573   9.137   9.548
    9CHTO    H7 4188   4.544   9.068   9.488
    9CHTO    O2 4189   4.329   9.517   9.941
    9CHTO    C1 4190   4.197   9.522   9.883
    9CHTO   H14 4191   4.170   9.423   9.840
    9CHTO    C2 4192   4.181   9.632   9.774
    9CHTO   H15 4193   4.219   9.728   9.815
    9CHTO    O6 4194   4.250   9.596   9.654
    9CHTO    H1 4195   4.240   9.664   9.589
    9CHTO    C3 4196   4.031   9.645   9.735
    9CHTO   H16 4197   3.997   9.551   9.687
    9CHTO    N1 4198   4.013   9.754   9.639
    9CHTO    H8 4199   4.044   9.847   9.683
    9CHTO    H9 4200   3.910   9.762   9.607
    9CHTO    C4 4201   3.942   9.662   9.861
    9CHTO   H17 4202   3.963   9.761   9.906
    9CHTO    O1 4203   3.966   9.557   9.955
    9CHTO    C5 4204   4.101   9.552  10.000
    9CHTO   H18 4205   4.129   9.647  10.046
    9CHTO   C16 4206   4.108   9.441  10.108
    9CHTO   O11 4207   4.002   9.465  10.202
    9CHTO    H5 4208   4.005   9.401  10.272
    9CHTO    O3 4209   3.805   9.654   9.819
    9CHTO    C6 4210   3.711   9.670   9.928
    9CHTO   H19 4211   3.749   9.628  10.023
    9CHTO    C8 4212   3.673   9.818   9.947
    9CHTO   H21 4213   3.638   9.859   9.851
    9CHTO    O7 4214   3.786   9.892   9.994
    9CHTO    H2 4215   3.765   9.984  10.009
    9CHTO   C12 4216   3.560   9.827  10.052
    9CHTO   H25 4217   3.603   9.791  10.148
    9CHTO    N3 4218   3.524   9.969  10.068
    9CHTO   H12 4219   3.464   9.985  10.157
    9CHTO   H13 4220   3.472  10.005   9.981
    9CHTO   C15 4221   3.441   9.738  10.012
    9CHTO   H28 4222   3.394   9.774   9.920
    9CHTO   O10 4223   3.343   9.730  10.118
    9CHTO    H4 4224   3.302   9.815  10.132
    9CHTO    O5 4225   3.485   9.602   9.995
    9CHTO   C10 4226   3.583   9.593   9.891
    9CHTO   H23 4227   3.540   9.633   9.799
    9CHTO   C17 4228   3.613   9.444   9.869
    9CHTO   O12 4229   3.492   9.375   9.838
    9CHTO    H6 4230   3.507   9.282   9.827
   10CHTO  H203 4231   8.293   3.776   6.195
   10CHTO   O82 4232   8.244   3.841   6.244
   10CHTO  C123 4233   8.126   3.879   6.175
   10CHTO  H227 4234   8.063   3.789   6.159
   10CHTO   O77 4235   8.058   3.975   6.258
   10CHTO  C118 4236   7.932   4.013   6.203
   10CHTO  H222 4237   7.867   3.924   6.190
   10CHTO  C125 4238   7.860   4.112   6.299
   10CHTO   O84 4239   7.842   4.048   6.425
   10CHTO  H205 4240   7.804   4.107   6.489
   10CHTO  C114 4241   7.951   4.083   6.068
   10CHTO  H218 4242   8.007   4.176   6.084
   10CHTO  C116 4243   8.030   3.990   5.971
   10CHTO  H220 4244   7.970   3.902   5.943
   10CHTO   O79 4245   8.065   4.061   5.851
   10CHTO  H201 4246   8.115   4.007   5.792
   10CHTO  C120 4247   8.161   3.947   6.041
   10CHTO  H224 4248   8.221   4.039   6.058
   10CHTO   N21 4249   8.235   3.859   5.951
   10CHTO  H211 4250   8.189   3.761   5.948
   10CHTO  H212 4251   8.339   3.852   5.980
   10CHTO   O75 4252   7.819   4.110   6.023
   10CHTO  C112 4253   7.813   4.194   5.904
   10CHTO  H216 4254   7.853   4.140   5.817
   10CHTO   O73 4255   7.885   4.316   5.931
   10CHTO  C113 4256   7.877   4.407   5.822
   10CHTO  H217 4257   7.913   4.357   5.730
   10CHTO  C124 4258   7.969   4.526   5.851
   10CHTO   O83 4259   8.100   4.478   5.888
   10CHTO  H204 4260   8.156   4.552   5.910
   10CHTO  C109 4261   7.730   4.454   5.799
   10CHTO  H213 4262   7.696   4.500   5.894
   10CHTO  C110 4263   7.649   4.327   5.767
   10CHTO  H214 4264   7.685   4.282   5.673
   10CHTO   O78 4265   7.511   4.359   5.753
   10CHTO  H200 4266   7.459   4.281   5.736
   10CHTO  C111 4267   7.664   4.229   5.884
   10CHTO  H215 4268   7.624   4.275   5.976
   10CHTO   N19 4269   7.590   4.105   5.861
   10CHTO  H207 4270   7.594   4.043   5.949
   10CHTO  H208 4271   7.631   4.051   5.776
   10CHTO   O74 4272   7.722   4.553   5.693
   10CHTO  C115 4273   7.600   4.630   5.697
   10CHTO  H219 4274   7.526   4.585   5.760
   10CHTO   O76 4275   7.622   4.762   5.752
   10CHTO  C122 4276   7.734   4.827   5.689
   10CHTO  H226 4277   7.825   4.781   5.727
   10CHTO  C126 4278   7.740   4.976   5.734
   10CHTO   O85 4279   7.628   5.053   5.687
   10CHTO  H206 4280   7.546   5.015   5.713
   10CHTO  C121 4281   7.730   4.814   5.534
   10CHTO  H225 4282   7.754   4.912   5.487
   10CHTO   O81 4283   7.827   4.716   5.494
   10CHTO  H202 4284   7.915   4.742   5.516
   10CHTO  C119 4285   7.587   4.771   5.491
   10CHTO  H223 4286   7.522   4.846   5.536
   10CHTO  C117 4287   7.543   4.637   5.553
   10CHTO  H221 4288   7.575   4.547   5.499
   10CHTO   N20 4289   7.397   4.629   5.560
   10CHTO  H209 4290   7.354   4.641   5.461
   10CHTO  H210 4291   7.356   4.704   5.626
   10CHTO   O80 4292   7.554   4.784   5.351
   10CHTO  C103 4293   7.650   4.738   5.252
   10CHTO  H190 4294   7.747   4.788   5.267
   10CHTO  C101 4295   7.675   4.584   5.242
   10CHTO  H188 4296   7.580   4.530   5.234
   10CHTO   O68 4297   7.749   4.536   5.357
   10CHTO  H168 4298   7.752   4.440   5.359
   10CHTO   C99 4299   7.759   4.557   5.113
   10CHTO  H186 4300   7.857   4.608   5.120
   10CHTO   N17 4301   7.784   4.413   5.090
   10CHTO  H174 4302   7.691   4.359   5.094
   10CHTO  H175 4303   7.854   4.374   5.162
   10CHTO   C97 4304   7.690   4.613   4.989
   10CHTO  H184 4305   7.591   4.565   4.979
   10CHTO   O64 4306   7.677   4.755   5.006
   10CHTO  C104 4307   7.592   4.787   5.117
   10CHTO  H191 4308   7.494   4.743   5.102
   10CHTO  C108 4309   7.572   4.938   5.122
   10CHTO   O71 4310   7.525   4.983   4.994
   10CHTO  H171 4311   7.516   5.077   4.994
   10CHTO   O62 4312   7.770   4.585   4.874
   10CHTO   C91 4313   7.697   4.584   4.749
   10CHTO  H178 4314   7.622   4.504   4.757
   10CHTO   C92 4315   7.795   4.541   4.639
   10CHTO  H179 4316   7.844   4.445   4.666
   10CHTO   O66 4317   7.720   4.516   4.520
   10CHTO  H166 4318   7.776   4.483   4.450
   10CHTO   C93 4319   7.901   4.650   4.612
   10CHTO  H180 4320   7.944   4.632   4.512
   10CHTO   N16 4321   8.012   4.645   4.708
   10CHTO  H172 4322   7.976   4.667   4.808
   10CHTO  H173 4323   8.088   4.716   4.679
   10CHTO   C94 4324   7.833   4.790   4.613
   10CHTO  H181 4325   7.847   4.841   4.707
   10CHTO   O61 4326   7.692   4.773   4.590
   10CHTO   C95 4327   7.629   4.716   4.706
   10CHTO  H182 4328   7.633   4.789   4.788
   10CHTO  C106 4329   7.479   4.693   4.674
   10CHTO   O69 4330   7.423   4.821   4.641
   10CHTO  H169 4331   7.329   4.813   4.626
   10CHTO   O63 4332   7.893   4.862   4.502
   10CHTO   C96 4333   7.857   5.002   4.499
   10CHTO  H183 4334   7.875   5.044   4.599
   10CHTO   C98 4335   7.710   5.029   4.462
   10CHTO  H185 4336   7.641   4.986   4.536
   10CHTO   O67 4337   7.691   5.170   4.465
   10CHTO  H167 4338   7.599   5.189   4.449
   10CHTO  C102 4339   7.679   4.975   4.318
   10CHTO  H189 4340   7.591   5.031   4.283
   10CHTO   N18 4341   7.643   4.832   4.315
   10CHTO  H176 4342   7.558   4.814   4.381
   10CHTO  H177 4343   7.724   4.768   4.344
   10CHTO  C105 4344   7.798   5.003   4.225
   10CHTO  H192 4345   7.859   4.912   4.215
   10CHTO   O65 4346   7.880   5.109   4.278
   10CHTO  C100 4347   7.950   5.071   4.397
   10CHTO  H187 4348   8.029   5.000   4.368
   10CHTO  C107 4349   8.017   5.196   4.458
   10CHTO   O70 4350   7.918   5.282   4.512
   10CHTO  H170 4351   7.956   5.356   4.557
   10CHTO   O57 4352   7.735   5.037   4.100
   10CHTO   C85 4353   7.822   5.084   3.997
   10CHTO  H157 4354   7.868   5.180   4.028
   10CHTO   C83 4355   7.733   5.114   3.875
   10CHTO  H155 4356   7.652   5.184   3.902
   10CHTO   O56 4357   7.671   4.991   3.834
   10CHTO  H135 4358   7.618   4.954   3.903
   10CHTO   C81 4359   7.816   5.174   3.761
   10CHTO  H153 4360   7.843   5.277   3.786
   10CHTO   N14 4361   7.738   5.176   3.637
   10CHTO  H141 4362   7.652   5.239   3.651
   10CHTO  H142 4363   7.704   5.076   3.611
   10CHTO   C79 4364   7.946   5.092   3.739
   10CHTO  H151 4365   8.029   5.150   3.784
   10CHTO   O52 4366   7.938   4.965   3.808
   10CHTO   C86 4367   7.929   4.980   3.952
   10CHTO  H158 4368   7.901   4.879   3.987
   10CHTO   C90 4369   8.066   5.011   4.013
   10CHTO   O60 4370   8.165   4.933   3.944
   10CHTO  H138 4371   8.251   4.952   3.979
   10CHTO   O50 4372   7.971   5.073   3.600
   10CHTO   C73 4373   8.090   4.998   3.569
   10CHTO  H145 4374   8.092   4.902   3.622
   10CHTO   C74 4375   8.219   5.077   3.600
   10CHTO  H146 4376   8.227   5.094   3.708
   10CHTO   O54 4377   8.332   4.999   3.560
   10CHTO  H133 4378   8.411   5.047   3.581
   10CHTO   C75 4379   8.214   5.209   3.520
   10CHTO  H147 4380   8.124   5.266   3.551
   10CHTO   N13 4381   8.335   5.290   3.547
   10CHTO  H139 4382   8.341   5.313   3.652
   10CHTO  H140 4383   8.330   5.382   3.491
   10CHTO   C76 4384   8.204   5.173   3.370
   10CHTO  H148 4385   8.296   5.119   3.343
   10CHTO   O49 4386   8.087   5.093   3.342
   10CHTO   C77 4387   8.085   4.971   3.416
   10CHTO  H149 4388   8.170   4.909   3.388
   10CHTO   C88 4389   7.958   4.891   3.381
   10CHTO   O58 4390   7.957   4.862   3.239
   10CHTO  H136 4391   7.883   4.809   3.214
   10CHTO   O51 4392   8.189   5.297   3.297
   10CHTO   C78 4393   8.183   5.279   3.154
   10CHTO  H150 4394   8.128   5.187   3.127
   10CHTO   C80 4395   8.325   5.272   3.094
   10CHTO  H152 4396   8.383   5.360   3.127
   10CHTO   O55 4397   8.390   5.152   3.137
   10CHTO  H134 4398   8.480   5.148   3.106
   10CHTO   C84 4399   8.315   5.271   2.940
   10CHTO  H156 4400   8.265   5.179   2.908
   10CHTO   N15 4401   8.449   5.273   2.881
   10CHTO  H143 4402   8.499   5.364   2.911
   10CHTO  H144 4403   8.441   5.271   2.773
   10CHTO   C87 4404   8.233   5.393   2.893
   10CHTO  H159 4405   8.286   5.485   2.921
   10CHTO   O53 4406   8.102   5.387   2.953
   10CHTO   C82 4407   8.108   5.399   3.095
   10CHTO  H154 4408   8.157   5.494   3.123
   10CHTO   C89 4409   7.965   5.404   3.153
   10CHTO   O59 4410   7.896   5.514   3.092
   10CHTO  H137 4411   7.807   5.517   3.125
   10CHTO   O45 4412   8.221   5.384   2.749
   10CHTO   C67 4413   8.118   5.470   2.698
   10CHTO  H124 4414   8.020   5.439   2.737
   10CHTO   C65 4415   8.143   5.617   2.740
   10CHTO  H122 4416   8.251   5.633   2.741
   10CHTO   O44 4417   8.086   5.633   2.871
   10CHTO  H102 4418   8.105   5.718   2.909
   10CHTO   C63 4419   8.084   5.713   2.634
   10CHTO  H120 4420   8.160   5.731   2.556
   10CHTO   N11 4421   8.053   5.848   2.687
   10CHTO  H108 4422   8.140   5.890   2.733
   10CHTO  H109 4423   7.973   5.843   2.761
   10CHTO   C61 4424   7.959   5.650   2.569
   10CHTO  H118 4425   7.918   5.725   2.499
   10CHTO   O40 4426   7.994   5.535   2.493
   10CHTO   C68 4427   8.108   5.462   2.544
   10CHTO  H125 4428   8.200   5.504   2.500
   10CHTO   C72 4429   8.098   5.315   2.496
   10CHTO   O48 4430   8.214   5.239   2.529
   10CHTO  H105 4431   8.206   5.150   2.495
   10CHTO   O38 4432   7.859   5.612   2.665
   10CHTO   C55 4433   7.731   5.597   2.601
   10CHTO  H112 4434   7.745   5.558   2.499
   10CHTO   C56 4435   7.650   5.729   2.603
   10CHTO  H113 4436   7.632   5.756   2.709
   10CHTO   O42 4437   7.722   5.839   2.544
   10CHTO  H100 4438   7.675   5.921   2.557
   10CHTO   C57 4439   7.516   5.708   2.530
   10CHTO  H114 4440   7.535   5.683   2.425
   10CHTO   N10 4441   7.432   5.830   2.536
   10CHTO  H106 4442   7.328   5.805   2.523
   10CHTO  H107 4443   7.463   5.901   2.462
   10CHTO   C58 4444   7.442   5.592   2.596
   10CHTO  H115 4445   7.411   5.622   2.699
   10CHTO   O37 4446   7.522   5.473   2.602
   10CHTO   C59 4447   7.644   5.494   2.676
   10CHTO  H116 4448   7.621   5.527   2.778
   10CHTO   C70 4449   7.714   5.357   2.680
   10CHTO   O46 4450   7.628   5.256   2.734
   10CHTO  H103 4451   7.675   5.175   2.740
   10CHTO   O39 4452   7.325   5.567   2.516
   10CHTO   C60 4453   7.256   5.446   2.547
   10CHTO  H117 4454   7.322   5.361   2.530
   10CHTO   C62 4455   7.204   5.443   2.692
   10CHTO  H119 4456   7.292   5.436   2.759
   10CHTO   O43 4457   7.133   5.564   2.718
   10CHTO  H101 4458   7.108   5.572   2.810
   10CHTO   C66 4459   7.115   5.317   2.710
   10CHTO  H123 4460   7.177   5.228   2.695
   10CHTO   N12 4461   7.058   5.310   2.844
   10CHTO  H110 4462   6.981   5.385   2.857
   10CHTO  H111 4463   7.135   5.320   2.918
   10CHTO   C69 4464   7.002   5.319   2.605
   10CHTO  H126 4465   6.941   5.410   2.618
   10CHTO   O41 4466   7.061   5.313   2.475
   10CHTO   C64 4467   7.139   5.431   2.448
   10CHTO  H121 4468   7.074   5.522   2.456
   10CHTO   C71 4469   7.192   5.425   2.303
   10CHTO   O47 4470   7.080   5.406   2.216
   10CHTO  H104 4471   7.109   5.402   2.125
   10CHTO   O34 4472   6.923   5.203   2.636
   10CHTO   C49 4473   6.787   5.207   2.585
   10CHTO   H91 4474   6.738   5.296   2.626
   10CHTO   C47 4475   6.721   5.079   2.637
   10CHTO   H89 4476   6.617   5.077   2.598
   10CHTO   O33 4477   6.717   5.073   2.781
   10CHTO   H70 4478   6.665   5.145   2.815
   10CHTO   C45 4479   6.803   4.957   2.586
   10CHTO   H87 4480   6.881   4.930   2.657
   10CHTO    N8 4481   6.711   4.843   2.570
   10CHTO   H75 4482   6.658   4.828   2.663
   10CHTO   H76 4483   6.766   4.753   2.545
   10CHTO   C43 4484   6.871   4.990   2.450
   10CHTO   H85 4485   6.966   5.039   2.471
   10CHTO   O29 4486   6.781   5.073   2.376
   10CHTO   C50 4487   6.776   5.205   2.432
   10CHTO   H92 4488   6.858   5.266   2.389
   10CHTO   C54 4489   6.647   5.277   2.384
   10CHTO   O36 4490   6.648   5.284   2.240
   10CHTO   H72 4491   6.571   5.329   2.210
   10CHTO   O27 4492   6.898   4.868   2.379
   10CHTO   C37 4493   6.946   4.885   2.245
   10CHTO   H79 4494   6.873   4.941   2.184
   10CHTO   C38 4495   7.079   4.963   2.241
   10CHTO   H80 4496   7.148   4.919   2.316
   10CHTO   O31 4497   7.055   5.100   2.271
   10CHTO   H68 4498   7.135   5.151   2.271
   10CHTO   C39 4499   7.142   4.957   2.100
   10CHTO   H81 4500   7.075   5.011   2.031
   10CHTO    N7 4501   7.273   5.024   2.098
   10CHTO   H73 4502   7.310   5.032   1.997
   10CHTO   H74 4503   7.344   4.970   2.159
   10CHTO   C40 4504   7.155   4.812   2.049
   10CHTO   H82 4505   7.223   4.755   2.115
   10CHTO   O26 4506   7.023   4.755   2.048
   10CHTO   C41 4507   6.967   4.746   2.182
   10CHTO   H83 4508   7.035   4.687   2.245
   10CHTO   C52 4509   6.834   4.671   2.167
   10CHTO   O35 4510   6.852   4.544   2.102
   10CHTO   H71 4511   6.772   4.493   2.104
   10CHTO   O28 4512   7.208   4.812   1.916
   10CHTO   C42 4513   7.232   4.683   1.857
   10CHTO   H84 4514   7.263   4.705   1.754
   10CHTO   C44 4515   7.110   4.590   1.846
   10CHTO   H86 4516   7.081   4.556   1.946
   10CHTO   O32 4517   7.000   4.660   1.786
   10CHTO   H69 4518   6.923   4.605   1.785
   10CHTO   C48 4519   7.151   4.466   1.762
   10CHTO   H90 4520   7.183   4.498   1.662
   10CHTO    N9 4521   7.035   4.375   1.744
   10CHTO   H77 4522   7.009   4.328   1.837
   10CHTO   H78 4523   7.056   4.301   1.669
   10CHTO   C51 4524   7.269   4.396   1.836
   10CHTO   H93 4525   7.234   4.365   1.935
   10CHTO   O30 4526   7.377   4.487   1.842
   10CHTO   C46 4527   7.348   4.603   1.922
   10CHTO   H88 4528   7.320   4.573   2.024
   10CHTO   C53 4529   7.478   4.687   1.924
   10CHTO   O72 4530   7.461   4.803   2.007
   10CHTO  H199 4531   7.539   4.855   2.009
   10CHTO   O22 4532   7.308   4.282   1.756
   10CHTO   C31 4533   7.411   4.196   1.814
   10CHTO   H59 4534   7.432   4.119   1.737
   10CHTO   C29 4535   7.545   4.265   1.845
   10CHTO   H57 4536   7.533   4.337   1.927
   10CHTO   O21 4537   7.594   4.337   1.732
   10CHTO   H37 4538   7.607   4.277   1.659
   10CHTO   C27 4539   7.646   4.156   1.889
   10CHTO   H55 4540   7.662   4.087   1.803
   10CHTO    N5 4541   7.774   4.218   1.925
   10CHTO   H43 4542   7.764   4.289   2.006
   10CHTO   H44 4543   7.821   4.267   1.840
   10CHTO   C25 4544   7.589   4.080   2.009
   10CHTO   H53 4545   7.577   4.152   2.092
   10CHTO   O17 4546   7.461   4.022   1.977
   10CHTO   C32 4547   7.364   4.120   1.940
   10CHTO   H60 4548   7.350   4.193   2.022
   10CHTO   C36 4549   7.232   4.046   1.914
   10CHTO   O25 4550   7.188   3.985   2.035
   10CHTO   H40 4551   7.103   3.943   2.022
   10CHTO   O15 4552   7.685   3.978   2.046
   10CHTO   C19 4553   7.652   3.906   2.167
   10CHTO   H47 4554   7.733   3.832   2.175
   10CHTO   C20 4555   7.653   3.990   2.296
   10CHTO   H48 4556   7.573   4.065   2.297
   10CHTO   O19 4557   7.780   4.057   2.304
   10CHTO   H35 4558   7.784   4.109   2.385
   10CHTO   C21 4559   7.635   3.895   2.416
   10CHTO   H49 4560   7.720   3.825   2.420
   10CHTO    N4 4561   7.634   3.971   2.542
   10CHTO   H41 4562   7.627   3.902   2.625
   10CHTO   H42 4563   7.548   4.038   2.544
   10CHTO   C22 4564   7.505   3.817   2.398
   10CHTO   H50 4565   7.421   3.888   2.395
   10CHTO   O14 4566   7.509   3.740   2.276
   10CHTO   C23 4567   7.521   3.823   2.160
   10CHTO   H51 4568   7.431   3.889   2.157
   10CHTO   C34 4569   7.521   3.731   2.038
   10CHTO   O23 4570   7.398   3.659   2.035
   10CHTO   H38 4571   7.396   3.596   1.964
   10CHTO   O16 4572   7.493   3.728   2.508
   10CHTO   C24 4573   7.361   3.672   2.519
   10CHTO   H52 4574   7.314   3.659   2.420
   10CHTO   C26 4575   7.273   3.762   2.607
   10CHTO   H54 4576   7.326   3.784   2.701
   10CHTO   O20 4577   7.240   3.886   2.542
   10CHTO   H36 4578   7.190   3.941   2.602
   10CHTO   C30 4579   7.143   3.688   2.641
   10CHTO   H58 4580   7.083   3.670   2.551
   10CHTO    N6 4581   7.060   3.770   2.733
   10CHTO   H45 4582   7.109   3.775   2.829
   10CHTO   H46 4583   6.965   3.721   2.745
   10CHTO   C33 4584   7.178   3.552   2.704
   10CHTO   H61 4585   7.239   3.566   2.795
   10CHTO   O18 4586   7.251   3.474   2.611
   10CHTO   C28 4587   7.379   3.532   2.580
   10CHTO   H56 4588   7.441   3.539   2.670
   10CHTO   C35 4589   7.448   3.438   2.478
   10CHTO   O24 4590   7.474   3.310   2.535
   10CHTO   H39 4591   7.519   3.256   2.471
   10CHTO    O9 4592   7.059   3.486   2.748
   10CHTO   C13 4593   7.080   3.348   2.786
   10CHTO   H26 4594   7.180   3.336   2.829
   10CHTO   C11 4595   7.059   3.260   2.659
   10CHTO   H24 4596   7.153   3.255   2.601
   10CHTO    O8 4597   6.959   3.325   2.581
   10CHTO    H3 4598   6.942   3.280   2.500
   10CHTO    C9 4599   7.017   3.119   2.701
   10CHTO   H22 4600   7.095   3.085   2.770
   10CHTO    N2 4601   7.013   3.024   2.588
   10CHTO   H10 4602   7.109   3.025   2.536
   10CHTO   H11 4603   6.933   3.046   2.520
   10CHTO    C7 4604   6.880   3.126   2.775
   10CHTO   H20 4605   6.890   3.051   2.855
   10CHTO    O4 4606   6.856   3.255   2.830
   10CHTO   C14 4607   6.973   3.310   2.892
   10CHTO   H27 4608   7.017   3.236   2.963
   10CHTO   C18 4609   6.932   3.433   2.976
   10CHTO   O13 4610   7.050   3.493   3.031
   10CHTO    H7 4611   7.027   3.569   3.084
   10CHTO    O2 4612   6.771   3.091   2.687
   10CHTO    C1 4613   6.641   3.100   2.748
   10CHTO   H14 4614   6.622   3.204   2.782
   10CHTO    C2 4615   6.622   3.003   2.869
   10CHTO   H15 4616   6.653   2.902   2.838
   10CHTO    O6 4617   6.697   3.047   2.983
   10CHTO    H1 4618   6.685   2.987   3.055
   10CHTO    C3 4619   6.473   3.004   2.913
   10CHTO   H16 4620   6.446   3.104   2.952
   10CHTO    N1 4621   6.452   2.907   3.021
   10CHTO    H8 4622   6.476   2.807   2.986
   10CHTO    H9 4623   6.350   2.909   3.056
   10CHTO    C4 4624   6.379   2.979   2.792
   10CHTO   H17 4625   6.393   2.875   2.757
   10CHTO    O1 4626   6.406   3.073   2.687
   10CHTO    C5 4627   6.539   3.064   2.638
   10CHTO   H18 4628   6.560   2.963   2.602
   10CHTO   C16 4629   6.549   3.163   2.518
   10CHTO   O11 4630   6.439   3.135   2.431
   10CHTO    H5 4631   6.444   3.192   2.354
   10CHTO    O3 4632   6.244   3.000   2.836
   10CHTO    C6 4633   6.146   2.979   2.733
   10CHTO   H19 4634   6.183   3.008   2.633
   10CHTO    C8 4635   6.099   2.832   2.730
   10CHTO   H21 4636   6.064   2.804   2.831
   10CHTO    O7 4637   6.206   2.747   2.688
   10CHTO    H2 4638   6.178   2.656   2.683
   10CHTO   C12 4639   5.982   2.819   2.630
   10CHTO   H25 4640   6.023   2.842   2.529
   10CHTO    N3 4641   5.936   2.679   2.629
   10CHTO   H12 4642   5.873   2.658   2.545
   10CHTO   H13 4643   5.885   2.656   2.721
   10CHTO   C15 4644   5.870   2.920   2.663
   10CHTO   H28 4645   5.823   2.897   2.759
   10CHTO   O10 4646   5.769   2.922   2.560
   10CHTO    H4 4647   5.722   2.839   2.555
   10CHTO    O5 4648   5.922   3.053   2.664
   10CHTO   C10 4649   6.024   3.068   2.765
   10CHTO   H23 4650   5.982   3.040   2.861
   10CHTO   C17 4651   6.064   3.216   2.770
   10CHTO   O12 4652   5.948   3.295   2.797
   10CHTO    H6 4653   5.969   3.388   2.797
   11CHTO  H203 4654   8.559   9.536  -2.020
   11CHTO   O82 4655   8.650   9.541  -2.050
   11CHTO  C123 4656   8.733   9.453  -1.976
   11CHTO  H227 4657   8.697   9.350  -1.989
   11CHTO   O77 4658   8.866   9.468  -2.030
   11CHTO  C118 4659   8.958   9.376  -1.970
   11CHTO  H222 4660   8.924   9.272  -1.985
   11CHTO  C125 4661   9.099   9.392  -2.035
   11CHTO   O84 4662   9.087   9.366  -2.175
   11CHTO  H205 4663   9.170   9.380  -2.219
   11CHTO  C114 4664   8.972   9.404  -1.819
   11CHTO  H218 4665   9.014   9.505  -1.806
   11CHTO  C116 4666   8.832   9.399  -1.751
   11CHTO  H220 4667   8.792   9.295  -1.752
   11CHTO   O79 4668   8.840   9.442  -1.615
   11CHTO  H201 4669   8.755   9.441  -1.573
   11CHTO  C120 4670   8.737   9.494  -1.827
   11CHTO  H224 4671   8.776   9.597  -1.815
   11CHTO   N21 4672   8.605   9.487  -1.765
   11CHTO  H211 4673   8.555   9.395  -1.792
   11CHTO  H212 4674   8.545   9.573  -1.792
   11CHTO   O75 4675   9.061   9.304  -1.772
   11CHTO  C112 4676   9.103   9.323  -1.634
   11CHTO  H216 4677   9.018   9.308  -1.566
   11CHTO   O73 4678   9.161   9.454  -1.622
   11CHTO  C113 4679   9.214   9.477  -1.492
   11CHTO  H217 4680   9.133   9.461  -1.417
   11CHTO  C124 4681   9.258   9.623  -1.482
   11CHTO   O83 4682   9.152   9.710  -1.528
   11CHTO  H204 4683   9.182   9.801  -1.526
   11CHTO  C109 4684   9.331   9.380  -1.460
   11CHTO  H213 4685   9.408   9.396  -1.539
   11CHTO  C110 4686   9.273   9.238  -1.469
   11CHTO  H214 4687   9.196   9.223  -1.392
   11CHTO   O78 4688   9.376   9.141  -1.451
   11CHTO  H200 4689   9.341   9.053  -1.459
   11CHTO  C111 4690   9.213   9.218  -1.609
   11CHTO  H215 4691   9.293   9.229  -1.685
   11CHTO   N19 4692   9.155   9.084  -1.625
   11CHTO  H207 4693   9.124   9.071  -1.727
   11CHTO  H208 4694   9.071   9.071  -1.559
   11CHTO   O74 4695   9.390   9.408  -1.331
   11CHTO  C115 4696   9.522   9.353  -1.315
   11CHTO  H219 4697   9.545   9.279  -1.391
   11CHTO   O76 4698   9.624   9.454  -1.329
   11CHTO  C122 4699   9.595   9.569  -1.247
   11CHTO  H226 4700   9.514   9.624  -1.293
   11CHTO  C126 4701   9.718   9.665  -1.246
   11CHTO   O85 4702   9.833   9.608  -1.181
   11CHTO  H206 4703   9.858   9.526  -1.220
   11CHTO  C121 4704   9.554   9.528  -1.102
   11CHTO  H225 4705   9.605   9.593  -1.028
   11CHTO   O81 4706   9.412   9.545  -1.090
   11CHTO  H202 4707   9.385   9.634  -1.101
   11CHTO  C119 4708   9.594   9.381  -1.077
   11CHTO  H223 4709   9.701   9.378  -1.101
   11CHTO  C117 4710   9.529   9.283  -1.177
   11CHTO  H221 4711   9.429   9.248  -1.151
   11CHTO   N20 4712   9.611   9.161  -1.190
   11CHTO  H209 4713   9.623   9.114  -1.094
   11CHTO  H210 4714   9.708   9.182  -1.233
   11CHTO   O80 4715   9.593   9.334  -0.941
   11CHTO  C103 4716   9.479   9.367  -0.857
   11CHTO  H190 4717   9.464   9.476  -0.854
   11CHTO  C101 4718   9.343   9.300  -0.892
   11CHTO  H188 4719   9.354   9.192  -0.902
   11CHTO   O68 4720   9.287   9.355  -1.013
   11CHTO  H168 4721   9.211   9.305  -1.043
   11CHTO   C99 4722   9.244   9.328  -0.774
   11CHTO  H186 4723   9.228   9.437  -0.763
   11CHTO   N17 4724   9.112   9.264  -0.793
   11CHTO  H174 4725   9.125   9.159  -0.815
   11CHTO  H175 4726   9.056   9.313  -0.871
   11CHTO   C97 4727   9.301   9.279  -0.640
   11CHTO  H184 4728   9.319   9.171  -0.648
   11CHTO   O64 4729   9.422   9.351  -0.616
   11CHTO  C104 4730   9.522   9.322  -0.715
   11CHTO  H191 4731   9.542   9.215  -0.716
   11CHTO  C108 4732   9.652   9.390  -0.676
   11CHTO   O71 4733   9.687   9.352  -0.542
   11CHTO  H171 4734   9.765   9.397  -0.515
   11CHTO   O62 4735   9.206   9.307  -0.536
   11CHTO   C91 4736   9.221   9.223  -0.420
   11CHTO  H178 4737   9.205   9.119  -0.452
   11CHTO   C92 4738   9.106   9.256  -0.324
   11CHTO  H179 4739   9.008   9.248  -0.377
   11CHTO   O66 4740   9.104   9.159  -0.220
   11CHTO  H166 4741   9.030   9.173  -0.161
   11CHTO   C93 4742   9.123   9.397  -0.263
   11CHTO  H180 4743   9.061   9.403  -0.172
   11CHTO   N16 4744   9.075   9.503  -0.354
   11CHTO  H172 4745   9.135   9.506  -0.443
   11CHTO  H173 4746   9.079   9.598  -0.303
   11CHTO   C94 4747   9.272   9.420  -0.225
   11CHTO  H181 4748   9.324   9.479  -0.300
   11CHTO   O61 4749   9.336   9.292  -0.212
   11CHTO   C95 4750   9.354   9.233  -0.342
   11CHTO  H182 4751   9.426   9.292  -0.399
   11CHTO  C106 4752   9.417   9.092  -0.322
   11CHTO   O69 4753   9.542   9.111  -0.255
   11CHTO  H169 4754   9.588   9.028  -0.246
   11CHTO   O63 4755   9.269   9.488  -0.097
   11CHTO   C96 4756   9.397   9.536  -0.055
   11CHTO  H183 4757   9.441   9.593  -0.137
   11CHTO   C98 4758   9.497   9.424  -0.015
   11CHTO  H185 4759   9.521   9.359  -0.100
   11CHTO   O67 4760   9.619   9.488   0.023
   11CHTO  H167 4761   9.684   9.421   0.040
   11CHTO  C102 4762   9.441   9.342   0.106
   11CHTO  H189 4763   9.528   9.295   0.153
   11CHTO   N18 4764   9.351   9.232   0.066
   11CHTO  H176 4765   9.401   9.166  -0.004
   11CHTO  H177 4766   9.259   9.268   0.022
   11CHTO  C105 4767   9.373   9.436   0.206
   11CHTO  H192 4768   9.264   9.433   0.191
   11CHTO   O65 4769   9.419   9.571   0.189
   11CHTO  C100 4770   9.374   9.629   0.066
   11CHTO  H187 4771   9.266   9.648   0.075
   11CHTO  C107 4772   9.445   9.765   0.046
   11CHTO   O70 4773   9.583   9.743   0.017
   11CHTO  H170 4774   9.628   9.824  -0.003
   11CHTO   O57 4775   9.409   9.379   0.334
   11CHTO   C85 4776   9.372   9.456   0.449
   11CHTO  H157 4777   9.426   9.553   0.448
   11CHTO   C83 4778   9.420   9.377   0.571
   11CHTO  H155 4779   9.528   9.356   0.564
   11CHTO   O56 4780   9.352   9.250   0.573
   11CHTO  H135 4781   9.369   9.201   0.495
   11CHTO   C81 4782   9.393   9.455   0.700
   11CHTO  H153 4783   9.463   9.539   0.707
   11CHTO   N14 4784   9.414   9.369   0.818
   11CHTO  H141 4785   9.517   9.337   0.820
   11CHTO  H142 4786   9.350   9.281   0.812
   11CHTO   C79 4787   9.249   9.511   0.701
   11CHTO  H151 4788   9.255   9.619   0.678
   11CHTO   O52 4789   9.169   9.447   0.598
   11CHTO   C86 4790   9.218   9.476   0.464
   11CHTO  H158 4791   9.163   9.404   0.401
   11CHTO   C90 4792   9.175   9.616   0.419
   11CHTO   O60 4793   9.041   9.639   0.466
   11CHTO  H138 4794   9.013   9.726   0.440
   11CHTO   O50 4795   9.188   9.493   0.830
   11CHTO   C73 4796   9.053   9.542   0.841
   11CHTO  H145 4797   8.989   9.500   0.762
   11CHTO   C74 4798   9.046   9.696   0.838
   11CHTO  H146 4799   9.078   9.733   0.739
   11CHTO   O54 4800   8.910   9.737   0.856
   11CHTO  H133 4801   8.905   9.831   0.852
   11CHTO   C75 4802   9.134   9.750   0.952
   11CHTO  H147 4803   9.238   9.715   0.937
   11CHTO   N13 4804   9.132   9.898   0.954
   11CHTO  H139 4805   9.169   9.936   0.860
   11CHTO  H140 4806   9.194   9.934   1.034
   11CHTO   C76 4807   9.079   9.693   1.085
   11CHTO  H148 4808   8.977   9.732   1.098
   11CHTO   O49 4809   9.079   9.549   1.085
   11CHTO   C77 4810   9.001   9.493   0.979
   11CHTO  H149 4811   8.897   9.522   0.990
   11CHTO   C88 4812   9.006   9.339   0.986
   11CHTO   O58 4813   8.953   9.295   1.112
   11CHTO  H136 4814   8.949   9.201   1.119
   11CHTO   O51 4815   9.168   9.735   1.191
   11CHTO   C78 4816   9.126   9.694   1.322
   11CHTO  H150 4817   9.081   9.592   1.320
   11CHTO   C80 4818   9.024   9.792   1.382
   11CHTO  H152 4819   9.067   9.895   1.377
   11CHTO   O55 4820   8.902   9.786   1.307
   11CHTO  H134 4821   8.840   9.851   1.338
   11CHTO   C84 4822   8.995   9.754   1.528
   11CHTO  H156 4823   8.946   9.657   1.530
   11CHTO   N15 4824   8.905   9.853   1.589
   11CHTO  H143 4825   8.953   9.949   1.588
   11CHTO  H144 4826   8.885   9.824   1.691
   11CHTO   C87 4827   9.128   9.746   1.606
   11CHTO  H159 4828   9.175   9.846   1.608
   11CHTO   O53 4829   9.214   9.649   1.544
   11CHTO   C82 4830   9.251   9.688   1.411
   11CHTO  H154 4831   9.302   9.785   1.413
   11CHTO   C89 4832   9.351   9.585   1.353
   11CHTO   O59 4833   9.464   9.579   1.441
   11CHTO  H137 4834   9.525   9.516   1.409
   11CHTO   O45 4835   9.097   9.704   1.741
   11CHTO   C67 4836   9.213   9.658   1.812
   11CHTO  H124 4837   9.255   9.570   1.763
   11CHTO   C65 4838   9.322   9.769   1.815
   11CHTO  H122 4839   9.271   9.865   1.822
   11CHTO   O44 4840   9.397   9.756   1.693
   11CHTO  H102 4841   9.460   9.827   1.682
   11CHTO   C63 4842   9.408   9.754   1.942
   11CHTO  H120 4843   9.361   9.810   2.025
   11CHTO   N11 4844   9.543   9.814   1.930
   11CHTO  H108 4845   9.535   9.917   1.901
   11CHTO  H109 4846   9.602   9.760   1.856
   11CHTO   C61 4847   9.418   9.605   1.983
   11CHTO  H118 4848   9.485   9.600   2.071
   11CHTO   O40 4849   9.291   9.555   2.023
   11CHTO   C68 4850   9.179   9.616   1.956
   11CHTO  H125 4851   9.148   9.705   2.014
   11CHTO   C72 4852   9.060   9.517   1.959
   11CHTO   O48 4853   8.939   9.575   1.909
   11CHTO  H105 4854   8.868   9.513   1.915
   11CHTO   O38 4855   9.468   9.521   1.877
   11CHTO   C55 4856   9.517   9.397   1.930
   11CHTO  H112 4857   9.457   9.367   2.017
   11CHTO   C56 4858   9.669   9.405   1.965
   11CHTO  H113 4859   9.723   9.426   1.871
   11CHTO   O42 4860   9.699   9.513   2.055
   11CHTO  H100 4861   9.793   9.523   2.066
   11CHTO   C57 4862   9.715   9.271   2.025
   11CHTO  H114 4863   9.661   9.252   2.118
   11CHTO   N10 4864   9.861   9.272   2.052
   11CHTO  H106 4865   9.899   9.172   2.054
   11CHTO  H107 4866   9.881   9.322   2.145
   11CHTO   C58 4867   9.682   9.159   1.925
   11CHTO  H115 4868   9.747   9.171   1.835
   11CHTO   O37 4869   9.544   9.160   1.888
   11CHTO   C59 4870   9.505   9.284   1.826
   11CHTO  H116 4871   9.567   9.303   1.738
   11CHTO   C70 4872   9.358   9.266   1.785
   11CHTO   O46 4873   9.342   9.150   1.701
   11CHTO  H103 4874   9.252   9.144   1.673
   11CHTO   O39 4875   9.714   9.036   1.992
   11CHTO   C60 4876   9.667   8.919   1.924
   11CHTO  H117 4877   9.558   8.921   1.917
   11CHTO   C62 4878   9.727   8.903   1.783
   11CHTO  H119 4879   9.685   8.983   1.720
   11CHTO   O43 4880   9.869   8.918   1.792
   11CHTO  H101 4881   9.910   8.919   1.706
   11CHTO   C66 4882   9.685   8.765   1.728
   11CHTO  H123 4883   9.576   8.762   1.717
   11CHTO   N12 4884   9.743   8.740   1.595
   11CHTO  H110 4885   9.849   8.723   1.603
   11CHTO  H111 4886   9.721   8.822   1.530
   11CHTO   C69 4887   9.730   8.654   1.825
   11CHTO  H126 4888   9.840   8.658   1.837
   11CHTO   O41 4889   9.662   8.673   1.949
   11CHTO   C64 4890   9.703   8.796   2.012
   11CHTO  H121 4891   9.813   8.796   2.028
   11CHTO   C71 4892   9.635   8.809   2.150
   11CHTO   O47 4893   9.667   8.690   2.224
   11CHTO  H104 4894   9.627   8.694   2.311
   11CHTO   O34 4895   9.693   8.531   1.760
   11CHTO   C49 4896   9.765   8.414   1.805
   11CHTO   H91 4897   9.872   8.432   1.791
   11CHTO   C47 4898   9.715   8.300   1.716
   11CHTO   H89 4899   9.766   8.207   1.750
   11CHTO   O33 4900   9.745   8.320   1.577
   11CHTO   H70 4901   9.838   8.326   1.564
   11CHTO   C45 4902   9.561   8.288   1.732
   11CHTO   H87 4903   9.509   8.350   1.658
   11CHTO    N8 4904   9.522   8.148   1.711
   11CHTO   H75 4905   9.562   8.114   1.616
   11CHTO   H76 4906   9.415   8.137   1.711
   11CHTO   C43 4907   9.517   8.335   1.874
   11CHTO   H85 4908   9.504   8.443   1.870
   11CHTO   O29 4909   9.618   8.294   1.966
   11CHTO   C50 4910   9.736   8.374   1.951
   11CHTO   H92 4911   9.726   8.466   2.012
   11CHTO   C54 4912   9.857   8.301   2.014
   11CHTO   O36 4913   9.830   8.278   2.153
   11CHTO   H72 4914   9.904   8.234   2.194
   11CHTO   O27 4915   9.391   8.275   1.906
   11CHTO   C37 4916   9.346   8.298   2.041
   11CHTO   H79 4917   9.419   8.258   2.114
   11CHTO   C38 4918   9.327   8.448   2.071
   11CHTO   H80 4919   9.269   8.494   1.989
   11CHTO   O31 4920   9.455   8.510   2.082
   11CHTO   H68 4921   9.448   8.603   2.099
   11CHTO   C39 4922   9.255   8.469   2.207
   11CHTO   H81 4923   9.321   8.431   2.286
   11CHTO    N7 4924   9.229   8.612   2.231
   11CHTO   H73 4925   9.192   8.626   2.331
   11CHTO   H74 4926   9.159   8.650   2.159
   11CHTO   C40 4927   9.123   8.389   2.213
   11CHTO   H82 4928   9.053   8.425   2.135
   11CHTO   O26 4929   9.156   8.251   2.194
   11CHTO   C41 4930   9.211   8.226   2.062
   11CHTO   H83 4931   9.139   8.260   1.986
   11CHTO   C52 4932   9.228   8.073   2.050
   11CHTO   O35 4933   9.104   8.005   2.076
   11CHTO   H71 4934   9.112   7.912   2.057
   11CHTO   O28 4935   9.062   8.406   2.342
   11CHTO   C42 4936   8.935   8.342   2.361
   11CHTO   H84 4937   8.911   8.360   2.467
   11CHTO   C44 4938   8.932   8.190   2.342
   11CHTO   H86 4939   8.944   8.167   2.235
   11CHTO   O32 4940   9.038   8.128   2.416
   11CHTO   H69 4941   9.040   8.035   2.398
   11CHTO   C48 4942   8.793   8.138   2.386
   11CHTO   H90 4943   8.777   8.162   2.492
   11CHTO    N9 4944   8.786   7.990   2.374
   11CHTO   H77 4945   8.785   7.961   2.271
   11CHTO   H78 4946   8.699   7.951   2.425
   11CHTO   C51 4947   8.685   8.209   2.299
   11CHTO   H93 4948   8.703   8.183   2.195
   11CHTO   O30 4949   8.694   8.348   2.323
   11CHTO   C46 4950   8.819   8.404   2.279
   11CHTO   H88 4951   8.834   8.384   2.172
   11CHTO   C53 4952   8.809   8.556   2.306
   11CHTO   O72 4953   8.927   8.623   2.259
   11CHTO  H199 4954   8.922   8.716   2.275
   11CHTO   O22 4955   8.556   8.162   2.343
   11CHTO   C31 4956   8.441   8.209   2.266
   11CHTO   H59 4957   8.352   8.168   2.317
   11CHTO   C29 4958   8.423   8.361   2.259
   11CHTO   H57 4959   8.505   8.407   2.202
   11CHTO   O21 4960   8.425   8.419   2.390
   11CHTO   H37 4961   8.355   8.382   2.443
   11CHTO   C27 4962   8.289   8.391   2.189
   11CHTO   H55 4963   8.207   8.349   2.251
   11CHTO    N5 4964   8.270   8.536   2.176
   11CHTO   H43 4965   8.348   8.582   2.119
   11CHTO   H44 4966   8.262   8.584   2.273
   11CHTO   C25 4967   8.289   8.326   2.050
   11CHTO   H53 4968   8.370   8.372   1.991
   11CHTO   O17 4969   8.312   8.184   2.060
   11CHTO   C32 4970   8.437   8.153   2.121
   11CHTO   H60 4971   8.520   8.198   2.064
   11CHTO   C36 4972   8.452   8.000   2.121
   11CHTO   O25 4973   8.457   7.953   1.986
   11CHTO   H40 4974   8.470   7.859   1.984
   11CHTO   O15 4975   8.162   8.353   1.988
   11CHTO   C19 4976   8.151   8.310   1.850
   11CHTO   H47 4977   8.048   8.336   1.824
   11CHTO   C20 4978   8.244   8.383   1.752
   11CHTO   H48 4979   8.350   8.359   1.770
   11CHTO   O19 4980   8.224   8.524   1.767
   11CHTO   H35 4981   8.280   8.572   1.705
   11CHTO   C21 4982   8.208   8.339   1.608
   11CHTO   H49 4983   8.104   8.369   1.587
   11CHTO    N4 4984   8.295   8.404   1.510
   11CHTO   H41 4985   8.264   8.376   1.410
   11CHTO   H42 4986   8.398   8.373   1.525
   11CHTO   C22 4987   8.219   8.187   1.600
   11CHTO   H50 4988   8.323   8.158   1.620
   11CHTO   O14 4989   8.130   8.124   1.693
   11CHTO   C23 4990   8.163   8.157   1.829
   11CHTO   H51 4991   8.265   8.120   1.848
   11CHTO   C34 4992   8.064   8.082   1.920
   11CHTO   O23 4993   8.080   7.942   1.897
   11CHTO   H38 4994   8.015   7.892   1.947
   11CHTO   O16 4995   8.181   8.149   1.468
   11CHTO   C24 4996   8.218   8.013   1.438
   11CHTO   H52 4997   8.213   7.949   1.527
   11CHTO   C26 4998   8.359   8.009   1.377
   11CHTO   H54 4999   8.365   8.082   1.294
   11CHTO   O20 5000   8.461   8.039   1.474
   11CHTO   H36 5001   8.546   8.040   1.432
   11CHTO   C30 5002   8.385   7.869   1.319
   11CHTO   H58 5003   8.386   7.793   1.398
   11CHTO    N6 5004   8.517   7.865   1.252
   11CHTO   H45 5005   8.514   7.926   1.164
   11CHTO   H46 5006   8.538   7.764   1.225
   11CHTO   C33 5007   8.272   7.834   1.220
   11CHTO   H61 5008   8.267   7.909   1.139
   11CHTO   O18 5009   8.148   7.832   1.289
   11CHTO   C28 5010   8.112   7.962   1.339
   11CHTO   H56 5011   8.100   8.033   1.257
   11CHTO   C35 5012   7.975   7.945   1.411
   11CHTO   O24 5013   7.872   7.907   1.319
   11CHTO   H39 5014   7.790   7.901   1.366
   11CHTO    O9 5015   8.300   7.710   1.156
   11CHTO   C13 5016   8.189   7.657   1.080
   11CHTO   H26 5017   8.130   7.740   1.037
   11CHTO   C11 5018   8.104   7.568   1.175
   11CHTO   H24 5019   8.033   7.629   1.232
   11CHTO    O8 5020   8.197   7.507   1.266
   11CHTO    H3 5021   8.154   7.453   1.329
   11CHTO    C9 5022   8.029   7.463   1.092
   11CHTO   H22 5023   7.971   7.521   1.019
   11CHTO    N2 5024   7.932   7.386   1.172
   11CHTO   H10 5025   7.865   7.454   1.225
   11CHTO   H11 5026   7.981   7.320   1.242
   11CHTO    C7 5027   8.131   7.371   1.020
   11CHTO   H20 5028   8.085   7.352   0.922
   11CHTO    O4 5029   8.258   7.434   1.004
   11CHTO   C14 5030   8.245   7.571   0.964
   11CHTO   H27 5031   8.177   7.578   0.876
   11CHTO   C18 5032   8.383   7.622   0.919
   11CHTO   O13 5033   8.373   7.761   0.887
   11CHTO    H7 5034   8.458   7.796   0.858
   11CHTO    O2 5035   8.148   7.246   1.091
   11CHTO    C1 5036   8.245   7.158   1.031
   11CHTO   H14 5037   8.345   7.206   1.029
   11CHTO    C2 5038   8.207   7.111   0.887
   11CHTO   H15 5039   8.103   7.075   0.888
   11CHTO    O6 5040   8.223   7.219   0.793
   11CHTO    H1 5041   8.199   7.189   0.706
   11CHTO    C3 5042   8.305   7.000   0.841
   11CHTO   H16 5043   8.408   7.041   0.832
   11CHTO    N1 5044   8.266   6.950   0.709
   11CHTO    H8 5045   8.166   6.907   0.714
   11CHTO    H9 5046   8.335   6.875   0.673
   11CHTO    C4 5047   8.314   6.887   0.947
   11CHTO   H17 5048   8.217   6.834   0.950
   11CHTO    O1 5049   8.348   6.940   1.075
   11CHTO    C5 5050   8.253   7.034   1.123
   11CHTO   H18 5051   8.154   6.988   1.129
   11CHTO   C16 5052   8.297   7.074   1.267
   11CHTO   O11 5053   8.321   6.953   1.339
   11CHTO    H5 5054   8.345   6.973   1.429
   11CHTO    O3 5055   8.419   6.798   0.906
   11CHTO    C6 5056   8.437   6.687   0.997
   11CHTO   H19 5057   8.417   6.714   1.102
   11CHTO    C8 5058   8.351   6.567   0.955
   11CHTO   H21 5059   8.371   6.542   0.850
   11CHTO    O7 5060   8.213   6.598   0.974
   11CHTO    H2 5061   8.157   6.524   0.951
   11CHTO   C12 5062   8.387   6.446   1.044
   11CHTO   H25 5063   8.359   6.472   1.148
   11CHTO    N3 5064   8.305   6.331   1.002
   11CHTO   H12 5065   8.307   6.252   1.075
   11CHTO   H13 5066   8.337   6.294   0.906
   11CHTO   C15 5067   8.539   6.417   1.038
   11CHTO   H28 5068   8.569   6.385   0.938
   11CHTO   O10 5069   8.577   6.317   1.135
   11CHTO    H4 5070   8.539   6.232   1.113
   11CHTO    O5 5071   8.612   6.534   1.077
   11CHTO   C10 5072   8.586   6.644   0.988
   11CHTO   H23 5073   8.610   6.613   0.887
   11CHTO   C17 5074   8.679   6.759   1.028
   11CHTO   O12 5075   8.814   6.714   1.021
   11CHTO    H6 5076   8.875   6.783   1.049
   12CHTO  H203 5077   5.544   5.305   3.041
   12CHTO   O82 5078   5.529   5.372   2.976
   12CHTO  C123 5079   5.508   5.499   3.038
   12CHTO  H227 5080   5.597   5.525   3.098
   12CHTO   O77 5081   5.488   5.594   2.932
   12CHTO  C118 5082   5.476   5.727   2.981
   12CHTO  H222 5083   5.566   5.756   3.039
   12CHTO  C125 5084   5.460   5.827   2.862
   12CHTO   O84 5085   5.576   5.816   2.779
   12CHTO  H205 5086   5.567   5.870   2.702
   12CHTO  C114 5087   5.352   5.740   3.071
   12CHTO  H218 5088   5.262   5.721   3.010
   12CHTO  C116 5089   5.358   5.636   3.186
   12CHTO  H220 5090   5.440   5.661   3.256
   12CHTO   O79 5091   5.235   5.635   3.260
   12CHTO  H201 5092   5.237   5.570   3.329
   12CHTO  C120 5093   5.380   5.496   3.124
   12CHTO  H224 5094   5.291   5.473   3.062
   12CHTO   N21 5095   5.388   5.399   3.233
   12CHTO  H211 5096   5.484   5.405   3.282
   12CHTO  H212 5097   5.371   5.298   3.196
   12CHTO   O75 5098   5.354   5.875   3.117
   12CHTO  C112 5099   5.235   5.915   3.188
   12CHTO  H216 5100   5.228   5.861   3.284
   12CHTO   O73 5101   5.120   5.891   3.104
   12CHTO  C113 5102   5.000   5.937   3.164
   12CHTO  H217 5103   4.988   5.888   3.263
   12CHTO  C124 5104   4.882   5.893   3.076
   12CHTO   O83 5105   4.893   5.752   3.046
   12CHTO  H204 5106   4.822   5.727   2.987
   12CHTO  C109 5107   5.001   6.091   3.184
   12CHTO  H213 5108   5.017   6.136   3.084
   12CHTO  C110 5109   5.120   6.121   3.277
   12CHTO  H214 5110   5.105   6.075   3.375
   12CHTO   O78 5111   5.136   6.262   3.294
   12CHTO  H200 5112   5.211   6.282   3.348
   12CHTO  C111 5113   5.248   6.067   3.211
   12CHTO  H215 5114   5.264   6.118   3.114
   12CHTO   N19 5115   5.367   6.092   3.294
   12CHTO  H207 5116   5.455   6.062   3.240
   12CHTO  H208 5117   5.360   6.037   3.387
   12CHTO   O74 5118   4.875   6.139   3.238
   12CHTO  C115 5119   4.854   6.280   3.218
   12CHTO  H219 5120   4.946   6.330   3.190
   12CHTO   O76 5121   4.762   6.306   3.111
   12CHTO  C122 5122   4.642   6.228   3.125
   12CHTO  H226 5123   4.666   6.125   3.099
   12CHTO  C126 5124   4.536   6.276   3.021
   12CHTO   O85 5125   4.490   6.409   3.046
   12CHTO  H206 5126   4.561   6.471   3.049
   12CHTO  C121 5127   4.586   6.233   3.271
   12CHTO  H225 5128   4.476   6.248   3.268
   12CHTO   O81 5129   4.616   6.108   3.335
   12CHTO  H202 5130   4.575   6.035   3.292
   12CHTO  C119 5131   4.652   6.351   3.346
   12CHTO  H223 5132   4.632   6.437   3.282
   12CHTO  C117 5133   4.806   6.341   3.352
   12CHTO  H221 5134   4.846   6.280   3.435
   12CHTO   N20 5135   4.866   6.474   3.368
   12CHTO  H209 5136   4.827   6.521   3.458
   12CHTO  H210 5137   4.847   6.537   3.282
   12CHTO   O80 5138   4.591   6.391   3.470
   12CHTO  C103 5139   4.553   6.289   3.565
   12CHTO  H190 5140   4.484   6.217   3.519
   12CHTO  C101 5141   4.667   6.210   3.636
   12CHTO  H188 5142   4.741   6.279   3.679
   12CHTO   O68 5143   4.732   6.120   3.544
   12CHTO  H168 5144   4.812   6.082   3.582
   12CHTO   C99 5145   4.605   6.127   3.752
   12CHTO  H186 5146   4.531   6.055   3.712
   12CHTO   N17 5147   4.705   6.052   3.831
   12CHTO  H174 5148   4.784   6.119   3.862
   12CHTO  H175 5149   4.745   5.970   3.774
   12CHTO   C97 5150   4.527   6.217   3.850
   12CHTO  H184 5151   4.597   6.291   3.891
   12CHTO   O64 5152   4.421   6.279   3.776
   12CHTO  C104 5153   4.472   6.366   3.674
   12CHTO  H191 5154   4.536   6.442   3.719
   12CHTO  C108 5155   4.356   6.440   3.608
   12CHTO   O71 5156   4.279   6.505   3.711
   12CHTO  H171 5157   4.204   6.548   3.672
   12CHTO   O62 5158   4.472   6.136   3.954
   12CHTO   C91 5159   4.443   6.208   4.076
   12CHTO  H178 5160   4.539   6.249   4.112
   12CHTO   C92 5161   4.397   6.105   4.180
   12CHTO  H179 5162   4.472   6.024   4.190
   12CHTO   O66 5163   4.391   6.170   4.307
   12CHTO  H166 5164   4.368   6.109   4.376
   12CHTO   C93 5165   4.258   6.048   4.145
   12CHTO  H180 5166   4.215   6.005   4.236
   12CHTO   N16 5167   4.267   5.939   4.046
   12CHTO  H172 5168   4.304   5.977   3.952
   12CHTO  H173 5169   4.169   5.895   4.032
   12CHTO   C94 5170   4.165   6.162   4.094
   12CHTO  H181 5171   4.160   6.164   3.986
   12CHTO   O61 5172   4.218   6.288   4.140
   12CHTO   C95 5173   4.338   6.321   4.068
   12CHTO  H182 5174   4.312   6.341   3.963
   12CHTO  C106 5175   4.395   6.453   4.126
   12CHTO   O69 5176   4.293   6.553   4.109
   12CHTO  H169 5177   4.326   6.639   4.138
   12CHTO   O63 5178   4.037   6.137   4.154
   12CHTO   C96 5179   3.932   6.221   4.103
   12CHTO  H183 5180   3.934   6.216   3.994
   12CHTO   C98 5181   3.943   6.369   4.145
   12CHTO  H185 5182   4.035   6.415   4.105
   12CHTO   O67 5183   3.834   6.439   4.084
   12CHTO  H167 5184   3.843   6.531   4.103
   12CHTO  C102 5185   3.935   6.383   4.300
   12CHTO  H189 5186   3.904   6.487   4.320
   12CHTO   N18 5187   4.065   6.366   4.367
   12CHTO  H176 5188   4.138   6.435   4.328
   12CHTO  H177 5189   4.103   6.265   4.358
   12CHTO  C105 5190   3.830   6.286   4.356
   12CHTO  H192 5191   3.880   6.197   4.395
   12CHTO   O65 5192   3.738   6.247   4.253
   12CHTO  C100 5193   3.798   6.164   4.153
   12CHTO  H187 5194   3.817   6.065   4.199
   12CHTO  C107 5195   3.698   6.145   4.038
   12CHTO   O70 5196   3.684   6.266   3.966
   12CHTO  H170 5197   3.629   6.257   3.889
   12CHTO   O57 5198   3.769   6.363   4.462
   12CHTO   C85 5199   3.655   6.302   4.523
   12CHTO  H157 5200   3.573   6.293   4.449
   12CHTO   C83 5201   3.607   6.400   4.632
   12CHTO  H155 5202   3.589   6.500   4.589
   12CHTO   O56 5203   3.712   6.415   4.729
   12CHTO  H135 5204   3.792   6.448   4.689
   12CHTO   C81 5205   3.479   6.349   4.698
   12CHTO  H153 5206   3.395   6.361   4.629
   12CHTO   N14 5207   3.449   6.428   4.819
   12CHTO  H141 5208   3.432   6.530   4.791
   12CHTO  H142 5209   3.532   6.424   4.889
   12CHTO   C79 5210   3.492   6.200   4.735
   12CHTO  H151 5211   3.435   6.142   4.660
   12CHTO   O52 5212   3.631   6.158   4.729
   12CHTO   C86 5213   3.685   6.167   4.594
   12CHTO  H158 5214   3.793   6.154   4.608
   12CHTO   C90 5215   3.638   6.048   4.508
   12CHTO   O60 5216   3.639   5.930   4.591
   12CHTO  H138 5217   3.608   5.856   4.540
   12CHTO   O50 5218   3.438   6.174   4.866
   12CHTO   C73 5219   3.446   6.038   4.909
   12CHTO  H145 5220   3.548   5.999   4.902
   12CHTO   C74 5221   3.350   5.945   4.832
   12CHTO  H146 5222   3.380   5.940   4.726
   12CHTO   O54 5223   3.358   5.813   4.885
   12CHTO  H133 5224   3.300   5.756   4.836
   12CHTO   C75 5225   3.207   6.001   4.848
   12CHTO  H147 5226   3.204   6.104   4.808
   12CHTO   N13 5227   3.110   5.917   4.774
   12CHTO  H139 5228   3.135   5.916   4.670
   12CHTO  H140 5229   3.011   5.958   4.786
   12CHTO   C76 5230   3.174   6.003   4.999
   12CHTO  H148 5231   3.175   5.899   5.034
   12CHTO   O49 5232   3.269   6.083   5.073
   12CHTO   C77 5233   3.403   6.038   5.058
   12CHTO  H149 5234   3.413   5.937   5.099
   12CHTO   C88 5235   3.497   6.128   5.141
   12CHTO   O58 5236   3.460   6.123   5.280
   12CHTO  H136 5237   3.518   6.174   5.334
   12CHTO   O51 5238   3.044   6.065   5.014
   12CHTO   C78 5239   2.998   6.069   5.151
   12CHTO  H150 5240   3.081   6.088   5.221
   12CHTO   C80 5241   2.928   5.937   5.190
   12CHTO  H152 5242   2.850   5.914   5.115
   12CHTO   O55 5243   3.025   5.831   5.194
   12CHTO  H134 5244   2.984   5.747   5.211
   12CHTO   C84 5245   2.865   5.951   5.330
   12CHTO  H156 5246   2.945   5.965   5.403
   12CHTO   N15 5247   2.791   5.829   5.364
   12CHTO  H143 5248   2.712   5.815   5.293
   12CHTO  H144 5249   2.749   5.840   5.462
   12CHTO   C87 5250   2.772   6.074   5.331
   12CHTO  H159 5251   2.690   6.057   5.260
   12CHTO   O53 5252   2.848   6.191   5.297
   12CHTO   C82 5253   2.898   6.185   5.163
   12CHTO  H154 5254   2.816   6.173   5.092
   12CHTO   C89 5255   2.969   6.318   5.128
   12CHTO   O59 5256   2.875   6.424   5.145
   12CHTO  H137 5257   2.917   6.506   5.126
   12CHTO   O45 5258   2.719   6.087   5.466
   12CHTO   C67 5259   2.661   6.217   5.488
   12CHTO  H124 5260   2.738   6.294   5.479
   12CHTO   C65 5261   2.549   6.245   5.385
   12CHTO  H122 5262   2.499   6.150   5.363
   12CHTO   O44 5263   2.614   6.299   5.268
   12CHTO  H102 5264   2.553   6.311   5.196
   12CHTO   C63 5265   2.443   6.339   5.447
   12CHTO  H120 5266   2.368   6.278   5.500
   12CHTO   N11 5267   2.366   6.415   5.347
   12CHTO  H108 5268   2.321   6.348   5.277
   12CHTO  H109 5269   2.430   6.485   5.293
   12CHTO   C61 5270   2.510   6.434   5.549
   12CHTO  H118 5271   2.431   6.502   5.585
   12CHTO   O40 5272   2.560   6.362   5.661
   12CHTO   C68 5273   2.604   6.229   5.631
   12CHTO  H125 5274   2.518   6.160   5.641
   12CHTO   C72 5275   2.708   6.186   5.737
   12CHTO   O48 5276   2.746   6.049   5.725
   12CHTO  H105 5277   2.807   6.025   5.794
   12CHTO   O38 5278   2.619   6.510   5.492
   12CHTO   C55 5279   2.647   6.626   5.572
   12CHTO  H112 5280   2.630   6.603   5.678
   12CHTO   C56 5281   2.566   6.750   5.525
   12CHTO  H113 5282   2.596   6.772   5.421
   12CHTO   O42 5283   2.424   6.725   5.522
   12CHTO  H100 5284   2.378   6.798   5.483
   12CHTO   C57 5285   2.597   6.870   5.617
   12CHTO  H114 5286   2.565   6.847   5.719
   12CHTO   N10 5287   2.527   6.992   5.571
   12CHTO  H106 5288   2.578   7.080   5.607
   12CHTO  H107 5289   2.426   6.992   5.604
   12CHTO   C58 5290   2.748   6.893   5.616
   12CHTO  H115 5291   2.778   6.929   5.516
   12CHTO   O37 5292   2.821   6.775   5.651
   12CHTO   C59 5293   2.795   6.667   5.560
   12CHTO  H116 5294   2.820   6.696   5.457
   12CHTO   C70 5295   2.886   6.551   5.605
   12CHTO   O46 5296   3.023   6.593   5.610
   12CHTO  H103 5297   3.078   6.519   5.633
   12CHTO   O39 5298   2.773   6.996   5.714
   12CHTO   C60 5299   2.912   7.015   5.746
   12CHTO  H117 5300   2.952   6.922   5.788
   12CHTO   C62 5301   2.996   7.056   5.624
   12CHTO  H119 5302   3.000   6.970   5.555
   12CHTO   O43 5303   2.931   7.166   5.559
   12CHTO  H101 5304   2.974   7.189   5.477
   12CHTO   C66 5305   3.138   7.092   5.673
   12CHTO  H123 5306   3.185   7.002   5.715
   12CHTO   N12 5307   3.223   7.138   5.563
   12CHTO  H110 5308   3.192   7.236   5.529
   12CHTO  H111 5309   3.221   7.067   5.482
   12CHTO   C69 5310   3.130   7.202   5.780
   12CHTO  H126 5311   3.081   7.292   5.738
   12CHTO   O41 5312   3.057   7.150   5.893
   12CHTO   C64 5313   2.920   7.122   5.856
   12CHTO  H121 5314   2.871   7.215   5.819
   12CHTO   C71 5315   2.843   7.075   5.982
   12CHTO   O47 5316   2.860   7.176   6.083
   12CHTO  H104 5317   2.813   7.151   6.162
   12CHTO   O34 5318   3.267   7.233   5.812
   12CHTO   C49 5319   3.288   7.362   5.873
   12CHTO   H91 5320   3.249   7.439   5.806
   12CHTO   C47 5321   3.439   7.375   5.889
   12CHTO   H89 5322   3.460   7.472   5.939
   12CHTO   O33 5323   3.509   7.371   5.763
   12CHTO   H70 5324   3.482   7.444   5.709
   12CHTO   C45 5325   3.490   7.256   5.977
   12CHTO   H87 5326   3.517   7.170   5.914
   12CHTO    N8 5327   3.609   7.300   6.050
   12CHTO   H75 5328   3.681   7.341   5.980
   12CHTO   H76 5329   3.654   7.217   6.104
   12CHTO   C43 5330   3.379   7.210   6.075
   12CHTO   H85 5331   3.315   7.139   6.023
   12CHTO   O29 5332   3.309   7.326   6.119
   12CHTO   C50 5333   3.226   7.378   6.014
   12CHTO   H92 5334   3.128   7.325   6.015
   12CHTO   C54 5335   3.189   7.525   6.043
   12CHTO   O36 5336   3.120   7.532   6.169
   12CHTO   H72 5337   3.096   7.622   6.187
   12CHTO   O27 5338   3.441   7.143   6.187
   12CHTO   C37 5339   3.351   7.109   6.294
   12CHTO   H79 5340   3.302   7.200   6.334
   12CHTO   C38 5341   3.239   7.014   6.247
   12CHTO   H80 5342   3.284   6.931   6.189
   12CHTO   O31 5343   3.147   7.085   6.166
   12CHTO   H68 5344   3.076   7.030   6.134
   12CHTO   C39 5345   3.160   6.958   6.368
   12CHTO   H81 5346   3.108   7.043   6.416
   12CHTO    N7 5347   3.059   6.861   6.324
   12CHTO   H73 5348   2.995   6.834   6.407
   12CHTO   H74 5349   3.106   6.773   6.283
   12CHTO   C40 5350   3.254   6.895   6.473
   12CHTO   H82 5351   3.306   6.808   6.429
   12CHTO   O26 5352   3.345   6.997   6.515
   12CHTO   C41 5353   3.431   7.041   6.406
   12CHTO   H83 5354   3.485   6.954   6.366
   12CHTO   C52 5355   3.532   7.138   6.469
   12CHTO   O35 5356   3.603   7.077   6.578
   12CHTO   H71 5357   3.674   7.133   6.609
   12CHTO   O28 5358   3.176   6.850   6.586
   12CHTO   C42 5359   3.250   6.783   6.690
   12CHTO   H84 5360   3.175   6.766   6.770
   12CHTO   C44 5361   3.364   6.863   6.755
   12CHTO   H86 5362   3.446   6.874   6.684
   12CHTO   O32 5363   3.317   6.993   6.793
   12CHTO   H69 5364   3.389   7.045   6.827
   12CHTO   C48 5365   3.416   6.783   6.877
   12CHTO   H90 5366   3.334   6.768   6.949
   12CHTO    N9 5367   3.523   6.859   6.947
   12CHTO   H77 5368   3.612   6.862   6.887
   12CHTO   H78 5369   3.544   6.814   7.043
   12CHTO   C51 5370   3.466   6.645   6.825
   12CHTO   H93 5371   3.546   6.662   6.754
   12CHTO   O30 5372   3.355   6.577   6.767
   12CHTO   C46 5373   3.305   6.644   6.650
   12CHTO   H88 5374   3.384   6.655   6.575
   12CHTO   C53 5375   3.191   6.554   6.596
   12CHTO   O72 5376   3.137   6.609   6.475
   12CHTO  H199 5377   3.068   6.555   6.441
   12CHTO   O22 5378   3.511   6.570   6.940
   12CHTO   C31 5379   3.573   6.440   6.911
   12CHTO   H59 5380   3.596   6.396   7.009
   12CHTO   C29 5381   3.484   6.340   6.836
   12CHTO   H57 5382   3.464   6.375   6.734
   12CHTO   O21 5383   3.357   6.325   6.901
   12CHTO   H37 5384   3.370   6.293   6.990
   12CHTO   C27 5385   3.558   6.205   6.830
   12CHTO   H55 5386   3.573   6.168   6.933
   12CHTO    N5 5387   3.479   6.107   6.754
   12CHTO   H43 5388   3.460   6.139   6.653
   12CHTO   H44 5389   3.385   6.085   6.804
   12CHTO   C25 5390   3.694   6.225   6.761
   12CHTO   H53 5391   3.675   6.260   6.658
   12CHTO   O17 5392   3.772   6.324   6.831
   12CHTO   C32 5393   3.708   6.452   6.835
   12CHTO   H60 5394   3.688   6.488   6.733
   12CHTO   C36 5395   3.803   6.549   6.907
   12CHTO   O25 5396   3.922   6.563   6.830
   12CHTO   H40 5397   3.980   6.626   6.871
   12CHTO   O15 5398   3.762   6.098   6.759
   12CHTO   C19 5399   3.887   6.098   6.685
   12CHTO   H47 5400   3.923   5.994   6.698
   12CHTO   C20 5401   3.873   6.122   6.534
   12CHTO   H48 5402   3.839   6.224   6.512
   12CHTO   O19 5403   3.778   6.028   6.481
   12CHTO   H35 5404   3.768   6.041   6.387
   12CHTO   C21 5405   4.010   6.100   6.468
   12CHTO   H49 5406   4.041   5.995   6.483
   12CHTO    N4 5407   4.004   6.124   6.323
   12CHTO   H41 5408   4.100   6.102   6.278
   12CHTO   H42 5409   3.978   6.228   6.304
   12CHTO   C22 5410   4.112   6.193   6.534
   12CHTO   H50 5411   4.081   6.297   6.517
   12CHTO   O14 5412   4.121   6.165   6.675
   12CHTO   C23 5413   3.997   6.189   6.743
   12CHTO   H51 5414   3.972   6.297   6.729
   12CHTO   C34 5415   4.019   6.160   6.892
   12CHTO   O23 5416   4.121   6.248   6.940
   12CHTO   H38 5417   4.142   6.229   7.031
   12CHTO   O16 5418   4.238   6.167   6.474
   12CHTO   C24 5419   4.335   6.270   6.505
   12CHTO   H52 5420   4.319   6.312   6.606
   12CHTO   C26 5421   4.330   6.381   6.400
   12CHTO   H54 5422   4.335   6.336   6.299
   12CHTO   O20 5423   4.209   6.459   6.410
   12CHTO   H36 5424   4.207   6.524   6.340
   12CHTO   C30 5425   4.451   6.474   6.417
   12CHTO   H58 5426   4.447   6.526   6.514
   12CHTO    N6 5427   4.452   6.577   6.311
   12CHTO   H45 5428   4.473   6.530   6.217
   12CHTO   H46 5429   4.530   6.647   6.333
   12CHTO   C33 5430   4.579   6.389   6.413
   12CHTO   H61 5431   4.586   6.334   6.318
   12CHTO   O18 5432   4.578   6.296   6.521
   12CHTO   C28 5433   4.472   6.200   6.508
   12CHTO   H56 5434   4.484   6.141   6.415
   12CHTO   C35 5435   4.482   6.105   6.629
   12CHTO   O24 5436   4.604   6.031   6.629
   12CHTO   H39 5437   4.605   5.972   6.703
   12CHTO    O9 5438   4.694   6.474   6.418
   12CHTO   C13 5439   4.818   6.403   6.439
   12CHTO   H26 5440   4.813   6.303   6.392
   12CHTO   C11 5441   4.842   6.394   6.592
   12CHTO   H24 5442   4.789   6.308   6.635
   12CHTO    O8 5443   4.788   6.515   6.648
   12CHTO    H3 5444   4.796   6.516   6.742
   12CHTO    C9 5445   4.992   6.381   6.619
   12CHTO   H22 5446   5.024   6.293   6.562
   12CHTO    N2 5447   5.023   6.353   6.761
   12CHTO   H10 5448   4.966   6.266   6.795
   12CHTO   H11 5449   5.002   6.438   6.824
   12CHTO    C7 5450   5.066   6.507   6.568
   12CHTO   H20 5451   5.160   6.468   6.527
   12CHTO    O4 5452   4.991   6.575   6.467
   12CHTO   C14 5453   4.933   6.484   6.373
   12CHTO   H27 5454   5.011   6.414   6.336
   12CHTO   C18 5455   4.882   6.564   6.252
   12CHTO   O13 5456   4.816   6.474   6.162
   12CHTO    H7 5457   4.783   6.521   6.085
   12CHTO    O2 5458   5.094   6.599   6.676
   12CHTO    C1 5459   5.158   6.722   6.634
   12CHTO   H14 5460   5.093   6.776   6.563
   12CHTO    C2 5461   5.298   6.699   6.570
   12CHTO   H15 5462   5.358   6.634   6.636
   12CHTO    O6 5463   5.286   6.641   6.439
   12CHTO    H1 5464   5.371   6.628   6.401
   12CHTO    C3 5465   5.368   6.837   6.549
   12CHTO   H16 5466   5.311   6.897   6.475
   12CHTO    N1 5467   5.503   6.817   6.496
   12CHTO    H8 5468   5.562   6.759   6.566
   12CHTO    H9 5469   5.552   6.911   6.477
   12CHTO    C4 5470   5.367   6.919   6.681
   12CHTO   H17 5471   5.434   6.869   6.754
   12CHTO    O1 5472   5.235   6.932   6.732
   12CHTO    C5 5473   5.174   6.807   6.762
   12CHTO   H18 5474   5.235   6.752   6.834
   12CHTO   C16 5475   5.036   6.838   6.826
   12CHTO   O11 5476   5.059   6.934   6.931
   12CHTO    H5 5477   4.977   6.952   6.975
   12CHTO    O3 5478   5.416   7.050   6.649
   12CHTO    C6 5479   5.422   7.138   6.764
   12CHTO   H19 5480   5.341   7.118   6.836
   12CHTO    C8 5481   5.559   7.128   6.834
   12CHTO   H21 5482   5.638   7.147   6.760
   12CHTO    O7 5483   5.574   7.000   6.894
   12CHTO    H2 5484   5.657   6.992   6.940
   12CHTO   C12 5485   5.565   7.236   6.945
   12CHTO   H25 5486   5.488   7.210   7.020
   12CHTO    N3 5487   5.697   7.227   7.010
   12CHTO   H12 5488   5.699   7.282   7.103
   12CHTO   H13 5489   5.775   7.263   6.944
   12CHTO   C15 5490   5.535   7.376   6.887
   12CHTO   H28 5491   5.613   7.407   6.817
   12CHTO   O10 5492   5.522   7.474   6.992
   12CHTO    H4 5493   5.605   7.488   7.037
   12CHTO    O5 5494   5.407   7.376   6.823
   12CHTO   C10 5495   5.404   7.283   6.714
   12CHTO   H23 5496   5.484   7.308   6.644
   12CHTO   C17 5497   5.270   7.300   6.641
   12CHTO   O12 5498   5.256   7.435   6.599
   12CHTO    H6 5499   5.172   7.450   6.557
   13CHTO  H203 5500   0.929   5.345   4.444
   13CHTO   O82 5501   0.984   5.300   4.507
   13CHTO  C123 5502   1.104   5.255   4.446
   13CHTO  H227 5503   1.159   5.342   4.405
   13CHTO   O77 5504   1.180   5.190   4.549
   13CHTO  C118 5505   1.309   5.148   4.502
   13CHTO  H222 5506   1.366   5.235   4.464
   13CHTO  C125 5507   1.390   5.083   4.618
   13CHTO   O84 5508   1.404   5.180   4.723
   13CHTO  H205 5509   1.447   5.142   4.798
   13CHTO  C114 5510   1.294   5.044   4.390
   13CHTO  H218 5511   1.246   4.954   4.432
   13CHTO  C116 5512   1.206   5.101   4.275
   13CHTO  H220 5513   1.259   5.183   4.223
   13CHTO   O79 5514   1.177   4.999   4.179
   13CHTO  H201 5515   1.122   5.032   4.109
   13CHTO  C120 5516   1.073   5.151   4.336
   13CHTO  H224 5517   1.021   5.063   4.378
   13CHTO   N21 5518   0.992   5.206   4.228
   13CHTO  H211 5519   1.029   5.304   4.199
   13CHTO  H212 5520   0.888   5.213   4.258
   13CHTO   O75 5521   1.428   5.016   4.350
   13CHTO  C112 5522   1.439   4.904   4.257
   13CHTO  H216 5523   1.394   4.931   4.160
   13CHTO   O73 5524   1.377   4.789   4.317
   13CHTO  C113 5525   1.392   4.673   4.235
   13CHTO  H217 5526   1.351   4.694   4.135
   13CHTO  C124 5527   1.310   4.559   4.297
   13CHTO   O83 5528   1.176   4.605   4.324
   13CHTO  H204 5529   1.127   4.535   4.367
   13CHTO  C109 5530   1.542   4.633   4.220
   13CHTO  H213 5531   1.581   4.617   4.323
   13CHTO  C110 5532   1.612   4.753   4.154
   13CHTO  H214 5533   1.572   4.770   4.053
   13CHTO   O78 5534   1.752   4.730   4.145
   13CHTO  H200 5535   1.797   4.804   4.107
   13CHTO  C111 5536   1.590   4.877   4.242
   13CHTO  H215 5537   1.635   4.860   4.342
   13CHTO   N19 5538   1.654   4.996   4.185
   13CHTO  H207 5539   1.645   5.078   4.254
   13CHTO  H208 5540   1.608   5.022   4.091
   13CHTO   O74 5541   1.557   4.511   4.144
   13CHTO  C115 5542   1.685   4.447   4.164
   13CHTO  H219 5543   1.756   4.513   4.211
   13CHTO   O76 5544   1.675   4.333   4.252
   13CHTO  C122 5545   1.568   4.245   4.212
   13CHTO  H226 5546   1.474   4.293   4.239
   13CHTO  C126 5547   1.575   4.113   4.294
   13CHTO   O85 5548   1.692   4.035   4.265
   13CHTO  H206 5549   1.771   4.085   4.278
   13CHTO  C121 5550   1.570   4.217   4.058
   13CHTO  H225 5551   1.553   4.109   4.040
   13CHTO   O81 5552   1.465   4.294   3.998
   13CHTO  H202 5553   1.379   4.268   4.029
   13CHTO  C119 5554   1.708   4.259   4.001
   13CHTO  H223 5555   1.779   4.204   4.062
   13CHTO  C117 5556   1.741   4.407   4.025
   13CHTO  H221 5557   1.701   4.477   3.950
   13CHTO   N20 5558   1.887   4.428   4.025
   13CHTO  H209 5559   1.929   4.394   3.931
   13CHTO  H210 5560   1.934   4.377   4.108
   13CHTO   O80 5561   1.740   4.212   3.869
   13CHTO  C103 5562   1.640   4.223   3.765
   13CHTO  H190 5563   1.548   4.171   3.795
   13CHTO  C101 5564   1.602   4.366   3.716
   13CHTO  H188 5565   1.692   4.423   3.690
   13CHTO   O68 5566   1.526   4.437   3.816
   13CHTO  H168 5567   1.515   4.529   3.793
   13CHTO   C99 5568   1.515   4.352   3.587
   13CHTO  H186 5569   1.422   4.297   3.610
   13CHTO   N17 5570   1.478   4.482   3.527
   13CHTO  H174 5571   1.567   4.543   3.515
   13CHTO  H175 5572   1.405   4.534   3.589
   13CHTO   C97 5573   1.588   4.271   3.479
   13CHTO  H184 5574   1.682   4.322   3.454
   13CHTO   O64 5575   1.612   4.140   3.532
   13CHTO  C104 5576   1.700   4.144   3.645
   13CHTO  H191 5577   1.795   4.190   3.616
   13CHTO  C108 5578   1.733   4.002   3.689
   13CHTO   O71 5579   1.782   3.929   3.575
   13CHTO  H171 5580   1.799   3.839   3.600
   13CHTO   O62 5581   1.504   4.261   3.363
   13CHTO   C91 5582   1.575   4.235   3.241
   13CHTO  H178 5583   1.644   4.320   3.225
   13CHTO   C92 5584   1.473   4.241   3.126
   13CHTO  H179 5585   1.417   4.336   3.129
   13CHTO   O66 5586   1.544   4.239   3.002
   13CHTO  H166 5587   1.485   4.248   2.928
   13CHTO   C93 5588   1.377   4.120   3.132
   13CHTO  H180 5589   1.331   4.108   3.032
   13CHTO   N16 5590   1.266   4.142   3.227
   13CHTO  H172 5591   1.305   4.149   3.327
   13CHTO  H173 5592   1.196   4.060   3.219
   13CHTO   C94 5593   1.456   3.991   3.167
   13CHTO  H181 5594   1.447   3.965   3.272
   13CHTO   O61 5595   1.594   4.013   3.136
   13CHTO   C95 5596   1.653   4.102   3.231
   13CHTO  H182 5597   1.656   4.053   3.329
   13CHTO  C106 5598   1.800   4.128   3.189
   13CHTO   O69 5599   1.867   4.000   3.189
   13CHTO  H169 5600   1.960   4.012   3.170
   13CHTO   O63 5601   1.401   3.888   3.081
   13CHTO   C96 5602   1.448   3.756   3.113
   13CHTO  H183 5603   1.434   3.740   3.221
   13CHTO   C98 5604   1.596   3.731   3.079
   13CHTO  H185 5605   1.663   3.797   3.138
   13CHTO   O67 5606   1.628   3.598   3.119
   13CHTO  H167 5607   1.720   3.583   3.106
   13CHTO  C102 5608   1.621   3.748   2.926
   13CHTO  H189 5609   1.713   3.692   2.903
   13CHTO   N18 5610   1.646   3.887   2.885
   13CHTO  H176 5611   1.730   3.928   2.941
   13CHTO  H177 5612   1.559   3.950   2.898
   13CHTO  C105 5613   1.504   3.687   2.847
   13CHTO  H192 5614   1.435   3.767   2.816
   13CHTO   O65 5615   1.432   3.593   2.928
   13CHTO  C100 5616   1.360   3.655   3.036
   13CHTO  H187 5617   1.275   3.710   2.992
   13CHTO  C107 5618   1.304   3.546   3.129
   13CHTO   O70 5619   1.411   3.485   3.200
   13CHTO  H170 5620   1.379   3.422   3.264
   13CHTO   O57 5621   1.569   3.626   2.734
   13CHTO   C85 5622   1.484   3.547   2.649
   13CHTO  H157 5623   1.447   3.460   2.706
   13CHTO   C83 5624   1.575   3.494   2.536
   13CHTO  H155 5625   1.661   3.440   2.578
   13CHTO   O56 5626   1.626   3.606   2.462
   13CHTO  H135 5627   1.676   3.664   2.518
   13CHTO   C81 5628   1.495   3.400   2.445
   13CHTO  H153 5629   1.478   3.305   2.497
   13CHTO   N14 5630   1.573   3.371   2.322
   13CHTO  H141 5631   1.664   3.321   2.350
   13CHTO  H142 5632   1.598   3.463   2.271
   13CHTO   C79 5633   1.359   3.463   2.406
   13CHTO  H151 5634   1.282   3.412   2.467
   13CHTO   O52 5635   1.357   3.604   2.439
   13CHTO   C86 5636   1.369   3.628   2.582
   13CHTO  H158 5637   1.389   3.736   2.589
   13CHTO   C90 5638   1.235   3.603   2.653
   13CHTO   O60 5639   1.130   3.652   2.569
   13CHTO  H138 5640   1.046   3.636   2.611
   13CHTO   O50 5641   1.331   3.442   2.267
   13CHTO   C73 5642   1.206   3.497   2.222
   13CHTO  H145 5643   1.197   3.603   2.248
   13CHTO   C74 5644   1.085   3.420   2.276
   13CHTO  H146 5645   1.079   3.430   2.386
   13CHTO   O54 5646   0.965   3.475   2.221
   13CHTO  H133 5647   0.890   3.429   2.256
   13CHTO   C75 5648   1.100   3.272   2.234
   13CHTO  H147 5649   1.194   3.232   2.276
   13CHTO   N13 5650   0.986   3.192   2.284
   13CHTO  H139 5651   0.983   3.197   2.392
   13CHTO  H140 5652   0.999   3.089   2.254
   13CHTO   C76 5653   1.105   3.268   2.079
   13CHTO  H148 5654   1.009   3.306   2.042
   13CHTO   O49 5655   1.215   3.347   2.028
   13CHTO   C77 5656   1.207   3.484   2.067
   13CHTO  H149 5657   1.117   3.530   2.027
   13CHTO   C88 5658   1.327   3.561   2.008
   13CHTO   O58 5659   1.324   3.552   1.864
   13CHTO  H136 5660   1.394   3.602   1.824
   13CHTO   O51 5661   1.130   3.131   2.040
   13CHTO   C78 5662   1.132   3.111   1.898
   13CHTO  H150 5663   1.180   3.196   1.846
   13CHTO   C80 5664   0.990   3.091   1.842
   13CHTO  H152 5665   0.940   3.010   1.899
   13CHTO   O55 5666   0.916   3.213   1.854
   13CHTO  H134 5667   0.826   3.201   1.827
   13CHTO   C84 5668   0.999   3.052   1.693
   13CHTO  H156 5669   1.040   3.136   1.637
   13CHTO   N15 5670   0.864   3.024   1.641
   13CHTO  H143 5671   0.822   2.941   1.695
   13CHTO  H144 5672   0.871   2.998   1.536
   13CHTO   C87 5673   1.090   2.929   1.677
   13CHTO  H159 5674   1.045   2.844   1.730
   13CHTO   O53 5675   1.220   2.960   1.729
   13CHTO   C82 5676   1.217   2.985   1.870
   13CHTO  H154 5677   1.176   2.899   1.923
   13CHTO   C89 5678   1.361   3.008   1.922
   13CHTO   O59 5679   1.438   2.891   1.890
   13CHTO  H137 5680   1.526   2.904   1.919
   13CHTO   O45 5681   1.099   2.900   1.535
   13CHTO   C67 5682   1.209   2.812   1.505
   13CHTO  H124 5683   1.304   2.860   1.532
   13CHTO   C65 5684   1.196   2.680   1.585
   13CHTO  H122 5685   1.090   2.656   1.594
   13CHTO   O44 5686   1.256   2.704   1.714
   13CHTO  H102 5687   1.244   2.630   1.773
   13CHTO   C63 5688   1.262   2.565   1.506
   13CHTO  H120 5689   1.187   2.521   1.438
   13CHTO   N11 5690   1.304   2.452   1.591
   13CHTO  H108 5691   1.221   2.416   1.649
   13CHTO  H109 5692   1.384   2.482   1.659
   13CHTO   C61 5693   1.381   2.618   1.422
   13CHTO  H118 5694   1.427   2.531   1.373
   13CHTO   O40 5695   1.335   2.706   1.321
   13CHTO   C68 5696   1.217   2.781   1.354
   13CHTO  H125 5697   1.128   2.721   1.326
   13CHTO   C72 5698   1.214   2.910   1.269
   13CHTO   O48 5699   1.093   2.983   1.285
   13CHTO  H105 5700   1.093   3.060   1.229
   13CHTO   O38 5701   1.479   2.688   1.502
   13CHTO   C55 5702   1.604   2.695   1.433
   13CHTO  H112 5703   1.586   2.705   1.324
   13CHTO   C56 5704   1.696   2.575   1.467
   13CHTO  H113 5705   1.716   2.578   1.575
   13CHTO   O42 5706   1.633   2.448   1.441
   13CHTO  H100 5707   1.686   2.376   1.472
   13CHTO   C57 5708   1.827   2.586   1.386
   13CHTO  H114 5709   1.805   2.581   1.279
   13CHTO   N10 5710   1.921   2.477   1.422
   13CHTO  H106 5711   2.022   2.505   1.399
   13CHTO  H107 5712   1.895   2.387   1.369
   13CHTO   C58 5713   1.891   2.721   1.418
   13CHTO  H115 5714   1.926   2.721   1.523
   13CHTO   O37 5715   1.802   2.830   1.395
   13CHTO   C59 5716   1.683   2.821   1.475
   13CHTO  H116 5717   1.710   2.817   1.582
   13CHTO   C70 5718   1.602   2.948   1.446
   13CHTO   O46 5719   1.680   3.066   1.469
   13CHTO  H103 5720   1.627   3.142   1.455
   13CHTO   O39 5721   2.005   2.733   1.330
   13CHTO   C60 5722   2.064   2.863   1.327
   13CHTO  H117 5723   1.991   2.936   1.290
   13CHTO   C62 5724   2.117   2.908   1.464
   13CHTO  H119 5725   2.030   2.925   1.530
   13CHTO   O43 5726   2.199   2.803   1.518
   13CHTO  H101 5727   2.225   2.822   1.608
   13CHTO   C66 5728   2.195   3.040   1.445
   13CHTO  H123 5729   2.126   3.118   1.410
   13CHTO   N12 5730   2.253   3.087   1.571
   13CHTO  H110 5731   2.336   3.024   1.601
   13CHTO  H111 5732   2.178   3.091   1.647
   13CHTO   C69 5733   2.308   3.020   1.342
   13CHTO  H126 5734   2.376   2.940   1.376
   13CHTO   O41 5735   2.247   2.987   1.216
   13CHTO   C64 5736   2.179   2.860   1.224
   13CHTO  H121 5737   2.251   2.780   1.253
   13CHTO   C71 5738   2.123   2.824   1.084
   13CHTO   O47 5739   2.233   2.828   0.991
   13CHTO  H104 5740   2.203   2.806   0.904
   13CHTO   O34 5741   2.377   3.146   1.338
   13CHTO   C49 5742   2.512   3.139   1.287
   13CHTO   H91 5743   2.569   3.068   1.347
   13CHTO   C47 5744   2.568   3.281   1.301
   13CHTO   H89 5745   2.671   3.281   1.259
   13CHTO   O33 5746   2.573   3.325   1.438
   13CHTO   H70 5747   2.631   3.268   1.488
   13CHTO   C45 5748   2.476   3.378   1.222
   13CHTO   H87 5749   2.396   3.417   1.286
   13CHTO    N8 5750   2.557   3.491   1.175
   13CHTO   H75 5751   2.611   3.534   1.259
   13CHTO   H76 5752   2.495   3.566   1.128
   13CHTO   C43 5753   2.410   3.306   1.102
   13CHTO   H85 5754   2.319   3.257   1.138
   13CHTO   O29 5755   2.505   3.213   1.049
   13CHTO   C50 5756   2.522   3.101   1.137
   13CHTO   H92 5757   2.445   3.025   1.115
   13CHTO   C54 5758   2.655   3.030   1.106
   13CHTO   O36 5759   2.653   2.985   0.969
   13CHTO   H72 5760   2.734   2.940   0.949
   13CHTO   O27 5761   2.372   3.403   1.003
   13CHTO   C37 5762   2.324   3.347   0.879
   13CHTO   H79 5763   2.401   3.282   0.833
   13CHTO   C38 5764   2.198   3.261   0.900
   13CHTO   H80 5765   2.126   3.317   0.963
   13CHTO   O31 5766   2.233   3.139   0.963
   13CHTO   H68 5767   2.158   3.083   0.979
   13CHTO   C39 5768   2.133   3.224   0.764
   13CHTO   H81 5769   2.204   3.160   0.709
   13CHTO    N7 5770   2.007   3.150   0.784
   13CHTO   H73 5771   1.971   3.113   0.690
   13CHTO   H74 5772   1.933   3.212   0.831
   13CHTO   C40 5773   2.107   3.350   0.678
   13CHTO   H82 5774   2.035   3.416   0.729
   13CHTO   O26 5775   2.234   3.414   0.658
   13CHTO   C41 5776   2.290   3.462   0.782
   13CHTO   H83 5777   2.219   3.531   0.830
   13CHTO   C52 5778   2.417   3.541   0.744
   13CHTO   O35 5779   2.388   3.645   0.649
   13CHTO   H71 5780   2.464   3.701   0.635
   13CHTO   O28 5781   2.053   3.311   0.551
   13CHTO   C42 5782   2.018   3.418   0.461
   13CHTO   H84 5783   1.988   3.367   0.368
   13CHTO   C44 5784   2.132   3.513   0.422
   13CHTO   H86 5785   2.159   3.575   0.509
   13CHTO   O32 5786   2.246   3.439   0.379
   13CHTO   H69 5787   2.319   3.498   0.362
   13CHTO   C48 5788   2.080   3.608   0.310
   13CHTO   H90 5789   2.049   3.548   0.223
   13CHTO    N9 5790   2.188   3.699   0.266
   13CHTO   H77 5791   2.211   3.771   0.342
   13CHTO   H78 5792   2.160   3.749   0.174
   13CHTO   C51 5793   1.957   3.685   0.367
   13CHTO   H93 5794   1.990   3.743   0.453
   13CHTO   O30 5795   1.857   3.591   0.400
   13CHTO   C46 5796   1.897   3.503   0.507
   13CHTO   H88 5797   1.923   3.561   0.596
   13CHTO   C53 5798   1.774   3.412   0.534
   13CHTO   O72 5799   1.802   3.324   0.644
   13CHTO  H199 5800   1.728   3.268   0.662
   13CHTO   O22 5801   1.908   3.771   0.261
   13CHTO   C31 5802   1.799   3.861   0.298
   13CHTO   H59 5803   1.771   3.913   0.205
   13CHTO   C29 5804   1.671   3.793   0.351
   13CHTO   H57 5805   1.691   3.745   0.448
   13CHTO   O21 5806   1.627   3.690   0.262
   13CHTO   H37 5807   1.609   3.727   0.176
   13CHTO   C27 5808   1.562   3.900   0.367
   13CHTO   H55 5809   1.540   3.943   0.268
   13CHTO    N5 5810   1.440   3.841   0.423
   13CHTO   H43 5811   1.457   3.795   0.519
   13CHTO   H44 5812   1.397   3.768   0.355
   13CHTO   C25 5813   1.614   4.010   0.462
   13CHTO   H53 5814   1.633   3.964   0.560
   13CHTO   O17 5815   1.736   4.067   0.412
   13CHTO   C32 5816   1.841   3.971   0.399
   13CHTO   H60 5817   1.861   3.923   0.496
   13CHTO   C36 5818   1.966   4.045   0.350
   13CHTO   O25 5819   2.006   4.139   0.449
   13CHTO   H40 5820   2.087   4.183   0.423
   13CHTO   O15 5821   1.511   4.110   0.474
   13CHTO   C19 5822   1.539   4.214   0.571
   13CHTO   H47 5823   1.451   4.281   0.561
   13CHTO   C20 5824   1.545   4.167   0.717
   13CHTO   H48 5825   1.632   4.101   0.735
   13CHTO   O19 5826   1.425   4.095   0.747
   13CHTO   H35 5827   1.426   4.066   0.838
   13CHTO   C21 5828   1.557   4.291   0.808
   13CHTO   H49 5829   1.467   4.353   0.796
   13CHTO    N4 5830   1.566   4.251   0.949
   13CHTO   H41 5831   1.568   4.340   1.011
   13CHTO   H42 5832   1.656   4.194   0.966
   13CHTO   C22 5833   1.680   4.371   0.766
   13CHTO   H50 5834   1.769   4.309   0.779
   13CHTO   O14 5835   1.668   4.414   0.629
   13CHTO   C23 5836   1.662   4.302   0.538
   13CHTO   H51 5837   1.757   4.245   0.550
   13CHTO   C34 5838   1.654   4.358   0.396
   13CHTO   O23 5839   1.770   4.436   0.371
   13CHTO   H38 5840   1.765   4.479   0.286
   13CHTO   O16 5841   1.685   4.487   0.848
   13CHTO   C24 5842   1.813   4.553   0.840
   13CHTO   H52 5843   1.857   4.544   0.740
   13CHTO   C26 5844   1.909   4.497   0.946
   13CHTO   H54 5845   1.858   4.497   1.044
   13CHTO   O20 5846   1.951   4.363   0.915
   13CHTO   H36 5847   2.006   4.330   0.985
   13CHTO   C30 5848   2.033   4.587   0.956
   13CHTO   H58 5849   2.090   4.586   0.862
   13CHTO    N6 5850   2.122   4.539   1.063
   13CHTO   H45 5851   2.075   4.556   1.158
   13CHTO   H46 5852   2.213   4.596   1.059
   13CHTO   C33 5853   1.987   4.732   0.982
   13CHTO   H61 5854   1.928   4.737   1.075
   13CHTO   O18 5855   1.907   4.777   0.874
   13CHTO   C28 5856   1.784   4.703   0.863
   13CHTO   H56 5857   1.724   4.715   0.954
   13CHTO   C35 5858   1.706   4.761   0.743
   13CHTO   O24 5859   1.670   4.898   0.765
   13CHTO   H39 5860   1.620   4.929   0.691
   13CHTO    O9 5861   2.101   4.816   1.003
   13CHTO   C13 5862   2.069   4.957   1.005
   13CHTO   H26 5863   1.968   4.973   1.046
   13CHTO   C11 5864   2.080   5.010   0.859
   13CHTO   H24 5865   1.987   4.993   0.804
   13CHTO    O8 5866   2.185   4.935   0.797
   13CHTO    H3 5867   2.197   4.958   0.707
   13CHTO    C9 5868   2.112   5.160   0.861
   13CHTO   H22 5869   2.031   5.205   0.921
   13CHTO    N2 5870   2.106   5.222   0.728
   13CHTO   H10 5871   2.010   5.200   0.681
   13CHTO   H11 5872   2.187   5.189   0.664
   13CHTO    C7 5873   2.249   5.183   0.930
   13CHTO   H20 5874   2.234   5.275   0.988
   13CHTO    O4 5875   2.284   5.075   1.016
   13CHTO   C14 5876   2.173   5.030   1.094
   13CHTO   H27 5877   2.124   5.116   1.144
   13CHTO   C18 5878   2.224   4.937   1.205
   13CHTO   O13 5879   2.113   4.884   1.278
   13CHTO    H7 5880   2.142   4.826   1.348
   13CHTO    O2 5881   2.354   5.202   0.833
   13CHTO    C1 5882   2.485   5.219   0.890
   13CHTO   H14 5883   2.513   5.130   0.949
   13CHTO    C2 5884   2.497   5.346   0.980
   13CHTO   H15 5885   2.457   5.433   0.925
   13CHTO    O6 5886   2.427   5.328   1.104
   13CHTO    H1 5887   2.435   5.405   1.158
   13CHTO    C3 5888   2.646   5.368   1.018
   13CHTO   H16 5889   2.682   5.284   1.081
   13CHTO    N1 5890   2.660   5.492   1.097
   13CHTO    H8 5891   2.628   5.576   1.038
   13CHTO    H9 5892   2.762   5.507   1.128
   13CHTO    C4 5893   2.736   5.368   0.892
   13CHTO   H17 5894   2.714   5.458   0.832
   13CHTO    O1 5895   2.716   5.248   0.816
   13CHTO    C5 5896   2.582   5.233   0.771
   13CHTO   H18 5897   2.553   5.319   0.711
   13CHTO   C16 5898   2.579   5.106   0.682
   13CHTO   O11 5899   2.686   5.118   0.587
   13CHTO    H5 5900   2.685   5.043   0.527
   13CHTO    O3 5901   2.873   5.370   0.936
   13CHTO    C6 5902   2.968   5.371   0.828
   13CHTO   H19 5903   2.933   5.313   0.740
   13CHTO    C8 5904   3.003   5.514   0.786
   13CHTO   H21 5905   3.036   5.571   0.874
   13CHTO    O7 5906   2.889   5.577   0.726
   13CHTO    H2 5907   2.909   5.666   0.697
   13CHTO   C12 5908   3.117   5.509   0.682
   13CHTO   H25 5909   3.077   5.458   0.592
   13CHTO    N3 5910   3.151   5.648   0.644
   13CHTO   H12 5911   3.212   5.651   0.555
   13CHTO   H13 5912   3.201   5.698   0.725
   13CHTO   C15 5913   3.238   5.431   0.737
   13CHTO   H28 5914   3.283   5.481   0.822
   13CHTO   O10 5915   3.337   5.409   0.634
   13CHTO    H4 5916   3.377   5.491   0.607
   13CHTO    O5 5917   3.196   5.298   0.774
   13CHTO   C10 5918   3.097   5.303   0.878
   13CHTO   H23 5919   3.138   5.358   0.963
   13CHTO   C17 5920   3.070   5.158   0.923
   13CHTO   O12 5921   3.192   5.099   0.966
   13CHTO    H6 5922   3.179   5.008   0.991
   14CHTO  H203 5923   3.122   0.497   7.622
   14CHTO   O82 5924   3.195   0.462   7.671
   14CHTO  C123 5925   3.318   0.488   7.603
   14CHTO  H227 5926   3.330   0.597   7.590
   14CHTO   O77 5927   3.423   0.434   7.685
   14CHTO  C118 5928   3.553   0.462   7.632
   14CHTO  H222 5929   3.567   0.571   7.622
   14CHTO  C125 5930   3.662   0.406   7.727
   14CHTO   O84 5931   3.647   0.468   7.855
   14CHTO  H205 5932   3.708   0.432   7.917
   14CHTO  C114 5933   3.570   0.396   7.494
   14CHTO  H218 5934   3.565   0.287   7.507
   14CHTO  C116 5935   3.456   0.441   7.398
   14CHTO  H220 5936   3.467   0.549   7.373
   14CHTO   O79 5937   3.461   0.366   7.276
   14CHTO  H201 5938   3.391   0.392   7.217
   14CHTO  C120 5939   3.320   0.414   7.467
   14CHTO  H224 5940   3.311   0.305   7.481
   14CHTO   N21 5941   3.214   0.459   7.377
   14CHTO  H211 5942   3.207   0.567   7.378
   14CHTO  H212 5943   3.119   0.415   7.405
   14CHTO   O75 5944   3.699   0.436   7.451
   14CHTO  C112 5945   3.745   0.368   7.331
   14CHTO  H216 5946   3.685   0.400   7.244
   14CHTO   O73 5947   3.740   0.226   7.353
   14CHTO  C113 5948   3.792   0.154   7.242
   14CHTO  H217 5949   3.736   0.183   7.151
   14CHTO  C124 5950   3.767   0.004   7.267
   14CHTO   O83 5951   3.629  -0.018   7.303
   14CHTO  H204 5952   3.616  -0.110   7.322
   14CHTO  C109 5953   3.943   0.183   7.221
   14CHTO  H213 5954   3.994   0.157   7.316
   14CHTO  C110 5955   3.953   0.334   7.193
   14CHTO  H214 5956   3.901   0.360   7.101
   14CHTO   O78 5957   4.090   0.373   7.182
   14CHTO  H200 5958   4.098   0.467   7.168
   14CHTO  C111 5959   3.892   0.410   7.312
   14CHTO  H215 5960   3.949   0.386   7.404
   14CHTO   N19 5961   3.898   0.555   7.294
   14CHTO  H207 5962   3.865   0.605   7.383
   14CHTO  H208 5963   3.837   0.585   7.210
   14CHTO   O74 5964   3.998   0.103   7.114
   14CHTO  C115 5965   4.142   0.094   7.117
   14CHTO  H219 5966   4.185   0.168   7.184
   14CHTO   O76 5967   4.185  -0.033   7.169
   14CHTO  C122 5968   4.119  -0.143   7.103
   14CHTO  H226 5969   4.016  -0.147   7.140
   14CHTO  C126 5970   4.185  -0.278   7.144
   14CHTO   O85 5971   4.320  -0.290   7.097
   14CHTO  H206 5972   4.374  -0.218   7.126
   14CHTO  C121 5973   4.117  -0.124   6.948
   14CHTO  H225 5974   4.143  -0.220   6.898
   14CHTO   O81 5975   3.986  -0.084   6.909
   14CHTO  H202 5976   3.920  -0.149   6.929
   14CHTO  C119 5977   4.222  -0.017   6.908
   14CHTO  H223 5978   4.315  -0.053   6.953
   14CHTO  C117 5979   4.196   0.120   6.975
   14CHTO  H221 5980   4.125   0.185   6.922
   14CHTO   N20 5981   4.321   0.196   6.985
   14CHTO  H209 5982   4.364   0.210   6.886
   14CHTO  H210 5983   4.392   0.148   7.050
   14CHTO   O80 5984   4.258  -0.009   6.769
   14CHTO  C103 5985   4.152  -0.012   6.670
   14CHTO  H190 5986   4.091  -0.102   6.681
   14CHTO  C101 5987   4.057   0.111   6.663
   14CHTO  H188 5988   4.114   0.205   6.657
   14CHTO   O68 5989   3.968   0.115   6.777
   14CHTO  H168 5990   3.919   0.198   6.781
   14CHTO   C99 5991   3.971   0.099   6.533
   14CHTO  H186 5992   3.909   0.007   6.537
   14CHTO   N17 5993   3.880   0.214   6.512
   14CHTO  H174 5994   3.936   0.306   6.520
   14CHTO  H175 5995   3.799   0.213   6.584
   14CHTO   C97 5996   4.059   0.087   6.408
   14CHTO  H184 5997   4.123   0.176   6.402
   14CHTO   O64 5998   4.138  -0.032   6.423
   14CHTO  C104 5999   4.227  -0.023   6.534
   14CHTO  H191 6000   4.293   0.063   6.522
   14CHTO  C108 6001   4.318  -0.146   6.536
   14CHTO   O71 6002   4.381  -0.159   6.408
   14CHTO  H171 6003   4.434  -0.238   6.406
   14CHTO   O62 6004   3.976   0.076   6.293
   14CHTO   C91 6005   4.040   0.116   6.170
   14CHTO  H178 6006   4.068   0.221   6.181
   14CHTO   C92 6007   3.934   0.110   6.059
   14CHTO  H179 6008   3.845   0.170   6.087
   14CHTO   O66 6009   3.988   0.171   5.942
   14CHTO  H166 6010   3.924   0.175   5.872
   14CHTO   C93 6011   3.894  -0.036   6.027
   14CHTO  H180 6012   3.848  -0.037   5.927
   14CHTO   N16 6013   3.793  -0.087   6.122
   14CHTO  H172 6014   3.835  -0.093   6.221
   14CHTO  H173 6015   3.761  -0.185   6.089
   14CHTO   C94 6016   4.021  -0.126   6.026
   14CHTO  H181 6017   4.032  -0.181   6.119
   14CHTO   O61 6018   4.136  -0.043   6.006
   14CHTO   C95 6019   4.163   0.033   6.125
   14CHTO  H182 6020   4.194  -0.035   6.204
   14CHTO  C106 6021   4.284   0.127   6.096
   14CHTO   O69 6022   4.395   0.042   6.061
   14CHTO  H169 6023   4.474   0.095   6.048
   14CHTO   O63 6024   4.003  -0.215   5.913
   14CHTO   C96 6025   4.101  -0.320   5.907
   14CHTO  H183 6026   4.105  -0.369   6.005
   14CHTO   C98 6027   4.244  -0.272   5.872
   14CHTO  H185 6028   4.284  -0.204   5.948
   14CHTO   O67 6029   4.328  -0.387   5.872
   14CHTO  H167 6030   4.418  -0.359   5.858
   14CHTO  C102 6031   4.245  -0.206   5.730
   14CHTO  H189 6032   4.349  -0.212   5.695
   14CHTO   N18 6033   4.209  -0.063   5.731
   14CHTO  H176 6034   4.275  -0.009   5.799
   14CHTO  H177 6035   4.107  -0.047   5.760
   14CHTO  C105 6036   4.155  -0.285   5.635
   14CHTO  H192 6037   4.058  -0.234   5.625
   14CHTO   O65 6038   4.134  -0.419   5.683
   14CHTO  C100 6039   4.054  -0.422   5.802
   14CHTO  H187 6040   3.950  -0.397   5.773
   14CHTO  C107 6041   4.054  -0.566   5.858
   14CHTO   O70 6042   4.182  -0.595   5.912
   14CHTO  H170 6043   4.184  -0.680   5.955
   14CHTO   O57 6044   4.228  -0.281   5.510
   14CHTO   C85 6045   4.174  -0.361   5.404
   14CHTO  H157 6046   4.180  -0.468   5.432
   14CHTO   C83 6047   4.267  -0.341   5.283
   14CHTO  H155 6048   4.372  -0.364   5.310
   14CHTO   O56 6049   4.263  -0.202   5.246
   14CHTO  H135 6050   4.291  -0.146   5.317
   14CHTO   C81 6051   4.224  -0.430   5.166
   14CHTO  H153 6052   4.250  -0.534   5.189
   14CHTO   N14 6053   4.295  -0.391   5.043
   14CHTO  H141 6054   4.400  -0.406   5.058
   14CHTO  H142 6055   4.276  -0.286   5.021
   14CHTO   C79 6056   4.071  -0.420   5.144
   14CHTO  H151 6057   4.026  -0.512   5.186
   14CHTO   O52 6058   4.016  -0.306   5.216
   14CHTO   C86 6059   4.031  -0.319   5.360
   14CHTO  H158 6060   4.007  -0.219   5.397
   14CHTO   C90 6061   3.925  -0.414   5.417
   14CHTO   O60 6062   3.801  -0.391   5.348
   14CHTO  H138 6063   3.735  -0.450   5.381
   14CHTO   O50 6064   4.040  -0.411   5.004
   14CHTO   C73 6065   3.900  -0.401   4.973
   14CHTO  H145 6066   3.853  -0.319   5.029
   14CHTO   C74 6067   3.825  -0.533   4.999
   14CHTO  H146 6068   3.825  -0.556   5.107
   14CHTO   O54 6069   3.688  -0.518   4.960
   14CHTO  H133 6070   3.642  -0.598   4.978
   14CHTO   C75 6071   3.893  -0.644   4.917
   14CHTO  H147 6072   3.999  -0.653   4.948
   14CHTO   N13 6073   3.825  -0.774   4.940
   14CHTO  H139 6074   3.831  -0.800   5.044
   14CHTO  H140 6075   3.874  -0.850   4.882
   14CHTO   C76 6076   3.886  -0.604   4.768
   14CHTO  H148 6077   3.779  -0.599   4.740
   14CHTO   O49 6078   3.949  -0.476   4.744
   14CHTO   C77 6079   3.892  -0.371   4.821
   14CHTO  H149 6080   3.788  -0.356   4.793
   14CHTO   C88 6081   3.966  -0.239   4.790
   14CHTO   O58 6082   3.953  -0.209   4.649
   14CHTO  H136 6083   3.993  -0.126   4.627
   14CHTO   O51 6084   3.958  -0.703   4.692
   14CHTO   C78 6085   3.955  -0.681   4.550
   14CHTO  H150 6086   3.960  -0.573   4.526
   14CHTO   C80 6087   3.828  -0.741   4.487
   14CHTO  H152 6088   3.820  -0.847   4.518
   14CHTO   O55 6089   3.713  -0.667   4.532
   14CHTO  H134 6090   3.633  -0.706   4.500
   14CHTO   C84 6091   3.837  -0.730   4.333
   14CHTO  H156 6092   3.837  -0.625   4.305
   14CHTO   N15 6093   3.721  -0.795   4.272
   14CHTO  H143 6094   3.720  -0.899   4.299
   14CHTO  H144 6095   3.728  -0.786   4.165
   14CHTO   C87 6096   3.968  -0.796   4.285
   14CHTO  H159 6097   3.965  -0.903   4.310
   14CHTO   O53 6098   4.079  -0.731   4.348
   14CHTO   C82 6099   4.079  -0.748   4.490
   14CHTO  H154 6100   4.082  -0.855   4.515
   14CHTO   C89 6101   4.207  -0.685   4.550
   14CHTO   O59 6102   4.321  -0.747   4.488
   14CHTO  H137 6103   4.399  -0.708   4.522
   14CHTO   O45 6104   3.975  -0.779   4.142
   14CHTO   C67 6105   4.107  -0.804   4.091
   14CHTO  H124 6106   4.178  -0.731   4.133
   14CHTO   C65 6107   4.155  -0.946   4.129
   14CHTO  H122 6108   4.068  -1.012   4.128
   14CHTO   O44 6109   4.212  -0.936   4.261
   14CHTO  H102 6110   4.236  -1.021   4.296
   14CHTO   C63 6111   4.253  -0.999   4.023
   14CHTO  H120 6112   4.196  -1.048   3.943
   14CHTO   N11 6113   4.345  -1.103   4.073
   14CHTO  H108 6114   4.288  -1.184   4.116
   14CHTO  H109 6115   4.412  -1.063   4.148
   14CHTO   C61 6116   4.333  -0.881   3.961
   14CHTO  H118 6117   4.405  -0.926   3.890
   14CHTO   O40 6118   4.248  -0.795   3.887
   14CHTO   C68 6119   4.113  -0.787   3.937
   14CHTO  H125 6120   4.053  -0.867   3.891
   14CHTO   C72 6121   4.051  -0.652   3.893
   14CHTO   O48 6122   3.913  -0.641   3.926
   14CHTO  H105 6123   3.877  -0.559   3.894
   14CHTO   O38 6124   4.402  -0.803   4.060
   14CHTO   C55 6125   4.507  -0.727   3.999
   14CHTO  H112 6126   4.478  -0.696   3.897
   14CHTO   C56 6127   4.642  -0.804   3.999
   14CHTO  H113 6128   4.670  -0.822   4.104
   14CHTO   O42 6129   4.632  -0.933   3.937
   14CHTO  H100 6130   4.712  -0.983   3.948
   14CHTO   C57 6131   4.751  -0.719   3.929
   14CHTO  H114 6132   4.722  -0.703   3.824
   14CHTO   N10 6133   4.882  -0.786   3.934
   14CHTO  H106 6134   4.962  -0.714   3.923
   14CHTO  H107 6135   4.890  -0.861   3.857
   14CHTO   C58 6136   4.759  -0.583   4.000
   14CHTO  H115 6137   4.800  -0.599   4.102
   14CHTO   O37 6138   4.632  -0.518   4.006
   14CHTO   C59 6139   4.534  -0.596   4.078
   14CHTO  H116 6140   4.570  -0.618   4.179
   14CHTO   C70 6141   4.407  -0.511   4.083
   14CHTO   O46 6142   4.434  -0.382   4.141
   14CHTO  H103 6143   4.354  -0.333   4.148
   14CHTO   O39 6144   4.850  -0.504   3.922
   14CHTO   C60 6145   4.853  -0.365   3.957
   14CHTO  H117 6146   4.754  -0.321   3.941
   14CHTO   C62 6147   4.896  -0.342   4.103
   14CHTO  H119 6148   4.815  -0.380   4.168
   14CHTO   O43 6149   5.017  -0.415   4.127
   14CHTO  H101 6150   5.041  -0.412   4.220
   14CHTO   C66 6151   4.913  -0.190   4.125
   14CHTO  H123 6152   4.816  -0.140   4.112
   14CHTO   N12 6153   4.960  -0.160   4.261
   14CHTO  H110 6154   5.063  -0.190   4.274
   14CHTO  H111 6155   4.896  -0.207   4.333
   14CHTO   C69 6156   5.015  -0.134   4.023
   14CHTO  H126 6157   5.112  -0.185   4.035
   14CHTO   O41 6158   4.961  -0.153   3.891
   14CHTO   C64 6159   4.949  -0.293   3.861
   14CHTO  H121 6160   5.049  -0.342   3.868
   14CHTO   C71 6161   4.900  -0.310   3.715
   14CHTO   O47 6162   4.990  -0.236   3.630
   14CHTO  H104 6163   4.963  -0.244   3.539
   14CHTO   O34 6164   5.028   0.005   4.057
   14CHTO   C49 6165   5.149   0.068   4.010
   14CHTO   H91 6166   5.235   0.012   4.049
   14CHTO   C47 6167   5.146   0.210   4.066
   14CHTO   H89 6168   5.236   0.263   4.028
   14CHTO   O33 6169   5.146   0.214   4.210
   14CHTO   H70 6170   5.225   0.174   4.243
   14CHTO   C45 6171   5.016   0.280   4.015
   14CHTO   H87 6172   4.934   0.264   4.086
   14CHTO    N8 6173   5.042   0.424   4.004
   14CHTO   H75 6174   5.081   0.461   4.099
   14CHTO   H76 6175   4.951   0.477   3.980
   14CHTO   C43 6176   4.973   0.222   3.878
   14CHTO   H85 6177   4.913   0.133   3.896
   14CHTO   O29 6178   5.091   0.194   3.803
   14CHTO   C50 6179   5.159   0.079   3.856
   14CHTO   H92 6180   5.117  -0.012   3.811
   14CHTO   C54 6181   5.307   0.079   3.809
   14CHTO   O36 6182   5.310   0.077   3.665
   14CHTO   H72 6183   5.400   0.075   3.635
   14CHTO   O27 6184   4.891   0.319   3.810
   14CHTO   C37 6185   4.858   0.284   3.674
   14CHTO   H79 6186   4.949   0.272   3.613
   14CHTO   C38 6187   4.778   0.152   3.666
   14CHTO   H80 6188   4.696   0.155   3.740
   14CHTO   O31 6189   4.865   0.043   3.693
   14CHTO   H68 6190   4.820  -0.040   3.690
   14CHTO   C39 6191   4.721   0.131   3.523
   14CHTO   H81 6192   4.806   0.119   3.454
   14CHTO    N7 6193   4.637   0.010   3.518
   14CHTO   H73 6194   4.610  -0.012   3.416
   14CHTO   H74 6195   4.549   0.022   3.579
   14CHTO   C40 6196   4.640   0.254   3.476
   14CHTO   H82 6197   4.553   0.269   3.542
   14CHTO   O26 6198   4.729   0.367   3.479
   14CHTO   C41 6199   4.773   0.398   3.613
   14CHTO   H83 6200   4.684   0.416   3.677
   14CHTO   C52 6201   4.854   0.528   3.603
   14CHTO   O35 6202   4.777   0.633   3.540
   14CHTO   H71 6203   4.824   0.716   3.545
   14CHTO   O28 6204   4.594   0.232   3.342
   14CHTO   C42 6205   4.512   0.336   3.286
   14CHTO   H84 6206   4.496   0.305   3.181
   14CHTO   C44 6207   4.575   0.476   3.278
   14CHTO   H86 6208   4.583   0.517   3.380
   14CHTO   O32 6209   4.705   0.469   3.219
   14CHTO   H69 6210   4.747   0.554   3.221
   14CHTO   C48 6211   4.479   0.568   3.197
   14CHTO   H90 6212   4.467   0.527   3.096
   14CHTO    N9 6213   4.538   0.704   3.183
   14CHTO   H77 6214   4.538   0.755   3.277
   14CHTO   H78 6215   4.484   0.761   3.109
   14CHTO   C51 6216   4.342   0.571   3.270
   14CHTO   H93 6217   4.357   0.611   3.370
   14CHTO   O30 6218   4.290   0.439   3.272
   14CHTO   C46 6219   4.371   0.349   3.350
   14CHTO   H88 6220   4.381   0.386   3.453
   14CHTO   C53 6221   4.298   0.213   3.347
   14CHTO   O72 6222   4.368   0.117   3.428
   14CHTO  H199 6223   4.324   0.033   3.427
   14CHTO   O22 6224   4.254   0.654   3.192
   14CHTO   C31 6225   4.121   0.678   3.250
   14CHTO   H59 6226   4.067   0.738   3.175
   14CHTO   C29 6227   4.037   0.553   3.277
   14CHTO   H57 6228   4.082   0.493   3.358
   14CHTO   O21 6229   4.029   0.470   3.162
   14CHTO   H37 6230   3.989   0.518   3.090
   14CHTO   C27 6231   3.896   0.599   3.321
   14CHTO   H55 6232   3.850   0.654   3.237
   14CHTO    N5 6233   3.813   0.482   3.354
   14CHTO   H43 6234   3.855   0.423   3.433
   14CHTO   H44 6235   3.796   0.419   3.267
   14CHTO   C25 6236   3.909   0.690   3.445
   14CHTO   H53 6237   3.953   0.630   3.526
   14CHTO   O17 6238   3.993   0.802   3.416
   14CHTO   C32 6239   4.126   0.764   3.379
   14CHTO   H60 6240   4.172   0.705   3.459
   14CHTO   C36 6241   4.207   0.893   3.357
   14CHTO   O25 6242   4.215   0.964   3.480
   14CHTO   H40 6243   4.269   1.042   3.469
   14CHTO   O15 6244   3.776   0.732   3.482
   14CHTO   C19 6245   3.769   0.808   3.605
   14CHTO   H47 6246   3.662   0.834   3.613
   14CHTO   C20 6247   3.808   0.730   3.732
   14CHTO   H48 6248   3.914   0.703   3.733
   14CHTO   O19 6249   3.729   0.610   3.737
   14CHTO   H35 6250   3.749   0.560   3.815
   14CHTO   C21 6251   3.777   0.818   3.855
   14CHTO   H49 6252   3.669   0.839   3.858
   14CHTO    N4 6253   3.814   0.749   3.979
   14CHTO   H41 6254   3.787   0.810   4.064
   14CHTO   H42 6255   3.921   0.731   3.981
   14CHTO   C22 6256   3.855   0.949   3.841
   14CHTO   H50 6257   3.962   0.927   3.838
   14CHTO   O14 6258   3.814   1.019   3.721
   14CHTO   C23 6259   3.845   0.943   3.602
   14CHTO   H51 6260   3.955   0.929   3.600
   14CHTO   C34 6261   3.802   1.027   3.482
   14CHTO   O23 6262   3.875   1.150   3.484
   14CHTO   H38 6263   3.846   1.208   3.414
   14CHTO   O16 6264   3.821   1.030   3.953
   14CHTO   C24 6265   3.911   1.142   3.967
   14CHTO   H52 6266   3.946   1.179   3.870
   14CHTO   C26 6267   4.031   1.103   4.055
   14CHTO   H54 6268   3.994   1.055   4.148
   14CHTO   O20 6269   4.119   1.011   3.988
   14CHTO   H36 6270   4.189   0.985   4.048
   14CHTO   C30 6271   4.109   1.229   4.094
   14CHTO   H58 6272   4.153   1.276   4.005
   14CHTO    N6 6273   4.220   1.194   4.185
   14CHTO   H45 6274   4.179   1.163   4.280
   14CHTO   H46 6275   4.280   1.282   4.200
   14CHTO   C33 6276   4.013   1.330   4.159
   14CHTO   H61 6277   3.966   1.285   4.248
   14CHTO   O18 6278   3.912   1.366   4.066
   14CHTO   C28 6279   3.828   1.254   4.031
   14CHTO   H56 6280   3.776   1.216   4.120
   14CHTO   C35 6281   3.723   1.307   3.931
   14CHTO   O24 6282   3.637   1.405   3.990
   14CHTO   H39 6283   3.573   1.433   3.927
   14CHTO    O9 6284   4.085   1.443   4.206
   14CHTO   C13 6285   4.001   1.553   4.247
   14CHTO   H26 6286   3.906   1.515   4.289
   14CHTO   C11 6287   3.977   1.644   4.123
   14CHTO   H24 6288   3.893   1.605   4.063
   14CHTO    O8 6289   4.097   1.637   4.045
   14CHTO    H3 6290   4.090   1.687   3.966
   14CHTO    C9 6291   3.947   1.787   4.169
   14CHTO   H22 6292   3.861   1.777   4.237
   14CHTO    N2 6293   3.905   1.875   4.058
   14CHTO   H10 6294   3.822   1.829   4.004
   14CHTO   H11 6295   3.986   1.896   3.991
   14CHTO    C7 6296   4.070   1.843   4.245
   14CHTO   H20 6297   4.025   1.903   4.326
   14CHTO    O4 6298   4.152   1.740   4.298
   14CHTO   C14 6299   4.075   1.634   4.356
   14CHTO   H27 6300   4.001   1.676   4.428
   14CHTO   C18 6301   4.169   1.544   4.438
   14CHTO   O13 6302   4.095   1.433   4.490
   14CHTO    H7 6303   4.151   1.375   4.541
   14CHTO    O2 6304   4.149   1.929   4.160
   14CHTO    C1 6305   4.267   1.981   4.224
   14CHTO   H14 6306   4.334   1.899   4.255
   14CHTO    C2 6307   4.237   2.073   4.346
   14CHTO   H15 6308   4.161   2.147   4.317
   14CHTO    O6 6309   4.191   1.995   4.458
   14CHTO    H1 6310   4.173   2.051   4.532
   14CHTO    C3 6311   4.368   2.142   4.393
   14CHTO   H16 6312   4.439   2.066   4.431
   14CHTO    N1 6313   4.339   2.234   4.504
   14CHTO    H8 6314   4.271   2.311   4.471
   14CHTO    H9 6315   4.429   2.280   4.541
   14CHTO    C4 6316   4.439   2.212   4.275
   14CHTO   H17 6317   4.377   2.298   4.242
   14CHTO    O1 6318   4.461   2.120   4.167
   14CHTO    C5 6319   4.340   2.065   4.116
   14CHTO   H18 6320   4.273   2.145   4.082
   14CHTO   C16 6321   4.379   1.977   3.994
   14CHTO   O11 6322   4.463   2.057   3.909
   14CHTO    H5 6323   4.486   2.007   3.831
   14CHTO    O3 6324   4.567   2.257   4.321
   14CHTO    C6 6325   4.643   2.326   4.220
   14CHTO   H19 6326   4.626   2.285   4.119
   14CHTO    C8 6327   4.615   2.477   4.222
   14CHTO   H21 6328   4.631   2.515   4.324
   14CHTO    O7 6329   4.480   2.502   4.179
   14CHTO    H2 6330   4.461   2.595   4.178
   14CHTO   C12 6331   4.711   2.547   4.124
   14CHTO   H25 6332   4.687   2.510   4.022
   14CHTO    N3 6333   4.684   2.692   4.128
   14CHTO   H12 6334   4.731   2.743   4.045
   14CHTO   H13 6335   4.717   2.734   4.221
   14CHTO   C15 6336   4.858   2.512   4.157
   14CHTO   H28 6337   4.887   2.552   4.255
   14CHTO   O10 6338   4.948   2.561   4.056
   14CHTO    H4 6339   4.950   2.656   4.054
   14CHTO    O5 6340   4.876   2.369   4.154
   14CHTO   C10 6341   4.793   2.305   4.252
   14CHTO   H23 6342   4.816   2.347   4.350
   14CHTO   C17 6343   4.829   2.156   4.253
   14CHTO   O12 6344   4.968   2.142   4.281
   14CHTO    H6 6345   4.995   2.050   4.279
   15CHTO  H203 6346   3.704  -0.556   4.125
   15CHTO   O82 6347   3.665  -0.485   4.073
   15CHTO  C123 6348   3.745  -0.368   4.081
   15CHTO  H227 6349   3.846  -0.391   4.042
   15CHTO   O77 6350   3.681  -0.268   4.000
   15CHTO  C118 6351   3.757  -0.148   3.990
   15CHTO  H222 6352   3.858  -0.169   3.949
   15CHTO  C125 6353   3.686  -0.046   3.897
   15CHTO   O84 6354   3.672  -0.105   3.768
   15CHTO  H205 6355   3.623  -0.048   3.710
   15CHTO  C114 6356   3.773  -0.084   4.129
   15CHTO  H218 6357   3.673  -0.054   4.166
   15CHTO  C116 6358   3.836  -0.185   4.229
   15CHTO  H220 6359   3.941  -0.207   4.202
   15CHTO   O79 6360   3.834  -0.133   4.362
   15CHTO  H201 6361   3.870  -0.195   4.424
   15CHTO  C120 6362   3.751  -0.315   4.226
   15CHTO  H224 6363   3.650  -0.289   4.263
   15CHTO   N21 6364   3.812  -0.411   4.318
   15CHTO  H211 6365   3.901  -0.454   4.275
   15CHTO  H212 6366   3.741  -0.489   4.344
   15CHTO   O75 6367   3.855   0.031   4.107
   15CHTO  C112 6368   3.866   0.118   4.223
   15CHTO  H216 6369   3.923   0.068   4.303
   15CHTO   O73 6370   3.734   0.156   4.264
   15CHTO  C113 6371   3.738   0.250   4.372
   15CHTO  H217 6372   3.796   0.206   4.455
   15CHTO  C124 6373   3.595   0.272   4.422
   15CHTO   O83 6374   3.530   0.146   4.445
   15CHTO  H204 6375   3.439   0.160   4.471
   15CHTO  C109 6376   3.805   0.383   4.329
   15CHTO  H213 6377   3.746   0.422   4.243
   15CHTO  C110 6378   3.948   0.347   4.286
   15CHTO  H214 6379   4.005   0.308   4.371
   15CHTO   O78 6380   4.015   0.463   4.235
   15CHTO  H200 6381   4.102   0.442   4.205
   15CHTO  C111 6382   3.941   0.244   4.173
   15CHTO  H215 6383   3.887   0.287   4.087
   15CHTO   N19 6384   4.074   0.204   4.126
   15CHTO  H207 6385   4.065   0.140   4.041
   15CHTO  H208 6386   4.128   0.154   4.205
   15CHTO   O74 6387   3.801   0.481   4.435
   15CHTO  C115 6388   3.821   0.617   4.389
   15CHTO  H219 6389   3.860   0.619   4.288
   15CHTO   O76 6390   3.697   0.690   4.384
   15CHTO  C122 6391   3.623   0.677   4.508
   15CHTO  H226 6392   3.581   0.577   4.511
   15CHTO  C126 6393   3.503   0.776   4.507
   15CHTO   O85 6394   3.543   0.914   4.509
   15CHTO  H206 6395   3.600   0.934   4.437
   15CHTO  C121 6396   3.715   0.699   4.632
   15CHTO  H225 6397   3.664   0.764   4.706
   15CHTO   O81 6398   3.742   0.571   4.692
   15CHTO  H202 6399   3.663   0.529   4.723
   15CHTO  C119 6400   3.847   0.767   4.587
   15CHTO  H223 6401   3.813   0.856   4.534
   15CHTO  C117 6402   3.924   0.685   4.482
   15CHTO  H221 6403   3.991   0.608   4.523
   15CHTO   N20 6404   4.010   0.773   4.401
   15CHTO  H209 6405   4.078   0.827   4.465
   15CHTO  H210 6406   3.952   0.842   4.342
   15CHTO   O80 6407   3.930   0.824   4.690
   15CHTO  C103 6408   3.955   0.746   4.810
   15CHTO  H190 6409   3.860   0.718   4.858
   15CHTO  C101 6410   4.043   0.618   4.795
   15CHTO  H188 6411   4.136   0.641   4.743
   15CHTO   O68 6412   3.972   0.514   4.726
   15CHTO  H168 6413   4.029   0.440   4.704
   15CHTO   C99 6414   4.079   0.567   4.939
   15CHTO  H186 6415   3.987   0.541   4.994
   15CHTO   N17 6416   4.167   0.449   4.938
   15CHTO  H174 6417   4.253   0.469   4.875
   15CHTO  H175 6418   4.115   0.361   4.904
   15CHTO   C97 6419   4.148   0.677   5.021
   15CHTO  H184 6420   4.240   0.707   4.968
   15CHTO   O64 6421   4.056   0.787   5.033
   15CHTO  C104 6422   4.027   0.845   4.905
   15CHTO  H191 6423   4.120   0.879   4.858
   15CHTO  C108 6424   3.941   0.969   4.925
   15CHTO   O71 6425   4.006   1.056   5.019
   15CHTO  H171 6426   3.952   1.132   5.036
   15CHTO   O62 6427   4.179   0.625   5.151
   15CHTO   C91 6428   4.286   0.694   5.218
   15CHTO  H178 6429   4.376   0.683   5.155
   15CHTO   C92 6430   4.315   0.620   5.348
   15CHTO  H179 6431   4.333   0.512   5.329
   15CHTO   O66 6432   4.435   0.672   5.405
   15CHTO  H166 6433   4.460   0.624   5.484
   15CHTO   C93 6434   4.199   0.637   5.450
   15CHTO  H180 6435   4.238   0.614   5.550
   15CHTO   N16 6436   4.088   0.544   5.423
   15CHTO  H172 6437   4.043   0.565   5.328
   15CHTO  H173 6438   4.015   0.552   5.502
   15CHTO   C94 6439   4.149   0.785   5.447
   15CHTO  H181 6440   4.059   0.796   5.387
   15CHTO   O61 6441   4.253   0.867   5.392
   15CHTO   C95 6442   4.264   0.844   5.250
   15CHTO  H182 6443   4.174   0.880   5.201
   15CHTO  C106 6444   4.382   0.930   5.197
   15CHTO   O69 6445   4.351   1.067   5.225
   15CHTO  H169 6446   4.418   1.125   5.188
   15CHTO   O63 6447   4.126   0.820   5.585
   15CHTO   C96 6448   4.060   0.946   5.602
   15CHTO  H183 6449   3.972   0.947   5.538
   15CHTO   C98 6450   4.147   1.069   5.566
   15CHTO  H185 6451   4.176   1.068   5.460
   15CHTO   O67 6452   4.067   1.185   5.586
   15CHTO  H167 6453   4.117   1.261   5.558
   15CHTO  C102 6454   4.273   1.075   5.658
   15CHTO  H189 6455   4.307   1.180   5.657
   15CHTO   N18 6456   4.386   0.994   5.609
   15CHTO  H176 6457   4.413   1.023   5.508
   15CHTO  H177 6458   4.365   0.888   5.611
   15CHTO  C105 6459   4.235   1.036   5.802
   15CHTO  H192 6460   4.263   0.931   5.820
   15CHTO   O65 6461   4.094   1.052   5.823
   15CHTO  C100 6462   4.016   0.956   5.750
   15CHTO  H187 6463   4.030   0.858   5.797
   15CHTO  C107 6464   3.867   0.994   5.762
   15CHTO   O70 6465   3.841   1.112   5.687
   15CHTO  H170 6466   3.749   1.134   5.685
   15CHTO   O57 6467   4.315   1.125   5.882
   15CHTO   C85 6468   4.289   1.123   6.023
   15CHTO  H157 6469   4.186   1.158   6.042
   15CHTO   C83 6470   4.385   1.225   6.087
   15CHTO  H155 6471   4.373   1.324   6.040
   15CHTO   O56 6472   4.520   1.181   6.062
   15CHTO  H135 6473   4.537   1.175   5.969
   15CHTO   C81 6474   4.358   1.236   6.237
   15CHTO  H153 6475   4.265   1.291   6.253
   15CHTO   N14 6476   4.467   1.312   6.302
   15CHTO  H141 6477   4.468   1.412   6.262
   15CHTO  H142 6478   4.563   1.265   6.284
   15CHTO   C79 6479   4.346   1.096   6.302
   15CHTO  H151 6480   4.239   1.078   6.319
   15CHTO   O52 6481   4.396   0.994   6.211
   15CHTO   C86 6482   4.317   0.985   6.090
   15CHTO  H158 6483   4.378   0.922   6.024
   15CHTO   C90 6484   4.187   0.908   6.115
   15CHTO   O60 6485   4.215   0.799   6.205
   15CHTO  H138 6486   4.135   0.751   6.223
   15CHTO   O50 6487   4.417   1.092   6.427
   15CHTO   C73 6488   4.412   0.965   6.494
   15CHTO  H145 6489   4.444   0.883   6.429
   15CHTO   C74 6490   4.272   0.934   6.551
   15CHTO  H146 6491   4.200   0.922   6.469
   15CHTO   O54 6492   4.276   0.810   6.623
   15CHTO  H133 6493   4.190   0.791   6.657
   15CHTO   C75 6494   4.232   1.050   6.646
   15CHTO  H147 6495   4.232   1.144   6.588
   15CHTO   N13 6496   4.098   1.026   6.703
   15CHTO  H139 6497   4.025   1.020   6.623
   15CHTO  H140 6498   4.072   1.108   6.768
   15CHTO   C76 6499   4.339   1.058   6.758
   15CHTO  H148 6500   4.334   0.963   6.814
   15CHTO   O49 6501   4.471   1.079   6.704
   15CHTO   C77 6502   4.511   0.976   6.613
   15CHTO  H149 6503   4.516   0.880   6.665
   15CHTO   C88 6504   4.653   1.006   6.561
   15CHTO   O58 6505   4.745   1.011   6.672
   15CHTO  H136 6506   4.835   1.024   6.643
   15CHTO   O51 6507   4.307   1.172   6.840
   15CHTO   C78 6508   4.396   1.189   6.952
   15CHTO  H150 6509   4.500   1.162   6.926
   15CHTO   C80 6510   4.350   1.104   7.072
   15CHTO  H152 6511   4.244   1.125   7.093
   15CHTO   O55 6512   4.367   0.964   7.041
   15CHTO  H134 6513   4.333   0.909   7.110
   15CHTO   C84 6514   4.437   1.137   7.195
   15CHTO  H156 6515   4.540   1.107   7.175
   15CHTO   N15 6516   4.388   1.063   7.312
   15CHTO  H143 6517   4.287   1.092   7.333
   15CHTO  H144 6518   4.450   1.087   7.397
   15CHTO   C87 6519   4.431   1.289   7.221
   15CHTO  H159 6520   4.328   1.318   7.245
   15CHTO   O53 6521   4.479   1.359   7.104
   15CHTO   C82 6522   4.394   1.337   6.991
   15CHTO  H154 6523   4.291   1.371   7.014
   15CHTO   C89 6524   4.443   1.423   6.872
   15CHTO   O59 6525   4.445   1.560   6.914
   15CHTO  H137 6526   4.477   1.613   6.843
   15CHTO   O45 6527   4.518   1.317   7.334
   15CHTO   C67 6528   4.549   1.457   7.344
   15CHTO  H124 6529   4.605   1.490   7.255
   15CHTO   C65 6530   4.420   1.541   7.355
   15CHTO  H122 6531   4.347   1.483   7.412
   15CHTO   O44 6532   4.375   1.566   7.220
   15CHTO  H102 6533   4.291   1.610   7.218
   15CHTO   C63 6534   4.448   1.670   7.436
   15CHTO  H120 6535   4.434   1.649   7.543
   15CHTO   N11 6536   4.354   1.780   7.407
   15CHTO  H108 6537   4.253   1.747   7.422
   15CHTO  H109 6538   4.364   1.814   7.304
   15CHTO   C61 6539   4.594   1.716   7.413
   15CHTO  H118 6540   4.607   1.811   7.468
   15CHTO   O40 6541   4.686   1.623   7.468
   15CHTO   C68 6542   4.640   1.486   7.465
   15CHTO  H125 6543   4.584   1.466   7.558
   15CHTO   C72 6544   4.764   1.392   7.467
   15CHTO   O48 6545   4.728   1.255   7.479
   15CHTO  H105 6546   4.806   1.201   7.484
   15CHTO   O38 6547   4.626   1.735   7.274
   15CHTO   C55 6548   4.742   1.818   7.260
   15CHTO  H112 6549   4.812   1.800   7.343
   15CHTO   C56 6550   4.704   1.969   7.248
   15CHTO  H113 6551   4.643   1.980   7.157
   15CHTO   O42 6552   4.624   2.014   7.358
   15CHTO  H100 6553   4.593   2.103   7.343
   15CHTO   C57 6554   4.833   2.054   7.237
   15CHTO  H114 6555   4.892   2.042   7.328
   15CHTO   N10 6556   4.800   2.197   7.218
   15CHTO  H106 6557   4.883   2.248   7.171
   15CHTO  H107 6558   4.777   2.243   7.311
   15CHTO   C58 6559   4.914   2.003   7.118
   15CHTO  H115 6560   4.859   2.026   7.024
   15CHTO   O37 6561   4.940   1.862   7.126
   15CHTO   C59 6562   4.819   1.785   7.130
   15CHTO  H116 6563   4.758   1.806   7.041
   15CHTO   C70 6564   4.863   1.638   7.131
   15CHTO   O46 6565   4.948   1.609   7.019
   15CHTO  H103 6566   4.969   1.517   7.019
   15CHTO   O39 6567   5.039   2.075   7.121
   15CHTO   C60 6568   5.139   2.024   7.032
   15CHTO  H117 6569   5.163   1.921   7.060
   15CHTO   C62 6570   5.095   2.029   6.884
   15CHTO  H119 6571   5.014   1.955   6.871
   15CHTO   O43 6572   5.046   2.160   6.855
   15CHTO  H101 6573   5.008   2.165   6.768
   15CHTO   C66 6574   5.217   1.990   6.797
   15CHTO  H123 6575   5.245   1.886   6.819
   15CHTO   N12 6576   5.185   1.997   6.654
   15CHTO  H110 6577   5.174   2.100   6.622
   15CHTO  H111 6578   5.096   1.940   6.633
   15CHTO   C69 6579   5.335   2.084   6.827
   15CHTO  H126 6580   5.305   2.189   6.807
   15CHTO   O41 6581   5.373   2.066   6.964
   15CHTO   C64 6582   5.267   2.108   7.053
   15CHTO  H121 6583   5.243   2.215   7.034
   15CHTO   C71 6584   5.315   2.095   7.199
   15CHTO   O47 6585   5.438   2.170   7.211
   15CHTO  H104 6586   5.470   2.165   7.300
   15CHTO   O34 6587   5.438   2.044   6.736
   15CHTO   C49 6588   5.540   2.144   6.710
   15CHTO   H91 6589   5.491   2.234   6.672
   15CHTO   C47 6590   5.632   2.082   6.605
   15CHTO   H89 6591   5.713   2.155   6.585
   15CHTO   O33 6592   5.563   2.054   6.481
   15CHTO   H70 6593   5.530   2.134   6.444
   15CHTO   C45 6594   5.689   1.949   6.661
   15CHTO   H87 6595   5.624   1.864   6.634
   15CHTO    N8 6596   5.821   1.926   6.602
   15CHTO   H75 6597   5.814   1.932   6.493
   15CHTO   H76 6598   5.860   1.829   6.629
   15CHTO   C43 6599   5.699   1.954   6.816
   15CHTO   H85 6600   5.602   1.925   6.857
   15CHTO   O29 6601   5.737   2.087   6.852
   15CHTO   C50 6602   5.627   2.178   6.833
   15CHTO   H92 6603   5.564   2.178   6.923
   15CHTO   C54 6604   5.680   2.323   6.825
   15CHTO   O36 6605   5.750   2.354   6.947
   15CHTO   H72 6606   5.782   2.443   6.944
   15CHTO   O27 6607   5.797   1.859   6.860
   15CHTO   C37 6608   5.829   1.866   7.000
   15CHTO   H79 6609   5.867   1.966   7.027
   15CHTO   C38 6610   5.705   1.837   7.088
   15CHTO   H80 6611   5.654   1.747   7.050
   15CHTO   O31 6612   5.617   1.949   7.083
   15CHTO   H68 6613   5.538   1.936   7.134
   15CHTO   C39 6614   5.746   1.819   7.236
   15CHTO   H81 6615   5.786   1.914   7.272
   15CHTO    N7 6616   5.629   1.783   7.318
   15CHTO   H73 6617   5.655   1.785   7.423
   15CHTO   H74 6618   5.591   1.686   7.291
   15CHTO   C40 6619   5.856   1.712   7.252
   15CHTO   H82 6620   5.818   1.614   7.218
   15CHTO   O26 6621   5.968   1.756   7.174
   15CHTO   C41 6622   5.937   1.761   7.032
   15CHTO   H83 6623   5.903   1.661   6.999
   15CHTO   C52 6624   6.069   1.794   6.960
   15CHTO   O35 6625   6.173   1.700   6.994
   15CHTO   H71 6626   6.250   1.714   6.940
   15CHTO   O28 6627   5.895   1.702   7.390
   15CHTO   C42 6628   5.993   1.602   7.421
   15CHTO   H84 6629   6.015   1.618   7.528
   15CHTO   C44 6630   6.128   1.615   7.348
   15CHTO   H86 6631   6.114   1.589   7.242
   15CHTO   O32 6632   6.178   1.748   7.359
   15CHTO   H69 6633   6.258   1.758   7.308
   15CHTO   C48 6634   6.226   1.512   7.410
   15CHTO   H90 6635   6.240   1.533   7.516
   15CHTO    N9 6636   6.360   1.523   7.345
   15CHTO   H77 6637   6.356   1.488   7.244
   15CHTO   H78 6638   6.434   1.468   7.402
   15CHTO   C51 6639   6.164   1.370   7.391
   15CHTO   H93 6640   6.153   1.352   7.284
   15CHTO   O30 6641   6.041   1.366   7.461
   15CHTO   C46 6642   5.943   1.456   7.406
   15CHTO   H88 6643   5.926   1.433   7.300
   15CHTO   C53 6644   5.815   1.434   7.489
   15CHTO   O72 6645   5.708   1.516   7.438
   15CHTO  H199 6646   5.629   1.503   7.487
   15CHTO   O22 6647   6.255   1.275   7.451
   15CHTO   C31 6648   6.220   1.134   7.435
   15CHTO   H59 6649   6.297   1.078   7.491
   15CHTO   C29 6650   6.084   1.092   7.491
   15CHTO   H57 6651   6.002   1.139   7.434
   15CHTO   O21 6652   6.068   1.135   7.627
   15CHTO   H37 6653   6.137   1.096   7.681
   15CHTO   C27 6654   6.072   0.939   7.481
   15CHTO   H55 6655   6.150   0.894   7.544
   15CHTO    N5 6656   5.940   0.895   7.529
   15CHTO   H43 6657   5.859   0.939   7.472
   15CHTO   H44 6658   5.926   0.917   7.634
   15CHTO   C25 6659   6.090   0.897   7.334
   15CHTO   H53 6660   6.009   0.943   7.275
   15CHTO   O17 6661   6.217   0.943   7.284
   15CHTO   C32 6662   6.230   1.085   7.288
   15CHTO   H60 6663   6.150   1.133   7.230
   15CHTO   C36 6664   6.366   1.121   7.227
   15CHTO   O25 6665   6.368   1.082   7.090
   15CHTO   H40 6666   6.450   1.108   7.049
   15CHTO   O15 6667   6.080   0.753   7.328
   15CHTO   C19 6668   6.082   0.699   7.194
   15CHTO   H47 6669   6.078   0.590   7.211
   15CHTO   C20 6670   5.961   0.736   7.107
   15CHTO   H48 6671   5.960   0.843   7.082
   15CHTO   O19 6672   5.842   0.702   7.178
   15CHTO   H35 6673   5.765   0.723   7.125
   15CHTO   C21 6674   5.969   0.656   6.975
   15CHTO   H49 6675   5.963   0.548   6.999
   15CHTO    N4 6676   5.857   0.689   6.887
   15CHTO   H41 6677   5.861   0.627   6.798
   15CHTO   H42 6678   5.862   0.794   6.858
   15CHTO   C22 6679   6.103   0.685   6.907
   15CHTO   H50 6680   6.107   0.792   6.884
   15CHTO   O14 6681   6.212   0.648   6.993
   15CHTO   C23 6682   6.213   0.724   7.115
   15CHTO   H51 6683   6.225   0.830   7.087
   15CHTO   C34 6684   6.335   0.678   7.196
   15CHTO   O23 6685   6.453   0.705   7.120
   15CHTO   H38 6686   6.531   0.672   7.164
   15CHTO   O16 6687   6.109   0.607   6.789
   15CHTO   C24 6688   6.214   0.649   6.701
   15CHTO   H52 6689   6.301   0.688   6.757
   15CHTO   C26 6690   6.163   0.756   6.604
   15CHTO   H54 6691   6.069   0.720   6.557
   15CHTO   O20 6692   6.137   0.881   6.670
   15CHTO   H36 6693   6.100   0.943   6.608
   15CHTO   C30 6694   6.267   0.779   6.493
   15CHTO   H58 6695   6.359   0.821   6.534
   15CHTO    N6 6696   6.214   0.876   6.394
   15CHTO   H45 6697   6.133   0.831   6.339
   15CHTO   H46 6698   6.294   0.900   6.325
   15CHTO   C33 6699   6.299   0.644   6.427
   15CHTO   H61 6700   6.208   0.599   6.385
   15CHTO   O18 6701   6.356   0.556   6.523
   15CHTO   C28 6702   6.261   0.523   6.627
   15CHTO   H56 6703   6.174   0.471   6.584
   15CHTO   C35 6704   6.334   0.427   6.725
   15CHTO   O24 6705   6.370   0.304   6.661
   15CHTO   H39 6706   6.411   0.248   6.724
   15CHTO    O9 6707   6.387   0.664   6.316
   15CHTO   C13 6708   6.442   0.542   6.263
   15CHTO   H26 6709   6.370   0.459   6.274
   15CHTO   C11 6710   6.576   0.513   6.338
   15CHTO   H24 6711   6.556   0.460   6.432
   15CHTO    O8 6712   6.633   0.641   6.368
   15CHTO    H3 6713   6.713   0.633   6.417
   15CHTO    C9 6714   6.667   0.429   6.249
   15CHTO   H22 6715   6.608   0.340   6.224
   15CHTO    N2 6716   6.788   0.381   6.320
   15CHTO   H10 6717   6.759   0.330   6.412
   15CHTO   H11 6718   6.856   0.462   6.342
   15CHTO    C7 6719   6.703   0.508   6.121
   15CHTO   H20 6720   6.704   0.432   6.042
   15CHTO    O4 6721   6.606   0.609   6.092
   15CHTO   C14 6722   6.472   0.563   6.112
   15CHTO   H27 6723   6.458   0.467   6.058
   15CHTO   C18 6724   6.375   0.664   6.050
   15CHTO   O13 6725   6.240   0.623   6.077
   15CHTO    H7 6726   6.178   0.684   6.039
   15CHTO    O2 6727   6.833   0.569   6.132
   15CHTO    C1 6728   6.871   0.649   6.017
   15CHTO   H14 6729   6.799   0.732   6.004
   15CHTO    C2 6730   6.881   0.567   5.885
   15CHTO   H15 6731   6.943   0.478   5.903
   15CHTO    O6 6732   6.751   0.530   5.838
   15CHTO    H1 6733   6.758   0.480   5.758
   15CHTO    C3 6734   6.943   0.656   5.774
   15CHTO   H16 6735   6.875   0.740   5.751
   15CHTO    N1 6736   6.960   0.578   5.651
   15CHTO    H8 6737   7.028   0.495   5.669
   15CHTO    H9 6738   7.000   0.639   5.571
   15CHTO    C4 6739   7.075   0.720   5.822
   15CHTO   H17 6740   7.151   0.641   5.834
   15CHTO    O1 6741   7.055   0.792   5.945
   15CHTO    C5 6742   7.009   0.709   6.051
   15CHTO   H18 6743   7.080   0.627   6.068
   15CHTO   C16 6744   7.003   0.797   6.178
   15CHTO   O11 6745   7.129   0.864   6.189
   15CHTO    H5 6746   7.131   0.917   6.269
   15CHTO    O3 6747   7.117   0.815   5.722
   15CHTO    C6 6748   7.240   0.882   5.755
   15CHTO   H19 6749   7.252   0.898   5.863
   15CHTO    C8 6750   7.361   0.805   5.699
   15CHTO   H21 6751   7.347   0.788   5.592
   15CHTO    O7 6752   7.376   0.680   5.769
   15CHTO    H2 6753   7.452   0.631   5.738
   15CHTO   C12 6754   7.489   0.889   5.722
   15CHTO   H25 6755   7.503   0.898   5.832
   15CHTO    N3 6756   7.604   0.815   5.667
   15CHTO   H12 6757   7.698   0.856   5.701
   15CHTO   H13 6758   7.600   0.813   5.559
   15CHTO   C15 6759   7.473   1.030   5.661
   15CHTO   H28 6760   7.464   1.025   5.552
   15CHTO   O10 6761   7.583   1.116   5.697
   15CHTO    H4 6762   7.664   1.086   5.658
   15CHTO    O5 6763   7.357   1.094   5.717
   15CHTO   C10 6764   7.238   1.021   5.687
   15CHTO   H23 6765   7.229   1.010   5.580
   15CHTO   C17 6766   7.118   1.104   5.737
   15CHTO   O12 6767   7.121   1.232   5.674
   15CHTO    H6 6768   7.050   1.287   5.706
   16CHTO  H203 6769   9.463   3.487  12.372
   16CHTO   O82 6770   9.386   3.506  12.424
   16CHTO  C123 6771   9.268   3.486  12.347
   16CHTO  H227 6772   9.264   3.381  12.313
   16CHTO   O77 6773   9.157   3.515  12.435
   16CHTO  C118 6774   9.031   3.489  12.372
   16CHTO  H222 6775   9.025   3.384  12.340
   16CHTO  C125 6776   8.915   3.517  12.472
   16CHTO   O84 6777   8.932   3.432  12.586
   16CHTO  H205 6778   8.867   3.450  12.652
   16CHTO  C114 6779   9.012   3.581  12.250
   16CHTO  H218 6780   9.008   3.685  12.285
   16CHTO  C116 6781   9.131   3.563  12.151
   16CHTO  H220 6782   9.128   3.463  12.105
   16CHTO   O79 6783   9.123   3.661  12.046
   16CHTO  H201 6784   9.196   3.653  11.986
   16CHTO  C120 6785   9.263   3.585  12.229
   16CHTO  H224 6786   9.263   3.690  12.265
   16CHTO   N21 6787   9.374   3.567  12.136
   16CHTO  H211 6788   9.389   3.462  12.116
   16CHTO  H212 6789   9.465   3.611  12.176
   16CHTO   O75 6790   8.887   3.541  12.195
   16CHTO  C112 6791   8.839   3.629  12.089
   16CHTO  H216 6792   8.904   3.620  12.000
   16CHTO   O73 6793   8.833   3.763  12.139
   16CHTO  C113 6794   8.779   3.853  12.043
   16CHTO  H217 6795   8.838   3.847  11.950
   16CHTO  C124 6796   8.792   3.996  12.098
   16CHTO   O83 6797   8.926   4.019  12.143
   16CHTO  H204 6798   8.933   4.107  12.181
   16CHTO  C109 6799   8.631   3.818  12.011
   16CHTO  H213 6800   8.575   3.821  12.107
   16CHTO  C110 6801   8.632   3.675  11.953
   16CHTO  H214 6802   8.689   3.673  11.859
   16CHTO   O78 6803   8.499   3.630  11.929
   16CHTO  H200 6804   8.499   3.541  11.896
   16CHTO  C111 6805   8.696   3.582  12.057
   16CHTO  H215 6806   8.635   3.583  12.149
   16CHTO   N19 6807   8.701   3.443  12.009
   16CHTO  H207 6808   8.736   3.379  12.088
   16CHTO  H208 6809   8.766   3.435  11.923
   16CHTO   O74 6810   8.572   3.914  11.919
   16CHTO  C115 6811   8.428   3.913  11.919
   16CHTO  H219 6812   8.389   3.824  11.968
   16CHTO   O76 6813   8.374   4.024  11.994
   16CHTO  C122 6814   8.434   4.148  11.953
   16CHTO  H226 6815   8.535   4.152  11.994
   16CHTO  C126 6816   8.356   4.267  12.018
   16CHTO   O85 6817   8.222   4.280  11.970
   16CHTO  H206 6818   8.173   4.200  11.981
   16CHTO  C121 6819   8.440   4.162  11.798
   16CHTO  H225 6820   8.409   4.264  11.768
   16CHTO   O81 6821   8.576   4.139  11.756
   16CHTO  H202 6822   8.635   4.204  11.792
   16CHTO  C119 6823   8.345   4.058  11.734
   16CHTO  H223 6824   8.249   4.078  11.782
   16CHTO  C117 6825   8.380   3.913  11.773
   16CHTO  H221 6826   8.456   3.864  11.710
   16CHTO   N20 6827   8.260   3.827  11.762
   16CHTO  H209 6828   8.221   3.831  11.662
   16CHTO  H210 6829   8.184   3.856  11.833
   16CHTO   O80 6830   8.313   4.075  11.595
   16CHTO  C103 6831   8.420   4.106  11.502
   16CHTO  H190 6832   8.474   4.196  11.533
   16CHTO  C101 6833   8.525   3.993  11.474
   16CHTO  H188 6834   8.475   3.899  11.448
   16CHTO   O68 6835   8.611   3.972  11.589
   16CHTO  H168 6836   8.666   3.894  11.578
   16CHTO   C99 6837   8.613   4.037  11.353
   16CHTO  H186 6838   8.667   4.131  11.377
   16CHTO   N17 6839   8.712   3.936  11.313
   16CHTO  H174 6840   8.663   3.840  11.300
   16CHTO  H175 6841   8.791   3.927  11.386
   16CHTO   C97 6842   8.527   4.068  11.230
   16CHTO  H184 6843   8.470   3.978  11.203
   16CHTO   O64 6844   8.439   4.176  11.265
   16CHTO  C104 6845   8.348   4.139  11.368
   16CHTO  H191 6846   8.289   4.053  11.337
   16CHTO  C108 6847   8.249   4.253  11.392
   16CHTO   O71 6848   8.188   4.287  11.266
   16CHTO  H171 6849   8.129   4.360  11.278
   16CHTO   O62 6850   8.612   4.108  11.122
   16CHTO   C91 6851   8.554   4.090  10.991
   16CHTO  H178 6852   8.533   3.982  10.979
   16CHTO   C92 6853   8.661   4.125  10.888
   16CHTO  H179 6854   8.754   4.067  10.907
   16CHTO   O66 6855   8.615   4.086  10.759
   16CHTO  H166 6856   8.681   4.100  10.692
   16CHTO   C93 6857   8.691   4.277  10.887
   16CHTO  H180 6858   8.740   4.302  10.791
   16CHTO   N16 6859   8.786   4.315  10.994
   16CHTO  H172 6860   8.742   4.297  11.091
   16CHTO  H173 6861   8.812   4.419  10.983
   16CHTO   C94 6862   8.559   4.357  10.899
   16CHTO  H181 6863   8.541   4.390  11.001
   16CHTO   O61 6864   8.450   4.271  10.859
   16CHTO   C95 6865   8.426   4.171  10.959
   16CHTO  H182 6866   8.388   4.219  11.049
   16CHTO  C106 6867   8.313   4.077  10.907
   16CHTO   O69 6868   8.197   4.159  10.886
   16CHTO  H169 6869   8.123   4.105  10.860
   16CHTO   O63 6870   8.572   4.467  10.807
   16CHTO   C96 6871   8.466   4.564  10.819
   16CHTO  H183 6872   8.457   4.592  10.924
   16CHTO   C98 6873   8.329   4.515  10.769
   16CHTO  H185 6874   8.292   4.430  10.829
   16CHTO   O67 6875   8.236   4.621  10.789
   16CHTO  H167 6876   8.149   4.591  10.766
   16CHTO  C102 6877   8.335   4.479  10.617
   16CHTO  H189 6878   8.232   4.485  10.580
   16CHTO   N18 6879   8.382   4.342  10.591
   16CHTO  H176 6880   8.319   4.270  10.644
   16CHTO  H177 6881   8.485   4.327  10.620
   16CHTO  C105 6882   8.422   4.582  10.543
   16CHTO  H192 6883   8.523   4.541  10.527
   16CHTO   O65 6884   8.432   4.704  10.618
   16CHTO  C100 6885   8.509   4.689  10.738
   16CHTO  H187 6886   8.615   4.677  10.709
   16CHTO  C107 6887   8.496   4.818  10.822
   16CHTO   O70 6888   8.365   4.827  10.876
   16CHTO  H170 6889   8.356   4.901  10.934
   16CHTO   O57 6890   8.353   4.598  10.417
   16CHTO   C85 6891   8.403   4.701  10.332
   16CHTO  H157 6892   8.389   4.800  10.380
   16CHTO   C83 6893   8.314   4.699  10.206
   16CHTO  H155 6894   8.208   4.710  10.233
   16CHTO   O56 6895   8.330   4.572  10.141
   16CHTO  H135 6896   8.304   4.501  10.199
   16CHTO   C81 6897   8.354   4.813  10.111
   16CHTO  H153 6898   8.320   4.908  10.152
   16CHTO   N14 6899   8.289   4.795   9.979
   16CHTO  H141 6900   8.182   4.799   9.993
   16CHTO  H142 6901   8.315   4.698   9.937
   16CHTO   C79 6902   8.507   4.818  10.093
   16CHTO  H151 6903   8.544   4.903  10.153
   16CHTO   O52 6904   8.569   4.696  10.142
   16CHTO   C86 6905   8.550   4.679  10.285
   16CHTO  H158 6906   8.581   4.575  10.303
   16CHTO   C90 6907   8.647   4.767  10.364
   16CHTO   O60 6908   8.773   4.767  10.296
   16CHTO  H138 6909   8.835   4.823  10.343
   16CHTO   O50 6910   8.542   4.840   9.955
   16CHTO   C73 6911   8.683   4.846   9.928
   16CHTO  H145 6912   8.735   4.758   9.968
   16CHTO   C74 6913   8.748   4.974   9.983
   16CHTO  H146 6914   8.743   4.975  10.093
   16CHTO   O54 6915   8.886   4.977   9.946
   16CHTO  H133 6916   8.926   5.055   9.982
   16CHTO   C75 6917   8.673   5.095   9.922
   16CHTO  H147 6918   8.567   5.090   9.950
   16CHTO   N13 6919   8.731   5.222   9.973
   16CHTO  H139 6920   8.721   5.226  10.080
   16CHTO  H140 6921   8.677   5.305   9.929
   16CHTO   C76 6922   8.687   5.086   9.768
   16CHTO  H148 6923   8.795   5.095   9.744
   16CHTO   O49 6924   8.634   4.962   9.717
   16CHTO   C77 6925   8.697   4.847   9.773
   16CHTO  H149 6926   8.802   4.846   9.747
   16CHTO   C88 6927   8.634   4.720   9.714
   16CHTO   O58 6928   8.652   4.720   9.570
   16CHTO  H136 6929   8.619   4.640   9.530
   16CHTO   O51 6930   8.609   5.194   9.711
   16CHTO   C78 6931   8.617   5.201   9.568
   16CHTO  H150 6932   8.621   5.100   9.522
   16CHTO   C80 6933   8.741   5.281   9.523
   16CHTO  H152 6934   8.741   5.379   9.574
   16CHTO   O55 6935   8.860   5.208   9.556
   16CHTO  H134 6936   8.938   5.258   9.536
   16CHTO   C84 6937   8.736   5.301   9.370
   16CHTO  H156 6938   8.745   5.204   9.321
   16CHTO   N15 6939   8.849   5.384   9.327
   16CHTO  H143 6940   8.842   5.481   9.374
   16CHTO  H144 6941   8.845   5.397   9.220
   16CHTO   C87 6942   8.602   5.366   9.331
   16CHTO  H159 6943   8.597   5.466   9.377
   16CHTO   O53 6944   8.495   5.282   9.375
   16CHTO   C82 6945   8.490   5.271   9.517
   16CHTO  H154 6946   8.479   5.370   9.563
   16CHTO   C89 6947   8.366   5.188   9.559
   16CHTO   O59 6948   8.250   5.253   9.506
   16CHTO  H137 6949   8.173   5.203   9.529
   16CHTO   O45 6950   8.600   5.378   9.187
   16CHTO   C67 6951   8.467   5.403   9.137
   16CHTO  H124 6952   8.402   5.319   9.160
   16CHTO   C65 6953   8.408   5.531   9.201
   16CHTO  H122 6954   8.490   5.602   9.216
   16CHTO   O44 6955   8.349   5.491   9.326
   16CHTO  H102 6956   8.318   5.565   9.377
   16CHTO   C63 6957   8.309   5.598   9.103
   16CHTO  H120 6958   8.364   5.666   9.037
   16CHTO   N11 6959   8.209   5.683   9.170
   16CHTO  H108 6960   8.258   5.757   9.230
   16CHTO  H109 6961   8.143   5.624   9.233
   16CHTO   C61 6962   8.240   5.490   9.016
   16CHTO  H118 6963   8.166   5.543   8.953
   16CHTO   O40 6964   8.333   5.427   8.930
   16CHTO   C68 6965   8.467   5.418   8.983
   16CHTO  H125 6966   8.522   5.509   8.955
   16CHTO   C72 6967   8.539   5.299   8.915
   16CHTO   O48 6968   8.677   5.291   8.950
   16CHTO  H105 6969   8.719   5.220   8.904
   16CHTO   O38 6970   8.174   5.388   9.095
   16CHTO   C55 6971   8.077   5.319   9.016
   16CHTO  H112 6972   8.111   5.312   8.911
   16CHTO   C56 6973   7.936   5.385   9.026
   16CHTO  H113 6974   7.905   5.380   9.132
   16CHTO   O42 6975   7.938   5.525   8.991
   16CHTO  H100 6976   7.854   5.566   9.009
   16CHTO   C57 6977   7.836   5.309   8.937
   16CHTO  H114 6978   7.868   5.317   8.832
   16CHTO   N10 6979   7.700   5.365   8.950
   16CHTO  H106 6980   7.626   5.292   8.922
   16CHTO  H107 6981   7.689   5.453   8.890
   16CHTO   C58 6982   7.836   5.162   8.978
   16CHTO  H115 6983   7.792   5.153   9.080
   16CHTO   O37 6984   7.968   5.105   8.977
   16CHTO   C59 6985   8.057   5.174   9.066
   16CHTO  H116 6986   8.018   5.172   9.168
   16CHTO   C70 6987   8.191   5.098   9.059
   16CHTO   O46 6988   8.172   4.959   9.089
   16CHTO  H103 6989   8.255   4.915   9.090
   16CHTO   O39 6990   7.753   5.093   8.883
   16CHTO   C60 6991   7.760   4.951   8.890
   16CHTO  H117 6992   7.863   4.918   8.869
   16CHTO   C62 6993   7.715   4.896   9.026
   16CHTO  H119 6994   7.791   4.925   9.101
   16CHTO   O43 6995   7.589   4.954   9.060
   16CHTO  H101 6996   7.562   4.931   9.149
   16CHTO   C66 6997   7.709   4.741   9.017
   16CHTO  H123 6998   7.810   4.702   8.997
   16CHTO   N12 6999   7.662   4.682   9.142
   16CHTO  H110 7000   7.556   4.701   9.156
   16CHTO  H111 7001   7.720   4.718   9.224
   16CHTO   C69 7002   7.615   4.701   8.902
   16CHTO  H126 7003   7.514   4.742   8.920
   16CHTO   O41 7004   7.670   4.749   8.779
   16CHTO   C64 7005   7.672   4.893   8.777
   16CHTO  H121 7006   7.568   4.932   8.790
   16CHTO   C71 7007   7.723   4.942   8.640
   16CHTO   O47 7008   7.641   4.881   8.539
   16CHTO  H104 7009   7.669   4.909   8.452
   16CHTO   O34 7010   7.611   4.557   8.907
   16CHTO   C49 7011   7.495   4.497   8.843
   16CHTO   H91 7012   7.405   4.537   8.890
   16CHTO   C47 7013   7.508   4.347   8.870
   16CHTO   H89 7014   7.423   4.297   8.819
   16CHTO   O33 7015   7.505   4.314   9.010
   16CHTO   H70 7016   7.422   4.341   9.047
   16CHTO   C45 7017   7.644   4.298   8.812
   16CHTO   H87 7018   7.723   4.305   8.887
   16CHTO    N8 7019   7.630   4.157   8.771
   16CHTO   H75 7020   7.591   4.100   8.855
   16CHTO   H76 7021   7.725   4.116   8.740
   16CHTO   C43 7022   7.686   4.385   8.690
   16CHTO   H85 7023   7.739   4.472   8.728
   16CHTO   O29 7024   7.568   4.419   8.618
   16CHTO   C50 7025   7.490   4.516   8.690
   16CHTO   H92 7026   7.527   4.617   8.666
   16CHTO   C54 7027   7.344   4.515   8.639
   16CHTO   O36 7028   7.344   4.546   8.498
   16CHTO   H72 7029   7.255   4.548   8.466
   16CHTO   O27 7030   7.776   4.310   8.607
   16CHTO   C37 7031   7.810   4.373   8.482
   16CHTO   H79 7032   7.720   4.392   8.422
   16CHTO   C38 7033   7.880   4.509   8.504
   16CHTO   H80 7034   7.961   4.497   8.579
   16CHTO   O31 7035   7.785   4.605   8.549
   16CHTO   H68 7036   7.824   4.690   8.564
   16CHTO   C39 7037   7.939   4.562   8.371
   16CHTO   H81 7038   7.855   4.583   8.303
   16CHTO    N7 7039   8.013   4.688   8.393
   16CHTO   H73 7040   8.041   4.731   8.299
   16CHTO   H74 7041   8.101   4.670   8.453
   16CHTO   C40 7042   8.030   4.458   8.303
   16CHTO   H82 7043   8.117   4.436   8.368
   16CHTO   O26 7044   7.950   4.341   8.280
   16CHTO   C41 7045   7.905   4.281   8.404
   16CHTO   H83 7046   7.993   4.256   8.466
   16CHTO   C52 7047   7.834   4.150   8.364
   16CHTO   O35 7048   7.920   4.065   8.285
   16CHTO   H71 7049   7.880   3.980   8.271
   16CHTO   O28 7050   8.077   4.509   8.177
   16CHTO   C42 7051   8.169   4.425   8.105
   16CHTO   H84 7052   8.185   4.477   8.009
   16CHTO   C44 7053   8.117   4.285   8.068
   16CHTO   H86 7054   8.109   4.224   8.158
   16CHTO   O32 7055   7.988   4.295   8.006
   16CHTO   H69 7056   7.952   4.208   7.990
   16CHTO   C48 7057   8.220   4.218   7.973
   16CHTO   H90 7058   8.232   4.279   7.883
   16CHTO    N9 7059   8.172   4.084   7.930
   16CHTO   H77 7060   8.174   4.015   8.013
   16CHTO   H78 7061   8.232   4.047   7.848
   16CHTO   C51 7062   8.356   4.210   8.049
   16CHTO   H93 7063   8.341   4.149   8.139
   16CHTO   O30 7064   8.397   4.342   8.080
   16CHTO   C46 7065   8.308   4.409   8.171
   16CHTO   H88 7066   8.299   4.351   8.264
   16CHTO   C53 7067   8.371   4.548   8.198
   16CHTO   O72 7068   8.292   4.620   8.294
   16CHTO  H199 7069   8.330   4.705   8.312
   16CHTO   O22 7070   8.452   4.151   7.960
   16CHTO   C31 7071   8.584   4.124   8.016
   16CHTO   H59 7072   8.644   4.084   7.933
   16CHTO   C29 7073   8.659   4.247   8.072
   16CHTO   H57 7074   8.607   4.286   8.161
   16CHTO   O21 7075   8.663   4.352   7.976
   16CHTO   H37 7076   8.708   4.322   7.897
   16CHTO   C27 7077   8.801   4.203   8.111
   16CHTO   H55 7078   8.854   4.169   8.020
   16CHTO    N5 7079   8.875   4.316   8.170
   16CHTO   H43 7080   8.826   4.355   8.258
   16CHTO   H44 7081   8.888   4.396   8.098
   16CHTO   C25 7082   8.792   4.089   8.213
   16CHTO   H53 7083   8.742   4.127   8.303
   16CHTO   O17 7084   8.717   3.978   8.160
   16CHTO   C32 7085   8.583   4.014   8.126
   16CHTO   H60 7086   8.530   4.053   8.214
   16CHTO   C36 7087   8.512   3.887   8.075
   16CHTO   O25 7088   8.506   3.792   8.181
   16CHTO   H40 7089   8.459   3.714   8.153
   16CHTO   O15 7090   8.927   4.049   8.246
   16CHTO   C19 7091   8.936   3.950   8.352
   16CHTO   H47 7092   9.045   3.931   8.359
   16CHTO   C20 7093   8.889   3.998   8.490
   16CHTO   H48 7094   8.781   4.017   8.492
   16CHTO   O19 7095   8.959   4.119   8.522
   16CHTO   H35 7096   8.933   4.151   8.608
   16CHTO   C21 7097   8.923   3.890   8.594
   16CHTO   H49 7098   9.032   3.876   8.598
   16CHTO    N4 7099   8.878   3.929   8.728
   16CHTO   H41 7100   8.908   3.854   8.800
   16CHTO   H42 7101   8.770   3.939   8.730
   16CHTO   C22 7102   8.856   3.758   8.551
   16CHTO   H50 7103   8.748   3.773   8.549
   16CHTO   O14 7104   8.905   3.718   8.422
   16CHTO   C23 7105   8.871   3.813   8.320
   16CHTO   H51 7106   8.761   3.820   8.316
   16CHTO   C34 7107   8.923   3.758   8.187
   16CHTO   O23 7108   8.859   3.633   8.161
   16CHTO   H38 7109   8.894   3.592   8.082
   16CHTO   O16 7110   8.893   3.659   8.646
   16CHTO   C24 7111   8.812   3.541   8.635
   16CHTO   H52 7112   8.782   3.522   8.531
   16CHTO   C26 7113   8.687   3.553   8.724
   16CHTO   H54 7114   8.718   3.583   8.826
   16CHTO   O20 7115   8.593   3.650   8.673
   16CHTO   H36 7116   8.520   3.659   8.734
   16CHTO   C30 7117   8.617   3.417   8.733
   16CHTO   H58 7118   8.579   3.386   8.636
   16CHTO    N6 7119   8.502   3.425   8.826
   16CHTO   H45 7120   8.538   3.438   8.926
   16CHTO   H46 7121   8.448   3.332   8.820
   16CHTO   C33 7122   8.719   3.312   8.781
   16CHTO   H61 7123   8.761   3.340   8.879
   16CHTO   O18 7124   8.825   3.302   8.687
   16CHTO   C28 7125   8.901   3.424   8.678
   16CHTO   H56 7126   8.948   3.447   8.775
   16CHTO   C35 7127   9.012   3.400   8.573
   16CHTO   O24 7128   9.103   3.298   8.615
   16CHTO   H39 7129   9.171   3.288   8.550
   16CHTO    O9 7130   8.654   3.186   8.802
   16CHTO   C13 7131   8.746   3.077   8.823
   16CHTO   H26 7132   8.836   3.112   8.875
   16CHTO   C11 7133   8.779   3.015   8.684
   16CHTO   H24 7134   8.862   3.070   8.636
   16CHTO    O8 7135   8.661   3.029   8.605
   16CHTO    H3 7136   8.673   2.997   8.517
   16CHTO    C9 7137   8.819   2.868   8.702
   16CHTO   H22 7138   8.902   2.869   8.773
   16CHTO    N2 7139   8.870   2.807   8.578
   16CHTO   H10 7140   8.951   2.868   8.537
   16CHTO   H11 7141   8.792   2.794   8.504
   16CHTO    C7 7142   8.699   2.788   8.760
   16CHTO   H20 7143   8.746   2.717   8.830
   16CHTO    O4 7144   8.608   2.873   8.830
   16CHTO   C14 7145   8.675   2.970   8.911
   16CHTO   H27 7146   8.750   2.919   8.975
   16CHTO   C18 7147   8.572   3.036   9.005
   16CHTO   O13 7148   8.637   3.139   9.081
   16CHTO    H7 7149   8.576   3.181   9.141
   16CHTO    O2 7150   8.628   2.717   8.657
   16CHTO    C1 7151   8.513   2.644   8.704
   16CHTO   H14 7152   8.440   2.714   8.749
   16CHTO    C2 7153   8.547   2.533   8.807
   16CHTO   H15 7154   8.629   2.471   8.767
   16CHTO    O6 7155   8.584   2.589   8.934
   16CHTO    H1 7156   8.605   2.521   8.996
   16CHTO    C3 7157   8.421   2.446   8.835
   16CHTO   H16 7158   8.343   2.508   8.883
   16CHTO    N1 7159   8.454   2.336   8.926
   16CHTO    H8 7160   8.528   2.272   8.880
   16CHTO    H9 7161   8.366   2.277   8.949
   16CHTO    C4 7162   8.358   2.397   8.702
   16CHTO   H17 7163   8.427   2.324   8.655
   16CHTO    O1 7164   8.332   2.507   8.614
   16CHTO    C5 7165   8.449   2.580   8.579
   16CHTO   H18 7166   8.522   2.513   8.533
   16CHTO   C16 7167   8.406   2.687   8.476
   16CHTO   O11 7168   8.331   2.621   8.374
   16CHTO    H5 7169   8.306   2.684   8.307
   16CHTO    O3 7170   8.233   2.335   8.733
   16CHTO    C6 7171   8.164   2.283   8.618
   16CHTO   H19 7172   8.180   2.344   8.527
   16CHTO    C8 7173   8.203   2.137   8.590
   16CHTO   H21 7174   8.187   2.078   8.682
   16CHTO    O7 7175   8.340   2.131   8.549
   16CHTO    H2 7176   8.367   2.041   8.529
   16CHTO   C12 7177   8.115   2.082   8.477
   16CHTO   H25 7178   8.139   2.140   8.385
   16CHTO    N3 7179   8.152   1.941   8.453
   16CHTO   H12 7180   8.112   1.905   8.359
   16CHTO   H13 7181   8.120   1.879   8.534
   16CHTO   C15 7182   7.965   2.099   8.511
   16CHTO   H28 7183   7.937   2.039   8.597
   16CHTO   O10 7184   7.881   2.066   8.398
   16CHTO    H4 7185   7.887   1.973   8.377
   16CHTO    O5 7186   7.937   2.238   8.535
   16CHTO   C10 7187   8.012   2.286   8.647
   16CHTO   H23 7188   7.990   2.225   8.734
   16CHTO   C17 7189   7.965   2.430   8.677
   16CHTO   O12 7190   7.824   2.428   8.701
   16CHTO    H6 7191   7.791   2.517   8.717
   17CHTO  H203 7192   8.149   8.489   4.243
   17CHTO   O82 7193   8.106   8.420   4.293
   17CHTO  C123 7194   8.118   8.295   4.226
   17CHTO  H227 7195   8.225   8.270   4.215
   17CHTO   O77 7196   8.051   8.197   4.309
   17CHTO  C118 7197   8.065   8.065   4.257
   17CHTO  H222 7198   8.172   8.038   4.248
   17CHTO  C125 7199   7.997   7.963   4.353
   17CHTO   O84 7200   8.059   7.973   4.481
   17CHTO  H205 7201   8.016   7.916   4.544
   17CHTO  C114 7202   7.998   8.054   4.119
   17CHTO  H218 7203   7.890   8.071   4.131
   17CHTO  C116 7204   8.057   8.160   4.022
   17CHTO  H220 7205   8.162   8.137   3.999
   17CHTO   O79 7206   7.982   8.163   3.900
   17CHTO  H201 7207   8.016   8.229   3.841
   17CHTO  C120 7208   8.045   8.299   4.090
   17CHTO  H224 7209   7.937   8.321   4.103
   17CHTO   N21 7210   8.102   8.399   3.999
   17CHTO  H211 7211   8.210   8.393   4.001
   17CHTO  H212 7212   8.069   8.498   4.026
   17CHTO   O75 7213   8.023   7.920   4.078
   17CHTO  C112 7214   7.952   7.881   3.957
   17CHTO  H216 7215   7.990   7.937   3.871
   17CHTO   O73 7216   7.811   7.903   3.979
   17CHTO  C113 7217   7.733   7.859   3.868
   17CHTO  H217 7218   7.769   7.909   3.776
   17CHTO  C124 7219   7.588   7.900   3.891
   17CHTO   O83 7220   7.581   8.040   3.926
   17CHTO  H204 7221   7.491   8.064   3.945
   17CHTO  C109 7222   7.746   7.705   3.848
   17CHTO  H213 7223   7.713   7.658   3.943
   17CHTO  C110 7224   7.895   7.677   3.822
   17CHTO  H214 7225   7.927   7.725   3.729
   17CHTO   O78 7226   7.918   7.536   3.812
   17CHTO  H200 7227   8.010   7.518   3.798
   17CHTO  C111 7228   7.976   7.730   3.941
   17CHTO  H215 7229   7.945   7.677   4.033
   17CHTO   N19 7230   8.120   7.707   3.923
   17CHTO  H207 7231   8.172   7.736   4.012
   17CHTO  H208 7232   8.157   7.764   3.839
   17CHTO   O74 7233   7.661   7.658   3.741
   17CHTO  C115 7234   7.635   7.516   3.746
   17CHTO  H219 7235   7.703   7.465   3.813
   17CHTO   O76 7236   7.503   7.488   3.797
   17CHTO  C122 7237   7.402   7.566   3.730
   17CHTO  H226 7238   7.410   7.669   3.766
   17CHTO  C126 7239   7.261   7.516   3.771
   17CHTO   O85 7240   7.233   7.383   3.725
   17CHTO  H206 7241   7.298   7.321   3.755
   17CHTO  C121 7242   7.422   7.564   3.575
   17CHTO  H225 7243   7.324   7.549   3.525
   17CHTO   O81 7244   7.477   7.690   3.534
   17CHTO  H202 7245   7.419   7.762   3.554
   17CHTO  C119 7246   7.516   7.447   3.537
   17CHTO  H223 7247   7.470   7.360   3.583
   17CHTO  C117 7248   7.655   7.458   3.604
   17CHTO  H221 7249   7.728   7.520   3.551
   17CHTO   N20 7250   7.717   7.325   3.616
   17CHTO  H209 7251   7.726   7.280   3.518
   17CHTO  H210 7252   7.661   7.261   3.681
   17CHTO   O80 7253   7.522   7.409   3.398
   17CHTO  C103 7254   7.531   7.513   3.298
   17CHTO  H190 7255   7.448   7.585   3.308
   17CHTO  C101 7256   7.664   7.594   3.291
   17CHTO  H188 7257   7.751   7.526   3.286
   17CHTO   O68 7258   7.678   7.683   3.404
   17CHTO  H168 7259   7.765   7.722   3.408
   17CHTO   C99 7260   7.663   7.680   3.160
   17CHTO  H186 7261   7.578   7.751   3.163
   17CHTO   N17 7262   7.787   7.756   3.139
   17CHTO  H174 7263   7.872   7.690   3.148
   17CHTO  H175 7264   7.795   7.838   3.210
   17CHTO   C97 7265   7.641   7.592   3.036
   17CHTO  H184 7266   7.723   7.519   3.031
   17CHTO   O64 7267   7.514   7.528   3.051
   17CHTO  C104 7268   7.512   7.439   3.163
   17CHTO  H191 7269   7.590   7.364   3.152
   17CHTO  C108 7270   7.379   7.363   3.165
   17CHTO   O71 7271   7.360   7.301   3.037
   17CHTO  H171 7272   7.276   7.257   3.035
   17CHTO   O62 7273   7.640   7.675   2.920
   17CHTO   C91 7274   7.673   7.606   2.798
   17CHTO  H178 7275   7.775   7.565   2.809
   17CHTO   C92 7276   7.680   7.710   2.686
   17CHTO  H179 7277   7.750   7.792   2.713
   17CHTO   O66 7278   7.735   7.648   2.569
   17CHTO  H166 7279   7.747   7.711   2.499
   17CHTO   C93 7280   7.540   7.766   2.652
   17CHTO  H180 7281   7.544   7.812   2.552
   17CHTO   N16 7282   7.500   7.873   2.746
   17CHTO  H172 7283   7.489   7.834   2.845
   17CHTO  H173 7284   7.407   7.917   2.712
   17CHTO   C94 7285   7.436   7.651   2.652
   17CHTO  H181 7286   7.380   7.647   2.744
   17CHTO   O61 7287   7.506   7.527   2.634
   17CHTO   C95 7288   7.578   7.492   2.753
   17CHTO  H182 7289   7.506   7.470   2.833
   17CHTO  C106 7290   7.657   7.361   2.726
   17CHTO   O69 7291   7.560   7.261   2.692
   17CHTO  H169 7292   7.604   7.176   2.680
   17CHTO   O63 7293   7.350   7.677   2.538
   17CHTO   C96 7294   7.235   7.592   2.533
   17CHTO  H183 7295   7.186   7.595   2.631
   17CHTO   C98 7296   7.266   7.445   2.499
   17CHTO  H185 7297   7.329   7.398   2.576
   17CHTO   O67 7298   7.142   7.373   2.499
   17CHTO  H167 7299   7.160   7.281   2.486
   17CHTO  C102 7300   7.332   7.434   2.358
   17CHTO  H189 7301   7.315   7.331   2.324
   17CHTO   N18 7302   7.478   7.453   2.359
   17CHTO  H176 7303   7.525   7.383   2.428
   17CHTO  H177 7304   7.507   7.554   2.387
   17CHTO  C105 7305   7.265   7.532   2.261
   17CHTO  H192 7306   7.326   7.622   2.251
   17CHTO   O65 7307   7.134   7.569   2.308
   17CHTO  C100 7308   7.139   7.650   2.426
   17CHTO  H187 7309   7.176   7.750   2.397
   17CHTO  C107 7310   6.996   7.666   2.482
   17CHTO   O70 7311   6.952   7.543   2.537
   17CHTO  H170 7312   6.867   7.551   2.579
   17CHTO   O57 7313   7.261   7.458   2.137
   17CHTO   C85 7314   7.188   7.519   2.030
   17CHTO  H157 7315   7.081   7.526   2.057
   17CHTO   C83 7316   7.199   7.423   1.910
   17CHTO  H155 7317   7.163   7.322   1.938
   17CHTO   O56 7318   7.337   7.411   1.873
   17CHTO  H135 7319   7.389   7.377   1.945
   17CHTO   C81 7320   7.116   7.475   1.792
   17CHTO  H153 7321   7.009   7.462   1.814
   17CHTO   N14 7322   7.147   7.399   1.670
   17CHTO  H141 7323   7.120   7.296   1.686
   17CHTO  H142 7324   7.253   7.405   1.648
   17CHTO   C79 7325   7.143   7.626   1.769
   17CHTO  H151 7326   7.057   7.681   1.809
   17CHTO   O52 7327   7.262   7.668   1.840
   17CHTO   C86 7328   7.246   7.656   1.984
   17CHTO  H158 7329   7.349   7.669   2.023
   17CHTO   C90 7330   7.164   7.773   2.040
   17CHTO   O60 7331   7.201   7.892   1.970
   17CHTO  H138 7332   7.150   7.966   2.002
   17CHTO   O50 7333   7.156   7.654   1.629
   17CHTO   C73 7334   7.182   7.791   1.596
   17CHTO  H145 7335   7.268   7.830   1.652
   17CHTO   C74 7336   7.060   7.882   1.621
   17CHTO  H146 7337   7.037   7.885   1.729
   17CHTO   O54 7338   7.091   8.015   1.580
   17CHTO  H133 7339   7.016   8.071   1.597
   17CHTO   C75 7340   6.942   7.826   1.539
   17CHTO  H147 7341   6.921   7.722   1.571
   17CHTO   N13 7342   6.821   7.908   1.560
   17CHTO  H139 7343   6.793   7.907   1.664
   17CHTO  H140 7344   6.739   7.868   1.502
   17CHTO   C76 7345   6.984   7.827   1.390
   17CHTO  H148 7346   7.000   7.932   1.361
   17CHTO   O49 7347   7.103   7.749   1.368
   17CHTO   C77 7348   7.214   7.794   1.444
   17CHTO  H149 7349   7.241   7.896   1.415
   17CHTO   C88 7350   7.337   7.706   1.415
   17CHTO   O58 7351   7.369   7.713   1.274
   17CHTO  H136 7352   7.447   7.664   1.252
   17CHTO   O51 7353   6.877   7.765   1.314
   17CHTO   C78 7354   6.901   7.764   1.172
   17CHTO  H150 7355   7.007   7.747   1.149
   17CHTO   C80 7356   6.856   7.897   1.107
   17CHTO  H152 7357   6.751   7.918   1.137
   17CHTO   O55 7358   6.942   8.003   1.151
   17CHTO  H134 7359   6.912   8.087   1.118
   17CHTO   C84 7360   6.866   7.885   0.954
   17CHTO  H156 7361   6.971   7.873   0.926
   17CHTO   N15 7362   6.815   8.008   0.891
   17CHTO  H143 7363   6.712   8.021   0.917
   17CHTO  H144 7364   6.824   7.999   0.784
   17CHTO   C87 7365   6.786   7.763   0.906
   17CHTO  H159 7366   6.679   7.778   0.931
   17CHTO   O53 7367   6.837   7.645   0.970
   17CHTO   C82 7368   6.819   7.648   1.112
   17CHTO  H154 7369   6.713   7.659   1.137
   17CHTO   C89 7370   6.867   7.515   1.174
   17CHTO   O59 7371   6.793   7.408   1.113
   17CHTO  H137 7372   6.823   7.326   1.148
   17CHTO   O45 7373   6.802   7.752   0.763
   17CHTO   C67 7374   6.763   7.623   0.714
   17CHTO  H124 7375   6.827   7.545   0.756
   17CHTO   C65 7376   6.617   7.592   0.751
   17CHTO  H122 7377   6.561   7.686   0.749
   17CHTO   O44 7378   6.619   7.536   0.884
   17CHTO  H102 7379   6.531   7.522   0.919
   17CHTO   C63 7380   6.553   7.500   0.645
   17CHTO  H120 7381   6.511   7.561   0.564
   17CHTO   N11 7382   6.439   7.421   0.696
   17CHTO  H108 7383   6.365   7.487   0.738
   17CHTO  H109 7384   6.471   7.350   0.772
   17CHTO   C61 7385   6.661   7.406   0.585
   17CHTO  H118 7386   6.609   7.339   0.515
   17CHTO   O40 7387   6.757   7.481   0.511
   17CHTO   C68 7388   6.780   7.614   0.560
   17CHTO  H125 7389   6.708   7.682   0.512
   17CHTO   C72 7390   6.922   7.659   0.516
   17CHTO   O48 7391   6.948   7.796   0.547
   17CHTO  H105 7392   7.033   7.821   0.516
   17CHTO   O38 7393   6.731   7.329   0.685
   17CHTO   C55 7394   6.795   7.216   0.625
   17CHTO  H112 7395   6.829   7.241   0.524
   17CHTO   C56 7396   6.702   7.090   0.627
   17CHTO  H113 7397   6.681   7.066   0.732
   17CHTO   O42 7398   6.576   7.115   0.563
   17CHTO  H100 7399   6.517   7.041   0.575
   17CHTO   C57 7400   6.775   6.973   0.558
   17CHTO  H114 7401   6.794   6.998   0.453
   17CHTO   N10 7402   6.693   6.849   0.564
   17CHTO  H106 7403   6.755   6.762   0.554
   17CHTO  H107 7404   6.618   6.850   0.487
   17CHTO   C58 7405   6.908   6.949   0.630
   17CHTO  H115 7406   6.888   6.911   0.732
   17CHTO   O37 7407   6.988   7.068   0.635
   17CHTO   C59 7408   6.921   7.175   0.705
   17CHTO  H116 7409   6.895   7.143   0.807
   17CHTO   C70 7410   7.020   7.291   0.710
   17CHTO   O46 7411   7.144   7.250   0.770
   17CHTO  H103 7412   7.202   7.324   0.776
   17CHTO   O39 7413   6.977   6.849   0.553
   17CHTO   C60 7414   7.115   6.831   0.590
   17CHTO  H117 7415   7.169   6.924   0.573
   17CHTO   C62 7416   7.132   6.787   0.736
   17CHTO  H119 7417   7.103   6.872   0.800
   17CHTO   O43 7418   7.045   6.675   0.761
   17CHTO  H101 7419   7.045   6.651   0.853
   17CHTO   C66 7420   7.281   6.752   0.759
   17CHTO  H123 7421   7.341   6.843   0.745
   17CHTO   N12 7422   7.305   6.704   0.895
   17CHTO  H110 7423   7.263   6.605   0.909
   17CHTO  H111 7424   7.264   6.774   0.967
   17CHTO   C69 7425   7.325   6.644   0.658
   17CHTO  H126 7426   7.263   6.554   0.671
   17CHTO   O41 7427   7.314   6.699   0.526
   17CHTO   C64 7428   7.175   6.726   0.494
   17CHTO  H121 7429   7.116   6.632   0.502
   17CHTO   C71 7430   7.166   6.775   0.348
   17CHTO   O47 7431   7.229   6.677   0.265
   17CHTO  H104 7432   7.224   6.703   0.174
   17CHTO   O34 7433   7.462   6.615   0.694
   17CHTO   C49 7434   7.510   6.487   0.648
   17CHTO   H91 7435   7.445   6.409   0.687
   17CHTO   C47 7436   7.652   6.475   0.704
   17CHTO   H89 7437   7.694   6.379   0.668
   17CHTO   O33 7438   7.655   6.476   0.849
   17CHTO   H70 7439   7.606   6.402   0.882
   17CHTO   C45 7440   7.736   6.596   0.653
   17CHTO   H87 7441   7.730   6.680   0.723
   17CHTO    N8 7442   7.877   6.554   0.644
   17CHTO   H75 7443   7.908   6.511   0.738
   17CHTO   H76 7444   7.940   6.637   0.619
   17CHTO   C43 7445   7.685   6.644   0.515
   17CHTO   H85 7446   7.603   6.714   0.532
   17CHTO   O29 7447   7.644   6.528   0.441
   17CHTO   C50 7448   7.522   6.474   0.494
   17CHTO   H92 7449   7.436   6.527   0.448
   17CHTO   C54 7450   7.505   6.328   0.449
   17CHTO   O36 7451   7.503   6.323   0.305
   17CHTO   H72 7452   7.491   6.234   0.276
   17CHTO   O27 7453   7.790   6.713   0.447
   17CHTO   C37 7454   7.760   6.749   0.310
   17CHTO   H79 7455   7.738   6.659   0.250
   17CHTO   C38 7456   7.639   6.843   0.301
   17CHTO   H80 7457   7.651   6.925   0.374
   17CHTO   O31 7458   7.520   6.770   0.328
   17CHTO   H68 7459   7.442   6.824   0.324
   17CHTO   C39 7460   7.625   6.901   0.157
   17CHTO   H81 7461   7.603   6.817   0.089
   17CHTO    N7 7462   7.514   6.997   0.151
   17CHTO   H73 7463   7.496   7.026   0.048
   17CHTO   H74 7464   7.536   7.084   0.211
   17CHTO   C40 7465   7.756   6.967   0.110
   17CHTO   H82 7466   7.781   7.052   0.176
   17CHTO   O26 7467   7.858   6.866   0.114
   17CHTO   C41 7468   7.883   6.820   0.250
   17CHTO   H83 7469   7.911   6.906   0.313
   17CHTO   C52 7470   8.003   6.724   0.241
   17CHTO   O35 7471   8.117   6.788   0.179
   17CHTO   H71 7472   8.194   6.732   0.184
   17CHTO   O28 7473   7.741   7.013  -0.025
   17CHTO   C42 7474   7.853   7.083  -0.081
   17CHTO   H84 7475   7.825   7.101  -0.186
   17CHTO   C44 7476   7.986   7.004  -0.087
   17CHTO   H86 7477   8.025   6.992   0.015
   17CHTO   O32 7478   7.964   6.875  -0.144
   17CHTO   H69 7479   8.044   6.824  -0.141
   17CHTO   C48 7480   8.088   7.088  -0.168
   17CHTO   H90 7481   8.050   7.103  -0.270
   17CHTO    N9 7482   8.216   7.013  -0.181
   17CHTO   H77 7483   8.267   7.009  -0.086
   17CHTO   H78 7484   8.280   7.060  -0.255
   17CHTO   C51 7485   8.106   7.224  -0.097
   17CHTO   H93 7486   8.144   7.206   0.004
   17CHTO   O30 7487   7.981   7.291  -0.096
   17CHTO   C46 7488   7.882   7.221  -0.018
   17CHTO   H88 7489   7.917   7.209   0.086
   17CHTO   C53 7490   7.755   7.310  -0.022
   17CHTO   O72 7491   7.652   7.252   0.059
   17CHTO  H199 7492   7.573   7.305   0.057
   17CHTO   O22 7493   8.199   7.302  -0.175
   17CHTO   C31 7494   8.239   7.431  -0.118
   17CHTO   H59 7495   8.305   7.477  -0.193
   17CHTO   C29 7496   8.124   7.530  -0.092
   17CHTO   H57 7497   8.058   7.492  -0.012
   17CHTO   O21 7498   8.042   7.546  -0.208
   17CHTO   H37 7499   8.095   7.579  -0.280
   17CHTO   C27 7500   8.185   7.665  -0.049
   17CHTO   H55 7501   8.246   7.704  -0.133
   17CHTO    N5 7502   8.078   7.761  -0.018
   17CHTO   H43 7503   8.014   7.727   0.062
   17CHTO   H44 7504   8.018   7.784  -0.105
   17CHTO   C25 7505   8.273   7.643   0.075
   17CHTO   H53 7506   8.208   7.607   0.156
   17CHTO   O17 7507   8.376   7.546   0.048
   17CHTO   C32 7508   8.322   7.418   0.012
   17CHTO   H60 7509   8.258   7.380   0.092
   17CHTO   C36 7510   8.441   7.323  -0.009
   17CHTO   O25 7511   8.511   7.307   0.115
   17CHTO   H40 7512   8.582   7.245   0.105
   17CHTO   O15 7513   8.330   7.770   0.111
   17CHTO   C19 7514   8.406   7.770   0.235
   17CHTO   H47 7515   8.443   7.873   0.242
   17CHTO   C20 7516   8.323   7.742   0.361
   17CHTO   H48 7517   8.284   7.639   0.363
   17CHTO   O19 7518   8.213   7.834   0.365
   17CHTO   H35 7519   8.161   7.820   0.443
   17CHTO   C21 7520   8.413   7.763   0.485
   17CHTO   H49 7521   8.446   7.868   0.487
   17CHTO    N4 7522   8.339   7.736   0.608
   17CHTO   H41 7523   8.403   7.757   0.694
   17CHTO   H42 7524   8.309   7.631   0.612
   17CHTO   C22 7525   8.535   7.671   0.472
   17CHTO   H50 7526   8.501   7.567   0.470
   17CHTO   O14 7527   8.609   7.702   0.353
   17CHTO   C23 7528   8.531   7.679   0.234
   17CHTO   H51 7529   8.505   7.572   0.232
   17CHTO   C34 7530   8.621   7.711   0.114
   17CHTO   O23 7531   8.734   7.625   0.117
   17CHTO   H38 7532   8.795   7.646   0.047
   17CHTO   O16 7533   8.618   7.696   0.585
   17CHTO   C24 7534   8.719   7.595   0.601
   17CHTO   H52 7535   8.752   7.555   0.504
   17CHTO   C26 7536   8.666   7.481   0.689
   17CHTO   H54 7537   8.623   7.524   0.782
   17CHTO   O20 7538   8.565   7.402   0.622
   17CHTO   H36 7539   8.531   7.337   0.682
   17CHTO   C30 7540   8.782   7.389   0.729
   17CHTO   H58 7541   8.825   7.339   0.641
   17CHTO    N6 7542   8.735   7.284   0.822
   17CHTO   H45 7543   8.708   7.328   0.916
   17CHTO   H46 7544   8.814   7.214   0.837
   17CHTO   C33 7545   8.893   7.474   0.795
   17CHTO   H61 7546   8.854   7.526   0.883
   17CHTO   O18 7547   8.941   7.569   0.701
   17CHTO   C28 7548   8.840   7.665   0.664
   17CHTO   H56 7549   8.807   7.721   0.753
   17CHTO   C35 7550   8.905   7.762   0.563
   17CHTO   O24 7551   9.012   7.836   0.623
   17CHTO   H39 7552   9.047   7.896   0.559
   17CHTO    O9 7553   8.997   7.389   0.843
   17CHTO   C13 7554   9.116   7.461   0.884
   17CHTO   H26 7555   9.088   7.560   0.925
   17CHTO   C11 7556   9.209   7.473   0.760
   17CHTO   H24 7557   9.181   7.560   0.699
   17CHTO    O8 7558   9.189   7.354   0.683
   17CHTO    H3 7559   9.240   7.354   0.604
   17CHTO    C9 7560   9.354   7.487   0.807
   17CHTO   H22 7561   9.354   7.574   0.874
   17CHTO    N2 7562   9.447   7.518   0.696
   17CHTO   H10 7563   9.412   7.605   0.641
   17CHTO   H11 7564   9.460   7.434   0.630
   17CHTO    C7 7565   9.397   7.360   0.884
   17CHTO   H20 7566   9.460   7.398   0.966
   17CHTO    O4 7567   9.284   7.290   0.937
   17CHTO   C14 7568   9.188   7.379   0.994
   17CHTO   H27 7569   9.237   7.448   1.065
   17CHTO   C18 7570   9.086   7.296   1.076
   17CHTO   O13 7571   8.984   7.384   1.126
   17CHTO    H7 7572   8.920   7.335   1.178
   17CHTO    O2 7573   9.473   7.270   0.801
   17CHTO    C1 7574   9.511   7.147   0.866
   17CHTO   H14 7575   9.421   7.091   0.897
   17CHTO    C2 7576   9.604   7.168   0.989
   17CHTO   H15 7577   9.688   7.235   0.959
   17CHTO    O6 7578   9.532   7.223   1.099
   17CHTO    H1 7579   9.589   7.236   1.173
   17CHTO    C3 7580   9.658   7.031   1.037
   17CHTO   H16 7581   9.574   6.969   1.075
   17CHTO    N1 7582   9.752   7.050   1.148
   17CHTO    H8 7583   9.837   7.109   1.115
   17CHTO    H9 7584   9.788   6.955   1.186
   17CHTO    C4 7585   9.720   6.951   0.920
   17CHTO   H17 7586   9.813   7.002   0.887
   17CHTO    O1 7587   9.627   6.939   0.812
   17CHTO    C5 7588   9.586   7.064   0.759
   17CHTO   H18 7589   9.674   7.121   0.725
   17CHTO   C16 7590   9.495   7.034   0.637
   17CHTO   O11 7591   9.565   6.941   0.554
   17CHTO    H5 7592   9.514   6.923   0.476
   17CHTO    O3 7593   9.750   6.819   0.968
   17CHTO    C6 7594   9.810   6.734   0.868
   17CHTO   H19 7595   9.772   6.755   0.766
   17CHTO    C8 7596   9.964   6.745   0.870
   17CHTO   H21 7597  10.000   6.726   0.972
   17CHTO    O7 7598  10.004   6.875   0.827
   17CHTO    H2 7599  10.099   6.884   0.825
   17CHTO   C12 7600  10.023   6.640   0.774
   17CHTO   H25 7601   9.989   6.668   0.671
   17CHTO    N3 7602  10.170   6.651   0.778
   17CHTO   H12 7603  10.216   6.598   0.696
   17CHTO   H13 7604  10.208   6.614   0.872
   17CHTO   C15 7605   9.971   6.499   0.808
   17CHTO   H28 7606  10.007   6.467   0.906
   17CHTO   O10 7607  10.010   6.403   0.708
   17CHTO    H4 7608  10.104   6.390   0.707
   17CHTO    O5 7609   9.827   6.498   0.804
   17CHTO   C10 7610   9.773   6.588   0.901
   17CHTO   H23 7611   9.810   6.562   1.000
   17CHTO   C17 7612   9.620   6.569   0.902
   17CHTO   O12 7613   9.590   6.433   0.930
   17CHTO    H6 7614   9.496   6.417   0.928
   18CHTO  H203 7615   6.540   4.927  10.804
   18CHTO   O82 7616   6.447   4.935  10.785
   18CHTO  C123 7617   6.423   4.922  10.646
   18CHTO  H227 7618   6.458   4.822  10.612
   18CHTO   O77 7619   6.280   4.934  10.627
   18CHTO  C118 7620   6.242   4.913  10.491
   18CHTO  H222 7621   6.274   4.812  10.458
   18CHTO  C125 7622   6.087   4.922  10.477
   18CHTO   O84 7623   6.028   4.822  10.562
   18CHTO  H205 7624   5.934   4.829  10.561
   18CHTO  C114 7625   6.304   5.019  10.400
   18CHTO  H218 7626   6.264   5.118  10.428
   18CHTO  C116 7627   6.459   5.020  10.417
   18CHTO  H220 7628   6.503   4.927  10.377
   18CHTO   O79 7629   6.517   5.131  10.347
   18CHTO  H201 7630   6.611   5.134  10.358
   18CHTO  C120 7631   6.491   5.036  10.568
   18CHTO  H224 7632   6.453   5.135  10.600
   18CHTO   N21 7633   6.636   5.035  10.584
   18CHTO  H211 7634   6.675   4.934  10.573
   18CHTO  H212 7635   6.665   5.076  10.679
   18CHTO   O75 7636   6.263   4.983  10.269
   18CHTO  C112 7637   6.295   5.082  10.168
   18CHTO  H216 7638   6.404   5.088  10.153
   18CHTO   O73 7639   6.238   5.208  10.207
   18CHTO  C113 7640   6.257   5.309  10.108
   18CHTO  H217 7641   6.366   5.318  10.087
   18CHTO  C124 7642   6.209   5.443  10.164
   18CHTO   O83 7643   6.267   5.465  10.295
   18CHTO  H204 7644   6.233   5.546  10.331
   18CHTO  C109 7645   6.184   5.273   9.976
   18CHTO  H213 7646   6.076   5.261  10.002
   18CHTO  C110 7647   6.244   5.140   9.928
   18CHTO  H214 7648   6.350   5.152   9.904
   18CHTO   O78 7649   6.175   5.093   9.812
   18CHTO  H200 7650   6.209   5.010   9.783
   18CHTO  C111 7651   6.225   5.035  10.039
   18CHTO  H215 7652   6.117   5.021  10.058
   18CHTO   N19 7653   6.280   4.905  10.000
   18CHTO  H207 7654   6.256   4.832  10.075
   18CHTO  H208 7655   6.387   4.911   9.988
   18CHTO   O74 7656   6.196   5.378   9.877
   18CHTO  C115 7657   6.097   5.372   9.773
   18CHTO  H219 7658   6.047   5.276   9.771
   18CHTO   O76 7659   5.993   5.469   9.792
   18CHTO  C122 7660   6.047   5.600   9.816
   18CHTO  H226 7661   6.087   5.602   9.918
   18CHTO  C126 7662   5.933   5.706   9.813
   18CHTO   O85 7663   5.873   5.720   9.683
   18CHTO  H206 7664   5.841   5.638   9.650
   18CHTO  C121 7665   6.161   5.636   9.715
   18CHTO  H225 7666   6.148   5.739   9.679
   18CHTO   O81 7667   6.287   5.624   9.784
   18CHTO  H202 7668   6.294   5.685   9.855
   18CHTO  C119 7669   6.154   5.538   9.596
   18CHTO  H223 7670   6.052   5.547   9.560
   18CHTO  C117 7671   6.169   5.390   9.637
   18CHTO  H221 7672   6.272   5.354   9.647
   18CHTO   N20 7673   6.105   5.302   9.538
   18CHTO  H209 7674   6.149   5.319   9.440
   18CHTO  H210 7675   5.998   5.318   9.533
   18CHTO   O80 7676   6.230   5.573   9.478
   18CHTO  C103 7677   6.366   5.620   9.494
   18CHTO  H190 7678   6.369   5.707   9.561
   18CHTO  C101 7679   6.472   5.517   9.544
   18CHTO  H188 7680   6.468   5.425   9.483
   18CHTO   O68 7681   6.452   5.483   9.683
   18CHTO  H168 7682   6.507   5.410   9.710
   18CHTO   C99 7683   6.614   5.580   9.527
   18CHTO  H186 7684   6.622   5.671   9.590
   18CHTO   N17 7685   6.723   5.489   9.565
   18CHTO  H174 7686   6.711   5.395   9.514
   18CHTO  H175 7687   6.726   5.474   9.672
   18CHTO   C97 7688   6.638   5.625   9.383
   18CHTO  H184 7689   6.630   5.537   9.317
   18CHTO   O64 7690   6.539   5.724   9.350
   18CHTO  C104 7691   6.407   5.669   9.353
   18CHTO  H191 7692   6.401   5.586   9.283
   18CHTO  C108 7693   6.308   5.774   9.305
   18CHTO   O71 7694   6.352   5.824   9.177
   18CHTO  H171 7695   6.294   5.892   9.147
   18CHTO   O62 7696   6.769   5.683   9.373
   18CHTO   C91 7697   6.825   5.680   9.240
   18CHTO  H178 7698   6.833   5.575   9.210
   18CHTO   C92 7699   6.968   5.734   9.250
   18CHTO  H179 7700   7.026   5.677   9.326
   18CHTO   O66 7701   7.034   5.711   9.125
   18CHTO  H166 7702   7.125   5.737   9.128
   18CHTO   C93 7703   6.970   5.885   9.281
   18CHTO  H180 7704   7.069   5.925   9.252
   18CHTO   N16 7705   6.954   5.911   9.426
   18CHTO  H172 7706   6.857   5.879   9.459
   18CHTO  H173 7707   6.967   6.017   9.444
   18CHTO   C94 7708   6.860   5.957   9.199
   18CHTO  H181 7709   6.771   5.976   9.258
   18CHTO   O61 7710   6.826   5.874   9.087
   18CHTO   C95 7711   6.750   5.760   9.131
   18CHTO  H182 7712   6.653   5.794   9.169
   18CHTO  C106 7713   6.721   5.671   9.007
   18CHTO   O69 7714   6.647   5.750   8.914
   18CHTO  H169 7715   6.621   5.697   8.839
   18CHTO   O63 7716   6.921   6.080   9.153
   18CHTO   C96 7717   6.828   6.171   9.091
   18CHTO  H183 7718   6.743   6.183   9.159
   18CHTO   C98 7719   6.775   6.124   8.954
   18CHTO  H185 7720   6.718   6.030   8.962
   18CHTO   O67 7721   6.683   6.222   8.908
   18CHTO  H167 7722   6.644   6.192   8.827
   18CHTO  C102 7723   6.893   6.109   8.852
   18CHTO  H189 7724   6.848   6.116   8.752
   18CHTO   N18 7725   6.961   5.979   8.858
   18CHTO  H176 7726   6.889   5.898   8.844
   18CHTO  H177 7727   7.013   5.963   8.952
   18CHTO  C105 7728   6.993   6.224   8.871
   18CHTO  H192 7729   7.078   6.190   8.930
   18CHTO   O65 7730   6.931   6.335   8.938
   18CHTO  C100 7731   6.899   6.306   9.075
   18CHTO  H187 7732   6.995   6.303   9.131
   18CHTO  C107 7733   6.815   6.422   9.132
   18CHTO   O70 7734   6.685   6.419   9.075
   18CHTO  H170 7735   6.627   6.484   9.113
   18CHTO   O57 7736   7.033   6.255   8.736
   18CHTO   C85 7737   7.115   6.371   8.720
   18CHTO  H157 7738   7.058   6.461   8.750
   18CHTO   C83 7739   7.145   6.383   8.570
   18CHTO  H155 7740   7.051   6.386   8.512
   18CHTO   O56 7741   7.218   6.266   8.528
   18CHTO  H135 7742   7.168   6.188   8.544
   18CHTO   C81 7743   7.226   6.510   8.541
   18CHTO  H153 7744   7.160   6.598   8.551
   18CHTO   N14 7745   7.277   6.508   8.403
   18CHTO  H141 7746   7.193   6.506   8.335
   18CHTO  H142 7747   7.338   6.420   8.386
   18CHTO   C79 7748   7.343   6.524   8.641
   18CHTO  H151 7749   7.315   6.600   8.715
   18CHTO   O52 7750   7.366   6.399   8.710
   18CHTO   C86 7751   7.252   6.361   8.794
   18CHTO  H158 7752   7.274   6.257   8.821
   18CHTO   C90 7753   7.252   6.441   8.924
   18CHTO   O60 7754   7.387   6.455   8.969
   18CHTO  H138 7755   7.389   6.506   9.050
   18CHTO   O50 7756   7.463   6.566   8.573
   18CHTO   C73 7757   7.578   6.581   8.657
   18CHTO  H145 7758   7.597   6.491   8.716
   18CHTO   C74 7759   7.567   6.703   8.750
   18CHTO  H146 7760   7.485   6.688   8.822
   18CHTO   O54 7761   7.688   6.716   8.826
   18CHTO  H133 7762   7.680   6.790   8.884
   18CHTO   C75 7763   7.544   6.828   8.663
   18CHTO  H147 7764   7.452   6.815   8.604
   18CHTO   N13 7765   7.532   6.949   8.748
   18CHTO  H139 7766   7.448   6.938   8.814
   18CHTO  H140 7767   7.516   7.035   8.685
   18CHTO   C76 7768   7.665   6.841   8.567
   18CHTO  H148 7769   7.755   6.857   8.629
   18CHTO   O49 7770   7.680   6.723   8.485
   18CHTO   C77 7771   7.698   6.604   8.561
   18CHTO  H149 7772   7.790   6.610   8.619
   18CHTO   C88 7773   7.714   6.484   8.466
   18CHTO   O58 7774   7.829   6.504   8.381
   18CHTO  H136 7775   7.845   6.430   8.324
   18CHTO   O51 7776   7.639   6.952   8.479
   18CHTO   C78 7777   7.746   6.979   8.387
   18CHTO  H150 7778   7.794   6.886   8.351
   18CHTO   C80 7779   7.853   7.069   8.451
   18CHTO  H152 7780   7.804   7.159   8.493
   18CHTO   O55 7781   7.920   6.997   8.555
   18CHTO  H134 7782   7.982   7.053   8.601
   18CHTO   C84 7783   7.957   7.110   8.344
   18CHTO  H156 7784   8.010   7.021   8.310
   18CHTO   N15 7785   8.054   7.203   8.403
   18CHTO  H143 7786   8.003   7.292   8.436
   18CHTO  H144 7787   8.126   7.231   8.327
   18CHTO   C87 7788   7.884   7.176   8.225
   18CHTO  H159 7789   7.835   7.268   8.259
   18CHTO   O53 7790   7.789   7.082   8.171
   18CHTO   C82 7791   7.686   7.051   8.265
   18CHTO  H154 7792   7.633   7.142   8.295
   18CHTO   C89 7793   7.581   6.958   8.198
   18CHTO   O59 7794   7.530   7.026   8.081
   18CHTO  H137 7795   7.468   6.970   8.038
   18CHTO   O45 7796   7.984   7.207   8.125
   18CHTO   C67 7797   7.925   7.234   7.997
   18CHTO  H124 7798   7.874   7.145   7.959
   18CHTO   C65 7799   7.823   7.349   8.006
   18CHTO  H122 7800   7.859   7.420   8.081
   18CHTO   O44 7801   7.698   7.290   8.046
   18CHTO  H102 7802   7.631   7.356   8.064
   18CHTO   C63 7803   7.816   7.425   7.872
   18CHTO  H120 7804   7.893   7.504   7.871
   18CHTO   N11 7805   7.688   7.497   7.851
   18CHTO  H108 7806   7.670   7.564   7.933
   18CHTO  H109 7807   7.606   7.427   7.842
   18CHTO   C61 7808   7.844   7.328   7.755
   18CHTO  H118 7809   7.832   7.386   7.662
   18CHTO   O40 7810   7.978   7.281   7.759
   18CHTO   C68 7811   8.033   7.270   7.892
   18CHTO  H125 7812   8.079   7.366   7.919
   18CHTO   C72 7813   8.147   7.164   7.889
   18CHTO   O48 7814   8.217   7.157   8.013
   18CHTO  H105 7815   8.289   7.094   8.007
   18CHTO   O38 7816   7.756   7.214   7.754
   18CHTO   C55 7817   7.754   7.153   7.624
   18CHTO  H112 7818   7.853   7.161   7.577
   18CHTO   C56 7819   7.641   7.212   7.534
   18CHTO  H113 7820   7.545   7.190   7.584
   18CHTO   O42 7821   7.650   7.354   7.522
   18CHTO  H100 7822   7.575   7.389   7.476
   18CHTO   C57 7823   7.646   7.145   7.395
   18CHTO  H114 7824   7.742   7.168   7.347
   18CHTO   N10 7825   7.536   7.193   7.309
   18CHTO  H106 7826   7.515   7.122   7.232
   18CHTO  H107 7827   7.560   7.288   7.266
   18CHTO   C58 7828   7.635   6.994   7.414
   18CHTO  H115 7829   7.533   6.969   7.450
   18CHTO   O37 7830   7.734   6.943   7.504
   18CHTO   C59 7831   7.723   7.002   7.635
   18CHTO  H116 7832   7.623   6.984   7.676
   18CHTO   C70 7833   7.829   6.932   7.721
   18CHTO   O46 7834   7.812   6.790   7.719
   18CHTO  H103 7835   7.875   6.749   7.777
   18CHTO   O39 7836   7.655   6.936   7.283
   18CHTO   C60 7837   7.673   6.794   7.284
   18CHTO  H117 7838   7.762   6.768   7.341
   18CHTO   C62 7839   7.551   6.719   7.341
   18CHTO  H119 7840   7.546   6.741   7.449
   18CHTO   O43 7841   7.433   6.767   7.276
   18CHTO  H101 7842   7.354   6.731   7.316
   18CHTO   C66 7843   7.573   6.567   7.319
   18CHTO  H123 7844   7.661   6.535   7.376
   18CHTO   N12 7845   7.459   6.489   7.366
   18CHTO  H110 7846   7.373   6.502   7.301
   18CHTO  H111 7847   7.435   6.515   7.468
   18CHTO   C69 7848   7.596   6.539   7.169
   18CHTO  H126 7849   7.508   6.573   7.111
   18CHTO   O41 7850   7.716   6.606   7.128
   18CHTO   C64 7851   7.699   6.749   7.138
   18CHTO  H121 7852   7.614   6.782   7.075
   18CHTO   C71 7853   7.827   6.819   7.085
   18CHTO   O47 7854   7.851   6.769   6.952
   18CHTO  H104 7855   7.928   6.810   6.915
   18CHTO   O34 7856   7.607   6.396   7.160
   18CHTO   C49 7857   7.581   6.341   7.029
   18CHTO   H91 7858   7.481   6.371   6.998
   18CHTO   C47 7859   7.590   6.189   7.046
   18CHTO   H89 7860   7.574   6.144   6.946
   18CHTO   O33 7861   7.492   6.138   7.138
   18CHTO   H70 7862   7.405   6.156   7.105
   18CHTO   C45 7863   7.731   6.154   7.101
   18CHTO   H87 7864   7.731   6.153   7.211
   18CHTO    N8 7865   7.768   6.020   7.053
   18CHTO   H75 7866   7.689   5.950   7.078
   18CHTO   H76 7867   7.861   5.988   7.098
   18CHTO   C43 7868   7.836   6.259   7.054
   18CHTO   H85 7869   7.834   6.342   7.124
   18CHTO   O29 7870   7.802   6.298   6.921
   18CHTO   C50 7871   7.685   6.381   6.921
   18CHTO   H92 7872   7.715   6.486   6.938
   18CHTO   C54 7873   7.621   6.382   6.780
   18CHTO   O36 7874   7.718   6.432   6.686
   18CHTO   H72 7875   7.680   6.435   6.599
   18CHTO   O27 7876   7.967   6.200   7.058
   18CHTO   C37 7877   8.071   6.281   7.001
   18CHTO   H79 7878   8.050   6.304   6.895
   18CHTO   C38 7879   8.087   6.415   7.076
   18CHTO   H80 7880   8.090   6.395   7.185
   18CHTO   O31 7881   7.977   6.500   7.044
   18CHTO   H68 7882   7.982   6.583   7.089
   18CHTO   C39 7883   8.216   6.488   7.031
   18CHTO   H81 7884   8.204   6.515   6.925
   18CHTO    N7 7885   8.235   6.612   7.108
   18CHTO   H73 7886   8.316   6.669   7.067
   18CHTO   H74 7887   8.254   6.589   7.212
   18CHTO   C40 7888   8.340   6.397   7.043
   18CHTO   H82 7889   8.356   6.370   7.149
   18CHTO   O26 7890   8.316   6.282   6.961
   18CHTO   C41 7891   8.204   6.203   7.009
   18CHTO   H83 7892   8.224   6.174   7.114
   18CHTO   C52 7893   8.200   6.077   6.922
   18CHTO   O35 7894   8.327   6.007   6.924
   18CHTO   H71 7895   8.320   5.923   6.880
   18CHTO   O28 7896   8.456   6.468   6.995
   18CHTO   C42 7897   8.581   6.398   7.006
   18CHTO   H84 7898   8.654   6.464   6.956
   18CHTO   C44 7899   8.590   6.262   6.933
   18CHTO   H86 7900   8.527   6.189   6.985
   18CHTO   O32 7901   8.544   6.276   6.798
   18CHTO   H69 7902   8.542   6.191   6.755
   18CHTO   C48 7903   8.737   6.213   6.939
   18CHTO   H90 7904   8.802   6.287   6.889
   18CHTO    N9 7905   8.751   6.085   6.865
   18CHTO   H77 7906   8.703   6.005   6.918
   18CHTO   H78 7907   8.856   6.062   6.850
   18CHTO   C51 7908   8.777   6.200   7.088
   18CHTO   H93 7909   8.710   6.127   7.135
   18CHTO   O30 7910   8.767   6.328   7.148
   18CHTO   C46 7911   8.632   6.378   7.151
   18CHTO   H88 7912   8.566   6.308   7.204
   18CHTO   C53 7913   8.638   6.514   7.225
   18CHTO   O72 7914   8.506   6.569   7.238
   18CHTO  H199 7915   8.509   6.652   7.283
   18CHTO   O22 7916   8.914   6.157   7.093
   18CHTO   C31 7917   8.968   6.128   7.226
   18CHTO   H59 7918   9.074   6.102   7.210
   18CHTO   C29 7919   8.964   6.244   7.326
   18CHTO   H57 7920   8.860   6.269   7.352
   18CHTO   O21 7921   9.023   6.362   7.270
   18CHTO   H37 7922   9.113   6.345   7.247
   18CHTO   C27 7923   9.040   6.201   7.453
   18CHTO   H55 7924   9.146   6.182   7.426
   18CHTO    N5 7925   9.034   6.307   7.554
   18CHTO   H43 7926   8.933   6.332   7.582
   18CHTO   H44 7927   9.085   6.397   7.521
   18CHTO   C25 7928   8.975   6.073   7.509
   18CHTO   H53 7929   8.871   6.097   7.537
   18CHTO   O17 7930   8.976   5.969   7.410
   18CHTO   C32 7931   8.903   6.004   7.292
   18CHTO   H60 7932   8.799   6.028   7.318
   18CHTO   C36 7933   8.907   5.882   7.198
   18CHTO   O25 7934   8.839   5.773   7.259
   18CHTO   H40 7935   8.836   5.699   7.200
   18CHTO   O15 7936   9.049   6.034   7.627
   18CHTO   C19 7937   8.992   5.922   7.699
   18CHTO   H47 7938   9.065   5.906   7.781
   18CHTO   C20 7939   8.855   5.949   7.763
   18CHTO   H48 7940   8.777   5.963   7.687
   18CHTO   O19 7941   8.865   6.067   7.844
   18CHTO   H35 7942   8.781   6.085   7.886
   18CHTO   C21 7943   8.818   5.828   7.851
   18CHTO   H49 7944   8.892   5.818   7.932
   18CHTO    N4 7945   8.686   5.848   7.913
   18CHTO   H41 7946   8.665   5.764   7.979
   18CHTO   H42 7947   8.609   5.853   7.837
   18CHTO   C22 7948   8.819   5.702   7.764
   18CHTO   H50 7949   8.744   5.713   7.685
   18CHTO   O14 7950   8.950   5.682   7.708
   18CHTO   C23 7951   8.988   5.789   7.620
   18CHTO   H51 7952   8.914   5.792   7.538
   18CHTO   C34 7953   9.126   5.755   7.563
   18CHTO   O23 7954   9.116   5.633   7.491
   18CHTO   H38 7955   9.202   5.604   7.459
   18CHTO   O16 7956   8.789   5.592   7.849
   18CHTO   C24 7957   8.756   5.474   7.775
   18CHTO   H52 7958   8.812   5.468   7.680
   18CHTO   C26 7959   8.605   5.469   7.746
   18CHTO   H54 7960   8.550   5.485   7.841
   18CHTO   O20 7961   8.565   5.568   7.650
   18CHTO   H36 7962   8.470   5.565   7.639
   18CHTO   C30 7963   8.568   5.330   7.693
   18CHTO   H58 7964   8.615   5.311   7.596
   18CHTO    N6 7965   8.421   5.320   7.673
   18CHTO   H45 7966   8.373   5.321   7.769
   18CHTO   H46 7967   8.400   5.228   7.624
   18CHTO   C33 7968   8.617   5.223   7.792
   18CHTO   H61 7969   8.572   5.239   7.891
   18CHTO   O18 7970   8.758   5.230   7.803
   18CHTO   C28 7971   8.802   5.355   7.861
   18CHTO   H56 7972   8.762   5.366   7.963
   18CHTO   C35 7973   8.956   5.350   7.868
   18CHTO   O24 7974   9.002   5.247   7.956
   18CHTO   H39 7975   9.096   5.249   7.959
   18CHTO    O9 7976   8.573   5.094   7.751
   18CHTO   C13 7977   8.635   4.985   7.824
   18CHTO   H26 7978   8.655   5.017   7.928
   18CHTO   C11 7979   8.765   4.945   7.749
   18CHTO   H24 7980   8.849   5.009   7.780
   18CHTO    O8 7981   8.739   4.965   7.610
   18CHTO    H3 7982   8.814   4.946   7.556
   18CHTO    C9 7983   8.798   4.798   7.780
   18CHTO   H22 7984   8.804   4.793   7.889
   18CHTO    N2 7985   8.930   4.757   7.728
   18CHTO   H10 7986   9.007   4.826   7.763
   18CHTO   H11 7987   8.931   4.752   7.620
   18CHTO    C7 7988   8.684   4.707   7.728
   18CHTO   H20 7989   8.676   4.629   7.804
   18CHTO    O4 7990   8.561   4.778   7.715
   18CHTO   C14 7991   8.537   4.865   7.826
   18CHTO   H27 7992   8.549   4.809   7.921
   18CHTO   C18 7993   8.391   4.913   7.820
   18CHTO   O13 7994   8.368   5.007   7.926
   18CHTO    H7 7995   8.278   5.038   7.926
   18CHTO    O2 7996   8.718   4.648   7.601
   18CHTO    C1 7997   8.614   4.565   7.544
   18CHTO   H14 7998   8.523   4.626   7.527
   18CHTO    C2 7999   8.578   4.442   7.632
   18CHTO   H15 8000   8.671   4.389   7.659
   18CHTO    O6 8001   8.506   4.482   7.749
   18CHTO    H1 8002   8.485   4.406   7.802
   18CHTO    C3 8003   8.483   4.348   7.553
   18CHTO   H16 8004   8.386   4.400   7.534
   18CHTO    N1 8005   8.454   4.227   7.632
   18CHTO    H8 8006   8.546   4.174   7.651
   18CHTO    H9 8007   8.385   4.163   7.580
   18CHTO    C4 8008   8.541   4.315   7.413
   18CHTO   H17 8009   8.631   4.252   7.426
   18CHTO    O1 8010   8.572   4.435   7.342
   18CHTO    C5 8011   8.668   4.516   7.408
   18CHTO   H18 8012   8.760   4.460   7.424
   18CHTO   C16 8013   8.699   4.636   7.314
   18CHTO   O11 8014   8.728   4.581   7.184
   18CHTO    H5 8015   8.751   4.652   7.124
   18CHTO    O3 8016   8.440   4.245   7.340
   18CHTO    C6 8017   8.482   4.207   7.207
   18CHTO   H19 8018   8.550   4.281   7.162
   18CHTO    C8 8019   8.547   4.067   7.207
   18CHTO   H21 8020   8.478   3.995   7.254
   18CHTO    O7 8021   8.671   4.072   7.277
   18CHTO    H2 8022   8.715   3.987   7.277
   18CHTO   C12 8023   8.574   4.025   7.061
   18CHTO   H25 8024   8.649   4.097   7.020
   18CHTO    N3 8025   8.635   3.891   7.062
   18CHTO   H12 8026   8.679   3.866   6.967
   18CHTO   H13 8027   8.563   3.816   7.091
   18CHTO   C15 8028   8.445   4.032   6.977
   18CHTO   H28 8029   8.371   3.959   7.011
   18CHTO   O10 8030   8.472   4.011   6.837
   18CHTO    H4 8031   8.502   3.923   6.820
   18CHTO    O5 8032   8.390   4.165   6.983
   18CHTO   C10 8033   8.356   4.200   7.118
   18CHTO   H23 8034   8.286   4.126   7.157
   18CHTO   C17 8035   8.284   4.336   7.114
   18CHTO   O12 8036   8.170   4.326   7.028
   18CHTO    H6 8037   8.125   4.410   7.021
   19CHTO  H203 8038   9.795   3.360  10.047
   19CHTO   O82 8039   9.845   3.309  10.109
   19CHTO  C123 8040   9.914   3.203  10.044
   19CHTO  H227 8041   9.983   3.246   9.969
   19CHTO   O77 8042   9.987   3.132  10.146
   19CHTO  C118 8043  10.069   3.029  10.091
   19CHTO  H222 8044  10.141   3.072  10.017
   19CHTO  C125 8045  10.150   2.960  10.204
   19CHTO   O84 8046  10.231   3.058  10.268
   19CHTO  H205 8047  10.278   3.021  10.342
   19CHTO  C114 8048   9.983   2.923  10.021
   19CHTO  H218 8049   9.919   2.875  10.097
   19CHTO  C116 8050   9.893   2.989   9.913
   19CHTO  H220 8051   9.954   3.027   9.829
   19CHTO   O79 8052   9.799   2.894   9.861
   19CHTO  H201 8053   9.742   2.934   9.796
   19CHTO  C120 8054   9.814   3.105   9.979
   19CHTO  H224 8055   9.747   3.060  10.056
   19CHTO   N21 8056   9.731   3.168   9.877
   19CHTO  H211 8057   9.791   3.230   9.813
   19CHTO  H212 8058   9.652   3.226   9.923
   19CHTO   O75 8059  10.076   2.830   9.967
   19CHTO  C112 8060  10.015   2.710   9.913
   19CHTO  H216 8061   9.957   2.734   9.823
   19CHTO   O73 8062   9.936   2.649  10.016
   19CHTO  C113 8063   9.880   2.525   9.973
   19CHTO  H217 8064   9.821   2.542   9.881
   19CHTO  C124 8065   9.784   2.475  10.081
   19CHTO   O83 8066   9.692   2.580  10.118
   19CHTO  H204 8067   9.636   2.550  10.189
   19CHTO  C109 8068   9.991   2.420   9.943
   19CHTO  H213 8069  10.050   2.409  10.037
   19CHTO  C110 8070  10.078   2.480   9.831
   19CHTO  H214 8071  10.018   2.492   9.740
   19CHTO   O78 8072  10.189   2.395   9.803
   19CHTO  H200 8073  10.244   2.432   9.736
   19CHTO  C111 8074  10.132   2.615   9.879
   19CHTO  H215 8075  10.195   2.600   9.968
   19CHTO   N19 8076  10.216   2.679   9.776
   19CHTO  H207 8077  10.261   2.768   9.817
   19CHTO  H208 8078  10.157   2.704   9.689
   19CHTO   O74 8079   9.935   2.292   9.908
   19CHTO  C115 8080  10.028   2.182   9.921
   19CHTO  H219 8081  10.130   2.217   9.931
   19CHTO   O76 8082  10.002   2.105  10.040
   19CHTO  C122 8083   9.863   2.069  10.051
   19CHTO  H226 8084   9.808   2.158  10.079
   19CHTO  C126 8085   9.845   1.967  10.167
   19CHTO   O85 8086   9.908   1.841  10.142
   19CHTO  H206 8087  10.000   1.851  10.123
   19CHTO  C121 8088   9.808   2.013   9.916
   19CHTO  H225 8089   9.746   1.923   9.935
   19CHTO   O81 8090   9.726   2.115   9.855
   19CHTO  H202 8091   9.652   2.137   9.909
   19CHTO  C119 8092   9.926   1.976   9.824
   19CHTO  H223 8093   9.986   1.908   9.884
   19CHTO  C117 8094  10.019   2.095   9.794
   19CHTO  H221 8095   9.989   2.159   9.710
   19CHTO   N20 8096  10.154   2.048   9.760
   19CHTO  H209 8097  10.150   1.981   9.675
   19CHTO  H210 8098  10.201   1.998   9.843
   19CHTO   O80 8099   9.897   1.895   9.709
   19CHTO  C103 8100   9.782   1.928   9.627
   19CHTO  H190 8101   9.691   1.931   9.688
   19CHTO  C101 8102   9.788   2.060   9.544
   19CHTO  H188 8103   9.881   2.065   9.486
   19CHTO   O68 8104   9.779   2.176   9.630
   19CHTO  H168 8105   9.798   2.257   9.582
   19CHTO   C99 8106   9.668   2.062   9.445
   19CHTO  H186 8107   9.572   2.060   9.501
   19CHTO   N17 8108   9.667   2.180   9.357
   19CHTO  H174 8109   9.763   2.190   9.309
   19CHTO  H175 8110   9.642   2.270   9.411
   19CHTO   C97 8111   9.667   1.937   9.356
   19CHTO  H184 8112   9.762   1.935   9.299
   19CHTO   O64 8113   9.655   1.823   9.442
   19CHTO  C104 8114   9.768   1.809   9.528
   19CHTO  H191 8115   9.859   1.801   9.469
   19CHTO  C108 8116   9.756   1.679   9.607
   19CHTO   O71 8117   9.736   1.571   9.514
   19CHTO  H171 8118   9.724   1.490   9.562
   19CHTO   O62 8119   9.555   1.943   9.267
   19CHTO   C91 8120   9.570   1.865   9.147
   19CHTO  H178 8121   9.658   1.904   9.093
   19CHTO   C92 8122   9.449   1.892   9.058
   19CHTO  H179 8123   9.437   2.001   9.042
   19CHTO   O66 8124   9.472   1.834   8.930
   19CHTO  H166 8125   9.402   1.854   8.869
   19CHTO   C93 8126   9.320   1.832   9.119
   19CHTO  H180 8127   9.245   1.822   9.038
   19CHTO   N16 8128   9.261   1.919   9.222
   19CHTO  H172 8129   9.328   1.928   9.306
   19CHTO  H173 8130   9.166   1.878   9.253
   19CHTO   C94 8131   9.351   1.690   9.177
   19CHTO  H181 8132   9.365   1.693   9.284
   19CHTO   O61 8133   9.471   1.641   9.115
   19CHTO   C95 8134   9.585   1.711   9.165
   19CHTO  H182 8135   9.599   1.687   9.270
   19CHTO  C106 8136   9.711   1.659   9.090
   19CHTO   O69 8137   9.720   1.519   9.117
   19CHTO  H169 8138   9.800   1.483   9.078
   19CHTO   O63 8139   9.238   1.608   9.139
   19CHTO   C96 8140   9.238   1.479   9.201
   19CHTO  H183 8141   9.253   1.492   9.309
   19CHTO   C98 8142   9.348   1.384   9.149
   19CHTO  H185 8143   9.449   1.423   9.170
   19CHTO   O67 8144   9.336   1.261   9.221
   19CHTO  H167 8145   9.407   1.204   9.196
   19CHTO  C102 8146   9.329   1.357   8.996
   19CHTO  H189 8147   9.381   1.262   8.975
   19CHTO   N18 8148   9.391   1.459   8.910
   19CHTO  H176 8149   9.497   1.468   8.933
   19CHTO  H177 8150   9.344   1.555   8.920
   19CHTO  C105 8151   9.180   1.341   8.964
   19CHTO  H192 8152   9.141   1.435   8.923
   19CHTO   O65 8153   9.106   1.307   9.082
   19CHTO  C100 8154   9.100   1.415   9.177
   19CHTO  H187 8155   9.033   1.492   9.135
   19CHTO  C107 8156   9.037   1.363   9.308
   19CHTO   O70 8157   9.129   1.277   9.373
   19CHTO  H170 8158   9.097   1.249   9.458
   19CHTO   O57 8159   9.179   1.236   8.865
   19CHTO   C85 8160   9.049   1.189   8.826
   19CHTO  H157 8161   9.000   1.140   8.913
   19CHTO   C83 8162   9.073   1.079   8.721
   19CHTO  H155 8163   9.141   1.001   8.760
   19CHTO   O56 8164   9.138   1.139   8.607
   19CHTO  H135 8165   9.221   1.178   8.632
   19CHTO   C81 8166   8.941   1.015   8.679
   19CHTO  H153 8167   8.905   0.950   8.761
   19CHTO   N14 8168   8.960   0.930   8.560
   19CHTO  H141 8169   9.029   0.851   8.584
   19CHTO  H142 8170   9.001   0.989   8.478
   19CHTO   C79 8171   8.834   1.123   8.650
   19CHTO  H151 8172   8.766   1.125   8.737
   19CHTO   O52 8173   8.896   1.253   8.637
   19CHTO   C86 8174   8.959   1.297   8.761
   19CHTO  H158 8175   9.019   1.384   8.730
   19CHTO   C90 8176   8.854   1.350   8.860
   19CHTO   O60 8177   8.755   1.423   8.786
   19CHTO  H138 8178   8.689   1.455   8.846
   19CHTO   O50 8179   8.760   1.090   8.532
   19CHTO   C73 8180   8.657   1.185   8.496
   19CHTO  H145 8181   8.698   1.287   8.490
   19CHTO   C74 8182   8.538   1.183   8.594
   19CHTO  H146 8183   8.571   1.217   8.694
   19CHTO   O54 8184   8.438   1.275   8.548
   19CHTO  H133 8185   8.366   1.274   8.609
   19CHTO   C75 8186   8.482   1.039   8.598
   19CHTO  H147 8187   8.562   0.970   8.631
   19CHTO   N13 8188   8.368   1.031   8.691
   19CHTO  H139 8189   8.400   1.057   8.790
   19CHTO  H140 8190   8.330   0.929   8.692
   19CHTO   C76 8191   8.438   1.002   8.453
   19CHTO  H148 8192   8.357   1.071   8.425
   19CHTO   O49 8193   8.549   1.012   8.361
   19CHTO   C77 8194   8.606   1.142   8.356
   19CHTO  H149 8195   8.533   1.215   8.321
   19CHTO   C88 8196   8.722   1.144   8.255
   19CHTO   O58 8197   8.672   1.109   8.124
   19CHTO  H136 8198   8.740   1.114   8.057
   19CHTO   O51 8199   8.396   0.864   8.455
   19CHTO   C78 8200   8.347   0.818   8.328
   19CHTO  H150 8201   8.405   0.860   8.244
   19CHTO   C80 8202   8.198   0.853   8.309
   19CHTO  H152 8203   8.142   0.816   8.397
   19CHTO   O55 8204   8.184   0.995   8.297
   19CHTO  H134 8205   8.092   1.020   8.292
   19CHTO   C84 8206   8.146   0.786   8.180
   19CHTO  H156 8207   8.197   0.829   8.095
   19CHTO   N15 8208   8.002   0.812   8.166
   19CHTO  H143 8209   7.950   0.769   8.250
   19CHTO  H144 8210   7.966   0.765   8.076
   19CHTO   C87 8211   8.174   0.634   8.186
   19CHTO  H159 8212   8.118   0.591   8.270
   19CHTO   O53 8213   8.315   0.613   8.201
   19CHTO   C82 8214   8.364   0.665   8.325
   19CHTO  H154 8215   8.312   0.618   8.409
   19CHTO   C89 8216   8.515   0.630   8.339
   19CHTO   O59 8217   8.528   0.487   8.331
   19CHTO  H137 8218   8.619   0.464   8.338
   19CHTO   O45 8219   8.128   0.577   8.061
   19CHTO   C67 8220   8.181   0.445   8.040
   19CHTO  H124 8221   8.290   0.449   8.032
   19CHTO   C65 8222   8.144   0.352   8.158
   19CHTO  H122 8223   8.045   0.380   8.194
   19CHTO   O44 8224   8.244   0.371   8.259
   19CHTO  H102 8225   8.224   0.324   8.339
   19CHTO   C63 8226   8.133   0.206   8.108
   19CHTO  H120 8227   8.031   0.188   8.072
   19CHTO   N11 8228   8.153   0.105   8.214
   19CHTO  H108 8229   8.085   0.123   8.295
   19CHTO  H109 8230   8.255   0.109   8.252
   19CHTO   C61 8231   8.232   0.183   7.991
   19CHTO  H118 8232   8.224   0.076   7.963
   19CHTO   O40 8233   8.195   0.259   7.877
   19CHTO   C68 8234   8.130   0.384   7.908
   19CHTO  H125 8235   8.021   0.366   7.916
   19CHTO   C72 8236   8.151   0.482   7.789
   19CHTO   O48 8237   8.078   0.603   7.804
   19CHTO  H105 8238   8.090   0.658   7.728
   19CHTO   O38 8239   8.368   0.215   8.025
   19CHTO   C55 8240   8.459   0.152   7.934
   19CHTO  H112 8241   8.414   0.146   7.834
   19CHTO   C56 8242   8.504   0.012   7.985
   19CHTO  H113 8243   8.556   0.027   8.081
   19CHTO   O42 8244   8.393  -0.075   8.013
   19CHTO  H100 8245   8.422  -0.155   8.054
   19CHTO   C57 8246   8.598  -0.053   7.882
   19CHTO  H114 8247   8.545  -0.069   7.788
   19CHTO   N10 8248   8.649  -0.183   7.931
   19CHTO  H106 8249   8.741  -0.208   7.882
   19CHTO  H107 8250   8.577  -0.261   7.915
   19CHTO   C58 8251   8.716   0.042   7.858
   19CHTO  H115 8252   8.778   0.047   7.950
   19CHTO   O37 8253   8.672   0.173   7.819
   19CHTO   C59 8254   8.589   0.234   7.920
   19CHTO  H116 8255   8.643   0.240   8.015
   19CHTO   C70 8256   8.557   0.375   7.868
   19CHTO   O46 8257   8.678   0.447   7.839
   19CHTO  H103 8258   8.656   0.535   7.812
   19CHTO   O39 8259   8.792  -0.016   7.750
   19CHTO   C60 8260   8.893   0.070   7.696
   19CHTO  H117 8261   8.845   0.159   7.653
   19CHTO   C62 8262   8.998   0.112   7.800
   19CHTO  H119 8263   8.948   0.180   7.872
   19CHTO   O43 8264   9.046  -0.005   7.867
   19CHTO  H101 8265   9.103   0.018   7.940
   19CHTO   C66 8266   9.111   0.189   7.727
   19CHTO  H123 8267   9.069   0.281   7.683
   19CHTO   N12 8268   9.218   0.228   7.819
   19CHTO  H110 8269   9.275   0.142   7.851
   19CHTO  H111 8270   9.176   0.281   7.903
   19CHTO   C69 8271   9.169   0.100   7.615
   19CHTO  H126 8272   9.209   0.007   7.659
   19CHTO   O41 8273   9.066   0.074   7.520
   19CHTO   C64 8274   8.961  -0.005   7.579
   19CHTO  H121 8275   9.002  -0.101   7.618
   19CHTO   C71 8276   8.856  -0.039   7.471
   19CHTO   O47 8277   8.925  -0.103   7.362
   19CHTO  H104 8278   8.864  -0.126   7.293
   19CHTO   O34 8279   9.277   0.178   7.560
   19CHTO   C49 8280   9.377   0.101   7.488
   19CHTO   H91 8281   9.418   0.026   7.556
   19CHTO   C47 8282   9.484   0.203   7.447
   19CHTO   H89 8283   9.561   0.148   7.389
   19CHTO   O33 8284   9.547   0.266   7.561
   19CHTO   H70 8285   9.591   0.200   7.613
   19CHTO   C45 8286   9.417   0.313   7.361
   19CHTO   H87 8287   9.381   0.396   7.424
   19CHTO    N8 8288   9.516   0.365   7.266
   19CHTO   H75 8289   9.605   0.396   7.321
   19CHTO   H76 8290   9.477   0.450   7.212
   19CHTO   C43 8291   9.294   0.256   7.284
   19CHTO   H85 8292   9.208   0.261   7.350
   19CHTO   O29 8293   9.326   0.122   7.245
   19CHTO   C50 8294   9.325   0.034   7.359
   19CHTO   H92 8295   9.222  -0.002   7.376
   19CHTO   C54 8296   9.405  -0.094   7.327
   19CHTO   O36 8297   9.345  -0.159   7.213
   19CHTO   H72 8298   9.392  -0.239   7.193
   19CHTO   O27 8299   9.269   0.338   7.169
   19CHTO   C37 8300   9.168   0.286   7.080
   19CHTO   H79 8301   9.196   0.186   7.042
   19CHTO   C38 8302   9.031   0.272   7.150
   19CHTO   H80 8303   9.009   0.366   7.205
   19CHTO   O31 8304   9.035   0.162   7.240
   19CHTO   H68 8305   8.953   0.151   7.286
   19CHTO   C39 8306   8.919   0.242   7.047
   19CHTO   H81 8307   8.940   0.144   7.002
   19CHTO    N7 8308   8.788   0.238   7.112
   19CHTO   H73 8309   8.713   0.203   7.043
   19CHTO   H74 8310   8.761   0.335   7.151
   19CHTO   C40 8311   8.918   0.346   6.932
   19CHTO   H82 8312   8.896   0.447   6.973
   19CHTO   O26 8313   9.047   0.341   6.870
   19CHTO   C41 8314   9.153   0.382   6.961
   19CHTO   H83 8315   9.131   0.484   6.997
   19CHTO   C52 8316   9.282   0.387   6.877
   19CHTO   O35 8317   9.267   0.472   6.761
   19CHTO   H71 8318   9.350   0.483   6.717
   19CHTO   O28 8319   8.817   0.311   6.837
   19CHTO   C42 8320   8.800   0.403   6.727
   19CHTO   H84 8321   8.726   0.353   6.661
   19CHTO   C44 8322   8.924   0.427   6.639
   19CHTO   H86 8323   8.998   0.486   6.696
   19CHTO   O32 8324   8.983   0.302   6.600
   19CHTO   H69 8325   9.064   0.317   6.552
   19CHTO   C48 8326   8.881   0.510   6.516
   19CHTO   H90 8327   8.805   0.455   6.458
   19CHTO    N9 8328   8.997   0.533   6.425
   19CHTO   H77 8329   9.067   0.600   6.470
   19CHTO   H78 8330   8.963   0.571   6.330
   19CHTO   C51 8331   8.821   0.644   6.567
   19CHTO   H93 8332   8.898   0.697   6.623
   19CHTO   O30 8333   8.707   0.613   6.646
   19CHTO   C46 8334   8.741   0.540   6.765
   19CHTO   H88 8335   8.813   0.596   6.826
   19CHTO   C53 8336   8.608   0.522   6.843
   19CHTO   O72 8337   8.632   0.454   6.967
   19CHTO  H199 8338   8.551   0.442   7.015
   19CHTO   O22 8339   8.778   0.720   6.452
   19CHTO   C31 8340   8.728   0.854   6.479
   19CHTO   H59 8341   8.696   0.894   6.381
   19CHTO   C29 8342   8.607   0.863   6.573
   19CHTO   H57 8343   8.635   0.832   6.675
   19CHTO   O21 8344   8.502   0.775   6.531
   19CHTO   H37 8345   8.474   0.799   6.443
   19CHTO   C27 8346   8.558   1.009   6.576
   19CHTO   H55 8347   8.524   1.037   6.474
   19CHTO    N5 8348   8.445   1.023   6.669
   19CHTO   H43 8349   8.472   0.995   6.770
   19CHTO   H44 8350   8.359   0.965   6.637
   19CHTO   C25 8351   8.674   1.100   6.621
   19CHTO   H53 8352   8.702   1.071   6.723
   19CHTO   O17 8353   8.787   1.085   6.533
   19CHTO   C32 8354   8.837   0.951   6.531
   19CHTO   H60 8355   8.867   0.920   6.632
   19CHTO   C36 8356   8.960   0.950   6.439
   19CHTO   O25 8357   9.062   1.034   6.495
   19CHTO   H40 8358   9.140   1.030   6.441
   19CHTO   O15 8359   8.625   1.236   6.620
   19CHTO   C19 8360   8.719   1.333   6.673
   19CHTO   H47 8361   8.665   1.429   6.660
   19CHTO   C20 8362   8.751   1.318   6.822
   19CHTO   H48 8363   8.807   1.226   6.843
   19CHTO   O19 8364   8.627   1.316   6.895
   19CHTO   H35 8365   8.645   1.308   6.989
   19CHTO   C21 8366   8.836   1.439   6.867
   19CHTO   H49 8367   8.777   1.531   6.853
   19CHTO    N4 8368   8.871   1.429   7.009
   19CHTO   H41 8369   8.926   1.517   7.039
   19CHTO   H42 8370   8.934   1.341   7.025
   19CHTO   C22 8371   8.961   1.445   6.779
   19CHTO   H50 8372   9.019   1.354   6.794
   19CHTO   O14 8373   8.925   1.460   6.641
   19CHTO   C23 8374   8.850   1.348   6.592
   19CHTO   H51 8375   8.915   1.258   6.603
   19CHTO   C34 8376   8.821   1.372   6.444
   19CHTO   O23 8377   8.945   1.383   6.375
   19CHTO   H38 8378   8.931   1.406   6.282
   19CHTO   O16 8379   9.035   1.560   6.819
   19CHTO   C24 8380   9.169   1.559   6.767
   19CHTO   H52 8381   9.174   1.511   6.668
   19CHTO   C26 8382   9.264   1.488   6.865
   19CHTO   H54 8383   9.250   1.530   6.966
   19CHTO   O20 8384   9.240   1.346   6.869
   19CHTO   H36 8385   9.297   1.306   6.935
   19CHTO   C30 8386   9.409   1.513   6.822
   19CHTO   H58 8387   9.430   1.467   6.725
   19CHTO    N6 8388   9.502   1.452   6.920
   19CHTO   H45 8389   9.496   1.506   7.013
   19CHTO   H46 8390   9.602   1.460   6.882
   19CHTO   C33 8391   9.433   1.665   6.811
   19CHTO   H61 8392   9.412   1.714   6.907
   19CHTO   O18 8393   9.347   1.718   6.711
   19CHTO   C28 8394   9.208   1.707   6.747
   19CHTO   H56 8395   9.188   1.762   6.840
   19CHTO   C35 8396   9.126   1.769   6.632
   19CHTO   O24 8397   9.152   1.909   6.618
   19CHTO   H39 8398   9.099   1.943   6.548
   19CHTO    O9 8399   9.570   1.691   6.783
   19CHTO   C13 8400   9.596   1.829   6.747
   19CHTO   H26 8401   9.527   1.896   6.800
   19CHTO   C11 8402   9.582   1.841   6.592
   19CHTO   H24 8403   9.477   1.857   6.564
   19CHTO    O8 8404   9.627   1.715   6.538
   19CHTO    H3 8405   9.618   1.713   6.445
   19CHTO    C9 8406   9.668   1.958   6.542
   19CHTO   H22 8407   9.633   2.045   6.599
   19CHTO    N2 8408   9.645   1.988   6.400
   19CHTO   H10 8409   9.539   2.002   6.381
   19CHTO   H11 8410   9.685   1.910   6.335
   19CHTO    C7 8411   9.817   1.930   6.573
   19CHTO   H20 8412   9.857   2.028   6.601
   19CHTO    O4 8413   9.833   1.837   6.680
   19CHTO   C14 8414   9.742   1.863   6.788
   19CHTO   H27 8415   9.748   1.970   6.817
   19CHTO   C18 8416   9.786   1.781   6.911
   19CHTO   O13 8417   9.690   1.799   7.016
   19CHTO    H7 8418   9.715   1.750   7.094
   19CHTO    O2 8419   9.886   1.880   6.457
   19CHTO    C1 8420  10.025   1.847   6.480
   19CHTO   H14 8421  10.033   1.768   6.557
   19CHTO    C2 8422  10.111   1.970   6.522
   19CHTO   H15 8423  10.093   2.053   6.452
   19CHTO    O6 8424  10.081   2.010   6.657
   19CHTO    H1 8425  10.133   2.085   6.681
   19CHTO    C3 8426  10.262   1.930   6.523
   19CHTO   H16 8427  10.280   1.853   6.601
   19CHTO    N1 8428  10.344   2.047   6.555
   19CHTO    H8 8429  10.331   2.123   6.480
   19CHTO    H9 8430  10.449   2.020   6.560
   19CHTO    C4 8431  10.301   1.864   6.388
   19CHTO   H17 8432  10.298   1.941   6.309
   19CHTO    O1 8433  10.215   1.754   6.358
   19CHTO    C5 8434  10.079   1.792   6.346
   19CHTO   H18 8435  10.067   1.868   6.269
   19CHTO   C16 8436  10.001   1.665   6.303
   19CHTO   O11 8437  10.069   1.609   6.191
   19CHTO    H5 8438  10.022   1.533   6.159
   19CHTO    O3 8439  10.435   1.814   6.403
   19CHTO    C6 8440  10.485   1.750   6.284
   19CHTO   H19 8441  10.406   1.698   6.227
   19CHTO    C8 8442  10.558   1.851   6.193
   19CHTO   H21 8443  10.635   1.903   6.252
   19CHTO    O7 8444  10.464   1.945   6.140
   19CHTO    H2 8445  10.506   2.008   6.082
   19CHTO   C12 8446  10.624   1.775   6.076
   19CHTO   H25 8447  10.542   1.730   6.016
   19CHTO    N3 8448  10.695   1.873   5.992
   19CHTO   H12 8449  10.722   1.830   5.896
   19CHTO   H13 8450  10.782   1.911   6.042
   19CHTO   C15 8451  10.716   1.663   6.129
   19CHTO   H28 8452  10.801   1.704   6.184
   19CHTO   O10 8453  10.763   1.579   6.022
   19CHTO    H4 8454  10.821   1.627   5.963
   19CHTO    O5 8455  10.641   1.574   6.213
   19CHTO   C10 8456  10.587   1.643   6.327
   19CHTO   H23 8457  10.669   1.689   6.381
   19CHTO   C17 8458  10.522   1.538   6.419
   19CHTO   O12 8459  10.620   1.440   6.454
   19CHTO    H6 8460  10.581   1.371   6.508
  10.00000  10.00000  10.00000
