UNITED ATOM STRUCTURE FOR MOLECULE UNL
  423
    0CHTO  H203    1   2.326   5.604   3.790
    0CHTO   O82    2   2.269   5.574   3.860
    0CHTO  C123    3   2.334   5.584   3.986
    0CHTO  H227    4   2.361   5.690   4.004
    0CHTO   O77    5   2.240   5.538   4.085
    0CHTO  C118    6   2.290   5.553   4.218
    0CHTO  H222    7   2.315   5.659   4.238
    0CHTO  C125    8   2.183   5.507   4.321
    0CHTO   O84    9   2.066   5.587   4.303
    0CHTO  H205   10   1.996   5.558   4.360
    0CHTO  C114   11   2.416   5.467   4.238
    0CHTO  H218   12   2.388   5.361   4.227
    0CHTO  C116   13   2.523   5.503   4.131
    0CHTO  H220   14   2.562   5.605   4.148
    0CHTO   O79   15   2.633   5.411   4.137
    0CHTO  H201   16   2.698   5.431   4.071
    0CHTO  C120   17   2.458   5.492   3.991
    0CHTO  H224   18   2.429   5.386   3.976
    0CHTO   N21   19   2.558   5.528   3.891
    0CHTO  H211   20   2.573   5.635   3.889
    0CHTO  H212   21   2.529   5.492   3.793
    0CHTO   O75   22   2.458   5.495   4.371
    0CHTO  C112   23   2.565   5.409   4.418
    0CHTO  H216   24   2.658   5.430   4.363
    0CHTO   O73   25   2.523   5.272   4.405
    0CHTO  C113   26   2.620   5.182   4.458
    0CHTO  H217   27   2.717   5.200   4.408
    0CHTO  C124   28   2.576   5.039   4.425
    0CHTO   O83   29   2.544   5.028   4.285
    0CHTO  H204   30   2.512   4.940   4.266
    0CHTO  C109   31   2.638   5.202   4.611
    0CHTO  H213   32   2.538   5.187   4.657
    0CHTO  C110   33   2.686   5.347   4.630
    0CHTO  H214   34   2.784   5.361   4.583
    0CHTO   O78   35   2.696   5.378   4.769
    0CHTO  H200   36   2.723   5.468   4.782
    0CHTO  C111   37   2.582   5.441   4.568
    0CHTO  H215   38   2.485   5.428   4.620
    0CHTO   N19   39   2.621   5.582   4.582
    0CHTO  H207   40   2.541   5.645   4.547
    0CHTO  H208   41   2.711   5.602   4.526
    0CHTO   O74   42   2.730   5.105   4.667
    0CHTO  C115   43   2.718   5.090   4.810
    0CHTO  H219   44   2.661   5.171   4.854
    0CHTO   O76   45   2.647   4.970   4.845
    0CHTO  C122   46   2.700   4.855   4.776
    0CHTO  H226   47   2.668   4.861   4.672
    0CHTO  C126   48   2.637   4.725   4.834
    0CHTO   O85   49   2.675   4.700   4.970
    0CHTO  H206   50   2.654   4.773   5.026
    0CHTO  C121   51   2.856   4.851   4.782
    0CHTO  H225   52   2.890   4.748   4.805
    0CHTO   O81   53   2.907   4.891   4.654
    0CHTO  H202   54   2.881   4.832   4.585
    0CHTO  C119   55   2.905   4.947   4.893
    0CHTO  H223   56   2.851   4.914   4.982
    0CHTO  C117   57   2.860   5.093   4.871
    0CHTO  H221   58   2.925   5.153   4.806
    0CHTO   N20   59   2.855   5.165   4.999
    0CHTO  H209   60   2.952   5.162   5.047
    0CHTO  H210   61   2.780   5.124   5.065
    0CHTO   O80   62   3.042   4.934   4.935
    0CHTO  C103   63   3.145   4.921   4.834
    0CHTO  H190   64   3.124   4.836   4.768
    0CHTO  C101   65   3.174   5.046   4.745
    0CHTO  H188   66   3.190   5.135   4.807
    0CHTO   O68   67   3.066   5.070   4.652
    0CHTO  H168   68   3.076   5.154   4.607
    0CHTO   C99   69   3.305   5.019   4.664
    0CHTO  H186   70   3.291   4.931   4.598
    0CHTO   N17   71   3.346   5.133   4.580
    0CHTO  H174   72   3.349   5.223   4.640
    0CHTO  H175   73   3.279   5.146   4.496
    0CHTO   C97   74   3.422   4.985   4.757
    0CHTO  H184   75   3.438   5.070   4.825
    0CHTO   O64   76   3.387   4.866   4.829
    0CHTO  C104   77   3.274   4.887   4.914
    0CHTO  H191   78   3.295   4.968   4.984
    0CHTO  C108   79   3.250   4.762   4.998
    0CHTO   O71   80   3.372   4.728   5.066
    0CHTO  H171   81   3.360   4.648   5.115
    0CHTO   O62   82   3.539   4.961   4.678
    0CHTO   C91   83   3.663   4.980   4.749
    0CHTO  H178   84   3.666   5.085   4.782
    0CHTO   C92   85   3.777   4.963   4.648
    0CHTO  H179   86   3.762   5.030   4.561
    0CHTO   O66   87   3.899   5.004   4.710
    0CHTO  H166   88   3.972   5.001   4.649
    0CHTO   C93   89   3.790   4.816   4.602
    0CHTO  H180   90   3.891   4.802   4.560
    0CHTO   N16   91   3.694   4.783   4.495
    0CHTO  H172   92   3.593   4.790   4.532
    0CHTO  H173   93   3.714   4.683   4.459
    0CHTO   C94   94   3.772   4.721   4.724
    0CHTO  H181   95   3.672   4.680   4.729
    0CHTO   O61   96   3.798   4.796   4.844
    0CHTO   C95   97   3.690   4.887   4.870
    0CHTO  H182   98   3.600   4.830   4.894
    0CHTO  C106   99   3.726   4.970   4.996
    0CHTO   O69  100   3.743   4.877   5.104
    0CHTO  H169  101   3.759   4.924   5.186
    0CHTO   O63  102   3.872   4.618   4.707
    0CHTO   C96  103   3.858   4.509   4.800
    0CHTO  H183  104   3.754   4.475   4.797
    0CHTO   C98  105   3.893   4.545   4.946
    0CHTO  H185  106   3.825   4.622   4.986
    0CHTO   O67  107   3.872   4.428   5.025
    0CHTO  H167  108   3.886   4.450   5.116
    0CHTO  C102  109   4.042   4.590   4.957
    0CHTO  H189  110   4.071   4.575   5.062
    0CHTO   N18  111   4.063   4.733   4.928
    0CHTO  H176  112   4.001   4.794   4.993
    0CHTO  H177  113   4.042   4.758   4.825
    0CHTO  C105  114   4.130   4.502   4.867
    0CHTO  H192  115   4.151   4.555   4.773
    0CHTO   O65  116   4.064   4.378   4.837
    0CHTO  C100  117   3.950   4.395   4.752
    0CHTO  H187  118   3.987   4.420   4.651
    0CHTO  C107  119   3.874   4.261   4.743
    0CHTO   O70  120   3.810   4.234   4.867
    0CHTO  H170  121   3.756   4.156   4.863
    0CHTO   O57  122   4.250   4.485   4.945
    0CHTO   C85  123   4.346   4.393   4.892
    0CHTO  H157  124   4.303   4.291   4.891
    0CHTO   C83  125   4.464   4.392   4.991
    0CHTO  H155  126   4.429   4.368   5.093
    0CHTO   O56  127   4.521   4.524   4.995
    0CHTO  H135  128   4.457   4.588   5.023
    0CHTO   C81  129   4.569   4.289   4.948
    0CHTO  H153  130   4.531   4.188   4.968
    0CHTO   N14  131   4.693   4.307   5.026
    0CHTO  H141  132   4.671   4.290   5.130
    0CHTO  H142  133   4.731   4.408   5.014
    0CHTO   C79  134   4.600   4.302   4.797
    0CHTO  H151  135   4.548   4.219   4.746
    0CHTO   O52  136   4.548   4.427   4.745
    0CHTO   C86  137   4.403   4.434   4.753
    0CHTO  H158  138   4.381   4.540   4.732
    0CHTO   C90  139   4.338   4.353   4.640
    0CHTO   O60  140   4.416   4.371   4.521
    0CHTO  H138  141   4.378   4.320   4.450
    0CHTO   O50  142   4.741   4.292   4.773
    0CHTO   C73  143   4.780   4.303   4.635
    0CHTO  H145  144   4.739   4.394   4.589
    0CHTO   C74  145   4.739   4.180   4.552
    0CHTO  H146  146   4.629   4.173   4.547
    0CHTO   O54  147   4.787   4.195   4.418
    0CHTO  H133  148   4.760   4.120   4.367
    0CHTO   C75  149   4.801   4.055   4.618
    0CHTO  H147  150   4.764   4.047   4.722
    0CHTO   N13  151   4.764   3.933   4.543
    0CHTO  H139  152   4.657   3.922   4.543
    0CHTO  H140  153   4.808   3.847   4.591
    0CHTO   C76  154   4.955   4.074   4.619
    0CHTO  H148  155   4.988   4.079   4.514
    0CHTO   O49  156   4.993   4.194   4.690
    0CHTO   C77  157   4.935   4.312   4.635
    0CHTO  H149  158   4.970   4.327   4.533
    0CHTO   C88  159   4.981   4.435   4.716
    0CHTO   O58  160   5.125   4.445   4.711
    0CHTO  H136  161   5.157   4.522   4.756
    0CHTO   O51  162   5.012   3.962   4.690
    0CHTO   C78  163   5.156   3.964   4.694
    0CHTO  H150  164   5.195   4.067   4.705
    0CHTO   C80  165   5.216   3.901   4.567
    0CHTO  H152  166   5.171   3.801   4.552
    0CHTO   O55  167   5.188   3.985   4.454
    0CHTO  H134  168   5.218   3.945   4.373
    0CHTO   C84  169   5.369   3.889   4.583
    0CHTO  H156  170   5.412   3.989   4.589
    0CHTO   N15  171   5.426   3.821   4.466
    0CHTO  H143  172   5.385   3.722   4.459
    0CHTO  H144  173   5.533   3.814   4.478
    0CHTO   C87  174   5.401   3.811   4.712
    0CHTO  H159  175   5.361   3.709   4.703
    0CHTO   O53  176   5.343   3.880   4.824
    0CHTO   C82  177   5.200   3.883   4.817
    0CHTO  H154  178   5.160   3.781   4.813
    0CHTO   C89  179   5.143   3.949   4.945
    0CHTO   O59  180   5.190   3.874   5.058
    0CHTO  H137  181   5.158   3.914   5.137
    0CHTO   O45  182   5.545   3.807   4.726
    0CHTO   C67  183   5.585   3.770   4.859
    0CHTO  H124  184   5.551   3.845   4.931
    0CHTO   C65  185   5.525   3.633   4.898
    0CHTO  H122  186   5.521   3.571   4.808
    0CHTO   O44  187   5.393   3.659   4.950
    0CHTO  H102  188   5.345   3.579   4.968
    0CHTO   C63  189   5.618   3.561   4.998
    0CHTO  H120  190   5.693   3.503   4.942
    0CHTO   N11  191   5.549   3.461   5.082
    0CHTO  H108  192   5.498   3.390   5.020
    0CHTO  H109  193   5.477   3.509   5.148
    0CHTO   C61  194   5.692   3.665   5.086
    0CHTO  H118  195   5.752   3.608   5.159
    0CHTO   O40  196   5.781   3.743   5.008
    0CHTO   C68  197   5.739   3.764   4.872
    0CHTO  H125  198   5.777   3.681   4.810
    0CHTO   C72  199   5.805   3.894   4.819
    0CHTO   O48  200   5.781   3.915   4.680
    0CHTO  H105  201   5.826   3.993   4.650
    0CHTO   O38  202   5.602   3.754   5.155
    0CHTO   C55  203   5.668   3.816   5.266
    0CHTO  H112  204   5.774   3.833   5.242
    0CHTO   C56  205   5.650   3.734   5.397
    0CHTO  H113  206   5.542   3.730   5.419
    0CHTO   O42  207   5.694   3.598   5.383
    0CHTO  H100  208   5.672   3.547   5.460
    0CHTO   C57  209   5.726   3.803   5.512
    0CHTO  H114  210   5.833   3.805   5.489
    0CHTO   N10  211   5.705   3.732   5.640
    0CHTO  H106  212   5.722   3.798   5.723
    0CHTO  H107  213   5.770   3.647   5.647
    0CHTO   C58  214   5.675   3.947   5.524
    0CHTO  H115  215   5.570   3.945   5.560
    0CHTO   O37  216   5.684   4.018   5.400
    0CHTO   C59  217   5.607   3.955   5.296
    0CHTO  H116  218   5.502   3.947   5.326
    0CHTO   C70  219   5.620   4.046   5.173
    0CHTO   O46  220   5.579   4.180   5.204
    0CHTO  H103  221   5.583   4.233   5.126
    0CHTO   O39  222   5.759   4.011   5.622
    0CHTO   C60  223   5.743   4.153   5.630
    0CHTO  H117  224   5.770   4.198   5.534
    0CHTO   C62  225   5.600   4.195   5.668
    0CHTO  H119  226   5.534   4.170   5.583
    0CHTO   O43  227   5.560   4.121   5.784
    0CHTO  H101  228   5.468   4.136   5.805
    0CHTO   C66  229   5.599   4.348   5.692
    0CHTO  H123  230   5.624   4.399   5.598
    0CHTO   N12  231   5.467   4.395   5.734
    0CHTO  H110  232   5.445   4.363   5.835
    0CHTO  H111  233   5.392   4.361   5.665
    0CHTO   C69  234   5.703   4.384   5.800
    0CHTO  H126  235   5.679   4.331   5.894
    0CHTO   O41  236   5.833   4.349   5.751
    0CHTO   C64  237   5.844   4.206   5.734
    0CHTO  H121  238   5.825   4.155   5.831
    0CHTO   C71  239   5.988   4.171   5.690
    0CHTO   O47  240   6.078   4.228   5.787
    0CHTO  H104  241   6.168   4.208   5.764
    0CHTO   O34  242   5.688   4.526   5.819
    0CHTO   C49  243   5.738   4.576   5.945
    0CHTO   H91  244   5.687   4.523   6.026
    0CHTO   C47  245   5.703   4.725   5.946
    0CHTO   H89  246   5.743   4.768   6.040
    0CHTO   O33  247   5.561   4.749   5.940
    0CHTO   H70  248   5.519   4.711   6.016
    0CHTO   C45  249   5.769   4.792   5.822
    0CHTO   H87  250   5.701   4.790   5.736
    0CHTO    N8  251   5.799   4.932   5.855
    0CHTO   H75  252   5.709   4.980   5.892
    0CHTO   H76  253   5.835   4.985   5.768
    0CHTO   C43  254   5.899   4.717   5.782
    0CHTO   H85  255   5.871   4.634   5.717
    0CHTO   O29  256   5.963   4.674   5.902
    0CHTO   C50  257   5.891   4.565   5.962
    0CHTO   H92  258   5.925   4.470   5.917
    0CHTO   C54  259   5.930   4.552   6.111
    0CHTO   O36  260   6.072   4.529   6.120
    0CHTO   H72  261   6.097   4.519   6.211
    0CHTO   O27  262   5.984   4.806   5.708
    0CHTO   C37  263   6.115   4.754   5.679
    0CHTO   H79  264   6.169   4.729   5.772
    0CHTO   C38  265   6.108   4.626   5.593
    0CHTO   H80  266   6.039   4.643   5.508
    0CHTO   O31  267   6.062   4.518   5.673
    0CHTO   H68  268   6.055   4.437   5.624
    0CHTO   C39  269   6.249   4.587   5.541
    0CHTO   H81  270   6.311   4.561   5.628
    0CHTO    N7  271   6.241   4.470   5.452
    0CHTO   H73  272   6.340   4.435   5.428
    0CHTO   H74  273   6.187   4.494   5.362
    0CHTO   C40  274   6.317   4.705   5.468
    0CHTO   H82  275   6.258   4.733   5.379
    0CHTO   O26  276   6.326   4.813   5.562
    0CHTO   C41  277   6.195   4.861   5.602
    0CHTO   H83  278   6.139   4.892   5.512
    0CHTO   C52  279   6.220   4.985   5.690
    0CHTO   O35  280   6.300   5.083   5.621
    0CHTO   H71  281   6.305   5.164   5.671
    0CHTO   O28  282   6.449   4.666   5.427
    0CHTO   C42  283   6.523   4.764   5.352
    0CHTO   H84  284   6.623   4.719   5.339
    0CHTO   C44  285   6.547   4.899   5.422
    0CHTO   H86  286   6.452   4.954   5.428
    0CHTO   O32  287   6.598   4.878   5.554
    0CHTO   H69  288   6.606   4.961   5.600
    0CHTO   C48  289   6.645   4.982   5.335
    0CHTO   H90  290   6.740   4.928   5.325
    0CHTO    N9  291   6.675   5.112   5.401
    0CHTO   H77  292   6.589   5.176   5.399
    0CHTO   H78  293   6.759   5.160   5.353
    0CHTO   C51  294   6.580   5.001   5.195
    0CHTO   H93  295   6.486   5.055   5.208
    0CHTO   O30  296   6.562   4.873   5.137
    0CHTO   C46  297   6.468   4.792   5.210
    0CHTO   H88  298   6.371   4.843   5.217
    0CHTO   C53  299   6.455   4.660   5.130
    0CHTO   O72  300   6.358   4.574   5.192
    0CHTO  H199  301   6.349   4.493   5.144
    0CHTO   O22  302   6.673   5.076   5.114
    0CHTO   C31  303   6.626   5.114   4.981
    0CHTO   H59  304   6.711   5.165   4.933
    0CHTO   C29  305   6.585   4.998   4.889
    0CHTO   H57  306   6.495   4.948   4.928
    0CHTO   O21  307   6.688   4.899   4.882
    0CHTO   H37  308   6.768   4.938   4.848
    0CHTO   C27  309   6.555   5.055   4.749
    0CHTO   H55  310   6.648   5.100   4.709
    0CHTO    N5  311   6.510   4.948   4.659
    0CHTO   H43  312   6.421   4.899   4.695
    0CHTO   H44  313   6.588   4.874   4.643
    0CHTO   C25  314   6.445   5.162   4.761
    0CHTO   H53  315   6.354   5.113   4.799
    0CHTO   O17  316   6.485   5.266   4.852
    0CHTO   C32  317   6.510   5.217   4.984
    0CHTO   H60  318   6.420   5.168   5.024
    0CHTO   C36  319   6.546   5.338   5.072
    0CHTO   O25  320   6.434   5.426   5.079
    0CHTO   H40  321   6.453   5.499   5.137
    0CHTO   O15  322   6.421   5.215   4.629
    0CHTO   C19  323   6.310   5.308   4.621
    0CHTO   H47  324   6.311   5.339   4.515
    0CHTO   C20  325   6.172   5.247   4.650
    0CHTO   H48  326   6.162   5.216   4.755
    0CHTO   O19  327   6.154   5.133   4.565
    0CHTO   H35  328   6.068   5.094   4.580
    0CHTO   C21  329   6.064   5.353   4.619
    0CHTO   H49  330   6.069   5.379   4.512
    0CHTO    N4  331   5.930   5.301   4.647
    0CHTO   H41  332   5.856   5.375   4.619
    0CHTO   H42  333   5.920   5.279   4.753
    0CHTO   C22  334   6.093   5.478   4.703
    0CHTO   H50  335   6.087   5.451   4.809
    0CHTO   O14  336   6.223   5.531   4.671
    0CHTO   C23  337   6.328   5.438   4.703
    0CHTO   H51  338   6.323   5.419   4.812
    0CHTO   C34  339   6.461   5.506   4.669
    0CHTO   O23  340   6.473   5.624   4.748
    0CHTO   H38  341   6.552   5.673   4.725
    0CHTO   O16  342   5.995   5.575   4.669
    0CHTO   C24  343   5.992   5.684   4.763
    0CHTO   H52  344   6.092   5.705   4.804
    0CHTO   C26  345   5.894   5.653   4.877
    0CHTO   H54  346   5.797   5.621   4.834
    0CHTO   O20  347   5.943   5.549   4.964
    0CHTO   H36  348   5.877   5.529   5.030
    0CHTO   C30  349   5.870   5.780   4.960
    0CHTO   H58  350   5.962   5.812   5.010
    0CHTO    N6  351   5.769   5.754   5.065
    0CHTO   H45  352   5.673   5.739   5.019
    0CHTO   H46  353   5.764   5.840   5.129
    0CHTO   C33  354   5.824   5.893   4.866
    0CHTO   H61  355   5.732   5.864   4.813
    0CHTO   O18  356   5.926   5.920   4.771
    0CHTO   C28  357   5.949   5.808   4.683
    0CHTO   H56  358   5.858   5.785   4.626
    0CHTO   C35  359   6.061   5.850   4.585
    0CHTO   O24  360   6.020   5.959   4.502
    0CHTO   H39  361   6.090   5.980   4.442
    0CHTO    O9  362   5.790   6.009   4.942
    0CHTO   C13  363   5.769   6.127   4.861
    0CHTO   H26  364   5.727   6.099   4.763
    0CHTO   C11  365   5.906   6.200   4.847
    0CHTO   H24  366   5.964   6.157   4.764
    0CHTO    O8  367   5.976   6.177   4.970
    0CHTO    H3  368   6.062   6.215   4.969
    0CHTO    C9  369   5.882   6.349   4.822
    0CHTO   H22  370   5.818   6.353   4.733
    0CHTO    N2  371   6.006   6.422   4.789
    0CHTO   H10  372   6.057   6.373   4.706
    0CHTO   H11  373   6.072   6.430   4.874
    0CHTO    C7  374   5.809   6.411   4.944
    0CHTO   H20  375   5.739   6.483   4.899
    0CHTO    O4  376   5.738   6.313   5.019
    0CHTO   C14  377   5.669   6.220   4.935
    0CHTO   H27  378   5.608   6.275   4.860
    0CHTO   C18  379   5.571   6.138   5.021
    0CHTO   O13  380   5.508   6.039   4.939
    0CHTO    H7  381   5.446   5.987   4.990
    0CHTO    O2  382   5.901   6.480   5.031
    0CHTO    C1  383   5.840   6.536   5.149
    0CHTO   H14  384   5.794   6.456   5.210
    0CHTO    C2  385   5.733   6.645   5.118
    0CHTO   H15  386   5.776   6.718   5.047
    0CHTO    O6  387   5.614   6.586   5.064
    0CHTO    H1  388   5.550   6.653   5.045
    0CHTO    C3  389   5.690   6.715   5.250
    0CHTO   H16  390   5.639   6.642   5.316
    0CHTO    N1  391   5.595   6.823   5.221
    0CHTO    H8  392   5.642   6.897   5.158
    0CHTO    H9  393   5.561   6.870   5.312
    0CHTO    C4  394   5.814   6.764   5.329
    0CHTO   H17  395   5.861   6.847   5.273
    0CHTO    O1  396   5.906   6.657   5.351
    0CHTO    C5  397   5.955   6.600   5.230
    0CHTO   H18  398   6.003   6.677   5.169
    0CHTO   C16  399   6.061   6.494   5.270
    0CHTO   O11  400   6.152   6.557   5.361
    0CHTO    H5  401   6.221   6.496   5.385
    0CHTO    O3  402   5.768   6.810   5.457
    0CHTO    C6  403   5.874   6.860   5.541
    0CHTO   H19  404   5.969   6.806   5.526
    0CHTO    C8  405   5.895   7.011   5.520
    0CHTO   H21  406   5.799   7.063   5.534
    0CHTO    O7  407   5.947   7.035   5.389
    0CHTO    H2  408   5.963   7.128   5.374
    0CHTO   C12  409   5.997   7.062   5.624
    0CHTO   H25  410   6.094   7.012   5.602
    0CHTO    N3  411   6.015   7.207   5.604
    0CHTO   H12  412   6.102   7.244   5.656
    0CHTO   H13  413   5.927   7.261   5.635
    0CHTO   C15  414   5.952   7.026   5.767
    0CHTO   H28  415   5.860   7.078   5.794
    0CHTO   O10  416   6.055   7.056   5.864
    0CHTO    H4  417   6.070   7.150   5.870
    0CHTO    O5  418   5.934   6.884   5.778
    0CHTO   C10  419   5.832   6.838   5.688
    0CHTO   H23  420   5.740   6.892   5.709
    0CHTO   C17  421   5.808   6.689   5.717
    0CHTO   O12  422   5.772   6.673   5.854
    0CHTO    H6  423   5.760   6.581   5.876
  10.00000  10.00000  10.00000
