ALL ATOM STRUCTURE FOR MOLECULE ACETIC ACID
  620
    0ACOH    H4    1   0.991   1.117   1.200
    0ACOH    O2    2   1.087   1.102   1.199
    0ACOH    C2    3   1.147   1.223   1.201
    0ACOH    O1    4   1.083   1.327   1.203
    0ACOH    C1    5   1.297   1.211   1.201
    0ACOH    H1    6   1.342   1.311   1.199
    0ACOH    H2    7   1.330   1.154   1.114
    0ACOH    H3    8   1.330   1.157   1.290
    1ACOH    H4    9   2.044   1.393   2.004
    1ACOH    O2   10   2.025   1.378   1.910
    1ACOH    C2   11   2.117   1.291   1.863
    1ACOH    O1   12   2.205   1.246   1.934
    1ACOH    C1   13   2.096   1.261   1.717
    1ACOH    H1   14   2.175   1.193   1.682
    1ACOH    H2   15   2.098   1.353   1.659
    1ACOH    H3   16   1.999   1.215   1.703
    2ACOH    H4   17   0.842   2.183   2.182
    2ACOH    O2   18   0.848   2.175   2.278
    2ACOH    C2   19   0.736   2.228   2.331
    2ACOH    O1   20   0.648   2.276   2.261
    2ACOH    C1   21   0.735   2.219   2.481
    2ACOH    H1   22   0.644   2.266   2.521
    2ACOH    H2   23   0.823   2.269   2.522
    2ACOH    H3   24   0.739   2.114   2.512
    3ACOH    H4   25   0.089   1.785   1.336
    3ACOH    O2   26   0.096   1.748   1.246
    3ACOH    C2   27   0.203   1.806   1.187
    3ACOH    O1   28   0.272   1.889   1.244
    3ACOH    C1   29   0.223   1.756   1.046
    3ACOH    H1   30   0.309   1.807   1.001
    3ACOH    H2   31   0.134   1.773   0.987
    3ACOH    H3   32   0.242   1.648   1.048
    4SOL     OW   33   1.386   1.053   1.944
    4SOL    HW1   34   1.343   1.123   2.002
    4SOL    HW2   35   1.342   0.964   1.960
    5SOL     OW   36   1.765   1.316   1.336
    5SOL    HW1   37   1.766   1.356   1.427
    5SOL    HW2   38   1.800   1.382   1.269
    6SOL     OW   39   1.817   0.802   1.868
    6SOL    HW1   40   1.853   0.749   1.946
    6SOL    HW2   41   1.795   0.895   1.898
    7SOL     OW   42   0.363   1.526   0.345
    7SOL    HW1   43   0.437   1.467   0.378
    7SOL    HW2   44   0.281   1.471   0.329
    8SOL     OW   45   0.014   1.127   0.069
    8SOL    HW1   46  -0.040   1.108   0.151
    8SOL    HW2   47   0.105   1.159   0.094
    9SOL     OW   48   1.285   0.593   2.380
    9SOL    HW1   49   1.311   0.650   2.302
    9SOL    HW2   50   1.262   0.501   2.349
   10SOL     OW   51   1.105   0.425   1.910
   10SOL    HW1   52   1.076   0.417   1.815
   10SOL    HW2   53   1.203   0.405   1.917
   11SOL     OW   54   1.377   0.464   0.425
   11SOL    HW1   55   1.390   0.495   0.520
   11SOL    HW2   56   1.336   0.373   0.425
   12SOL     OW   57   1.416   1.949   1.398
   12SOL    HW1   58   1.432   1.886   1.474
   12SOL    HW2   59   1.501   1.996   1.374
   13SOL     OW   60   0.896   0.475   1.738
   13SOL    HW1   61   0.861   0.566   1.760
   13SOL    HW2   62   0.866   0.409   1.807
   14SOL     OW   63   0.236   2.089   0.322
   14SOL    HW1   64   0.246   2.186   0.299
   14SOL    HW2   65   0.191   2.079   0.410
   15SOL     OW   66   2.142   0.523   0.384
   15SOL    HW1   67   2.149   0.449   0.450
   15SOL    HW2   68   2.114   0.607   0.430
   16SOL     OW   69   0.581   0.130   2.231
   16SOL    HW1   70   0.596   0.135   2.132
   16SOL    HW2   71   0.524   0.051   2.253
   17SOL     OW   72   2.064   0.713   0.611
   17SOL    HW1   73   2.109   0.779   0.551
   17SOL    HW2   74   2.063   0.623   0.567
   18SOL     OW   75   0.465   0.729   1.897
   18SOL    HW1   76   0.463   0.829   1.895
   18SOL    HW2   77   0.519   0.695   1.821
   19SOL     OW   78   1.094   2.136   0.356
   19SOL    HW1   79   1.029   2.147   0.431
   19SOL    HW2   80   1.065   2.190   0.278
   20SOL     OW   81   1.610   1.253   1.629
   20SOL    HW1   82   1.693   1.232   1.681
   20SOL    HW2   83   1.529   1.235   1.685
   21SOL     OW   84   1.922   1.000   0.300
   21SOL    HW1   85   1.855   1.022   0.371
   21SOL    HW2   86   1.881   0.943   0.230
   22SOL     OW   87   1.729   2.029   2.112
   22SOL    HW1   88   1.728   2.083   2.196
   22SOL    HW2   89   1.789   1.949   2.123
   23SOL     OW   90   0.331   0.927   1.214
   23SOL    HW1   91   0.274   0.855   1.255
   23SOL    HW2   92   0.273   0.996   1.170
   24SOL     OW   93   2.072   2.168   0.234
   24SOL    HW1   94   2.093   2.116   0.317
   24SOL    HW2   95   2.000   2.122   0.182
   25SOL     OW   96   1.589   0.587   1.311
   25SOL    HW1   97   1.670   0.530   1.328
   25SOL    HW2   98   1.616   0.677   1.278
   26SOL     OW   99   1.680   1.467   1.167
   26SOL    HW1  100   1.662   1.564   1.156
   26SOL    HW2  101   1.611   1.414   1.118
   27SOL     OW  102   1.700   2.088   0.693
   27SOL    HW1  103   1.774   2.142   0.655
   27SOL    HW2  104   1.727   1.992   0.699
   28SOL     OW  105   0.712   1.713   1.178
   28SOL    HW1  106   0.674   1.698   1.087
   28SOL    HW2  107   0.668   1.653   1.244
   29SOL     OW  108   0.854   1.587   0.329
   29SOL    HW1  109   0.869   1.500   0.377
   29SOL    HW2  110   0.922   1.654   0.358
   30SOL     OW  111   0.403   2.371   1.756
   30SOL    HW1  112   0.382   2.289   1.701
   30SOL    HW2  113   0.501   2.389   1.753
   31SOL     OW  114   1.894   0.086   1.560
   31SOL    HW1  115   1.908   0.052   1.467
   31SOL    HW2  116   1.904   0.185   1.562
   32SOL     OW  117   1.075   0.466   2.191
   32SOL    HW1  118   1.148   0.521   2.234
   32SOL    HW2  119   1.050   0.390   2.251
   33SOL     OW  120   0.921   0.335   1.471
   33SOL    HW1  121   0.828   0.303   1.491
   33SOL    HW2  122   0.988   0.272   1.510
   34SOL     OW  123   1.132   1.862   2.175
   34SOL    HW1  124   1.148   1.911   2.260
   34SOL    HW2  125   1.182   1.776   2.174
   35SOL     OW  126   0.388   0.852   1.688
   35SOL    HW1  127   0.409   0.943   1.653
   35SOL    HW2  128   0.467   0.792   1.679
   36SOL     OW  129   1.193   2.051   1.634
   36SOL    HW1  130   1.118   2.063   1.569
   36SOL    HW2  131   1.210   2.137   1.683
   37SOL     OW  132   0.861   0.528   0.634
   37SOL    HW1  133   0.827   0.522   0.540
   37SOL    HW2  134   0.956   0.495   0.638
   38SOL     OW  135   2.403   0.238   1.439
   38SOL    HW1  136   2.417   0.231   1.340
   38SOL    HW2  137   2.308   0.260   1.458
   39SOL     OW  138   1.672   1.809   1.566
   39SOL    HW1  139   1.576   1.838   1.572
   39SOL    HW2  140   1.725   1.849   1.641
   40SOL     OW  141   1.230   0.233   2.030
   40SOL    HW1  142   1.157   0.270   1.971
   40SOL    HW2  143   1.192   0.208   2.119
   41SOL     OW  144   0.537   1.787   0.946
   41SOL    HW1  145   0.555   1.857   1.016
   41SOL    HW2  146   0.551   1.696   0.985
   42SOL     OW  147   1.937   1.951   1.930
   42SOL    HW1  148   1.950   1.952   1.831
   42SOL    HW2  149   1.854   2.000   1.955
   43SOL     OW  150   2.125   0.559   1.570
   43SOL    HW1  151   2.166   0.474   1.604
   43SOL    HW2  152   2.050   0.588   1.630
   44SOL     OW  153   0.771   2.004   1.429
   44SOL    HW1  154   0.686   2.031   1.475
   44SOL    HW2  155   0.793   2.070   1.357
   45SOL     OW  156   1.910   1.680   2.386
   45SOL    HW1  157   1.821   1.716   2.357
   45SOL    HW2  158   1.898   1.611   2.457
   46SOL     OW  159   0.168   0.503   0.941
   46SOL    HW1  160   0.170   0.603   0.932
   46SOL    HW2  161   0.106   0.477   1.016
   47SOL     OW  162   2.156   1.574   0.680
   47SOL    HW1  163   2.133   1.592   0.584
   47SOL    HW2  164   2.237   1.517   0.686
   48SOL     OW  165   1.242   2.091   2.183
   48SOL    HW1  166   1.285   2.084   2.273
   48SOL    HW2  167   1.143   2.107   2.194
   49SOL     OW  168   0.717   2.376   1.238
   49SOL    HW1  169   0.778   2.416   1.306
   49SOL    HW2  170   0.759   2.380   1.147
   50SOL     OW  171   0.374   2.110   1.034
   50SOL    HW1  172   0.347   2.165   0.955
   50SOL    HW2  173   0.413   2.168   1.105
   51SOL     OW  174   0.651   1.340   0.493
   51SOL    HW1  175   0.678   1.341   0.590
   51SOL    HW2  176   0.577   1.405   0.478
   52SOL     OW  177   2.388   1.739   1.694
   52SOL    HW1  178   2.426   1.741   1.601
   52SOL    HW2  179   2.292   1.768   1.692
   53SOL     OW  180   0.575   1.917   0.068
   53SOL    HW1  181   0.525   1.844   0.115
   53SOL    HW2  182   0.618   1.881  -0.015
   54SOL     OW  183   2.110   1.541   2.068
   54SOL    HW1  184   2.198   1.497   2.088
   54SOL    HW2  185   2.040   1.508   2.131
   55SOL     OW  186   0.756   0.005   2.162
   55SOL    HW1  187   0.854   0.021   2.144
   55SOL    HW2  188   0.705   0.005   2.076
   56SOL     OW  189   1.009   2.330  -0.004
   56SOL    HW1  190   0.916   2.324   0.032
   56SOL    HW2  191   1.061   2.399   0.047
   57SOL     OW  192   0.928   0.559   1.334
   57SOL    HW1  193   1.013   0.530   1.290
   57SOL    HW2  194   0.911   0.503   1.415
   58SOL     OW  195   2.269   1.704   1.935
   58SOL    HW1  196   2.194   1.649   1.898
   58SOL    HW2  197   2.302   1.767   1.865
   59SOL     OW  198   1.985   1.510   1.049
   59SOL    HW1  199   1.894   1.484   1.016
   59SOL    HW2  200   1.979   1.596   1.100
   60SOL     OW  201   2.407   0.019   1.052
   60SOL    HW1  202   2.338   0.062   1.111
   60SOL    HW2  203   2.380  -0.075   1.031
   61SOL     OW  204   1.201   2.005   1.815
   61SOL    HW1  205   1.262   1.934   1.779
   61SOL    HW2  206   1.107   1.972   1.817
   62SOL     OW  207   0.088   0.928   0.316
   62SOL    HW1  208   0.081   0.937   0.416
   62SOL    HW2  209   0.180   0.898   0.291
   63SOL     OW  210   0.402   1.107   0.443
   63SOL    HW1  211   0.425   1.131   0.349
   63SOL    HW2  212   0.483   1.114   0.502
   64SOL     OW  213   0.389   1.310   1.787
   64SOL    HW1  214   0.298   1.350   1.802
   64SOL    HW2  215   0.385   1.243   1.713
   65SOL     OW  216   1.817   0.004   1.983
   65SOL    HW1  217   1.858   0.095   1.985
   65SOL    HW2  218   1.819  -0.037   2.074
   66SOL     OW  219   0.174   0.411   1.803
   66SOL    HW1  220   0.161   0.397   1.705
   66SOL    HW2  221   0.240   0.484   1.819
   67SOL     OW  222   0.585   0.818   1.029
   67SOL    HW1  223   0.498   0.781   0.995
   67SOL    HW2  224   0.576   0.844   1.125
   68SOL     OW  225   0.282   2.342   0.912
   68SOL    HW1  226   0.210   2.313   0.848
   68SOL    HW2  227   0.242   2.386   0.992
   69SOL     OW  228   1.262   1.787   0.589
   69SOL    HW1  229   1.357   1.803   0.561
   69SOL    HW2  230   1.220   1.873   0.619
   70SOL     OW  231   0.794   2.370   1.518
   70SOL    HW1  232   0.727   2.338   1.451
   70SOL    HW2  233   0.767   2.340   1.610
   71SOL     OW  234   0.330   0.893   0.528
   71SOL    HW1  235   0.318   0.921   0.624
   71SOL    HW2  236   0.414   0.933   0.492
   72SOL     OW  237   0.956   1.830   1.535
   72SOL    HW1  238   0.944   1.749   1.594
   72SOL    HW2  239   0.922   1.911   1.581
   73SOL     OW  240   1.742   1.125   0.814
   73SOL    HW1  241   1.795   1.072   0.879
   73SOL    HW2  242   1.795   1.204   0.782
   74SOL     OW  243   1.173   2.293   1.355
   74SOL    HW1  244   1.236   2.354   1.402
   74SOL    HW2  245   1.196   2.287   1.258
   75SOL     OW  246   1.725   1.702   0.866
   75SOL    HW1  247   1.775   1.697   0.780
   75SOL    HW2  248   1.632   1.736   0.850
   76SOL     OW  249   0.589   1.655   1.793
   76SOL    HW1  250   0.558   1.622   1.704
   76SOL    HW2  251   0.679   1.697   1.785
   77SOL     OW  252   0.203   1.553   1.574
   77SOL    HW1  253   0.205   1.593   1.483
   77SOL    HW2  254   0.166   1.460   1.570
   78SOL     OW  255   2.049   1.268   0.455
   78SOL    HW1  256   2.033   1.169   0.455
   78SOL    HW2  257   1.962   1.316   0.465
   79SOL     OW  258   0.395   2.101   0.686
   79SOL    HW1  259   0.378   2.107   0.784
   79SOL    HW2  260   0.314   2.133   0.635
   80SOL     OW  261   0.367   1.952   0.553
   80SOL    HW1  262   0.274   1.957   0.516
   80SOL    HW2  263   0.393   1.856   0.564
   81SOL     OW  264   0.084   1.966   1.407
   81SOL    HW1  265   0.050   1.980   1.314
   81SOL    HW2  266   0.153   1.894   1.407
   82SOL     OW  267   2.353   1.784   2.360
   82SOL    HW1  268   2.448   1.817   2.356
   82SOL    HW2  269   2.293   1.857   2.393
   83SOL     OW  270   0.119   2.039   0.888
   83SOL    HW1  271   0.189   1.997   0.829
   83SOL    HW2  272   0.156   2.051   0.980
   84SOL     OW  273   1.633   2.333   0.263
   84SOL    HW1  274   1.617   2.299   0.170
   84SOL    HW2  275   1.593   2.424   0.274
   85SOL     OW  276   0.207   1.678   2.083
   85SOL    HW1  277   0.220   1.668   1.984
   85SOL    HW2  278   0.124   1.730   2.102
   86SOL     OW  279   0.240   2.193   2.398
   86SOL    HW1  280   0.339   2.193   2.383
   86SOL    HW2  281   0.196   2.132   2.332
   87SOL     OW  282   1.105   1.578   2.029
   87SOL    HW1  283   1.053   1.590   2.113
   87SOL    HW2  284   1.201   1.602   2.045
   88SOL     OW  285   0.077   0.540   1.509
   88SOL    HW1  286  -0.010   0.492   1.524
   88SOL    HW2  287   0.140   0.480   1.459
   89SOL     OW  288   1.415   1.153   0.863
   89SOL    HW1  289   1.322   1.163   0.828
   89SOL    HW2  290   1.461   1.241   0.863
   90SOL     OW  291   1.709   0.476   0.427
   90SOL    HW1  292   1.803   0.461   0.459
   90SOL    HW2  293   1.661   0.389   0.421
   91SOL     OW  294   1.836   1.629   0.496
   91SOL    HW1  295   1.836   1.665   0.403
   91SOL    HW2  296   1.799   1.537   0.497
   92SOL     OW  297   1.159   1.234   1.596
   92SOL    HW1  298   1.169   1.154   1.657
   92SOL    HW2  299   1.097   1.300   1.637
   93SOL     OW  300   1.946   0.159   0.917
   93SOL    HW1  301   1.864   0.151   0.861
   93SOL    HW2  302   2.025   0.122   0.869
   94SOL     OW  303   1.162   1.925   0.129
   94SOL    HW1  304   1.110   1.971   0.057
   94SOL    HW2  305   1.260   1.934   0.112
   95SOL     OW  306   1.695   1.830   1.875
   95SOL    HW1  307   1.729   1.788   1.791
   95SOL    HW2  308   1.772   1.868   1.927
   96SOL     OW  309   1.218   0.238   1.006
   96SOL    HW1  310   1.219   0.204   1.100
   96SOL    HW2  311   1.243   0.335   1.005
   97SOL     OW  312   0.749   1.925   2.040
   97SOL    HW1  313   0.781   1.876   1.959
   97SOL    HW2  314   0.690   2.001   2.013
   98SOL     OW  315   1.351   1.498   0.789
   98SOL    HW1  316   1.418   1.545   0.731
   98SOL    HW2  317   1.325   1.410   0.749
   99SOL     OW  318   1.926   0.781   0.979
   99SOL    HW1  319   1.899   0.729   0.898
   99SOL    HW2  320   2.013   0.748   1.014
  100SOL     OW  321   0.110   0.714   2.206
  100SOL    HW1  322   0.052   0.661   2.143
  100SOL    HW2  323   0.182   0.761   2.155
  101SOL     OW  324   0.245   2.119   2.152
  101SOL    HW1  325   0.223   2.080   2.063
  101SOL    HW2  326   0.262   2.217   2.143
  102SOL     OW  327   1.042   0.804   1.044
  102SOL    HW1  328   1.050   0.903   1.059
  102SOL    HW2  329   1.068   0.782   0.950
  103SOL     OW  330   0.758   1.027   0.731
  103SOL    HW1  331   0.839   1.010   0.787
  103SOL    HW2  332   0.676   1.003   0.781
  104SOL     OW  333   0.726   1.476   1.730
  104SOL    HW1  334   0.753   1.564   1.767
  104SOL    HW2  335   0.697   1.415   1.804
  105SOL     OW  336   2.356   1.791   0.727
  105SOL    HW1  337   2.421   1.785   0.651
  105SOL    HW2  338   2.405   1.801   0.813
  106SOL     OW  339   1.491   2.087   0.156
  106SOL    HW1  340   1.574   2.046   0.118
  106SOL    HW2  341   1.439   2.133   0.084
  107SOL     OW  342   1.762   2.041   1.298
  107SOL    HW1  343   1.673   1.997   1.292
  107SOL    HW2  344   1.825   2.001   1.232
  108SOL     OW  345   2.177   0.170   1.848
  108SOL    HW1  346   2.182   0.134   1.941
  108SOL    HW2  347   2.119   0.251   1.845
  109SOL     OW  348   0.158   0.616   1.285
  109SOL    HW1  349   0.108   0.688   1.237
  109SOL    HW2  350   0.109   0.529   1.278
  110SOL     OW  351   0.497   0.072   0.198
  110SOL    HW1  352   0.594   0.092   0.188
  110SOL    HW2  353   0.472   0.072   0.295
  111SOL     OW  354   0.940   0.442   0.968
  111SOL    HW1  355   0.899   0.406   1.052
  111SOL    HW2  356   0.922   0.540   0.960
  112SOL     OW  357   2.010   1.105   2.132
  112SOL    HW1  358   2.077   1.167   2.173
  112SOL    HW2  359   2.056   1.023   2.097
  113SOL     OW  360   2.256   1.993   2.312
  113SOL    HW1  361   2.289   2.033   2.398
  113SOL    HW2  362   2.157   2.004   2.305
  114SOL     OW  363   0.099   0.610   1.707
  114SOL    HW1  364   0.009   0.578   1.676
  114SOL    HW2  365   0.088   0.668   1.788
  115SOL     OW  366   2.248   0.849   1.575
  115SOL    HW1  367   2.169   0.898   1.539
  115SOL    HW2  368   2.223   0.754   1.596
  116SOL     OW  369   2.023   1.357   1.201
  116SOL    HW1  370   2.049   1.384   1.294
  116SOL    HW2  371   1.991   1.262   1.201
  117SOL     OW  372   1.722   0.108   1.229
  117SOL    HW1  373   1.704   0.159   1.313
  117SOL    HW2  374   1.802   0.147   1.182
  118SOL     OW  375   0.898   0.492   0.323
  118SOL    HW1  376   0.992   0.462   0.343
  118SOL    HW2  377   0.844   0.493   0.407
  119SOL     OW  378   1.379   0.180   0.673
  119SOL    HW1  379   1.403   0.163   0.577
  119SOL    HW2  380   1.280   0.172   0.685
  120SOL     OW  381   0.272   0.828   0.114
  120SOL    HW1  382   0.354   0.777   0.086
  120SOL    HW2  383   0.254   0.902   0.050
  121SOL     OW  384   1.062   1.037   0.167
  121SOL    HW1  385   1.149   1.083   0.150
  121SOL    HW2  386   1.007   1.090   0.232
  122SOL     OW  387   2.097   2.001   0.680
  122SOL    HW1  388   2.073   2.055   0.761
  122SOL    HW2  389   2.023   1.938   0.658
  123SOL     OW  390   1.230   1.715   1.427
  123SOL    HW1  391   1.221   1.786   1.498
  123SOL    HW2  392   1.153   1.721   1.363
  124SOL     OW  393   0.035   1.383   0.738
  124SOL    HW1  394   0.037   1.287   0.711
  124SOL    HW2  395  -0.007   1.393   0.828
  125SOL     OW  396   2.258   1.385   0.341
  125SOL    HW1  397   2.204   1.345   0.267
  125SOL    HW2  398   2.318   1.316   0.381
  126SOL     OW  399   0.238   1.645   0.114
  126SOL    HW1  400   0.220   1.637   0.212
  126SOL    HW2  401   0.298   1.724   0.096
  127SOL     OW  402   0.837   0.195   0.427
  127SOL    HW1  403   0.846   0.234   0.519
  127SOL    HW2  404   0.746   0.215   0.390
  128SOL     OW  405   2.318   1.428   1.238
  128SOL    HW1  406   2.382   1.488   1.189
  128SOL    HW2  407   2.233   1.419   1.186
  129SOL     OW  408   1.328   1.950   2.029
  129SOL    HW1  409   1.264   1.873   2.028
  129SOL    HW2  410   1.294   2.024   1.970
  130SOL     OW  411   2.008   1.020   1.926
  130SOL    HW1  412   1.999   1.000   1.829
  130SOL    HW2  413   2.047   0.940   1.974
  131SOL     OW  414   0.600   0.836   0.611
  131SOL    HW1  415   0.675   0.781   0.574
  131SOL    HW2  416   0.562   0.894   0.539
  132SOL     OW  417   0.399   1.297   1.048
  132SOL    HW1  418   0.410   1.298   1.148
  132SOL    HW2  419   0.488   1.285   1.004
  133SOL     OW  420   0.376   0.386   1.008
  133SOL    HW1  421   0.411   0.375   0.915
  133SOL    HW2  422   0.418   0.319   1.069
  134SOL     OW  423   0.022   0.244   1.117
  134SOL    HW1  424   0.097   0.275   1.061
  134SOL    HW2  425  -0.064   0.285   1.086
  135SOL     OW  426   1.796   1.699   2.180
  135SOL    HW1  427   1.843   1.710   2.092
  135SOL    HW2  428   1.779   1.789   2.220
  136SOL     OW  429   0.557   2.132   1.844
  136SOL    HW1  430   0.642   2.138   1.792
  136SOL    HW2  431   0.526   2.223   1.870
  137SOL     OW  432   0.971   0.942   2.119
  137SOL    HW1  433   0.985   0.958   2.022
  137SOL    HW2  434   0.922   1.019   2.160
  138SOL     OW  435   0.418   0.613   0.285
  138SOL    HW1  436   0.410   0.646   0.380
  138SOL    HW2  437   0.477   0.532   0.282
  139SOL     OW  438   2.042   0.657   1.231
  139SOL    HW1  439   2.075   0.665   1.137
  139SOL    HW2  440   1.943   0.676   1.234
  140SOL     OW  441   2.035   2.124   2.083
  140SOL    HW1  442   2.023   2.224   2.090
  140SOL    HW2  443   1.976   2.078   2.149
  141SOL     OW  444   2.328   0.938   0.868
  141SOL    HW1  445   2.328   0.985   0.779
  141SOL    HW2  446   2.361   0.845   0.857
  142SOL     OW  447   1.866   2.230   0.043
  142SOL    HW1  448   1.923   2.148   0.029
  142SOL    HW2  449   1.799   2.238  -0.030
  143SOL     OW  450   0.879   2.000   1.014
  143SOL    HW1  451   0.794   1.965   1.055
  143SOL    HW2  452   0.859   2.076   0.953
  144SOL     OW  453   2.253   0.939   0.002
  144SOL    HW1  454   2.261   0.979   0.094
  144SOL    HW2  455   2.191   0.994  -0.054
  145SOL     OW  456   1.479   2.065   1.682
  145SOL    HW1  457   1.413   2.079   1.756
  145SOL    HW2  458   1.550   2.135   1.686
  146SOL     OW  459   1.113   1.415   0.295
  146SOL    HW1  460   1.109   1.475   0.214
  146SOL    HW2  461   1.061   1.331   0.277
  147SOL     OW  462   1.493   0.511   2.314
  147SOL    HW1  463   1.578   0.472   2.277
  147SOL    HW2  464   1.514   0.596   2.362
  148SOL     OW  465   2.276   2.271   1.209
  148SOL    HW1  466   2.231   2.283   1.121
  148SOL    HW2  467   2.365   2.229   1.197
  149SOL     OW  468   0.641   1.169   1.505
  149SOL    HW1  469   0.674   1.107   1.576
  149SOL    HW2  470   0.543   1.185   1.517
  150SOL     OW  471   0.057   0.117   2.004
  150SOL    HW1  472  -0.015   0.158   2.061
  150SOL    HW2  473   0.044   0.018   2.000
  151SOL     OW  474   1.802   0.233   1.041
  151SOL    HW1  475   1.739   0.306   1.070
  151SOL    HW2  476   1.758   0.144   1.052
  152SOL     OW  477   1.124   2.149   0.015
  152SOL    HW1  478   1.027   2.171   0.024
  152SOL    HW2  479   1.176   2.232  -0.005
  153SOL     OW  480   0.734   1.537   0.974
  153SOL    HW1  481   0.721   1.497   1.065
  153SOL    HW2  482   0.753   1.635   0.983
  154SOL     OW  483   0.852   2.134   1.960
  154SOL    HW1  484   0.764   2.143   2.008
  154SOL    HW2  485   0.882   2.038   1.964
  155SOL     OW  486   1.713   1.875   0.331
  155SOL    HW1  487   1.666   1.856   0.417
  155SOL    HW2  488   1.680   1.961   0.292
  156SOL     OW  489   0.170   1.110   0.633
  156SOL    HW1  490   0.228   1.066   0.565
  156SOL    HW2  491   0.206   1.200   0.656
  157SOL     OW  492   0.486   0.214   0.669
  157SOL    HW1  493   0.446   0.187   0.582
  157SOL    HW2  494   0.550   0.290   0.656
  158SOL     OW  495   0.557   1.267   2.205
  158SOL    HW1  496   0.507   1.233   2.125
  158SOL    HW2  497   0.494   1.275   2.283
  159SOL     OW  498   0.059   1.582   0.348
  159SOL    HW1  499   0.077   1.670   0.304
  159SOL    HW2  500   0.145   1.540   0.377
  160SOL     OW  501   0.547   1.913   0.733
  160SOL    HW1  502   0.483   1.950   0.800
  160SOL    HW2  503   0.633   1.888   0.778
  161SOL     OW  504   1.688   0.906   0.795
  161SOL    HW1  505   1.724   0.878   0.706
  161SOL    HW2  506   1.695   0.831   0.860
  162SOL     OW  507   0.465   1.078   0.974
  162SOL    HW1  508   0.490   0.982   0.964
  162SOL    HW2  509   0.435   1.095   1.068
  163SOL     OW  510   2.174   1.637   0.262
  163SOL    HW1  511   2.166   1.582   0.345
  163SOL    HW2  512   2.235   1.715   0.279
  164SOL     OW  513   1.202   0.943   0.772
  164SOL    HW1  514   1.222   0.937   0.870
  164SOL    HW2  515   1.124   1.003   0.756
  165SOL     OW  516   0.126   0.276   0.609
  165SOL    HW1  517   0.056   0.231   0.553
  165SOL    HW2  518   0.094   0.285   0.703
  166SOL     OW  519   1.776   1.380   0.627
  166SOL    HW1  520   1.750   1.345   0.537
  166SOL    HW2  521   1.850   1.447   0.617
  167SOL     OW  522   0.863   2.394   1.879
  167SOL    HW1  523   0.954   2.353   1.877
  167SOL    HW2  524   0.802   2.346   1.816
  168SOL     OW  525   1.445   0.806   1.885
  168SOL    HW1  526   1.507   0.884   1.898
  168SOL    HW2  527   1.439   0.784   1.787
  169SOL     OW  528   1.430   1.276   2.312
  169SOL    HW1  529   1.487   1.264   2.394
  169SOL    HW2  530   1.405   1.373   2.302
  170SOL     OW  531   2.128   0.202   1.230
  170SOL    HW1  532   2.056   0.205   1.299
  170SOL    HW2  533   2.119   0.279   1.167
  171SOL     OW  534   2.237   1.207   0.059
  171SOL    HW1  535   2.278   1.140  -0.005
  171SOL    HW2  536   2.264   1.299   0.032
  172SOL     OW  537   0.635   1.587   0.704
  172SOL    HW1  538   0.558   1.564   0.764
  172SOL    HW2  539   0.604   1.595   0.610
  173SOL     OW  540   0.456   2.037   1.230
  173SOL    HW1  541   0.471   2.017   1.133
  173SOL    HW2  542   0.492   2.127   1.252
  174SOL     OW  543   2.074   0.258   0.263
  174SOL    HW1  544   2.116   0.255   0.354
  174SOL    HW2  545   2.140   0.293   0.197
  175SOL     OW  546   0.875   1.845   1.321
  175SOL    HW1  547   0.909   1.809   1.234
  175SOL    HW2  548   0.886   1.944   1.323
  176SOL     OW  549   1.696   0.679   0.114
  176SOL    HW1  550   1.720   0.623   0.193
  176SOL    HW2  551   1.605   0.718   0.126
  177SOL     OW  552   0.345   1.143   2.214
  177SOL    HW1  553   0.355   1.122   2.312
  177SOL    HW2  554   0.422   1.104   2.163
  178SOL     OW  555   2.243   1.767   1.118
  178SOL    HW1  556   2.186   1.841   1.154
  178SOL    HW2  557   2.245   1.691   1.183
  179SOL     OW  558   0.330   0.352   1.985
  179SOL    HW1  559   0.379   0.267   2.002
  179SOL    HW2  560   0.284   0.349   1.896
  180SOL     OW  561   1.776   0.245   0.744
  180SOL    HW1  562   1.736   0.329   0.781
  180SOL    HW2  563   1.867   0.264   0.707
  181SOL     OW  564   0.886   0.945   2.387
  181SOL    HW1  565   0.860   0.894   2.304
  181SOL    HW2  566   0.935   1.028   2.361
  182SOL     OW  567   0.339   0.078   1.378
  182SOL    HW1  568   0.397   0.000   1.400
  182SOL    HW2  569   0.360   0.155   1.438
  183SOL     OW  570   1.796   0.884   1.492
  183SOL    HW1  571   1.761   0.911   1.581
  183SOL    HW2  572   1.888   0.919   1.479
  184SOL     OW  573   0.747   1.103   1.340
  184SOL    HW1  574   0.803   1.092   1.259
  184SOL    HW2  575   0.710   1.196   1.344
  185SOL     OW  576   0.823   1.897   0.206
  185SOL    HW1  577   0.905   1.921   0.155
  185SOL    HW2  578   0.815   1.797   0.213
  186SOL     OW  579   0.781   0.810   0.394
  186SOL    HW1  580   0.874   0.789   0.423
  186SOL    HW2  581   0.776   0.904   0.361
  187SOL     OW  582   1.094   1.951   0.814
  187SOL    HW1  583   1.050   1.890   0.881
  187SOL    HW2  584   1.146   2.022   0.862
  188SOL     OW  585   2.102   2.213   0.473
  188SOL    HW1  586   2.086   2.290   0.412
  188SOL    HW2  587   2.170   2.151   0.434
  189SOL     OW  588   1.013   1.254   0.453
  189SOL    HW1  589   1.112   1.265   0.448
  189SOL    HW2  590   0.975   1.316   0.521
  190SOL     OW  591   0.685   1.040   2.097
  190SOL    HW1  592   0.668   1.080   2.007
  190SOL    HW2  593   0.782   1.046   2.119
  191SOL     OW  594   1.796   0.715   0.639
  191SOL    HW1  595   1.855   0.635   0.648
  191SOL    HW2  596   1.768   0.747   0.730
  192SOL     OW  597   1.860   0.729   2.400
  192SOL    HW1  598   1.852   0.826   2.375
  192SOL    HW2  599   1.952   0.696   2.377
  193SOL     OW  600   0.822   0.569   2.295
  193SOL    HW1  601   0.767   0.592   2.215
  193SOL    HW2  602   0.870   0.483   2.281
  194SOL     OW  603   1.642   0.458   0.973
  194SOL    HW1  604   1.605   0.423   1.059
  194SOL    HW2  605   1.598   0.545   0.949
  195SOL     OW  606   0.520   0.727   2.154
  195SOL    HW1  607   0.598   0.668   2.171
  195SOL    HW2  608   0.529   0.812   2.206
  196SOL     OW  609   1.507   0.007   1.699
  196SOL    HW1  610   1.542   0.004   1.605
  196SOL    HW2  611   1.415   0.045   1.701
  197SOL     OW  612   0.783   0.250   0.056
  197SOL    HW1  613   0.755   0.200  -0.026
  197SOL    HW2  614   0.871   0.215   0.089
  198SOL     OW  615   1.621   0.273   2.114
  198SOL    HW1  616   1.586   0.347   2.057
  198SOL    HW2  617   1.545   0.217   2.148
  199SOL     OW  618   2.238   1.278   1.464
  199SOL    HW1  619   2.160   1.329   1.501
  199SOL    HW2  620   2.240   1.284   1.365
   2.40105   2.40105   2.40105
