water:acetic acid 2%
  620
    1ACOH    H4    1   0.998   1.111   1.211
    1ACOH    O2    2   1.091   1.100   1.187
    1ACOH    C2    3   1.147   1.221   1.205
    1ACOH    O1    4   1.085   1.326   1.198
    1ACOH    C1    5   1.295   1.212   1.203
    1ACOH    H1    6   1.339   1.311   1.200
    1ACOH    H2    7   1.327   1.156   1.116
    1ACOH    H3    8   1.328   1.161   1.292
    2ACOH    H4    9   2.039   1.412   1.981
    2ACOH    O2   10   2.007   1.359   1.903
    2ACOH    C2   11   2.113   1.289   1.863
    2ACOH    O1   12   2.208   1.252   1.931
    2ACOH    C1   13   2.096   1.257   1.721
    2ACOH    H1   14   2.175   1.190   1.686
    2ACOH    H2   15   2.099   1.350   1.665
    2ACOH    H3   16   1.999   1.210   1.705
    3ACOH    H4   17   0.836   2.183   2.191
    3ACOH    O2   18   0.842   2.172   2.288
    3ACOH    C2   19   0.723   2.208   2.337
    3ACOH    O1   20   0.622   2.232   2.273
    3ACOH    C1   21   0.729   2.214   0.083
    3ACOH    H1   22   0.639   2.260   0.123
    3ACOH    H2   23   0.815   2.268   0.121
    3ACOH    H3   24   0.733   2.112   0.120
    4ACOH    H4   25   0.075   1.782   1.324
    4ACOH    O2   26   0.106   1.724   1.250
    4ACOH    C2   27   0.199   1.796   1.184
    4ACOH    O1   28   0.273   1.879   1.234
    4ACOH    C1   29   0.218   1.750   1.045
    4ACOH    H1   30   0.300   1.804   1.000
    4ACOH    H2   31   0.127   1.768   0.989
    4ACOH    H3   32   0.241   1.644   1.045
    5SOL     OW   33   1.379   1.062   1.939
    5SOL    HW1   34   1.347   1.123   2.011
    5SOL    HW2   35   1.348   0.968   1.960
    6SOL     OW   36   1.807   1.320   1.351
    6SOL    HW1   37   1.747   1.344   1.428
    6SOL    HW2   38   1.771   1.373   1.271
    7SOL     OW   39   1.813   0.800   1.866
    7SOL    HW1   40   1.843   0.745   1.944
    7SOL    HW2   41   1.803   0.895   1.901
    8SOL     OW   42   0.347   1.517   0.363
    8SOL    HW1   43   0.437   1.474   0.364
    8SOL    HW2   44   0.287   1.455   0.311
    9SOL     OW   45   0.042   1.118   0.074
    9SOL    HW1   46   2.396   1.098   0.161
    9SOL    HW2   47   0.128   1.163   0.100
   10SOL     OW   48   1.243   0.596   2.358
   10SOL    HW1   49   1.311   0.653   2.312
   10SOL    HW2   50   1.289   0.507   2.367
   11SOL     OW   51   1.107   0.399   1.894
   11SOL    HW1   52   1.072   0.435   1.805
   11SOL    HW2   53   1.201   0.430   1.908
   12SOL     OW   54   1.373   0.462   0.425
   12SOL    HW1   55   1.395   0.495   0.517
   12SOL    HW2   56   1.334   0.370   0.433
   13SOL     OW   57   1.432   1.941   1.377
   13SOL    HW1   58   1.414   1.896   1.465
   13SOL    HW2   59   1.500   2.012   1.393
   14SOL     OW   60   0.888   0.471   1.734
   14SOL    HW1   61   0.863   0.565   1.759
   14SOL    HW2   62   0.868   0.412   1.813
   15SOL     OW   63   0.217   2.086   0.318
   15SOL    HW1   64   0.248   2.175   0.281
   15SOL    HW2   65   0.191   2.098   0.413
   16SOL     OW   66   2.121   0.516   0.390
   16SOL    HW1   67   2.165   0.458   0.459
   16SOL    HW2   68   2.137   0.613   0.408
   17SOL     OW   69   0.538   0.146   2.228
   17SOL    HW1   70   0.608   0.141   2.157
   17SOL    HW2   71   0.527   0.053   2.266
   18SOL     OW   72   2.083   0.704   0.620
   18SOL    HW1   73   2.103   0.782   0.559
   18SOL    HW2   74   2.060   0.624   0.565
   19SOL     OW   75   0.480   0.718   1.901
   19SOL    HW1   76   0.450   0.814   1.891
   19SOL    HW2   77   0.521   0.686   1.817
   20SOL     OW   78   1.101   2.149   0.363
   20SOL    HW1   79   1.026   2.139   0.430
   20SOL    HW2   80   1.062   2.181   0.276
   21SOL     OW   81   1.615   1.249   1.628
   21SOL    HW1   82   1.692   1.236   1.690
   21SOL    HW2   83   1.530   1.239   1.680
   22SOL     OW   84   1.921   1.004   0.310
   22SOL    HW1   85   1.843   1.012   0.373
   22SOL    HW2   86   1.892   0.946   0.233
   23SOL     OW   87   1.769   2.049   2.122
   23SOL    HW1   88   1.708   2.073   2.199
   23SOL    HW2   89   1.773   1.948   2.116
   24SOL     OW   90   0.332   0.934   1.211
   24SOL    HW1   91   0.287   0.854   1.254
   24SOL    HW2   92   0.259   0.990   1.171
   25SOL     OW   93   2.081   2.141   0.215
   25SOL    HW1   94   2.082   2.115   0.312
   25SOL    HW2   95   1.985   2.139   0.187
   26SOL     OW   96   1.596   0.578   1.288
   26SOL    HW1   97   1.672   0.537   1.337
   26SOL    HW2   98   1.610   0.678   1.289
   27SOL     OW   99   1.688   1.473   1.156
   27SOL    HW1  100   1.658   1.569   1.150
   27SOL    HW2  101   1.614   1.417   1.117
   28SOL     OW  102   1.699   2.085   0.690
   28SOL    HW1  103   1.772   2.143   0.652
   28SOL    HW2  104   1.734   1.992   0.702
   29SOL     OW  105   0.688   1.729   1.179
   29SOL    HW1  106   0.671   1.678   1.092
   29SOL    HW2  107   0.672   1.662   1.252
   30SOL     OW  108   0.860   1.591   0.322
   30SOL    HW1  109   0.862   1.505   0.374
   30SOL    HW2  110   0.923   1.656   0.365
   31SOL     OW  111   0.421   2.349   1.773
   31SOL    HW1  112   0.376   2.297   1.700
   31SOL    HW2  113   0.495   0.004   1.736
   32SOL     OW  114   1.881   0.089   1.557
   32SOL    HW1  115   1.906   0.046   1.469
   32SOL    HW2  116   1.912   0.184   1.559
   33SOL     OW  117   1.080   0.452   2.196
   33SOL    HW1  118   1.130   0.530   2.241
   33SOL    HW2  119   1.051   0.392   2.269
   34SOL     OW  120   0.921   0.321   1.460
   34SOL    HW1  121   0.830   0.304   1.499
   34SOL    HW2  122   0.985   0.270   1.517
   35SOL     OW  123   1.123   1.851   2.180
   35SOL    HW1  124   1.141   1.902   2.265
   35SOL    HW2  125   1.184   1.772   2.183
   36SOL     OW  126   0.385   0.868   1.678
   36SOL    HW1  127   0.416   0.954   1.638
   36SOL    HW2  128   0.453   0.796   1.663
   37SOL     OW  129   1.202   2.083   1.577
   37SOL    HW1  130   1.107   2.065   1.551
   37SOL    HW2  131   1.202   2.120   1.671
   38SOL     OW  132   0.856   0.510   0.637
   38SOL    HW1  133   0.830   0.548   0.548
   38SOL    HW2  134   0.955   0.501   0.643
   39SOL     OW  135   0.002   0.253   1.436
   39SOL    HW1  136   0.019   0.235   1.337
   39SOL    HW2  137   2.305   0.240   1.449
   40SOL     OW  138   1.674   1.808   1.571
   40SOL    HW1  139   1.578   1.836   1.579
   40SOL    HW2  140   1.723   1.869   1.633
   41SOL     OW  141   1.229   0.211   2.031
   41SOL    HW1  142   1.164   0.274   1.982
   41SOL    HW2  143   1.196   0.209   2.125
   42SOL     OW  144   0.537   1.787   0.957
   42SOL    HW1  145   0.555   1.840   1.041
   42SOL    HW2  146   0.538   1.689   0.981
   43SOL     OW  147   1.916   1.934   1.920
   43SOL    HW1  148   1.967   1.962   1.839
   43SOL    HW2  149   1.868   2.017   1.955
   44SOL     OW  150   2.138   0.569   1.590
   44SOL    HW1  151   2.159   0.472   1.605
   44SOL    HW2  152   2.046   0.587   1.625
   45SOL     OW  153   0.768   2.049   1.456
   45SOL    HW1  154   0.672   2.020   1.464
   45SOL    HW2  155   0.780   2.080   1.361
   46SOL     OW  156   1.901   1.699   0.014
   46SOL    HW1  157   1.833   1.684   2.343
   46SOL    HW2  158   1.916   1.613   0.063
   47SOL     OW  159   0.117   0.516   0.931
   47SOL    HW1  160   0.181   0.593   0.931
   47SOL    HW2  161   0.122   0.480   1.025
   48SOL     OW  162   2.143   1.549   0.672
   48SOL    HW1  163   2.137   1.600   0.585
   48SOL    HW2  164   2.240   1.526   0.685
   49SOL     OW  165   1.240   2.143   2.193
   49SOL    HW1  166   1.286   2.081   2.257
   49SOL    HW2  167   1.146   2.108   2.180
   50SOL     OW  168   0.722   2.365   1.245
   50SOL    HW1  169   0.783   0.020   1.303
   50SOL    HW2  170   0.752   2.381   1.150
   51SOL     OW  171   0.375   2.110   1.011
   51SOL    HW1  172   0.341   2.188   0.953
   51SOL    HW2  173   0.405   2.162   1.091
   52SOL     OW  174   0.643   1.332   0.496
   52SOL    HW1  175   0.682   1.338   0.589
   52SOL    HW2  176   0.586   1.413   0.487
   53SOL     OW  177   2.378   1.749   1.695
   53SOL    HW1  178   0.032   1.741   1.610
   53SOL    HW2  179   2.286   1.776   1.669
   54SOL     OW  180   0.560   1.920   0.054
   54SOL    HW1  181   0.532   1.849   0.119
   54SOL    HW2  182   0.617   1.878   2.384
   55SOL     OW  183   2.099   1.514   2.078
   55SOL    HW1  184   2.198   1.520   2.100
   55SOL    HW2  185   2.048   1.525   2.164
   56SOL     OW  186   0.789   0.034   2.143
   56SOL    HW1  187   0.885   0.030   2.116
   56SOL    HW2  188   0.735   0.008   2.062
   57SOL     OW  189   1.004   2.388   2.389
   57SOL    HW1  190   0.917   2.347   0.019
   57SOL    HW2  191   1.058   0.015   0.067
   58SOL     OW  192   0.928   0.566   1.336
   58SOL    HW1  193   1.011   0.542   1.286
   58SOL    HW2  194   0.914   0.491   1.404
   59SOL     OW  195   2.272   1.718   1.944
   59SOL    HW1  196   2.199   1.654   1.917
   59SOL    HW2  197   2.322   1.747   1.861
   60SOL     OW  198   1.979   1.538   1.020
   60SOL    HW1  199   1.894   1.486   1.015
   60SOL    HW2  200   1.973   1.599   1.098
   61SOL     OW  201   0.011   0.015   1.030
   61SOL    HW1  202   2.361   0.059   1.106
   61SOL    HW2  203   2.379   2.322   1.019
   62SOL     OW  204   1.184   2.001   1.837
   62SOL    HW1  205   1.251   1.946   1.784
   62SOL    HW2  206   1.094   1.964   1.810
   63SOL     OW  207   0.087   0.945   0.321
   63SOL    HW1  208   0.096   0.926   0.420
   63SOL    HW2  209   0.164   0.895   0.276
   64SOL     OW  210   0.413   1.118   0.446
   64SOL    HW1  211   0.430   1.130   0.348
   64SOL    HW2  212   0.499   1.140   0.495
   65SOL     OW  213   0.393   1.308   1.788
   65SOL    HW1  214   0.306   1.353   1.809
   65SOL    HW2  215   0.378   1.244   1.714
   66SOL     OW  216   1.844   2.397   1.990
   66SOL    HW1  217   1.843   0.096   1.981
   66SOL    HW2  218   1.804   2.373   2.078
   67SOL     OW  219   0.197   0.384   1.787
   67SOL    HW1  220   0.151   0.394   1.699
   67SOL    HW2  221   0.216   0.480   1.814
   68SOL     OW  222   0.572   0.833   1.025
   68SOL    HW1  223   0.505   0.763   1.000
   68SOL    HW2  224   0.577   0.835   1.126
   69SOL     OW  225   0.271   2.333   0.928
   69SOL    HW1  226   0.217   2.326   0.843
   69SOL    HW2  227   0.225   2.401   0.986
   70SOL     OW  228   1.265   1.783   0.589
   70SOL    HW1  229   1.354   1.816   0.558
   70SOL    HW2  230   1.214   1.862   0.627
   71SOL     OW  231   0.777   2.386   1.518
   71SOL    HW1  232   0.732   2.331   1.447
   71SOL    HW2  233   0.778   2.335   1.604
   72SOL     OW  234   0.314   0.876   0.535
   72SOL    HW1  235   0.320   0.905   0.632
   72SOL    HW2  236   0.377   0.936   0.483
   73SOL     OW  237   0.973   1.844   1.611
   73SOL    HW1  238   0.953   1.751   1.579
   73SOL    HW2  239   0.913   1.905   1.557
   74SOL     OW  240   1.741   1.163   0.831
   74SOL    HW1  241   1.788   1.083   0.867
   74SOL    HW2  242   1.805   1.221   0.779
   75SOL     OW  243   1.162   2.317   1.345
   75SOL    HW1  244   1.238   2.339   1.405
   75SOL    HW2  245   1.199   2.275   1.262
   76SOL     OW  246   1.725   1.714   0.869
   76SOL    HW1  247   1.776   1.687   0.786
   76SOL    HW2  248   1.630   1.732   0.846
   77SOL     OW  249   0.580   1.683   1.791
   77SOL    HW1  250   0.552   1.619   1.717
   77SOL    HW2  251   0.673   1.713   1.776
   78SOL     OW  252   0.206   1.552   1.568
   78SOL    HW1  253   0.207   1.585   1.474
   78SOL    HW2  254   0.159   1.463   1.571
   79SOL     OW  255   2.046   1.254   0.469
   79SOL    HW1  256   2.026   1.161   0.439
   79SOL    HW2  257   1.964   1.310   0.464
   80SOL     OW  258   0.370   2.169   0.711
   80SOL    HW1  259   0.381   2.108   0.789
   80SOL    HW2  260   0.349   2.112   0.629
   81SOL     OW  261   0.342   1.945   0.544
   81SOL    HW1  262   0.261   1.920   0.491
   81SOL    HW2  263   0.399   1.864   0.560
   82SOL     OW  264   0.064   1.933   1.411
   82SOL    HW1  265   0.043   1.995   1.334
   82SOL    HW2  266   0.165   1.930   1.417
   83SOL     OW  267   2.363   1.769   2.388
   83SOL    HW1  268   0.052   1.799   2.354
   83SOL    HW2  269   2.301   1.847   2.363
   84SOL     OW  270   0.119   2.038   0.894
   84SOL    HW1  271   0.181   1.998   0.827
   84SOL    HW2  272   0.171   2.052   0.979
   85SOL     OW  273   1.632   2.336   0.270
   85SOL    HW1  274   1.623   2.297   0.178
   85SOL    HW2  275   1.596   0.027   0.272
   86SOL     OW  276   0.209   1.686   2.082
   86SOL    HW1  277   0.217   1.667   1.984
   86SOL    HW2  278   0.117   1.722   2.100
   87SOL     OW  279   0.238   2.194   0.008
   87SOL    HW1  280   0.338   2.194   2.398
   87SOL    HW2  281   0.205   2.140   2.330
   88SOL     OW  282   1.104   1.573   2.028
   88SOL    HW1  283   1.052   1.595   2.111
   88SOL    HW2  284   1.201   1.596   2.040
   89SOL     OW  285   0.055   0.527   1.473
   89SOL    HW1  286   2.386   0.463   1.508
   89SOL    HW2  287   0.139   0.472   1.467
   90SOL     OW  288   1.399   1.159   0.882
   90SOL    HW1  289   1.327   1.166   0.814
   90SOL    HW2  290   1.471   1.227   0.861
   91SOL     OW  291   1.712   0.478   0.425
   91SOL    HW1  292   1.806   0.453   0.448
   91SOL    HW2  293   1.657   0.395   0.418
   92SOL     OW  294   1.829   1.636   0.498
   92SOL    HW1  295   1.844   1.675   0.406
   92SOL    HW2  296   1.786   1.547   0.489
   93SOL     OW  297   1.156   1.229   1.593
   93SOL    HW1  298   1.170   1.156   1.660
   93SOL    HW2  299   1.100   1.301   1.633
   94SOL     OW  300   1.986   0.146   0.896
   94SOL    HW1  301   1.891   0.151   0.860
   94SOL    HW2  302   2.040   0.091   0.833
   95SOL     OW  303   1.168   1.893   0.098
   95SOL    HW1  304   1.125   1.984   0.081
   95SOL    HW2  305   1.255   1.919   0.141
   96SOL     OW  306   1.686   1.818   1.871
   96SOL    HW1  307   1.715   1.763   1.793
   96SOL    HW2  308   1.771   1.862   1.908
   97SOL     OW  309   1.229   0.233   1.006
   97SOL    HW1  310   1.215   0.207   1.102
   97SOL    HW2  311   1.230   0.333   1.000
   98SOL     OW  312   0.748   1.921   2.039
   98SOL    HW1  313   0.765   1.854   1.967
   98SOL    HW2  314   0.662   1.969   2.017
   99SOL     OW  315   1.366   1.487   0.795
   99SOL    HW1  316   1.409   1.550   0.731
   99SOL    HW2  317   1.319   1.416   0.743
  100SOL     OW  318   1.916   0.765   0.979
  100SOL    HW1  319   1.913   0.727   0.887
  100SOL    HW2  320   2.013   0.775   1.003
  101SOL     OW  321   0.105   0.725   2.202
  101SOL    HW1  322   0.061   0.655   2.146
  101SOL    HW2  323   0.191   0.751   2.157
  102SOL     OW  324   0.240   2.117   2.146
  102SOL    HW1  325   0.223   2.077   2.056
  102SOL    HW2  326   0.262   2.215   2.136
  103SOL     OW  327   1.039   0.803   1.038
  103SOL    HW1  328   1.057   0.898   1.065
  103SOL    HW2  329   1.072   0.788   0.945
  104SOL     OW  330   0.760   1.050   0.746
  104SOL    HW1  331   0.837   1.001   0.787
  104SOL    HW2  332   0.677   0.996   0.766
  105SOL     OW  333   0.751   1.459   1.733
  105SOL    HW1  334   0.756   1.549   1.774
  105SOL    HW2  335   0.688   1.405   1.791
  106SOL     OW  336   2.357   1.794   0.723
  106SOL    HW1  337   0.024   1.776   0.652
  106SOL    HW2  338   2.400   1.805   0.813
  107SOL     OW  339   1.488   2.076   0.150
  107SOL    HW1  340   1.576   2.045   0.112
  107SOL    HW2  341   1.440   2.134   0.084
  108SOL     OW  342   1.760   2.040   1.298
  108SOL    HW1  343   1.675   1.989   1.289
  108SOL    HW2  344   1.826   2.003   1.232
  109SOL     OW  345   2.171   0.173   1.843
  109SOL    HW1  346   2.185   0.132   1.934
  109SOL    HW2  347   2.115   0.254   1.853
  110SOL     OW  348   0.158   0.617   1.228
  110SOL    HW1  349   0.100   0.696   1.246
  110SOL    HW2  350   0.121   0.546   1.290
  111SOL     OW  351   0.503   0.059   0.200
  111SOL    HW1  352   0.589   0.108   0.181
  111SOL    HW2  353   0.474   0.074   0.295
  112SOL     OW  354   0.948   0.445   0.973
  112SOL    HW1  355   0.896   0.410   1.052
  112SOL    HW2  356   0.920   0.541   0.960
  113SOL     OW  357   2.027   1.094   2.182
  113SOL    HW1  358   2.082   1.178   2.179
  113SOL    HW2  359   2.029   1.057   2.087
  114SOL     OW  360   2.255   2.002   2.321
  114SOL    HW1  361   2.279   2.055   0.002
  114SOL    HW2  362   2.158   2.016   2.299
  115SOL     OW  363   0.103   0.631   1.738
  115SOL    HW1  364   0.028   0.614   1.673
  115SOL    HW2  365   0.073   0.699   1.806
  116SOL     OW  366   2.235   0.846   1.595
  116SOL    HW1  367   2.178   0.895   1.529
  116SOL    HW2  368   2.222   0.747   1.579
  117SOL     OW  369   2.059   1.328   1.221
  117SOL    HW1  370   2.030   1.378   1.302
  117SOL    HW2  371   1.983   1.263   1.206
  118SOL     OW  372   1.739   0.085   1.272
  118SOL    HW1  373   1.692   0.152   1.329
  118SOL    HW2  374   1.782   0.140   1.196
  119SOL     OW  375   0.907   0.504   0.322
  119SOL    HW1  376   0.994   0.458   0.341
  119SOL    HW2  377   0.839   0.478   0.390
  120SOL     OW  378   1.372   0.204   0.659
  120SOL    HW1  379   1.405   0.147   0.583
  120SOL    HW2  380   1.286   0.166   0.695
  121SOL     OW  381   0.290   0.857   0.123
  121SOL    HW1  382   0.339   0.771   0.100
  121SOL    HW2  383   0.237   0.883   0.042
  122SOL     OW  384   1.063   1.049   0.161
  122SOL    HW1  385   1.155   1.087   0.159
  122SOL    HW2  386   1.013   1.088   0.239
  123SOL     OW  387   2.089   2.007   0.674
  123SOL    HW1  388   2.075   2.048   0.763
  123SOL    HW2  389   2.034   1.924   0.665
  124SOL     OW  390   1.224   1.711   1.436
  124SOL    HW1  391   1.214   1.792   1.494
  124SOL    HW2  392   1.154   1.719   1.364
  125SOL     OW  393   0.039   1.381   0.739
  125SOL    HW1  394   0.031   1.285   0.710
  125SOL    HW2  395   2.391   1.392   0.825
  126SOL     OW  396   2.269   1.384   0.321
  126SOL    HW1  397   2.195   1.337   0.273
  126SOL    HW2  398   2.306   1.320   0.388
  127SOL     OW  399   0.242   1.645   0.115
  127SOL    HW1  400   0.242   1.638   0.214
  127SOL    HW2  401   0.293   1.727   0.088
  128SOL     OW  402   0.842   0.198   0.428
  128SOL    HW1  403   0.840   0.227   0.524
  128SOL    HW2  404   0.753   0.216   0.386
  129SOL     OW  405   2.313   1.440   1.239
  129SOL    HW1  406   2.378   1.486   1.179
  129SOL    HW2  407   2.231   1.413   1.184
  130SOL     OW  408   1.356   1.923   2.035
  130SOL    HW1  409   1.270   1.871   2.039
  130SOL    HW2  410   1.326   2.007   1.988
  131SOL     OW  411   2.003   1.003   1.916
  131SOL    HW1  412   2.008   0.992   1.816
  131SOL    HW2  413   2.058   0.928   1.955
  132SOL     OW  414   0.598   0.829   0.617
  132SOL    HW1  415   0.679   0.785   0.575
  132SOL    HW2  416   0.565   0.887   0.543
  133SOL     OW  417   0.412   1.338   1.060
  133SOL    HW1  418   0.410   1.298   1.152
  133SOL    HW2  419   0.464   1.275   0.999
  134SOL     OW  420   0.388   0.385   1.014
  134SOL    HW1  421   0.409   0.368   0.917
  134SOL    HW2  422   0.425   0.310   1.068
  135SOL     OW  423   0.027   0.286   1.134
  135SOL    HW1  424   0.098   0.268   1.065
  135SOL    HW2  425   2.339   0.283   1.087
  136SOL     OW  426   1.781   1.701   2.170
  136SOL    HW1  427   1.842   1.703   2.089
  136SOL    HW2  428   1.781   1.792   2.212
  137SOL     OW  429   0.576   2.132   1.864
  137SOL    HW1  430   0.640   2.140   1.788
  137SOL    HW2  431   0.514   2.214   1.865
  138SOL     OW  432   0.972   0.941   2.113
  138SOL    HW1  433   0.987   0.960   2.016
  138SOL    HW2  434   0.942   1.023   2.162
  139SOL     OW  435   0.419   0.616   0.284
  139SOL    HW1  436   0.408   0.646   0.379
  139SOL    HW2  437   0.478   0.535   0.280
  140SOL     OW  438   2.037   0.646   1.235
  140SOL    HW1  439   2.080   0.660   1.146
  140SOL    HW2  440   1.944   0.684   1.232
  141SOL     OW  441   2.049   2.141   2.118
  141SOL    HW1  442   2.017   2.228   2.077
  141SOL    HW2  443   1.969   2.081   2.128
  142SOL     OW  444   2.322   0.933   0.867
  142SOL    HW1  445   2.335   0.988   0.783
  142SOL    HW2  446   2.365   0.844   0.852
  143SOL     OW  447   1.844   2.200   0.042
  143SOL    HW1  448   1.933   2.160   0.016
  143SOL    HW2  449   1.809   2.251   2.365
  144SOL     OW  450   0.878   1.997   1.019
  144SOL    HW1  451   0.790   1.965   1.055
  144SOL    HW2  452   0.860   2.069   0.952
  145SOL     OW  453   2.215   0.920   0.004
  145SOL    HW1  454   2.269   0.960   0.078
  145SOL    HW2  455   2.181   0.995   2.347
  146SOL     OW  456   1.494   2.059   1.686
  146SOL    HW1  457   1.421   2.076   1.753
  146SOL    HW2  458   1.551   2.142   1.687
  147SOL     OW  459   1.131   1.412   0.277
  147SOL    HW1  460   1.104   1.483   0.212
  147SOL    HW2  461   1.056   1.344   0.280
  148SOL     OW  462   1.506   0.511   2.302
  148SOL    HW1  463   1.591   0.465   2.276
  148SOL    HW2  464   1.533   0.580   2.371
  149SOL     OW  465   2.265   2.246   1.216
  149SOL    HW1  466   2.220   2.279   1.133
  149SOL    HW2  467   2.363   2.236   1.203
  150SOL     OW  468   0.624   1.197   1.545
  150SOL    HW1  469   0.673   1.112   1.564
  150SOL    HW2  470   0.531   1.176   1.517
  151SOL     OW  471   0.061   0.113   2.006
  151SOL    HW1  472   2.396   0.159   2.065
  151SOL    HW2  473   0.039   0.015   2.000
  152SOL     OW  474   1.784   0.253   1.078
  152SOL    HW1  475   1.730   0.330   1.039
  152SOL    HW2  476   1.754   0.169   1.031
  153SOL     OW  477   1.120   2.145   0.038
  153SOL    HW1  478   1.025   2.164   0.009
  153SOL    HW2  479   1.173   2.217   2.391
  154SOL     OW  480   0.705   1.548   0.989
  154SOL    HW1  481   0.741   1.485   1.058
  154SOL    HW2  482   0.780   1.609   0.960
  155SOL     OW  483   0.859   2.149   1.959
  155SOL    HW1  484   0.765   2.149   1.996
  155SOL    HW2  485   0.887   2.052   1.973
  156SOL     OW  486   1.706   1.873   0.326
  156SOL    HW1  487   1.671   1.856   0.419
  156SOL    HW2  488   1.678   1.966   0.300
  157SOL     OW  489   0.166   1.114   0.633
  157SOL    HW1  490   0.223   1.073   0.559
  157SOL    HW2  491   0.211   1.200   0.657
  158SOL     OW  492   0.496   0.212   0.671
  158SOL    HW1  493   0.436   0.192   0.593
  158SOL    HW2  494   0.546   0.297   0.654
  159SOL     OW  495   0.570   1.285   2.203
  159SOL    HW1  496   0.516   1.255   2.125
  159SOL    HW2  497   0.504   1.289   2.279
  160SOL     OW  498   0.065   1.610   0.371
  160SOL    HW1  499   0.074   1.667   0.289
  160SOL    HW2  500   0.149   1.556   0.386
  161SOL     OW  501   0.567   1.915   0.718
  161SOL    HW1  502   0.496   1.943   0.784
  161SOL    HW2  503   0.636   1.870   0.775
  162SOL     OW  504   1.659   0.873   0.797
  162SOL    HW1  505   1.717   0.884   0.714
  162SOL    HW2  506   1.711   0.840   0.876
  163SOL     OW  507   0.472   1.075   0.969
  163SOL    HW1  508   0.510   0.979   0.967
  163SOL    HW2  509   0.432   1.080   1.061
  164SOL     OW  510   2.152   1.651   0.289
  164SOL    HW1  511   2.188   1.563   0.324
  164SOL    HW2  512   2.234   1.705   0.266
  165SOL     OW  513   1.184   0.929   0.781
  165SOL    HW1  514   1.238   0.950   0.863
  165SOL    HW2  515   1.126   1.007   0.757
  166SOL     OW  516   0.129   0.273   0.607
  166SOL    HW1  517   0.056   0.229   0.555
  166SOL    HW2  518   0.099   0.290   0.702
  167SOL     OW  519   1.778   1.380   0.627
  167SOL    HW1  520   1.755   1.344   0.537
  167SOL    HW2  521   1.857   1.443   0.626
  168SOL     OW  522   0.868   0.008   1.861
  168SOL    HW1  523   0.952   2.359   1.885
  168SOL    HW2  524   0.807   2.340   1.825
  169SOL     OW  525   1.447   0.797   1.884
  169SOL    HW1  526   1.501   0.881   1.897
  169SOL    HW2  527   1.441   0.780   1.786
  170SOL     OW  528   1.421   1.276   2.316
  170SOL    HW1  529   1.489   1.263   2.389
  170SOL    HW2  530   1.410   1.374   2.300
  171SOL     OW  531   2.137   0.213   1.234
  171SOL    HW1  532   2.057   0.197   1.292
  171SOL    HW2  533   2.106   0.275   1.161
  172SOL     OW  534   2.203   1.226   0.031
  172SOL    HW1  535   2.278   1.160   0.011
  172SOL    HW2  536   2.250   1.314   0.036
  173SOL     OW  537   0.632   1.563   0.686
  173SOL    HW1  538   0.568   1.570   0.763
  173SOL    HW2  539   0.599   1.621   0.611
  174SOL     OW  540   0.526   2.046   1.236
  174SOL    HW1  541   0.461   2.014   1.165
  174SOL    HW2  542   0.499   2.139   1.264
  175SOL     OW  543   2.076   0.244   0.261
  175SOL    HW1  544   2.118   0.254   0.350
  175SOL    HW2  545   2.130   0.299   0.196
  176SOL     OW  546   0.921   1.832   1.314
  176SOL    HW1  547   0.906   1.810   1.217
  176SOL    HW2  548   0.893   1.927   1.326
  177SOL     OW  549   1.645   0.649   0.124
  177SOL    HW1  550   1.704   0.620   0.201
  177SOL    HW2  551   1.588   0.724   0.156
  178SOL     OW  552   0.340   1.133   2.215
  178SOL    HW1  553   0.343   1.109   2.312
  178SOL    HW2  554   0.414   1.084   2.168
  179SOL     OW  555   2.252   1.776   1.126
  179SOL    HW1  556   2.178   1.839   1.150
  179SOL    HW2  557   2.240   1.690   1.177
  180SOL     OW  558   0.360   0.349   1.989
  180SOL    HW1  559   0.372   0.254   2.018
  180SOL    HW2  560   0.285   0.349   1.919
  181SOL     OW  561   1.776   0.245   0.742
  181SOL    HW1  562   1.730   0.324   0.785
  181SOL    HW2  563   1.865   0.274   0.707
  182SOL     OW  564   0.854   0.969   2.363
  182SOL    HW1  565   0.871   0.882   2.314
  182SOL    HW2  566   0.943   1.004   2.394
  183SOL     OW  567   0.346   0.078   1.370
  183SOL    HW1  568   0.399   0.002   1.405
  183SOL    HW2  569   0.349   0.154   1.436
  184SOL     OW  570   1.800   0.872   1.493
  184SOL    HW1  571   1.759   0.908   1.577
  184SOL    HW2  572   1.883   0.925   1.474
  185SOL     OW  573   0.750   1.087   1.316
  185SOL    HW1  574   0.801   1.100   1.232
  185SOL    HW2  575   0.725   1.176   1.356
  186SOL     OW  576   0.835   1.895   0.212
  186SOL    HW1  577   0.919   1.907   0.158
  186SOL    HW2  578   0.814   1.796   0.217
  187SOL     OW  579   0.785   0.817   0.415
  187SOL    HW1  580   0.880   0.784   0.408
  187SOL    HW2  581   0.777   0.893   0.350
  188SOL     OW  582   1.101   1.950   0.810
  188SOL    HW1  583   1.047   1.897   0.876
  188SOL    HW2  584   1.147   2.022   0.863
  189SOL     OW  585   2.105   2.233   0.482
  189SOL    HW1  586   2.089   2.289   0.401
  189SOL    HW2  587   2.175   2.163   0.464
  190SOL     OW  588   1.014   1.240   0.460
  190SOL    HW1  589   1.109   1.271   0.449
  190SOL    HW2  590   0.968   1.303   0.523
  191SOL     OW  591   0.674   1.023   2.080
  191SOL    HW1  592   0.666   1.089   2.005
  191SOL    HW2  593   0.760   1.041   2.129
  192SOL     OW  594   1.796   0.712   0.634
  192SOL    HW1  595   1.863   0.639   0.645
  192SOL    HW2  596   1.750   0.729   0.722
  193SOL     OW  597   1.885   0.734   2.355
  193SOL    HW1  598   1.873   0.832   2.368
  193SOL    HW2  599   1.980   0.710   2.377
  194SOL     OW  600   0.815   0.574   2.294
  194SOL    HW1  601   0.770   0.590   2.207
  194SOL    HW2  602   0.872   0.493   2.283
  195SOL     OW  603   1.637   0.460   0.978
  195SOL    HW1  604   1.587   0.440   1.064
  195SOL    HW2  605   1.596   0.545   0.944
  196SOL     OW  606   0.510   0.732   2.194
  196SOL    HW1  607   0.585   0.670   2.175
  196SOL    HW2  608   0.548   0.823   2.209
  197SOL     OW  609   1.501   2.393   1.696
  197SOL    HW1  610   1.547   0.007   1.608
  197SOL    HW2  611   1.418   0.048   1.701
  198SOL     OW  612   0.773   0.227   0.069
  198SOL    HW1  613   0.747   0.206   2.374
  198SOL    HW2  614   0.872   0.218   0.078
  199SOL     OW  615   1.622   0.275   2.117
  199SOL    HW1  616   1.586   0.346   2.057
  199SOL    HW2  617   1.544   0.218   2.143
  200SOL     OW  618   2.238   1.267   1.455
  200SOL    HW1  619   2.169   1.326   1.494
  200SOL    HW2  620   2.256   1.300   1.361
   2.40105   2.40105   2.40105
