water:acetic acid 2%
  620
    1ACOH    H4    1   1.269   1.111   0.221 -0.2737 -0.8926  1.0676
    1ACOH    O2    2   1.313   1.189   0.258  0.0374 -0.6487  0.1908
    1ACOH    C2    3   1.391   1.237   0.157 -0.3246 -0.2286  0.8450
    1ACOH    O1    4   1.386   1.198   0.042 -0.3895 -0.0969 -0.4211
    1ACOH    C1    5   1.482   1.335   0.205  0.2800 -0.2924 -0.2465
    1ACOH    H1    6   1.584   1.296   0.198  0.2080 -0.1653 -2.3976
    1ACOH    H2    7   1.467   1.350   0.312 -1.3328  0.3159 -0.5438
    1ACOH    H3    8   1.481   1.428   0.147 -0.5980 -0.3723 -0.3626
    2ACOH    H4    9   1.588   0.993   1.688 -0.8676 -0.5286 -0.7566
    2ACOH    O2   10   1.591   0.951   1.776 -0.3124  0.2599 -0.3899
    2ACOH    C2   11   1.479   0.879   1.795  0.4027 -0.4955  0.6067
    2ACOH    O1   12   1.388   0.862   1.716 -0.9232 -0.0637 -0.6148
    2ACOH    C1   13   1.473   0.818   1.930  0.4699  0.7455 -0.4628
    2ACOH    H1   14   1.443   0.898   1.997 -0.3649  1.3051 -1.4856
    2ACOH    H2   15   1.566   0.779   1.971 -0.3767  0.0129  0.7825
    2ACOH    H3   16   1.393   0.744   1.930 -0.0079  1.2321  1.8277
    3ACOH    H4   17   0.711   0.207   1.657  0.9902  0.4595  0.0539
    3ACOH    O2   18   0.681   0.292   1.621  0.0287  0.1585  0.1307
    3ACOH    C2   19   0.652   0.273   1.492 -0.4822  0.5728  0.3760
    3ACOH    O1   20   0.644   0.166   1.430  0.6691 -0.3193 -0.0185
    3ACOH    C1   21   0.655   0.397   1.413 -0.3476  0.1246 -0.3856
    3ACOH    H1   22   0.628   0.376   1.310  1.7934  1.0822 -1.1613
    3ACOH    H2   23   0.758   0.434   1.414 -0.5166  0.6063  1.9378
    3ACOH    H3   24   0.596   0.472   1.465 -3.0939 -2.2655  0.1097
    4ACOH    H4   25   1.296   1.590   0.129  0.1533 -0.2075  0.5638
    4ACOH    O2   26   1.343   1.634   0.202  0.0470  0.4992  0.2174
    4ACOH    C2   27   1.296   1.561   0.307  0.3891  0.4037 -0.6440
    4ACOH    O1   28   1.179   1.529   0.321 -0.0492 -0.3276  0.2964
    4ACOH    C1   29   1.375   1.594   0.426 -0.0628 -0.6344  0.1028
    4ACOH    H1   30   1.476   1.623   0.398  0.2331 -0.8465  0.9142
    4ACOH    H2   31   1.389   1.512   0.496 -3.4730  1.1168  3.0012
    4ACOH    H3   32   1.316   1.666   0.483 -2.5130 -2.9725  0.6186
    5SOL     OW   33   1.095   1.481   0.692 -0.2111  0.0057 -0.0031
    5SOL    HW1   34   1.186   1.515   0.715  0.3143 -1.7068  0.5000
    5SOL    HW2   35   1.067   1.519   0.604  1.7636 -0.8660 -1.0415
    6SOL     OW   36   1.606   1.277   0.550 -0.4166 -0.1496 -0.4730
    6SOL    HW1   37   1.617   1.361   0.604  2.5657 -1.8337  1.6480
    6SOL    HW2   38   1.696   1.240   0.527 -1.6927 -3.2973 -0.5638
    7SOL     OW   39   1.686   0.559   1.414  0.4774  0.3130  0.1798
    7SOL    HW1   40   1.588   0.551   1.436 -0.1651 -0.7698 -2.8541
    7SOL    HW2   41   1.739   0.548   1.498 -1.8678 -2.2818  1.4251
    8SOL     OW   42   0.353   0.196   0.019 -0.4398  0.3241  0.3778
    8SOL    HW1   43   0.266   0.193  -0.030 -1.0423  1.0826  1.4049
    8SOL    HW2   44   0.404   0.278  -0.009 -0.1890  0.0549  0.0296
    9SOL     OW   45   1.340   1.585   0.794 -0.1019  0.2176 -0.0474
    9SOL    HW1   46   1.329   1.682   0.817  1.1085 -0.0348  1.7590
    9SOL    HW2   47   1.433   1.568   0.764 -0.0693 -0.5408  0.4648
   10SOL     OW   48   1.218   0.096   1.352 -0.6830 -0.1083  0.0737
   10SOL    HW1   49   1.142   0.051   1.399 -1.6814  0.5067 -0.9052
   10SOL    HW2   50   1.247   0.041   1.274  0.9410 -1.1053  1.3436
   11SOL     OW   51   0.956   0.876   1.729  0.2474  0.3096 -0.3839
   11SOL    HW1   52   0.921   0.851   1.639  0.1460 -0.9167 -0.0065
   11SOL    HW2   53   0.880   0.897   1.790  0.2666 -0.1946 -0.1903
   12SOL     OW   54   0.563   1.550   0.423 -0.5835  0.0092  0.1794
   12SOL    HW1   55   0.519   1.559   0.512 -3.1564 -2.6871 -0.7390
   12SOL    HW2   56   0.634   1.480   0.427 -0.4213  0.1735  0.1998
   13SOL     OW   57   0.581   0.083   0.145  0.1625  0.4413  0.4161
   13SOL    HW1   58   0.669   0.111   0.106 -0.9092  1.8827 -1.0160
   13SOL    HW2   59   0.509   0.146   0.115 -0.9036  1.0105  3.8632
   14SOL     OW   60   1.551   1.068   1.528  0.1011 -0.1779 -0.5953
   14SOL    HW1   61   1.459   1.073   1.490 -0.1599 -1.8449 -0.2009
   14SOL    HW2   62   1.616   1.106   1.462 -0.7874  0.4733 -1.1096
   15SOL     OW   63   1.451   1.075   1.209 -0.5573 -0.0710  0.1737
   15SOL    HW1   64   1.376   1.064   1.274  0.2792 -0.8584  1.0351
   15SOL    HW2   65   1.488   1.168   1.215 -2.2684  0.7137 -1.1579
   16SOL     OW   66   0.947   1.330   1.509 -0.0166 -0.0616  0.0238
   16SOL    HW1   67   0.890   1.393   1.455 -1.0267 -1.1861 -0.2264
   16SOL    HW2   68   0.980   1.256   1.450  2.0606  0.7932  0.0654
   17SOL     OW   69   0.490   1.223   0.718  0.3494  0.1188  0.3134
   17SOL    HW1   70   0.423   1.177   0.777  1.4016 -2.1456 -0.2171
   17SOL    HW2   71   0.582   1.191   0.741  0.8531 -0.1448 -1.9707
   18SOL     OW   72   0.717   0.629   0.549  0.3385 -0.3890  0.2694
   18SOL    HW1   73   0.756   0.699   0.490  0.4765  0.2864  1.1405
   18SOL    HW2   74   0.691   0.549   0.495 -2.1893  1.3134 -1.1299
   19SOL     OW   75   1.337   0.537   1.758 -0.7396  0.9812  0.2308
   19SOL    HW1   76   1.433   0.541   1.784 -0.9013  2.8300  0.6105
   19SOL    HW2   77   1.293   0.461   1.805  0.9145 -0.9564 -1.2865
   20SOL     OW   78   0.420   1.392   0.202  0.0228  0.1128  0.3318
   20SOL    HW1   79   0.484   1.408   0.127  0.1069 -0.9047  0.1729
   20SOL    HW2   80   0.444   1.450   0.280  1.1532 -0.2725  0.2769
   21SOL     OW   81   0.571   0.348   1.012 -0.4362  0.3942  0.5850
   21SOL    HW1   82   0.647   0.413   1.008 -0.3005  0.2070  0.1077
   21SOL    HW2   83   0.601   0.259   0.979 -1.7125  1.1295 -2.7740
   22SOL     OW   84   0.268   0.774   0.430  0.2830 -0.2010  0.1387
   22SOL    HW1   85   0.283   0.708   0.504 -0.2533 -1.3836 -0.7917
   22SOL    HW2   86   0.218   0.853   0.465  1.2389 -0.1083  1.3469
   23SOL     OW   87   0.854   1.719   0.607 -0.4593  0.5570 -0.0903
   23SOL    HW1   88   0.919   1.652   0.571 -0.9033  0.1408 -0.1371
   23SOL    HW2   89   0.844   1.795   0.543 -2.2090 -0.7936 -1.4799
   24SOL     OW   90   1.746   1.601   0.349 -0.1578  0.0009  0.1783
   24SOL    HW1   91   1.842   1.575   0.342  0.4994  1.8663  1.8831
   24SOL    HW2   92   1.722   1.661   0.273  0.1860  0.0783  0.1313
   25SOL     OW   93   1.658   0.294   1.120  0.1592  0.0799  0.2938
   25SOL    HW1   94   1.709   0.366   1.073  0.4407 -0.1378  0.2640
   25SOL    HW2   95   1.563   0.321   1.129 -0.0176 -0.1124 -0.8997
   26SOL     OW   96   1.058   0.323   0.389  0.3708 -0.5857 -0.2354
   26SOL    HW1   97   1.083   0.417   0.410 -2.7619  0.5353 -1.3270
   26SOL    HW2   98   1.059   0.269   0.473  3.5714  0.0286  0.1852
   27SOL     OW   99   0.182   1.036   1.574 -0.3030 -0.2579  0.5055
   27SOL    HW1  100   0.278   1.051   1.592 -0.4686  0.6554  0.6159
   27SOL    HW2  101   0.144   0.974   1.643 -0.2475  0.8892  1.5798
   28SOL     OW  102   0.508   0.681   0.117  0.3265  0.4862  0.0414
   28SOL    HW1  103   0.468   0.760   0.070 -0.2939  0.3368  0.3092
   28SOL    HW2  104   0.597   0.660   0.077 -0.2681  0.2532 -1.1767
   29SOL     OW  105   0.681   1.605   0.815 -0.7621  0.0012 -1.0012
   29SOL    HW1  106   0.754   1.628   0.751  1.0083 -2.2943  0.1100
   29SOL    HW2  107   0.610   1.552   0.769 -0.8104  0.6424 -1.6611
   30SOL     OW  108   1.023   0.637   1.569 -0.1473 -0.5292 -0.3920
   30SOL    HW1  109   1.056   0.554   1.616 -0.9927 -2.1338 -2.5632
   30SOL    HW2  110   1.096   0.705   1.568  1.2187 -1.9553 -0.2299
   31SOL     OW  111   1.627   1.437   0.791  0.0168  0.3889 -0.2990
   31SOL    HW1  112   1.623   1.472   0.884  0.1117 -0.7473  0.1379
   31SOL    HW2  113   1.686   1.496   0.735  4.0730 -1.6800  1.5893
   32SOL     OW  114   0.358   1.258   0.467 -0.1375  0.3279 -0.9310
   32SOL    HW1  115   0.404   1.232   0.552 -2.2570  0.0701  0.1832
   32SOL    HW2  116   0.378   1.190   0.396 -0.2068 -0.7227  0.0341
   33SOL     OW  117   1.216   0.313   0.178  0.0398 -0.0373  0.2226
   33SOL    HW1  118   1.310   0.283   0.196 -0.7789 -2.6279  0.3909
   33SOL    HW2  119   1.164   0.313   0.264 -0.6884 -0.7182 -0.2158
   34SOL     OW  120   0.368   0.518   1.273  0.2140  0.4075 -0.4057
   34SOL    HW1  121   0.358   0.431   1.225  0.6687 -0.2950  0.7506
   34SOL    HW2  122   0.304   0.585   1.236 -0.6612 -0.6469 -0.7871
   35SOL     OW  123   1.450   0.798   1.311 -0.0966  0.2214 -0.7202
   35SOL    HW1  124   1.454   0.892   1.276 -1.2784 -0.6970 -3.4821
   35SOL    HW2  125   1.543   0.767   1.333  0.4091  1.6874 -0.7048
   36SOL     OW  126   0.403   0.290   0.432 -0.6477 -0.4336 -0.2585
   36SOL    HW1  127   0.357   0.330   0.511  1.5171  0.7362  0.4357
   36SOL    HW2  128   0.351   0.309   0.350  0.2287  3.7252  0.0656
   37SOL     OW  129   1.531   1.817   1.344  0.0120  0.0762 -0.9797
   37SOL    HW1  130   1.474   1.768   1.278  1.5166 -2.0634 -0.7465
   37SOL    HW2  131   1.617   1.844   1.301  0.6233 -0.5344 -0.1605
   38SOL     OW  132   1.826   0.535   1.199  0.8196  0.1576  0.4898
   38SOL    HW1  133   1.883   0.617   1.201  0.7808  0.2392 -1.1148
   38SOL    HW2  134   1.767   0.534   1.279  0.7892  1.7241  0.5106
   39SOL     OW  135   1.843   1.761   1.112 -0.0382 -0.9388  0.4920
   39SOL    HW1  136   1.889   1.771   1.200  0.1086 -3.2303  0.7015
   39SOL    HW2  137   1.910   1.764   1.039  0.0658 -0.9490  0.5863
   40SOL     OW  138   0.956   0.501   0.674  0.0423  0.0001  0.1252
   40SOL    HW1  139   1.032   0.529   0.733  1.3996 -0.4188 -1.3877
   40SOL    HW2  140   0.912   0.581   0.635  1.7913  0.1890 -1.5484
   41SOL     OW  141   1.191   0.965   0.191 -0.4869 -0.4214 -0.2077
   41SOL    HW1  142   1.228   0.915   0.269  0.7486  1.0495  0.1747
   41SOL    HW2  143   1.121   0.910   0.146 -0.5438 -1.6598  1.3712
   42SOL     OW  144   1.033   0.387   1.812 -0.0945  0.4329  0.0482
   42SOL    HW1  145   1.096   0.392   1.889 -0.4432  1.3711  0.2799
   42SOL    HW2  146   0.941   0.365   1.845  0.4923 -3.1535 -0.4968
   43SOL     OW  147   1.774   0.634   0.270 -0.2270 -0.4384  0.2145
   43SOL    HW1  148   1.795   0.553   0.216  0.0348 -0.4707  0.3635
   43SOL    HW2  149   1.791   0.615   0.367 -1.4780 -0.6400  0.3991
   44SOL     OW  150   1.068   1.772   0.178 -0.7588  0.1576 -0.1088
   44SOL    HW1  151   1.102   1.685   0.143  0.3187 -0.0472  1.4013
   44SOL    HW2  152   1.036   1.760   0.272  2.3145  1.9947  1.2641
   45SOL     OW  153   0.749   0.039   1.710 -0.2828  0.1350  0.5064
   45SOL    HW1  154   0.756  -0.055   1.677  2.8413  0.3949  0.1883
   45SOL    HW2  155   0.806   0.049   1.792  1.0665  2.1782 -0.6339
   46SOL     OW  156   1.672   0.640   0.978 -0.8109 -0.1233  0.3450
   46SOL    HW1  157   1.657   0.731   1.015 -1.5616 -0.0551 -0.1124
   46SOL    HW2  158   1.742   0.593   1.032  1.0214  1.4426 -0.6156
   47SOL     OW  159   1.082   1.306   1.744  0.0158 -0.1975 -0.4561
   47SOL    HW1  160   1.104   1.216   1.706 -0.9780  0.1920 -1.9455
   47SOL    HW2  161   1.017   1.353   1.685 -0.5111  0.9664  1.0174
   48SOL     OW  162   0.737   1.148   1.748 -0.4734 -0.1511  0.0454
   48SOL    HW1  163   0.708   1.225   1.805  2.0740  0.2567  0.8678
   48SOL    HW2  164   0.747   1.067   1.806 -0.7177 -0.4744 -0.3657
   49SOL     OW  165   1.372   0.012   0.854  0.2746  0.2329 -0.0897
   49SOL    HW1  166   1.321   0.096   0.836 -0.6535 -0.4775 -0.7440
   49SOL    HW2  167   1.458   0.014   0.803  0.1665  0.6929 -0.2560
   50SOL     OW  168   1.727   0.218   1.783  0.2250 -0.2643  0.2508
   50SOL    HW1  169   1.704   0.239   1.878 -0.6274  0.3920 -0.0909
   50SOL    HW2  170   1.703   0.123   1.763 -0.6840 -0.0686  0.3706
   51SOL     OW  171   0.030   0.622   0.527 -0.1807  0.2273 -0.1746
   51SOL    HW1  172   0.032   0.573   0.614  0.4134 -1.2186 -0.9943
   51SOL    HW2  173   0.032   0.721   0.545 -2.2944 -0.0079  1.5014
   52SOL     OW  174   0.351   0.210   0.848  0.2276 -0.7892  0.1481
   52SOL    HW1  175   0.403   0.250   0.923  1.4461 -1.1055 -0.5316
   52SOL    HW2  176   0.404   0.137   0.805  0.3570  0.6767 -2.2864
   53SOL     OW  177   0.335   0.258   1.182  0.3418  0.3261  0.5849
   53SOL    HW1  178   0.300   0.165   1.182 -1.9405  1.1376 -0.2268
   53SOL    HW2  179   0.422   0.261   1.133 -0.3076 -1.1345 -0.7003
   54SOL     OW  180   1.002   0.880   0.922 -0.5811 -0.6424 -0.6586
   54SOL    HW1  181   1.028   0.960   0.868 -0.8796 -0.0962  0.0030
   54SOL    HW2  182   0.996   0.800   0.862 -0.4844 -0.1291 -1.3578
   55SOL     OW  183   0.203   1.507   0.381 -0.2340 -0.2260  0.5132
   55SOL    HW1  184   0.230   1.413   0.401 -0.3136 -0.3321  0.1288
   55SOL    HW2  185   0.228   1.529   0.287 -1.4587 -0.3222  0.1566
   56SOL     OW  186   1.485   1.376   1.255  0.9089  0.2536  0.8894
   56SOL    HW1  187   1.456   1.413   1.166  0.4696  2.6686  2.0052
   56SOL    HW2  188   1.407   1.376   1.317  1.8960  1.2865  2.1451
   57SOL     OW  189   0.217   1.650   0.618  0.6187 -0.1157 -0.4715
   57SOL    HW1  190   0.133   1.701   0.636  1.7627  1.6856 -0.1443
   57SOL    HW2  191   0.208   1.599   0.533 -0.0616  1.6759 -1.4846
   58SOL     OW  192   1.738   1.447   1.293 -0.1353 -0.4636 -0.0902
   58SOL    HW1  193   1.769   1.461   1.387  1.3930  1.4591 -0.8225
   58SOL    HW2  194   1.639   1.434   1.292 -0.5618  2.1536  1.5674
   59SOL     OW  195   0.490   0.947   0.020  0.5354 -0.2013 -0.4305
   59SOL    HW1  196   0.459   0.981  -0.068  2.0483  1.4437 -0.3421
   59SOL    HW2  197   0.494   1.022   0.086  0.8500 -1.1400  0.6463
   60SOL     OW  198   1.007   1.134   1.319  0.4108  0.5569  0.1075
   60SOL    HW1  199   1.057   1.049   1.303  2.2985  1.6803 -0.0369
   60SOL    HW2  200   0.961   1.161   1.234 -0.2057 -0.3048  0.1527
   61SOL     OW  201   0.094   0.839   0.193  0.4720 -0.2400  0.2262
   61SOL    HW1  202   0.154   0.786   0.253  1.3949  1.2860  0.6703
   61SOL    HW2  203   0.000   0.807   0.205  1.2190 -3.0504 -0.8960
   62SOL     OW  204   1.614   0.837   0.393 -0.1690  0.3444 -0.4421
   62SOL    HW1  205   1.682   0.771   0.360  1.9484  1.6127  1.2249
   62SOL    HW2  206   1.629   0.925   0.349 -1.1628  0.4715 -0.5404
   63SOL     OW  207   0.862   1.824   1.041  0.0470 -0.1331  0.3474
   63SOL    HW1  208   0.908   1.757   0.983 -2.2791 -2.1618  0.7865
   63SOL    HW2  209   0.788   1.780   1.091 -1.0148  2.6066  1.2806
   64SOL     OW  210   0.769   0.893   0.077  0.4377 -0.2397 -0.2274
   64SOL    HW1  211   0.798   0.812   0.128  1.5952  1.5741  2.0547
   64SOL    HW2  212   0.669   0.892   0.068  0.4474 -2.0127 -0.4302
   65SOL     OW  213   1.365   0.425   0.423 -0.3588 -0.5457 -0.3935
   65SOL    HW1  214   1.302   0.483   0.371 -0.6302 -0.3389  0.1654
   65SOL    HW2  215   1.458   0.459   0.411 -0.6218  0.6089  0.7130
   66SOL     OW  216   0.262   0.626   1.523 -0.1860  0.5872 -0.5956
   66SOL    HW1  217   0.282   0.531   1.498  0.4152  0.7081 -0.5908
   66SOL    HW2  218   0.225   0.629   1.616 -3.2617  0.0508 -1.7550
   67SOL     OW  219   0.144   0.281   1.413  0.2933 -0.0901 -0.0463
   67SOL    HW1  220   0.216   0.291   1.344  0.2389 -1.7813 -0.3883
   67SOL    HW2  221   0.055   0.280   1.368  0.0227  2.2142  0.3984
   68SOL     OW  222   1.042   0.902   1.178  0.2138 -0.6241  0.0816
   68SOL    HW1  223   1.036   0.888   1.079 -0.0834  1.5442 -0.2407
   68SOL    HW2  224   0.961   0.863   1.222 -0.2072 -0.6028 -0.6671
   69SOL     OW  225   1.633   0.436   0.493  0.3432  0.0954 -0.4135
   69SOL    HW1  226   1.729   0.407   0.490  0.4142  0.3127 -0.2553
   69SOL    HW2  227   1.594   0.414   0.582  0.3051  0.1908 -0.4063
   70SOL     OW  228   0.917   1.511   0.930  0.2438  0.2509  0.1990
   70SOL    HW1  229   0.975   1.522   0.849  0.6109  1.2024  0.5827
   70SOL    HW2  230   0.823   1.535   0.908  0.0082 -1.2442 -0.4130
   71SOL     OW  231   0.867   0.377   0.215 -0.3627 -0.4809 -0.1116
   71SOL    HW1  232   0.776   0.390   0.253 -0.5511  0.0557 -0.7415
   71SOL    HW2  233   0.927   0.337   0.285 -1.2002 -1.2824  0.1567
   72SOL     OW  234   0.978   1.322   0.150 -0.2546 -0.6471 -0.0402
   72SOL    HW1  235   1.031   1.262   0.210 -1.2530 -2.5463 -1.0466
   72SOL    HW2  236   1.017   1.323   0.059 -0.7181 -0.3918 -0.2423
   73SOL     OW  237   1.729   1.617   0.635 -0.0188 -0.5154 -0.2485
   73SOL    HW1  238   1.696   1.710   0.654 -0.3703 -0.3536 -1.5791
   73SOL    HW2  239   1.727   1.601   0.536 -0.1049 -1.9980 -0.0154
   74SOL     OW  240   1.144   0.890   0.624 -0.2430  0.4251 -0.4933
   74SOL    HW1  241   1.209   0.918   0.695 -0.0412  0.3266 -0.6394
   74SOL    HW2  242   1.065   0.951   0.626 -0.1979  0.4781 -0.2418
   75SOL     OW  243   0.892   1.616   1.648 -0.3838 -0.2695  0.2654
   75SOL    HW1  244   0.880   1.547   1.577 -1.3467  0.2999 -0.1450
   75SOL    HW2  245   0.855   1.581   1.735 -1.1666 -0.1576 -0.0155
   76SOL     OW  246   1.336   0.930   0.827  0.2804  0.2695 -0.0773
   76SOL    HW1  247   1.357   0.872   0.905 -3.1568 -1.1505 -0.1272
   76SOL    HW2  248   1.345   1.026   0.853  2.3677 -0.2137  1.0703
   77SOL     OW  249   0.292   1.059   0.873 -0.4294  0.8757  0.5290
   77SOL    HW1  250   0.215   1.121   0.866 -0.7176  0.7614  2.5950
   77SOL    HW2  251   0.329   1.060   0.966  0.5581 -0.8543  0.1913
   78SOL     OW  252   0.925   1.007   0.572  0.0056 -0.8730  0.1581
   78SOL    HW1  253   0.912   0.918   0.529 -1.9068  0.2418 -1.6444
   78SOL    HW2  254   0.856   1.021   0.643 -0.3859 -0.3905 -0.3109
   79SOL     OW  255   1.229   1.395   1.411 -0.6806 -0.0100  0.6605
   79SOL    HW1  256   1.262   1.480   1.452 -1.0538  1.2025 -1.5059
   79SOL    HW2  257   1.130   1.391   1.418 -0.7375  0.1573 -0.0292
   80SOL     OW  258   0.036   0.312   0.475  0.2952  0.2188  0.3216
   80SOL    HW1  259   0.096   0.263   0.413 -0.0088 -0.5213  0.6061
   80SOL    HW2  260   0.091   0.364   0.540  0.6161  0.5839 -0.2395
   81SOL     OW  261   1.659   1.810   0.166 -0.2153 -0.4096  0.1766
   81SOL    HW1  262   1.749   1.854   0.168 -0.7056  0.6121  0.3106
   81SOL    HW2  263   1.658   1.741   0.094  1.4178 -2.0841  1.6982
   82SOL     OW  264   0.823   0.777   1.324  0.9976  0.0328  0.4602
   82SOL    HW1  265   0.825   0.863   1.375  0.7779  0.5165 -0.3404
   82SOL    HW2  266   0.880   0.709   1.371 -0.5596 -0.0747  2.3013
   83SOL     OW  267   0.060   1.804   1.395  0.3248  0.2194 -0.2296
   83SOL    HW1  268   0.068   1.904   1.393  0.1705  0.2085 -2.8505
   83SOL    HW2  269   0.036   1.775   1.488  0.9917  2.5545  0.7210
   84SOL     OW  270   0.841   0.823   0.389  0.1293 -0.7751  0.7646
   84SOL    HW1  271   0.752   0.851   0.354  1.2581  1.2750 -0.5288
   84SOL    HW2  272   0.882   0.757   0.325  0.1774 -0.6109  0.6273
   85SOL     OW  273   0.363   0.541   0.928 -0.4393  0.4781  0.0557
   85SOL    HW1  274   0.419   0.534   0.845  0.0658 -0.6874  0.4788
   85SOL    HW2  275   0.420   0.519   1.008 -0.4526  3.4184  0.8971
   86SOL     OW  276   0.360   1.739   0.199  0.4550  0.1597  0.7204
   86SOL    HW1  277   0.452   1.769   0.174  1.2687 -1.8209  1.2271
   86SOL    HW2  278   0.335   1.778   0.288  0.7611  0.7819  0.5368
   87SOL     OW  279   1.336   1.761   1.136 -0.2242  0.2784  0.1414
   87SOL    HW1  280   1.355   1.824   1.062 -1.5695  0.2880 -0.2111
   87SOL    HW2  281   1.344   1.667   1.103 -1.3715  0.2830 -0.1768
   88SOL     OW  282   0.041   1.156   0.948  0.4531  0.3328  0.0036
   88SOL    HW1  283  -0.049   1.172   0.909  0.2143  0.9294  0.7896
   88SOL    HW2  284   0.039   1.072   1.003  0.4925  0.1207 -0.3140
   89SOL     OW  285   0.792   0.061   0.398  0.2585  0.5145  0.3603
   89SOL    HW1  286   0.753   0.050   0.307  0.3190  2.1942  0.1332
   89SOL    HW2  287   0.748   0.137   0.445  0.8691  0.2389  1.3991
   90SOL     OW  288   0.037   1.197   0.492  0.4506 -0.0990 -0.2257
   90SOL    HW1  289   0.115   1.255   0.516 -0.6986  1.0380  0.8501
   90SOL    HW2  290   0.056   1.148   0.407  1.4936  1.7874 -1.1009
   91SOL     OW  291   1.567   0.325   1.576  0.1583  0.0650 -0.0295
   91SOL    HW1  292   1.506   0.403   1.573 -0.9404 -0.7755  0.1263
   91SOL    HW2  293   1.622   0.329   1.659  0.3109  0.8107 -0.1604
   92SOL     OW  294   1.283   0.271   0.867  0.6094  0.2045  0.7555
   92SOL    HW1  295   1.282   0.349   0.804  2.3091  0.5764  1.1806
   92SOL    HW2  296   1.326   0.298   0.953  0.1120 -0.8797  1.3593
   93SOL     OW  297   1.403   0.077   0.163  0.8026  0.4527 -0.0999
   93SOL    HW1  298   1.483   0.017   0.160  0.3646 -0.2144  0.9739
   93SOL    HW2  299   1.329   0.030   0.211  0.4273  1.8292  0.7035
   94SOL     OW  300   1.616   0.049   1.597 -0.1722 -0.4789 -0.2617
   94SOL    HW1  301   1.642   0.006   1.511 -2.9257  0.7233 -1.7526
   94SOL    HW2  302   1.566   0.133   1.579 -0.6505 -0.1055  2.5279
   95SOL     OW  303   0.718   0.308   0.729  0.1692  0.2728 -0.2968
   95SOL    HW1  304   0.707   0.250   0.810 -0.1566  0.6909 -0.0422
   95SOL    HW2  305   0.803   0.360   0.737 -0.5636  1.3923  0.4618
   96SOL     OW  306   1.298   0.659   1.121  0.2076  0.6171 -0.0173
   96SOL    HW1  307   1.352   0.699   1.047 -0.0607  0.4844 -0.2874
   96SOL    HW2  308   1.336   0.688   1.209  0.6915  0.5576 -0.2027
   97SOL     OW  309   1.591   0.065   0.437  0.3278  0.0277 -0.5769
   97SOL    HW1  310   1.598   0.019   0.349 -1.0571 -2.9719  0.7870
   97SOL    HW2  311   1.495   0.075   0.462  0.7117 -1.2679  1.5824
   98SOL     OW  312   0.567   1.380   1.800  0.3192 -0.4388  0.4235
   98SOL    HW1  313   0.528   1.443   1.733  0.4195 -0.2669  0.5254
   98SOL    HW2  314   0.650   1.420   1.840  0.2400 -0.5238  0.6764
   99SOL     OW  315   0.443   1.112   1.632 -0.0402  0.6205  0.5034
   99SOL    HW1  316   0.462   1.136   1.537  0.1476 -1.1597  0.0800
   99SOL    HW2  317   0.436   1.195   1.687  1.5143  1.6019 -0.7501
  100SOL     OW  318   0.104   1.402   1.106 -0.4622  0.6719 -0.0722
  100SOL    HW1  319   0.073   1.328   1.047 -0.4028 -0.9033  1.8583
  100SOL    HW2  320   0.036   1.420   1.177  1.8034 -1.0626  2.6206
  101SOL     OW  321   1.190   0.603   0.839 -0.0150  0.2154 -0.7458
  101SOL    HW1  322   1.272   0.580   0.787 -0.3022 -0.8379 -0.7570
  101SOL    HW2  323   1.185   0.544   0.920  0.4937  1.9264  0.5557
  102SOL     OW  324   1.790   0.630   1.675 -0.3899  0.4628  0.5048
  102SOL    HW1  325   1.779   0.716   1.624  1.7686 -0.3943 -1.4810
  102SOL    HW2  326   1.884   0.621   1.705 -0.6208 -1.1835  0.7598
  103SOL     OW  327   1.361   0.403   1.094  0.5424  0.0799 -0.0696
  103SOL    HW1  328   1.335   0.500   1.100  0.7126 -0.0032  2.8306
  103SOL    HW2  329   1.361   0.363   1.186 -0.0202 -2.8224 -1.2716
  104SOL     OW  330   1.591   0.535   1.845 -0.2704  0.5849  0.2699
  104SOL    HW1  331   1.671   0.560   1.789  0.2505 -0.2352  0.6390
  104SOL    HW2  332   1.622   0.500   1.933 -1.1288  4.1789  2.0788
  105SOL     OW  333   1.302   0.838   0.425 -0.2976 -0.9362 -0.0509
  105SOL    HW1  334   1.248   0.836   0.509 -0.7606  0.5611 -0.3043
  105SOL    HW2  335   1.379   0.901   0.436 -0.6710 -0.3111 -0.9320
  106SOL     OW  336   1.599   0.934   0.645  0.5865  0.0334 -0.3686
  106SOL    HW1  337   1.613   0.897   0.552 -0.9711 -0.0588 -0.5729
  106SOL    HW2  338   1.510   0.904   0.679 -0.3247  2.8430 -0.1713
  107SOL     OW  339   1.755   0.871   1.540  0.4946 -0.2794  0.2203
  107SOL    HW1  340   1.657   0.892   1.542  0.6942  0.6671  0.2001
  107SOL    HW2  341   1.804   0.947   1.499  1.0989 -1.3249 -1.0381
  108SOL     OW  342   1.609   0.291   0.219 -0.1981 -0.2493  0.3170
  108SOL    HW1  343   1.614   0.333   0.310 -0.2270  0.8580 -0.1957
  108SOL    HW2  344   1.542   0.216   0.221 -3.1600  2.3032  0.2045
  109SOL     OW  345   0.756   1.506   1.439 -0.0751  0.0825  0.4531
  109SOL    HW1  346   0.693   1.584   1.446  2.5822  2.7718 -3.0934
  109SOL    HW2  347   0.724   1.444   1.367 -0.7581 -0.6898  1.4134
  110SOL     OW  348   0.147   0.301   1.704 -0.0696  0.3865  0.5844
  110SOL    HW1  349   0.165   0.290   1.606  0.7983 -0.6346  0.8349
  110SOL    HW2  350   0.049   0.297   1.721 -0.3510  2.5674 -0.4586
  111SOL     OW  351   0.027   1.715   1.648  0.0714  0.1012 -0.6620
  111SOL    HW1  352   0.099   1.701   1.716 -0.6362  0.1970  0.1105
  111SOL    HW2  353  -0.062   1.718   1.693 -0.5113 -0.8876 -1.7041
  112SOL     OW  354   0.195   0.371   0.672 -0.1512  0.2225 -0.5780
  112SOL    HW1  355   0.138   0.426   0.733 -0.5985  0.4235 -1.1674
  112SOL    HW2  356   0.265   0.323   0.725 -1.3112 -0.5800  0.2334
  113SOL     OW  357   1.367   1.603   1.535  0.7308  0.0689 -0.0454
  113SOL    HW1  358   1.320   1.671   1.590  2.3033  1.1963 -0.0413
  113SOL    HW2  359   1.434   1.649   1.476 -0.2591 -1.2030 -2.2011
  114SOL     OW  360   0.332   0.562   0.270  0.1766 -0.2028  0.2830
  114SOL    HW1  361   0.404   0.591   0.207  0.3945 -0.7212  0.2879
  114SOL    HW2  362   0.288   0.642   0.310 -1.3518  0.1808 -2.0991
  115SOL     OW  363   1.718   0.224   1.373 -0.8194  0.5752 -0.0947
  115SOL    HW1  364   1.674   0.272   1.449 -0.3893  0.3180  0.3213
  115SOL    HW2  365   1.696   0.270   1.287 -1.9622  0.3993  0.0945
  116SOL     OW  366   0.447   1.825   0.736 -0.0102  0.1029  0.2420
  116SOL    HW1  367   0.371   1.791   0.681  0.5854  1.1631 -1.2586
  116SOL    HW2  368   0.533   1.788   0.701  0.2999  0.0464  1.0455
  117SOL     OW  369   0.372   1.334   1.181  0.1727  0.2981 -0.1886
  117SOL    HW1  370   0.384   1.350   1.278 -0.3311  1.7002 -0.3543
  117SOL    HW2  371   0.285   1.374   1.151 -1.1877 -2.7760 -0.6009
  118SOL     OW  372   1.256   1.538   1.827 -0.1102  0.0065  0.2064
  118SOL    HW1  373   1.215   1.453   1.793  2.2482 -0.5913 -1.3024
  118SOL    HW2  374   1.236   1.612   1.763 -0.9895  0.2922  0.8043
  119SOL     OW  375   0.746   1.258   0.517  0.1968 -0.4123 -0.1144
  119SOL    HW1  376   0.789   1.189   0.459  0.8631 -1.4926  1.6426
  119SOL    HW2  377   0.710   1.215   0.600 -0.9907  1.0695  0.1696
  120SOL     OW  378   0.378   0.809   0.719  0.3804  0.4955 -0.6499
  120SOL    HW1  379   0.370   0.907   0.737  0.5459  0.3109  0.4477
  120SOL    HW2  380   0.462   0.775   0.760  0.0710 -0.2147 -0.6026
  121SOL     OW  381   0.224   0.289   0.234  0.1974  0.3472  0.4869
  121SOL    HW1  382   0.268   0.258   0.151 -2.1449  0.8272 -0.9873
  121SOL    HW2  383   0.225   0.389   0.238  0.9100  0.3136  1.3917
  122SOL     OW  384   0.077   0.541   0.845 -0.1957 -0.3068  0.2620
  122SOL    HW1  385   0.041   0.634   0.837 -0.9754 -0.7897 -2.1839
  122SOL    HW2  386   0.160   0.542   0.901 -0.1575  1.8635  0.2025
  123SOL     OW  387   0.512   1.128   0.231  0.3016 -0.2206 -0.1116
  123SOL    HW1  388   0.612   1.128   0.242  0.3704  0.8953 -0.6389
  123SOL    HW2  389   0.481   1.221   0.210 -0.9935 -0.3233  1.2806
  124SOL     OW  390   1.138   0.720   0.047 -0.1497  0.0025  0.0195
  124SOL    HW1  391   1.069   0.777   0.003  0.0321  1.5460  1.6730
  124SOL    HW2  392   1.219   0.714  -0.012 -1.7819 -2.1692 -2.1271
  125SOL     OW  393   0.873   0.639   0.190  0.0320 -0.2398  0.1858
  125SOL    HW1  394   0.963   0.640   0.145 -0.4675 -1.9611 -0.9124
  125SOL    HW2  395   0.850   0.545   0.215 -2.1644 -0.0534 -1.0161
  126SOL     OW  396   1.324   0.156   0.484  0.4156  0.5503  0.4610
  126SOL    HW1  397   1.234   0.140   0.525 -0.4453  1.4460 -1.0314
  126SOL    HW2  398   1.332   0.252   0.458  0.8571 -0.0156 -1.5960
  127SOL     OW  399   1.438   0.556   1.500  0.2608  0.0912  0.2408
  127SOL    HW1  400   1.390   0.579   1.584 -1.3907  1.2115 -0.9550
  127SOL    HW2  401   1.372   0.526   1.431  1.8616 -3.7455  0.2178
  128SOL     OW  402   0.073   0.071   0.144 -0.3746  0.8959 -0.2788
  128SOL    HW1  403   0.136  -0.006   0.152  1.1441  1.7345 -3.3661
  128SOL    HW2  404   0.093   0.139   0.215  0.9420  0.2871 -0.0672
  129SOL     OW  405   0.346   1.046   1.145  0.2190 -0.7785  0.6641
  129SOL    HW1  406   0.357   1.001   1.234 -2.9155 -0.7319  1.1049
  129SOL    HW2  407   0.373   1.142   1.152 -0.2382 -0.7152  1.6326
  130SOL     OW  408   1.645   1.058   0.245  0.2873  0.1719 -0.6500
  130SOL    HW1  409   1.716   1.128   0.247  2.3154 -1.8180 -0.9578
  130SOL    HW2  410   1.632   1.028   0.150 -0.1518 -0.2920 -0.4417
  131SOL     OW  411   0.627   0.659   1.167 -0.2781  0.3389 -0.9067
  131SOL    HW1  412   0.702   0.702   1.216 -0.7551  0.8057 -0.5771
  131SOL    HW2  413   0.560   0.624   1.233  0.2059 -1.1016 -1.1581
  132SOL     OW  414   0.770   1.028   1.484 -0.1229  0.0506  0.1310
  132SOL    HW1  415   0.839   1.080   1.434 -0.6533  0.7091  0.0636
  132SOL    HW2  416   0.765   1.061   1.579 -0.0123 -0.3198  0.2670
  133SOL     OW  417   1.162   1.049   1.644 -0.5915  0.1091 -0.1064
  133SOL    HW1  418   1.084   0.995   1.677 -0.4438 -0.4694 -0.7004
  133SOL    HW2  419   1.243   1.027   1.699 -0.7784  0.4881  0.3180
  134SOL     OW  420   1.091   0.231   0.640 -0.1338  0.3318 -0.1876
  134SOL    HW1  421   1.150   0.291   0.695 -1.9352  1.4089  0.6156
  134SOL    HW2  422   1.018   0.195   0.697 -0.8207 -0.2076 -1.4057
  135SOL     OW  423   1.201   1.763   1.680 -0.1171  0.2917 -0.0130
  135SOL    HW1  424   1.106   1.761   1.648 -0.1820  2.5181 -0.0647
  135SOL    HW2  425   1.222   1.854   1.717  0.5565 -1.5708  4.5268
  136SOL     OW  426   0.619   0.108   0.911 -0.0034 -0.2059  0.1574
  136SOL    HW1  427   0.547   0.041   0.897  0.6959 -0.5786 -1.7759
  136SOL    HW2  428   0.701   0.062   0.946  0.4346 -0.3510 -1.0460
  137SOL     OW  429   0.319   1.773   1.278 -0.2749 -0.6656  0.0332
  137SOL    HW1  430   0.299   1.755   1.182  0.8315 -1.6985 -0.0157
  137SOL    HW2  431   0.246   1.735   1.335 -1.4136  0.7757 -0.4270
  138SOL     OW  432   1.012   1.237   0.823  0.0070 -0.6001  0.3187
  138SOL    HW1  433   1.051   1.280   0.742  1.3063 -1.2223  0.5964
  138SOL    HW2  434   1.085   1.220   0.890 -0.9246 -0.7785  1.3051
  139SOL     OW  435   0.706   0.965   1.025 -0.4107  0.3635  0.2906
  139SOL    HW1  436   0.704   0.881   0.970 -1.1230  0.7552 -0.2930
  139SOL    HW2  437   0.655   0.951   1.110 -0.1378  0.0629  0.4050
  140SOL     OW  438   0.045   0.975   1.151 -0.6243 -0.3486  0.1067
  140SOL    HW1  439   0.134   0.953   1.191 -0.2309  1.7505  0.3939
  140SOL    HW2  440  -0.010   0.891   1.147  1.5571 -1.8055 -0.6489
  141SOL     OW  441   0.273   0.020   0.431 -0.3205  0.4586 -0.0910
  141SOL    HW1  442   0.311   0.108   0.458 -1.5624  0.8714  0.3129
  141SOL    HW2  443   0.196  -0.004   0.491 -0.8636 -0.2581 -1.0562
  142SOL     OW  444   0.689   0.637   1.759  0.0870  0.0866 -0.1670
  142SOL    HW1  445   0.641   0.688   1.688 -1.4394 -0.4180  0.4743
  142SOL    HW2  446   0.782   0.616   1.729  0.4645  2.5078 -0.7691
  143SOL     OW  447   0.095   1.107   0.251  0.1290 -0.0915 -0.7565
  143SOL    HW1  448   0.085   1.010   0.230 -0.5733  0.0529 -1.0997
  143SOL    HW2  449   0.148   1.152   0.179 -1.3889  0.2002 -1.6935
  144SOL     OW  450   1.792   0.219   0.852 -0.7153  0.6974  0.3716
  144SOL    HW1  451   1.747   0.201   0.939  0.1201 -1.8072  0.3051
  144SOL    HW2  452   1.890   0.236   0.868 -0.5494  0.1804 -0.0717
  145SOL     OW  453   0.840   1.195   1.104  0.1701 -0.2574 -0.1641
  145SOL    HW1  454   0.791   1.110   1.085  0.0276 -0.1998 -0.0623
  145SOL    HW2  455   0.910   1.210   1.035  0.6154 -0.7740  0.1747
  146SOL     OW  456   1.178   0.618   0.313  0.2158 -0.1486 -0.3011
  146SOL    HW1  457   1.230   0.690   0.359 -1.5788  1.3831 -0.6158
  146SOL    HW2  458   1.191   0.625   0.215 -0.5778  0.2351 -0.3797
  147SOL     OW  459   1.539   1.433   1.640 -0.2538 -0.2114  0.3609
  147SOL    HW1  460   1.524   1.335   1.654 -2.3427  0.3479  2.2396
  147SOL    HW2  461   1.456   1.475   1.604  0.1846  1.1027  0.8538
  148SOL     OW  462   0.296   0.875   1.380 -0.0105 -0.0469 -0.0115
  148SOL    HW1  463   0.260   0.785   1.406  1.1822  0.4086  3.4004
  148SOL    HW2  464   0.257   0.945   1.440  0.5494  1.4758 -1.4011
  149SOL     OW  465   0.798   1.501   0.038 -0.3439 -0.5114  0.3839
  149SOL    HW1  466   0.773   1.578   0.097  0.2788  0.2088 -0.2971
  149SOL    HW2  467   0.862   1.441   0.086 -0.0904 -0.0970  0.5608
  150SOL     OW  468   0.616   1.708   1.072 -0.0786 -0.4628 -0.0916
  150SOL    HW1  469   0.636   1.678   0.979  1.7686  0.0051  0.1481
  150SOL    HW2  470   0.541   1.653   1.109 -1.0456 -0.4529 -1.9465
  151SOL     OW  471   0.759   1.119   0.789  0.0957 -0.3015 -0.0969
  151SOL    HW1  472   0.848   1.165   0.789 -0.3146  0.5980  2.8808
  151SOL    HW2  473   0.752   1.059   0.868 -2.0936 -0.0736 -0.0850
  152SOL     OW  474   0.937   1.466   0.458  0.9536 -0.8578  0.2219
  152SOL    HW1  475   0.987   1.454   0.373 -0.1434 -0.4567 -0.4965
  152SOL    HW2  476   0.883   1.383   0.477  0.7895 -0.7471  0.2425
  153SOL     OW  477   0.127   0.813   0.858 -0.1733 -0.4577  0.3593
  153SOL    HW1  478   0.222   0.804   0.826 -0.6120  0.0756 -1.0966
  153SOL    HW2  479   0.093   0.905   0.837 -1.9757 -1.5659 -1.7568
  154SOL     OW  480   0.064   0.930   1.785  0.0198 -0.4421  0.7374
  154SOL    HW1  481  -0.021   0.881   1.766 -0.2694  0.8127 -1.4932
  154SOL    HW2  482   0.091   0.917   1.880 -3.3722  0.2296  1.8311
  155SOL     OW  483   0.961   1.839   1.491 -0.1893 -0.1659  0.4182
  155SOL    HW1  484   0.933   1.752   1.532 -1.2149 -0.0931 -0.0964
  155SOL    HW2  485   0.905   1.913   1.528  0.4655  0.2220  0.6191
  156SOL     OW  486   1.190   1.186   1.021 -0.1856  0.1062 -0.1162
  156SOL    HW1  487   1.174   1.280   1.052 -0.4845  0.1841 -0.5153
  156SOL    HW2  488   1.193   1.125   1.101 -1.5267  0.2257  0.0246
  157SOL     OW  489   0.464   0.457   1.785  0.8050  0.2462  0.0254
  157SOL    HW1  490   0.500   0.404   1.708  1.6295 -1.8113  1.7706
  157SOL    HW2  491   0.525   0.534   1.803  2.1425 -0.8492  0.3231
  158SOL     OW  492   0.528   0.874   0.357 -0.0933  0.4262  0.4447
  158SOL    HW1  493   0.478   0.939   0.301  1.9525 -0.9577 -3.2012
  158SOL    HW2  494   0.470   0.795   0.376 -0.4329  0.3227 -0.9147
  159SOL     OW  495   1.609   0.905   1.055 -0.3293 -0.9674 -0.0991
  159SOL    HW1  496   1.628   0.944   0.964  0.2293 -0.5774  0.1851
  159SOL    HW2  497   1.563   0.974   1.111 -1.7452 -1.5878 -0.4648
  160SOL     OW  498   1.301   0.348   1.351 -0.4528  0.1948 -0.6726
  160SOL    HW1  499   1.372   0.320   1.415  0.2332  0.2969 -1.3848
  160SOL    HW2  500   1.248   0.268   1.323  0.2591 -0.0908 -1.2032
  161SOL     OW  501   0.002   0.047   0.552  0.4036 -0.4685 -0.2665
  161SOL    HW1  502  -0.085   0.034   0.505  0.1738 -0.0809  0.0500
  161SOL    HW2  503   0.010   0.142   0.582 -0.1595 -1.0735  1.8919
  162SOL     OW  504   1.223   0.148   1.793  0.7773  0.4964 -0.3846
  162SOL    HW1  505   1.282   0.164   1.873  2.4575  1.2753 -1.7432
  162SOL    HW2  506   1.170   0.231   1.774  0.6157  0.4190 -0.2721
  163SOL     OW  507   0.439   1.567   1.618  0.4257  0.3873  0.2954
  163SOL    HW1  508   0.381   1.632   1.667  1.0692  2.4660 -1.5936
  163SOL    HW2  509   0.501   1.617   1.558  1.3492 -1.9804 -0.7790
  164SOL     OW  510   1.795   1.454   1.559 -0.1233 -0.0269 -0.1491
  164SOL    HW1  511   1.823   1.547   1.581 -0.2501 -0.0880  0.2708
  164SOL    HW2  512   1.702   1.438   1.592  0.9141 -1.1902  2.3023
  165SOL     OW  513   1.045   0.567   1.109 -0.4708 -0.2859 -0.4089
  165SOL    HW1  514   1.131   0.618   1.108 -0.7761  0.2204 -0.9563
  165SOL    HW2  515   1.051   0.493   1.176  0.3043 -0.1033 -0.2739
  166SOL     OW  516   0.449   1.513   0.681  0.3700 -0.3893  0.3650
  166SOL    HW1  517   0.447   1.414   0.694 -1.7534 -0.3472  0.4868
  166SOL    HW2  518   0.358   1.546   0.658  0.8243  1.7012  1.4357
  167SOL     OW  519   1.090   1.630   1.269  0.2743  0.1583  0.2110
  167SOL    HW1  520   1.016   1.694   1.287  0.2136 -0.1101  0.9231
  167SOL    HW2  521   1.169   1.679   1.231  0.3179  0.6939  0.9822
  168SOL     OW  522   0.299   1.760   1.768 -0.0462  0.5252  0.2027
  168SOL    HW1  523   0.342   1.844   1.734  1.2460 -0.3857 -0.4418
  168SOL    HW2  524   0.324   1.747   1.864 -0.4820  1.0204  0.3865
  169SOL     OW  525   0.159   1.296   1.639 -0.3988 -0.1068 -0.3522
  169SOL    HW1  526   0.138   1.201   1.612 -1.0563 -0.4037  1.1402
  169SOL    HW2  527   0.090   1.357   1.601  0.0172 -0.2266 -1.3079
  170SOL     OW  528   0.248   1.661   1.043 -0.0638  0.1303 -0.0653
  170SOL    HW1  529   0.190   1.581   1.057  0.1481 -0.0378 -0.1441
  170SOL    HW2  530   0.272   1.668   0.946  2.4369 -1.4527  0.4154
  171SOL     OW  531   0.994   0.182   0.898 -0.3826 -0.2220  0.1159
  171SOL    HW1  532   1.090   0.183   0.926  0.2115  0.3218 -1.8810
  171SOL    HW2  533   0.939   0.139   0.970  1.3772 -0.7488  1.1802
  172SOL     OW  534   1.056   1.188   0.414 -0.2424 -0.2326  0.2993
  172SOL    HW1  535   1.136   1.224   0.462  0.4778 -2.4876  0.8712
  172SOL    HW2  536   1.014   1.115   0.470 -1.6034 -0.3318 -0.8240
  173SOL     OW  537   1.647   0.455   0.778  0.5002 -0.1395  0.5263
  173SOL    HW1  538   1.666   0.541   0.825 -1.0355  1.0644 -1.0102
  173SOL    HW2  539   1.715   0.386   0.806  1.8437  1.5933  1.6325
  174SOL     OW  540   0.790   1.127   0.264  0.3815 -0.0056  0.1776
  174SOL    HW1  541   0.862   1.186   0.229  0.8161 -0.7674 -0.2242
  174SOL    HW2  542   0.830   1.043   0.300 -0.3661 -0.8302 -0.8735
  175SOL     OW  543   0.861   0.103   0.116 -0.3131 -0.2418 -0.2367
  175SOL    HW1  544   0.936   0.037   0.128 -0.3890 -0.5904 -1.6873
  175SOL    HW2  545   0.892   0.194   0.144 -0.0163 -0.7655  1.1869
  176SOL     OW  546   0.540   0.532   0.728  0.0954  0.0027 -0.2599
  176SOL    HW1  547   0.578   0.443   0.754 -1.0522  0.1840  2.1590
  176SOL    HW2  548   0.607   0.582   0.673  2.3016 -0.7735  1.6389
  177SOL     OW  549   0.528   1.090   1.382 -0.2571 -0.3309  0.0232
  177SOL    HW1  550   0.624   1.070   1.402 -0.3261 -1.7031 -0.9829
  177SOL    HW2  551   0.517   1.188   1.364  1.3955 -0.5500 -2.3183
  178SOL     OW  552   1.750   1.133   1.351  0.3682 -0.1998 -0.0850
  178SOL    HW1  553   1.764   1.231   1.365  2.2007 -0.5372  0.5692
  178SOL    HW2  554   1.807   1.102   1.275  1.1151 -1.1098  0.8559
  179SOL     OW  555   0.233   1.242   0.043  0.4215 -0.0336 -0.1839
  179SOL    HW1  556   0.225   1.254  -0.056  1.0449  0.8869 -0.1288
  179SOL    HW2  557   0.292   1.313   0.081  2.0281 -1.7083  0.5515
  180SOL     OW  558   0.660   1.681   0.203  0.5679 -0.2824  0.2456
  180SOL    HW1  559   0.635   1.776   0.187 -0.3066 -1.0928 -3.4926
  180SOL    HW2  560   0.627   1.653   0.293 -0.1512  2.5875  0.9252
  181SOL     OW  561   1.310   1.104   1.427 -0.4408 -0.4290 -0.1582
  181SOL    HW1  562   1.254   1.063   1.498  0.5190  0.2517  1.0088
  181SOL    HW2  563   1.290   1.202   1.421  1.8518  0.1777  1.4890
  182SOL     OW  564   0.577   1.720   1.427 -0.0194 -0.3982 -0.3537
  182SOL    HW1  565   0.626   1.800   1.391 -0.3431  0.2903  0.7019
  182SOL    HW2  566   0.485   1.718   1.388  0.0097 -0.2972 -0.4304
  183SOL     OW  567   1.114   1.416   1.095 -0.2271  0.0200  0.1206
  183SOL    HW1  568   1.115   1.466   1.182  0.3788  0.6198 -0.2246
  183SOL    HW2  569   1.029   1.436   1.046 -0.5901 -0.3586  0.6001
  184SOL     OW  570   0.220   0.601   1.789  0.3716  0.2825 -0.3124
  184SOL    HW1  571   0.237   0.502   1.794  0.5345  0.3371  0.2694
  184SOL    HW2  572   0.284   0.649   1.850  0.4332  0.7644 -0.7504
  185SOL     OW  573   1.659   1.562   1.028  0.3748 -0.4725 -0.2373
  185SOL    HW1  574   1.631   1.655   1.052 -1.2709 -1.0682  0.2131
  185SOL    HW2  575   1.709   1.521   1.104  0.1099 -0.3544  0.0011
  186SOL     OW  576   0.055   0.935   0.589 -0.1119  0.5145 -0.0653
  186SOL    HW1  577   0.062   1.034   0.576  0.1969  0.5035  0.0086
  186SOL    HW2  578  -0.036   0.912   0.623  0.1675  0.8797  0.9215
  187SOL     OW  579   0.564   0.733   1.527 -0.2586  0.5347  0.8664
  187SOL    HW1  580   0.470   0.703   1.508  0.2647 -0.3418 -0.3863
  187SOL    HW2  581   0.573   0.830   1.504 -0.4576  0.2392 -0.4938
  188SOL     OW  582   1.631   1.109   0.839  0.0214  0.3139 -0.5835
  188SOL    HW1  583   1.593   1.198   0.812 -0.3292  0.8508  1.5353
  188SOL    HW2  584   1.631   1.047   0.761 -0.5147  1.9192 -1.8808
  189SOL     OW  585   0.789   0.515   1.008 -0.3470  0.4151 -0.9697
  189SOL    HW1  586   0.881   0.543   1.035 -0.7945 -0.2921  1.4767
  189SOL    HW2  587   0.721   0.566   1.062 -1.3940  0.8804 -2.6921
  190SOL     OW  588   0.642   1.366   1.235  0.6492  0.0501  0.0346
  190SOL    HW1  589   0.555   1.365   1.186 -0.6750 -1.2387  2.3027
  190SOL    HW2  590   0.708   1.306   1.188 -1.1880 -2.6554  0.8313
  191SOL     OW  591   0.208   0.708   1.149  0.0054  0.5470 -0.0398
  191SOL    HW1  592   0.246   0.767   1.220  3.3361 -0.3247 -0.9996
  191SOL    HW2  593   0.191   0.761   1.067 -1.6595  1.0992  0.6459
  192SOL     OW  594   0.379   1.354   1.447 -0.1688  0.1210  0.1055
  192SOL    HW1  595   0.398   1.442   1.491 -1.4727  0.3890  0.1733
  192SOL    HW2  596   0.284   1.328   1.465  0.3373 -1.5245  0.4540
  193SOL     OW  597   1.622   1.670   1.795  0.3317  0.1839 -0.4352
  193SOL    HW1  598   1.591   1.592   1.740  1.9669 -1.3020  0.6929
  193SOL    HW2  599   1.591   1.755   1.753 -1.7056 -1.0663 -1.5673
  194SOL     OW  600   1.330   1.208   0.516  0.0290  0.5639 -0.1784
  194SOL    HW1  601   1.429   1.212   0.532  0.1121  1.6122 -0.8852
  194SOL    HW2  602   1.313   1.194   0.418 -0.4973 -2.7635  0.3247
  195SOL     OW  603   0.683   0.374   0.464 -0.0158  0.0414  0.0923
  195SOL    HW1  604   0.585   0.368   0.444  0.2040  0.1456 -1.0726
  195SOL    HW2  605   0.702   0.331   0.552 -1.1326  0.1575  0.3964
  196SOL     OW  606   1.603   0.057   0.723  0.5130 -0.6092 -0.1687
  196SOL    HW1  607   1.598   0.098   0.632  0.3479  0.1795  0.1908
  196SOL    HW2  608   1.684   0.091   0.770 -0.3325  0.3228  0.6244
  197SOL     OW  609   1.206   0.813   1.416 -0.0456 -0.0908 -0.4732
  197SOL    HW1  610   1.305   0.822   1.406 -0.0181  1.7801  1.0895
  197SOL    HW2  611   1.162   0.815   1.326  1.1093  2.6565 -1.0367
  198SOL     OW  612   0.700   0.773   0.818 -0.1635 -0.0534 -0.2630
  198SOL    HW1  613   0.722   0.695   0.876  0.3334  0.7253  0.6035
  198SOL    HW2  614   0.709   0.747   0.722 -0.5364 -1.2125  0.0172
  199SOL     OW  615   1.365   1.480   1.030  0.4204 -0.0386 -0.1555
  199SOL    HW1  616   1.279   1.437   1.059  0.6752 -1.2514 -1.1814
  199SOL    HW2  617   1.354   1.520   0.939  1.1019 -0.6926 -0.5312
  200SOL     OW  618   1.368   0.465   0.705 -0.1906  0.1025  0.3074
  200SOL    HW1  619   1.367   0.457   0.606  2.0563 -1.2009  0.3608
  200SOL    HW2  620   1.457   0.437   0.740 -1.2548 -0.3741  2.7568
   1.84538   1.84538   1.84538
