ALL ATOM STRUCTURE FOR MOLECULE ACETIC ACID
   32
    0ACOH    H4    1   0.991   1.117   1.200
    0ACOH    O2    2   1.087   1.102   1.199
    0ACOH    C2    3   1.147   1.223   1.201
    0ACOH    O1    4   1.083   1.327   1.203
    0ACOH    C1    5   1.297   1.211   1.201
    0ACOH    H1    6   1.342   1.311   1.199
    0ACOH    H2    7   1.330   1.154   1.114
    0ACOH    H3    8   1.330   1.157   1.290
    1ACOH    H4    9   2.044   1.393   2.004
    1ACOH    O2   10   2.025   1.378   1.910
    1ACOH    C2   11   2.117   1.291   1.863
    1ACOH    O1   12   2.205   1.246   1.934
    1ACOH    C1   13   2.096   1.261   1.717
    1ACOH    H1   14   2.175   1.193   1.682
    1ACOH    H2   15   2.098   1.353   1.659
    1ACOH    H3   16   1.999   1.215   1.703
    2ACOH    H4   17   0.842   2.183   2.182
    2ACOH    O2   18   0.848   2.175   2.278
    2ACOH    C2   19   0.736   2.228   2.331
    2ACOH    O1   20   0.648   2.276   2.261
    2ACOH    C1   21   0.735   2.219   2.481
    2ACOH    H1   22   0.644   2.266   2.521
    2ACOH    H2   23   0.823   2.269   2.522
    2ACOH    H3   24   0.739   2.114   2.512
    3ACOH    H4   25   0.089   1.785   1.336
    3ACOH    O2   26   0.096   1.748   1.246
    3ACOH    C2   27   0.203   1.806   1.187
    3ACOH    O1   28   0.272   1.889   1.244
    3ACOH    C1   29   0.223   1.756   1.046
    3ACOH    H1   30   0.309   1.807   1.001
    3ACOH    H2   31   0.134   1.773   0.987
    3ACOH    H3   32   0.242   1.648   1.048
   2.40105   2.40105   2.40105
