water:acetic acid 2%
  620
    1ACOH    H4    1   0.389   0.951   1.837  0.5460 -1.0314  1.0102
    1ACOH    O2    2   0.293   0.953   1.818  0.7170 -0.6568  0.1136
    1ACOH    C2    3   0.223   0.973   1.929 -0.0525  0.7417 -0.5127
    1ACOH    O1    4   0.270   0.941   2.036  0.0357 -0.2887 -0.4605
    1ACOH    C1    5   0.080   0.996   1.901  0.3968  0.8470  0.3833
    1ACOH    H1    6   0.033   0.898   1.914  0.0410  0.8469 -0.8575
    1ACOH    H2    7   0.049   1.028   1.802 -0.3307 -1.2552 -0.1094
    1ACOH    H3    8   0.040   1.068   1.972  0.2607 -0.2682  1.4770
    2ACOH    H4    9   1.336   0.503   0.682  1.3163 -0.2529  1.0350
    2ACOH    O2   10   1.319   0.561   0.758 -0.5488  0.4279  0.1510
    2ACOH    C2   11   1.334   0.693   0.722 -1.3749  0.5370  0.1652
    2ACOH    O1   12   1.294   0.743   0.618  0.3118  0.3780 -1.0712
    2ACOH    C1   13   1.366   0.778   0.840 -0.0249 -0.0581 -0.1263
    2ACOH    H1   14   1.326   0.879   0.829  1.5326  0.5385 -0.3071
    2ACOH    H2   15   1.473   0.769   0.854 -0.1031 -1.7401 -0.4664
    2ACOH    H3   16   1.324   0.744   0.935 -2.7674  2.5387 -0.3023
    3ACOH    H4   17   2.091   0.035   2.315 -0.3536 -0.4657  0.3121
    3ACOH    O2   18   2.052  -0.018   2.244 -0.6894 -0.0475  0.1803
    3ACOH    C2   19   2.005   0.075   2.160 -0.0844 -0.0541 -0.1546
    3ACOH    O1   20   2.040   0.191   2.150  1.0422 -0.3688  0.0055
    3ACOH    C1   21   1.917   0.010   2.057 -0.1420  0.4679 -0.1382
    3ACOH    H1   22   1.835  -0.033   2.114  0.5983 -1.7891 -0.7446
    3ACOH    H2   23   1.979  -0.061   2.003 -0.1335  0.9960 -0.8237
    3ACOH    H3   24   1.878   0.084   1.986 -0.4836  1.2024  0.8009
    4ACOH    H4   25   0.363   0.262   0.180 -0.8043 -1.4021 -0.1138
    4ACOH    O2   26   0.426   0.219   0.121  0.2046 -0.3043  0.1409
    4ACOH    C2   27   0.493   0.131   0.203  0.4730 -0.0336  1.0114
    4ACOH    O1   28   0.481   0.121   0.326  0.7400 -0.0818 -0.1771
    4ACOH    C1   29   0.611   0.081   0.128 -0.5955  0.1712  0.5418
    4ACOH    H1   30   0.644  -0.010   0.178  0.0124  0.7627  1.2203
    4ACOH    H2   31   0.687   0.158   0.139  0.5003 -1.0267  1.3952
    4ACOH    H3   32   0.574   0.075   0.025 -0.8812 -0.7066  0.6893
    5SOL     OW   33   0.242   0.521   2.052 -0.3647 -0.3061 -0.4093
    5SOL    HW1   34   0.231   0.455   2.127 -1.0535 -1.3289 -1.3931
    5SOL    HW2   35   0.153   0.558   2.027  0.1164  1.6342  0.6787
    6SOL     OW   36   0.153   0.999   2.295  0.3788 -0.3263 -0.3828
    6SOL    HW1   37   0.196   0.976   2.207 -0.0559 -1.7159 -0.2245
    6SOL    HW2   38   0.056   1.016   2.282  0.1525 -1.3516 -0.0276
    7SOL     OW   39   1.904   1.904   2.400  0.1645  0.3420  0.0927
    7SOL    HW1   40   1.914   1.833   2.470  0.9828 -2.1534 -2.4171
    7SOL    HW2   41   1.993   1.921   2.357 -0.6394  0.3680 -1.6280
    8SOL     OW   42   2.090   1.626   1.995  0.1934 -0.1560 -0.1357
    8SOL    HW1   43   2.115   1.628   1.898  0.3883  0.5809 -0.0720
    8SOL    HW2   44   2.170   1.646   2.050  0.2095 -1.1487  0.2040
    9SOL     OW   45   0.467   0.643   1.837 -0.3274  0.1052  0.3208
    9SOL    HW1   46   0.454   0.670   1.932 -0.6345 -0.1489  0.3522
    9SOL    HW2   47   0.387   0.671   1.783  0.3400  1.2545 -0.0800
   10SOL     OW   48   1.830   1.561   2.131  0.1659 -0.3440  0.1837
   10SOL    HW1   49   1.868   1.492   2.192  0.2743 -0.1142  0.3771
   10SOL    HW2   50   1.901   1.596   2.070  0.5416  0.9206  1.3256
   11SOL     OW   51   0.452   0.691   2.165  0.2717 -0.6359  0.2105
   11SOL    HW1   52   0.410   0.744   2.239 -1.5470  1.3112 -2.1141
   11SOL    HW2   53   0.382   0.635   2.120  0.7328  0.3031 -1.7488
   12SOL     OW   54   0.521   1.546   2.163 -0.1878  0.0109 -0.3486
   12SOL    HW1   55   0.533   1.463   2.108  0.2692  0.6414 -1.2033
   12SOL    HW2   56   0.574   1.538   2.247 -1.3899 -1.2271  0.3271
   13SOL     OW   57   0.528   2.216   2.046 -1.0320  0.2486 -0.3857
   13SOL    HW1   58   0.521   2.185   1.951 -2.5755  0.1978 -0.2634
   13SOL    HW2   59   0.587   2.296   2.051  2.2248 -2.0257 -0.8555
   14SOL     OW   60   0.563   1.815   2.104 -0.0911  0.4632  0.5567
   14SOL    HW1   61   0.521   1.731   2.139 -1.0919  0.5015 -0.5035
   14SOL    HW2   62   0.517   1.841   2.019  0.0542  2.2231  1.0049
   15SOL     OW   63   1.603   0.754   0.501  0.2225  0.5978 -0.2084
   15SOL    HW1   64   1.647   0.664   0.498 -1.9477 -0.4674 -0.6478
   15SOL    HW2   65   1.623   0.798   0.588  1.2201 -0.3426  0.0460
   16SOL     OW   66   1.270   0.847   2.212 -0.3574 -0.0634  0.2702
   16SOL    HW1   67   1.326   0.912   2.263 -3.7868  2.8735  0.4592
   16SOL    HW2   68   1.286   0.860   2.114 -1.8043  1.8790  0.2620
   17SOL     OW   69   0.548   2.051   2.271 -0.3139  0.0404 -0.4850
   17SOL    HW1   70   0.575   1.973   2.215 -0.9691 -1.2268  0.9152
   17SOL    HW2   71   0.541   2.133   2.214 -0.3669 -1.0899 -2.1201
   18SOL     OW   72   1.456   0.527   0.308 -0.3670  0.0866  0.0975
   18SOL    HW1   73   1.523   0.599   0.288  0.5721 -0.8447 -0.2079
   18SOL    HW2   74   1.365   0.557   0.281  0.3690  0.2200 -2.4173
   19SOL     OW   75   1.303   2.033   2.284 -0.2172  0.1260 -0.4413
   19SOL    HW1   76   1.355   1.957   2.245  1.0970  1.7225 -1.8737
   19SOL    HW2   77   1.349   2.065   2.367 -0.6316 -0.4900  0.0229
   20SOL     OW   78   2.142   0.408   0.181  0.9643  0.1374 -0.2990
   20SOL    HW1   79   2.063   0.426   0.123  1.2025 -1.9154 -1.3086
   20SOL    HW2   80   2.125   0.328   0.237  2.2712 -0.2455 -0.4321
   21SOL     OW   81   0.204   0.051   2.171  0.3818 -0.0639  0.3235
   21SOL    HW1   82   0.146   0.014   2.244  0.1135 -0.7520 -0.2359
   21SOL    HW2   83   0.288  -0.004   2.165 -0.0179 -0.5927 -0.5118
   22SOL     OW   84   1.749   1.167   0.169  0.7777  0.0388 -0.1226
   22SOL    HW1   85   1.763   1.091   0.106  0.3665  1.4033 -1.9029
   22SOL    HW2   86   1.724   1.131   0.259  0.7135 -1.9261 -0.8951
   23SOL     OW   87   0.224   2.264   0.514 -0.0480  0.1822 -0.0738
   23SOL    HW1   88   0.186   2.173   0.533  0.1481  0.5351  2.2394
   23SOL    HW2   89   0.192   2.328   0.584 -0.0573  1.8768 -1.5903
   24SOL     OW   90   2.022   0.790   0.140  0.6208 -0.0921  0.9429
   24SOL    HW1   91   2.033   0.884   0.110 -0.0080  0.1775  1.5601
   24SOL    HW2   92   2.049   0.781   0.236 -0.1938 -0.3492  1.1537
   25SOL     OW   93   1.239   0.746   0.082  0.2423 -0.7810 -0.0311
   25SOL    HW1   94   1.244   0.773  -0.014  1.2749 -0.6896  0.0476
   25SOL    HW2   95   1.153   0.778   0.122  0.0584 -0.3510 -0.7792
   26SOL     OW   96   1.534   2.386   0.188 -0.7789  0.0396 -0.1954
   26SOL    HW1   97   1.539   2.484   0.167 -3.1992  0.3210  0.3242
   26SOL    HW2   98   1.546   2.372   0.286  0.4209 -0.2798 -0.3821
   27SOL     OW   99   0.660   0.501   0.131  0.3562 -0.3293 -0.1323
   27SOL    HW1  100   0.694   0.432   0.195  0.8840 -0.8555 -0.9696
   27SOL    HW2  101   0.731   0.520   0.062 -0.1331  0.3705 -0.4426
   28SOL     OW  102   2.211   1.898   0.315  0.1851  0.4802  0.1936
   28SOL    HW1  103   2.150   1.904   0.393 -1.2549  0.9787 -0.9585
   28SOL    HW2  104   2.193   1.973   0.252  0.5577 -0.5421 -1.1633
   29SOL     OW  105   1.420   0.967   0.468  0.0847 -0.0403 -0.2961
   29SOL    HW1  106   1.490   0.896   0.476 -0.4229 -0.3426  1.5620
   29SOL    HW2  107   1.334   0.934   0.507 -0.8213  0.7123 -1.6103
   30SOL     OW  108   0.161   1.916   1.871 -0.3415 -0.4996  0.0232
   30SOL    HW1  109   0.158   2.013   1.849 -1.4397 -0.6057 -0.3383
   30SOL    HW2  110   0.077   1.890   1.919 -1.5959 -1.9550 -2.8124
   31SOL     OW  111   1.452   0.256   0.182 -0.2946  0.4405  0.1745
   31SOL    HW1  112   1.484   0.327   0.244 -0.2259  1.0204 -0.5179
   31SOL    HW2  113   1.352   0.249   0.187 -0.0590 -1.7353  2.7336
   32SOL     OW  114   0.235   1.509   2.168  0.2965 -0.1186 -0.0696
   32SOL    HW1  115   0.209   1.591   2.118  0.4691  0.2346  0.4205
   32SOL    HW2  116   0.331   1.488   2.150  0.2421 -0.2360 -0.2252
   33SOL     OW  117   1.231   0.370   2.096  0.1720 -0.2856 -0.1121
   33SOL    HW1  118   1.140   0.376   2.055  1.0055  1.8049 -1.7223
   33SOL    HW2  119   1.284   0.453   2.074  2.9116 -2.0045 -0.2514
   34SOL     OW  120   1.261   1.547   2.216  0.4554 -0.0840 -0.2449
   34SOL    HW1  121   1.200   1.612   2.261  0.2663 -0.8006  0.5493
   34SOL    HW2  122   1.298   1.483   2.284  1.8813  0.1681 -0.7530
   35SOL     OW  123   0.780   0.793   1.887  1.0783 -0.5200  0.5033
   35SOL    HW1  124   0.759   0.710   1.938 -0.4004  0.0272  0.8135
   35SOL    HW2  125   0.806   0.769   1.794  0.8601 -1.3436  0.6497
   36SOL     OW  126   2.053   1.772   0.562  0.2527 -1.0683  0.2785
   36SOL    HW1  127   2.002   1.773   0.647 -0.8796  1.9591 -0.3908
   36SOL    HW2  128   2.000   1.725   0.492 -1.5315  1.6877 -0.2998
   37SOL     OW  129   0.224   1.008   0.155 -0.1679 -0.2969 -0.4034
   37SOL    HW1  130   0.206   1.099   0.191  0.3298 -0.2714 -0.2066
   37SOL    HW2  131   0.187   1.001   0.062 -0.5955 -0.0419 -0.2536
   38SOL     OW  132   1.677   0.714   0.238 -0.1867  0.1202 -0.0080
   38SOL    HW1  133   1.629   0.768   0.306  1.7083  0.2900  1.2297
   38SOL    HW2  134   1.728   0.775   0.176 -0.4124 -0.1186 -0.4338
   39SOL     OW  135   0.943   0.831   2.339 -0.3406 -0.3312 -0.0055
   39SOL    HW1  136   1.037   0.862   2.326 -0.7076  0.9294  0.3301
   39SOL    HW2  137   0.880   0.905   2.317 -1.2105 -0.7220  1.1147
   40SOL     OW  138   0.393   0.586   0.237  0.0009  0.3052  0.2885
   40SOL    HW1  139   0.481   0.565   0.196  1.0065  1.4406  1.8140
   40SOL    HW2  140   0.350   0.502   0.270  0.0745 -0.3639 -1.2987
   41SOL     OW  141   0.891   0.710   0.304 -0.1756  0.3148 -0.4338
   41SOL    HW1  142   0.850   0.789   0.258  0.1276  0.9159  0.3186
   41SOL    HW2  143   0.831   0.630   0.293 -1.3584  1.0825  0.3191
   42SOL     OW  144   1.952   0.530   0.021  0.1099  0.1064 -0.2224
   42SOL    HW1  145   1.951   0.629   0.034  0.9295  0.2534 -1.1310
   42SOL    HW2  146   1.890   0.506  -0.054 -0.5700 -0.1435  0.4138
   43SOL     OW  147   0.173   1.980   0.535 -0.0573  0.6811  0.0887
   43SOL    HW1  148   0.146   1.940   0.447  0.0145 -0.0418  0.3898
   43SOL    HW2  149   0.270   1.962   0.551 -0.1824  0.4086  0.5335
   44SOL     OW  150   2.134   1.941   2.271 -0.2563 -0.1693 -0.3784
   44SOL    HW1  151   2.182   2.020   2.234  1.7391 -0.0550  2.2773
   44SOL    HW2  152   2.159   1.859   2.219  0.9232  0.2774 -0.5163
   45SOL     OW  153   1.713   0.502   0.620 -0.5391  0.1263  0.3254
   45SOL    HW1  154   1.621   0.463   0.632  0.1886 -1.2515  1.6044
   45SOL    HW2  155   1.746   0.482   0.528 -0.7053 -1.1771  0.5390
   46SOL     OW  156   2.268   1.595   0.010  0.4838  0.0970  0.0612
   46SOL    HW1  157   2.205   1.638   0.074  0.6353  0.2476  0.1098
   46SOL    HW2  158   2.228   1.510  -0.023  1.6814 -1.5457  2.6683
   47SOL     OW  159   0.873   2.310   2.262  0.9545  0.3187 -0.2633
   47SOL    HW1  160   0.899   2.222   2.222  0.6400  0.3138 -0.4571
   47SOL    HW2  161   0.871   2.303   2.362  0.9272  0.1063 -0.2796
   48SOL     OW  162   1.713   1.741   0.199 -0.5335 -0.1966  0.2959
   48SOL    HW1  163   1.679   1.688   0.121 -0.5477 -0.2231  0.3198
   48SOL    HW2  164   1.636   1.784   0.246 -0.3621  1.3099 -0.7757
   49SOL     OW  165   1.879   2.284   0.245 -0.5000 -0.0954  0.3606
   49SOL    HW1  166   1.834   2.228   0.176  0.6084 -0.6059  0.0310
   49SOL    HW2  167   1.850   2.379   0.236 -0.2419 -0.1356 -0.9248
   50SOL     OW  168   1.547   1.491   2.164  0.4059 -0.5360 -1.0488
   50SOL    HW1  169   1.546   1.490   2.264  0.1309 -0.2469 -1.0491
   50SOL    HW2  170   1.638   1.518   2.132 -0.3887  2.6167 -0.8433
   51SOL     OW  171   1.681   0.175   0.440  0.3884 -0.4779 -0.3543
   51SOL    HW1  172   1.739   0.107   0.486 -1.1372 -2.0237 -0.6786
   51SOL    HW2  173   1.590   0.174   0.480  0.6029  2.1172  0.3043
   52SOL     OW  174   1.659   1.084   0.399  0.6164 -0.2923  0.6259
   52SOL    HW1  175   1.566   1.067   0.433  0.2408  1.3505  0.5004
   52SOL    HW2  176   1.726   1.042   0.460 -0.2364 -2.1594  0.2853
   53SOL     OW  177   1.679   0.349   2.011 -0.8127  0.2131  0.6062
   53SOL    HW1  178   1.624   0.410   1.953  1.5613  2.6043  0.7897
   53SOL    HW2  179   1.714   0.401   2.089  1.3169 -1.3822  0.7295
   54SOL     OW  180   0.781   0.969   0.202  0.1266  0.0699  0.4351
   54SOL    HW1  181   0.809   1.021   0.121 -1.3333  0.8552  0.4100
   54SOL    HW2  182   0.682   0.957   0.202  0.1961 -0.6860  1.6646
   55SOL     OW  183   1.982   1.320   0.166  0.0971  0.0062  0.1507
   55SOL    HW1  184   1.891   1.280   0.164  0.1297 -0.0782  0.2844
   55SOL    HW2  185   1.976   1.418   0.186 -0.0365  0.2546 -1.1015
   56SOL     OW  186   0.941   0.116   0.487 -0.6356  0.3362  0.1581
   56SOL    HW1  187   1.029   0.070   0.490 -0.1221  1.3887  3.1003
   56SOL    HW2  188   0.951   0.205   0.442 -0.3801  0.0981 -0.2544
   57SOL     OW  189   1.144   2.171   0.226 -0.0465 -0.1385  0.2681
   57SOL    HW1  190   1.132   2.083   0.273  2.5994 -0.5178  0.3187
   57SOL    HW2  191   1.216   2.162   0.158  0.6467  2.1469  0.6693
   58SOL     OW  192   0.861   0.559   2.345 -0.3873  0.0143 -0.0454
   58SOL    HW1  193   0.871   0.658   2.352 -1.4984  0.1178  0.1107
   58SOL    HW2  194   0.951   0.517   2.331  0.2587  0.9094  1.4123
   59SOL     OW  195   0.499   2.295   0.473  0.2792  0.8040  0.4604
   59SOL    HW1  196   0.489   2.379   0.419 -1.1615 -0.6244 -1.5561
   59SOL    HW2  197   0.411   2.268   0.510  0.0289 -1.6201 -1.7328
   60SOL     OW  198   1.027   1.103   0.154 -0.1199 -0.1110  0.1600
   60SOL    HW1  199   0.952   1.056   0.200  0.9004 -1.0715  0.8745
   60SOL    HW2  200   0.995   1.190   0.117 -1.2306  0.1366  1.6837
   61SOL     OW  201   1.414   0.132   0.516  0.2870 -0.0659 -0.2740
   61SOL    HW1  202   1.328   0.128   0.465  1.6006 -0.8667 -2.5002
   61SOL    HW2  203   1.414   0.060   0.586 -1.2172  0.5516  0.3871
   62SOL     OW  204   0.095   0.150   0.327  0.1198 -0.2120 -0.0084
   62SOL    HW1  205   0.175   0.094   0.303  0.6417 -0.5677  2.4736
   62SOL    HW2  206   0.017   0.091   0.343  1.0435 -0.4307  4.1024
   63SOL     OW  207   1.810   0.163   0.216 -0.3919  0.2420 -0.2264
   63SOL    HW1  208   1.754   0.187   0.295 -0.3887  0.5685 -0.3215
   63SOL    HW2  209   1.775   0.211   0.135  1.5150  2.4338  0.1864
   64SOL     OW  210   1.660   0.272   0.025  0.5591  0.4887  0.1637
   64SOL    HW1  211   1.667   0.212  -0.054  0.0589  1.0912 -0.3456
   64SOL    HW2  212   1.577   0.250   0.076  1.4152 -0.5993  1.1186
   65SOL     OW  213   1.170   0.265   0.121  0.1840  0.0733 -0.5621
   65SOL    HW1  214   1.173   0.342   0.057 -0.0833  1.0336  0.5744
   65SOL    HW2  215   1.207   0.184   0.076  1.8616  1.2163 -1.3015
   66SOL     OW  216   2.167   1.329   2.368 -0.5984  0.0585  0.0578
   66SOL    HW1  217   2.093   1.316   2.434 -2.6816  0.7774 -2.1152
   66SOL    HW2  218   2.210   1.240   2.349 -3.0543 -0.9014 -1.1511
   67SOL     OW  219   0.088   0.059   0.655 -0.4772 -0.9934 -0.7735
   67SOL    HW1  220   0.158   0.128   0.675 -0.1293 -0.8682 -2.3831
   67SOL    HW2  221  -0.002   0.100   0.663 -0.4413 -1.3084  1.9509
   68SOL     OW  222   1.731   0.490   2.248 -0.1907 -0.3571 -0.2169
   68SOL    HW1  223   1.702   0.426   2.319  0.6450 -1.3872 -0.7975
   68SOL    HW2  224   1.658   0.556   2.231  0.2918  1.0956  2.9322
   69SOL     OW  225   2.328   1.221   0.311  0.4756 -0.0232  0.1914
   69SOL    HW1  226   2.249   1.270   0.349  0.0545  0.1199 -0.8471
   69SOL    HW2  227   2.320   1.124   0.333  0.1847  0.0422  0.3860
   70SOL     OW  228   0.269   1.945   2.307 -0.1976 -0.0726  0.2406
   70SOL    HW1  229   0.357   1.904   2.331 -1.0284 -2.3402 -0.4757
   70SOL    HW2  230   0.284   2.038   2.273  2.2900 -1.5062 -2.8326
   71SOL     OW  231   2.202   0.408   2.227  0.0746  0.0477  0.0244
   71SOL    HW1  232   2.164   0.325   2.188  0.7771 -0.4842  0.4548
   71SOL    HW2  233   2.212   0.397   2.326  1.8656 -0.0461 -0.1442
   72SOL     OW  234   1.359   1.069   2.040 -0.2200 -0.5808 -0.0480
   72SOL    HW1  235   1.415   1.003   1.990  0.4099  0.7279 -1.1350
   72SOL    HW2  236   1.371   1.160   1.999  1.5688  0.8821  3.4119
   73SOL     OW  237   0.267   2.172   2.163 -0.7139 -0.1253 -0.0700
   73SOL    HW1  238   0.356   2.190   2.122 -0.1877 -2.1420  0.1393
   73SOL    HW2  239   0.195   2.196   2.097 -0.0300  1.3075 -0.3132
   74SOL     OW  240   0.653   0.468   1.812  0.3555  0.9831  0.1843
   74SOL    HW1  241   0.724   0.451   1.881  0.9783  1.3653 -0.3559
   74SOL    HW2  242   0.608   0.556   1.832 -0.7629  0.2003  1.1926
   75SOL     OW  243   2.309   2.120   2.143 -0.2393 -0.3518  0.4822
   75SOL    HW1  244   2.253   2.162   2.072 -0.2770 -1.3635 -0.1063
   75SOL    HW2  245   2.342   2.190   2.206  1.2097  0.8210 -1.5079
   76SOL     OW  246   0.136   0.113   1.908 -0.1746  0.2066 -0.3183
   76SOL    HW1  247   0.194   0.189   1.879 -1.8492  1.5360 -0.3456
   76SOL    HW2  248   0.165   0.081   1.999  1.4716 -0.1246 -0.9495
   77SOL     OW  249   1.614   0.850   2.364 -0.2729  0.2962 -0.7127
   77SOL    HW1  250   1.597   0.773   2.302 -2.1945 -0.5342  0.7984
   77SOL    HW2  251   1.532   0.907   2.370 -0.1400  0.3146  1.1252
   78SOL     OW  252   0.212   0.318   2.276  0.0494 -0.1335  0.9145
   78SOL    HW1  253   0.208   0.230   2.229 -2.4771  0.3131  0.1975
   78SOL    HW2  254   0.298   0.325   2.327  0.1510 -3.1391  1.2516
   79SOL     OW  255   1.378   2.251   0.610 -0.3914 -0.1815  0.3307
   79SOL    HW1  256   1.477   2.236   0.609 -0.1522  1.3127 -0.0137
   79SOL    HW2  257   1.332   2.168   0.640  0.9413 -1.0536  0.0230
   80SOL     OW  258   0.700   2.104   0.121 -0.1802 -0.1748  0.6923
   80SOL    HW1  259   0.762   2.181   0.124 -1.9310  1.2475  1.3289
   80SOL    HW2  260   0.660   2.096   0.030  0.7021 -0.9136  0.3637
   81SOL     OW  261   0.918   2.288   0.160  0.2365  0.0069 -0.2271
   81SOL    HW1  262   1.007   2.246   0.177  0.3587  0.3453 -0.0221
   81SOL    HW2  263   0.865   2.291   0.245  0.5814  1.0767 -0.0432
   82SOL     OW  264   2.321   0.936   0.145 -0.0678 -0.4331 -0.0747
   82SOL    HW1  265   2.418   0.918   0.129 -0.0749 -1.7931  1.2681
   82SOL    HW2  266   2.268   0.852   0.131 -0.8269 -0.1409  0.9509
   83SOL     OW  267   0.657   1.296   1.936 -0.3689 -0.0905  0.3524
   83SOL    HW1  268   0.562   1.300   1.970 -1.3265 -1.5078 -2.0431
   83SOL    HW2  269   0.698   1.209   1.963 -0.0161  0.1730  0.6720
   84SOL     OW  270   0.930   2.026   0.563  0.1072 -0.0470 -0.2491
   84SOL    HW1  271   0.848   1.978   0.534  0.4001 -0.0976 -1.0120
   84SOL    HW2  272   0.939   2.112   0.512  0.3465  0.1260  0.0743
   85SOL     OW  273   1.096   1.945   0.358  0.1177 -0.0346 -0.2446
   85SOL    HW1  274   1.055   1.963   0.448 -1.5148  0.6730 -1.1118
   85SOL    HW2  275   1.066   1.855   0.326  0.8092 -0.3447 -0.0364
   86SOL     OW  276   1.547   0.676   2.144  0.5076 -0.1068 -0.2014
   86SOL    HW1  277   1.471   0.641   2.089 -0.7354  1.5068  0.4662
   86SOL    HW2  278   1.621   0.707   2.084  0.5353 -1.3943 -0.8574
   87SOL     OW  279   0.736   0.349   0.331  0.3454 -0.1062  0.1490
   87SOL    HW1  280   0.833   0.366   0.347 -0.4317  2.2005  2.6980
   87SOL    HW2  281   0.714   0.255   0.360  1.7033 -0.4949 -0.0357
   88SOL     OW  282   2.379   0.260   0.043 -0.5095  0.7309  0.3496
   88SOL    HW1  283   2.453   0.292  -0.016 -0.2738  1.2920  0.9398
   88SOL    HW2  284   2.409   0.262   0.138 -0.5943 -0.9749  0.4368
   89SOL     OW  285   0.562   1.614   1.786  0.5312 -0.3006 -0.0512
   89SOL    HW1  286   0.659   1.622   1.811  0.2829  0.1629  0.8139
   89SOL    HW2  287   0.514   1.565   1.858 -0.1142  0.6152  0.1439
   90SOL     OW  288   1.848   0.929   0.513 -0.4485  0.3958  0.2233
   90SOL    HW1  289   1.781   0.894   0.578 -0.2927  1.4126  0.9315
   90SOL    HW2  290   1.927   0.867   0.510 -1.9308 -1.5016 -1.5608
   91SOL     OW  291   0.722   1.519   0.107 -0.4161 -0.1980 -0.0130
   91SOL    HW1  292   0.698   1.614   0.127 -0.1037 -0.3646  1.2385
   91SOL    HW2  293   0.640   1.467   0.084 -0.4917  0.5434 -1.4607
   92SOL     OW  294   1.703   0.669   0.924  0.1785  0.6749 -0.3557
   92SOL    HW1  295   1.710   0.611   1.005  0.4611  1.2016 -0.0059
   92SOL    HW2  296   1.737   0.618   0.844  0.6620  0.4421 -0.0052
   93SOL     OW  297   0.616   2.040   0.429 -0.2632  0.1877 -0.1784
   93SOL    HW1  298   0.567   2.113   0.477 -3.1831 -1.2908 -0.8220
   93SOL    HW2  299   0.659   2.077   0.347 -1.3878  1.2422 -0.2933
   94SOL     OW  300   0.829   1.056   1.977  0.5606  0.2749  0.2148
   94SOL    HW1  301   0.833   0.960   1.950  3.5702  0.6413 -0.8176
   94SOL    HW2  302   0.922   1.091   1.991 -0.4916  2.9902  0.7711
   95SOL     OW  303   2.196   0.055   0.630 -0.1577 -0.1816  0.4138
   95SOL    HW1  304   2.115   0.017   0.675 -0.2794 -1.0156 -0.4881
   95SOL    HW2  305   2.262  -0.018   0.611  1.2889  0.6505  2.0901
   96SOL     OW  306   0.178   2.210   1.872 -0.3169  0.2263  0.3747
   96SOL    HW1  307   0.133   2.299   1.865 -0.5924  0.0375 -0.3614
   96SOL    HW2  308   0.265   2.214   1.822 -0.2559  0.1283  0.4746
   97SOL     OW  309   1.117   0.614   0.406  0.0595 -0.0681  0.4674
   97SOL    HW1  310   1.034   0.664   0.383 -1.1772 -1.2618  2.2077
   97SOL    HW2  311   1.157   0.651   0.490  0.7967 -0.0624  0.1194
   98SOL     OW  312   1.714   1.803   2.195  0.6333 -0.1259 -0.3594
   98SOL    HW1  313   1.741   1.708   2.184  1.4378 -0.4136  3.5094
   98SOL    HW2  314   1.775   1.848   2.260 -1.5890  2.2128  0.1991
   99SOL     OW  315   1.544   1.561   0.036 -0.3276  0.3003  0.3553
   99SOL    HW1  316   1.459   1.609   0.014 -0.9143 -0.5841  0.6914
   99SOL    HW2  317   1.524   1.484   0.097  0.6737 -0.0919  0.1859
  100SOL     OW  318   0.821   1.601   2.252  0.1399  0.0956 -0.4232
  100SOL    HW1  319   0.845   1.572   2.344  1.4666 -0.2027 -0.8523
  100SOL    HW2  320   0.832   1.700   2.243  1.5481 -0.0784 -0.7057
  101SOL     OW  321   1.133   1.764   2.328  0.5302 -0.0953  0.4116
  101SOL    HW1  322   1.134   1.856   2.290 -1.0104  0.5158  1.7924
  101SOL    HW2  323   1.084   1.764   2.415 -1.1542 -2.5628 -0.4602
  102SOL     OW  324   2.142   2.135   0.214 -0.1160 -0.0730 -0.1115
  102SOL    HW1  325   2.058   2.175   0.178 -1.6487 -3.2221 -0.2289
  102SOL    HW2  326   2.221   2.172   0.164 -1.8008 -0.5383 -3.2883
  103SOL     OW  327   0.921   0.412   2.060 -0.0838 -0.4265 -0.2366
  103SOL    HW1  328   0.907   0.322   2.100 -0.3301 -0.2947 -0.0301
  103SOL    HW2  329   0.869   0.480   2.111 -2.7075 -0.6616 -2.5090
  104SOL     OW  330   0.851   0.159   2.142  0.1730 -0.0589  0.0398
  104SOL    HW1  331   0.758   0.180   2.173  0.6465  0.0796  1.3854
  104SOL    HW2  332   0.884   0.076   2.188  2.1990  2.0988  2.6316
  105SOL     OW  333   0.183   1.267   0.211 -0.0310 -0.3814  0.1585
  105SOL    HW1  334   0.090   1.270   0.245  0.2124  0.1181  0.7917
  105SOL    HW2  335   0.201   1.347   0.154 -0.7011 -1.6333 -1.8727
  106SOL     OW  336   0.093   2.159   0.111  0.1895 -0.0052 -0.7198
  106SOL    HW1  337   0.135   2.216   0.181 -1.0359  1.5487 -1.2211
  106SOL    HW2  338   0.163   2.103   0.066  1.1438 -0.1453  0.9385
  107SOL     OW  339   1.510   1.347   0.217  0.5181  0.3724 -1.0022
  107SOL    HW1  340   1.461   1.263   0.239  0.6097  0.8801  1.1831
  107SOL    HW2  341   1.606   1.337   0.241  0.7034  0.7939 -1.5597
  108SOL     OW  342   1.084   1.128   2.075  0.0274  0.4817 -0.1117
  108SOL    HW1  343   1.168   1.080   2.100 -1.6663 -1.5712  1.7753
  108SOL    HW2  344   1.071   1.207   2.135  1.3897  1.8021 -1.4677
  109SOL     OW  345   1.686   0.879   0.725 -0.1295  0.9108 -0.1135
  109SOL    HW1  346   1.698   0.969   0.766  0.2232  0.6594  0.3426
  109SOL    HW2  347   1.703   0.808   0.794 -2.9300  0.5090  0.2357
  110SOL     OW  348   1.405   2.104   0.126 -0.1329 -0.0252 -0.5274
  110SOL    HW1  349   1.446   2.112   0.217  0.5841  1.2913 -0.9494
  110SOL    HW2  350   1.470   2.137   0.057 -1.3796  0.8083 -1.3405
  111SOL     OW  351   0.233   1.673   0.209 -0.3121 -0.6489 -0.4032
  111SOL    HW1  352   0.194   1.765   0.211  0.1275 -0.4754  0.1828
  111SOL    HW2  353   0.176   1.614   0.151 -0.5900 -0.0094 -0.7825
  112SOL     OW  354   0.717   1.845   0.209  0.1484 -0.4400  0.4100
  112SOL    HW1  355   0.623   1.817   0.191  0.0190 -0.2587  0.7980
  112SOL    HW2  356   0.723   1.945   0.204  0.1257 -0.3977  1.3128
  113SOL     OW  357   0.231   0.283   0.705  0.1713 -0.3432 -0.0800
  113SOL    HW1  358   0.287   0.264   0.785  0.0208 -0.3250  0.0303
  113SOL    HW2  359   0.251   0.374   0.670  0.6799 -0.5840 -0.4308
  114SOL     OW  360   0.764   1.070   2.271 -0.5034 -0.4367  0.1524
  114SOL    HW1  361   0.787   1.090   2.176 -0.5524  1.0623  0.4568
  114SOL    HW2  362   0.670   1.037   2.276 -0.1199 -1.6569 -0.4552
  115SOL     OW  363   0.240   2.333   0.259  0.0371  0.3814 -0.1533
  115SOL    HW1  364   0.233   2.293   0.351 -2.7493 -1.4614 -1.0998
  115SOL    HW2  365   0.313   2.287   0.208  1.2648  1.0739  0.9334
  116SOL     OW  366   0.558   0.957   1.835 -0.2921  0.3633 -0.4747
  116SOL    HW1  367   0.592   1.042   1.796 -0.5947  0.8060  0.2310
  116SOL    HW2  368   0.635   0.901   1.866 -0.1207  0.6204 -0.4344
  117SOL     OW  369   1.014   0.443   1.789 -0.1778  0.0098 -0.3998
  117SOL    HW1  370   0.999   0.423   1.886  2.7842  0.1209  0.1193
  117SOL    HW2  371   1.016   0.357   1.738 -0.0437 -0.1558 -0.1161
  118SOL     OW  372   0.941   1.695   0.264  0.5800 -0.2495 -0.4489
  118SOL    HW1  373   0.870   1.763   0.250  2.6193  2.0245  0.0026
  118SOL    HW2  374   0.900   1.612   0.302 -1.8652  0.8812 -0.5105
  119SOL     OW  375   1.638   2.256   0.568  0.1466 -0.1668 -0.0096
  119SOL    HW1  376   1.625   2.222   0.476  0.2122  1.6420 -0.7125
  119SOL    HW2  377   1.733   2.242   0.596  0.2108 -0.4027 -0.3494
  120SOL     OW  378   0.480   1.721   0.088  0.4077 -0.3357  0.3098
  120SOL    HW1  379   0.390   1.735   0.130 -0.6463  0.4774 -2.1867
  120SOL    HW2  380   0.494   1.623   0.075  0.2645 -0.5270  1.4726
  121SOL     OW  381   0.335   0.330   1.862  0.2038 -0.1923  0.6806
  121SOL    HW1  382   0.412   0.355   1.803  0.1178 -1.4640  0.0321
  121SOL    HW2  383   0.312   0.408   1.921  0.9740  0.7246 -0.2161
  122SOL     OW  384   0.819   1.872   2.148  0.6361 -0.0928  0.1267
  122SOL    HW1  385   0.728   1.834   2.131  0.2305  0.4587  1.0213
  122SOL    HW2  386   0.884   1.833   2.083 -0.6180  1.0522 -1.8454
  123SOL     OW  387   1.451   1.796   2.127  0.4288 -0.1698  0.1060
  123SOL    HW1  388   1.413   1.704   2.130  0.3786 -0.1031  2.0868
  123SOL    HW2  389   1.549   1.793   2.147  0.1148  0.3591  1.7897
  124SOL     OW  390   2.213   0.814   2.135  0.2271 -0.3475 -0.2288
  124SOL    HW1  391   2.297   0.771   2.100 -0.4541 -0.2364 -2.0864
  124SOL    HW2  392   2.135   0.754   2.115 -0.6684  1.4507 -2.3906
  125SOL     OW  393   1.135   1.081   1.803 -0.0723  0.2547  0.2683
  125SOL    HW1  394   1.234   1.092   1.793  0.0174  0.8146  1.5698
  125SOL    HW2  395   1.109   1.107   1.896 -1.3235 -0.7453  0.2036
  126SOL     OW  396   1.410   1.049   2.378 -0.0821 -0.3634 -0.3570
  126SOL    HW1  397   1.347   1.059   2.455 -1.5886 -0.4385 -1.5555
  126SOL    HW2  398   1.470   1.128   2.374 -0.2592 -0.1656  0.6449
  127SOL     OW  399   1.624   2.117   0.345 -0.1247 -0.5694 -0.3989
  127SOL    HW1  400   1.608   2.020   0.362  1.8607 -0.7593  0.5514
  127SOL    HW2  401   1.688   2.127   0.268  0.6958 -0.0567  0.3441
  128SOL     OW  402   2.297   0.630   0.504 -0.1511 -0.2413  0.0868
  128SOL    HW1  403   2.365   0.698   0.530  0.1775 -0.4003 -0.3555
  128SOL    HW2  404   2.341   0.541   0.493 -0.7405 -0.7632  1.6924
  129SOL     OW  405   1.179   2.387   0.415  0.4823  0.0856  0.0721
  129SOL    HW1  406   1.248   2.327   0.456 -0.3647 -0.9235  0.0490
  129SOL    HW2  407   1.150   2.348   0.328 -1.6699 -0.6625  1.0724
  130SOL     OW  408   1.156   0.802   1.841 -0.9124  0.5204 -0.0478
  130SOL    HW1  409   1.077   0.758   1.798 -1.7097  1.1323  0.7770
  130SOL    HW2  410   1.147   0.901   1.835 -0.1750  0.5962  0.0011
  131SOL     OW  411   0.710   0.602   2.125 -0.5008 -0.3015 -0.2048
  131SOL    HW1  412   0.613   0.629   2.129 -0.6505 -1.1290  2.9552
  131SOL    HW2  413   0.739   0.570   2.215  3.3092  1.8245 -0.6211
  132SOL     OW  414   0.077   0.823   0.540 -0.4564  0.1760 -0.0181
  132SOL    HW1  415   0.167   0.843   0.502 -0.3497  2.7848  1.4420
  132SOL    HW2  416   0.009   0.882   0.496 -0.6017  1.9432  2.4502
  133SOL     OW  417   1.032   0.353   0.339  0.3037  0.5425  0.4020
  133SOL    HW1  418   1.087   0.432   0.363  1.0274  0.6805 -1.5452
  133SOL    HW2  419   1.070   0.311   0.256 -2.5730  0.6921 -1.0588
  134SOL     OW  420   1.766   1.360   0.381  0.5612 -0.1709 -0.1451
  134SOL    HW1  421   1.855   1.316   0.372  0.5608 -0.2581  0.2736
  134SOL    HW2  422   1.697   1.291   0.402  0.1072 -0.3411 -2.1330
  135SOL     OW  423   2.389   2.336   2.321  0.4787  0.3426  0.5161
  135SOL    HW1  424   2.314   2.397   2.346  0.8601  1.6950 -1.5460
  135SOL    HW2  425   2.397   2.264   2.390 -2.1221  0.6847  1.2398
  136SOL     OW  426   0.979   1.731   1.985 -0.3555  0.7092 -0.1696
  136SOL    HW1  427   0.926   1.647   1.992  0.9046 -0.1023 -0.1764
  136SOL    HW2  428   1.076   1.709   1.976  0.0088  2.1679 -0.0162
  137SOL     OW  429   2.375   0.538   2.008  0.0336  0.0919 -0.6799
  137SOL    HW1  430   2.304   0.494   2.063  0.4631  1.4356  0.9618
  137SOL    HW2  431   2.394   0.481   1.928 -1.0913 -1.5343  0.1794
  138SOL     OW  432   2.338   1.989   0.714  0.0145 -0.0778 -0.0385
  138SOL    HW1  433   2.336   1.891   0.732  0.9764 -0.7438 -3.2110
  138SOL    HW2  434   2.429   2.015   0.681 -0.4787  1.7250 -0.0498
  139SOL     OW  435   0.093   1.297   2.054 -0.5972  0.1921 -0.5198
  139SOL    HW1  436  -0.006   1.284   2.062 -0.9194  1.2908 -2.4274
  139SOL    HW2  437   0.119   1.381   2.101  0.0093 -1.8984  3.0915
  140SOL     OW  438   0.797   1.521   1.990  0.2238  0.5806 -0.5707
  140SOL    HW1  439   0.780   1.532   2.088 -1.7316  2.4765 -1.0858
  140SOL    HW2  440   0.747   1.441   1.956 -0.6241  1.0164 -0.3678
  141SOL     OW  441   1.424   0.861   1.854  0.3889  0.5785  0.0518
  141SOL    HW1  442   1.329   0.832   1.843  0.9842 -0.2965 -3.2163
  141SOL    HW2  443   1.485   0.782   1.843  1.5587  1.2741  1.3065
  142SOL     OW  444   2.201   2.149   0.550 -0.6345 -0.2288  0.4812
  142SOL    HW1  445   2.231   2.100   0.632 -2.3157 -0.0384  1.2436
  142SOL    HW2  446   2.210   2.089   0.471 -1.1576 -1.2440  1.1656
  143SOL     OW  447   0.992   1.378   0.095  0.5964 -0.3550  0.6984
  143SOL    HW1  448   1.026   1.389   0.002  0.0411 -0.1584  0.5165
  143SOL    HW2  449   0.904   1.425   0.104  0.5833 -0.4874  1.2840
  144SOL     OW  450   0.443   1.858   1.874 -0.1334 -0.0417 -0.3437
  144SOL    HW1  451   0.343   1.863   1.869 -0.0889 -0.8628 -3.2085
  144SOL    HW2  452   0.473   1.771   1.836  1.7603  0.8665 -0.9683
  145SOL     OW  453   2.008   0.597   2.119 -0.3738  0.1609  0.0670
  145SOL    HW1  454   2.069   0.539   2.174  0.3045 -0.5512 -1.4199
  145SOL    HW2  455   1.916   0.557   2.118 -0.2859 -0.0515  0.3424
  146SOL     OW  456   1.345   0.111   2.190 -0.0078 -0.3004  0.5071
  146SOL    HW1  457   1.297   0.194   2.160 -1.1863 -0.5993  1.5241
  146SOL    HW2  458   1.283   0.033   2.188  0.8326 -0.9812  0.4590
  147SOL     OW  459   1.317   1.107   0.249 -0.0206  0.6215 -0.0581
  147SOL    HW1  460   1.218   1.101   0.233  0.1432 -0.0908 -0.8093
  147SOL    HW2  461   1.346   1.034   0.310  0.1206  0.5662 -0.1923
  148SOL     OW  462   1.807   0.820   2.087 -0.4169  0.1780 -0.0685
  148SOL    HW1  463   1.885   0.758   2.092  0.3699  1.0108 -1.6760
  148SOL    HW2  464   1.832   0.910   2.123 -0.7819  0.3089 -0.1355
  149SOL     OW  465   0.524   0.942   2.296 -0.4578  0.2392 -0.2916
  149SOL    HW1  466   0.523   0.901   2.205  1.3424  0.2308 -0.3269
  149SOL    HW2  467   0.486   0.877   2.362  0.7597 -0.8241 -0.6209
  150SOL     OW  468   1.849   1.637   0.425  0.4782 -0.4529 -0.5244
  150SOL    HW1  469   1.795   1.685   0.356  0.8574 -0.5737 -0.9133
  150SOL    HW2  470   1.823   1.540   0.425  0.6518 -0.5003 -0.6732
  151SOL     OW  471   0.979   0.693   1.666 -0.6340 -0.2427 -0.0954
  151SOL    HW1  472   0.963   0.671   1.569  0.7590 -0.2067 -0.3431
  151SOL    HW2  473   0.972   0.610   1.720 -0.6547 -0.3949 -0.3303
  152SOL     OW  474   2.053   0.730   0.473 -0.2655 -0.0123  0.2134
  152SOL    HW1  475   1.992   0.656   0.444 -1.0058 -0.2201  2.1920
  152SOL    HW2  476   2.146   0.694   0.486  0.0201  0.0446 -1.6420
  153SOL     OW  477   1.921   2.266   0.528  0.4940  0.0537 -0.0022
  153SOL    HW1  478   2.009   2.221   0.539  1.2764  1.5802  0.2186
  153SOL    HW2  479   1.900   2.275   0.430 -0.1280 -1.6064 -0.0404
  154SOL     OW  480   0.033   0.705   0.012 -0.3807 -0.2624 -0.2085
  154SOL    HW1  481   0.029   0.629   0.076 -1.2040 -0.3609 -0.3633
  154SOL    HW2  482  -0.003   0.676  -0.077 -0.4098  0.2117 -0.3549
  155SOL     OW  483   1.369   1.386   1.988 -0.7169  0.1583  0.5697
  155SOL    HW1  484   1.440   1.423   2.048  0.2383  0.9092 -0.9925
  155SOL    HW2  485   1.303   1.457   1.967 -0.3004  0.2786 -0.3537
  156SOL     OW  486   1.162   0.505   2.370 -0.5912  0.1325  0.0938
  156SOL    HW1  487   1.192   0.475   2.279 -1.9310 -1.0281  0.0280
  156SOL    HW2  488   1.238   0.552   2.415  0.4222 -0.1985 -1.2088
  157SOL     OW  489   1.791   1.030   2.285  0.9226  0.1450 -0.3937
  157SOL    HW1  490   1.754   0.938   2.295  2.1576 -0.4118 -0.7521
  157SOL    HW2  491   1.719   1.093   2.258 -0.3768 -0.3074  1.8644
  158SOL     OW  492   2.324   1.643   2.147  0.9809 -0.2944  0.6831
  158SOL    HW1  493   2.373   1.727   2.169  2.3333 -1.2179  1.2943
  158SOL    HW2  494   2.317   1.586   2.228  0.0421 -0.7613  0.2839
  159SOL     OW  495   0.431   1.922   0.624 -0.5250  0.0020  0.0660
  159SOL    HW1  496   0.519   1.879   0.601  0.1418  2.1853 -1.6677
  159SOL    HW2  497   0.447   2.005   0.678 -1.2535  2.0068 -2.6559
  160SOL     OW  498   2.391   0.517   0.204  0.7572 -0.1279 -0.4448
  160SOL    HW1  499   2.410   0.563   0.291  1.0867  1.7805 -1.5031
  160SOL    HW2  500   2.309   0.460   0.213 -0.1416  1.3218  0.6573
  161SOL     OW  501   2.156   0.317   0.545  0.2975  1.0513 -0.5458
  161SOL    HW1  502   2.220   0.379   0.591  0.4180 -0.4006  1.3295
  161SOL    HW2  503   2.172   0.223   0.577 -0.7793  0.2427 -2.3152
  162SOL     OW  504   1.012   1.372   2.202 -0.5626  0.0820  0.0595
  162SOL    HW1  505   0.931   1.407   2.154 -0.3837 -0.0058 -0.3067
  162SOL    HW2  506   1.091   1.429   2.180 -0.3999 -0.1856 -0.0518
  163SOL     OW  507   2.273   0.969   0.405 -0.2056  0.0921  0.0248
  163SOL    HW1  508   2.181   0.971   0.443 -0.4119  1.9652 -0.5542
  163SOL    HW2  509   2.270   0.938   0.310 -0.4380  1.7114 -0.5081
  164SOL     OW  510   0.428   2.176   0.118 -0.2784 -0.5367  0.2554
  164SOL    HW1  511   0.492   2.152   0.191 -0.8892 -2.2961  0.2404
  164SOL    HW2  512   0.456   2.131   0.033 -0.9059 -0.4284 -0.0125
  165SOL     OW  513   1.350   0.549   1.911  0.9842  0.0781  0.1003
  165SOL    HW1  514   1.395   0.532   1.823 -0.2788 -1.6146 -0.2436
  165SOL    HW2  515   1.281   0.620   1.899  0.7064 -0.2573 -0.3229
  166SOL     OW  516   1.577   1.234   2.226 -0.1941  0.6109 -0.1010
  166SOL    HW1  517   1.529   1.171   2.165 -0.5350  0.0785  0.7063
  166SOL    HW2  518   1.569   1.327   2.191  3.9438 -0.2265 -3.6478
  167SOL     OW  519   0.139   1.486   0.033 -0.2016  0.4424  0.1290
  167SOL    HW1  520   0.045   1.519   0.038 -1.1832 -2.2838  0.4724
  167SOL    HW2  521   0.167   1.478  -0.063 -1.0313 -0.6729 -0.0191
  168SOL     OW  522   0.243   0.362   0.245 -0.0559 -0.0967 -0.4534
  168SOL    HW1  523   0.196   0.284   0.286 -0.2470  0.3799  0.2421
  168SOL    HW2  524   0.180   0.438   0.235  0.0071 -0.1842 -1.5859
  169SOL     OW  525   0.043   0.381   0.501  0.0840 -0.2434 -0.2929
  169SOL    HW1  526   0.031   0.312   0.429 -0.1872 -1.2693  0.7159
  169SOL    HW2  527   0.127   0.361   0.552 -1.0774 -1.0833  1.3410
  170SOL     OW  528   1.404   0.408   0.571  0.2677 -0.1148 -0.0512
  170SOL    HW1  529   1.427   0.438   0.479  1.8584  0.1900  0.4277
  170SOL    HW2  530   1.401   0.308   0.574 -1.4183 -0.1068 -0.7957
  171SOL     OW  531   2.373   0.315   1.819 -0.3006 -0.5708 -0.2049
  171SOL    HW1  532   2.393   0.303   1.722  2.7979  0.9100  0.2087
  171SOL    HW2  533   2.387   0.228   1.867  0.4710 -0.7350 -0.7163
  172SOL     OW  534   1.825   0.515   0.361  0.5208 -0.4906 -0.0830
  172SOL    HW1  535   1.846   0.445   0.292  0.3902 -0.3640 -0.2517
  172SOL    HW2  536   1.777   0.591   0.317  1.9872  0.3886 -0.1978
  173SOL     OW  537   0.475   2.106   1.788 -0.3395 -0.7385 -0.3524
  173SOL    HW1  538   0.461   2.013   1.824 -0.1525 -0.0817  1.4293
  173SOL    HW2  539   0.545   2.103   1.716  0.7942 -1.7441  0.7597
  174SOL     OW  540   0.522   0.997   0.249 -0.4386 -0.5640 -0.0984
  174SOL    HW1  541   0.430   1.022   0.221 -0.3039  0.3303  0.2287
  174SOL    HW2  542   0.526   0.988   0.348 -0.2524 -0.9190 -0.1371
  175SOL     OW  543   1.447   1.598   0.352  0.0353  0.2526 -0.1964
  175SOL    HW1  544   1.482   1.585   0.445 -0.0800  0.8388 -0.0738
  175SOL    HW2  545   1.463   1.514   0.299  0.5216  0.0812  0.2144
  176SOL     OW  546   2.073   0.167   0.305 -0.2176  0.1072  0.1434
  176SOL    HW1  547   1.977   0.149   0.284  0.3677 -2.9592 -0.1366
  176SOL    HW2  548   2.081   0.202   0.398 -1.6807  1.2057 -0.1410
  177SOL     OW  549   1.617   0.605   1.795  0.0960 -0.8941  0.1827
  177SOL    HW1  550   1.654   0.690   1.757 -1.6616 -0.2762 -0.2024
  177SOL    HW2  551   1.671   0.528   1.762  1.6404  0.0655  0.4458
  178SOL     OW  552   0.461   1.458   0.043 -0.0633 -0.3312  0.7968
  178SOL    HW1  553   0.386   1.487   0.103  0.7060 -2.2349  2.7222
  178SOL    HW2  554   0.437   1.371   0.000 -0.6686  1.0838 -1.8419
  179SOL     OW  555   0.446   0.447   2.349  0.4069 -0.4737  0.3262
  179SOL    HW1  556   0.455   0.502   2.266 -2.4090  0.6996  0.7437
  179SOL    HW2  557   0.519   0.471   2.413  0.0196  1.7857 -0.0600
  180SOL     OW  558   0.314   0.524   0.620 -0.2620  0.3023 -0.2255
  180SOL    HW1  559   0.372   0.556   0.546  0.1210 -0.4309 -0.2521
  180SOL    HW2  560   0.251   0.596   0.647 -0.7733  0.4148 -1.6314
  181SOL     OW  561   2.053   1.722   0.190  0.1719 -0.3505  0.1048
  181SOL    HW1  562   2.123   1.775   0.236 -0.2685  1.2097 -0.9726
  181SOL    HW2  563   1.969   1.723   0.245 -0.0317  0.6271 -0.2051
  182SOL     OW  564   1.584   2.283   2.349  0.4546 -0.1791  0.2792
  182SOL    HW1  565   1.575   2.318   2.442 -1.2399 -2.4020  0.9883
  182SOL    HW2  566   1.626   2.353   2.291 -1.7812  2.5869  1.8876
  183SOL     OW  567   0.384   1.287   2.094 -0.2252  0.0734 -0.0037
  183SOL    HW1  568   0.402   1.250   2.185 -0.0598 -2.9767 -1.2196
  183SOL    HW2  569   0.286   1.287   2.077 -0.3683  1.9103  0.6268
  184SOL     OW  570   0.290   0.820   0.364 -0.6503 -0.3276  0.9972
  184SOL    HW1  571   0.270   0.887   0.292 -2.8707 -0.9478  1.0319
  184SOL    HW2  572   0.355   0.752   0.330  0.4951  0.9812  0.5027
  185SOL     OW  573   0.778   2.307   0.412  0.4210  0.2767 -0.1316
  185SOL    HW1  574   0.684   2.321   0.443 -0.3185 -0.2569 -2.0296
  185SOL    HW2  575   0.837   2.378   0.450 -0.8727  1.0296  0.5140
  186SOL     OW  576   1.275   0.010   0.083 -0.5619 -0.2344  0.4632
  186SOL    HW1  577   1.274  -0.042  -0.002 -1.1627  1.1135 -0.3665
  186SOL    HW2  578   1.339  -0.033   0.148  0.8151 -0.5659 -1.0907
  187SOL     OW  579   1.757   2.116   0.073  0.4581 -0.0997 -0.0773
  187SOL    HW1  580   1.686   2.140   0.007 -1.7242 -1.8631  1.5600
  187SOL    HW2  581   1.804   2.033   0.042 -1.1230 -1.4032  0.9543
  188SOL     OW  582   2.270   2.381   0.366  0.1007 -0.0350 -0.2148
  188SOL    HW1  583   2.180   2.424   0.365  0.5573  0.9183 -1.4608
  188SOL    HW2  584   2.271   2.308   0.435 -1.3104  0.5845  0.4875
  189SOL     OW  585   0.388   1.191   2.343 -0.2304 -0.1155 -0.2590
  189SOL    HW1  586   0.289   1.181   2.340 -0.0278 -2.2301 -0.7524
  189SOL    HW2  587   0.430   1.101   2.347  1.6265  0.7807  1.9335
  190SOL     OW  588   0.061   1.893   2.155  0.0514  0.2933  0.5914
  190SOL    HW1  589   0.004   1.974   2.152 -1.3361 -0.5867  2.1815
  190SOL    HW2  590   0.140   1.910   2.214 -0.3736  0.4169  1.1316
  191SOL     OW  591   1.291   1.397   0.055  0.2612  0.3772 -0.4049
  191SOL    HW1  592   1.206   1.395   0.109 -0.3207  0.5329 -1.3036
  191SOL    HW2  593   1.366   1.359   0.110 -0.4281  0.0385  0.3232
  192SOL     OW  594   0.075   1.942   0.283 -0.3185  0.6467  0.3965
  192SOL    HW1  595  -0.020   1.922   0.306  0.1059 -2.4544 -0.2177
  192SOL    HW2  596   0.079   1.995   0.198 -1.4878  0.5956  0.3039
  193SOL     OW  597   1.204   2.288   2.224 -0.2430 -0.2223  0.0982
  193SOL    HW1  598   1.236   2.196   2.202 -1.3177 -0.1685 -1.8029
  193SOL    HW2  599   1.105   2.293   2.207  0.0397  1.6313 -1.0663
  194SOL     OW  600   0.328   0.748   0.016  0.2285  0.7080  0.0753
  194SOL    HW1  601   0.342   0.680   0.089 -0.1419 -1.1994 -1.5947
  194SOL    HW2  602   0.231   0.772   0.011  0.1866  0.5020 -0.0911
  195SOL     OW  603   1.600   0.133   2.191  0.0574  0.4927 -0.0428
  195SOL    HW1  604   1.502   0.116   2.204  0.4135 -1.2208  0.5579
  195SOL    HW2  605   1.613   0.195   2.113 -1.5277  1.3620  0.3644
  196SOL     OW  606   1.499   1.861   0.296 -0.1689  0.1950  0.7152
  196SOL    HW1  607   1.433   1.919   0.248  0.4180  1.0108  0.8728
  196SOL    HW2  608   1.462   1.769   0.307 -0.7024  0.2604 -0.4619
  197SOL     OW  609   2.273   1.084   2.284 -0.3899  0.3532 -0.1025
  197SOL    HW1  610   2.233   1.006   2.237  1.8664 -0.7989 -0.1540
  197SOL    HW2  611   2.275   1.065   2.383 -0.0436  0.4422 -0.0936
  198SOL     OW  612   2.011   1.055   0.005  0.1042  0.0601  0.3007
  198SOL    HW1  613   1.936   1.053  -0.061  0.5959  0.2296 -0.2711
  198SOL    HW2  614   2.019   1.146   0.045  0.3441  0.1842 -0.0313
  199SOL     OW  615   2.189   0.066   0.061  0.2055  0.2179 -0.0680
  199SOL    HW1  616   2.263   0.133   0.057  0.0532  0.5057  1.6390
  199SOL    HW2  617   2.166   0.047   0.156  0.2220 -2.2621 -0.5336
  200SOL     OW  618   0.972   2.096   2.160  0.6505 -0.2944  0.4256
  200SOL    HW1  619   0.919   2.017   2.129  0.1856 -0.7758  2.4004
  200SOL    HW2  620   1.069   2.074   2.157  0.5557 -0.7075  0.3716
   2.40105   2.40105   2.40105
