; Annealing (Cooling) MD Simulation
; Generated by prepare_evaporation.py

title                   = Annealing - Cooling to 298.0 K

; Run parameters
integrator              = md            ; Leap-frog integrator
nsteps                  = 10000000      ; 10.0 ns
dt                      = 0.001          ; 1.0 fs

; Output control
nstxout                 = 50000    ; Save coordinates every 50 ps
nstvout                 = 50000    ; Save velocities every 50 ps
nstenergy               = 5000 ; Save energies every 5 ps
nstlog                  = 5000 ; Update log every 5 ps
nstxout-compressed      = 5000 ; Save compressed coords every 5 ps

; Bond parameters
continuation            = yes           ; Continuing from production
constraint_algorithm    = lincs         ; Holonomic constraints
constraints             = h-bonds       ; Constrain H-bonds
lincs_iter              = 2             ; Accuracy of LINCS
lincs_order             = 4             ; Also related to accuracy

; Neighbor searching and VdW
cutoff-scheme           = Verlet
ns_type                 = grid          ; Search neighboring grid cells
nstlist                 = 20            ; Largely irrelevant with Verlet
rlist                   = 1.2
vdwtype                 = cutoff
vdw-modifier            = force-switch
rvdw-switch             = 1.0
rvdw                    = 1.2        ; VdW cutoff (nm)

; Electrostatics
coulombtype             = PME           ; Particle Mesh Ewald
rcoulomb                = 1.2    ; Coulomb cutoff (nm)
pme_order               = 4             ; Cubic interpolation
fourierspacing          = 0.16          ; Grid spacing for FFT

; Temperature coupling with annealing
tcoupl                  = V-rescale     ; Modified Berendsen thermostat
tc-grps                 = System
tau_t                   = 1.0           ; Time constant (ps)
ref_t                   = 313.0        ; Will be overridden by annealing

; Simulated annealing
annealing               = single        ; Single sequence
annealing-npoints       = 2             ; Two points: start and end
annealing-time          = 0 10000 ; 0 ps and 10000 ps (10.0 ns)
annealing-temp          = 313.0 298.0 ; Cool from 313.0 to 298.0 K

; Pressure coupling
pcoupl                  = C-rescale     ; Pressure coupling on
pcoupltype              = semiisotropic ; Semiisotropic scaling
tau_p                   = 5.0           ; Time constant (ps)
ref_p                   = 0.0 1.0 ; Reference pressure (bar)
compressibility         = 0.0 4.5e-5    ; Isothermal compressibility

; Periodic boundary conditions
pbc                     = xyz           ; 3-D PBC

; Dispersion correction
DispCorr                = no

; Velocity generation
gen_vel                 = no            ; Continue from production
