; NVT Equilibration
; Generated by prepare_evaporation.py

title                   = NVT Equilibration
define                  = -DPOSRES      ; Position restrain heavy atoms

; Run parameters
integrator              = md            ; Leap-frog integrator
nsteps                  = 100000      ; 100.0 ps
dt                      = 0.001          ; 1.0 fs

; Output control
nstenergy               = 5000    ; Save energies every 5000 steps
nstlog                  = 5000    ; Update log every 5000 steps
nstxout-compressed      = 5000    ; Save coordinates every 5000 steps

; Bond parameters
continuation            = yes           ; Continuation from EM
constraint_algorithm    = lincs         ; Holonomic constraints
constraints             = h-bonds       ; Constrain H-bonds
lincs_iter              = 2             ; Accuracy of LINCS
lincs_order             = 4             ; Also related to accuracy

; Neighbor searching and VdW
cutoff-scheme           = Verlet
ns_type                 = grid          ; Search neighboring grid cells
nstlist                 = 20            ; Largely irrelevant with Verlet
rlist                   = 1.2
vdwtype                 = cutoff
vdw-modifier            = force-switch
rvdw-switch             = 1.0
rvdw                    = 1.2        ; VdW cutoff (nm)

; Electrostatics
coulombtype             = PME           ; Particle Mesh Ewald
rcoulomb                = 1.2    ; Coulomb cutoff (nm)
pme_order               = 4             ; Cubic interpolation
fourierspacing          = 0.16          ; Grid spacing for FFT

; Temperature coupling
tcoupl                  = V-rescale     ; Modified Berendsen thermostat
tc-grps                 = System
tau_t                   = 1.0           ; Time constant (ps)
ref_t                   = 313.0        ; Reference temperature (K)

; Pressure coupling
pcoupl                  = no            ; No pressure coupling in NVT

; Periodic boundary conditions
pbc                     = xyz           ; 3-D PBC

; Dispersion correction
DispCorr                = no

; Velocity generation
gen_vel                 = no            ; Velocities from previous step
gen_temp                = 313.0        ; Temperature for Maxwell distribution
gen_seed                = -1            ; Random seed
