Built with Packmol
37000
    1ACTN    C1    1   5.252   3.025   2.254
    1ACTN    O1    2   5.408   3.203   2.292
    1ACTN    C2    3   5.370   3.111   2.218
    1ACTN    C3    4   5.417   3.119   2.080
    1ACTN    H1    5   5.282   2.923   2.278
    1ACTN    H2    6   5.185   3.022   2.169
    1ACTN    H3    7   5.200   3.066   2.341
    1ACTN    H4    8   5.502   3.051   2.073
    1ACTN    H5    9   5.459   3.218   2.055
    1ACTN    H6   10   5.343   3.093   2.006
    2ACTN    C1   11   5.059   5.427   3.969
    2ACTN    O1   12   5.292   5.382   3.929
    2ACTN    C2   13   5.174   5.372   3.889
    2ACTN    C3   14   5.159   5.346   3.746
    2ACTN    H1   15   4.997   5.348   4.011
    2ACTN    H2   16   4.999   5.489   3.905
    2ACTN    H3   17   5.097   5.486   4.054
    2ACTN    H4   18   5.140   5.239   3.737
    2ACTN    H5   19   5.251   5.362   3.690
    2ACTN    H6   20   5.078   5.401   3.699
    3ACTN    C1   21   3.050   0.984   7.719
    3ACTN    O1   22   3.261   0.890   7.787
    3ACTN    C2   23   3.158   0.952   7.820
    3ACTN    C3   24   3.128   0.953   7.963
    3ACTN    H1   25   3.045   1.090   7.698
    3ACTN    H2   26   2.955   0.951   7.760
    3ACTN    H3   27   3.070   0.932   7.625
    3ACTN    H4   28   3.163   1.049   8.001
    3ACTN    H5   29   3.187   0.879   8.019
    3ACTN    H6   30   3.024   0.940   7.987
    4ACTN    C1   31   1.962   6.488   1.538
    4ACTN    O1   32   2.089   6.499   1.741
    4ACTN    C2   33   2.067   6.440   1.634
    4ACTN    C3   34   2.174   6.351   1.589
    4ACTN    H1   35   1.877   6.421   1.533
    4ACTN    H2   36   2.008   6.497   1.439
    4ACTN    H3   37   1.925   6.586   1.570
    4ACTN    H4   38   2.144   6.250   1.616
    4ACTN    H5   39   2.268   6.367   1.642
    4ACTN    H6   40   2.193   6.355   1.482
    5ACTN    C1   41   1.730   6.040   3.764
    5ACTN    O1   42   1.959   6.107   3.784
    5ACTN    C2   43   1.850   6.086   3.841
    5ACTN    C3   44   1.858   6.067   3.986
    5ACTN    H1   45   1.653   6.117   3.758
    5ACTN    H2   46   1.689   5.953   3.814
    5ACTN    H3   47   1.758   6.014   3.661
    5ACTN    H4   48   1.830   6.163   4.030
    5ACTN    H5   49   1.960   6.050   4.021
    5ACTN    H6   50   1.794   5.989   4.024
    6ACTN    C1   51   5.150   1.091   5.419
    6ACTN    O1   52   5.103   1.085   5.654
    6ACTN    C2   53   5.177   1.125   5.562
    6ACTN    C3   54   5.262   1.240   5.598
    6ACTN    H1   55   5.225   1.023   5.378
    6ACTN    H2   56   5.152   1.183   5.361
    6ACTN    H3   57   5.053   1.043   5.409
    6ACTN    H4   58   5.360   1.199   5.620
    6ACTN    H5   59   5.231   1.288   5.691
    6ACTN    H6   60   5.270   1.314   5.520
    7ACTN    C1   61   1.602   0.622   2.579
    7ACTN    O1   62   1.630   0.636   2.341
    7ACTN    C2   63   1.591   0.691   2.446
    7ACTN    C3   64   1.575   0.836   2.439
    7ACTN    H1   65   1.504   0.593   2.619
    7ACTN    H2   66   1.650   0.690   2.649
    7ACTN    H3   67   1.661   0.530   2.569
    7ACTN    H4   68   1.468   0.854   2.424
    7ACTN    H5   69   1.623   0.879   2.350
    7ACTN    H6   70   1.609   0.889   2.527
    8ACTN    C1   71   6.408   5.568   6.245
    8ACTN    O1   72   6.641   5.513   6.235
    8ACTN    C2   73   6.534   5.527   6.174
    8ACTN    C3   74   6.546   5.543   6.029
    8ACTN    H1   75   6.335   5.487   6.249
    8ACTN    H2   76   6.365   5.652   6.191
    8ACTN    H3   77   6.431   5.598   6.348
    8ACTN    H4   78   6.525   5.446   5.985
    8ACTN    H5   79   6.649   5.565   5.997
    8ACTN    H6   80   6.480   5.617   5.987
    9ACTN    C1   81   6.517   3.571   1.062
    9ACTN    O1   82   6.749   3.543   1.008
    9ACTN    C2   83   6.630   3.530   0.973
    9ACTN    C3   84   6.610   3.513   0.829
    9ACTN    H1   85   6.461   3.485   1.100
    9ACTN    H2   86   6.450   3.634   1.006
    9ACTN    H3   87   6.555   3.625   1.149
    9ACTN    H4   88   6.596   3.407   0.812
    9ACTN    H5   89   6.698   3.540   0.770
    9ACTN    H6   90   6.524   3.567   0.790
   10ACTN    C1   91   4.726   0.133   1.891
   10ACTN    O1   92   4.564   0.310   1.901
   10ACTN    C2   93   4.673   0.265   1.940
   10ACTN    C3   94   4.764   0.364   1.998
   10ACTN    H1   95   4.725   0.057   1.970
   10ACTN    H2   96   4.827   0.147   1.856
   10ACTN    H3   97   4.663   0.095   1.810
   10ACTN    H4   98   4.755   0.354   2.106
   10ACTN    H5   99   4.734   0.467   1.977
   10ACTN    H6  100   4.868   0.351   1.970
   11ACTN    C1  101   7.092   1.191   4.684
   11ACTN    O1  102   6.965   1.030   4.559
   11ACTN    C2  103   7.025   1.058   4.664
   11ACTN    C3  104   6.991   0.973   4.779
   11ACTN    H1  105   7.200   1.182   4.685
   11ACTN    H2  106   7.058   1.232   4.779
   11ACTN    H3  107   7.065   1.259   4.602
   11ACTN    H4  108   7.070   0.899   4.787
   11ACTN    H5  109   6.900   0.915   4.762
   11ACTN    H6  110   6.982   1.027   4.872
   12ACTN    C1  111   7.120   1.951   2.253
   12ACTN    O1  112   6.965   1.788   2.335
   12ACTN    C2  113   7.023   1.896   2.353
   12ACTN    C3  114   6.960   1.984   2.452
   12ACTN    H1  115   7.222   1.949   2.290
   12ACTN    H2  116   7.092   2.054   2.231
   12ACTN    H3  117   7.118   1.891   2.161
   12ACTN    H4  118   7.017   1.972   2.544
   12ACTN    H5  119   6.858   1.953   2.478
   12ACTN    H6  120   6.959   2.089   2.424
   13ACTN    C1  121   3.306   6.792   1.043
   13ACTN    O1  122   3.543   6.771   1.009
   13ACTN    C2  123   3.428   6.740   0.972
   13ACTN    C3  124   3.418   6.689   0.835
   13ACTN    H1  125   3.254   6.713   1.097
   13ACTN    H2  126   3.239   6.835   0.969
   13ACTN    H3  127   3.335   6.869   1.116
   13ACTN    H4  128   3.413   6.581   0.843
   13ACTN    H5  129   3.509   6.708   0.776
   13ACTN    H6  130   3.333   6.725   0.780
   14ACTN    C1  131   5.203   3.153   0.216
   14ACTN    O1  132   5.430   3.229   0.200
   14ACTN    C2  133   5.333   3.204   0.273
   14ACTN    C3  134   5.365   3.184   0.415
   14ACTN    H1  135   5.124   3.227   0.224
   14ACTN    H2  136   5.174   3.064   0.271
   14ACTN    H3  137   5.216   3.129   0.110
   14ACTN    H4  138   5.340   3.278   0.465
   14ACTN    H5  139   5.472   3.171   0.432
   14ACTN    H6  140   5.310   3.103   0.461
   15ACTN    C1  141   5.721   0.987   2.136
   15ACTN    O1  142   5.551   1.155   2.157
   15ACTN    C2  143   5.630   1.094   2.083
   15ACTN    C3  144   5.598   1.101   1.940
   15ACTN    H1  145   5.825   1.019   2.135
   15ACTN    H2  146   5.710   0.899   2.074
   15ACTN    H3  147   5.695   0.963   2.240
   15ACTN    H4  148   5.664   1.178   1.899
   15ACTN    H5  149   5.497   1.138   1.921
   15ACTN    H6  150   5.613   1.008   1.887
   16ACTN    C1  151   3.607   5.897   5.829
   16ACTN    O1  152   3.826   5.973   5.892
   16ACTN    C2  153   3.754   5.879   5.852
   16ACTN    C3  154   3.827   5.769   5.789
   16ACTN    H1  155   3.548   5.842   5.902
   16ACTN    H2  156   3.583   5.861   5.730
   16ACTN    H3  157   3.580   6.003   5.838
   16ACTN    H4  158   3.836   5.691   5.864
   16ACTN    H5  159   3.930   5.795   5.764
   16ACTN    H6  160   3.778   5.729   5.701
   17ACTN    C1  161   2.859   2.199   3.890
   17ACTN    O1  162   2.665   2.061   3.855
   17ACTN    C2  163   2.717   2.174   3.846
   17ACTN    C3  164   2.650   2.266   3.754
   17ACTN    H1  165   2.863   2.261   3.980
   17ACTN    H2  166   2.911   2.249   3.809
   17ACTN    H3  167   2.908   2.104   3.913
   17ACTN    H4  168   2.588   2.331   3.815
   17ACTN    H5  169   2.579   2.215   3.688
   17ACTN    H6  170   2.718   2.326   3.694
   18ACTN    C1  171   1.842   0.212   2.212
   18ACTN    O1  172   2.063   0.305   2.198
   18ACTN    C2  173   1.966   0.254   2.139
   18ACTN    C3  174   1.963   0.277   1.994
   18ACTN    H1  175   1.831   0.104   2.215
   18ACTN    H2  176   1.756   0.255   2.162
   18ACTN    H3  177   1.846   0.247   2.316
   18ACTN    H4  178   2.002   0.187   1.948
   18ACTN    H5  179   2.032   0.356   1.963
   18ACTN    H6  180   1.865   0.299   1.955
   19ACTN    C1  181   4.113   0.820   5.669
   19ACTN    O1  182   4.337   0.798   5.752
   19ACTN    C2  183   4.255   0.864   5.685
   19ACTN    C3  184   4.293   1.004   5.662
   19ACTN    H1  185   4.091   0.788   5.567
   19ACTN    H2  186   4.048   0.903   5.695
   19ACTN    H3  187   4.092   0.735   5.735
   19ACTN    H4  188   4.334   1.008   5.561
   19ACTN    H5  189   4.375   1.037   5.726
   19ACTN    H6  190   4.211   1.074   5.670
   20ACTN    C1  191   6.372   3.284   5.428
   20ACTN    O1  192   6.433   3.498   5.337
   20ACTN    C2  193   6.412   3.429   5.438
   20ACTN    C3  194   6.468   3.482   5.562
   20ACTN    H1  195   6.269   3.268   5.458
   20ACTN    H2  196   6.438   3.226   5.492
   20ACTN    H3  197   6.381   3.250   5.324
   20ACTN    H4  198   6.386   3.531   5.614
   20ACTN    H5  199   6.541   3.562   5.544
   20ACTN    H6  200   6.512   3.407   5.626
   21ACTN    C1  201   5.921   6.196   0.257
   21ACTN    O1  202   6.115   6.055   0.237
   21ACTN    C2  203   6.001   6.071   0.284
   21ACTN    C3  204   5.934   5.948   0.328
   21ACTN    H1  205   5.910   6.257   0.346
   21ACTN    H2  206   5.823   6.167   0.222
   21ACTN    H3  207   5.972   6.257   0.181
   21ACTN    H4  208   5.946   5.944   0.436
   21ACTN    H5  209   5.983   5.858   0.291
   21ACTN    H6  210   5.829   5.944   0.303
   22ACTN    C1  211   4.078   6.050   1.134
   22ACTN    O1  212   4.047   6.286   1.108
   22ACTN    C2  213   4.016   6.182   1.168
   22ACTN    C3  214   3.952   6.202   1.299
   22ACTN    H1  215   4.006   5.982   1.087
   22ACTN    H2  216   4.115   6.004   1.225
   22ACTN    H3  217   4.160   6.064   1.063
   22ACTN    H4  218   3.845   6.190   1.282
   22ACTN    H5  219   3.962   6.305   1.335
   22ACTN    H6  220   3.985   6.134   1.375
   23ACTN    C1  221   2.933   4.024   2.460
   23ACTN    O1  222   3.051   3.913   2.283
   23ACTN    C2  223   3.034   3.927   2.405
   23ACTN    C3  224   3.083   3.816   2.488
   23ACTN    H1  225   2.980   4.108   2.510
   23ACTN    H2  226   2.870   3.971   2.531
   23ACTN    H3  227   2.871   4.064   2.379
   23ACTN    H4  228   3.179   3.849   2.527
   23ACTN    H5  229   3.106   3.727   2.429
   23ACTN    H6  230   3.018   3.789   2.569
   24ACTN    C1  231   5.946   1.224   1.410
   24ACTN    O1  232   6.127   1.132   1.540
   24ACTN    C2  233   6.015   1.187   1.539
   24ACTN    C3  234   5.938   1.175   1.663
   24ACTN    H1  235   5.942   1.331   1.395
   24ACTN    H2  236   5.846   1.184   1.413
   24ACTN    H3  237   6.001   1.181   1.325
   24ACTN    H4  238   5.951   1.269   1.717
   24ACTN    H5  239   5.979   1.099   1.730
   24ACTN    H6  240   5.833   1.156   1.648
   25ACTN    C1  241   7.305   2.695   7.722
   25ACTN    O1  242   7.245   2.706   7.954
   25ACTN    C2  243   7.332   2.680   7.869
   25ACTN    C3  244   7.470   2.679   7.919
   25ACTN    H1  245   7.301   2.598   7.671
   25ACTN    H2  246   7.384   2.755   7.678
   25ACTN    H3  247   7.208   2.744   7.706
   25ACTN    H4  248   7.495   2.574   7.934
   25ACTN    H5  249   7.479   2.724   8.018
   25ACTN    H6  250   7.542   2.725   7.853
   26ACTN    C1  251   1.284   2.300   6.562
   26ACTN    O1  252   1.213   2.090   6.470
   26ACTN    C2  253   1.226   2.212   6.455
   26ACTN    C3  254   1.221   2.258   6.316
   26ACTN    H1  255   1.209   2.365   6.607
   26ACTN    H2  256   1.362   2.361   6.518
   26ACTN    H3  257   1.326   2.238   6.642
   26ACTN    H4  258   1.120   2.295   6.299
   26ACTN    H5  259   1.232   2.176   6.244
   26ACTN    H6  260   1.293   2.336   6.292
   27ACTN    C1  261   7.166   4.020   2.692
   27ACTN    O1  262   7.247   4.236   2.756
   27ACTN    C2  263   7.150   4.160   2.743
   27ACTN    C3  264   7.031   4.198   2.820
   27ACTN    H1  265   7.123   4.008   2.593
   27ACTN    H2  266   7.116   3.952   2.761
   27ACTN    H3  267   7.272   3.995   2.685
   27ACTN    H4  268   6.964   4.248   2.749
   27ACTN    H5  269   7.052   4.274   2.896
   27ACTN    H6  270   6.979   4.115   2.866
   28ACTN    C1  271   5.216   2.446   7.592
   28ACTN    O1  272   5.097   2.239   7.566
   28ACTN    C2  273   5.163   2.330   7.512
   28ACTN    C3  274   5.220   2.297   7.382
   28ACTN    H1  275   5.164   2.539   7.567
   28ACTN    H2  276   5.321   2.457   7.570
   28ACTN    H3  277   5.202   2.428   7.699
   28ACTN    H4  278   5.154   2.341   7.307
   28ACTN    H5  279   5.218   2.190   7.361
   28ACTN    H6  280   5.320   2.334   7.367
   29ACTN    C1  281   2.035   3.542   5.964
   29ACTN    O1  282   1.958   3.642   5.760
   29ACTN    C2  283   1.937   3.619   5.880
   29ACTN    C3  284   1.837   3.705   5.943
   29ACTN    H1  285   1.997   3.444   5.992
   29ACTN    H2  286   2.055   3.599   6.054
   29ACTN    H3  287   2.129   3.527   5.908
   29ACTN    H4  288   1.744   3.647   5.946
   29ACTN    H5  289   1.812   3.792   5.883
   29ACTN    H6  290   1.862   3.737   6.043
   30ACTN    C1  291   4.512   4.421   7.286
   30ACTN    O1  292   4.726   4.315   7.269
   30ACTN    C2  293   4.661   4.420   7.267
   30ACTN    C3  294   4.739   4.543   7.290
   30ACTN    H1  295   4.459   4.448   7.195
   30ACTN    H2  296   4.487   4.492   7.364
   30ACTN    H3  297   4.478   4.321   7.316
   30ACTN    H4  298   4.756   4.586   7.191
   30ACTN    H5  299   4.839   4.522   7.329
   30ACTN    H6  300   4.690   4.615   7.354
   31ACTN    C1  301   3.690   4.885   0.180
   31ACTN    O1  302   3.520   4.896   0.349
   31ACTN    C2  303   3.588   4.825   0.273
   31ACTN    C3  304   3.594   4.683   0.307
   31ACTN    H1  305   3.659   4.879   0.076
   31ACTN    H2  306   3.783   4.832   0.193
   31ACTN    H3  307   3.704   4.992   0.203
   31ACTN    H4  308   3.521   4.633   0.243
   31ACTN    H5  309   3.558   4.663   0.409
   31ACTN    H6  310   3.691   4.638   0.294
   32ACTN    C1  311   1.236   6.321   4.254
   32ACTN    O1  312   1.136   6.440   4.437
   32ACTN    C2  313   1.161   6.436   4.315
   32ACTN    C3  314   1.079   6.524   4.231
   32ACTN    H1  315   1.336   6.349   4.221
   32ACTN    H2  316   1.179   6.285   4.169
   32ACTN    H3  317   1.247   6.240   4.328
   32ACTN    H4  318   1.140   6.612   4.212
   32ACTN    H5  319   0.992   6.563   4.284
   32ACTN    H6  320   1.048   6.480   4.138
   33ACTN    C1  321   4.213   2.693   0.219
   33ACTN    O1  322   4.118   2.531   0.369
   33ACTN    C2  323   4.209   2.559   0.288
   33ACTN    C3  324   4.329   2.477   0.298
   33ACTN    H1  325   4.192   2.684   0.113
   33ACTN    H2  326   4.312   2.735   0.233
   33ACTN    H3  327   4.138   2.760   0.263
   33ACTN    H4  328   4.322   2.403   0.218
   33ACTN    H5  329   4.333   2.418   0.390
   33ACTN    H6  330   4.422   2.532   0.288
   34ACTN    C1  331   0.916   1.847   1.120
   34ACTN    O1  332   1.120   1.783   1.230
   34ACTN    C2  333   1.034   1.871   1.210
   34ACTN    C3  334   1.032   1.979   1.309
   34ACTN    H1  335   0.923   1.905   1.028
   34ACTN    H2  336   0.826   1.875   1.174
   34ACTN    H3  337   0.911   1.741   1.092
   34ACTN    H4  338   1.086   2.062   1.265
   34ACTN    H5  339   1.088   1.954   1.400
   34ACTN    H6  340   0.932   2.011   1.337
   35ACTN    C1  341   7.023   5.895   0.412
   35ACTN    O1  342   7.244   5.957   0.341
   35ACTN    C2  343   7.153   5.968   0.426
   35ACTN    C3  344   7.197   6.017   0.557
   35ACTN    H1  345   6.940   5.963   0.391
   35ACTN    H2  346   7.003   5.841   0.504
   35ACTN    H3  347   7.028   5.824   0.328
   35ACTN    H4  348   7.171   6.123   0.560
   35ACTN    H5  349   7.306   6.014   0.569
   35ACTN    H6  350   7.151   5.966   0.641
   36ACTN    C1  351   2.160   1.404   7.698
   36ACTN    O1  352   2.154   1.605   7.829
   36ACTN    C2  353   2.110   1.490   7.810
   36ACTN    C3  354   2.042   1.430   7.925
   36ACTN    H1  355   2.084   1.390   7.620
   36ACTN    H2  356   2.188   1.307   7.738
   36ACTN    H3  357   2.247   1.451   7.650
   36ACTN    H4  358   1.935   1.443   7.907
   36ACTN    H5  359   2.061   1.485   8.018
   36ACTN    H6  360   2.064   1.326   7.940
   37ACTN    C1  361   5.611   4.235   2.642
   37ACTN    O1  362   5.717   4.043   2.738
   37ACTN    C2  363   5.656   4.150   2.757
   37ACTN    C3  364   5.595   4.164   2.889
   37ACTN    H1  365   5.668   4.328   2.635
   37ACTN    H2  366   5.506   4.258   2.655
   37ACTN    H3  367   5.626   4.182   2.547
   37ACTN    H4  368   5.663   4.227   2.947
   37ACTN    H5  369   5.591   4.070   2.944
   37ACTN    H6  370   5.497   4.210   2.887
   38ACTN    C1  371   5.431   3.739   1.879
   38ACTN    O1  372   5.571   3.576   1.986
   38ACTN    C2  373   5.461   3.633   1.981
   38ACTN    C3  374   5.351   3.563   2.049
   38ACTN    H1  375   5.422   3.838   1.924
   38ACTN    H2  376   5.338   3.714   1.829
   38ACTN    H3  377   5.513   3.744   1.806
   38ACTN    H4  378   5.340   3.611   2.146
   38ACTN    H5  379   5.377   3.459   2.073
   38ACTN    H6  380   5.258   3.565   1.995
   39ACTN    C1  381   4.883   7.070   3.692
   39ACTN    O1  382   4.661   6.983   3.666
   39ACTN    C2  383   4.763   7.029   3.612
   39ACTN    C3  384   4.776   7.001   3.468
   39ACTN    H1  385   4.897   7.178   3.692
   39ACTN    H2  386   4.971   7.023   3.650
   39ACTN    H3  387   4.871   7.038   3.797
   39ACTN    H4  388   4.743   7.091   3.417
   39ACTN    H5  389   4.707   6.923   3.435
   39ACTN    H6  390   4.876   6.975   3.437
   40ACTN    C1  391   7.668   5.935   0.073
   40ACTN    O1  392   7.469   5.807   0.032
   40ACTN    C2  393   7.519   5.913   0.072
   40ACTN    C3  394   7.427   6.028   0.074
   40ACTN    H1  395   7.707   5.939   0.175
   40ACTN    H2  396   7.689   6.028   0.023
   40ACTN    H3  397   7.718   5.852   0.022
   40ACTN    H4  398   7.395   6.039   0.177
   40ACTN    H5  399   7.335   6.009   0.018
   40ACTN    H6  400   7.471   6.120   0.040
   41ACTN    C1  401   0.895   2.142   5.585
   41ACTN    O1  402   0.698   2.020   5.523
   41ACTN    C2  403   0.757   2.129   5.527
   41ACTN    C3  404   0.705   2.231   5.436
   41ACTN    H1  405   0.895   2.198   5.678
   41ACTN    H2  406   0.958   2.194   5.513
   41ACTN    H3  407   0.937   2.043   5.605
   41ACTN    H4  408   0.642   2.296   5.496
   41ACTN    H5  409   0.637   2.190   5.360
   41ACTN    H6  410   0.781   2.290   5.387
   42ACTN    C1  411   6.125   1.883   1.959
   42ACTN    O1  412   6.230   1.828   2.168
   42ACTN    C2  413   6.126   1.857   2.107
   42ACTN    C3  414   6.002   1.823   2.177
   42ACTN    H1  415   6.107   1.988   1.936
   42ACTN    H2  416   6.047   1.823   1.914
   42ACTN    H3  417   6.223   1.857   1.916
   42ACTN    H4  418   5.966   1.915   2.223
   42ACTN    H5  419   6.018   1.755   2.261
   42ACTN    H6  420   5.925   1.783   2.113
   43ACTN    C1  421   5.613   4.081   7.435
   43ACTN    O1  422   5.472   4.124   7.245
   43ACTN    C2  423   5.481   4.103   7.368
   43ACTN    C3  424   5.364   4.144   7.446
   43ACTN    H1  425   5.625   3.978   7.469
   43ACTN    H2  426   5.621   4.148   7.520
   43ACTN    H3  427   5.695   4.101   7.364
   43ACTN    H4  428   5.306   4.053   7.465
   43ACTN    H5  429   5.296   4.209   7.390
   43ACTN    H6  430   5.388   4.191   7.540
   44ACTN    C1  431   7.064   6.683   3.804
   44ACTN    O1  432   7.047   6.762   3.578
   44ACTN    C2  433   7.084   6.672   3.655
   44ACTN    C3  434   7.107   6.542   3.592
   44ACTN    H1  435   7.159   6.697   3.856
   44ACTN    H2  436   7.017   6.593   3.838
   44ACTN    H3  437   7.002   6.770   3.827
   44ACTN    H4  438   7.214   6.534   3.578
   44ACTN    H5  439   7.065   6.536   3.492
   44ACTN    H6  440   7.072   6.458   3.651
   45ACTN    C1  441   6.959   0.708   7.187
   45ACTN    O1  442   6.850   0.861   7.336
   45ACTN    C2  443   6.929   0.766   7.322
   45ACTN    C3  444   7.021   0.744   7.434
   45ACTN    H1  445   6.918   0.608   7.175
   45ACTN    H2  446   7.067   0.704   7.175
   45ACTN    H3  447   6.915   0.771   7.108
   45ACTN    H4  448   6.978   0.663   7.493
   45ACTN    H5  449   7.023   0.829   7.504
   45ACTN    H6  450   7.122   0.719   7.405
   46ACTN    C1  451   4.851   2.507   0.572
   46ACTN    O1  452   4.886   2.426   0.795
   46ACTN    C2  453   4.806   2.466   0.709
   46ACTN    C3  454   4.666   2.431   0.734
   46ACTN    H1  455   4.842   2.615   0.557
   46ACTN    H2  456   4.790   2.455   0.499
   46ACTN    H3  457   4.957   2.481   0.558
   46ACTN    H4  458   4.619   2.519   0.777
   46ACTN    H5  459   4.655   2.354   0.810
   46ACTN    H6  460   4.612   2.401   0.645
   47ACTN    C1  461   3.611   5.736   5.449
   47ACTN    O1  462   3.678   5.538   5.332
   47ACTN    C2  463   3.667   5.597   5.441
   47ACTN    C3  464   3.669   5.510   5.559
   47ACTN    H1  465   3.688   5.809   5.477
   47ACTN    H2  466   3.533   5.737   5.524
   47ACTN    H3  467   3.571   5.766   5.352
   47ACTN    H4  468   3.770   5.516   5.599
   47ACTN    H5  469   3.656   5.404   5.533
   47ACTN    H6  470   3.598   5.537   5.635
   48ACTN    C1  471   6.824   1.142   7.666
   48ACTN    O1  472   6.931   1.282   7.829
   48ACTN    C2  473   6.877   1.273   7.717
   48ACTN    C3  474   6.830   1.400   7.661
   48ACTN    H1  475   6.883   1.104   7.583
   48ACTN    H2  476   6.721   1.157   7.633
   48ACTN    H3  477   6.826   1.067   7.745
   48ACTN    H4  478   6.906   1.431   7.589
   48ACTN    H5  479   6.828   1.480   7.735
   48ACTN    H6  480   6.734   1.394   7.612
   49ACTN    C1  481   5.299   5.128   1.892
   49ACTN    O1  482   5.265   5.354   1.821
   49ACTN    C2  483   5.247   5.268   1.908
   49ACTN    C3  484   5.213   5.319   2.041
   49ACTN    H1  485   5.218   5.056   1.877
   49ACTN    H2  486   5.354   5.101   1.981
   49ACTN    H3  487   5.364   5.122   1.804
   49ACTN    H4  488   5.105   5.310   2.050
   49ACTN    H5  489   5.232   5.427   2.051
   49ACTN    H6  490   5.261   5.267   2.122
   50ACTN    C1  491   0.165   7.595   2.841
   50ACTN    O1  492  -0.045   7.480   2.821
   50ACTN    C2  493   0.044   7.548   2.766
   50ACTN    C3  494   0.045   7.540   2.620
   50ACTN    H1  495   0.164   7.703   2.855
   50ACTN    H2  496   0.253   7.567   2.784
   50ACTN    H3  497   0.168   7.549   2.940
   50ACTN    H4  498  -0.005   7.631   2.584
   50ACTN    H5  499  -0.016   7.458   2.581
   50ACTN    H6  500   0.144   7.534   2.576
   51ACTN    C1  501   6.776   6.083   2.745
   51ACTN    O1  502   6.862   5.874   2.826
   51ACTN    C2  503   6.763   5.940   2.790
   51ACTN    C3  504   6.645   5.861   2.752
   51ACTN    H1  505   6.731   6.152   2.816
   51ACTN    H2  506   6.726   6.094   2.649
   51ACTN    H3  507   6.882   6.110   2.735
   51ACTN    H4  508   6.579   5.863   2.839
   51ACTN    H5  509   6.669   5.755   2.738
   51ACTN    H6  510   6.593   5.898   2.665
   52ACTN    C1  511   3.404   6.814   1.412
   52ACTN    O1  512   3.632   6.877   1.369
   52ACTN    C2  513   3.543   6.791   1.360
   52ACTN    C3  514   3.568   6.686   1.261
   52ACTN    H1  515   3.383   6.754   1.500
   52ACTN    H2  516   3.333   6.790   1.333
   52ACTN    H3  517   3.393   6.920   1.441
   52ACTN    H4  518   3.606   6.600   1.316
   52ACTN    H5  519   3.649   6.712   1.192
   52ACTN    H6  520   3.481   6.657   1.204
   53ACTN    C1  521   7.817   0.543   3.320
   53ACTN    O1  522   7.581   0.522   3.354
   53ACTN    C2  523   7.686   0.469   3.316
   53ACTN    C3  524   7.684   0.323   3.310
   53ACTN    H1  525   7.854   0.566   3.221
   53ACTN    H2  526   7.890   0.481   3.371
   53ACTN    H3  527   7.805   0.638   3.374
   53ACTN    H4  528   7.668   0.297   3.205
   53ACTN    H5  529   7.598   0.280   3.362
   53ACTN    H6  530   7.774   0.275   3.345
   54ACTN    C1  531   3.107   2.023   3.071
   54ACTN    O1  532   3.219   1.812   3.057
   54ACTN    C2  533   3.192   1.912   3.125
   54ACTN    C3  534   3.209   1.895   3.270
   54ACTN    H1  535   3.164   2.114   3.055
   54ACTN    H2  536   3.028   2.044   3.143
   54ACTN    H3  537   3.063   1.994   2.975
   54ACTN    H4  538   3.305   1.941   3.294
   54ACTN    H5  539   3.221   1.790   3.298
   54ACTN    H6  540   3.131   1.940   3.329
   55ACTN    C1  541   4.336   4.659   6.156
   55ACTN    O1  542   4.198   4.472   6.097
   55ACTN    C2  543   4.285   4.519   6.173
   55ACTN    C3  544   4.300   4.448   6.301
   55ACTN    H1  545   4.440   4.660   6.122
   55ACTN    H2  546   4.330   4.709   6.252
   55ACTN    H3  547   4.276   4.712   6.082
   55ACTN    H4  548   4.387   4.384   6.290
   55ACTN    H5  549   4.217   4.380   6.321
   55ACTN    H6  550   4.314   4.514   6.386
   56ACTN    C1  551   2.365   0.552   4.941
   56ACTN    O1  552   2.218   0.742   4.938
   56ACTN    C2  553   2.301   0.672   4.877
   56ACTN    C3  554   2.299   0.686   4.731
   56ACTN    H1  555   2.471   0.569   4.961
   56ACTN    H2  556   2.354   0.468   4.874
   56ACTN    H3  557   2.317   0.530   5.037
   56ACTN    H4  558   2.381   0.754   4.706
   56ACTN    H5  559   2.209   0.738   4.695
   56ACTN    H6  560   2.311   0.593   4.677
   57ACTN    C1  561   1.184   7.662   0.542
   57ACTN    O1  562   1.332   7.727   0.365
   57ACTN    C2  563   1.317   7.702   0.486
   57ACTN    C3  564   1.441   7.670   0.558
   57ACTN    H1  565   1.143   7.739   0.607
   57ACTN    H2  566   1.197   7.571   0.599
   57ACTN    H3  567   1.112   7.645   0.461
   57ACTN    H4  568   1.469   7.761   0.610
   57ACTN    H5  569   1.525   7.650   0.490
   57ACTN    H6  570   1.432   7.589   0.628
   58ACTN    C1  571   6.552   7.010   3.478
   58ACTN    O1  572   6.631   7.154   3.652
   58ACTN    C2  573   6.534   7.106   3.592
   58ACTN    C3  574   6.406   7.114   3.663
   58ACTN    H1  575   6.524   7.054   3.383
   58ACTN    H2  576   6.490   6.923   3.497
   58ACTN    H3  577   6.657   6.980   3.471
   58ACTN    H4  578   6.353   7.199   3.621
   58ACTN    H5  579   6.419   7.139   3.769
   58ACTN    H6  580   6.346   7.025   3.654
   59ACTN    C1  581   1.994   2.088   5.914
   59ACTN    O1  582   2.166   2.004   6.058
   59ACTN    C2  583   2.066   1.980   5.988
   59ACTN    C3  584   2.051   1.839   5.949
   59ACTN    H1  585   1.896   2.108   5.957
   59ACTN    H2  586   1.982   2.057   5.811
   59ACTN    H3  587   2.051   2.182   5.919
   59ACTN    H4  588   1.977   1.797   6.018
   59ACTN    H5  589   2.141   1.781   5.966
   59ACTN    H6  590   2.017   1.826   5.847
   60ACTN    C1  591   2.296   3.358   2.860
   60ACTN    O1  592   2.169   3.452   3.041
   60ACTN    C2  593   2.241   3.472   2.942
   60ACTN    C3  594   2.232   3.607   2.885
   60ACTN    H1  595   2.403   3.348   2.872
   60ACTN    H2  596   2.273   3.377   2.756
   60ACTN    H3  597   2.250   3.264   2.893
   60ACTN    H4  598   2.319   3.661   2.923
   60ACTN    H5  599   2.146   3.663   2.923
   60ACTN    H6  600   2.232   3.610   2.777
   61ACTN    C1  601   4.608   2.634   3.304
   61ACTN    O1  602   4.606   2.396   3.274
   61ACTN    C2  603   4.599   2.508   3.222
   61ACTN    C3  604   4.625   2.512   3.078
   61ACTN    H1  605   4.513   2.687   3.308
   61ACTN    H2  606   4.683   2.699   3.260
   61ACTN    H3  607   4.636   2.609   3.407
   61ACTN    H4  608   4.528   2.515   3.029
   61ACTN    H5  609   4.671   2.419   3.041
   61ACTN    H6  610   4.685   2.596   3.046
   62ACTN    C1  611   5.501   2.533   3.250
   62ACTN    O1  612   5.448   2.495   3.481
   62ACTN    C2  613   5.419   2.474   3.361
   62ACTN    C3  614   5.333   2.357   3.337
   62ACTN    H1  615   5.446   2.610   3.196
   62ACTN    H2  616   5.528   2.453   3.181
   62ACTN    H3  617   5.591   2.580   3.290
   62ACTN    H4  618   5.233   2.397   3.324
   62ACTN    H5  619   5.326   2.292   3.425
   62ACTN    H6  620   5.361   2.299   3.251
   63ACTN    C1  621   4.093   4.093   2.722
   63ACTN    O1  622   4.195   4.278   2.837
   63ACTN    C2  623   4.154   4.161   2.842
   63ACTN    C3  624   4.206   4.082   2.954
   63ACTN    H1  625   3.986   4.077   2.735
   63ACTN    H2  626   4.143   3.998   2.709
   63ACTN    H3  627   4.107   4.156   2.633
   63ACTN    H4  628   4.128   4.082   3.030
   63ACTN    H5  629   4.292   4.129   3.003
   63ACTN    H6  630   4.231   3.980   2.928
   64ACTN    C1  631   1.671   0.377   0.329
   64ACTN    O1  632   1.440   0.364   0.267
   64ACTN    C2  633   1.542   0.433   0.276
   64ACTN    C3  634   1.542   0.555   0.195
   64ACTN    H1  635   1.697   0.419   0.427
   64ACTN    H2  636   1.750   0.401   0.259
   64ACTN    H3  637   1.663   0.269   0.341
   64ACTN    H4  638   1.516   0.637   0.262
   64ACTN    H5  639   1.463   0.555   0.119
   64ACTN    H6  640   1.637   0.577   0.147
   65ACTN    C1  641   6.101   7.695   4.863
   65ACTN    O1  642   6.329   7.724   4.794
   65ACTN    C2  643   6.209   7.753   4.776
   65ACTN    C3  644   6.185   7.875   4.699
   65ACTN    H1  645   6.038   7.625   4.809
   65ACTN    H2  646   6.039   7.776   4.899
   65ACTN    H3  647   6.145   7.641   4.947
   65ACTN    H4  648   6.162   7.842   4.597
   65ACTN    H5  649   6.275   7.936   4.688
   65ACTN    H6  650   6.104   7.936   4.737
   66ACTN    C1  651   0.984   4.739   5.025
   66ACTN    O1  652   1.160   4.781   4.867
   66ACTN    C2  653   1.126   4.732   4.976
   66ACTN    C3  654   1.218   4.632   5.030
   66ACTN    H1  655   0.974   4.805   5.111
   66ACTN    H2  656   0.953   4.639   5.053
   66ACTN    H3  657   0.919   4.778   4.945
   66ACTN    H4  658   1.278   4.683   5.105
   66ACTN    H5  659   1.291   4.597   4.956
   66ACTN    H6  660   1.170   4.546   5.074
   67ACTN    C1  661   5.492   1.423   2.065
   67ACTN    O1  662   5.552   1.359   1.841
   67ACTN    C2  663   5.463   1.394   1.920
   67ACTN    C3  664   5.341   1.446   1.857
   67ACTN    H1  665   5.449   1.348   2.131
   67ACTN    H2  666   5.450   1.520   2.089
   67ACTN    H3  667   5.600   1.423   2.082
   67ACTN    H4  668   5.269   1.365   1.857
   67ACTN    H5  669   5.356   1.470   1.751
   67ACTN    H6  670   5.299   1.532   1.907
   68ACTN    C1  671   6.350   3.210   0.388
   68ACTN    O1  672   6.180   3.339   0.280
   68ACTN    C2  673   6.215   3.275   0.380
   68ACTN    C3  674   6.139   3.302   0.502
   68ACTN    H1  675   6.344   3.101   0.384
   68ACTN    H2  676   6.397   3.239   0.481
   68ACTN    H3  677   6.412   3.241   0.303
   68ACTN    H4  678   6.066   3.221   0.511
   68ACTN    H5  679   6.077   3.393   0.494
   68ACTN    H6  680   6.199   3.308   0.591
   69ACTN    C1  681   1.853   1.381   6.423
   69ACTN    O1  682   2.037   1.251   6.342
   69ACTN    C2  683   1.914   1.260   6.359
   69ACTN    C3  684   1.833   1.169   6.278
   69ACTN    H1  685   1.813   1.360   6.522
   69ACTN    H2  686   1.772   1.416   6.359
   69ACTN    H3  687   1.928   1.460   6.435
   69ACTN    H4  688   1.807   1.086   6.342
   69ACTN    H5  689   1.890   1.124   6.196
   69ACTN    H6  690   1.743   1.214   6.238
   70ACTN    C1  691   7.383   3.646   7.637
   70ACTN    O1  692   7.189   3.582   7.762
   70ACTN    C2  693   7.240   3.604   7.650
   70ACTN    C3  694   7.168   3.547   7.536
   70ACTN    H1  695   7.392   3.750   7.604
   70ACTN    H2  696   7.431   3.582   7.564
   70ACTN    H3  697   7.434   3.638   7.734
   70ACTN    H4  698   7.109   3.628   7.493
   70ACTN    H5  699   7.093   3.472   7.567
   70ACTN    H6  700   7.232   3.504   7.461
   71ACTN    C1  701   0.168   3.600   6.509
   71ACTN    O1  702   0.365   3.735   6.490
   71ACTN    C2  703   0.280   3.664   6.433
   71ACTN    C3  704   0.271   3.683   6.288
   71ACTN    H1  705   0.179   3.491   6.514
   71ACTN    H2  706   0.075   3.623   6.459
   71ACTN    H3  707   0.166   3.637   6.612
   71ACTN    H4  708   0.327   3.602   6.243
   71ACTN    H5  709   0.322   3.774   6.254
   71ACTN    H6  710   0.169   3.683   6.250
   72ACTN    C1  711   3.012   4.722   2.333
   72ACTN    O1  712   3.019   4.961   2.316
   72ACTN    C2  713   3.078   4.853   2.300
   72ACTN    C3  714   3.194   4.857   2.210
   72ACTN    H1  715   3.057   4.674   2.420
   72ACTN    H2  716   3.022   4.656   2.247
   72ACTN    H3  717   2.906   4.738   2.355
   72ACTN    H4  718   3.282   4.862   2.274
   72ACTN    H5  719   3.197   4.949   2.151
   72ACTN    H6  720   3.202   4.772   2.144
   73ACTN    C1  721   5.581   5.414   7.241
   73ACTN    O1  722   5.637   5.642   7.291
   73ACTN    C2  723   5.674   5.523   7.284
   73ACTN    C3  724   5.819   5.504   7.276
   73ACTN    H1  725   5.556   5.347   7.324
   73ACTN    H2  726   5.628   5.357   7.162
   73ACTN    H3  727   5.486   5.457   7.205
   73ACTN    H4  728   5.852   5.477   7.377
   73ACTN    H5  729   5.873   5.597   7.253
   73ACTN    H6  730   5.850   5.427   7.207
   74ACTN    C1  731   7.332   7.241   7.704
   74ACTN    O1  732   7.269   7.038   7.815
   74ACTN    C2  733   7.255   7.161   7.805
   74ACTN    C3  734   7.133   7.214   7.866
   74ACTN    H1  735   7.407   7.305   7.751
   74ACTN    H2  736   7.262   7.303   7.649
   74ACTN    H3  737   7.385   7.174   7.635
   74ACTN    H4  738   7.162   7.254   7.963
   74ACTN    H5  739   7.060   7.136   7.889
   74ACTN    H6  740   7.085   7.292   7.807
   75ACTN    C1  741   6.902   4.749   3.872
   75ACTN    O1  742   6.848   4.979   3.830
   75ACTN    C2  743   6.887   4.870   3.784
   75ACTN    C3  744   6.876   4.856   3.639
   75ACTN    H1  745   7.006   4.722   3.887
   75ACTN    H2  746   6.849   4.667   3.826
   75ACTN    H3  747   6.859   4.770   3.971
   75ACTN    H4  748   6.976   4.875   3.599
   75ACTN    H5  749   6.813   4.932   3.594
   75ACTN    H6  750   6.842   4.758   3.607
   76ACTN    C1  751   2.876   7.608   0.088
   76ACTN    O1  752   2.776   7.390   0.096
   76ACTN    C2  753   2.860   7.468   0.142
   76ACTN    C3  754   2.911   7.434   0.276
   76ACTN    H1  755   2.970   7.620   0.034
   76ACTN    H2  756   2.874   7.677   0.172
   76ACTN    H3  757   2.795   7.630   0.018
   76ACTN    H4  758   3.007   7.386   0.260
   76ACTN    H5  759   2.850   7.359   0.326
   76ACTN    H6  760   2.923   7.519   0.342
   77ACTN    C1  761   0.307   6.595   2.902
   77ACTN    O1  762   0.244   6.777   2.759
   77ACTN    C2  763   0.272   6.739   2.873
   77ACTN    C3  764   0.309   6.844   2.968
   77ACTN    H1  765   0.230   6.545   2.959
   77ACTN    H2  766   0.400   6.594   2.958
   77ACTN    H3  767   0.320   6.541   2.807
   77ACTN    H4  768   0.220   6.865   3.027
   77ACTN    H5  769   0.331   6.939   2.918
   77ACTN    H6  770   0.391   6.819   3.033
   78ACTN    C1  771   7.354   2.599   3.503
   78ACTN    O1  772   7.381   2.619   3.266
   78ACTN    C2  773   7.352   2.547   3.362
   78ACTN    C3  774   7.276   2.426   3.329
   78ACTN    H1  775   7.436   2.556   3.561
   78ACTN    H2  776   7.260   2.575   3.550
   78ACTN    H3  777   7.369   2.708   3.503
   78ACTN    H4  778   7.348   2.344   3.327
   78ACTN    H5  779   7.235   2.429   3.228
   78ACTN    H6  780   7.197   2.403   3.399
   79ACTN    C1  781   3.248   4.024   0.566
   79ACTN    O1  782   3.479   4.066   0.515
   79ACTN    C2  783   3.391   4.053   0.602
   79ACTN    C3  784   3.441   4.025   0.737
   79ACTN    H1  785   3.183   4.109   0.587
   79ACTN    H2  786   3.215   3.939   0.625
   79ACTN    H3  787   3.240   4.002   0.459
   79ACTN    H4  788   3.439   4.119   0.791
   79ACTN    H5  789   3.546   3.995   0.737
   79ACTN    H6  790   3.383   3.951   0.791
   80ACTN    C1  791   3.558   5.206   2.501
   80ACTN    O1  792   3.417   5.012   2.488
   80ACTN    C2  793   3.472   5.106   2.429
   80ACTN    C3  794   3.483   5.090   2.283
   80ACTN    H1  795   3.512   5.304   2.506
   80ACTN    H2  796   3.653   5.214   2.448
   80ACTN    H3  797   3.576   5.172   2.604
   80ACTN    H4  798   3.402   5.148   2.240
   80ACTN    H5  799   3.464   4.987   2.251
   80ACTN    H6  800   3.577   5.123   2.242
   81ACTN    C1  801   1.258   4.741   2.541
   81ACTN    O1  802   1.289   4.563   2.699
   81ACTN    C2  803   1.319   4.678   2.663
   81ACTN    C3  804   1.378   4.762   2.768
   81ACTN    H1  805   1.331   4.754   2.462
   81ACTN    H2  806   1.218   4.838   2.568
   81ACTN    H3  807   1.178   4.677   2.502
   81ACTN    H4  808   1.486   4.761   2.750
   81ACTN    H5  809   1.366   4.719   2.868
   81ACTN    H6  810   1.343   4.864   2.769
   82ACTN    C1  811   0.275   4.836   1.386
   82ACTN    O1  812   0.193   5.059   1.350
   82ACTN    C2  813   0.224   4.949   1.301
   82ACTN    C3  814   0.168   4.922   1.168
   82ACTN    H1  815   0.381   4.816   1.367
   82ACTN    H2  816   0.217   4.748   1.363
   82ACTN    H3  817   0.265   4.862   1.492
   82ACTN    H4  818   0.247   4.944   1.097
   82ACTN    H5  819   0.087   4.992   1.141
   82ACTN    H6  820   0.133   4.821   1.154
   83ACTN    C1  821   5.509   1.272   4.465
   83ACTN    O1  822   5.727   1.202   4.394
   83ACTN    C2  823   5.622   1.174   4.454
   83ACTN    C3  824   5.598   1.031   4.474
   83ACTN    H1  825   5.496   1.309   4.567
   83ACTN    H2  826   5.418   1.223   4.433
   83ACTN    H3  827   5.529   1.359   4.401
   83ACTN    H4  828   5.628   1.009   4.577
   83ACTN    H5  829   5.663   0.968   4.413
   83ACTN    H6  830   5.495   1.001   4.459
   84ACTN    C1  831   4.805   7.138   7.655
   84ACTN    O1  832   4.979   7.301   7.631
   84ACTN    C2  833   4.931   7.207   7.697
   84ACTN    C3  834   5.025   7.141   7.788
   84ACTN    H1  835   4.722   7.159   7.723
   84ACTN    H2  836   4.823   7.031   7.653
   84ACTN    H3  837   4.774   7.173   7.555
   84ACTN    H4  838   5.005   7.181   7.887
   84ACTN    H5  839   5.129   7.168   7.768
   84ACTN    H6  840   5.016   7.033   7.790
   85ACTN    C1  841   0.935   7.609   7.689
   85ACTN    O1  842   0.776   7.724   7.827
   85ACTN    C2  843   0.856   7.729   7.731
   85ACTN    C3  844   0.834   7.841   7.639
   85ACTN    H1  845   1.042   7.621   7.710
   85ACTN    H2  846   0.922   7.595   7.582
   85ACTN    H3  847   0.901   7.520   7.743
   85ACTN    H4  848   0.908   7.917   7.666
   85ACTN    H5  849   0.738   7.890   7.653
   85ACTN    H6  850   0.846   7.815   7.535
   86ACTN    C1  851   3.612   1.320   5.681
   86ACTN    O1  852   3.666   1.352   5.449
   86ACTN    C2  853   3.596   1.294   5.534
   86ACTN    C3  854   3.472   1.234   5.482
   86ACTN    H1  855   3.655   1.235   5.733
   86ACTN    H2  856   3.515   1.342   5.723
   86ACTN    H3  857   3.680   1.405   5.696
   86ACTN    H4  858   3.493   1.128   5.469
   86ACTN    H5  859   3.447   1.270   5.382
   86ACTN    H6  860   3.387   1.247   5.547
   87ACTN    C1  861   7.572   7.935   6.512
   87ACTN    O1  862   7.444   7.740   6.569
   87ACTN    C2  863   7.552   7.787   6.530
   87ACTN    C3  864   7.668   7.698   6.543
   87ACTN    H1  865   7.581   7.963   6.408
   87ACTN    H2  866   7.662   7.964   6.565
   87ACTN    H3  867   7.486   7.989   6.554
   87ACTN    H4  868   7.684   7.654   6.445
   87ACTN    H5  869   7.647   7.612   6.608
   87ACTN    H6  870   7.758   7.747   6.577
   88ACTN    C1  871   1.142   1.415   0.676
   88ACTN    O1  872   1.133   1.615   0.809
   88ACTN    C2  873   1.154   1.492   0.804
   88ACTN    C3  874   1.232   1.439   0.916
   88ACTN    H1  875   1.056   1.348   0.677
   88ACTN    H2  876   1.232   1.358   0.662
   88ACTN    H3  877   1.128   1.485   0.592
   88ACTN    H4  878   1.160   1.394   0.985
   88ACTN    H5  879   1.280   1.517   0.975
   88ACTN    H6  880   1.305   1.365   0.888
   89ACTN    C1  881   1.047   2.532   0.550
   89ACTN    O1  882   1.280   2.477   0.563
   89ACTN    C2  883   1.171   2.460   0.506
   89ACTN    C3  884   1.180   2.403   0.371
   89ACTN    H1  885   0.974   2.464   0.595
   89ACTN    H2  886   1.002   2.579   0.463
   89ACTN    H3  887   1.072   2.608   0.625
   89ACTN    H4  888   1.158   2.297   0.381
   89ACTN    H5  889   1.282   2.406   0.331
   89ACTN    H6  890   1.113   2.447   0.300
   90ACTN    C1  891   3.761   7.550   3.075
   90ACTN    O1  892   3.849   7.600   3.293
   90ACTN    C2  893   3.854   7.528   3.192
   90ACTN    C3  894   3.979   7.453   3.175
   90ACTN    H1  895   3.689   7.469   3.066
   90ACTN    H2  896   3.821   7.554   2.985
   90ACTN    H3  897   3.706   7.643   3.088
   90ACTN    H4  898   3.958   7.352   3.210
   90ACTN    H5  899   4.059   7.489   3.240
   90ACTN    H6  900   4.014   7.449   3.073
   91ACTN    C1  901   4.391   0.851   2.481
   91ACTN    O1  902   4.396   0.611   2.492
   91ACTN    C2  903   4.437   0.719   2.537
   91ACTN    C3  904   4.497   0.712   2.671
   91ACTN    H1  905   4.470   0.903   2.427
   91ACTN    H2  906   4.357   0.913   2.564
   91ACTN    H3  907   4.308   0.835   2.411
   91ACTN    H4  908   4.605   0.710   2.656
   91ACTN    H5  909   4.475   0.618   2.721
   91ACTN    H6  910   4.470   0.794   2.735
   92ACTN    C1  911   5.054   1.094   6.959
   92ACTN    O1  912   5.271   0.993   6.973
   92ACTN    C2  913   5.149   0.982   6.990
   92ACTN    C3  914   5.100   0.844   6.999
   92ACTN    H1  915   5.011   1.137   7.050
   92ACTN    H2  916   4.975   1.056   6.896
   92ACTN    H3  917   5.107   1.175   6.908
   92ACTN    H4  918   5.087   0.823   7.105
   92ACTN    H5  919   5.174   0.771   6.965
   92ACTN    H6  920   5.007   0.827   6.947
   93ACTN    C1  921   6.428   1.320   3.452
   93ACTN    O1  922   6.628   1.440   3.509
   93ACTN    C2  923   6.522   1.388   3.547
   93ACTN    C3  924   6.515   1.360   3.691
   93ACTN    H1  925   6.336   1.375   3.438
   93ACTN    H2  926   6.406   1.221   3.491
   93ACTN    H3  927   6.476   1.310   3.353
   93ACTN    H4  928   6.457   1.441   3.735
   93ACTN    H5  929   6.613   1.366   3.739
   93ACTN    H6  930   6.469   1.265   3.715
   94ACTN    C1  931   5.421   2.084   0.110
   94ACTN    O1  932   5.304   2.282   0.178
   94ACTN    C2  933   5.412   2.229   0.150
   94ACTN    C3  934   5.521   2.322   0.117
   94ACTN    H1  935   5.470   2.024   0.186
   94ACTN    H2  936   5.478   2.078   0.018
   94ACTN    H3  937   5.320   2.043   0.095
   94ACTN    H4  938   5.581   2.331   0.207
   94ACTN    H5  939   5.484   2.423   0.098
   94ACTN    H6  940   5.583   2.290   0.035
   95ACTN    C1  941   4.384   3.448   1.750
   95ACTN    O1  942   4.188   3.574   1.694
   95ACTN    C2  943   4.277   3.496   1.656
   95ACTN    C3  944   4.247   3.422   1.533
   95ACTN    H1  945   4.482   3.489   1.725
   95ACTN    H2  946   4.389   3.340   1.744
   95ACTN    H3  947   4.361   3.479   1.852
   95ACTN    H4  948   4.299   3.474   1.453
   95ACTN    H5  949   4.141   3.427   1.505
   95ACTN    H6  950   4.278   3.318   1.535
   96ACTN    C1  951   7.545   4.753   7.185
   96ACTN    O1  952   7.315   4.694   7.155
   96ACTN    C2  953   7.408   4.717   7.234
   96ACTN    C3  954   7.367   4.749   7.370
   96ACTN    H1  955   7.617   4.674   7.204
   96ACTN    H2  956   7.577   4.843   7.235
   96ACTN    H3  957   7.543   4.770   7.076
   96ACTN    H4  958   7.380   4.658   7.428
   96ACTN    H5  959   7.260   4.772   7.378
   96ACTN    H6  960   7.424   4.829   7.416
   97ACTN    C1  961   2.072   6.785   6.067
   97ACTN    O1  962   2.070   7.024   6.090
   97ACTN    C2  963   2.005   6.918   6.091
   97ACTN    C3  964   1.876   6.924   6.159
   97ACTN    H1  965   2.042   6.742   5.971
   97ACTN    H2  966   2.044   6.718   6.147
   97ACTN    H3  967   2.181   6.798   6.064
   97ACTN    H4  968   1.801   6.935   6.081
   97ACTN    H5  969   1.864   7.015   6.220
   97ACTN    H6  970   1.853   6.838   6.220
   98ACTN    C1  971   6.110   6.080   1.766
   98ACTN    O1  972   6.337   6.005   1.781
   98ACTN    C2  973   6.238   6.053   1.839
   98ACTN    C3  974   6.240   6.042   1.985
   98ACTN    H1  975   6.091   6.187   1.755
   98ACTN    H2  976   6.029   6.036   1.822
   98ACTN    H3  977   6.115   6.037   1.665
   98ACTN    H4  978   6.273   6.138   2.023
   98ACTN    H5  979   6.315   5.971   2.021
   98ACTN    H6  980   6.144   6.017   2.028
   99ACTN    C1  981   3.172   6.074   3.129
   99ACTN    O1  982   3.029   6.182   2.969
   99ACTN    C2  983   3.108   6.193   3.064
   99ACTN    C3  984   3.167   6.327   3.080
   99ACTN    H1  985   3.134   6.057   3.230
   99ACTN    H2  986   3.279   6.090   3.134
   99ACTN    H3  987   3.150   5.983   3.071
   99ACTN    H4  988   3.111   6.376   3.158
   99ACTN    H5  989   3.153   6.389   2.991
   99ACTN    H6  990   3.272   6.326   3.106
  100ACTN    C1  991   0.304   5.911   7.267
  100ACTN    O1  992   0.480   6.060   7.332
  100ACTN    C2  993   0.376   6.000   7.364
  100ACTN    C3  994   0.354   5.987   7.508
  100ACTN    H1  995   0.208   5.954   7.236
  100ACTN    H2  996   0.286   5.816   7.315
  100ACTN    H3  997   0.364   5.898   7.177
  100ACTN    H4  998   0.283   6.065   7.535
  100ACTN    H5  999   0.443   6.010   7.567
  100ACTN    H6 1000   0.315   5.891   7.538
  101ACTN    C1 1001   6.960   5.094   5.667
  101ACTN    O1 1002   7.175   5.144   5.573
  101ACTN    C2 1003   7.052   5.138   5.557
  101ACTN    C3 1004   7.001   5.215   5.443
  101ACTN    H1 1005   6.915   4.997   5.647
  101ACTN    H2 1006   6.881   5.168   5.677
  101ACTN    H3 1007   7.015   5.086   5.761
  101ACTN    H4 1008   6.986   5.143   5.362
  101ACTN    H5 1009   7.074   5.286   5.404
  101ACTN    H6 1010   6.908   5.267   5.463
  102ACTN    C1 1011   3.310   6.359   6.839
  102ACTN    O1 1012   3.452   6.431   7.019
  102ACTN    C2 1013   3.374   6.345   6.974
  102ACTN    C3 1014   3.383   6.214   7.040
  102ACTN    H1 1015   3.204   6.377   6.846
  102ACTN    H2 1016   3.327   6.267   6.784
  102ACTN    H3 1017   3.355   6.444   6.785
  102ACTN    H4 1018   3.300   6.210   7.110
  102ACTN    H5 1019   3.473   6.204   7.101
  102ACTN    H6 1020   3.376   6.130   6.971
  103ACTN    C1 1021   4.224   5.125   3.994
  103ACTN    O1 1022   4.448   5.196   3.942
  103ACTN    C2 1023   4.362   5.174   4.029
  103ACTN    C3 1024   4.415   5.157   4.165
  103ACTN    H1 1025   4.149   5.201   4.011
  103ACTN    H2 1026   4.203   5.038   4.054
  103ACTN    H3 1027   4.220   5.099   3.887
  103ACTN    H4 1028   4.400   5.252   4.215
  103ACTN    H5 1029   4.523   5.141   4.166
  103ACTN    H6 1030   4.367   5.078   4.221
  104ACTN    C1 1031   3.816   2.923   6.399
  104ACTN    O1 1032   3.977   2.800   6.528
  104ACTN    C2 1033   3.915   2.906   6.512
  104ACTN    C3 1034   3.910   2.994   6.629
  104ACTN    H1 1035   3.852   2.992   6.324
  104ACTN    H2 1036   3.723   2.960   6.441
  104ACTN    H3 1037   3.799   2.826   6.350
  104ACTN    H4 1038   3.986   3.071   6.612
  104ACTN    H5 1039   3.941   2.944   6.721
  104ACTN    H6 1040   3.814   3.042   6.644
  105ACTN    C1 1041   1.593   3.714   3.264
  105ACTN    O1 1042   1.807   3.619   3.211
  105ACTN    C2 1043   1.683   3.615   3.195
  105ACTN    C3 1044   1.638   3.542   3.077
  105ACTN    H1 1045   1.532   3.667   3.340
  105ACTN    H2 1046   1.527   3.758   3.189
  105ACTN    H3 1047   1.652   3.792   3.312
  105ACTN    H4 1048   1.607   3.444   3.112
  105ACTN    H5 1049   1.719   3.521   3.007
  105ACTN    H6 1050   1.556   3.589   3.024
  106ACTN    C1 1051   3.243   4.977   0.921
  106ACTN    O1 1052   3.249   4.915   1.153
  106ACTN    C2 1053   3.184   4.964   1.058
  106ACTN    C3 1054   3.039   4.966   1.077
  106ACTN    H1 1055   3.262   5.081   0.894
  106ACTN    H2 1056   3.174   4.933   0.849
  106ACTN    H3 1057   3.340   4.924   0.916
  106ACTN    H4 1058   3.014   5.068   1.108
  106ACTN    H5 1059   3.006   4.904   1.160
  106ACTN    H6 1060   2.982   4.941   0.989
  107ACTN    C1 1061   3.666   4.642   2.298
  107ACTN    O1 1062   3.615   4.452   2.160
  107ACTN    C2 1063   3.585   4.522   2.258
  107ACTN    C3 1064   3.447   4.507   2.305
  107ACTN    H1 1065   3.720   4.625   2.391
  107ACTN    H2 1066   3.599   4.726   2.310
  107ACTN    H3 1067   3.740   4.664   2.220
  107ACTN    H4 1068   3.451   4.440   2.390
  107ACTN    H5 1069   3.383   4.456   2.232
  107ACTN    H6 1070   3.399   4.600   2.334
  108ACTN    C1 1071   3.239   3.781   1.955
  108ACTN    O1 1072   3.260   4.016   2.001
  108ACTN    C2 1073   3.256   3.925   1.916
  108ACTN    C3 1074   3.225   3.970   1.780
  108ACTN    H1 1075   3.329   3.723   1.937
  108ACTN    H2 1076   3.158   3.739   1.897
  108ACTN    H3 1077   3.216   3.774   2.062
  108ACTN    H4 1078   3.321   3.975   1.727
  108ACTN    H5 1079   3.187   4.072   1.776
  108ACTN    H6 1080   3.158   3.904   1.726
  109ACTN    C1 1081   5.534   3.415   2.493
  109ACTN    O1 1082   5.567   3.651   2.517
  109ACTN    C2 1083   5.572   3.551   2.443
  109ACTN    C3 1084   5.575   3.580   2.300
  109ACTN    H1 1085   5.621   3.349   2.501
  109ACTN    H2 1086   5.464   3.371   2.423
  109ACTN    H3 1087   5.489   3.422   2.592
  109ACTN    H4 1088   5.679   3.572   2.269
  109ACTN    H5 1089   5.547   3.684   2.277
  109ACTN    H6 1090   5.515   3.513   2.240
  110ACTN    C1 1091   4.952   1.996   0.302
  110ACTN    O1 1092   5.088   2.193   0.319
  110ACTN    C2 1093   5.016   2.109   0.377
  110ACTN    C3 1094   5.034   2.103   0.522
  110ACTN    H1 1095   4.844   2.007   0.296
  110ACTN    H2 1096   4.976   1.903   0.354
  110ACTN    H3 1097   4.991   1.992   0.200
  110ACTN    H4 1098   4.951   2.159   0.566
  110ACTN    H5 1099   5.124   2.154   0.556
  110ACTN    H6 1100   5.033   2.002   0.562
  111ACTN    C1 1101   0.554   3.401   0.652
  111ACTN    O1 1102   0.324   3.450   0.605
  111ACTN    C2 1103   0.435   3.416   0.562
  111ACTN    C3 1104   0.433   3.351   0.430
  111ACTN    H1 1105   0.629   3.478   0.635
  111ACTN    H2 1106   0.599   3.304   0.634
  111ACTN    H3 1107   0.523   3.409   0.757
  111ACTN    H4 1108   0.461   3.428   0.358
  111ACTN    H5 1109   0.332   3.320   0.400
  111ACTN    H6 1110   0.500   3.267   0.421
  112ACTN    C1 1111   4.163   0.783   2.900
  112ACTN    O1 1112   3.977   0.634   2.869
  112ACTN    C2 1113   4.023   0.734   2.927
  112ACTN    C3 1114   3.923   0.823   2.986
  112ACTN    H1 1115   4.228   0.767   2.986
  112ACTN    H2 1116   4.159   0.889   2.878
  112ACTN    H3 1117   4.206   0.728   2.815
  112ACTN    H4 1118   3.920   0.799   3.092
  112ACTN    H5 1119   3.822   0.803   2.950
  112ACTN    H6 1120   3.945   0.928   2.973
  113ACTN    C1 1121   4.372   2.045   5.547
  113ACTN    O1 1122   4.497   1.873   5.437
  113ACTN    C2 1123   4.456   1.921   5.544
  113ACTN    C3 1124   4.458   1.829   5.658
  113ACTN    H1 1125   4.425   2.130   5.590
  113ACTN    H2 1126   4.283   2.025   5.607
  113ACTN    H3 1127   4.342   2.073   5.445
  113ACTN    H4 1128   4.547   1.853   5.715
  113ACTN    H5 1129   4.471   1.724   5.627
  113ACTN    H6 1130   4.371   1.836   5.721
  114ACTN    C1 1131   5.136   2.322   4.680
  114ACTN    O1 1132   5.229   2.502   4.551
  114ACTN    C2 1133   5.171   2.392   4.552
  114ACTN    C3 1134   5.103   2.357   4.427
  114ACTN    H1 1135   5.195   2.233   4.696
  114ACTN    H2 1136   5.031   2.295   4.677
  114ACTN    H3 1137   5.154   2.389   4.765
  114ACTN    H4 1138   5.169   2.289   4.374
  114ACTN    H5 1139   5.091   2.443   4.360
  114ACTN    H6 1140   5.006   2.310   4.441
  115ACTN    C1 1141   7.373   0.843   7.249
  115ACTN    O1 1142   7.487   0.767   7.053
  115ACTN    C2 1143   7.422   0.738   7.154
  115ACTN    C3 1144   7.361   0.604   7.152
  115ACTN    H1 1145   7.425   0.839   7.345
  115ACTN    H2 1146   7.267   0.827   7.266
  115ACTN    H3 1147   7.389   0.943   7.207
  115ACTN    H4 1148   7.426   0.540   7.211
  115ACTN    H5 1149   7.361   0.560   7.052
  115ACTN    H6 1150   7.261   0.602   7.192
  116ACTN    C1 1151   6.598   0.637   5.048
  116ACTN    O1 1152   6.665   0.565   5.267
  116ACTN    C2 1153   6.572   0.594   5.190
  116ACTN    C3 1154   6.441   0.542   5.229
  116ACTN    H1 1155   6.574   0.742   5.033
  116ACTN    H2 1156   6.536   0.577   4.982
  116ACTN    H3 1157   6.704   0.624   5.023
  116ACTN    H4 1158   6.388   0.626   5.276
  116ACTN    H5 1159   6.447   0.466   5.307
  116ACTN    H6 1160   6.382   0.504   5.147
  117ACTN    C1 1161   2.586   3.934   1.783
  117ACTN    O1 1162   2.364   3.864   1.842
  117ACTN    C2 1163   2.453   3.950   1.851
  117ACTN    C3 1164   2.406   4.083   1.892
  117ACTN    H1 1165   2.667   3.919   1.855
  117ACTN    H2 1166   2.607   4.024   1.726
  117ACTN    H3 1167   2.584   3.847   1.717
  117ACTN    H4 1168   2.428   4.091   1.998
  117ACTN    H5 1169   2.297   4.093   1.885
  117ACTN    H6 1170   2.452   4.165   1.839
  118ACTN    C1 1171   3.758   0.247   7.529
  118ACTN    O1 1172   3.653   0.295   7.318
  118ACTN    C2 1173   3.679   0.211   7.406
  118ACTN    C3 1174   3.596   0.091   7.403
  118ACTN    H1 1175   3.857   0.202   7.529
  118ACTN    H2 1176   3.702   0.212   7.616
  118ACTN    H3 1177   3.771   0.356   7.534
  118ACTN    H4 1178   3.654   0.014   7.353
  118ACTN    H5 1179   3.507   0.103   7.341
  118ACTN    H6 1180   3.566   0.056   7.501
  119ACTN    C1 1181   7.798   3.033   3.450
  119ACTN    O1 1182   7.947   2.860   3.378
  119ACTN    C2 1183   7.833   2.910   3.372
  119ACTN    C3 1184   7.754   2.870   3.256
  119ACTN    H1 1185   7.727   3.012   3.531
  119ACTN    H2 1186   7.753   3.105   3.382
  119ACTN    H3 1187   7.888   3.076   3.496
  119ACTN    H4 1188   7.686   2.793   3.291
  119ACTN    H5 1189   7.814   2.821   3.179
  119ACTN    H6 1190   7.697   2.951   3.211
  120ACTN    C1 1191   1.802   2.586   5.805
  120ACTN    O1 1192   1.688   2.789   5.746
  120ACTN    C2 1193   1.752   2.690   5.708
  120ACTN    C3 1194   1.738   2.657   5.566
  120ACTN    H1 1195   1.910   2.588   5.815
  120ACTN    H2 1196   1.771   2.489   5.770
  120ACTN    H3 1197   1.760   2.605   5.905
  120ACTN    H4 1198   1.828   2.697   5.517
  120ACTN    H5 1199   1.655   2.710   5.519
  120ACTN    H6 1200   1.730   2.552   5.545
  121ACTN    C1 1201   1.506   5.228   4.184
  121ACTN    O1 1202   1.382   5.032   4.125
  121ACTN    C2 1203   1.459   5.123   4.089
  121ACTN    C3 1204   1.532   5.096   3.964
  121ACTN    H1 1205   1.463   5.326   4.161
  121ACTN    H2 1206   1.615   5.235   4.177
  121ACTN    H3 1207   1.477   5.203   4.286
  121ACTN    H4 1208   1.478   5.149   3.886
  121ACTN    H5 1209   1.527   4.991   3.935
  121ACTN    H6 1210   1.635   5.128   3.966
  122ACTN    C1 1211   1.327   4.746   4.632
  122ACTN    O1 1212   1.218   4.959   4.620
  122ACTN    C2 1213   1.292   4.882   4.684
  122ACTN    C3 1214   1.374   4.946   4.787
  122ACTN    H1 1215   1.280   4.666   4.690
  122ACTN    H2 1216   1.434   4.734   4.636
  122ACTN    H3 1217   1.292   4.735   4.528
  122ACTN    H4 1218   1.323   4.929   4.882
  122ACTN    H5 1219   1.377   5.055   4.777
  122ACTN    H6 1220   1.475   4.908   4.793
  123ACTN    C1 1221   0.142   5.773   0.595
  123ACTN    O1 1222   0.238   5.992   0.570
  123ACTN    C2 1223   0.204   5.885   0.516
  123ACTN    C3 1224   0.189   5.891   0.371
  123ACTN    H1 1225   0.208   5.687   0.604
  123ACTN    H2 1226   0.051   5.742   0.544
  123ACTN    H3 1227   0.118   5.807   0.696
  123ACTN    H4 1228   0.281   5.849   0.329
  123ACTN    H5 1229   0.185   5.994   0.333
  123ACTN    H6 1230   0.104   5.836   0.333
  124ACTN    C1 1231   1.651   6.225   1.042
  124ACTN    O1 1232   1.748   6.435   1.107
  124ACTN    C2 1233   1.685   6.334   1.141
  124ACTN    C3 1234   1.684   6.306   1.285
  124ACTN    H1 1235   1.545   6.221   1.021
  124ACTN    H2 1236   1.683   6.130   1.084
  124ACTN    H3 1237   1.703   6.244   0.947
  124ACTN    H4 1238   1.589   6.342   1.322
  124ACTN    H5 1239   1.759   6.365   1.339
  124ACTN    H6 1240   1.696   6.202   1.310
  125ACTN    C1 1241   6.288   0.612   3.436
  125ACTN    O1 1242   6.514   0.654   3.506
  125ACTN    C2 1243   6.393   0.661   3.533
  125ACTN    C3 1244   6.362   0.675   3.675
  125ACTN    H1 1245   6.230   0.695   3.395
  125ACTN    H2 1246   6.222   0.545   3.489
  125ACTN    H3 1247   6.336   0.560   3.353
  125ACTN    H4 1248   6.341   0.781   3.691
  125ACTN    H5 1249   6.448   0.655   3.739
  125ACTN    H6 1250   6.278   0.616   3.709
  126ACTN    C1 1251   1.718   4.385   3.620
  126ACTN    O1 1252   1.850   4.585   3.635
  126ACTN    C2 1253   1.833   4.474   3.582
  126ACTN    C3 1254   1.903   4.455   3.454
  126ACTN    H1 1255   1.751   4.296   3.674
  126ACTN    H2 1256   1.667   4.354   3.529
  126ACTN    H3 1257   1.649   4.439   3.685
  126ACTN    H4 1258   1.993   4.398   3.477
  126ACTN    H5 1259   1.940   4.549   3.412
  126ACTN    H6 1260   1.845   4.403   3.380
  127ACTN    C1 1261   4.209   5.699   7.313
  127ACTN    O1 1262   4.209   5.460   7.301
  127ACTN    C2 1263   4.214   5.568   7.240
  127ACTN    C3 1264   4.268   5.560   7.104
  127ACTN    H1 1265   4.116   5.752   7.294
  127ACTN    H2 1266   4.292   5.760   7.279
  127ACTN    H3 1267   4.216   5.683   7.421
  127ACTN    H4 1268   4.182   5.560   7.037
  127ACTN    H5 1269   4.319   5.465   7.084
  127ACTN    H6 1270   4.334   5.641   7.078
  128ACTN    C1 1271   3.154   2.919   1.906
  128ACTN    O1 1272   3.153   2.756   1.730
  128ACTN    C2 1273   3.109   2.792   1.841
  128ACTN    C3 1274   2.982   2.729   1.880
  128ACTN    H1 1275   3.214   2.900   1.995
  128ACTN    H2 1276   3.066   2.977   1.934
  128ACTN    H3 1277   3.216   2.977   1.837
  128ACTN    H4 1278   3.008   2.650   1.949
  128ACTN    H5 1279   2.933   2.678   1.796
  128ACTN    H6 1280   2.912   2.797   1.926
  129ACTN    C1 1281   2.732   0.852   4.577
  129ACTN    O1 1282   2.950   0.752   4.587
  129ACTN    C2 1283   2.867   0.829   4.638
  129ACTN    C3 1284   2.893   0.862   4.778
  129ACTN    H1 1285   2.722   0.951   4.535
  129ACTN    H2 1286   2.657   0.838   4.655
  129ACTN    H3 1287   2.715   0.780   4.496
  129ACTN    H4 1288   2.941   0.960   4.779
  129ACTN    H5 1289   2.965   0.796   4.825
  129ACTN    H6 1290   2.803   0.866   4.839
  130ACTN    C1 1291   0.697   6.127   1.017
  130ACTN    O1 1292   0.860   6.076   0.849
  130ACTN    C2 1293   0.740   6.090   0.878
  130ACTN    C3 1294   0.651   6.111   0.764
  130ACTN    H1 1295   0.646   6.044   1.067
  130ACTN    H2 1296   0.629   6.211   1.010
  130ACTN    H3 1297   0.784   6.153   1.078
  130ACTN    H4 1298   0.604   6.014   0.743
  130ACTN    H5 1299   0.705   6.136   0.672
  130ACTN    H6 1300   0.574   6.185   0.781
  131ACTN    C1 1301   6.687   5.103   1.424
  131ACTN    O1 1302   6.914   5.086   1.348
  131ACTN    C2 1303   6.834   5.079   1.443
  131ACTN    C3 1304   6.883   5.007   1.561
  131ACTN    H1 1305   6.654   5.196   1.470
  131ACTN    H2 1306   6.633   5.020   1.468
  131ACTN    H3 1307   6.664   5.110   1.317
  131ACTN    H4 1308   6.916   5.083   1.632
  131ACTN    H5 1309   6.973   4.948   1.540
  131ACTN    H6 1310   6.809   4.943   1.607
  132ACTN    C1 1311   7.365   3.929   6.432
  132ACTN    O1 1312   7.478   3.752   6.317
  132ACTN    C2 1313   7.373   3.815   6.335
  132ACTN    C3 1314   7.274   3.801   6.228
  132ACTN    H1 1315   7.305   3.905   6.519
  132ACTN    H2 1316   7.322   4.015   6.381
  132ACTN    H3 1317   7.466   3.955   6.468
  132ACTN    H4 1318   7.201   3.728   6.263
  132ACTN    H5 1319   7.315   3.757   6.137
  132ACTN    H6 1320   7.223   3.893   6.203
  133ACTN    C1 1321   2.214   4.426   5.793
  133ACTN    O1 1322   2.300   4.209   5.739
  133ACTN    C2 1323   2.285   4.298   5.825
  133ACTN    C3 1324   2.300   4.254   5.964
  133ACTN    H1 1325   2.282   4.511   5.792
  133ACTN    H2 1326   2.138   4.443   5.869
  133ACTN    H3 1327   2.168   4.420   5.694
  133ACTN    H4 1328   2.401   4.282   5.994
  133ACTN    H5 1329   2.299   4.145   5.974
  133ACTN    H6 1330   2.228   4.296   6.032
  134ACTN    C1 1331   3.982   6.309   3.736
  134ACTN    O1 1332   3.888   6.530   3.725
  134ACTN    C2 1333   3.915   6.430   3.794
  134ACTN    C3 1334   3.918   6.455   3.939
  134ACTN    H1 1335   3.915   6.223   3.732
  134ACTN    H2 1336   4.068   6.284   3.798
  134ACTN    H3 1337   4.015   6.330   3.633
  134ACTN    H4 1338   3.823   6.419   3.978
  134ACTN    H5 1339   3.920   6.561   3.963
  134ACTN    H6 1340   3.999   6.405   3.990
  135ACTN    C1 1341   4.648   1.118   3.038
  135ACTN    O1 1342   4.533   1.328   3.061
  135ACTN    C2 1343   4.622   1.251   3.103
  135ACTN    C3 1344   4.725   1.315   3.185
  135ACTN    H1 1345   4.619   1.035   3.103
  135ACTN    H2 1346   4.754   1.111   3.016
  135ACTN    H3 1347   4.589   1.109   2.946
  135ACTN    H4 1348   4.699   1.293   3.289
  135ACTN    H5 1349   4.723   1.424   3.179
  135ACTN    H6 1350   4.825   1.280   3.165
  136ACTN    C1 1351   6.341   4.935   0.628
  136ACTN    O1 1352   6.155   5.080   0.673
  136ACTN    C2 1353   6.202   4.988   0.604
  136ACTN    C3 1354   6.104   4.909   0.529
  136ACTN    H1 1355   6.409   4.962   0.548
  136ACTN    H2 1356   6.335   4.827   0.636
  136ACTN    H3 1357   6.381   4.977   0.721
  136ACTN    H4 1358   6.105   4.947   0.427
  136ACTN    H5 1359   6.002   4.925   0.564
  136ACTN    H6 1360   6.125   4.803   0.528
  137ACTN    C1 1361   4.087   5.073   6.115
  137ACTN    O1 1362   3.976   5.174   6.302
  137ACTN    C2 1363   4.003   5.070   6.239
  137ACTN    C3 1364   3.985   4.945   6.314
  137ACTN    H1 1365   4.029   5.051   6.026
  137ACTN    H2 1366   4.166   5.000   6.125
  137ACTN    H3 1367   4.130   5.173   6.101
  137ACTN    H4 1368   3.889   4.904   6.284
  137ACTN    H5 1369   3.975   4.962   6.422
  137ACTN    H6 1370   4.063   4.872   6.297
  138ACTN    C1 1371   3.496   2.661   0.181
  138ACTN    O1 1372   3.635   2.466   0.166
  138ACTN    C2 1373   3.559   2.536   0.235
  138ACTN    C3 1374   3.502   2.469   0.353
  138ACTN    H1 1375   3.537   2.751   0.227
  138ACTN    H2 1376   3.389   2.657   0.200
  138ACTN    H3 1377   3.515   2.669   0.073
  138ACTN    H4 1378   3.561   2.501   0.438
  138ACTN    H5 1379   3.514   2.361   0.349
  138ACTN    H6 1380   3.398   2.493   0.370
  139ACTN    C1 1381   4.001   2.932   5.288
  139ACTN    O1 1382   4.087   2.730   5.191
  139ACTN    C2 1383   4.111   2.837   5.250
  139ACTN    C3 1384   4.242   2.844   5.315
  139ACTN    H1 1385   4.004   3.023   5.229
  139ACTN    H2 1386   4.013   2.957   5.393
  139ACTN    H3 1387   3.903   2.884   5.271
  139ACTN    H4 1388   4.307   2.900   5.248
  139ACTN    H5 1389   4.290   2.746   5.325
  139ACTN    H6 1390   4.240   2.892   5.412
  140ACTN    C1 1391   1.767   4.785   3.400
  140ACTN    O1 1392   1.671   4.824   3.184
  140ACTN    C2 1393   1.667   4.846   3.306
  140ACTN    C3 1394   1.590   4.964   3.346
  140ACTN    H1 1395   1.723   4.709   3.464
  140ACTN    H2 1396   1.809   4.864   3.462
  140ACTN    H3 1397   1.848   4.736   3.343
  140ACTN    H4 1398   1.493   4.926   3.379
  140ACTN    H5 1399   1.567   5.029   3.262
  140ACTN    H6 1400   1.635   5.022   3.425
  141ACTN    C1 1401   7.417   2.291   1.578
  141ACTN    O1 1402   7.506   2.402   1.771
  141ACTN    C2 1403   7.435   2.311   1.726
  141ACTN    C3 1404   7.408   2.201   1.819
  141ACTN    H1 1405   7.316   2.315   1.546
  141ACTN    H2 1406   7.439   2.187   1.555
  141ACTN    H3 1407   7.486   2.356   1.523
  141ACTN    H4 1408   7.308   2.219   1.859
  141ACTN    H5 1409   7.473   2.204   1.907
  141ACTN    H6 1410   7.412   2.103   1.775
  142ACTN    C1 1411   6.040   3.664   0.592
  142ACTN    O1 1412   6.240   3.793   0.555
  142ACTN    C2 1413   6.147   3.762   0.632
  142ACTN    C3 1414   6.171   3.792   0.773
  142ACTN    H1 1415   5.944   3.712   0.577
  142ACTN    H2 1416   6.032   3.589   0.670
  142ACTN    H3 1417   6.068   3.616   0.497
  142ACTN    H4 1418   6.118   3.886   0.794
  142ACTN    H5 1419   6.276   3.815   0.794
  142ACTN    H6 1420   6.136   3.716   0.841
  143ACTN    C1 1421   0.649   2.764   2.606
  143ACTN    O1 1422   0.634   2.891   2.403
  143ACTN    C2 1423   0.650   2.891   2.527
  143ACTN    C3 1424   0.711   3.013   2.581
  143ACTN    H1 1425   0.560   2.756   2.669
  143ACTN    H2 1426   0.737   2.762   2.669
  143ACTN    H3 1427   0.649   2.678   2.539
  143ACTN    H4 1428   0.628   3.073   2.620
  143ACTN    H5 1429   0.756   3.076   2.504
  143ACTN    H6 1430   0.783   2.995   2.659
  144ACTN    C1 1431   0.580   0.489   3.485
  144ACTN    O1 1432   0.499   0.696   3.393
  144ACTN    C2 1433   0.592   0.614   3.401
  144ACTN    C3 1434   0.691   0.622   3.294
  144ACTN    H1 1435   0.644   0.493   3.572
  144ACTN    H2 1436   0.607   0.404   3.423
  144ACTN    H3 1437   0.477   0.478   3.520
  144ACTN    H4 1438   0.776   0.677   3.335
  144ACTN    H5 1439   0.657   0.683   3.209
  144ACTN    H6 1440   0.725   0.526   3.257
  145ACTN    C1 1441   6.516   7.600   3.165
  145ACTN    O1 1442   6.294   7.607   3.257
  145ACTN    C2 1443   6.412   7.572   3.271
  145ACTN    C3 1444   6.453   7.544   3.409
  145ACTN    H1 1445   6.549   7.509   3.116
  145ACTN    H2 1446   6.601   7.648   3.212
  145ACTN    H3 1447   6.473   7.666   3.088
  145ACTN    H4 1448   6.450   7.436   3.420
  145ACTN    H5 1449   6.380   7.581   3.482
  145ACTN    H6 1450   6.551   7.581   3.435
  146ACTN    C1 1451   5.481   1.863   6.227
  146ACTN    O1 1452   5.485   1.744   6.019
  146ACTN    C2 1453   5.429   1.763   6.128
  146ACTN    C3 1454   5.290   1.716   6.136
  146ACTN    H1 1455   5.523   1.815   6.316
  146ACTN    H2 1456   5.399   1.928   6.258
  146ACTN    H3 1457   5.561   1.923   6.182
  146ACTN    H4 1458   5.293   1.620   6.187
  146ACTN    H5 1459   5.248   1.694   6.037
  146ACTN    H6 1460   5.224   1.783   6.189
  147ACTN    C1 1461   7.333   1.623   2.877
  147ACTN    O1 1462   7.288   1.636   2.641
  147ACTN    C2 1463   7.281   1.691   2.753
  147ACTN    C3 1464   7.262   1.836   2.749
  147ACTN    H1 1465   7.252   1.594   2.944
  147ACTN    H2 1466   7.399   1.692   2.928
  147ACTN    H3 1467   7.388   1.532   2.850
  147ACTN    H4 1468   7.156   1.853   2.767
  147ACTN    H5 1469   7.280   1.878   2.650
  147ACTN    H6 1470   7.320   1.890   2.823
  148ACTN    C1 1471   3.867   0.929   6.326
  148ACTN    O1 1472   3.952   0.724   6.418
  148ACTN    C2 1473   3.974   0.843   6.386
  148ACTN    C3 1474   4.093   0.903   6.448
  148ACTN    H1 1475   3.886   0.952   6.221
  148ACTN    H2 1476   3.863   1.022   6.382
  148ACTN    H3 1477   3.770   0.878   6.332
  148ACTN    H4 1478   4.172   0.898   6.373
  148ACTN    H5 1479   4.131   0.843   6.532
  148ACTN    H6 1480   4.079   1.005   6.480
  149ACTN    C1 1481   7.049   4.297   3.540
  149ACTN    O1 1482   6.934   4.504   3.583
  149ACTN    C2 1483   6.971   4.393   3.625
  149ACTN    C3 1484   6.971   4.379   3.771
  149ACTN    H1 1485   6.990   4.210   3.512
  149ACTN    H2 1486   7.136   4.266   3.595
  149ACTN    H3 1487   7.079   4.347   3.447
  149ACTN    H4 1488   6.880   4.327   3.797
  149ACTN    H5 1489   6.963   4.476   3.822
  149ACTN    H6 1490   7.057   4.325   3.810
  150ACTN    C1 1491   3.275   7.138   2.190
  150ACTN    O1 1492   3.411   6.940   2.192
  150ACTN    C2 1493   3.357   7.031   2.125
  150ACTN    C3 1494   3.412   7.050   1.990
  150ACTN    H1 1495   3.169   7.129   2.167
  150ACTN    H2 1496   3.311   7.235   2.155
  150ACTN    H3 1497   3.286   7.132   2.299
  150ACTN    H4 1498   3.344   6.999   1.922
  150ACTN    H5 1499   3.508   6.999   1.977
  150ACTN    H6 1500   3.422   7.154   1.961
  151ACTN    C1 1501   3.390   2.963   0.141
  151ACTN    O1 1502   3.262   3.141   0.044
  151ACTN    C2 1503   3.263   3.036   0.110
  151ACTN    C3 1504   3.143   3.012   0.191
  151ACTN    H1 1505   3.397   2.868   0.087
  151ACTN    H2 1506   3.394   2.944   0.247
  151ACTN    H3 1507   3.476   3.024   0.111
  151ACTN    H4 1508   3.081   2.942   0.134
  151ACTN    H5 1509   3.080   3.102   0.201
  151ACTN    H6 1510   3.162   2.972   0.289
  152ACTN    C1 1511   4.721   5.774   6.685
  152ACTN    O1 1512   4.853   5.646   6.839
  152ACTN    C2 1513   4.842   5.696   6.725
  152ACTN    C3 1514   4.968   5.710   6.651
  152ACTN    H1 1515   4.661   5.721   6.612
  152ACTN    H2 1516   4.753   5.869   6.643
  152ACTN    H3 1517   4.657   5.792   6.773
  152ACTN    H4 1518   4.973   5.626   6.582
  152ACTN    H5 1519   5.056   5.698   6.715
  152ACTN    H6 1520   4.976   5.803   6.596
  153ACTN    C1 1521   7.306   2.061   5.330
  153ACTN    O1 1522   7.175   2.003   5.523
  153ACTN    C2 1523   7.288   2.023   5.475
  153ACTN    C3 1524   7.394   2.050   5.572
  153ACTN    H1 1525   7.352   1.981   5.273
  153ACTN    H2 1526   7.368   2.149   5.326
  153ACTN    H3 1527   7.208   2.082   5.285
  153ACTN    H4 1528   7.448   1.956   5.585
  153ACTN    H5 1529   7.355   2.073   5.672
  153ACTN    H6 1530   7.463   2.128   5.542
  154ACTN    C1 1531   7.332   4.797   6.221
  154ACTN    O1 1532   7.168   4.927   6.103
  154ACTN    C2 1533   7.241   4.827   6.105
  154ACTN    C3 1534   7.201   4.720   6.012
  154ACTN    H1 1535   7.437   4.808   6.194
  154ACTN    H2 1536   7.314   4.695   6.253
  154ACTN    H3 1537   7.311   4.866   6.303
  154ACTN    H4 1538   7.266   4.730   5.925
  154ACTN    H5 1539   7.100   4.734   5.973
  154ACTN    H6 1540   7.210   4.620   6.053
  155ACTN    C1 1541   7.270   6.132   6.055
  155ACTN    O1 1542   7.032   6.144   6.030
  155ACTN    C2 1543   7.129   6.133   6.106
  155ACTN    C3 1544   7.101   6.165   6.247
  155ACTN    H1 1545   7.317   6.034   6.066
  155ACTN    H2 1546   7.328   6.205   6.111
  155ACTN    H3 1547   7.272   6.157   5.948
  155ACTN    H4 1548   7.088   6.069   6.297
  155ACTN    H5 1549   7.006   6.216   6.260
  155ACTN    H6 1550   7.180   6.221   6.295
  156ACTN    C1 1551   7.185   7.153   3.185
  156ACTN    O1 1552   7.024   7.263   3.045
  156ACTN    C2 1553   7.089   7.263   3.151
  156ACTN    C3 1554   7.098   7.393   3.218
  156ACTN    H1 1555   7.149   7.091   3.267
  156ACTN    H2 1556   7.280   7.197   3.213
  156ACTN    H3 1557   7.199   7.087   3.098
  156ACTN    H4 1558   7.023   7.392   3.297
  156ACTN    H5 1559   7.069   7.476   3.153
  156ACTN    H6 1560   7.195   7.414   3.260
  157ACTN    C1 1561   6.524   0.555   6.833
  157ACTN    O1 1562   6.379   0.639   7.004
  157ACTN    C2 1563   6.444   0.543   6.959
  157ACTN    C3 1564   6.472   0.436   7.056
  157ACTN    H1 1565   6.481   0.497   6.751
  157ACTN    H2 1566   6.625   0.519   6.853
  157ACTN    H3 1567   6.528   0.660   6.800
  157ACTN    H4 1568   6.399   0.358   7.036
  157ACTN    H5 1569   6.453   0.467   7.159
  157ACTN    H6 1570   6.571   0.396   7.048
  158ACTN    C1 1571   5.987   3.432   1.378
  158ACTN    O1 1572   6.062   3.571   1.197
  158ACTN    C2 1573   6.003   3.563   1.306
  158ACTN    C3 1574   5.990   3.689   1.379
  158ACTN    H1 1575   5.884   3.398   1.378
  158ACTN    H2 1576   6.022   3.444   1.480
  158ACTN    H3 1577   6.047   3.354   1.327
  158ACTN    H4 1578   5.888   3.725   1.360
  158ACTN    H5 1579   6.054   3.768   1.339
  158ACTN    H6 1580   6.006   3.681   1.485
  159ACTN    C1 1581   2.825   3.025   5.991
  159ACTN    O1 1582   2.750   2.871   6.159
  159ACTN    C2 1583   2.789   2.888   6.042
  159ACTN    C3 1584   2.838   2.768   5.974
  159ACTN    H1 1585   2.754   3.061   5.917
  159ACTN    H2 1586   2.923   3.019   5.945
  159ACTN    H3 1587   2.827   3.097   6.074
  159ACTN    H4 1588   2.756   2.734   5.911
  159ACTN    H5 1589   2.855   2.685   6.043
  159ACTN    H6 1590   2.926   2.784   5.914
  160ACTN    C1 1591   0.363   3.078   1.816
  160ACTN    O1 1592   0.309   3.309   1.776
  160ACTN    C2 1593   0.360   3.204   1.733
  160ACTN    C3 1594   0.378   3.197   1.588
  160ACTN    H1 1595   0.463   3.053   1.849
  160ACTN    H2 1596   0.324   2.997   1.756
  160ACTN    H3 1597   0.301   3.091   1.906
  160ACTN    H4 1598   0.482   3.222   1.569
  160ACTN    H5 1599   0.321   3.275   1.536
  160ACTN    H6 1600   0.355   3.101   1.545
  161ACTN    C1 1601   5.484   7.202   4.789
  161ACTN    O1 1602   5.300   7.051   4.757
  161ACTN    C2 1603   5.377   7.136   4.707
  161ACTN    C3 1604   5.385   7.134   4.561
  161ACTN    H1 1605   5.463   7.307   4.806
  161ACTN    H2 1606   5.578   7.192   4.736
  161ACTN    H3 1607   5.492   7.153   4.887
  161ACTN    H4 1608   5.321   7.215   4.526
  161ACTN    H5 1609   5.341   7.044   4.517
  161ACTN    H6 1610   5.485   7.148   4.522
  162ACTN    C1 1611   7.857   5.181   0.558
  162ACTN    O1 1612   7.624   5.163   0.617
  162ACTN    C2 1613   7.743   5.151   0.652
  162ACTN    C3 1614   7.765   5.151   0.797
  162ACTN    H1 1615   7.911   5.091   0.530
  162ACTN    H2 1616   7.925   5.250   0.608
  162ACTN    H3 1617   7.818   5.227   0.466
  162ACTN    H4 1618   7.777   5.046   0.826
  162ACTN    H5 1619   7.677   5.184   0.853
  162ACTN    H6 1620   7.851   5.208   0.829
  163ACTN    C1 1621   3.054   1.570   2.623
  163ACTN    O1 1622   3.076   1.770   2.493
  163ACTN    C2 1623   3.097   1.648   2.502
  163ACTN    C3 1624   3.124   1.580   2.375
  163ACTN    H1 1625   3.139   1.537   2.682
  163ACTN    H2 1626   2.998   1.484   2.590
  163ACTN    H3 1627   2.992   1.633   2.688
  163ACTN    H4 1628   3.232   1.568   2.370
  163ACTN    H5 1629   3.099   1.641   2.288
  163ACTN    H6 1630   3.077   1.483   2.366
  164ACTN    C1 1631   5.312   2.949   2.627
  164ACTN    O1 1632   5.180   3.009   2.819
  164ACTN    C2 1633   5.204   3.026   2.698
  164ACTN    C3 1634   5.096   3.090   2.622
  164ACTN    H1 1635   5.395   3.013   2.599
  164ACTN    H2 1636   5.269   2.905   2.538
  164ACTN    H3 1637   5.351   2.870   2.693
  164ACTN    H4 1638   5.123   3.194   2.611
  164ACTN    H5 1639   5.001   3.091   2.676
  164ACTN    H6 1640   5.079   3.047   2.524
  165ACTN    C1 1641   7.350   4.319   3.289
  165ACTN    O1 1642   7.170   4.169   3.239
  165ACTN    C2 1643   7.291   4.196   3.226
  165ACTN    C3 1644   7.377   4.084   3.187
  165ACTN    H1 1645   7.379   4.393   3.215
  165ACTN    H2 1646   7.438   4.290   3.346
  165ACTN    H3 1647   7.277   4.366   3.356
  165ACTN    H4 1648   7.393   4.095   3.080
  165ACTN    H5 1649   7.327   3.987   3.197
  165ACTN    H6 1650   7.471   4.081   3.238
  166ACTN    C1 1651   5.049   6.241   7.434
  166ACTN    O1 1652   5.210   6.418   7.425
  166ACTN    C2 1653   5.161   6.317   7.370
  166ACTN    C3 1654   5.187   6.306   7.227
  166ACTN    H1 1655   5.081   6.143   7.468
  166ACTN    H2 1656   4.970   6.229   7.361
  166ACTN    H3 1657   5.011   6.295   7.521
  166ACTN    H4 1658   5.269   6.235   7.217
  166ACTN    H5 1659   5.226   6.398   7.183
  166ACTN    H6 1660   5.103   6.271   7.169
  167ACTN    C1 1661   2.082   3.365   3.719
  167ACTN    O1 1662   1.900   3.247   3.823
  167ACTN    C2 1663   2.002   3.317   3.837
  167ACTN    C3 1664   2.014   3.384   3.967
  167ACTN    H1 1665   2.179   3.317   3.713
  167ACTN    H2 1666   2.096   3.472   3.729
  167ACTN    H3 1667   2.028   3.343   3.626
  167ACTN    H4 1668   2.082   3.324   4.026
  167ACTN    H5 1669   1.920   3.383   4.024
  167ACTN    H6 1670   2.050   3.486   3.962
  168ACTN    C1 1671   5.733   2.015   6.856
  168ACTN    O1 1672   5.584   1.908   6.700
  168ACTN    C2 1673   5.679   1.986   6.718
  168ACTN    C3 1674   5.761   2.013   6.600
  168ACTN    H1 1675   5.711   2.116   6.888
  168ACTN    H2 1676   5.840   2.001   6.854
  168ACTN    H3 1677   5.687   1.946   6.929
  168ACTN    H4 1678   5.727   2.110   6.561
  168ACTN    H5 1679   5.742   1.943   6.518
  168ACTN    H6 1680   5.867   2.017   6.619
  169ACTN    C1 1681   0.341   3.236   3.146
  169ACTN    O1 1682   0.133   3.355   3.131
  169ACTN    C2 1683   0.212   3.289   3.201
  169ACTN    C3 1684   0.192   3.303   3.346
  169ACTN    H1 1685   0.340   3.127   3.137
  169ACTN    H2 1686   0.421   3.265   3.213
  169ACTN    H3 1687   0.359   3.277   3.047
  169ACTN    H4 1688   0.136   3.216   3.378
  169ACTN    H5 1689   0.128   3.388   3.372
  169ACTN    H6 1690   0.284   3.310   3.402
  170ACTN    C1 1691   6.703   5.023   7.493
  170ACTN    O1 1692   6.917   4.931   7.434
  170ACTN    C2 1693   6.805   4.969   7.396
  170ACTN    C3 1694   6.795   5.000   7.253
  170ACTN    H1 1695   6.619   4.955   7.504
  170ACTN    H2 1696   6.667   5.118   7.455
  170ACTN    H3 1697   6.748   5.036   7.592
  170ACTN    H4 1698   6.749   4.913   7.206
  170ACTN    H5 1699   6.893   5.008   7.205
  170ACTN    H6 1700   6.737   5.089   7.231
  171ACTN    C1 1701   2.903   7.694   6.661
  171ACTN    O1 1702   2.791   7.904   6.632
  171ACTN    C2 1703   2.839   7.821   6.711
  171ACTN    C3 1704   2.869   7.872   6.845
  171ACTN    H1 1705   2.844   7.606   6.686
  171ACTN    H2 1706   3.001   7.685   6.707
  171ACTN    H3 1707   2.913   7.697   6.552
  171ACTN    H4 1708   2.786   7.840   6.908
  171ACTN    H5 1709   2.867   7.981   6.850
  171ACTN    H6 1710   2.962   7.836   6.886
  172ACTN    C1 1711   1.619   4.329   3.184
  172ACTN    O1 1712   1.581   4.520   3.324
  172ACTN    C2 1713   1.547   4.455   3.224
  172ACTN    C3 1714   1.412   4.482   3.175
  172ACTN    H1 1715   1.676   4.342   3.092
  172ACTN    H2 1716   1.545   4.251   3.169
  172ACTN    H3 1717   1.689   4.300   3.263
  172ACTN    H4 1718   1.423   4.550   3.090
  172ACTN    H5 1719   1.351   4.537   3.247
  172ACTN    H6 1720   1.358   4.393   3.143
  173ACTN    C1 1721   7.177   3.681   1.619
  173ACTN    O1 1722   6.962   3.576   1.644
  173ACTN    C2 1723   7.060   3.599   1.571
  173ACTN    C3 1724   7.075   3.509   1.457
  173ACTN    H1 1725   7.182   3.777   1.569
  173ACTN    H2 1726   7.268   3.625   1.600
  173ACTN    H3 1727   7.167   3.700   1.727
  173ACTN    H4 1728   7.035   3.562   1.370
  173ACTN    H5 1729   7.012   3.419   1.465
  173ACTN    H6 1730   7.176   3.478   1.437
  174ACTN    C1 1731   1.793   0.571   3.207
  174ACTN    O1 1732   1.636   0.747   3.249
  174ACTN    C2 1733   1.675   0.656   3.173
  174ACTN    C3 1734   1.576   0.611   3.074
  174ACTN    H1 1735   1.878   0.591   3.142
  174ACTN    H2 1736   1.764   0.467   3.196
  174ACTN    H3 1737   1.825   0.590   3.310
  174ACTN    H4 1738   1.602   0.661   2.981
  174ACTN    H5 1739   1.475   0.646   3.097
  174ACTN    H6 1740   1.574   0.504   3.059
  175ACTN    C1 1741   6.260   2.814   6.104
  175ACTN    O1 1742   6.043   2.712   6.091
  175ACTN    C2 1743   6.137   2.767   6.031
  175ACTN    C3 1744   6.140   2.746   5.886
  175ACTN    H1 1745   6.266   2.923   6.107
  175ACTN    H2 1746   6.347   2.775   6.052
  175ACTN    H3 1747   6.258   2.778   6.207
  175ACTN    H4 1748   6.097   2.835   5.841
  175ACTN    H5 1749   6.074   2.664   5.855
  175ACTN    H6 1750   6.239   2.729   5.846
  176ACTN    C1 1751   4.176   2.428   3.694
  176ACTN    O1 1752   4.338   2.591   3.766
  176ACTN    C2 1753   4.248   2.510   3.798
  176ACTN    C3 1754   4.249   2.469   3.938
  176ACTN    H1 1755   4.073   2.459   3.683
  176ACTN    H2 1756   4.180   2.324   3.725
  176ACTN    H3 1757   4.225   2.440   3.597
  176ACTN    H4 1758   4.172   2.528   3.988
  176ACTN    H5 1759   4.341   2.496   3.990
  176ACTN    H6 1760   4.229   2.363   3.953
  177ACTN    C1 1761   6.072   6.036   3.510
  177ACTN    O1 1762   5.907   6.190   3.430
  177ACTN    C2 1763   5.943   6.112   3.519
  177ACTN    C3 1764   5.876   6.130   3.648
  177ACTN    H1 1765   6.057   5.930   3.495
  177ACTN    H2 1766   6.127   6.051   3.603
  177ACTN    H3 1767   6.132   6.073   3.426
  177ACTN    H4 1768   5.798   6.054   3.653
  177ACTN    H5 1769   5.822   6.225   3.654
  177ACTN    H6 1770   5.941   6.120   3.734
  178ACTN    C1 1771   0.475   3.190   7.836
  178ACTN    O1 1772   0.364   3.036   7.690
  178ACTN    C2 1773   0.428   3.054   7.795
  178ACTN    C3 1774   0.416   2.946   7.894
  178ACTN    H1 1775   0.584   3.199   7.829
  178ACTN    H2 1776   0.444   3.208   7.938
  178ACTN    H3 1777   0.432   3.266   7.770
  178ACTN    H4 1778   0.506   2.886   7.883
  178ACTN    H5 1779   0.334   2.877   7.871
  178ACTN    H6 1780   0.407   2.980   7.995
  179ACTN    C1 1781   5.434   2.717   0.188
  179ACTN    O1 1782   5.497   2.943   0.241
  179ACTN    C2 1783   5.437   2.840   0.276
  179ACTN    C3 1784   5.408   2.829   0.419
  179ACTN    H1 1785   5.334   2.699   0.147
  179ACTN    H2 1786   5.464   2.632   0.248
  179ACTN    H3 1787   5.502   2.730   0.104
  179ACTN    H4 1788   5.304   2.859   0.432
  179ACTN    H5 1789   5.465   2.902   0.478
  179ACTN    H6 1790   5.423   2.730   0.460
  180ACTN    C1 1791   1.593   4.664   1.456
  180ACTN    O1 1792   1.481   4.870   1.403
  180ACTN    C2 1793   1.478   4.762   1.464
  180ACTN    C3 1794   1.382   4.755   1.574
  180ACTN    H1 1795   1.566   4.575   1.401
  180ACTN    H2 1796   1.621   4.637   1.557
  180ACTN    H3 1797   1.677   4.711   1.405
  180ACTN    H4 1798   1.295   4.701   1.536
  180ACTN    H5 1799   1.343   4.853   1.603
  180ACTN    H6 1800   1.419   4.704   1.662
  181ACTN    C1 1801   3.449   4.349   5.451
  181ACTN    O1 1802   3.641   4.367   5.307
  181ACTN    C2 1803   3.562   4.423   5.385
  181ACTN    C3 1804   3.610   4.550   5.441
  181ACTN    H1 1805   3.352   4.380   5.412
  181ACTN    H2 1806   3.453   4.368   5.557
  181ACTN    H3 1807   3.459   4.241   5.431
  181ACTN    H4 1808   3.563   4.629   5.383
  181ACTN    H5 1809   3.718   4.565   5.426
  181ACTN    H6 1810   3.587   4.563   5.546
  182ACTN    C1 1811   7.307   3.292   4.868
  182ACTN    O1 1812   7.356   3.189   4.657
  182ACTN    C2 1813   7.346   3.177   4.780
  182ACTN    C3 1814   7.331   3.039   4.828
  182ACTN    H1 1815   7.389   3.326   4.930
  182ACTN    H2 1816   7.224   3.261   4.931
  182ACTN    H3 1817   7.275   3.377   4.806
  182ACTN    H4 1818   7.429   3.008   4.862
  182ACTN    H5 1819   7.307   2.969   4.747
  182ACTN    H6 1820   7.259   3.027   4.908
  183ACTN    C1 1821   4.924   6.068   7.843
  183ACTN    O1 1822   4.842   5.901   7.994
  183ACTN    C2 1823   4.883   5.928   7.880
  183ACTN    C3 1824   4.929   5.814   7.801
  183ACTN    H1 1825   4.854   6.113   7.772
  183ACTN    H2 1826   5.022   6.064   7.797
  183ACTN    H3 1827   4.926   6.131   7.932
  183ACTN    H4 1828   4.847   5.788   7.734
  183ACTN    H5 1829   4.944   5.724   7.862
  183ACTN    H6 1830   5.018   5.833   7.743
  184ACTN    C1 1831   4.391   6.598   6.215
  184ACTN    O1 1832   4.435   6.834   6.219
  184ACTN    C2 1833   4.381   6.736   6.273
  184ACTN    C3 1834   4.345   6.755   6.414
  184ACTN    H1 1835   4.295   6.563   6.176
  184ACTN    H2 1836   4.423   6.530   6.294
  184ACTN    H3 1837   4.463   6.597   6.133
  184ACTN    H4 1838   4.239   6.779   6.416
  184ACTN    H5 1839   4.394   6.843   6.458
  184ACTN    H6 1840   4.365   6.669   6.477
  185ACTN    C1 1841   4.471   4.262   5.963
  185ACTN    O1 1842   4.233   4.288   5.946
  185ACTN    C2 1843   4.333   4.220   5.919
  185ACTN    C3 1844   4.307   4.081   5.883
  185ACTN    H1 1845   4.533   4.293   5.879
  185ACTN    H2 1846   4.518   4.179   6.013
  185ACTN    H3 1847   4.464   4.348   6.031
  185ACTN    H4 1848   4.311   4.076   5.774
  185ACTN    H5 1849   4.205   4.049   5.908
  185ACTN    H6 1850   4.377   4.010   5.924
  186ACTN    C1 1851   4.770   3.861   7.942
  186ACTN    O1 1852   4.691   3.894   7.718
  186ACTN    C2 1853   4.703   3.939   7.833
  186ACTN    C3 1854   4.688   4.085   7.845
  186ACTN    H1 1855   4.699   3.828   8.018
  186ACTN    H2 1856   4.845   3.924   7.989
  186ACTN    H3 1857   4.817   3.771   7.900
  186ACTN    H4 1858   4.586   4.102   7.880
  186ACTN    H5 1859   4.693   4.135   7.748
  186ACTN    H6 1860   4.758   4.131   7.913
  187ACTN    C1 1861   0.919   1.442   3.463
  187ACTN    O1 1862   0.998   1.232   3.548
  187ACTN    C2 1863   0.965   1.349   3.572
  187ACTN    C3 1864   0.932   1.377   3.712
  187ACTN    H1 1865   0.991   1.521   3.443
  187ACTN    H2 1866   0.825   1.487   3.493
  187ACTN    H3 1867   0.905   1.386   3.369
  187ACTN    H4 1868   1.020   1.424   3.755
  187ACTN    H5 1869   0.917   1.287   3.771
  187ACTN    H6 1870   0.846   1.442   3.725
  188ACTN    C1 1871   7.669   5.054   3.665
  188ACTN    O1 1872   7.473   4.945   3.749
  188ACTN    C2 1873   7.596   4.960   3.756
  188ACTN    C3 1874   7.657   4.918   3.883
  188ACTN    H1 1875   7.732   5.001   3.594
  188ACTN    H2 1876   7.731   5.120   3.725
  188ACTN    H3 1877   7.597   5.113   3.607
  188ACTN    H4 1878   7.700   4.819   3.864
  188ACTN    H5 1879   7.583   4.901   3.962
  188ACTN    H6 1880   7.733   4.984   3.920
  189ACTN    C1 1881   5.389   4.231   7.804
  189ACTN    O1 1882   5.603   4.330   7.761
  189ACTN    C2 1883   5.493   4.338   7.819
  189ACTN    C3 1884   5.490   4.430   7.933
  189ACTN    H1 1885   5.303   4.266   7.747
  189ACTN    H2 1886   5.356   4.201   7.903
  189ACTN    H3 1887   5.431   4.145   7.751
  189ACTN    H4 1888   5.443   4.522   7.896
  189ACTN    H5 1889   5.589   4.461   7.966
  189ACTN    H6 1890   5.434   4.393   8.018
  190ACTN    C1 1891   7.010   3.496   6.585
  190ACTN    O1 1892   7.230   3.405   6.617
  190ACTN    C2 1893   7.129   3.457   6.668
  190ACTN    C3 1894   7.116   3.437   6.812
  190ACTN    H1 1895   6.999   3.604   6.578
  190ACTN    H2 1896   6.921   3.453   6.630
  190ACTN    H3 1897   7.022   3.458   6.482
  190ACTN    H4 1898   7.151   3.529   6.859
  190ACTN    H5 1899   7.183   3.360   6.851
  190ACTN    H6 1900   7.015   3.416   6.845
  191ACTN    C1 1901   5.313   7.724   7.962
  191ACTN    O1 1902   5.340   7.959   8.004
  191ACTN    C2 1903   5.266   7.867   7.964
  191ACTN    C3 1904   5.123   7.898   7.962
  191ACTN    H1 1905   5.327   7.687   7.861
  191ACTN    H2 1906   5.239   7.663   8.013
  191ACTN    H3 1907   5.410   7.716   8.014
  191ACTN    H4 1908   5.099   7.922   7.859
  191ACTN    H5 1909   5.099   7.989   8.018
  191ACTN    H6 1910   5.060   7.818   7.996
  192ACTN    C1 1911   7.606   5.000   5.539
  192ACTN    O1 1912   7.426   5.128   5.633
  192ACTN    C2 1913   7.521   5.050   5.652
  192ACTN    C3 1914   7.569   5.044   5.791
  192ACTN    H1 1915   7.591   4.894   5.520
  192ACTN    H2 1916   7.710   5.016   5.566
  192ACTN    H3 1917   7.582   5.054   5.447
  192ACTN    H4 1918   7.524   4.955   5.835
  192ACTN    H5 1919   7.532   5.127   5.852
  192ACTN    H6 1920   7.677   5.039   5.799
  193ACTN    C1 1921   2.949   2.651   0.492
  193ACTN    O1 1922   2.979   2.470   0.647
  193ACTN    C2 1923   3.008   2.520   0.537
  193ACTN    C3 1924   3.132   2.470   0.477
  193ACTN    H1 1925   2.880   2.637   0.408
  193ACTN    H2 1926   3.030   2.716   0.461
  193ACTN    H3 1927   2.893   2.697   0.573
  193ACTN    H4 1928   3.103   2.397   0.402
  193ACTN    H5 1929   3.194   2.414   0.548
  193ACTN    H6 1930   3.193   2.546   0.431
  194ACTN    C1 1931   5.113   4.282   6.490
  194ACTN    O1 1932   5.224   4.341   6.285
  194ACTN    C2 1933   5.203   4.255   6.373
  194ACTN    C3 1934   5.234   4.117   6.333
  194ACTN    H1 1935   5.169   4.288   6.583
  194ACTN    H2 1936   5.041   4.201   6.497
  194ACTN    H3 1937   5.061   4.377   6.476
  194ACTN    H4 1938   5.332   4.095   6.375
  194ACTN    H5 1939   5.248   4.107   6.225
  194ACTN    H6 1940   5.162   4.044   6.366
  195ACTN    C1 1941   4.261   0.615   0.312
  195ACTN    O1 1942   4.476   0.715   0.277
  195ACTN    C2 1943   4.392   0.631   0.241
  195ACTN    C3 1944   4.409   0.581   0.104
  195ACTN    H1 1945   4.255   0.521   0.366
  195ACTN    H2 1946   4.181   0.618   0.238
  195ACTN    H3 1947   4.247   0.696   0.384
  195ACTN    H4 1948   4.459   0.485   0.113
  195ACTN    H5 1949   4.478   0.643   0.045
  195ACTN    H6 1950   4.317   0.569   0.049
  196ACTN    C1 1951   2.651   5.883   7.512
  196ACTN    O1 1952   2.447   5.758   7.487
  196ACTN    C2 1953   2.540   5.820   7.432
  196ACTN    C3 1954   2.557   5.792   7.289
  196ACTN    H1 1955   2.646   5.992   7.510
  196ACTN    H2 1956   2.745   5.850   7.469
  196ACTN    H3 1957   2.644   5.851   7.616
  196ACTN    H4 1958   2.510   5.874   7.236
  196ACTN    H5 1959   2.503   5.703   7.257
  196ACTN    H6 1960   2.660   5.784   7.258
  197ACTN    C1 1961   2.466   6.261   2.937
  197ACTN    O1 1962   2.393   6.466   2.836
  197ACTN    C2 1963   2.408   6.400   2.940
  197ACTN    C3 1964   2.408   6.477   3.064
  197ACTN    H1 1965   2.391   6.185   2.961
  197ACTN    H2 1966   2.546   6.256   3.009
  197ACTN    H3 1967   2.504   6.239   2.837
  197ACTN    H4 1968   2.308   6.466   3.107
  197ACTN    H5 1969   2.419   6.584   3.047
  197ACTN    H6 1970   2.481   6.445   3.137
  198ACTN    C1 1971   1.916   5.138   4.508
  198ACTN    O1 1972   1.959   5.306   4.342
  198ACTN    C2 1973   2.000   5.206   4.403
  198ACTN    C3 1974   2.110   5.134   4.338
  198ACTN    H1 1975   1.957   5.152   4.608
  198ACTN    H2 1976   1.911   5.032   4.486
  198ACTN    H3 1977   1.815   5.181   4.509
  198ACTN    H4 1978   2.201   5.165   4.389
  198ACTN    H5 1979   2.124   5.164   4.234
  198ACTN    H6 1980   2.101   5.026   4.343
  199ACTN    C1 1981   2.411   4.355   0.422
  199ACTN    O1 1982   2.184   4.428   0.393
  199ACTN    C2 1983   2.295   4.405   0.341
  199ACTN    C3 1984   2.292   4.386   0.195
  199ACTN    H1 1985   2.489   4.430   0.431
  199ACTN    H2 1986   2.452   4.267   0.373
  199ACTN    H3 1987   2.378   4.330   0.523
  199ACTN    H4 1988   2.325   4.480   0.152
  199ACTN    H5 1989   2.191   4.371   0.157
  199ACTN    H6 1990   2.356   4.306   0.160
  200ACTN    C1 1991   3.483   3.280   7.131
  200ACTN    O1 1992   3.285   3.145   7.144
  200ACTN    C2 1993   3.369   3.201   7.072
  200ACTN    C3 1994   3.375   3.152   6.934
  200ACTN    H1 1995   3.472   3.386   7.113
  200ACTN    H2 1996   3.575   3.245   7.085
  200ACTN    H3 1997   3.487   3.264   7.239
  200ACTN    H4 1998   3.319   3.223   6.874
  200ACTN    H5 1999   3.323   3.057   6.921
  200ACTN    H6 2000   3.476   3.143   6.895
  201ACTN    C1 2001   4.487   6.769   3.657
  201ACTN    O1 2002   4.279   6.869   3.722
  201ACTN    C2 2003   4.340   6.796   3.642
  201ACTN    C3 2004   4.256   6.707   3.561
  201ACTN    H1 2005   4.546   6.817   3.579
  201ACTN    H2 2006   4.503   6.662   3.653
  201ACTN    H3 2007   4.523   6.808   3.754
  201ACTN    H4 2008   4.246   6.755   3.464
  201ACTN    H5 2009   4.154   6.699   3.600
  201ACTN    H6 2010   4.297   6.608   3.549
  202ACTN    C1 2011   2.951   0.113   3.275
  202ACTN    O1 2012   2.841   0.237   3.449
  202ACTN    C2 2013   2.945   0.181   3.409
  202ACTN    C3 2014   3.068   0.222   3.478
  202ACTN    H1 2015   2.958   0.005   3.285
  202ACTN    H2 2016   3.038   0.150   3.222
  202ACTN    H3 2017   2.860   0.135   3.218
  202ACTN    H4 2018   3.089   0.144   3.551
  202ACTN    H5 2019   3.055   0.313   3.537
  202ACTN    H6 2020   3.153   0.234   3.412
  203ACTN    C1 2021   5.932   4.847   3.940
  203ACTN    O1 2022   5.882   5.078   3.894
  203ACTN    C2 2023   5.908   4.965   3.849
  203ACTN    C3 2024   5.872   4.944   3.709
  203ACTN    H1 2025   6.036   4.815   3.938
  203ACTN    H2 2026   5.868   4.765   3.907
  203ACTN    H3 2027   5.907   4.874   4.043
  203ACTN    H4 2028   5.964   4.956   3.652
  203ACTN    H5 2029   5.805   5.022   3.671
  203ACTN    H6 2030   5.828   4.847   3.688
  204ACTN    C1 2031   0.634   1.286   5.273
  204ACTN    O1 2032   0.867   1.265   5.325
  204ACTN    C2 2033   0.752   1.290   5.365
  204ACTN    C3 2034   0.734   1.279   5.510
  204ACTN    H1 2035   0.593   1.386   5.255
  204ACTN    H2 2036   0.557   1.224   5.318
  204ACTN    H3 2037   0.664   1.245   5.176
  204ACTN    H4 2038   0.738   1.381   5.549
  204ACTN    H5 2039   0.817   1.228   5.560
  204ACTN    H6 2040   0.641   1.233   5.540
  205ACTN    C1 2041   2.596   7.887   6.357
  205ACTN    O1 2042   2.370   7.866   6.279
  205ACTN    C2 2043   2.448   7.876   6.376
  205ACTN    C3 2044   2.385   7.919   6.501
  205ACTN    H1 2045   2.649   7.798   6.391
  205ACTN    H2 2046   2.631   7.973   6.414
  205ACTN    H3 2047   2.620   7.901   6.251
  205ACTN    H4 2048   2.369   7.829   6.560
  205ACTN    H5 2049   2.284   7.959   6.486
  205ACTN    H6 2050   2.443   7.990   6.558
  206ACTN    C1 2051   5.509   5.357   6.035
  206ACTN    O1 2052   5.350   5.282   5.871
  206ACTN    C2 2053   5.462   5.267   5.924
  206ACTN    C3 2054   5.523   5.136   5.904
  206ACTN    H1 2055   5.590   5.422   6.003
  206ACTN    H2 2056   5.543   5.295   6.118
  206ACTN    H3 2057   5.426   5.421   6.069
  206ACTN    H4 2058   5.595   5.148   5.824
  206ACTN    H5 2059   5.452   5.062   5.866
  206ACTN    H6 2060   5.572   5.096   5.992
  207ACTN    C1 2061   4.132   1.149   6.951
  207ACTN    O1 2062   3.926   1.028   6.930
  207ACTN    C2 2063   4.025   1.077   6.874
  207ACTN    C3 2064   4.053   1.023   6.741
  207ACTN    H1 2065   4.132   1.256   6.930
  207ACTN    H2 2066   4.228   1.107   6.924
  207ACTN    H3 2067   4.115   1.137   7.059
  207ACTN    H4 2068   4.014   1.096   6.670
  207ACTN    H5 2069   3.998   0.931   6.720
  207ACTN    H6 2070   4.158   1.006   6.721
  208ACTN    C1 2071   4.296   6.437   7.883
  208ACTN    O1 2072   4.107   6.496   8.018
  208ACTN    C2 2073   4.157   6.490   7.904
  208ACTN    C3 2074   4.061   6.494   7.794
  208ACTN    H1 2075   4.365   6.515   7.852
  208ACTN    H2 2076   4.292   6.361   7.806
  208ACTN    H3 2077   4.335   6.394   7.976
  208ACTN    H4 2078   4.063   6.596   7.757
  208ACTN    H5 2079   3.958   6.478   7.827
  208ACTN    H6 2080   4.083   6.426   7.713
  209ACTN    C1 2081   5.685   1.428   5.886
  209ACTN    O1 2082   5.773   1.374   5.670
  209ACTN    C2 2083   5.683   1.357   5.753
  209ACTN    C3 2084   5.558   1.302   5.701
  209ACTN    H1 2085   5.703   1.359   5.969
  209ACTN    H2 2086   5.588   1.476   5.901
  209ACTN    H3 2087   5.764   1.503   5.887
  209ACTN    H4 2088   5.559   1.195   5.724
  209ACTN    H5 2089   5.553   1.306   5.591
  209ACTN    H6 2090   5.469   1.346   5.742
  210ACTN    C1 2091   3.202   6.103   5.381
  210ACTN    O1 2092   3.168   5.890   5.275
  210ACTN    C2 2093   3.121   5.981   5.346
  210ACTN    C3 2094   2.975   5.984   5.355
  210ACTN    H1 2095   3.228   6.104   5.487
  210ACTN    H2 2096   3.143   6.191   5.358
  210ACTN    H3 2097   3.295   6.103   5.324
  210ACTN    H4 2098   2.949   5.936   5.450
  210ACTN    H5 2099   2.926   5.921   5.279
  210ACTN    H6 2100   2.932   6.083   5.351
  211ACTN    C1 2101   6.246   0.907   7.698
  211ACTN    O1 2102   6.315   0.932   7.927
  211ACTN    C2 2103   6.284   0.855   7.834
  211ACTN    C3 2104   6.328   0.716   7.851
  211ACTN    H1 2105   6.140   0.892   7.677
  211ACTN    H2 2106   6.305   0.855   7.624
  211ACTN    H3 2107   6.266   1.015   7.693
  211ACTN    H4 2108   6.241   0.661   7.886
  211ACTN    H5 2109   6.402   0.705   7.930
  211ACTN    H6 2110   6.366   0.670   7.760
  212ACTN    C1 2111   5.514   0.804   5.888
  212ACTN    O1 2112   5.394   0.597   5.868
  212ACTN    C2 2113   5.441   0.698   5.812
  212ACTN    C3 2114   5.458   0.686   5.667
  212ACTN    H1 2115   5.458   0.897   5.894
  212ACTN    H2 2116   5.609   0.823   5.839
  212ACTN    H3 2117   5.532   0.770   5.991
  212ACTN    H4 2118   5.372   0.736   5.622
  212ACTN    H5 2119   5.450   0.582   5.632
  212ACTN    H6 2120   5.549   0.729   5.629
  213ACTN    C1 2121   1.618   5.761   1.840
  213ACTN    O1 2122   1.513   5.695   1.635
  213ACTN    C2 2123   1.615   5.739   1.692
  213ACTN    C3 2124   1.739   5.725   1.616
  213ACTN    H1 2125   1.621   5.867   1.865
  213ACTN    H2 2126   1.706   5.712   1.880
  213ACTN    H3 2127   1.527   5.720   1.886
  213ACTN    H4 2128   1.758   5.822   1.571
  213ACTN    H5 2129   1.730   5.657   1.531
  213ACTN    H6 2130   1.824   5.696   1.676
  214ACTN    C1 2131   1.904   3.289   3.024
  214ACTN    O1 2132   1.991   3.195   2.821
  214ACTN    C2 2133   1.946   3.295   2.880
  214ACTN    C3 2134   1.976   3.423   2.815
  214ACTN    H1 2135   1.796   3.298   3.035
  214ACTN    H2 2136   1.952   3.371   3.076
  214ACTN    H3 2137   1.935   3.194   3.068
  214ACTN    H4 2138   1.886   3.451   2.760
  214ACTN    H5 2139   2.054   3.415   2.739
  214ACTN    H6 2140   2.002   3.502   2.885
  215ACTN    C1 2141   5.662   5.450   4.503
  215ACTN    O1 2142   5.434   5.516   4.534
  215ACTN    C2 2143   5.528   5.497   4.456
  215ACTN    C3 2144   5.489   5.481   4.315
  215ACTN    H1 2145   5.738   5.527   4.494
  215ACTN    H2 2146   5.691   5.364   4.444
  215ACTN    H3 2147   5.657   5.422   4.609
  215ACTN    H4 2148   5.507   5.577   4.267
  215ACTN    H5 2149   5.381   5.464   4.303
  215ACTN    H6 2150   5.543   5.404   4.263
  216ACTN    C1 2151   0.963   0.138   1.728
  216ACTN    O1 2152   0.793  -0.010   1.645
  216ACTN    C2 2153   0.858   0.095   1.629
  216ACTN    C3 2154   0.859   0.147   1.492
  216ACTN    H1 2155   0.932   0.227   1.783
  216ACTN    H2 2156   1.054   0.159   1.674
  216ACTN    H3 2157   0.980   0.058   1.801
  216ACTN    H4 2158   0.785   0.227   1.491
  216ACTN    H5 2159   0.822   0.074   1.419
  216ACTN    H6 2160   0.955   0.185   1.460
  217ACTN    C1 2161   6.141   1.082   1.041
  217ACTN    O1 2162   6.292   0.904   0.984
  217ACTN    C2 2163   6.229   1.005   0.947
  217ACTN    C3 2164   6.279   1.067   0.824
  217ACTN    H1 2165   6.036   1.071   1.017
  217ACTN    H2 2166   6.169   1.187   1.035
  217ACTN    H3 2167   6.155   1.046   1.144
  217ACTN    H4 2168   6.213   1.032   0.744
  217ACTN    H5 2169   6.378   1.030   0.795
  217ACTN    H6 2170   6.280   1.175   0.826
  218ACTN    C1 2171   2.411   2.689   6.896
  218ACTN    O1 2172   2.640   2.728   6.954
  218ACTN    C2 2173   2.552   2.730   6.866
  218ACTN    C3 2174   2.583   2.814   6.750
  218ACTN    H1 2175   2.385   2.596   6.846
  218ACTN    H2 2176   2.344   2.767   6.861
  218ACTN    H3 2177   2.398   2.674   7.003
  218ACTN    H4 2178   2.618   2.746   6.672
  218ACTN    H5 2179   2.667   2.881   6.768
  218ACTN    H6 2180   2.499   2.871   6.713
  219ACTN    C1 2181   3.035   2.078   6.430
  219ACTN    O1 2182   2.974   2.271   6.561
  219ACTN    C2 2183   2.987   2.147   6.555
  219ACTN    C3 2184   2.997   2.080   6.685
  219ACTN    H1 2185   2.956   2.020   6.384
  219ACTN    H2 2186   3.118   2.013   6.457
  219ACTN    H3 2187   3.069   2.153   6.357
  219ACTN    H4 2188   2.898   2.039   6.705
  219ACTN    H5 2189   3.015   2.150   6.767
  219ACTN    H6 2190   3.070   2.001   6.689
  220ACTN    C1 2191   0.554   1.607   2.963
  220ACTN    O1 2192   0.775   1.698   2.948
  220ACTN    C2 2193   0.668   1.693   3.010
  220ACTN    C3 2194   0.675   1.739   3.149
  220ACTN    H1 2195   0.470   1.667   2.927
  220ACTN    H2 2196   0.520   1.547   3.047
  220ACTN    H3 2197   0.586   1.543   2.881
  220ACTN    H4 2198   0.637   1.841   3.150
  220ACTN    H5 2199   0.778   1.747   3.186
  220ACTN    H6 2200   0.618   1.678   3.218
  221ACTN    C1 2201   4.866   2.111   2.825
  221ACTN    O1 2202   5.085   2.042   2.897
  221ACTN    C2 2203   4.964   2.015   2.888
  221ACTN    C3 2204   4.930   1.873   2.900
  221ACTN    H1 2205   4.798   2.154   2.899
  221ACTN    H2 2206   4.809   2.058   2.750
  221ACTN    H3 2207   4.920   2.194   2.779
  221ACTN    H4 2208   4.896   1.859   3.002
  221ACTN    H5 2209   5.018   1.808   2.892
  221ACTN    H6 2210   4.854   1.839   2.831
  222ACTN    C1 2211   0.658   0.982   4.056
  222ACTN    O1 2212   0.801   1.131   4.179
  222ACTN    C2 2213   0.699   1.060   4.179
  222ACTN    C3 2214   0.649   1.022   4.311
  222ACTN    H1 2215   0.568   1.022   4.011
  222ACTN    H2 2216   0.642   0.879   4.086
  222ACTN    H3 2217   0.738   0.987   3.981
  222ACTN    H4 2218   0.566   1.089   4.332
  222ACTN    H5 2219   0.721   1.042   4.390
  222ACTN    H6 2220   0.615   0.920   4.318
  223ACTN    C1 2221   1.536   0.989   3.105
  223ACTN    O1 2222   1.722   1.098   3.209
  223ACTN    C2 2223   1.674   1.047   3.107
  223ACTN    C3 2224   1.741   1.083   2.982
  223ACTN    H1 2225   1.537   0.880   3.097
  223ACTN    H2 2226   1.482   1.030   3.020
  223ACTN    H3 2227   1.483   1.014   3.198
  223ACTN    H4 2228   1.808   1.001   2.958
  223ACTN    H5 2229   1.808   1.170   2.994
  223ACTN    H6 2230   1.674   1.101   2.899
  224ACTN    C1 2231   6.330   6.756   1.112
  224ACTN    O1 2232   6.094   6.767   1.153
  224ACTN    C2 2233   6.187   6.778   1.072
  224ACTN    C3 2234   6.147   6.771   0.931
  224ACTN    H1 2235   6.387   6.848   1.111
  224ACTN    H2 2236   6.374   6.686   1.042
  224ACTN    H3 2237   6.335   6.715   1.213
  224ACTN    H4 2238   6.142   6.874   0.896
  224ACTN    H5 2239   6.045   6.733   0.918
  224ACTN    H6 2240   6.215   6.714   0.869
  225ACTN    C1 2241   6.260   3.638   6.900
  225ACTN    O1 2242   6.074   3.788   6.877
  225ACTN    C2 2243   6.168   3.729   6.823
  225ACTN    C3 2244   6.159   3.718   6.677
  225ACTN    H1 2245   6.360   3.680   6.910
  225ACTN    H2 2246   6.266   3.543   6.848
  225ACTN    H3 2247   6.220   3.622   7.001
  225ACTN    H4 2248   6.223   3.797   6.637
  225ACTN    H5 2249   6.059   3.742   6.639
  225ACTN    H6 2250   6.190   3.623   6.637
  226ACTN    C1 2251   4.289   6.635   2.229
  226ACTN    O1 2252   4.050   6.641   2.226
  226ACTN    C2 2253   4.153   6.608   2.287
  226ACTN    C3 2254   4.136   6.583   2.430
  226ACTN    H1 2255   4.340   6.543   2.199
  226ACTN    H2 2256   4.349   6.684   2.305
  226ACTN    H3 2257   4.281   6.698   2.141
  226ACTN    H4 2258   4.129   6.474   2.441
  226ACTN    H5 2259   4.040   6.620   2.468
  226ACTN    H6 2260   4.216   6.621   2.491
  227ACTN    C1 2261   0.039   4.500   4.099
  227ACTN    O1 2262   0.004   4.735   4.060
  227ACTN    C2 2263   0.048   4.646   4.135
  227ACTN    C3 2264   0.146   4.691   4.234
  227ACTN    H1 2265  -0.031   4.447   4.163
  227ACTN    H2 2266   0.137   4.456   4.109
  227ACTN    H3 2267   0.003   4.490   3.996
  227ACTN    H4 2268   0.092   4.702   4.328
  227ACTN    H5 2269   0.184   4.792   4.213
  227ACTN    H6 2270   0.230   4.624   4.248
  228ACTN    C1 2271   2.689   3.694   6.213
  228ACTN    O1 2272   2.470   3.776   6.268
  228ACTN    C2 2273   2.549   3.739   6.180
  228ACTN    C3 2274   2.487   3.701   6.053
  228ACTN    H1 2275   2.763   3.765   6.178
  228ACTN    H2 2276   2.705   3.598   6.165
  228ACTN    H3 2277   2.700   3.684   6.321
  228ACTN    H4 2278   2.498   3.787   5.987
  228ACTN    H5 2279   2.379   3.688   6.061
  228ACTN    H6 2280   2.530   3.614   6.006
  229ACTN    C1 2281   4.873   5.733   5.933
  229ACTN    O1 2282   4.921   5.714   5.699
  229ACTN    C2 2283   4.874   5.661   5.801
  229ACTN    C3 2284   4.784   5.548   5.777
  229ACTN    H1 2285   4.942   5.688   6.004
  229ACTN    H2 2286   4.772   5.728   5.973
  229ACTN    H3 2287   4.903   5.837   5.919
  229ACTN    H4 2288   4.844   5.458   5.793
  229ACTN    H5 2289   4.752   5.541   5.673
  229ACTN    H6 2290   4.697   5.546   5.841
  230ACTN    C1 2291   2.810   0.504   4.206
  230ACTN    O1 2292   2.602   0.616   4.163
  230ACTN    C2 2293   2.702   0.559   4.117
  230ACTN    C3 2294   2.689   0.511   3.979
  230ACTN    H1 2295   2.902   0.561   4.198
  230ACTN    H2 2296   2.829   0.401   4.177
  230ACTN    H3 2297   2.778   0.509   4.311
  230ACTN    H4 2298   2.738   0.586   3.916
  230ACTN    H5 2299   2.584   0.511   3.945
  230ACTN    H6 2300   2.732   0.414   3.961
  231ACTN    C1 2301   5.788   6.130   3.949
  231ACTN    O1 2302   5.577   6.022   3.984
  231ACTN    C2 2303   5.682   6.065   4.034
  231ACTN    C3 2304   5.679   6.088   4.178
  231ACTN    H1 2305   5.878   6.069   3.941
  231ACTN    H2 2306   5.814   6.225   3.993
  231ACTN    H3 2307   5.750   6.146   3.847
  231ACTN    H4 2308   5.727   6.002   4.224
  231ACTN    H5 2309   5.577   6.088   4.218
  231ACTN    H6 2310   5.729   6.179   4.210
  232ACTN    C1 2311   0.063   7.175   6.442
  232ACTN    O1 2312   0.170   7.077   6.633
  232ACTN    C2 2313   0.111   7.174   6.585
  232ACTN    C3 2314   0.053   7.267   6.683
  232ACTN    H1 2315   0.120   7.244   6.381
  232ACTN    H2 2316  -0.041   7.203   6.441
  232ACTN    H3 2317   0.075   7.075   6.399
  232ACTN    H4 2318   0.123   7.350   6.691
  232ACTN    H5 2319   0.049   7.224   6.784
  232ACTN    H6 2320  -0.045   7.303   6.656
  233ACTN    C1 2321   5.243   6.071   1.805
  233ACTN    O1 2322   5.024   6.158   1.852
  233ACTN    C2 2323   5.105   6.065   1.865
  233ACTN    C3 2324   5.075   5.971   1.973
  233ACTN    H1 2325   5.254   6.002   1.722
  233ACTN    H2 2326   5.315   6.047   1.882
  233ACTN    H3 2327   5.262   6.172   1.767
  233ACTN    H4 2328   5.028   5.885   1.927
  233ACTN    H5 2329   5.001   6.009   2.043
  233ACTN    H6 2330   5.162   5.938   2.029
  234ACTN    C1 2331   6.398   2.916   0.788
  234ACTN    O1 2332   6.222   2.869   0.632
  234ACTN    C2 2333   6.343   2.890   0.650
  234ACTN    C3 2334   6.431   2.847   0.542
  234ACTN    H1 2335   6.431   3.019   0.800
  234ACTN    H2 2336   6.482   2.850   0.804
  234ACTN    H3 2337   6.321   2.897   0.863
  234ACTN    H4 2338   6.454   2.936   0.484
  234ACTN    H5 2339   6.381   2.780   0.471
  234ACTN    H6 2340   6.523   2.801   0.575
  235ACTN    C1 2341   3.962   3.587   6.745
  235ACTN    O1 2342   3.747   3.486   6.708
  235ACTN    C2 2343   3.821   3.551   6.784
  235ACTN    C3 2344   3.752   3.624   6.890
  235ACTN    H1 2345   4.035   3.532   6.804
  235ACTN    H2 2346   3.975   3.693   6.761
  235ACTN    H3 2347   3.979   3.562   6.640
  235ACTN    H4 2348   3.761   3.563   6.980
  235ACTN    H5 2349   3.644   3.632   6.873
  235ACTN    H6 2350   3.792   3.723   6.909
  236ACTN    C1 2351   3.483   7.242   5.819
  236ACTN    O1 2352   3.248   7.230   5.774
  236ACTN    C2 2353   3.362   7.247   5.730
  236ACTN    C3 2354   3.377   7.227   5.585
  236ACTN    H1 2355   3.529   7.341   5.831
  236ACTN    H2 2356   3.555   7.174   5.777
  236ACTN    H3 2357   3.454   7.208   5.920
  236ACTN    H4 2358   3.377   7.326   5.541
  236ACTN    H5 2359   3.290   7.177   5.541
  236ACTN    H6 2360   3.467   7.174   5.556
  237ACTN    C1 2361   3.929   6.212   7.653
  237ACTN    O1 2362   3.788   6.393   7.585
  237ACTN    C2 2363   3.846   6.287   7.554
  237ACTN    C3 2364   3.793   6.220   7.435
  237ACTN    H1 2365   4.036   6.216   7.629
  237ACTN    H2 2366   3.897   6.108   7.654
  237ACTN    H3 2367   3.918   6.255   7.753
  237ACTN    H4 2368   3.860   6.246   7.353
  237ACTN    H5 2369   3.696   6.260   7.404
  237ACTN    H6 2370   3.787   6.113   7.444
  238ACTN    C1 2371   5.534   4.459   5.417
  238ACTN    O1 2372   5.607   4.234   5.380
  238ACTN    C2 2373   5.587   4.326   5.461
  238ACTN    C3 2374   5.578   4.285   5.602
  238ACTN    H1 2375   5.609   4.538   5.425
  238ACTN    H2 2376   5.450   4.485   5.480
  238ACTN    H3 2377   5.503   4.454   5.312
  238ACTN    H4 2378   5.675   4.305   5.646
  238ACTN    H5 2379   5.564   4.177   5.613
  238ACTN    H6 2380   5.501   4.336   5.658
  239ACTN    C1 2381   4.611   3.199   5.488
  239ACTN    O1 2382   4.787   3.132   5.340
  239ACTN    C2 2383   4.721   3.225   5.389
  239ACTN    C3 2384   4.781   3.357   5.377
  239ACTN    H1 2385   4.512   3.219   5.447
  239ACTN    H2 2386   4.627   3.263   5.574
  239ACTN    H3 2387   4.613   3.094   5.520
  239ACTN    H4 2388   4.733   3.406   5.293
  239ACTN    H5 2389   4.887   3.353   5.350
  239ACTN    H6 2390   4.770   3.419   5.466
  240ACTN    C1 2391   2.504   4.382   0.807
  240ACTN    O1 2392   2.265   4.366   0.781
  240ACTN    C2 2393   2.363   4.372   0.859
  240ACTN    C3 2394   2.330   4.413   0.996
  240ACTN    H1 2395   2.560   4.291   0.827
  240ACTN    H2 2396   2.552   4.466   0.856
  240ACTN    H3 2397   2.503   4.398   0.699
  240ACTN    H4 2398   2.327   4.322   1.055
  240ACTN    H5 2399   2.230   4.455   1.004
  240ACTN    H6 2400   2.402   4.482   1.039
  241ACTN    C1 2401   5.796   5.822   7.057
  241ACTN    O1 2402   5.917   5.794   6.851
  241ACTN    C2 2403   5.849   5.742   6.942
  241ACTN    C3 2404   5.789   5.612   6.908
  241ACTN    H1 2405   5.846   5.797   7.151
  241ACTN    H2 2406   5.690   5.803   7.067
  241ACTN    H3 2407   5.813   5.929   7.039
  241ACTN    H4 2408   5.853   5.537   6.952
  241ACTN    H5 2409   5.792   5.592   6.800
  241ACTN    H6 2410   5.688   5.600   6.944
  242ACTN    C1 2411   5.060   0.061   3.994
  242ACTN    O1 2412   5.222   0.004   3.826
  242ACTN    C2 2413   5.200   0.050   3.939
  242ACTN    C3 2414   5.315   0.051   4.029
  242ACTN    H1 2415   5.028   0.164   4.002
  242ACTN    H2 2416   5.058   0.015   4.092
  242ACTN    H3 2417   4.990   0.010   3.927
  242ACTN    H4 2418   5.354   0.152   4.028
  242ACTN    H5 2419   5.398  -0.011   3.993
  242ACTN    H6 2420   5.292   0.022   4.131
  243ACTN    C1 2421   2.206   4.552   6.615
  243ACTN    O1 2422   2.131   4.370   6.753
  243ACTN    C2 2423   2.213   4.462   6.735
  243ACTN    C3 2424   2.288   4.503   6.854
  243ACTN    H1 2425   2.288   4.534   6.545
  243ACTN    H2 2426   2.209   4.655   6.649
  243ACTN    H3 2427   2.112   4.534   6.560
  243ACTN    H4 2428   2.385   4.454   6.848
  243ACTN    H5 2429   2.243   4.465   6.947
  243ACTN    H6 2430   2.301   4.610   6.863
  244ACTN    C1 2431   5.040   4.649   2.330
  244ACTN    O1 2432   5.110   4.419   2.329
  244ACTN    C2 2433   5.121   4.532   2.379
  244ACTN    C3 2434   5.183   4.536   2.512
  244ACTN    H1 2435   5.101   4.722   2.278
  244ACTN    H2 2436   4.993   4.696   2.415
  244ACTN    H3 2437   4.963   4.614   2.259
  244ACTN    H4 2438   5.287   4.564   2.496
  244ACTN    H5 2439   5.188   4.437   2.558
  244ACTN    H6 2440   5.137   4.605   2.580
  245ACTN    C1 2441   2.890   0.429   1.658
  245ACTN    O1 2442   2.936   0.202   1.595
  245ACTN    C2 2443   2.932   0.287   1.686
  245ACTN    C3 2444   2.927   0.233   1.822
  245ACTN    H1 2445   2.974   0.499   1.667
  245ACTN    H2 2446   2.813   0.456   1.729
  245ACTN    H3 2447   2.852   0.438   1.556
  245ACTN    H4 2448   3.029   0.240   1.861
  245ACTN    H5 2449   2.904   0.127   1.824
  245ACTN    H6 2450   2.860   0.286   1.888
  246ACTN    C1 2451   4.294   1.447   0.921
  246ACTN    O1 2452   4.238   1.679   0.950
  246ACTN    C2 2453   4.242   1.564   0.999
  246ACTN    C3 2454   4.234   1.559   1.145
  246ACTN    H1 2455   4.215   1.377   0.894
  246ACTN    H2 2456   4.368   1.396   0.982
  246ACTN    H3 2457   4.340   1.482   0.827
  246ACTN    H4 2458   4.131   1.534   1.169
  246ACTN    H5 2459   4.250   1.657   1.192
  246ACTN    H6 2460   4.300   1.486   1.190
  247ACTN    C1 2461   3.872   5.561   6.132
  247ACTN    O1 2462   3.931   5.761   6.252
  247ACTN    C2 2463   3.868   5.653   6.251
  247ACTN    C3 2464   3.828   5.604   6.383
  247ACTN    H1 2465   3.777   5.558   6.080
  247ACTN    H2 2466   3.897   5.461   6.167
  247ACTN    H3 2467   3.948   5.595   6.060
  247ACTN    H4 2468   3.724   5.631   6.395
  247ACTN    H5 2469   3.880   5.655   6.464
  247ACTN    H6 2470   3.839   5.497   6.395
  248ACTN    C1 2471   6.504   0.807   1.562
  248ACTN    O1 2472   6.330   0.911   1.433
  248ACTN    C2 2473   6.368   0.811   1.497
  248ACTN    C3 2474   6.261   0.722   1.542
  248ACTN    H1 2475   6.570   0.736   1.513
  248ACTN    H2 2476   6.491   0.778   1.666
  248ACTN    H3 2477   6.551   0.905   1.556
  248ACTN    H4 2478   6.260   0.639   1.472
  248ACTN    H5 2479   6.162   0.767   1.534
  248ACTN    H6 2480   6.275   0.684   1.642
  249ACTN    C1 2481   4.712   2.456   3.645
  249ACTN    O1 2482   4.688   2.219   3.667
  249ACTN    C2 2483   4.660   2.332   3.710
  249ACTN    C3 2484   4.542   2.337   3.798
  249ACTN    H1 2485   4.785   2.508   3.707
  249ACTN    H2 2486   4.628   2.523   3.626
  249ACTN    H3 2487   4.761   2.431   3.550
  249ACTN    H4 2488   4.580   2.339   3.900
  249ACTN    H5 2489   4.482   2.246   3.793
  249ACTN    H6 2490   4.478   2.423   3.781
  250ACTN    C1 2491   3.910   4.164   2.223
  250ACTN    O1 2492   4.063   3.979   2.229
  250ACTN    C2 2493   3.977   4.046   2.288
  250ACTN    C3 2494   3.915   3.980   2.404
  250ACTN    H1 2495   3.941   4.258   2.268
  250ACTN    H2 2496   3.803   4.153   2.234
  250ACTN    H3 2497   3.937   4.168   2.117
  250ACTN    H4 2498   3.965   4.020   2.492
  250ACTN    H5 2499   3.935   3.873   2.407
  250ACTN    H6 2500   3.808   3.997   2.412
  251ACTN    C1 2501   0.992   5.113   3.382
  251ACTN    O1 2502   1.042   5.324   3.485
  251ACTN    C2 2503   0.970   5.260   3.406
  251ACTN    C3 2504   0.841   5.322   3.375
  251ACTN    H1 2505   1.029   5.093   3.282
  251ACTN    H2 2506   0.897   5.062   3.396
  251ACTN    H3 2507   1.066   5.074   3.453
  251ACTN    H4 2508   0.854   5.370   3.278
  251ACTN    H5 2509   0.816   5.404   3.443
  251ACTN    H6 2510   0.758   5.253   3.371
  252ACTN    C1 2511   0.979   5.318   4.446
  252ACTN    O1 2512   1.164   5.166   4.439
  252ACTN    C2 2513   1.097   5.252   4.380
  252ACTN    C3 2514   1.162   5.315   4.265
  252ACTN    H1 2515   0.885   5.288   4.401
  252ACTN    H2 2516   0.990   5.425   4.437
  252ACTN    H3 2517   0.975   5.290   4.552
  252ACTN    H4 2518   1.123   5.266   4.177
  252ACTN    H5 2519   1.270   5.295   4.262
  252ACTN    H6 2520   1.146   5.422   4.258
  253ACTN    C1 2521   7.824   7.020   3.495
  253ACTN    O1 2522   7.655   6.854   3.535
  253ACTN    C2 2523   7.773   6.879   3.504
  253ACTN    C3 2524   7.866   6.767   3.519
  253ACTN    H1 2525   7.845   7.049   3.392
  253ACTN    H2 2526   7.915   7.027   3.554
  253ACTN    H3 2527   7.748   7.090   3.534
  253ACTN    H4 2528   7.880   6.725   3.420
  253ACTN    H5 2529   7.825   6.685   3.579
  253ACTN    H6 2530   7.962   6.795   3.560
  254ACTN    C1 2531   2.730   0.548   0.785
  254ACTN    O1 2532   2.624   0.347   0.707
  254ACTN    C2 2533   2.685   0.405   0.799
  254ACTN    C3 2534   2.671   0.343   0.931
  254ACTN    H1 2535   2.838   0.556   0.778
  254ACTN    H2 2536   2.695   0.603   0.872
  254ACTN    H3 2537   2.688   0.592   0.694
  254ACTN    H4 2538   2.762   0.286   0.947
  254ACTN    H5 2539   2.590   0.270   0.935
  254ACTN    H6 2540   2.659   0.415   1.012
  255ACTN    C1 2541   0.790   3.287   3.737
  255ACTN    O1 2542   0.891   3.420   3.909
  255ACTN    C2 2543   0.894   3.381   3.792
  255ACTN    C3 2544   0.975   3.462   3.701
  255ACTN    H1 2545   0.830   3.188   3.717
  255ACTN    H2 2546   0.751   3.329   3.645
  255ACTN    H3 2547   0.708   3.275   3.810
  255ACTN    H4 2548   1.070   3.409   3.690
  255ACTN    H5 2549   1.002   3.559   3.744
  255ACTN    H6 2550   0.931   3.478   3.604
  256ACTN    C1 2551   7.196   6.571   4.607
  256ACTN    O1 2552   7.132   6.594   4.837
  256ACTN    C2 2553   7.162   6.518   4.743
  256ACTN    C3 2554   7.202   6.383   4.783
  256ACTN    H1 2555   7.119   6.547   4.533
  256ACTN    H2 2556   7.290   6.526   4.575
  256ACTN    H3 2557   7.206   6.680   4.610
  256ACTN    H4 2558   7.115   6.319   4.768
  256ACTN    H5 2559   7.225   6.375   4.890
  256ACTN    H6 2560   7.286   6.343   4.726
  257ACTN    C1 2561   4.427   5.376   6.566
  257ACTN    O1 2562   4.191   5.358   6.603
  257ACTN    C2 2563   4.288   5.332   6.530
  257ACTN    C3 2564   4.266   5.223   6.434
  257ACTN    H1 2565   4.464   5.454   6.500
  257ACTN    H2 2566   4.493   5.289   6.559
  257ACTN    H3 2567   4.429   5.416   6.668
  257ACTN    H4 2568   4.245   5.271   6.339
  257ACTN    H5 2569   4.177   5.165   6.457
  257ACTN    H6 2570   4.351   5.157   6.423
  258ACTN    C1 2571   6.500   7.128   3.061
  258ACTN    O1 2572   6.499   6.925   2.933
  258ACTN    C2 2573   6.555   6.994   3.020
  258ACTN    C3 2574   6.648   6.922   3.107
  258ACTN    H1 2575   6.564   7.210   3.029
  258ACTN    H2 2576   6.492   7.129   3.170
  258ACTN    H3 2577   6.401   7.143   3.017
  258ACTN    H4 2578   6.748   6.942   3.069
  258ACTN    H5 2579   6.637   6.813   3.099
  258ACTN    H6 2580   6.642   6.951   3.211
  259ACTN    C1 2581   1.191   6.877   4.053
  259ACTN    O1 2582   1.271   7.041   4.208
  259ACTN    C2 2583   1.238   6.923   4.188
  259ACTN    C3 2584   1.287   6.827   4.287
  259ACTN    H1 2585   1.085   6.852   4.053
  259ACTN    H2 2586   1.248   6.788   4.026
  259ACTN    H3 2587   1.207   6.956   3.979
  259ACTN    H4 2588   1.204   6.808   4.355
  259ACTN    H5 2589   1.366   6.868   4.351
  259ACTN    H6 2590   1.321   6.733   4.245
  260ACTN    C1 2591   4.405   0.906   3.452
  260ACTN    O1 2592   4.286   1.084   3.343
  260ACTN    C2 2593   4.353   0.979   3.332
  260ACTN    C3 2594   4.339   0.910   3.204
  260ACTN    H1 2595   4.514   0.913   3.460
  260ACTN    H2 2596   4.377   0.802   3.445
  260ACTN    H3 2597   4.364   0.950   3.544
  260ACTN    H4 2598   4.426   0.937   3.145
  260ACTN    H5 2599   4.254   0.947   3.145
  260ACTN    H6 2600   4.332   0.802   3.212
  261ACTN    C1 2601   5.844   6.518   2.039
  261ACTN    O1 2602   5.978   6.371   2.173
  261ACTN    C2 2603   5.932   6.485   2.157
  261ACTN    C3 2604   5.932   6.570   2.276
  261ACTN    H1 2605   5.893   6.584   1.969
  261ACTN    H2 2606   5.754   6.566   2.077
  261ACTN    H3 2607   5.817   6.426   1.986
  261ACTN    H4 2608   6.018   6.635   2.267
  261ACTN    H5 2609   5.949   6.513   2.368
  261ACTN    H6 2610   5.842   6.629   2.288
  262ACTN    C1 2611   7.498   1.308   5.571
  262ACTN    O1 2612   7.275   1.272   5.491
  262ACTN    C2 2613   7.363   1.244   5.574
  262ACTN    C3 2614   7.313   1.181   5.697
  262ACTN    H1 2615   7.576   1.237   5.542
  262ACTN    H2 2616   7.520   1.347   5.669
  262ACTN    H3 2617   7.500   1.389   5.497
  262ACTN    H4 2618   7.331   1.074   5.686
  262ACTN    H5 2619   7.205   1.190   5.708
  262ACTN    H6 2620   7.361   1.217   5.787
  263ACTN    C1 2621   2.399   6.737   7.320
  263ACTN    O1 2622   2.585   6.589   7.289
  263ACTN    C2 2623   2.490   6.625   7.360
  263ACTN    C3 2624   2.447   6.526   7.460
  263ACTN    H1 2625   2.412   6.825   7.383
  263ACTN    H2 2626   2.297   6.703   7.328
  263ACTN    H3 2627   2.421   6.768   7.217
  263ACTN    H4 2628   2.491   6.557   7.554
  263ACTN    H5 2629   2.488   6.427   7.441
  263ACTN    H6 2630   2.340   6.519   7.471
  264ACTN    C1 2631   4.652   6.651   0.304
  264ACTN    O1 2632   4.809   6.658   0.123
  264ACTN    C2 2633   4.767   6.709   0.228
  264ACTN    C3 2634   4.862   6.800   0.294
  264ACTN    H1 2635   4.564   6.715   0.299
  264ACTN    H2 2636   4.682   6.639   0.407
  264ACTN    H3 2637   4.624   6.554   0.262
  264ACTN    H4 2638   4.831   6.901   0.266
  264ACTN    H5 2639   4.964   6.790   0.254
  264ACTN    H6 2640   4.864   6.790   0.401
  265ACTN    C1 2641   3.343   2.779   6.024
  265ACTN    O1 2642   3.573   2.797   6.088
  265ACTN    C2 2643   3.480   2.724   6.048
  265ACTN    C3 2644   3.522   2.598   5.985
  265ACTN    H1 2645   3.271   2.742   6.097
  265ACTN    H2 2646   3.311   2.750   5.924
  265ACTN    H3 2647   3.344   2.889   6.032
  265ACTN    H4 2648   3.510   2.522   6.061
  265ACTN    H5 2649   3.629   2.597   5.961
  265ACTN    H6 2650   3.465   2.572   5.897
  266ACTN    C1 2651   6.302   1.942   6.178
  266ACTN    O1 2652   6.483   1.787   6.149
  266ACTN    C2 2653   6.374   1.831   6.108
  266ACTN    C3 2654   6.342   1.798   5.968
  266ACTN    H1 2655   6.211   1.908   6.227
  266ACTN    H2 2656   6.277   2.018   6.105
  266ACTN    H3 2657   6.367   1.986   6.255
  266ACTN    H4 2658   6.274   1.713   5.972
  266ACTN    H5 2659   6.429   1.761   5.913
  266ACTN    H6 2660   6.296   1.879   5.914
  267ACTN    C1 2661   4.075   3.900   4.338
  267ACTN    O1 2662   4.284   3.880   4.222
  267ACTN    C2 2663   4.160   3.886   4.215
  267ACTN    C3 2664   4.107   3.921   4.083
  267ACTN    H1 2665   4.018   3.809   4.359
  267ACTN    H2 2666   4.007   3.982   4.323
  267ACTN    H3 2667   4.139   3.919   4.425
  267ACTN    H4 2668   4.076   3.828   4.037
  267ACTN    H5 2669   4.183   3.961   4.016
  267ACTN    H6 2670   4.023   3.989   4.087
  268ACTN    C1 2671   1.398   6.034   0.899
  268ACTN    O1 2672   1.277   6.227   0.975
  268ACTN    C2 2673   1.335   6.121   1.004
  268ACTN    C3 2674   1.376   6.109   1.144
  268ACTN    H1 2675   1.343   5.941   0.886
  268ACTN    H2 2676   1.500   6.013   0.928
  268ACTN    H3 2677   1.397   6.087   0.802
  268ACTN    H4 2678   1.300   6.047   1.192
  268ACTN    H5 2679   1.371   6.204   1.198
  268ACTN    H6 2680   1.473   6.065   1.158
  269ACTN    C1 2681   1.148   1.526   4.990
  269ACTN    O1 2682   0.915   1.477   5.024
  269ACTN    C2 2683   1.006   1.506   4.944
  269ACTN    C3 2684   0.978   1.475   4.804
  269ACTN    H1 2685   1.179   1.630   4.982
  269ACTN    H2 2686   1.213   1.465   4.929
  269ACTN    H3 2687   1.157   1.497   5.096
  269ACTN    H4 2688   0.948   1.570   4.758
  269ACTN    H5 2689   0.891   1.410   4.791
  269ACTN    H6 2690   1.062   1.433   4.750
  270ACTN    C1 2691   7.382   3.744   4.158
  270ACTN    O1 2692   7.386   3.873   3.956
  270ACTN    C2 2693   7.362   3.764   4.011
  270ACTN    C3 2694   7.274   3.674   3.935
  270ACTN    H1 2695   7.465   3.677   4.179
  270ACTN    H2 2696   7.291   3.702   4.200
  270ACTN    H3 2697   7.404   3.840   4.206
  270ACTN    H4 2698   7.340   3.602   3.886
  270ACTN    H5 2699   7.223   3.725   3.852
  270ACTN    H6 2700   7.201   3.623   3.995
  271ACTN    C1 2701   6.032   7.265   1.173
  271ACTN    O1 2702   6.264   7.318   1.142
  271ACTN    C2 2703   6.156   7.283   1.091
  271ACTN    C3 2704   6.148   7.302   0.946
  271ACTN    H1 2705   6.003   7.160   1.181
  271ACTN    H2 2706   5.952   7.321   1.126
  271ACTN    H3 2707   6.049   7.302   1.275
  271ACTN    H4 2708   6.167   7.205   0.901
  271ACTN    H5 2709   6.227   7.367   0.907
  271ACTN    H6 2710   6.052   7.339   0.912
  272ACTN    C1 2711   4.667   0.710   0.867
  272ACTN    O1 2712   4.516   0.892   0.904
  272ACTN    C2 2713   4.590   0.806   0.954
  272ACTN    C3 2714   4.632   0.831   1.092
  272ACTN    H1 2715   4.629   0.608   0.876
  272ACTN    H2 2716   4.771   0.712   0.897
  272ACTN    H3 2717   4.658   0.739   0.762
  272ACTN    H4 2718   4.568   0.769   1.154
  272ACTN    H5 2719   4.611   0.933   1.124
  272ACTN    H6 2720   4.735   0.807   1.112
  273ACTN    C1 2721   6.504   0.262   6.582
  273ACTN    O1 2722   6.710   0.204   6.474
  273ACTN    C2 2723   6.585   0.205   6.470
  273ACTN    C3 2724   6.528   0.190   6.336
  273ACTN    H1 2725   6.449   0.185   6.636
  273ACTN    H2 2726   6.433   0.333   6.541
  273ACTN    H3 2727   6.569   0.313   6.654
  273ACTN    H4 2728   6.498   0.086   6.328
  273ACTN    H5 2729   6.602   0.204   6.257
  273ACTN    H6 2730   6.443   0.254   6.317
  274ACTN    C1 2731   0.627   1.300   1.703
  274ACTN    O1 2732   0.799   1.465   1.677
  274ACTN    C2 2733   0.716   1.411   1.752
  274ACTN    C3 2734   0.739   1.430   1.895
  274ACTN    H1 2735   0.523   1.331   1.696
  274ACTN    H2 2736   0.635   1.217   1.773
  274ACTN    H3 2737   0.659   1.267   1.603
  274ACTN    H4 2738   0.672   1.509   1.926
  274ACTN    H5 2739   0.839   1.469   1.916
  274ACTN    H6 2740   0.721   1.342   1.955
  275ACTN    C1 2741   6.956   0.358   2.627
  275ACTN    O1 2742   6.954   0.571   2.517
  275ACTN    C2 2743   7.018   0.470   2.549
  275ACTN    C3 2744   7.141   0.448   2.472
  275ACTN    H1 2745   6.994   0.352   2.728
  275ACTN    H2 2746   6.976   0.265   2.575
  275ACTN    H3 2747   6.847   0.373   2.634
  275ACTN    H4 2748   7.223   0.484   2.534
  275ACTN    H5 2749   7.146   0.509   2.382
  275ACTN    H6 2750   7.159   0.344   2.446
  276ACTN    C1 2751   6.034   4.094   1.967
  276ACTN    O1 2752   6.134   4.301   1.898
  276ACTN    C2 2753   6.141   4.177   1.902
  276ACTN    C3 2754   6.234   4.118   1.805
  276ACTN    H1 2755   6.069   4.047   2.058
  276ACTN    H2 2756   6.004   4.017   1.896
  276ACTN    H3 2757   5.948   4.157   1.992
  276ACTN    H4 2758   6.325   4.096   1.861
  276ACTN    H5 2759   6.265   4.189   1.728
  276ACTN    H6 2760   6.197   4.028   1.759
  277ACTN    C1 2761   4.105   4.810   3.951
  277ACTN    O1 2762   3.912   4.675   3.997
  277ACTN    C2 2763   3.971   4.783   4.014
  277ACTN    C3 2764   3.887   4.894   4.060
  277ACTN    H1 2765   4.185   4.814   4.025
  277ACTN    H2 2766   4.100   4.905   3.899
  277ACTN    H3 2767   4.130   4.730   3.880
  277ACTN    H4 2768   3.903   4.902   4.167
  277ACTN    H5 2769   3.780   4.873   4.049
  277ACTN    H6 2770   3.909   4.989   4.013
  278ACTN    C1 2771   7.485   5.770   5.511
  278ACTN    O1 2772   7.659   5.607   5.547
  278ACTN    C2 2773   7.537   5.630   5.534
  278ACTN    C3 2774   7.456   5.514   5.498
  278ACTN    H1 2775   7.430   5.807   5.597
  278ACTN    H2 2776   7.420   5.768   5.425
  278ACTN    H3 2777   7.569   5.838   5.494
  278ACTN    H4 2778   7.409   5.480   5.590
  278ACTN    H5 2779   7.516   5.429   5.464
  278ACTN    H6 2780   7.379   5.535   5.424
  279ACTN    C1 2781   1.674   2.852   3.385
  279ACTN    O1 2782   1.719   3.086   3.360
  279ACTN    C2 2783   1.714   2.974   3.307
  279ACTN    C3 2784   1.705   2.975   3.160
  279ACTN    H1 2785   1.758   2.784   3.399
  279ACTN    H2 2786   1.596   2.801   3.330
  279ACTN    H3 2787   1.638   2.881   3.484
  279ACTN    H4 2788   1.806   2.955   3.124
  279ACTN    H5 2789   1.681   3.073   3.120
  279ACTN    H6 2790   1.637   2.901   3.120
  280ACTN    C1 2791   2.292   1.823   2.920
  280ACTN    O1 2792   2.274   1.719   3.135
  280ACTN    C2 2793   2.265   1.823   3.068
  280ACTN    C3 2794   2.187   1.930   3.130
  280ACTN    H1 2795   2.384   1.877   2.896
  280ACTN    H2 2796   2.209   1.871   2.870
  280ACTN    H3 2797   2.304   1.721   2.884
  280ACTN    H4 2798   2.260   1.999   3.173
  280ACTN    H5 2799   2.128   1.896   3.215
  280ACTN    H6 2800   2.123   1.983   3.061
  281ACTN    C1 2801   0.246   1.424   6.684
  281ACTN    O1 2802   0.445   1.294   6.716
  281ACTN    C2 2803   0.322   1.295   6.695
  281ACTN    C3 2804   0.267   1.171   6.641
  281ACTN    H1 2805   0.179   1.440   6.768
  281ACTN    H2 2806   0.187   1.421   6.592
  281ACTN    H3 2807   0.316   1.509   6.681
  281ACTN    H4 2808   0.223   1.118   6.725
  281ACTN    H5 2809   0.344   1.104   6.603
  281ACTN    H6 2810   0.193   1.186   6.564
  282ACTN    C1 2811   6.226   0.873   4.514
  282ACTN    O1 2812   6.050   0.714   4.556
  282ACTN    C2 2813   6.147   0.748   4.485
  282ACTN    C3 2814   6.206   0.640   4.405
  282ACTN    H1 2815   6.210   0.949   4.437
  282ACTN    H2 2816   6.331   0.847   4.518
  282ACTN    H3 2817   6.194   0.916   4.610
  282ACTN    H4 2818   6.166   0.653   4.304
  282ACTN    H5 2819   6.172   0.541   4.436
  282ACTN    H6 2820   6.314   0.641   4.401
  283ACTN    C1 2821   2.820   1.140   3.461
  283ACTN    O1 2822   2.961   1.119   3.268
  283ACTN    C2 2823   2.849   1.101   3.319
  283ACTN    C3 2824   2.739   1.083   3.223
  283ACTN    H1 2825   2.805   1.052   3.524
  283ACTN    H2 2826   2.730   1.201   3.462
  283ACTN    H3 2827   2.904   1.196   3.502
  283ACTN    H4 2828   2.721   0.976   3.217
  283ACTN    H5 2829   2.768   1.112   3.121
  283ACTN    H6 2830   2.648   1.134   3.250
  284ACTN    C1 2831   7.047   7.480   4.813
  284ACTN    O1 2832   7.038   7.718   4.837
  284ACTN    C2 2833   7.040   7.607   4.893
  284ACTN    C3 2834   7.078   7.608   5.034
  284ACTN    H1 2835   6.954   7.423   4.818
  284ACTN    H2 2836   7.128   7.419   4.852
  284ACTN    H3 2837   7.066   7.503   4.707
  284ACTN    H4 2838   6.985   7.602   5.091
  284ACTN    H5 2839   7.122   7.703   5.065
  284ACTN    H6 2840   7.143   7.527   5.063
  285ACTN    C1 2841   2.223   5.812   7.745
  285ACTN    O1 2842   2.017   5.694   7.782
  285ACTN    C2 2843   2.122   5.740   7.830
  285ACTN    C3 2844   2.121   5.757   7.976
  285ACTN    H1 2845   2.314   5.754   7.733
  285ACTN    H2 2846   2.246   5.906   7.793
  285ACTN    H3 2847   2.182   5.830   7.645
  285ACTN    H4 2848   2.173   5.671   8.017
  285ACTN    H5 2849   2.020   5.750   8.018
  285ACTN    H6 2850   2.168   5.848   8.010
  286ACTN    C1 2851   2.628   3.335   4.703
  286ACTN    O1 2852   2.435   3.401   4.830
  286ACTN    C2 2853   2.545   3.342   4.828
  286ACTN    C3 2854   2.606   3.321   4.959
  286ACTN    H1 2855   2.632   3.234   4.663
  286ACTN    H2 2856   2.729   3.368   4.727
  286ACTN    H3 2857   2.585   3.400   4.626
  286ACTN    H4 2858   2.585   3.217   4.986
  286ACTN    H5 2859   2.559   3.380   5.038
  286ACTN    H6 2860   2.713   3.337   4.962
  287ACTN    C1 2861   1.451   2.510   7.549
  287ACTN    O1 2862   1.294   2.406   7.400
  287ACTN    C2 2863   1.313   2.466   7.507
  287ACTN    C3 2864   1.194   2.528   7.566
  287ACTN    H1 2865   1.487   2.454   7.635
  287ACTN    H2 2866   1.446   2.615   7.576
  287ACTN    H3 2867   1.522   2.496   7.467
  287ACTN    H4 2868   1.160   2.460   7.644
  287ACTN    H5 2869   1.111   2.534   7.495
  287ACTN    H6 2870   1.212   2.626   7.608
  288ACTN    C1 2871   7.636   6.488   2.616
  288ACTN    O1 2872   7.408   6.445   2.553
  288ACTN    C2 2873   7.489   6.520   2.610
  288ACTN    C3 2874   7.442   6.657   2.631
  288ACTN    H1 2875   7.668   6.463   2.716
  288ACTN    H2 2876   7.691   6.575   2.581
  288ACTN    H3 2877   7.658   6.402   2.551
  288ACTN    H4 2878   7.409   6.663   2.735
  288ACTN    H5 2879   7.353   6.680   2.573
  288ACTN    H6 2880   7.517   6.733   2.613
  289ACTN    C1 2881   1.478   6.000   7.200
  289ACTN    O1 2882   1.267   6.102   7.146
  289ACTN    C2 2883   1.364   6.034   7.108
  289ACTN    C3 2884   1.341   5.956   6.987
  289ACTN    H1 2885   1.570   6.052   7.173
  289ACTN    H2 2886   1.495   5.893   7.195
  289ACTN    H3 2887   1.453   6.030   7.303
  289ACTN    H4 2888   1.385   6.012   6.905
  289ACTN    H5 2889   1.235   5.949   6.961
  289ACTN    H6 2890   1.383   5.856   6.989
  290ACTN    C1 2891   2.403   2.851   3.752
  290ACTN    O1 2892   2.560   3.032   3.771
  290ACTN    C2 2893   2.509   2.931   3.823
  290ACTN    C3 2894   2.585   2.872   3.933
  290ACTN    H1 2895   2.306   2.861   3.799
  290ACTN    H2 2896   2.432   2.747   3.753
  290ACTN    H3 2897   2.393   2.886   3.648
  290ACTN    H4 2898   2.539   2.907   4.025
  290ACTN    H5 2899   2.688   2.910   3.938
  290ACTN    H6 2900   2.587   2.764   3.932
  291ACTN    C1 2901   0.659   1.253   7.371
  291ACTN    O1 2902   0.522   1.394   7.509
  291ACTN    C2 2903   0.623   1.384   7.436
  291ACTN    C3 2904   0.675   1.510   7.384
  291ACTN    H1 2905   0.749   1.210   7.413
  291ACTN    H2 2906   0.675   1.272   7.265
  291ACTN    H3 2907   0.578   1.180   7.384
  291ACTN    H4 2908   0.760   1.536   7.448
  291ACTN    H5 2909   0.605   1.593   7.397
  291ACTN    H6 2910   0.707   1.506   7.281
  292ACTN    C1 2911   7.148   7.296   3.538
  292ACTN    O1 2912   6.956   7.437   3.514
  292ACTN    C2 2913   7.001   7.323   3.538
  292ACTN    C3 2914   6.908   7.233   3.606
  292ACTN    H1 2915   7.179   7.234   3.455
  292ACTN    H2 2916   7.173   7.245   3.631
  292ACTN    H3 2917   7.204   7.390   3.531
  292ACTN    H4 2918   6.866   7.168   3.528
  292ACTN    H5 2919   6.821   7.285   3.647
  292ACTN    H6 2920   6.953   7.172   3.683
  293ACTN    C1 2921   6.304   0.384   0.985
  293ACTN    O1 2922   6.426   0.589   1.013
  293ACTN    C2 2923   6.346   0.523   0.944
  293ACTN    C3 2924   6.265   0.601   0.851
  293ACTN    H1 2925   6.343   0.308   0.917
  293ACTN    H2 2926   6.195   0.380   0.983
  293ACTN    H3 2927   6.341   0.362   1.085
  293ACTN    H4 2928   6.312   0.590   0.753
  293ACTN    H5 2929   6.269   0.709   0.872
  293ACTN    H6 2930   6.161   0.570   0.845
  294ACTN    C1 2931   3.048   2.613   7.529
  294ACTN    O1 2932   3.064   2.390   7.617
  294ACTN    C2 2933   3.018   2.505   7.629
  294ACTN    C3 2934   2.902   2.516   7.719
  294ACTN    H1 2935   3.112   2.690   7.570
  294ACTN    H2 2936   2.954   2.657   7.498
  294ACTN    H3 2937   3.099   2.570   7.442
  294ACTN    H4 2938   2.941   2.553   7.813
  294ACTN    H5 2939   2.858   2.419   7.743
  294ACTN    H6 2940   2.825   2.583   7.683
  295ACTN    C1 2941   4.389   3.478   6.302
  295ACTN    O1 2942   4.571   3.560   6.170
  295ACTN    C2 2943   4.488   3.470   6.189
  295ACTN    C3 2944   4.463   3.383   6.075
  295ACTN    H1 2945   4.409   3.404   6.379
  295ACTN    H2 2946   4.289   3.461   6.262
  295ACTN    H3 2947   4.393   3.577   6.350
  295ACTN    H4 2948   4.521   3.292   6.093
  295ACTN    H5 2949   4.503   3.423   5.981
  295ACTN    H6 2950   4.359   3.357   6.060
  296ACTN    C1 2951   2.206   2.664   4.655
  296ACTN    O1 2952   2.343   2.722   4.467
  296ACTN    C2 2953   2.333   2.713   4.590
  296ACTN    C3 2954   2.459   2.712   4.664
  296ACTN    H1 2955   2.154   2.743   4.708
  296ACTN    H2 2956   2.233   2.585   4.725
  296ACTN    H3 2957   2.138   2.624   4.579
  296ACTN    H4 2958   2.474   2.813   4.701
  296ACTN    H5 2959   2.546   2.694   4.598
  296ACTN    H6 2960   2.462   2.642   4.746
  297ACTN    C1 2961   3.538   4.958   2.840
  297ACTN    O1 2962   3.593   4.953   2.607
  297ACTN    C2 2963   3.632   4.941   2.724
  297ACTN    C3 2964   3.758   4.868   2.741
  297ACTN    H1 2965   3.560   5.049   2.897
  297ACTN    H2 2966   3.548   4.872   2.906
  297ACTN    H3 2967   3.435   4.966   2.804
  297ACTN    H4 2968   3.835   4.944   2.754
  297ACTN    H5 2969   3.788   4.814   2.650
  297ACTN    H6 2970   3.759   4.800   2.825
  298ACTN    C1 2971   3.175   7.128   6.724
  298ACTN    O1 2972   3.126   7.201   6.947
  298ACTN    C2 2973   3.189   7.220   6.842
  298ACTN    C3 2974   3.242   7.356   6.825
  298ACTN    H1 2975   3.265   7.070   6.706
  298ACTN    H2 2976   3.154   7.189   6.636
  298ACTN    H3 2977   3.093   7.058   6.741
  298ACTN    H4 2978   3.347   7.352   6.852
  298ACTN    H5 2979   3.198   7.427   6.895
  298ACTN    H6 2980   3.232   7.395   6.724
  299ACTN    C1 2981   3.168   5.217   3.165
  299ACTN    O1 2982   3.119   5.364   2.982
  299ACTN    C2 2983   3.076   5.289   3.071
  299ACTN    C3 2984   2.935   5.308   3.105
  299ACTN    H1 2985   3.170   5.110   3.147
  299ACTN    H2 2986   3.135   5.236   3.266
  299ACTN    H3 2987   3.271   5.254   3.152
  299ACTN    H4 2988   2.880   5.230   3.053
  299ACTN    H5 2989   2.894   5.401   3.066
  299ACTN    H6 2990   2.914   5.302   3.211
  300ACTN    C1 2991   5.289   3.384   4.258
  300ACTN    O1 2992   5.112   3.225   4.230
  300ACTN    C2 2993   5.184   3.313   4.179
  300ACTN    C3 2994   5.190   3.311   4.032
  300ACTN    H1 2995   5.264   3.488   4.276
  300ACTN    H2 2996   5.383   3.379   4.203
  300ACTN    H3 2997   5.301   3.336   4.356
  300ACTN    H4 2998   5.121   3.389   3.998
  300ACTN    H5 2999   5.150   3.219   3.989
  300ACTN    H6 3000   5.288   3.330   3.992
  301ACTN    C1 3001   4.559   7.788   4.404
  301ACTN    O1 3002   4.352   7.908   4.428
  301ACTN    C2 3003   4.451   7.857   4.483
  301ACTN    C3 3004   4.478   7.906   4.619
  301ACTN    H1 3005   4.560   7.681   4.421
  301ACTN    H2 3006   4.655   7.830   4.433
  301ACTN    H3 3007   4.543   7.804   4.297
  301ACTN    H4 3008   4.439   7.830   4.686
  301ACTN    H5 3009   4.422   7.997   4.642
  301ACTN    H6 3010   4.583   7.922   4.640
  302ACTN    C1 3011   2.792   5.766   1.891
  302ACTN    O1 3012   2.934   5.956   1.858
  302ACTN    C2 3013   2.870   5.862   1.807
  302ACTN    C3 3014   2.841   5.877   1.664
  302ACTN    H1 3015   2.837   5.666   1.892
  302ACTN    H2 3016   2.691   5.759   1.851
  302ACTN    H3 3017   2.788   5.801   1.995
  302ACTN    H4 3018   2.915   5.817   1.612
  302ACTN    H5 3019   2.858   5.979   1.628
  302ACTN    H6 3020   2.742   5.845   1.636
  303ACTN    C1 3021   4.248   2.602   0.616
  303ACTN    O1 3022   4.285   2.694   0.834
  303ACTN    C2 3023   4.224   2.701   0.726
  303ACTN    C3 3024   4.102   2.782   0.728
  303ACTN    H1 3025   4.299   2.646   0.531
  303ACTN    H2 3026   4.152   2.563   0.584
  303ACTN    H3 3027   4.311   2.519   0.653
  303ACTN    H4 3028   4.129   2.879   0.686
  303ACTN    H5 3029   4.069   2.805   0.830
  303ACTN    H6 3030   4.020   2.740   0.672
  304ACTN    C1 3031   2.271   3.465   4.320
  304ACTN    O1 3032   2.081   3.585   4.403
  304ACTN    C2 3033   2.178   3.512   4.428
  304ACTN    C3 3034   2.219   3.509   4.569
  304ACTN    H1 3035   2.261   3.358   4.301
  304ACTN    H2 3036   2.373   3.486   4.352
  304ACTN    H3 3037   2.249   3.518   4.227
  304ACTN    H4 3038   2.176   3.419   4.612
  304ACTN    H5 3039   2.175   3.591   4.627
  304ACTN    H6 3040   2.326   3.509   4.583
  305ACTN    C1 3041   7.088   0.039   0.476
  305ACTN    O1 3042   7.132   0.274   0.449
  305ACTN    C2 3043   7.054   0.185   0.489
  305ACTN    C3 3044   6.952   0.230   0.584
  305ACTN    H1 3045   7.025  -0.011   0.403
  305ACTN    H2 3046   7.073  -0.007   0.573
  305ACTN    H3 3047   7.192   0.027   0.444
  305ACTN    H4 3048   6.861   0.244   0.527
  305ACTN    H5 3049   6.974   0.329   0.625
  305ACTN    H6 3050   6.934   0.161   0.665
  306ACTN    C1 3051   5.399   5.264   1.265
  306ACTN    O1 3052   5.623   5.189   1.219
  306ACTN    C2 3053   5.509   5.216   1.175
  306ACTN    C3 3054   5.503   5.238   1.030
  306ACTN    H1 3055   5.320   5.190   1.276
  306ACTN    H2 3056   5.357   5.354   1.222
  306ACTN    H3 3057   5.439   5.286   1.365
  306ACTN    H4 3058   5.466   5.146   0.986
  306ACTN    H5 3059   5.602   5.253   0.986
  306ACTN    H6 3060   5.439   5.321   1.001
  307ACTN    C1 3061   0.669   3.492   7.612
  307ACTN    O1 3062   0.515   3.439   7.436
  307ACTN    C2 3063   0.586   3.525   7.491
  307ACTN    C3 3064   0.617   3.641   7.408
  307ACTN    H1 3065   0.631   3.542   7.701
  307ACTN    H2 3066   0.771   3.526   7.593
  307ACTN    H3 3067   0.668   3.384   7.630
  307ACTN    H4 3068   0.548   3.720   7.439
  307ACTN    H5 3069   0.593   3.625   7.302
  307ACTN    H6 3070   0.719   3.676   7.417
  308ACTN    C1 3071   6.775   2.590   4.127
  308ACTN    O1 3072   6.608   2.760   4.155
  308ACTN    C2 3073   6.682   2.698   4.078
  308ACTN    C3 3074   6.644   2.704   3.936
  308ACTN    H1 3075   6.880   2.621   4.120
  308ACTN    H2 3076   6.760   2.502   4.066
  308ACTN    H3 3077   6.755   2.568   4.232
  308ACTN    H4 3078   6.708   2.779   3.891
  308ACTN    H5 3079   6.542   2.741   3.922
  308ACTN    H6 3080   6.654   2.610   3.884
  309ACTN    C1 3081   3.145   6.232   0.446
  309ACTN    O1 3082   3.085   6.460   0.398
  309ACTN    C2 3083   3.102   6.371   0.484
  309ACTN    C3 3084   3.120   6.419   0.621
  309ACTN    H1 3085   3.065   6.159   0.461
  309ACTN    H2 3086   3.230   6.204   0.506
  309ACTN    H3 3087   3.172   6.229   0.339
  309ACTN    H4 3088   3.024   6.408   0.670
  309ACTN    H5 3089   3.141   6.526   0.625
  309ACTN    H6 3090   3.196   6.366   0.677
  310ACTN    C1 3091   0.892   7.292   0.111
  310ACTN    O1 3092   0.854   7.057   0.134
  310ACTN    C2 3093   0.896   7.162   0.185
  310ACTN    C3 3094   0.908   7.160   0.331
  310ACTN    H1 3095   0.991   7.327   0.083
  310ACTN    H2 3096   0.844   7.367   0.174
  310ACTN    H3 3097   0.834   7.281   0.018
  310ACTN    H4 3098   1.013   7.142   0.353
  310ACTN    H5 3099   0.856   7.075   0.376
  310ACTN    H6 3100   0.876   7.251   0.379
  311ACTN    C1 3101   3.027   3.291   4.108
  311ACTN    O1 3102   3.081   3.059   4.082
  311ACTN    C2 3103   3.057   3.168   4.027
  311ACTN    C3 3104   3.103   3.180   3.889
  311ACTN    H1 3105   2.923   3.322   4.097
  311ACTN    H2 3106   3.091   3.371   4.074
  311ACTN    H3 3107   3.044   3.272   4.214
  311ACTN    H4 3108   3.015   3.163   3.826
  311ACTN    H5 3109   3.172   3.100   3.860
  311ACTN    H6 3110   3.147   3.276   3.864
  312ACTN    C1 3111   2.801   5.044   4.113
  312ACTN    O1 3112   2.567   5.089   4.136
  312ACTN    C2 3113   2.683   5.122   4.164
  312ACTN    C3 3114   2.699   5.260   4.209
  312ACTN    H1 3115   2.852   4.990   4.194
  312ACTN    H2 3116   2.871   5.113   4.067
  312ACTN    H3 3117   2.768   4.969   4.040
  312ACTN    H4 3118   2.705   5.255   4.318
  312ACTN    H5 3119   2.611   5.321   4.189
  312ACTN    H6 3120   2.787   5.309   4.170
  313ACTN    C1 3121   6.413   4.266   4.897
  313ACTN    O1 3122   6.616   4.146   4.945
  313ACTN    C2 3123   6.561   4.242   4.888
  313ACTN    C3 3124   6.652   4.351   4.850
  313ACTN    H1 3125   6.363   4.248   4.802
  313ACTN    H2 3126   6.397   4.369   4.927
  313ACTN    H3 3127   6.369   4.198   4.971
  313ACTN    H4 3128   6.673   4.338   4.744
  313ACTN    H5 3129   6.749   4.344   4.899
  313ACTN    H6 3130   6.611   4.450   4.867
  314ACTN    C1 3131   0.905   5.449   1.006
  314ACTN    O1 3132   1.033   5.254   0.949
  314ACTN    C2 3133   0.921   5.308   0.957
  314ACTN    C3 3134   0.817   5.244   0.876
  314ACTN    H1 3135   0.856   5.453   1.103
  314ACTN    H2 3136   0.846   5.504   0.933
  314ACTN    H3 3137   1.004   5.496   1.017
  314ACTN    H4 3138   0.759   5.183   0.945
  314ACTN    H5 3139   0.857   5.174   0.803
  314ACTN    H6 3140   0.751   5.314   0.826
  315ACTN    C1 3141   0.484   7.348   4.712
  315ACTN    O1 3142   0.549   7.157   4.582
  315ACTN    C2 3143   0.553   7.216   4.692
  315ACTN    C3 3144   0.589   7.132   4.806
  315ACTN    H1 3145   0.555   7.429   4.725
  315ACTN    H2 3146   0.423   7.340   4.802
  315ACTN    H3 3147   0.421   7.371   4.626
  315ACTN    H4 3148   0.695   7.151   4.825
  315ACTN    H5 3149   0.584   7.025   4.783
  315ACTN    H6 3150   0.532   7.152   4.895
  316ACTN    C1 3151   2.700   5.910   6.088
  316ACTN    O1 3152   2.781   5.942   6.312
  316ACTN    C2 3153   2.736   5.993   6.208
  316ACTN    C3 3154   2.680   6.127   6.225
  316ACTN    H1 3155   2.769   5.927   6.005
  316ACTN    H2 3156   2.600   5.935   6.057
  316ACTN    H3 3157   2.706   5.803   6.113
  316ACTN    H4 3158   2.757   6.197   6.191
  316ACTN    H5 3159   2.663   6.154   6.330
  316ACTN    H6 3160   2.588   6.144   6.169
  317ACTN    C1 3161   4.146   4.649   6.646
  317ACTN    O1 3162   3.975   4.769   6.526
  317ACTN    C2 3163   4.049   4.669   6.533
  317ACTN    C3 3164   4.006   4.554   6.452
  317ACTN    H1 3165   4.249   4.659   6.613
  317ACTN    H2 3166   4.131   4.550   6.687
  317ACTN    H3 3167   4.129   4.725   6.723
  317ACTN    H4 3168   4.066   4.557   6.361
  317ACTN    H5 3169   3.903   4.565   6.416
  317ACTN    H6 3170   4.017   4.459   6.500
  318ACTN    C1 3171   6.317   4.215   2.698
  318ACTN    O1 3172   6.140   4.371   2.657
  318ACTN    C2 3173   6.193   4.290   2.735
  318ACTN    C3 3174   6.154   4.304   2.876
  318ACTN    H1 3175   6.298   4.109   2.682
  318ACTN    H2 3176   6.390   4.227   2.778
  318ACTN    H3 3177   6.358   4.255   2.604
  318ACTN    H4 3178   6.078   4.228   2.894
  318ACTN    H5 3179   6.103   4.399   2.896
  318ACTN    H6 3180   6.235   4.292   2.946
  319ACTN    C1 3181   2.659   2.890   5.436
  319ACTN    O1 3182   2.818   3.070   5.441
  319ACTN    C2 3183   2.717   3.019   5.388
  319ACTN    C3 3184   2.636   3.112   5.308
  319ACTN    H1 3185   2.673   2.809   5.364
  319ACTN    H2 3186   2.553   2.904   5.453
  319ACTN    H3 3187   2.708   2.859   5.530
  319ACTN    H4 3188   2.664   3.095   5.204
  319ACTN    H5 3189   2.662   3.217   5.326
  319ACTN    H6 3190   2.530   3.099   5.320
  320ACTN    C1 3191   5.203   3.568   2.598
  320ACTN    O1 3192   5.009   3.525   2.465
  320ACTN    C2 3193   5.066   3.512   2.574
  320ACTN    C3 3194   4.979   3.478   2.687
  320ACTN    H1 3195   5.279   3.490   2.608
  320ACTN    H2 3196   5.201   3.627   2.690
  320ACTN    H3 3197   5.233   3.632   2.514
  320ACTN    H4 3198   4.989   3.371   2.702
  320ACTN    H5 3199   4.873   3.493   2.663
  320ACTN    H6 3200   5.003   3.530   2.778
  321ACTN    C1 3201   0.860   7.330   3.712
  321ACTN    O1 3202   0.792   7.102   3.682
  321ACTN    C2 3203   0.800   7.216   3.634
  321ACTN    C3 3204   0.789   7.224   3.488
  321ACTN    H1 3205   0.785   7.403   3.742
  321ACTN    H2 3206   0.935   7.378   3.650
  321ACTN    H3 3207   0.906   7.292   3.804
  321ACTN    H4 3208   0.687   7.254   3.467
  321ACTN    H5 3209   0.800   7.126   3.440
  321ACTN    H6 3210   0.858   7.294   3.442
  322ACTN    C1 3211   7.851   1.180   2.957
  322ACTN    O1 3212   7.955   1.347   2.820
  322ACTN    C2 3213   7.850   1.300   2.867
  322ACTN    C3 3214   7.736   1.392   2.867
  322ACTN    H1 3215   7.807   1.093   2.909
  322ACTN    H2 3216   7.795   1.204   3.047
  322ACTN    H3 3217   7.955   1.154   2.984
  322ACTN    H4 3218   7.675   1.364   2.781
  322ACTN    H5 3219   7.765   1.496   2.848
  322ACTN    H6 3220   7.676   1.388   2.957
  323ACTN    C1 3221   1.281   7.640   4.336
  323ACTN    O1 3222   1.089   7.783   4.360
  323ACTN    C2 3223   1.174   7.710   4.415
  323ACTN    C3 3224   1.190   7.732   4.559
  323ACTN    H1 3225   1.266   7.532   4.334
  323ACTN    H2 3226   1.377   7.662   4.381
  323ACTN    H3 3227   1.280   7.675   4.232
  323ACTN    H4 3228   1.134   7.653   4.608
  323ACTN    H5 3229   1.143   7.825   4.593
  323ACTN    H6 3230   1.293   7.729   4.593
  324ACTN    C1 3231   0.868   0.343   0.390
  324ACTN    O1 3232   0.896   0.576   0.441
  324ACTN    C2 3233   0.894   0.459   0.482
  324ACTN    C3 3234   0.959   0.437   0.612
  324ACTN    H1 3235   0.771   0.297   0.409
  324ACTN    H2 3236   0.946   0.269   0.404
  324ACTN    H3 3237   0.868   0.378   0.286
  324ACTN    H4 3238   0.880   0.434   0.686
  324ACTN    H5 3239   1.021   0.522   0.642
  324ACTN    H6 3240   1.018   0.346   0.617
  325ACTN    C1 3241   6.627   0.489   0.717
  325ACTN    O1 3242   6.780   0.304   0.724
  325ACTN    C2 3243   6.730   0.402   0.782
  325ACTN    C3 3244   6.746   0.401   0.928
  325ACTN    H1 3245   6.665   0.588   0.694
  325ACTN    H2 3246   6.543   0.498   0.785
  325ACTN    H3 3247   6.594   0.443   0.623
  325ACTN    H4 3248   6.830   0.467   0.950
  325ACTN    H5 3249   6.777   0.304   0.967
  325ACTN    H6 3250   6.658   0.434   0.982
  326ACTN    C1 3251   7.396   0.840   1.393
  326ACTN    O1 3252   7.160   0.877   1.411
  326ACTN    C2 3253   7.269   0.862   1.469
  326ACTN    C3 3254   7.272   0.909   1.608
  326ACTN    H1 3255   7.434   0.739   1.405
  326ACTN    H2 3256   7.470   0.911   1.429
  326ACTN    H3 3257   7.379   0.856   1.285
  326ACTN    H4 3258   7.260   0.821   1.670
  326ACTN    H5 3259   7.187   0.973   1.633
  326ACTN    H6 3260   7.364   0.960   1.635
  327ACTN    C1 3261   5.042   2.732   5.616
  327ACTN    O1 3262   4.907   2.789   5.806
  327ACTN    C2 3263   4.929   2.804   5.685
  327ACTN    C3 3264   4.817   2.858   5.607
  327ACTN    H1 3265   5.122   2.800   5.587
  327ACTN    H2 3266   5.002   2.683   5.528
  327ACTN    H3 3267   5.086   2.657   5.684
  327ACTN    H4 3268   4.838   2.964   5.594
  327ACTN    H5 3269   4.723   2.855   5.662
  327ACTN    H6 3270   4.804   2.812   5.510
  328ACTN    C1 3271   6.528   2.378   5.028
  328ACTN    O1 3272   6.661   2.454   5.213
  328ACTN    C2 3273   6.639   2.458   5.091
  328ACTN    C3 3274   6.696   2.573   5.021
  328ACTN    H1 3275   6.566   2.297   4.966
  328ACTN    H2 3276   6.469   2.445   4.966
  328ACTN    H3 3277   6.465   2.334   5.106
  328ACTN    H4 3278   6.788   2.538   4.974
  328ACTN    H5 3279   6.729   2.652   5.090
  328ACTN    H6 3280   6.632   2.616   4.946
  329ACTN    C1 3281   2.250   6.610   3.826
  329ACTN    O1 3282   2.199   6.840   3.872
  329ACTN    C2 3283   2.167   6.734   3.814
  329ACTN    C3 3284   2.027   6.726   3.774
  329ACTN    H1 3285   2.300   6.585   3.732
  329ACTN    H2 3286   2.185   6.528   3.855
  329ACTN    H3 3287   2.329   6.624   3.902
  329ACTN    H4 3288   2.024   6.750   3.667
  329ACTN    H5 3289   1.965   6.803   3.820
  329ACTN    H6 3290   1.981   6.629   3.790
  330ACTN    C1 3291   4.048   2.417   2.617
  330ACTN    O1 3292   4.035   2.194   2.707
  330ACTN    C2 3293   4.051   2.316   2.729
  330ACTN    C3 3294   4.028   2.357   2.867
  330ACTN    H1 3295   4.146   2.460   2.600
  330ACTN    H2 3296   3.979   2.495   2.644
  330ACTN    H3 3297   4.016   2.368   2.524
  330ACTN    H4 3298   4.126   2.367   2.913
  330ACTN    H5 3299   3.977   2.281   2.927
  330ACTN    H6 3300   3.974   2.451   2.877
  331ACTN    C1 3301   4.699   4.262   2.140
  331ACTN    O1 3302   4.791   4.040   2.131
  331ACTN    C2 3303   4.743   4.137   2.069
  331ACTN    C3 3304   4.773   4.139   1.925
  331ACTN    H1 3305   4.591   4.273   2.138
  331ACTN    H2 3306   4.745   4.347   2.091
  331ACTN    H3 3307   4.730   4.258   2.245
  331ACTN    H4 3308   4.684   4.101   1.876
  331ACTN    H5 3309   4.852   4.070   1.898
  331ACTN    H6 3310   4.796   4.237   1.887
  332ACTN    C1 3311   7.110   5.565   2.802
  332ACTN    O1 3312   7.347   5.532   2.813
  332ACTN    C2 3313   7.245   5.538   2.742
  332ACTN    C3 3314   7.269   5.562   2.600
  332ACTN    H1 3315   7.045   5.478   2.797
  332ACTN    H2 3316   7.064   5.647   2.748
  332ACTN    H3 3317   7.121   5.592   2.908
  332ACTN    H4 3318   7.261   5.465   2.551
  332ACTN    H5 3319   7.372   5.595   2.579
  332ACTN    H6 3320   7.200   5.632   2.554
  333ACTN    C1 3321   2.479   3.439   2.040
  333ACTN    O1 3322   2.323   3.459   1.859
  333ACTN    C2 3323   2.341   3.452   1.981
  333ACTN    C3 3324   2.229   3.499   2.064
  333ACTN    H1 3325   2.495   3.341   2.084
  333ACTN    H2 3326   2.490   3.515   2.117
  333ACTN    H3 3327   2.554   3.453   1.961
  333ACTN    H4 3328   2.175   3.410   2.096
  333ACTN    H5 3329   2.156   3.556   2.006
  333ACTN    H6 3330   2.259   3.556   2.150
  334ACTN    C1 3331   1.919   5.610   0.483
  334ACTN    O1 3332   2.009   5.391   0.515
  334ACTN    C2 3333   1.977   5.500   0.566
  334ACTN    C3 3334   1.959   5.498   0.711
  334ACTN    H1 3335   1.988   5.694   0.472
  334ACTN    H2 3336   1.828   5.645   0.531
  334ACTN    H3 3337   1.896   5.574   0.382
  334ACTN    H4 3338   2.051   5.538   0.754
  334ACTN    H5 3339   1.952   5.396   0.752
  334ACTN    H6 3340   1.874   5.556   0.746
  335ACTN    C1 3341   5.976   0.478   0.606
  335ACTN    O1 3342   5.907   0.253   0.557
  335ACTN    C2 3343   5.947   0.363   0.514
  335ACTN    C3 3344   6.006   0.359   0.380
  335ACTN    H1 3345   5.904   0.559   0.593
  335ACTN    H2 3346   6.075   0.515   0.584
  335ACTN    H3 3347   5.970   0.445   0.710
  335ACTN    H4 3348   5.929   0.394   0.312
  335ACTN    H5 3349   6.028   0.257   0.346
  335ACTN    H6 3350   6.095   0.419   0.368
  336ACTN    C1 3351   2.722   7.258   6.142
  336ACTN    O1 3352   2.925   7.281   6.269
  336ACTN    C2 3353   2.812   7.326   6.242
  336ACTN    C3 3354   2.756   7.418   6.342
  336ACTN    H1 3355   2.710   7.318   6.052
  336ACTN    H2 3356   2.625   7.244   6.188
  336ACTN    H3 3357   2.764   7.162   6.113
  336ACTN    H4 3358   2.774   7.519   6.303
  336ACTN    H5 3359   2.811   7.416   6.436
  336ACTN    H6 3360   2.651   7.404   6.361
  337ACTN    C1 3361   3.727   7.541   0.513
  337ACTN    O1 3362   3.596   7.619   0.328
  337ACTN    C2 3363   3.709   7.606   0.379
  337ACTN    C3 3364   3.821   7.616   0.285
  337ACTN    H1 3365   3.758   7.613   0.589
  337ACTN    H2 3366   3.803   7.464   0.504
  337ACTN    H3 3367   3.633   7.497   0.547
  337ACTN    H4 3368   3.860   7.717   0.296
  337ACTN    H5 3369   3.789   7.609   0.181
  337ACTN    H6 3370   3.900   7.544   0.303
  338ACTN    C1 3371   0.967   0.739   6.263
  338ACTN    O1 3372   1.082   0.768   6.054
  338ACTN    C2 3373   1.012   0.695   6.127
  338ACTN    C3 3374   0.941   0.588   6.056
  338ACTN    H1 3375   1.016   0.682   6.342
  338ACTN    H2 3376   0.860   0.725   6.270
  338ACTN    H3 3377   0.992   0.845   6.279
  338ACTN    H4 3378   1.000   0.497   6.072
  338ACTN    H5 3379   0.941   0.602   5.948
  338ACTN    H6 3380   0.840   0.572   6.090
  339ACTN    C1 3381   2.659   0.526   5.458
  339ACTN    O1 3382   2.473   0.585   5.598
  339ACTN    C2 3383   2.523   0.504   5.518
  339ACTN    C3 3384   2.464   0.370   5.519
  339ACTN    H1 3385   2.654   0.549   5.352
  339ACTN    H2 3386   2.718   0.436   5.472
  339ACTN    H3 3387   2.708   0.611   5.507
  339ACTN    H4 3388   2.395   0.366   5.435
  339ACTN    H5 3389   2.401   0.353   5.607
  339ACTN    H6 3390   2.536   0.290   5.511
  340ACTN    C1 3391   7.655   4.244   5.976
  340ACTN    O1 3392   7.750   4.046   5.879
  340ACTN    C2 3393   7.652   4.100   5.933
  340ACTN    C3 3394   7.524   4.032   5.911
  340ACTN    H1 3395   7.654   4.253   6.085
  340ACTN    H2 3396   7.568   4.294   5.936
  340ACTN    H3 3397   7.747   4.292   5.940
  340ACTN    H4 3398   7.505   3.974   6.002
  340ACTN    H5 3399   7.529   3.957   5.831
  340ACTN    H6 3400   7.441   4.098   5.892
  341ACTN    C1 3401   6.214   1.671   4.306
  341ACTN    O1 3402   6.188   1.457   4.411
  341ACTN    C2 3403   6.241   1.569   4.413
  341ACTN    C3 3404   6.294   1.610   4.543
  341ACTN    H1 3405   6.301   1.689   4.243
  341ACTN    H2 3406   6.186   1.764   4.354
  341ACTN    H3 3407   6.133   1.637   4.241
  341ACTN    H4 3408   6.402   1.592   4.540
  341ACTN    H5 3409   6.259   1.547   4.625
  341ACTN    H6 3410   6.276   1.714   4.568
  342ACTN    C1 3411   1.348   3.626   1.052
  342ACTN    O1 3412   1.411   3.749   0.856
  342ACTN    C2 3413   1.413   3.741   0.980
  342ACTN    C3 3414   1.517   3.821   1.046
  342ACTN    H1 3415   1.260   3.658   1.108
  342ACTN    H2 3416   1.421   3.584   1.121
  342ACTN    H3 3417   1.316   3.550   0.980
  342ACTN    H4 3418   1.466   3.911   1.083
  342ACTN    H5 3419   1.592   3.859   0.976
  342ACTN    H6 3420   1.566   3.772   1.128
  343ACTN    C1 3421   5.054   1.933   1.951
  343ACTN    O1 3422   5.274   1.978   1.865
  343ACTN    C2 3423   5.157   1.941   1.842
  343ACTN    C3 3424   5.117   1.947   1.701
  343ACTN    H1 3425   5.028   1.831   1.975
  343ACTN    H2 3426   4.966   1.986   1.918
  343ACTN    H3 3427   5.093   1.979   2.043
  343ACTN    H4 3428   5.126   1.845   1.663
  343ACTN    H5 3429   5.186   2.005   1.640
  343ACTN    H6 3430   5.016   1.982   1.686
  344ACTN    C1 3431   3.326   4.510   4.840
  344ACTN    O1 3432   3.566   4.499   4.826
  344ACTN    C2 3433   3.456   4.495   4.767
  344ACTN    C3 3434   3.463   4.518   4.622
  344ACTN    H1 3435   3.270   4.417   4.843
  344ACTN    H2 3436   3.267   4.586   4.790
  344ACTN    H3 3437   3.345   4.540   4.944
  344ACTN    H4 3438   3.459   4.420   4.576
  344ACTN    H5 3439   3.560   4.559   4.591
  344ACTN    H6 3440   3.384   4.580   4.583
  345ACTN    C1 3441   6.379   5.636   1.693
  345ACTN    O1 3442   6.162   5.534   1.686
  345ACTN    C2 3443   6.248   5.602   1.627
  345ACTN    C3 3444   6.235   5.608   1.481
  345ACTN    H1 3445   6.387   5.742   1.716
  345ACTN    H2 3446   6.460   5.608   1.625
  345ACTN    H3 3447   6.390   5.580   1.787
  345ACTN    H4 3448   6.187   5.703   1.459
  345ACTN    H5 3449   6.165   5.533   1.443
  345ACTN    H6 3450   6.328   5.600   1.428
  346ACTN    C1 3451   6.355   2.700   2.323
  346ACTN    O1 3452   6.202   2.625   2.493
  346ACTN    C2 3453   6.220   2.657   2.374
  346ACTN    C3 3454   6.117   2.610   2.281
  346ACTN    H1 3455   6.357   2.806   2.298
  346ACTN    H2 3456   6.378   2.643   2.235
  346ACTN    H3 3457   6.431   2.683   2.400
  346ACTN    H4 3458   6.051   2.695   2.264
  346ACTN    H5 3459   6.053   2.533   2.325
  346ACTN    H6 3460   6.156   2.575   2.186
  347ACTN    C1 3461   5.274   4.080   6.694
  347ACTN    O1 3462   5.115   3.957   6.564
  347ACTN    C2 3463   5.152   3.994   6.677
  347ACTN    C3 3464   5.050   3.988   6.782
  347ACTN    H1 3465   5.355   4.026   6.743
  347ACTN    H2 3466   5.248   4.166   6.755
  347ACTN    H3 3467   5.311   4.114   6.596
  347ACTN    H4 3468   5.070   3.897   6.838
  347ACTN    H5 3469   4.949   3.975   6.741
  347ACTN    H6 3470   5.050   4.073   6.849
  348ACTN    C1 3471   4.428   2.010   7.683
  348ACTN    O1 3472   4.236   2.142   7.739
  348ACTN    C2 3473   4.289   2.029   7.735
  348ACTN    C3 3474   4.227   1.928   7.822
  348ACTN    H1 3475   4.429   1.957   7.587
  348ACTN    H2 3476   4.485   1.953   7.756
  348ACTN    H3 3477   4.476   2.107   7.666
  348ACTN    H4 3478   4.163   1.868   7.757
  348ACTN    H5 3479   4.159   1.972   7.895
  348ACTN    H6 3480   4.298   1.864   7.872
  349ACTN    C1 3481   6.757   1.004   4.112
  349ACTN    O1 3482   6.579   1.065   4.260
  349ACTN    C2 3483   6.699   1.036   4.246
  349ACTN    C3 3484   6.786   1.077   4.357
  349ACTN    H1 3485   6.784   0.899   4.103
  349ACTN    H2 3486   6.846   1.065   4.097
  349ACTN    H3 3487   6.684   1.025   4.033
  349ACTN    H4 3488   6.801   0.988   4.418
  349ACTN    H5 3489   6.737   1.148   4.424
  349ACTN    H6 3490   6.881   1.117   4.326
  350ACTN    C1 3491   5.769   5.123   2.614
  350ACTN    O1 3492   5.634   4.945   2.526
  350ACTN    C2 3493   5.691   4.995   2.625
  350ACTN    C3 3494   5.643   4.947   2.755
  350ACTN    H1 3495   5.876   5.107   2.625
  350ACTN    H2 3496   5.735   5.190   2.692
  350ACTN    H3 3497   5.753   5.168   2.515
  350ACTN    H4 3498   5.715   4.873   2.788
  350ACTN    H5 3499   5.548   4.894   2.748
  350ACTN    H6 3500   5.635   5.025   2.830
  351ACTN    C1 3501   2.061   0.095   7.720
  351ACTN    O1 3502   1.978   0.205   7.524
  351ACTN    C2 3503   1.954   0.161   7.638
  351ACTN    C3 3504   1.833   0.215   7.701
  351ACTN    H1 3505   2.044  -0.012   7.732
  351ACTN    H2 3506   2.062   0.142   7.818
  351ACTN    H3 3507   2.159   0.108   7.672
  351ACTN    H4 3508   1.756   0.139   7.688
  351ACTN    H5 3509   1.795   0.303   7.649
  351ACTN    H6 3510   1.845   0.237   7.806
  352ACTN    C1 3511   6.325   0.200   3.938
  352ACTN    O1 3512   6.457   0.359   3.815
  352ACTN    C2 3513   6.436   0.300   3.923
  352ACTN    C3 3514   6.548   0.301   4.017
  352ACTN    H1 3515   6.245   0.236   4.002
  352ACTN    H2 3516   6.367   0.109   3.981
  352ACTN    H3 3517   6.281   0.178   3.840
  352ACTN    H4 3518   6.526   0.380   4.089
  352ACTN    H5 3519   6.642   0.332   3.970
  352ACTN    H6 3520   6.564   0.208   4.069
  353ACTN    C1 3521   4.881   1.198   4.214
  353ACTN    O1 3522   4.735   1.074   4.069
  353ACTN    C2 3523   4.801   1.178   4.088
  353ACTN    C3 3524   4.829   1.257   3.968
  353ACTN    H1 3525   4.838   1.275   4.278
  353ACTN    H2 3526   4.982   1.228   4.185
  353ACTN    H3 3527   4.885   1.106   4.272
  353ACTN    H4 3528   4.756   1.338   3.967
  353ACTN    H5 3529   4.810   1.201   3.876
  353ACTN    H6 3530   4.929   1.298   3.965
  354ACTN    C1 3531   3.175   5.871   1.660
  354ACTN    O1 3532   3.322   6.060   1.648
  354ACTN    C2 3533   3.297   5.949   1.698
  354ACTN    C3 3534   3.412   5.882   1.759
  354ACTN    H1 3535   3.103   5.866   1.742
  354ACTN    H2 3536   3.205   5.771   1.633
  354ACTN    H3 3537   3.124   5.919   1.575
  354ACTN    H4 3538   3.404   5.899   1.866
  354ACTN    H5 3539   3.508   5.927   1.731
  354ACTN    H6 3540   3.417   5.776   1.740
  355ACTN    C1 3541   6.085   4.188   7.691
  355ACTN    O1 3542   6.227   4.323   7.553
  355ACTN    C2 3543   6.172   4.307   7.663
  355ACTN    C3 3544   6.229   4.385   7.773
  355ACTN    H1 3545   5.980   4.215   7.700
  355ACTN    H2 3546   6.118   4.142   7.784
  355ACTN    H3 3547   6.094   4.115   7.609
  355ACTN    H4 3548   6.164   4.472   7.786
  355ACTN    H5 3549   6.327   4.427   7.749
  355ACTN    H6 3550   6.236   4.331   7.867
  356ACTN    C1 3551   2.094   6.455   2.779
  356ACTN    O1 3552   2.136   6.688   2.820
  356ACTN    C2 3553   2.061   6.590   2.837
  356ACTN    C3 3554   1.968   6.602   2.949
  356ACTN    H1 3555   2.026   6.428   2.699
  356ACTN    H2 3556   2.088   6.381   2.858
  356ACTN    H3 3557   2.195   6.456   2.736
  356ACTN    H4 3558   1.872   6.630   2.906
  356ACTN    H5 3559   1.993   6.684   3.016
  356ACTN    H6 3560   1.956   6.511   3.007
  357ACTN    C1 3561   1.042   6.464   7.291
  357ACTN    O1 3562   1.136   6.284   7.418
  357ACTN    C2 3563   1.085   6.397   7.418
  357ACTN    C3 3564   1.030   6.440   7.547
  357ACTN    H1 3565   1.105   6.550   7.266
  357ACTN    H2 3566   0.939   6.497   7.303
  357ACTN    H3 3567   1.049   6.393   7.207
  357ACTN    H4 3568   1.105   6.506   7.591
  357ACTN    H5 3569   1.021   6.358   7.618
  357ACTN    H6 3570   0.935   6.492   7.540
  358ACTN    C1 3571   5.240   1.404   6.763
  358ACTN    O1 3572   5.455   1.303   6.799
  358ACTN    C2 3573   5.355   1.357   6.848
  358ACTN    C3 3574   5.335   1.334   6.992
  358ACTN    H1 3575   5.234   1.513   6.759
  358ACTN    H2 3576   5.148   1.364   6.804
  358ACTN    H3 3577   5.254   1.369   6.659
  358ACTN    H4 3578   5.373   1.423   7.042
  358ACTN    H5 3579   5.398   1.253   7.030
  358ACTN    H6 3580   5.233   1.317   7.020
  359ACTN    C1 3581   2.379   2.356   6.628
  359ACTN    O1 3582   2.496   2.539   6.524
  359ACTN    C2 3583   2.409   2.450   6.515
  359ACTN    C3 3584   2.311   2.471   6.407
  359ACTN    H1 3585   2.412   2.255   6.606
  359ACTN    H2 3586   2.273   2.357   6.646
  359ACTN    H3 3587   2.432   2.389   6.718
  359ACTN    H4 3588   2.343   2.408   6.324
  359ACTN    H5 3589   2.314   2.573   6.367
  359ACTN    H6 3590   2.210   2.446   6.435
  360ACTN    C1 3591   5.019   5.757   7.209
  360ACTN    O1 3592   5.223   5.636   7.174
  360ACTN    C2 3593   5.110   5.667   7.131
  360ACTN    C3 3594   5.091   5.647   6.988
  360ACTN    H1 3595   4.933   5.703   7.249
  360ACTN    H2 3596   4.985   5.836   7.143
  360ACTN    H3 3597   5.072   5.800   7.295
  360ACTN    H4 3598   5.037   5.553   6.977
  360ACTN    H5 3599   5.185   5.632   6.934
  360ACTN    H6 3600   5.035   5.726   6.939
  361ACTN    C1 3601   0.280   1.664   7.495
  361ACTN    O1 3602   0.295   1.904   7.490
  361ACTN    C2 3603   0.299   1.797   7.427
  361ACTN    C3 3604   0.280   1.810   7.282
  361ACTN    H1 3605   0.372   1.606   7.497
  361ACTN    H2 3606   0.204   1.609   7.440
  361ACTN    H3 3607   0.248   1.680   7.599
  361ACTN    H4 3608   0.379   1.806   7.238
  361ACTN    H5 3609   0.241   1.908   7.254
  361ACTN    H6 3610   0.218   1.733   7.239
  362ACTN    C1 3611   1.371   4.261   4.774
  362ACTN    O1 3612   1.611   4.249   4.764
  362ACTN    C2 3613   1.504   4.192   4.793
  362ACTN    C3 3614   1.511   4.047   4.805
  362ACTN    H1 3615   1.324   4.286   4.870
  362ACTN    H2 3616   1.306   4.194   4.719
  362ACTN    H3 3617   1.385   4.354   4.719
  362ACTN    H4 3618   1.518   4.025   4.911
  362ACTN    H5 3619   1.604   4.006   4.763
  362ACTN    H6 3620   1.427   3.995   4.763
  363ACTN    C1 3621   7.006   1.201   3.252
  363ACTN    O1 3622   7.219   1.123   3.329
  363ACTN    C2 3623   7.101   1.151   3.357
  363ACTN    C3 3624   7.051   1.093   3.482
  363ACTN    H1 3625   6.980   1.305   3.267
  363ACTN    H2 3626   6.915   1.141   3.256
  363ACTN    H3 3627   7.051   1.192   3.152
  363ACTN    H4 3628   7.056   1.173   3.556
  363ACTN    H5 3629   7.116   1.014   3.521
  363ACTN    H6 3630   6.949   1.056   3.476
  364ACTN    C1 3631   3.758   3.374   3.981
  364ACTN    O1 3632   3.704   3.322   4.209
  364ACTN    C2 3633   3.681   3.302   4.088
  364ACTN    C3 3634   3.610   3.178   4.058
  364ACTN    H1 3635   3.695   3.446   3.928
  364ACTN    H2 3636   3.795   3.301   3.911
  364ACTN    H3 3637   3.841   3.430   4.026
  364ACTN    H4 3638   3.505   3.205   4.043
  364ACTN    H5 3639   3.608   3.108   4.143
  364ACTN    H6 3640   3.646   3.126   3.971
  365ACTN    C1 3641   5.728   1.211   6.582
  365ACTN    O1 3642   5.700   1.436   6.502
  365ACTN    C2 3643   5.731   1.318   6.476
  365ACTN    C3 3644   5.728   1.283   6.334
  365ACTN    H1 3645   5.828   1.178   6.608
  365ACTN    H2 3646   5.671   1.127   6.544
  365ACTN    H3 3647   5.682   1.250   6.673
  365ACTN    H4 3648   5.831   1.287   6.300
  365ACTN    H5 3649   5.675   1.357   6.274
  365ACTN    H6 3650   5.687   1.185   6.315
  366ACTN    C1 3651   5.534   2.855   7.104
  366ACTN    O1 3652   5.437   2.817   6.887
  366ACTN    C2 3653   5.524   2.785   6.971
  366ACTN    C3 3654   5.583   2.653   6.951
  366ACTN    H1 3655   5.624   2.916   7.111
  366ACTN    H2 3656   5.536   2.779   7.181
  366ACTN    H3 3657   5.448   2.921   7.118
  366ACTN    H4 3658   5.678   2.669   6.902
  366ACTN    H5 3659   5.526   2.591   6.881
  366ACTN    H6 3660   5.598   2.597   7.043
  367ACTN    C1 3661   5.117   7.690   3.950
  367ACTN    O1 3662   5.181   7.467   3.889
  367ACTN    C2 3663   5.133   7.576   3.853
  367ACTN    C3 3664   5.136   7.600   3.709
  367ACTN    H1 3665   5.012   7.710   3.971
  367ACTN    H2 3666   5.162   7.778   3.906
  367ACTN    H3 3667   5.166   7.666   4.045
  367ACTN    H4 3668   5.036   7.578   3.672
  367ACTN    H5 3669   5.201   7.530   3.656
  367ACTN    H6 3670   5.163   7.701   3.682
  368ACTN    C1 3671   6.763   7.544   0.928
  368ACTN    O1 3672   6.810   7.762   1.016
  368ACTN    C2 3673   6.774   7.694   0.918
  368ACTN    C3 3674   6.703   7.767   0.813
  368ACTN    H1 3675   6.839   7.494   0.869
  368ACTN    H2 3676   6.665   7.515   0.891
  368ACTN    H3 3677   6.775   7.512   1.032
  368ACTN    H4 3678   6.777   7.786   0.735
  368ACTN    H5 3679   6.671   7.866   0.845
  368ACTN    H6 3680   6.619   7.714   0.771
  369ACTN    C1 3681   3.249   1.780   5.747
  369ACTN    O1 3682   3.453   1.653   5.755
  369ACTN    C2 3683   3.389   1.747   5.703
  369ACTN    C3 3684   3.470   1.846   5.633
  369ACTN    H1 3685   3.176   1.756   5.670
  369ACTN    H2 3686   3.244   1.886   5.769
  369ACTN    H3 3687   3.223   1.722   5.836
  369ACTN    H4 3688   3.463   1.822   5.527
  369ACTN    H5 3689   3.577   1.837   5.656
  369ACTN    H6 3690   3.439   1.948   5.649
  370ACTN    C1 3691   5.141   1.683   7.119
  370ACTN    O1 3692   5.189   1.609   7.342
  370ACTN    C2 3693   5.106   1.617   7.250
  370ACTN    C3 3694   4.993   1.525   7.259
  370ACTN    H1 3695   5.088   1.777   7.106
  370ACTN    H2 3696   5.114   1.615   7.039
  370ACTN    H3 3697   5.248   1.704   7.115
  370ACTN    H4 3698   4.910   1.582   7.299
  370ACTN    H5 3699   5.009   1.445   7.332
  370ACTN    H6 3700   4.964   1.481   7.164
  371ACTN    C1 3701   1.068   2.955   2.642
  371ACTN    O1 3702   0.991   2.728   2.644
  371ACTN    C2 3703   1.026   2.828   2.710
  371ACTN    C3 3704   0.984   2.829   2.850
  371ACTN    H1 3705   1.175   2.975   2.653
  371ACTN    H2 3706   1.013   3.038   2.686
  371ACTN    H3 3707   1.047   2.949   2.534
  371ACTN    H4 3708   1.071   2.797   2.908
  371ACTN    H5 3709   0.907   2.754   2.871
  371ACTN    H6 3710   0.951   2.925   2.886
  372ACTN    C1 3711   7.627   6.954   6.374
  372ACTN    O1 3712   7.447   6.966   6.215
  372ACTN    C2 3713   7.554   6.912   6.249
  372ACTN    C3 3714   7.580   6.782   6.188
  372ACTN    H1 3715   7.721   7.005   6.351
  372ACTN    H2 3716   7.649   6.865   6.432
  372ACTN    H3 3717   7.565   7.023   6.432
  372ACTN    H4 3718   7.649   6.800   6.106
  372ACTN    H5 3719   7.491   6.739   6.140
  372ACTN    H6 3720   7.622   6.709   6.255
  373ACTN    C1 3721   4.239   2.999   4.563
  373ACTN    O1 3722   4.430   3.121   4.642
  373ACTN    C2 3723   4.307   3.103   4.648
  373ACTN    C3 3724   4.242   3.154   4.769
  373ACTN    H1 3725   4.176   3.044   4.486
  373ACTN    H2 3726   4.178   2.937   4.628
  373ACTN    H3 3727   4.314   2.937   4.512
  373ACTN    H4 3728   4.197   3.249   4.741
  373ACTN    H5 3729   4.314   3.180   4.847
  373ACTN    H6 3730   4.167   3.089   4.810
  374ACTN    C1 3731   5.988   4.624   6.453
  374ACTN    O1 3732   5.797   4.559   6.324
  374ACTN    C2 3733   5.907   4.617   6.327
  374ACTN    C3 3734   5.970   4.639   6.197
  374ACTN    H1 3735   5.992   4.725   6.494
  374ACTN    H2 3736   6.089   4.591   6.431
  374ACTN    H3 3737   5.944   4.560   6.530
  374ACTN    H4 3738   5.949   4.742   6.170
  374ACTN    H5 3739   5.923   4.579   6.118
  374ACTN    H6 3740   6.077   4.622   6.196
  375ACTN    C1 3741   3.351   3.013   0.628
  375ACTN    O1 3742   3.169   3.165   0.665
  375ACTN    C2 3743   3.290   3.142   0.677
  375ACTN    C3 3744   3.374   3.260   0.700
  375ACTN    H1 3745   3.383   2.950   0.710
  375ACTN    H2 3746   3.436   3.037   0.566
  375ACTN    H3 3747   3.277   2.956   0.570
  375ACTN    H4 3748   3.394   3.262   0.807
  375ACTN    H5 3749   3.321   3.353   0.679
  375ACTN    H6 3750   3.467   3.258   0.645
  376ACTN    C1 3751   2.016   0.231   4.239
  376ACTN    O1 3752   1.947   0.005   4.198
  376ACTN    C2 3753   1.959   0.120   4.155
  376ACTN    C3 3754   1.957   0.132   4.009
  376ACTN    H1 3755   1.940   0.304   4.266
  376ACTN    H2 3756   2.095   0.279   4.183
  376ACTN    H3 3757   2.056   0.189   4.333
  376ACTN    H4 3758   1.857   0.164   3.982
  376ACTN    H5 3759   1.970   0.036   3.959
  376ACTN    H6 3760   2.029   0.202   3.969
  377ACTN    C1 3761   0.043   2.860   7.408
  377ACTN    O1 3762  -0.045   2.976   7.599
  377ACTN    C2 3763  -0.003   2.869   7.551
  377ACTN    C3 3764   0.038   2.769   7.649
  377ACTN    H1 3765  -0.025   2.801   7.347
  377ACTN    H2 3766   0.141   2.814   7.407
  377ACTN    H3 3767   0.049   2.960   7.364
  377ACTN    H4 3768  -0.045   2.698   7.657
  377ACTN    H5 3769   0.049   2.810   7.750
  377ACTN    H6 3770   0.128   2.715   7.622
  378ACTN    C1 3771   2.429   6.391   7.109
  378ACTN    O1 3772   2.427   6.237   6.925
  378ACTN    C2 3773   2.425   6.253   7.048
  378ACTN    C3 3774   2.378   6.138   7.125
  378ACTN    H1 3775   2.523   6.411   7.159
  378ACTN    H2 3776   2.348   6.398   7.181
  378ACTN    H3 3777   2.416   6.467   7.031
  378ACTN    H4 3778   2.467   6.088   7.162
  378ACTN    H5 3779   2.327   6.064   7.063
  378ACTN    H6 3780   2.314   6.165   7.208
  379ACTN    C1 3781   5.010   6.672   5.147
  379ACTN    O1 3782   4.805   6.628   5.265
  379ACTN    C2 3783   4.930   6.632   5.267
  379ACTN    C3 3784   4.988   6.639   5.402
  379ACTN    H1 3785   5.065   6.588   5.105
  379ACTN    H2 3786   5.079   6.750   5.176
  379ACTN    H3 3787   4.943   6.709   5.068
  379ACTN    H4 3788   5.020   6.538   5.426
  379ACTN    H5 3789   4.915   6.664   5.478
  379ACTN    H6 3790   5.072   6.707   5.409
  380ACTN    C1 3791   4.620   7.670   0.533
  380ACTN    O1 3792   4.653   7.906   0.508
  380ACTN    C2 3793   4.703   7.792   0.508
  380ACTN    C3 3794   4.833   7.781   0.441
  380ACTN    H1 3795   4.643   7.623   0.628
  380ACTN    H2 3796   4.639   7.599   0.453
  380ACTN    H3 3797   4.513   7.696   0.534
  380ACTN    H4 3798   4.908   7.782   0.520
  380ACTN    H5 3799   4.857   7.869   0.380
  380ACTN    H6 3800   4.845   7.692   0.381
  381ACTN    C1 3801   2.887   2.151   5.852
  381ACTN    O1 3802   2.767   2.359   5.872
  381ACTN    C2 3803   2.813   2.258   5.928
  381ACTN    C3 3804   2.829   2.271   6.074
  381ACTN    H1 3805   2.830   2.059   5.847
  381ACTN    H2 3806   2.981   2.133   5.903
  381ACTN    H3 3807   2.905   2.185   5.750
  381ACTN    H4 3808   2.744   2.221   6.118
  381ACTN    H5 3809   2.822   2.374   6.108
  381ACTN    H6 3810   2.921   2.227   6.112
  382ACTN    C1 3811   2.122   2.629   7.529
  382ACTN    O1 3812   2.343   2.537   7.540
  382ACTN    C2 3813   2.228   2.529   7.494
  382ACTN    C3 3814   2.215   2.445   7.374
  382ACTN    H1 3815   2.044   2.586   7.592
  382ACTN    H2 3816   2.077   2.665   7.437
  382ACTN    H3 3817   2.166   2.713   7.584
  382ACTN    H4 3818   2.177   2.349   7.409
  382ACTN    H5 3819   2.312   2.422   7.328
  382ACTN    H6 3820   2.149   2.485   7.299
  383ACTN    C1 3821   2.984   3.909   3.656
  383ACTN    O1 3822   2.827   3.960   3.830
  383ACTN    C2 3823   2.942   3.973   3.785
  383ACTN    C3 3824   3.016   4.087   3.839
  383ACTN    H1 3825   3.055   3.829   3.672
  383ACTN    H2 3826   3.029   3.985   3.593
  383ACTN    H3 3827   2.896   3.865   3.606
  383ACTN    H4 3828   3.083   4.046   3.915
  383ACTN    H5 3829   2.952   4.158   3.893
  383ACTN    H6 3830   3.074   4.141   3.765
  384ACTN    C1 3831   3.107   3.218   6.055
  384ACTN    O1 3832   2.957   3.222   5.869
  384ACTN    C2 3833   3.064   3.262   5.919
  384ACTN    C3 3834   3.161   3.315   5.823
  384ACTN    H1 3835   3.103   3.299   6.128
  384ACTN    H2 3836   3.209   3.181   6.049
  384ACTN    H3 3837   3.042   3.138   6.092
  384ACTN    H4 3838   3.152   3.424   5.829
  384ACTN    H5 3839   3.136   3.291   5.719
  384ACTN    H6 3840   3.263   3.286   5.843
  385ACTN    C1 3841   2.057   1.790   6.990
  385ACTN    O1 3842   1.883   1.636   6.930
  385ACTN    C2 3843   1.956   1.731   6.896
  385ACTN    C3 3844   1.967   1.752   6.751
  385ACTN    H1 3845   2.030   1.890   7.022
  385ACTN    H2 3846   2.153   1.794   6.939
  385ACTN    H3 3847   2.065   1.727   7.080
  385ACTN    H4 3848   1.899   1.834   6.727
  385ACTN    H5 3849   1.930   1.667   6.693
  385ACTN    H6 3850   2.067   1.777   6.718
  386ACTN    C1 3851   1.005   6.090   0.259
  386ACTN    O1 3852   0.786   5.995   0.237
  386ACTN    C2 3853   0.909   5.976   0.243
  386ACTN    C3 3854   0.949   5.840   0.277
  386ACTN    H1 3855   1.065   6.106   0.169
  386ACTN    H2 3856   1.072   6.068   0.342
  386ACTN    H3 3857   0.951   6.183   0.279
  386ACTN    H4 3858   0.976   5.791   0.183
  386ACTN    H5 3859   0.866   5.780   0.316
  386ACTN    H6 3860   1.033   5.834   0.346
  387ACTN    C1 3861   4.316   7.681   5.894
  387ACTN    O1 3862   4.512   7.546   5.926
  387ACTN    C2 3863   4.439   7.609   5.847
  387ACTN    C3 3864   4.501   7.643   5.719
  387ACTN    H1 3865   4.224   7.633   5.859
  387ACTN    H2 3866   4.319   7.782   5.856
  387ACTN    H3 3867   4.313   7.682   6.004
  387ACTN    H4 3868   4.466   7.569   5.647
  387ACTN    H5 3869   4.610   7.630   5.720
  387ACTN    H6 3870   4.477   7.742   5.683
  388ACTN    C1 3871   2.734   3.313   6.477
  388ACTN    O1 3872   2.901   3.143   6.503
  388ACTN    C2 3873   2.811   3.211   6.556
  388ACTN    C3 3874   2.757   3.157   6.681
  388ACTN    H1 3875   2.757   3.414   6.508
  388ACTN    H2 3876   2.628   3.294   6.492
  388ACTN    H3 3877   2.758   3.304   6.371
  388ACTN    H4 3878   2.806   3.212   6.761
  388ACTN    H5 3879   2.787   3.052   6.698
  388ACTN    H6 3880   2.650   3.165   6.690
  389ACTN    C1 3881   6.610   2.092   4.347
  389ACTN    O1 3882   6.842   2.107   4.407
  389ACTN    C2 3883   6.737   2.040   4.408
  389ACTN    C3 3884   6.755   1.897   4.432
  389ACTN    H1 3885   6.535   2.115   4.422
  389ACTN    H2 3886   6.571   2.016   4.279
  389ACTN    H3 3887   6.630   2.184   4.291
  389ACTN    H4 3888   6.732   1.880   4.537
  389ACTN    H5 3889   6.859   1.865   4.421
  389ACTN    H6 3890   6.692   1.834   4.370
  390ACTN    C1 3891   4.490   3.392   7.455
  390ACTN    O1 3892   4.713   3.472   7.495
  390ACTN    C2 3893   4.592   3.498   7.486
  390ACTN    C3 3894   4.551   3.624   7.549
  390ACTN    H1 3895   4.447   3.404   7.356
  390ACTN    H2 3896   4.411   3.398   7.529
  390ACTN    H3 3897   4.537   3.293   7.458
  390ACTN    H4 3898   4.543   3.697   7.468
  390ACTN    H5 3899   4.628   3.665   7.615
  390ACTN    H6 3900   4.457   3.619   7.602
  391ACTN    C1 3901   3.416   4.286   6.656
  391ACTN    O1 3902   3.424   4.058   6.582
  391ACTN    C2 3903   3.431   4.138   6.677
  391ACTN    C3 3904   3.411   4.079   6.810
  391ACTN    H1 3905   3.510   4.339   6.672
  391ACTN    H2 3906   3.342   4.323   6.726
  391ACTN    H3 3907   3.384   4.306   6.553
  391ACTN    H4 3908   3.510   4.065   6.852
  391ACTN    H5 3909   3.368   3.978   6.805
  391ACTN    H6 3910   3.351   4.139   6.876
  392ACTN    C1 3911   2.954   1.243   0.392
  392ACTN    O1 3912   2.731   1.330   0.404
  392ACTN    C2 3913   2.833   1.312   0.335
  392ACTN    C3 3914   2.814   1.321   0.191
  392ACTN    H1 3915   3.038   1.312   0.405
  392ACTN    H2 3916   2.984   1.164   0.324
  392ACTN    H3 3917   2.931   1.201   0.491
  392ACTN    H4 3918   2.847   1.420   0.162
  392ACTN    H5 3919   2.708   1.318   0.162
  392ACTN    H6 3920   2.868   1.246   0.134
  393ACTN    C1 3921   1.540   0.283   2.441
  393ACTN    O1 3922   1.581   0.223   2.670
  393ACTN    C2 3923   1.583   0.189   2.550
  393ACTN    C3 3924   1.668   0.074   2.520
  393ACTN    H1 3925   1.447   0.251   2.395
  393ACTN    H2 3926   1.618   0.286   2.366
  393ACTN    H3 3927   1.524   0.383   2.482
  393ACTN    H4 3928   1.602  -0.012   2.513
  393ACTN    H5 3929   1.736   0.049   2.602
  393ACTN    H6 3930   1.725   0.083   2.428
  394ACTN    C1 3931   1.853   2.852   6.036
  394ACTN    O1 3932   1.848   2.639   6.147
  394ACTN    C2 3933   1.897   2.753   6.141
  394ACTN    C3 3934   1.964   2.800   6.262
  394ACTN    H1 3935   1.931   2.870   5.962
  394ACTN    H2 3936   1.827   2.945   6.085
  394ACTN    H3 3937   1.766   2.812   5.982
  394ACTN    H4 3938   2.071   2.785   6.246
  394ACTN    H5 3939   1.941   2.738   6.349
  394ACTN    H6 3940   1.945   2.903   6.286
  395ACTN    C1 3941   4.245   3.425   2.774
  395ACTN    O1 3942   4.347   3.642   2.783
  395ACTN    C2 3943   4.263   3.563   2.830
  395ACTN    C3 3944   4.217   3.595   2.965
  395ACTN    H1 3945   4.149   3.414   2.723
  395ACTN    H2 3946   4.250   3.354   2.856
  395ACTN    H3 3947   4.324   3.403   2.701
  395ACTN    H4 3948   4.121   3.644   2.954
  395ACTN    H5 3949   4.281   3.669   3.015
  395ACTN    H6 3950   4.206   3.509   3.030
  396ACTN    C1 3951   6.953   5.643   2.204
  396ACTN    O1 3952   7.107   5.732   2.043
  396ACTN    C2 3953   7.078   5.716   2.163
  396ACTN    C3 3954   7.190   5.731   2.256
  396ACTN    H1 3955   6.880   5.710   2.249
  396ACTN    H2 3956   6.980   5.567   2.276
  396ACTN    H3 3957   6.905   5.597   2.117
  396ACTN    H4 3958   7.181   5.831   2.298
  396ACTN    H5 3959   7.287   5.730   2.206
  396ACTN    H6 3960   7.191   5.658   2.336
  397ACTN    C1 3961   3.204   5.962   6.096
  397ACTN    O1 3962   3.068   5.810   6.223
  397ACTN    C2 3963   3.149   5.904   6.224
  397ACTN    C3 3964   3.154   5.982   6.348
  397ACTN    H1 3965   3.310   5.939   6.083
  397ACTN    H2 3966   3.191   6.070   6.099
  397ACTN    H3 3967   3.150   5.920   6.010
  397ACTN    H4 3968   3.241   5.945   6.403
  397ACTN    H5 3969   3.069   5.961   6.414
  397ACTN    H6 3970   3.163   6.088   6.333
  398ACTN    C1 3971   1.592   2.185   6.675
  398ACTN    O1 3972   1.676   1.962   6.645
  398ACTN    C2 3973   1.662   2.060   6.720
  398ACTN    C3 3974   1.677   2.031   6.863
  398ACTN    H1 3975   1.661   2.268   6.665
  398ACTN    H2 3976   1.516   2.210   6.748
  398ACTN    H3 3977   1.546   2.168   6.577
  398ACTN    H4 3978   1.778   2.061   6.890
  398ACTN    H5 3979   1.675   1.923   6.885
  398ACTN    H6 3980   1.606   2.081   6.926
  399ACTN    C1 3981   6.583   5.683   3.115
  399ACTN    O1 3982   6.722   5.617   3.299
  399ACTN    C2 3983   6.614   5.605   3.240
  399ACTN    C3 3984   6.538   5.484   3.273
  399ACTN    H1 3985   6.507   5.759   3.132
  399ACTN    H2 3986   6.548   5.614   3.040
  399ACTN    H3 3987   6.674   5.734   3.080
  399ACTN    H4 3988   6.462   5.515   3.345
  399ACTN    H5 3989   6.598   5.410   3.325
  399ACTN    H6 3990   6.490   5.438   3.188
  400ACTN    C1 3991   0.865   0.384   3.734
  400ACTN    O1 3992   0.876   0.598   3.842
  400ACTN    C2 3993   0.842   0.479   3.848
  400ACTN    C3 3994   0.818   0.429   3.984
  400ACTN    H1 3995   0.772   0.355   3.686
  400ACTN    H2 3996   0.914   0.295   3.773
  400ACTN    H3 3997   0.928   0.431   3.658
  400ACTN    H4 3998   0.710   0.431   3.999
  400ACTN    H5 3999   0.858   0.495   4.061
  400ACTN    H6 4000   0.855   0.328   4.001
  401ACTN    C1 4001   6.387   5.570   6.968
  401ACTN    O1 4002   6.324   5.801   6.945
  401ACTN    C2 4003   6.356   5.694   6.889
  401ACTN    C3 4004   6.320   5.686   6.747
  401ACTN    H1 4005   6.492   5.544   6.963
  401ACTN    H2 4006   6.328   5.488   6.927
  401ACTN    H3 4007   6.361   5.585   7.073
  401ACTN    H4 4008   6.411   5.708   6.691
  401ACTN    H5 4009   6.249   5.763   6.717
  401ACTN    H6 4010   6.282   5.589   6.717
  402ACTN    C1 4011   5.865   5.907   3.038
  402ACTN    O1 4012   5.629   5.865   3.052
  402ACTN    C2 4013   5.738   5.874   3.112
  402ACTN    C3 4014   5.728   5.895   3.256
  402ACTN    H1 4015   5.933   5.822   3.035
  402ACTN    H2 4016   5.913   5.990   3.089
  402ACTN    H3 4017   5.842   5.934   2.935
  402ACTN    H4 4018   5.745   5.798   3.302
  402ACTN    H5 4019   5.627   5.924   3.288
  402ACTN    H6 4020   5.799   5.967   3.296
  403ACTN    C1 4021   4.274   6.506   1.332
  403ACTN    O1 4022   4.357   6.709   1.431
  403ACTN    C2 4023   4.350   6.636   1.330
  403ACTN    C3 4024   4.381   6.702   1.203
  403ACTN    H1 4025   4.340   6.420   1.326
  403ACTN    H2 4026   4.206   6.505   1.248
  403ACTN    H3 4027   4.217   6.498   1.426
  403ACTN    H4 4028   4.484   6.675   1.179
  403ACTN    H5 4029   4.382   6.811   1.212
  403ACTN    H6 4030   4.316   6.673   1.122
  404ACTN    C1 4031   1.346   3.205   3.793
  404ACTN    O1 4032   1.218   3.190   3.995
  404ACTN    C2 4033   1.251   3.137   3.887
  404ACTN    C3 4034   1.230   2.992   3.880
  404ACTN    H1 4035   1.297   3.237   3.702
  404ACTN    H2 4036   1.426   3.135   3.768
  404ACTN    H3 4037   1.389   3.294   3.841
  404ACTN    H4 4038   1.138   2.978   3.823
  404ACTN    H5 4039   1.210   2.947   3.977
  404ACTN    H6 4040   1.310   2.938   3.831
  405ACTN    C1 4041   2.224   0.129   3.106
  405ACTN    O1 4042   2.233  -0.001   2.904
  405ACTN    C2 4043   2.272   0.100   2.966
  405ACTN    C3 4044   2.395   0.161   2.916
  405ACTN    H1 4045   2.159   0.216   3.109
  405ACTN    H2 4046   2.311   0.147   3.169
  405ACTN    H3 4047   2.167   0.044   3.145
  405ACTN    H4 4048   2.364   0.246   2.855
  405ACTN    H5 4049   2.448   0.095   2.846
  405ACTN    H6 4050   2.463   0.194   2.993
  406ACTN    C1 4051   3.699   1.978   3.094
  406ACTN    O1 4052   3.692   1.951   3.332
  406ACTN    C2 4053   3.654   2.014   3.232
  406ACTN    C3 4054   3.532   2.093   3.252
  406ACTN    H1 4055   3.765   2.054   3.052
  406ACTN    H2 4056   3.612   1.968   3.030
  406ACTN    H3 4057   3.755   1.884   3.096
  406ACTN    H4 4058   3.565   2.195   3.268
  406ACTN    H5 4059   3.479   2.066   3.344
  406ACTN    H6 4060   3.463   2.089   3.169
  407ACTN    C1 4061   1.754   6.059   2.604
  407ACTN    O1 4062   1.789   6.296   2.584
  407ACTN    C2 4063   1.740   6.202   2.649
  407ACTN    C3 4064   1.707   6.233   2.789
  407ACTN    H1 4065   1.660   6.017   2.571
  407ACTN    H2 4066   1.792   6.000   2.687
  407ACTN    H3 4067   1.824   6.053   2.520
  407ACTN    H4 4068   1.600   6.251   2.791
  407ACTN    H5 4069   1.753   6.326   2.823
  407ACTN    H6 4070   1.732   6.154   2.858
  408ACTN    C1 4071   1.412   6.414   3.087
  408ACTN    O1 4072   1.403   6.295   2.879
  408ACTN    C2 4073   1.421   6.403   2.937
  408ACTN    C3 4074   1.493   6.504   2.859
  408ACTN    H1 4075   1.325   6.471   3.118
  408ACTN    H2 4076   1.502   6.462   3.123
  408ACTN    H3 4077   1.404   6.314   3.131
  408ACTN    H4 4078   1.417   6.572   2.820
  408ACTN    H5 4079   1.541   6.462   2.770
  408ACTN    H6 4080   1.566   6.560   2.916
  409ACTN    C1 4081   2.909   5.668   3.648
  409ACTN    O1 4082   2.758   5.602   3.474
  409ACTN    C2 4083   2.837   5.687   3.518
  409ACTN    C3 4084   2.886   5.783   3.418
  409ACTN    H1 4085   2.873   5.736   3.725
  409ACTN    H2 4086   3.015   5.685   3.631
  409ACTN    H3 4087   2.893   5.566   3.685
  409ACTN    H4 4088   2.827   5.873   3.431
  409ACTN    H5 4089   2.866   5.751   3.315
  409ACTN    H6 4090   2.991   5.806   3.428
  410ACTN    C1 4091   5.040   5.611   0.617
  410ACTN    O1 4092   5.210   5.764   0.547
  410ACTN    C2 4093   5.109   5.699   0.516
  410ACTN    C3 4094   5.039   5.744   0.397
  410ACTN    H1 4095   5.052   5.505   0.593
  410ACTN    H2 4096   4.934   5.636   0.617
  410ACTN    H3 4097   5.082   5.627   0.717
  410ACTN    H4 4098   5.070   5.678   0.316
  410ACTN    H5 4099   5.071   5.844   0.364
  410ACTN    H6 4100   4.931   5.743   0.405
  411ACTN    C1 4101   5.457   5.507   1.657
  411ACTN    O1 4102   5.649   5.402   1.754
  411ACTN    C2 4103   5.581   5.423   1.653
  411ACTN    C3 4104   5.651   5.399   1.526
  411ACTN    H1 4105   5.367   5.447   1.642
  411ACTN    H2 4106   5.464   5.582   1.579
  411ACTN    H3 4107   5.448   5.556   1.755
  411ACTN    H4 4108   5.618   5.300   1.492
  411ACTN    H5 4109   5.759   5.389   1.538
  411ACTN    H6 4110   5.630   5.472   1.449
  412ACTN    C1 4111   7.306   4.161   1.754
  412ACTN    O1 4112   7.292   3.961   1.622
  412ACTN    C2 4113   7.360   4.033   1.697
  412ACTN    C3 4114   7.477   3.968   1.758
  412ACTN    H1 4115   7.353   4.249   1.711
  412ACTN    H2 4116   7.323   4.160   1.861
  412ACTN    H3 4117   7.198   4.168   1.734
  412ACTN    H4 4118   7.563   3.997   1.698
  412ACTN    H5 4119   7.473   3.859   1.749
  412ACTN    H6 4120   7.493   3.994   1.861
  413ACTN    C1 4121   0.258   1.928   3.130
  413ACTN    O1 4122   0.312   2.105   2.978
  413ACTN    C2 4123   0.321   2.059   3.093
  413ACTN    C3 4124   0.430   2.115   3.174
  413ACTN    H1 4125   0.174   1.941   3.198
  413ACTN    H2 4126   0.333   1.866   3.179
  413ACTN    H3 4127   0.220   1.877   3.041
  413ACTN    H4 4128   0.383   2.189   3.239
  413ACTN    H5 4129   0.502   2.172   3.114
  413ACTN    H6 4130   0.482   2.042   3.234
  414ACTN    C1 4131   2.418   4.563   4.099
  414ACTN    O1 4132   2.559   4.380   4.034
  414ACTN    C2 4133   2.505   4.488   4.003
  414ACTN    C3 4134   2.566   4.557   3.888
  414ACTN    H1 4135   2.313   4.562   4.069
  414ACTN    H2 4136   2.452   4.665   4.104
  414ACTN    H3 4137   2.423   4.516   4.199
  414ACTN    H4 4138   2.502   4.535   3.803
  414ACTN    H5 4139   2.664   4.516   3.862
  414ACTN    H6 4140   2.574   4.664   3.901
  415ACTN    C1 4141   5.871   2.334   7.511
  415ACTN    O1 4142   5.736   2.513   7.427
  415ACTN    C2 4143   5.745   2.414   7.501
  415ACTN    C3 4144   5.644   2.407   7.607
  415ACTN    H1 4145   5.860   2.235   7.466
  415ACTN    H2 4146   5.897   2.323   7.615
  415ACTN    H3 4147   5.952   2.385   7.457
  415ACTN    H4 4148   5.568   2.337   7.572
  415ACTN    H5 4149   5.590   2.501   7.621
  415ACTN    H6 4150   5.682   2.373   7.703
  416ACTN    C1 4151   6.436   5.552   7.467
  416ACTN    O1 4152   6.432   5.313   7.454
  416ACTN    C2 4153   6.473   5.420   7.407
  416ACTN    C3 4154   6.591   5.408   7.321
  416ACTN    H1 4155   6.370   5.609   7.402
  416ACTN    H2 4156   6.527   5.609   7.484
  416ACTN    H3 4157   6.383   5.537   7.562
  416ACTN    H4 4158   6.555   5.411   7.218
  416ACTN    H5 4159   6.640   5.310   7.330
  416ACTN    H6 4160   6.665   5.486   7.335
  417ACTN    C1 4161   3.346   5.409   0.912
  417ACTN    O1 4162   3.190   5.334   0.746
  417ACTN    C2 4163   3.215   5.352   0.867
  417ACTN    C3 4164   3.098   5.355   0.955
  417ACTN    H1 4165   3.407   5.335   0.963
  417ACTN    H2 4166   3.326   5.492   0.979
  417ACTN    H3 4167   3.403   5.444   0.825
  417ACTN    H4 4168   3.091   5.257   1.001
  417ACTN    H5 4169   3.004   5.366   0.899
  417ACTN    H6 4170   3.103   5.431   1.031
  418ACTN    C1 4171   4.300   6.895   7.877
  418ACTN    O1 4172   4.471   6.886   7.708
  418ACTN    C2 4173   4.373   6.946   7.756
  418ACTN    C3 4174   4.361   7.087   7.716
  418ACTN    H1 4175   4.200   6.860   7.852
  418ACTN    H2 4176   4.292   6.976   7.949
  418ACTN    H3 4177   4.355   6.811   7.921
  418ACTN    H4 4178   4.287   7.090   7.636
  418ACTN    H5 4179   4.453   7.125   7.670
  418ACTN    H6 4180   4.332   7.153   7.796
  419ACTN    C1 4181   5.392   4.519   4.509
  419ACTN    O1 4182   5.415   4.506   4.271
  419ACTN    C2 4183   5.378   4.572   4.369
  419ACTN    C3 4184   5.361   4.715   4.346
  419ACTN    H1 4185   5.295   4.495   4.554
  419ACTN    H2 4186   5.441   4.594   4.570
  419ACTN    H3 4187   5.452   4.427   4.509
  419ACTN    H4 4188   5.254   4.731   4.331
  419ACTN    H5 4189   5.407   4.748   4.252
  419ACTN    H6 4190   5.397   4.778   4.426
  420ACTN    C1 4191   1.769   2.018   7.383
  420ACTN    O1 4192   1.720   2.203   7.529
  420ACTN    C2 4193   1.696   2.085   7.496
  420ACTN    C3 4194   1.628   2.005   7.598
  420ACTN    H1 4195   1.705   2.000   7.298
  420ACTN    H2 4196   1.808   1.923   7.419
  420ACTN    H3 4197   1.852   2.082   7.349
  420ACTN    H4 4198   1.523   2.003   7.570
  420ACTN    H5 4199   1.629   2.052   7.697
  420ACTN    H6 4200   1.665   1.903   7.607
  421ACTN    C1 4201   0.889   0.970   6.485
  421ACTN    O1 4202   0.900   0.911   6.717
  421ACTN    C2 4203   0.939   0.889   6.601
  421ACTN    C3 4204   1.063   0.812   6.590
  421ACTN    H1 4205   0.824   0.913   6.419
  421ACTN    H2 4206   0.975   1.005   6.428
  421ACTN    H3 4207   0.831   1.056   6.521
  421ACTN    H4 4208   1.033   0.709   6.569
  421ACTN    H5 4209   1.117   0.806   6.685
  421ACTN    H6 4210   1.130   0.847   6.513
  422ACTN    C1 4211   0.550   1.683   6.416
  422ACTN    O1 4212   0.562   1.910   6.340
  422ACTN    C2 4213   0.492   1.810   6.360
  422ACTN    C3 4214   0.348   1.835   6.369
  422ACTN    H1 4215   0.552   1.603   6.343
  422ACTN    H2 4216   0.490   1.652   6.501
  422ACTN    H3 4217   0.654   1.701   6.448
  422ACTN    H4 4218   0.306   1.808   6.272
  422ACTN    H5 4219   0.324   1.941   6.380
  422ACTN    H6 4220   0.297   1.779   6.447
  423ACTN    C1 4221   6.951   6.411   2.642
  423ACTN    O1 4222   6.761   6.554   2.611
  423ACTN    C2 4223   6.855   6.491   2.559
  423ACTN    C3 4224   6.840   6.464   2.416
  423ACTN    H1 4225   7.050   6.455   2.644
  423ACTN    H2 4226   6.957   6.311   2.601
  423ACTN    H3 4227   6.916   6.406   2.746
  423ACTN    H4 4228   6.900   6.538   2.364
  423ACTN    H5 4229   6.738   6.482   2.380
  423ACTN    H6 4230   6.871   6.365   2.386
  424ACTN    C1 4231   3.714   7.591   3.870
  424ACTN    O1 4232   3.882   7.449   3.966
  424ACTN    C2 4233   3.855   7.543   3.889
  424ACTN    C3 4234   3.968   7.630   3.855
  424ACTN    H1 4235   3.676   7.567   3.770
  424ACTN    H2 4236   3.711   7.698   3.884
  424ACTN    H3 4237   3.647   7.542   3.942
  424ACTN    H4 4238   4.002   7.598   3.757
  424ACTN    H5 4239   4.054   7.614   3.921
  424ACTN    H6 4240   3.944   7.735   3.853
  425ACTN    C1 4241   4.396   3.147   2.724
  425ACTN    O1 4242   4.554   3.302   2.815
  425ACTN    C2 4243   4.459   3.225   2.836
  425ACTN    C3 4244   4.442   3.183   2.975
  425ACTN    H1 4245   4.295   3.181   2.702
  425ACTN    H2 4246   4.392   3.042   2.754
  425ACTN    H3 4247   4.456   3.157   2.633
  425ACTN    H4 4248   4.362   3.245   3.016
  425ACTN    H5 4249   4.529   3.206   3.037
  425ACTN    H6 4250   4.416   3.079   2.987
  426ACTN    C1 4251   1.900   5.369   6.395
  426ACTN    O1 4252   2.008   5.172   6.311
  426ACTN    C2 4253   1.935   5.223   6.397
  426ACTN    C3 4254   1.852   5.127   6.472
  426ACTN    H1 4255   1.947   5.423   6.477
  426ACTN    H2 4256   1.792   5.378   6.403
  426ACTN    H3 4257   1.934   5.414   6.302
  426ACTN    H4 4258   1.903   5.111   6.567
  426ACTN    H5 4259   1.848   5.029   6.425
  426ACTN    H6 4260   1.751   5.162   6.491
  427ACTN    C1 4261   3.149   3.365   0.420
  427ACTN    O1 4262   2.951   3.497   0.448
  427ACTN    C2 4263   3.039   3.455   0.371
  427ACTN    C3 4264   3.007   3.462   0.229
  427ACTN    H1 4265   3.246   3.414   0.421
  427ACTN    H2 4266   3.154   3.278   0.354
  427ACTN    H3 4267   3.128   3.332   0.523
  427ACTN    H4 4268   3.057   3.551   0.190
  427ACTN    H5 4269   2.900   3.481   0.211
  427ACTN    H6 4270   3.038   3.376   0.172
  428ACTN    C1 4271   4.821   2.192   7.131
  428ACTN    O1 4272   4.870   1.958   7.152
  428ACTN    C2 4273   4.857   2.068   7.208
  428ACTN    C3 4274   4.836   2.062   7.353
  428ACTN    H1 4275   4.905   2.263   7.127
  428ACTN    H2 4276   4.737   2.240   7.180
  428ACTN    H3 4277   4.795   2.166   7.028
  428ACTN    H4 4278   4.932   2.083   7.399
  428ACTN    H5 4279   4.810   1.961   7.388
  428ACTN    H6 4280   4.762   2.132   7.390
  429ACTN    C1 4281   2.531   2.192   4.395
  429ACTN    O1 4282   2.748   2.293   4.377
  429ACTN    C2 4283   2.653   2.237   4.319
  429ACTN    C3 4284   2.648   2.257   4.174
  429ACTN    H1 4285   2.523   2.084   4.400
  429ACTN    H2 4286   2.443   2.231   4.344
  429ACTN    H3 4287   2.534   2.230   4.497
  429ACTN    H4 4288   2.689   2.166   4.130
  429ACTN    H5 4289   2.714   2.337   4.140
  429ACTN    H6 4290   2.548   2.273   4.135
  430ACTN    C1 4291   6.917   1.479   4.716
  430ACTN    O1 4292   6.810   1.694   4.727
  430ACTN    C2 4293   6.838   1.594   4.659
  430ACTN    C3 4294   6.754   1.575   4.540
  430ACTN    H1 4295   7.016   1.472   4.672
  430ACTN    H2 4296   6.862   1.387   4.696
  430ACTN    H3 4297   6.930   1.492   4.824
  430ACTN    H4 4298   6.813   1.612   4.456
  430ACTN    H5 4299   6.665   1.637   4.541
  430ACTN    H6 4300   6.726   1.472   4.521
  431ACTN    C1 4301   4.681   7.226   4.238
  431ACTN    O1 4302   4.513   7.069   4.170
  431ACTN    C2 4303   4.634   7.099   4.175
  431ACTN    C3 4304   4.726   6.986   4.157
  431ACTN    H1 4305   4.721   7.296   4.164
  431ACTN    H2 4306   4.759   7.202   4.309
  431ACTN    H3 4307   4.598   7.276   4.289
  431ACTN    H4 4308   4.759   6.991   4.053
  431ACTN    H5 4309   4.676   6.889   4.165
  431ACTN    H6 4310   4.812   6.988   4.222
  432ACTN    C1 4311   4.867   1.563   5.350
  432ACTN    O1 4312   4.938   1.544   5.579
  432ACTN    C2 4313   4.846   1.531   5.495
  432ACTN    C3 4314   4.736   1.444   5.537
  432ACTN    H1 4315   4.812   1.652   5.320
  432ACTN    H2 4316   4.833   1.478   5.291
  432ACTN    H3 4317   4.973   1.582   5.331
  432ACTN    H4 4318   4.656   1.510   5.571
  432ACTN    H5 4319   4.761   1.384   5.625
  432ACTN    H6 4320   4.699   1.379   5.460
  433ACTN    C1 4321   3.455   3.213   2.873
  433ACTN    O1 4322   3.232   3.172   2.795
  433ACTN    C2 4323   3.309   3.245   2.858
  433ACTN    C3 4324   3.261   3.382   2.880
  433ACTN    H1 4325   3.481   3.184   2.975
  433ACTN    H2 4326   3.512   3.300   2.844
  433ACTN    H3 4327   3.481   3.128   2.808
  433ACTN    H4 4328   3.221   3.385   2.982
  433ACTN    H5 4329   3.175   3.407   2.817
  433ACTN    H6 4330   3.337   3.458   2.869
  434ACTN    C1 4331   2.866   3.314   7.660
  434ACTN    O1 4332   3.004   3.430   7.819
  434ACTN    C2 4333   2.928   3.437   7.721
  434ACTN    C3 4334   2.869   3.569   7.697
  434ACTN    H1 4335   2.908   3.292   7.562
  434ACTN    H2 4336   2.760   3.330   7.652
  434ACTN    H3 4337   2.886   3.227   7.724
  434ACTN    H4 4338   2.928   3.614   7.618
  434ACTN    H5 4339   2.881   3.636   7.783
  434ACTN    H6 4340   2.765   3.566   7.668
  435ACTN    C1 4341   5.948   0.849   3.927
  435ACTN    O1 4342   5.881   0.682   4.086
  435ACTN    C2 4343   5.910   0.709   3.968
  435ACTN    C3 4344   5.948   0.594   3.886
  435ACTN    H1 4345   5.871   0.894   3.864
  435ACTN    H2 4346   6.041   0.844   3.872
  435ACTN    H3 4347   5.959   0.912   4.015
  435ACTN    H4 4348   5.860   0.569   3.827
  435ACTN    H5 4349   5.969   0.505   3.945
  435ACTN    H6 4350   6.031   0.613   3.819
  436ACTN    C1 4351   7.668   1.386   1.160
  436ACTN    O1 4352   7.489   1.227   1.183
  436ACTN    C2 4353   7.575   1.298   1.239
  436ACTN    C3 4354   7.551   1.324   1.381
  436ACTN    H1 4355   7.771   1.349   1.163
  436ACTN    H2 4356   7.664   1.486   1.201
  436ACTN    H3 4357   7.637   1.388   1.055
  436ACTN    H4 4358   7.615   1.255   1.436
  436ACTN    H5 4359   7.450   1.298   1.412
  436ACTN    H6 4360   7.573   1.426   1.412
  437ACTN    C1 4361   2.605   5.133   0.789
  437ACTN    O1 4362   2.557   5.359   0.724
  437ACTN    C2 4363   2.611   5.283   0.806
  437ACTN    C3 4364   2.714   5.344   0.890
  437ACTN    H1 4365   2.542   5.087   0.865
  437ACTN    H2 4366   2.705   5.094   0.797
  437ACTN    H3 4367   2.562   5.108   0.691
  437ACTN    H4 4368   2.666   5.365   0.986
  437ACTN    H5 4369   2.746   5.442   0.853
  437ACTN    H6 4370   2.801   5.282   0.906
  438ACTN    C1 4371   7.259   6.003   7.545
  438ACTN    O1 4372   7.396   5.855   7.675
  438ACTN    C2 4373   7.308   5.867   7.588
  438ACTN    C3 4374   7.288   5.750   7.503
  438ACTN    H1 4375   7.157   6.021   7.577
  438ACTN    H2 4376   7.264   6.008   7.437
  438ACTN    H3 4377   7.322   6.081   7.589
  438ACTN    H4 4378   7.200   5.699   7.542
  438ACTN    H5 4379   7.369   5.677   7.512
  438ACTN    H6 4380   7.272   5.774   7.398
  439ACTN    C1 4381   1.620   6.474   4.038
  439ACTN    O1 4382   1.712   6.309   4.187
  439ACTN    C2 4383   1.715   6.426   4.145
  439ACTN    C3 4384   1.782   6.522   4.233
  439ACTN    H1 4385   1.672   6.494   3.945
  439ACTN    H2 4386   1.573   6.565   4.073
  439ACTN    H3 4387   1.544   6.397   4.018
  439ACTN    H4 4388   1.882   6.535   4.192
  439ACTN    H5 4389   1.799   6.482   4.334
  439ACTN    H6 4390   1.732   6.617   4.241
  440ACTN    C1 4391   4.098   1.998   7.332
  440ACTN    O1 4392   4.330   1.983   7.392
  440ACTN    C2 4393   4.246   2.004   7.304
  440ACTN    C3 4394   4.295   2.076   7.186
  440ACTN    H1 4395   4.051   1.912   7.284
  440ACTN    H2 4396   4.052   2.089   7.296
  440ACTN    H3 4397   4.081   1.988   7.440
  440ACTN    H4 4398   4.314   2.001   7.110
  440ACTN    H5 4399   4.393   2.123   7.204
  440ACTN    H6 4400   4.227   2.151   7.148
  441ACTN    C1 4401   5.202   5.541   1.100
  441ACTN    O1 4402   5.402   5.673   1.115
  441ACTN    C2 4403   5.293   5.642   1.165
  441ACTN    C3 4404   5.277   5.675   1.307
  441ACTN    H1 4405   5.112   5.587   1.059
  441ACTN    H2 4406   5.174   5.467   1.174
  441ACTN    H3 4407   5.255   5.492   1.017
  441ACTN    H4 4408   5.220   5.767   1.311
  441ACTN    H5 4409   5.373   5.700   1.355
  441ACTN    H6 4410   5.227   5.598   1.365
  442ACTN    C1 4411   1.206   5.788   1.718
  442ACTN    O1 4412   0.982   5.704   1.737
  442ACTN    C2 4413   1.083   5.749   1.794
  442ACTN    C3 4414   1.059   5.802   1.929
  442ACTN    H1 4415   1.289   5.719   1.738
  442ACTN    H2 4416   1.235   5.888   1.748
  442ACTN    H3 4417   1.186   5.784   1.610
  442ACTN    H4 4418   1.090   5.724   1.998
  442ACTN    H5 4419   0.953   5.816   1.951
  442ACTN    H6 4420   1.113   5.893   1.951
  443ACTN    C1 4421   3.639   4.966   1.500
  443ACTN    O1 4422   3.552   4.760   1.413
  443ACTN    C2 4423   3.587   4.877   1.391
  443ACTN    C3 4424   3.617   4.907   1.250
  443ACTN    H1 4425   3.569   5.046   1.523
  443ACTN    H2 4426   3.733   5.008   1.468
  443ACTN    H3 4427   3.653   4.908   1.592
  443ACTN    H4 4428   3.528   4.957   1.211
  443ACTN    H5 4429   3.627   4.817   1.189
  443ACTN    H6 4430   3.704   4.970   1.236
  444ACTN    C1 4431   2.611   7.244   5.819
  444ACTN    O1 4432   2.439   7.078   5.804
  444ACTN    C2 4433   2.488   7.183   5.758
  444ACTN    C3 4434   2.447   7.216   5.622
  444ACTN    H1 4435   2.588   7.338   5.870
  444ACTN    H2 4436   2.682   7.263   5.739
  444ACTN    H3 4437   2.654   7.176   5.893
  444ACTN    H4 4438   2.369   7.292   5.631
  444ACTN    H5 4439   2.399   7.133   5.570
  444ACTN    H6 4440   2.527   7.255   5.560
  445ACTN    C1 4441   3.613   2.827   2.272
  445ACTN    O1 4442   3.685   2.620   2.174
  445ACTN    C2 4443   3.625   2.728   2.160
  445ACTN    C3 4444   3.606   2.771   2.021
  445ACTN    H1 4445   3.511   2.834   2.310
  445ACTN    H2 4446   3.645   2.924   2.236
  445ACTN    H3 4447   3.677   2.796   2.356
  445ACTN    H4 4448   3.503   2.744   1.995
  445ACTN    H5 4449   3.668   2.714   1.950
  445ACTN    H6 4450   3.620   2.876   2.005
  446ACTN    C1 4451   5.881   0.502   5.291
  446ACTN    O1 4452   6.053   0.432   5.442
  446ACTN    C2 4453   5.942   0.408   5.391
  446ACTN    C3 4454   5.898   0.269   5.400
  446ACTN    H1 4455   5.793   0.553   5.332
  446ACTN    H2 4456   5.851   0.444   5.204
  446ACTN    H3 4457   5.953   0.579   5.262
  446ACTN    H4 4458   5.828   0.264   5.483
  446ACTN    H5 4459   5.979   0.201   5.428
  446ACTN    H6 4460   5.850   0.232   5.310
  447ACTN    C1 4461   0.787   2.657   5.678
  447ACTN    O1 4462   0.798   2.430   5.602
  447ACTN    C2 4463   0.779   2.549   5.574
  447ACTN    C3 4464   0.791   2.582   5.431
  447ACTN    H1 4465   0.690   2.700   5.699
  447ACTN    H2 4466   0.854   2.735   5.641
  447ACTN    H3 4467   0.827   2.616   5.771
  447ACTN    H4 4468   0.690   2.587   5.392
  447ACTN    H5 4469   0.839   2.502   5.374
  447ACTN    H6 4470   0.842   2.675   5.412
  448ACTN    C1 4471   2.899   6.293   2.748
  448ACTN    O1 4472   2.914   6.506   2.639
  448ACTN    C2 4473   2.894   6.384   2.629
  448ACTN    C3 4474   2.825   6.342   2.507
  448ACTN    H1 4475   2.985   6.227   2.746
  448ACTN    H2 4476   2.808   6.234   2.750
  448ACTN    H3 4477   2.906   6.353   2.840
  448ACTN    H4 4478   2.902   6.305   2.439
  448ACTN    H5 4479   2.779   6.426   2.453
  448ACTN    H6 4480   2.751   6.265   2.522
  449ACTN    C1 4481   2.676   7.177   0.582
  449ACTN    O1 4482   2.564   7.389   0.571
  449ACTN    C2 4483   2.603   7.294   0.641
  449ACTN    C3 4484   2.614   7.323   0.785
  449ACTN    H1 4485   2.617   7.086   0.584
  449ACTN    H2 4486   2.768   7.161   0.639
  449ACTN    H3 4487   2.701   7.198   0.477
  449ACTN    H4 4488   2.524   7.282   0.830
  449ACTN    H5 4489   2.609   7.430   0.806
  449ACTN    H6 4490   2.701   7.282   0.832
  450ACTN    C1 4491   7.249   3.169   3.782
  450ACTN    O1 4492   7.205   3.288   3.986
  450ACTN    C2 4493   7.205   3.289   3.861
  450ACTN    C3 4494   7.123   3.394   3.799
  450ACTN    H1 4495   7.344   3.186   3.732
  450ACTN    H2 4496   7.172   3.147   3.709
  450ACTN    H3 4497   7.262   3.083   3.849
  450ACTN    H4 4498   7.192   3.473   3.771
  450ACTN    H5 4499   7.054   3.440   3.870
  450ACTN    H6 4500   7.068   3.361   3.712
  451ACTN    C1 4501   2.211   3.811   4.437
  451ACTN    O1 4502   2.416   3.718   4.521
  451ACTN    C2 4503   2.316   3.789   4.542
  451ACTN    C3 4504   2.286   3.812   4.684
  451ACTN    H1 4505   2.212   3.913   4.400
  451ACTN    H2 4506   2.114   3.789   4.481
  451ACTN    H3 4507   2.230   3.744   4.351
  451ACTN    H4 4508   2.325   3.911   4.707
  451ACTN    H5 4509   2.340   3.745   4.750
  451ACTN    H6 4510   2.181   3.808   4.707
  452ACTN    C1 4511   3.120   6.581   4.565
  452ACTN    O1 4512   2.939   6.525   4.417
  452ACTN    C2 4513   3.012   6.490   4.512
  452ACTN    C3 4514   2.960   6.380   4.593
  452ACTN    H1 4515   3.219   6.543   4.543
  452ACTN    H2 4516   3.108   6.588   4.673
  452ACTN    H3 4517   3.111   6.680   4.520
  452ACTN    H4 4518   3.012   6.290   4.559
  452ACTN    H5 4519   2.854   6.360   4.574
  452ACTN    H6 4520   2.976   6.393   4.699
  453ACTN    C1 4521   2.757   3.765   2.304
  453ACTN    O1 4522   2.518   3.774   2.332
  453ACTN    C2 4523   2.619   3.819   2.274
  453ACTN    C3 4524   2.593   3.891   2.150
  453ACTN    H1 4525   2.818   3.838   2.357
  453ACTN    H2 4526   2.804   3.740   2.210
  453ACTN    H3 4527   2.749   3.676   2.367
  453ACTN    H4 4528   2.597   3.997   2.175
  453ACTN    H5 4529   2.491   3.876   2.113
  453ACTN    H6 4530   2.664   3.871   2.071
  454ACTN    C1 4531   5.328   7.004   5.689
  454ACTN    O1 4532   5.214   6.886   5.514
  454ACTN    C2 4533   5.225   6.909   5.636
  454ACTN    C3 4534   5.107   6.874   5.716
  454ACTN    H1 4535   5.406   6.953   5.745
  454ACTN    H2 4536   5.279   7.075   5.755
  454ACTN    H3 4537   5.377   7.057   5.607
  454ACTN    H4 4538   5.130   6.778   5.763
  454ACTN    H5 4539   5.019   6.856   5.655
  454ACTN    H6 4540   5.083   6.947   5.793
  455ACTN    C1 4541   5.477   0.879   6.248
  455ACTN    O1 4542   5.269   1.000   6.238
  455ACTN    C2 4543   5.349   0.933   6.306
  455ACTN    C3 4544   5.335   0.948   6.451
  455ACTN    H1 4545   5.474   0.771   6.238
  455ACTN    H2 4546   5.559   0.908   6.312
  455ACTN    H3 4547   5.492   0.920   6.147
  455ACTN    H4 4548   5.279   0.861   6.485
  455ACTN    H5 4549   5.272   1.033   6.479
  455ACTN    H6 4550   5.428   0.954   6.505
  456ACTN    C1 4551   7.319   5.717   6.145
  456ACTN    O1 4552   7.146   5.881   6.117
  456ACTN    C2 4553   7.242   5.820   6.067
  456ACTN    C3 4554   7.247   5.821   5.921
  456ACTN    H1 4555   7.419   5.752   6.169
  456ACTN    H2 4556   7.325   5.627   6.086
  456ACTN    H3 4557   7.268   5.697   6.240
  456ACTN    H4 4558   7.319   5.897   5.893
  456ACTN    H5 4559   7.153   5.854   5.875
  456ACTN    H6 4560   7.276   5.726   5.877
  457ACTN    C1 4561   0.404   5.575   2.500
  457ACTN    O1 4562   0.363   5.809   2.467
  457ACTN    C2 4563   0.378   5.715   2.547
  457ACTN    C3 4564   0.411   5.755   2.684
  457ACTN    H1 4565   0.320   5.509   2.518
  457ACTN    H2 4566   0.491   5.537   2.552
  457ACTN    H3 4567   0.423   5.575   2.392
  457ACTN    H4 4568   0.318   5.750   2.741
  457ACTN    H5 4569   0.442   5.860   2.691
  457ACTN    H6 4570   0.486   5.693   2.731
  458ACTN    C1 4571   0.508   1.875   1.413
  458ACTN    O1 4572   0.539   2.112   1.438
  458ACTN    C2 4573   0.541   2.013   1.362
  458ACTN    C3 4574   0.535   2.043   1.219
  458ACTN    H1 4575   0.595   1.810   1.415
  458ACTN    H2 4576   0.433   1.832   1.347
  458ACTN    H3 4577   0.468   1.881   1.515
  458ACTN    H4 4578   0.637   2.037   1.182
  458ACTN    H5 4579   0.505   2.147   1.200
  458ACTN    H6 4580   0.471   1.977   1.163
  459ACTN    C1 4581   4.571   2.091   3.050
  459ACTN    O1 4582   4.371   1.964   3.092
  459ACTN    C2 4583   4.467   2.029   3.139
  459ACTN    C3 4584   4.449   2.076   3.276
  459ACTN    H1 4585   4.667   2.041   3.059
  459ACTN    H2 4586   4.582   2.195   3.078
  459ACTN    H3 4587   4.539   2.083   2.945
  459ACTN    H4 4588   4.502   2.006   3.340
  459ACTN    H5 4589   4.345   2.069   3.310
  459ACTN    H6 4590   4.485   2.177   3.294
  460ACTN    C1 4591   2.143   7.290   5.947
  460ACTN    O1 4592   2.274   7.491   5.971
  460ACTN    C2 4593   2.204   7.403   6.026
  460ACTN    C3 4594   2.221   7.392   6.171
  460ACTN    H1 4595   2.035   7.299   5.941
  460ACTN    H2 4596   2.169   7.197   5.996
  460ACTN    H3 4597   2.183   7.291   5.845
  460ACTN    H4 4598   2.137   7.446   6.215
  460ACTN    H5 4599   2.309   7.445   6.207
  460ACTN    H6 4600   2.223   7.290   6.207
  461ACTN    C1 4601   3.032   0.394   6.738
  461ACTN    O1 4602   3.079   0.613   6.824
  461ACTN    C2 4603   3.041   0.543   6.728
  461ACTN    C3 4604   2.965   0.616   6.625
  461ACTN    H1 4605   3.107   0.345   6.676
  461ACTN    H2 4606   2.933   0.363   6.705
  461ACTN    H3 4607   3.048   0.362   6.841
  461ACTN    H4 4608   3.036   0.636   6.545
  461ACTN    H5 4609   2.933   0.715   6.659
  461ACTN    H6 4610   2.880   0.561   6.586
  462ACTN    C1 4611   3.342   3.030   4.217
  462ACTN    O1 4612   3.338   2.811   4.121
  462ACTN    C2 4613   3.326   2.881   4.222
  462ACTN    C3 4614   3.254   2.818   4.333
  462ACTN    H1 4615   3.432   3.064   4.268
  462ACTN    H2 4616   3.255   3.076   4.264
  462ACTN    H3 4617   3.349   3.064   4.113
  462ACTN    H4 4618   3.330   2.783   4.403
  462ACTN    H5 4619   3.201   2.728   4.303
  462ACTN    H6 4620   3.185   2.884   4.385
  463ACTN    C1 4621   5.132   2.261   1.832
  463ACTN    O1 4622   5.350   2.302   1.922
  463ACTN    C2 4623   5.247   2.349   1.872
  463ACTN    C3 4624   5.226   2.492   1.894
  463ACTN    H1 4625   5.120   2.256   1.724
  463ACTN    H2 4626   5.041   2.301   1.876
  463ACTN    H3 4627   5.149   2.159   1.868
  463ACTN    H4 4628   5.258   2.542   1.803
  463ACTN    H5 4629   5.292   2.533   1.972
  463ACTN    H6 4630   5.124   2.520   1.917
  464ACTN    C1 4631   6.414   7.400   2.633
  464ACTN    O1 4632   6.637   7.312   2.618
  464ACTN    C2 4633   6.564   7.412   2.628
  464ACTN    C3 4634   6.631   7.533   2.677
  464ACTN    H1 4635   6.368   7.440   2.542
  464ACTN    H2 4636   6.379   7.457   2.718
  464ACTN    H3 4637   6.385   7.295   2.642
  464ACTN    H4 4638   6.653   7.593   2.589
  464ACTN    H5 4639   6.729   7.511   2.721
  464ACTN    H6 4640   6.573   7.590   2.747
  465ACTN    C1 4641   3.571   1.620   7.603
  465ACTN    O1 4642   3.638   1.827   7.502
  465ACTN    C2 4643   3.586   1.715   7.488
  465ACTN    C3 4644   3.503   1.700   7.368
  465ACTN    H1 4645   3.636   1.534   7.593
  465ACTN    H2 4646   3.468   1.587   7.607
  465ACTN    H3 4647   3.597   1.671   7.697
  465ACTN    H4 4648   3.565   1.648   7.295
  465ACTN    H5 4649   3.480   1.795   7.320
  465ACTN    H6 4650   3.412   1.644   7.384
  466ACTN    C1 4651   0.889   5.286   3.759
  466ACTN    O1 4652   0.858   5.492   3.640
  466ACTN    C2 4653   0.847   5.430   3.747
  466ACTN    C3 4654   0.833   5.514   3.866
  466ACTN    H1 4655   0.803   5.220   3.771
  466ACTN    H2 4656   0.954   5.276   3.845
  466ACTN    H3 4657   0.942   5.255   3.668
  466ACTN    H4 4658   0.727   5.515   3.890
  466ACTN    H5 4659   0.859   5.618   3.848
  466ACTN    H6 4660   0.889   5.478   3.952
  467ACTN    C1 4661   0.363   2.680   5.228
  467ACTN    O1 4662   0.188   2.788   5.350
  467ACTN    C2 4663   0.310   2.773   5.333
  467ACTN    C3 4664   0.395   2.878   5.389
  467ACTN    H1 4665   0.410   2.591   5.271
  467ACTN    H2 4666   0.436   2.733   5.168
  467ACTN    H3 4667   0.281   2.645   5.164
  467ACTN    H4 4668   0.432   2.840   5.483
  467ACTN    H5 4669   0.338   2.968   5.416
  467ACTN    H6 4670   0.478   2.906   5.325
  468ACTN    C1 4671   1.577   4.561   2.379
  468ACTN    O1 4672   1.622   4.326   2.389
  468ACTN    C2 4673   1.595   4.425   2.319
  468ACTN    C3 4674   1.624   4.409   2.176
  468ACTN    H1 4675   1.473   4.595   2.374
  468ACTN    H2 4676   1.639   4.631   2.324
  468ACTN    H3 4677   1.607   4.560   2.485
  468ACTN    H4 4678   1.530   4.386   2.128
  468ACTN    H5 4679   1.688   4.323   2.156
  468ACTN    H6 4680   1.668   4.497   2.130
  469ACTN    C1 4681   7.608   4.589   3.133
  469ACTN    O1 4682   7.716   4.378   3.098
  469ACTN    C2 4683   7.658   4.475   3.048
  469ACTN    C3 4684   7.680   4.494   2.904
  469ACTN    H1 4685   7.499   4.592   3.137
  469ACTN    H2 4686   7.644   4.682   3.091
  469ACTN    H3 4687   7.644   4.577   3.236
  469ACTN    H4 4688   7.592   4.453   2.855
  469ACTN    H5 4689   7.763   4.434   2.866
  469ACTN    H6 4690   7.694   4.597   2.875
  470ACTN    C1 4691   0.462   5.700   3.868
  470ACTN    O1 4692   0.402   5.930   3.902
  470ACTN    C2 4693   0.470   5.833   3.939
  470ACTN    C3 4694   0.586   5.866   4.022
  470ACTN    H1 4695   0.415   5.624   3.929
  470ACTN    H2 4696   0.563   5.668   3.844
  470ACTN    H3 4697   0.404   5.710   3.776
  470ACTN    H4 4698   0.555   5.846   4.125
  470ACTN    H5 4699   0.610   5.972   4.021
  470ACTN    H6 4700   0.675   5.809   3.999
  471ACTN    C1 4701   4.023   7.517   5.649
  471ACTN    O1 4702   3.862   7.370   5.549
  471ACTN    C2 4703   3.899   7.486   5.569
  471ACTN    C3 4704   3.843   7.586   5.477
  471ACTN    H1 4705   3.999   7.563   5.745
  471ACTN    H2 4706   4.085   7.585   5.591
  471ACTN    H3 4707   4.078   7.425   5.669
  471ACTN    H4 4708   3.761   7.634   5.531
  471ACTN    H5 4709   3.796   7.541   5.390
  471ACTN    H6 4710   3.914   7.661   5.445
  472ACTN    C1 4711   2.808   6.260   3.188
  472ACTN    O1 4712   2.858   6.100   3.360
  472ACTN    C2 4713   2.777   6.141   3.275
  472ACTN    C3 4714   2.675   6.044   3.234
  472ACTN    H1 4715   2.746   6.346   3.213
  472ACTN    H2 4716   2.791   6.232   3.085
  472ACTN    H3 4717   2.913   6.290   3.202
  472ACTN    H4 4718   2.585   6.071   3.290
  472ACTN    H5 4719   2.698   5.942   3.267
  472ACTN    H6 4720   2.653   6.044   3.128
  473ACTN    C1 4721   7.345   4.690   2.885
  473ACTN    O1 4722   7.345   4.907   2.783
  473ACTN    C2 4723   7.323   4.785   2.771
  473ACTN    C3 4724   7.236   4.749   2.659
  473ACTN    H1 4725   7.429   4.623   2.867
  473ACTN    H2 4726   7.255   4.630   2.897
  473ACTN    H3 4727   7.366   4.745   2.977
  473ACTN    H4 4728   7.302   4.715   2.579
  473ACTN    H5 4729   7.184   4.835   2.616
  473ACTN    H6 4730   7.165   4.671   2.682
  474ACTN    C1 4731   6.627   4.474   2.409
  474ACTN    O1 4732   6.796   4.625   2.486
  474ACTN    C2 4733   6.752   4.555   2.393
  474ACTN    C3 4734   6.802   4.590   2.260
  474ACTN    H1 4735   6.648   4.367   2.411
  474ACTN    H2 4736   6.561   4.496   2.326
  474ACTN    H3 4737   6.578   4.499   2.504
  474ACTN    H4 4738   6.881   4.519   2.237
  474ACTN    H5 4739   6.852   4.688   2.258
  474ACTN    H6 4740   6.727   4.587   2.182
  475ACTN    C1 4741   1.290   3.234   0.160
  475ACTN    O1 4742   1.063   3.287   0.103
  475ACTN    C2 4743   1.144   3.251   0.190
  475ACTN    C3 4744   1.098   3.270   0.328
  475ACTN    H1 4745   1.321   3.130   0.163
  475ACTN    H2 4746   1.347   3.290   0.233
  475ACTN    H3 4747   1.312   3.272   0.059
  475ACTN    H4 4748   1.064   3.172   0.362
  475ACTN    H5 4749   1.010   3.334   0.335
  475ACTN    H6 4750   1.175   3.306   0.395
  476ACTN    C1 4751   5.849   0.415   2.331
  476ACTN    O1 4752   6.043   0.526   2.243
  476ACTN    C2 4753   5.993   0.460   2.335
  476ACTN    C3 4754   6.089   0.395   2.425
  476ACTN    H1 4755   5.788   0.468   2.403
  476ACTN    H2 4756   5.846   0.309   2.352
  476ACTN    H3 4757   5.807   0.434   2.231
  476ACTN    H4 4758   6.096   0.458   2.513
  476ACTN    H5 4759   6.190   0.392   2.383
  476ACTN    H6 4760   6.060   0.295   2.454
  477ACTN    C1 4761   4.461   6.651   5.146
  477ACTN    O1 4762   4.314   6.514   5.014
  477ACTN    C2 4763   4.414   6.588   5.018
  477ACTN    C3 4764   4.505   6.575   4.904
  477ACTN    H1 4765   4.445   6.758   5.147
  477ACTN    H2 4766   4.566   6.630   5.158
  477ACTN    H3 4767   4.405   6.609   5.231
  477ACTN    H4 4768   4.482   6.658   4.837
  477ACTN    H5 4769   4.485   6.486   4.844
  477ACTN    H6 4770   4.609   6.577   4.930
  478ACTN    C1 4771   6.640   7.151   3.933
  478ACTN    O1 4772   6.456   7.304   3.952
  478ACTN    C2 4773   6.504   7.192   3.979
  478ACTN    C3 4774   6.440   7.124   4.092
  478ACTN    H1 4775   6.636   7.073   3.857
  478ACTN    H2 4776   6.696   7.114   4.018
  478ACTN    H3 4777   6.692   7.237   3.889
  478ACTN    H4 4778   6.371   7.051   4.048
  478ACTN    H5 4779   6.376   7.190   4.151
  478ACTN    H6 4780   6.509   7.073   4.158
  479ACTN    C1 4781   5.461   6.070   1.251
  479ACTN    O1 4782   5.644   6.222   1.220
  479ACTN    C2 4783   5.607   6.106   1.246
  479ACTN    C3 4784   5.709   6.002   1.227
  479ACTN    H1 4785   5.429   6.047   1.352
  479ACTN    H2 4786   5.446   5.982   1.189
  479ACTN    H3 4787   5.401   6.153   1.214
  479ACTN    H4 4788   5.748   5.980   1.327
  479ACTN    H5 4789   5.796   6.038   1.171
  479ACTN    H6 4790   5.672   5.911   1.182
  480ACTN    C1 4791   3.328   1.663   0.951
  480ACTN    O1 4792   3.488   1.487   0.989
  480ACTN    C2 4793   3.467   1.606   0.957
  480ACTN    C3 4794   3.584   1.694   0.968
  480ACTN    H1 4795   3.297   1.684   0.849
  480ACTN    H2 4796   3.327   1.755   1.008
  480ACTN    H3 4797   3.257   1.591   0.993
  480ACTN    H4 4798   3.623   1.704   0.867
  480ACTN    H5 4799   3.665   1.649   1.025
  480ACTN    H6 4800   3.561   1.792   1.008
  481ACTN    C1 4801   3.115   1.028   5.324
  481ACTN    O1 4802   3.173   0.836   5.193
  481ACTN    C2 4803   3.090   0.926   5.217
  481ACTN    C3 4804   2.993   0.952   5.111
  481ACTN    H1 4805   3.048   1.015   5.409
  481ACTN    H2 4806   3.099   1.127   5.282
  481ACTN    H3 4807   3.218   1.020   5.362
  481ACTN    H4 4808   2.902   0.900   5.140
  481ACTN    H5 4809   3.022   0.906   5.016
  481ACTN    H6 4810   2.972   1.057   5.094
  482ACTN    C1 4811   5.536   6.899   3.912
  482ACTN    O1 4812   5.489   7.110   3.807
  482ACTN    C2 4813   5.567   7.041   3.876
  482ACTN    C3 4814   5.705   7.091   3.880
  482ACTN    H1 4815   5.516   6.888   4.019
  482ACTN    H2 4816   5.621   6.837   3.886
  482ACTN    H3 4817   5.447   6.865   3.858
  482ACTN    H4 4818   5.715   7.144   3.975
  482ACTN    H5 4819   5.725   7.167   3.804
  482ACTN    H6 4820   5.780   7.013   3.873
  483ACTN    C1 4821   0.822   2.545   6.823
  483ACTN    O1 4822   0.835   2.459   6.599
  483ACTN    C2 4823   0.781   2.538   6.678
  483ACTN    C3 4824   0.711   2.650   6.615
  483ACTN    H1 4825   0.744   2.508   6.889
  483ACTN    H2 4826   0.842   2.649   6.847
  483ACTN    H3 4827   0.911   2.484   6.839
  483ACTN    H4 4828   0.605   2.624   6.615
  483ACTN    H5 4829   0.736   2.661   6.509
  483ACTN    H6 4830   0.725   2.745   6.665
  484ACTN    C1 4831   7.889   7.883   6.832
  484ACTN    O1 4832   7.872   7.709   6.997
  484ACTN    C2 4833   7.836   7.822   6.959
  484ACTN    C3 4834   7.712   7.872   7.019
  484ACTN    H1 4835   7.955   7.967   6.852
  484ACTN    H2 4836   7.805   7.916   6.773
  484ACTN    H3 4837   7.947   7.808   6.777
  484ACTN    H4 4838   7.741   7.940   7.098
  484ACTN    H5 4839   7.655   7.793   7.070
  484ACTN    H6 4840   7.647   7.922   6.949
  485ACTN    C1 4841   1.991   0.631   6.904
  485ACTN    O1 4842   1.962   0.835   6.782
  485ACTN    C2 4843   2.010   0.720   6.785
  485ACTN    C3 4844   2.045   0.664   6.654
  485ACTN    H1 4845   2.085   0.615   6.958
  485ACTN    H2 4846   1.954   0.535   6.869
  485ACTN    H3 4847   1.920   0.676   6.974
  485ACTN    H4 4848   2.152   0.677   6.643
  485ACTN    H5 4849   2.002   0.721   6.571
  485ACTN    H6 4850   2.019   0.560   6.642
  486ACTN    C1 4851   1.264   2.252   7.112
  486ACTN    O1 4852   1.385   2.045   7.113
  486ACTN    C2 4853   1.389   2.169   7.111
  486ACTN    C3 4854   1.517   2.228   7.151
  486ACTN    H1 4855   1.248   2.303   7.017
  486ACTN    H2 4856   1.272   2.326   7.191
  486ACTN    H3 4857   1.176   2.188   7.130
  486ACTN    H4 4858   1.569   2.254   7.059
  486ACTN    H5 4859   1.583   2.156   7.200
  486ACTN    H6 4860   1.508   2.316   7.213
  487ACTN    C1 4861   3.990   5.638   7.742
  487ACTN    O1 4862   3.755   5.679   7.769
  487ACTN    C2 4863   3.861   5.637   7.819
  487ACTN    C3 4864   3.862   5.627   7.965
  487ACTN    H1 4865   4.023   5.537   7.716
  487ACTN    H2 4866   4.066   5.684   7.804
  487ACTN    H3 4867   3.978   5.694   7.649
  487ACTN    H4 4868   3.842   5.522   7.989
  487ACTN    H5 4869   3.778   5.681   8.011
  487ACTN    H6 4870   3.954   5.658   8.011
  488ACTN    C1 4871   3.106   4.678   6.346
  488ACTN    O1 4872   3.196   4.476   6.254
  488ACTN    C2 4873   3.215   4.594   6.286
  488ACTN    C3 4874   3.356   4.632   6.303
  488ACTN    H1 4875   3.073   4.756   6.278
  488ACTN    H2 4876   3.144   4.724   6.437
  488ACTN    H3 4877   3.019   4.616   6.370
  488ACTN    H4 4878   3.385   4.683   6.211
  488ACTN    H5 4879   3.422   4.545   6.309
  488ACTN    H6 4880   3.374   4.697   6.388
  489ACTN    C1 4881   3.641   1.050   7.494
  489ACTN    O1 4882   3.729   1.224   7.354
  489ACTN    C2 4883   3.703   1.184   7.469
  489ACTN    C3 4884   3.775   1.254   7.576
  489ACTN    H1 4885   3.538   1.058   7.530
  489ACTN    H2 4886   3.700   0.998   7.568
  489ACTN    H3 4887   3.638   0.992   7.401
  489ACTN    H4 4888   3.705   1.326   7.618
  489ACTN    H5 4889   3.859   1.314   7.539
  489ACTN    H6 4890   3.811   1.189   7.655
  490ACTN    C1 4891   2.651   1.447   4.592
  490ACTN    O1 4892   2.687   1.575   4.392
  490ACTN    C2 4893   2.621   1.487   4.450
  490ACTN    C3 4894   2.490   1.459   4.391
  490ACTN    H1 4895   2.692   1.346   4.597
  490ACTN    H2 4896   2.559   1.451   4.649
  490ACTN    H3 4897   2.725   1.515   4.635
  490ACTN    H4 4898   2.502   1.369   4.331
  490ACTN    H5 4899   2.459   1.536   4.319
  490ACTN    H6 4900   2.411   1.445   4.463
  491ACTN    C1 4901   1.353   4.092   7.093
  491ACTN    O1 4902   1.413   4.034   7.318
  491ACTN    C2 4903   1.439   4.025   7.196
  491ACTN    C3 4904   1.576   3.984   7.164
  491ACTN    H1 4905   1.297   4.020   7.034
  491ACTN    H2 4906   1.418   4.149   7.027
  491ACTN    H3 4907   1.281   4.159   7.141
  491ACTN    H4 4908   1.571   3.877   7.142
  491ACTN    H5 4909   1.643   3.991   7.251
  491ACTN    H6 4910   1.619   4.037   7.081
  492ACTN    C1 4911   6.320   5.177   6.365
  492ACTN    O1 4912   6.445   5.052   6.527
  492ACTN    C2 4913   6.359   5.051   6.438
  492ACTN    C3 4914   6.329   4.920   6.381
  492ACTN    H1 4915   6.220   5.210   6.391
  492ACTN    H2 4916   6.325   5.157   6.258
  492ACTN    H3 4917   6.390   5.258   6.391
  492ACTN    H4 4918   6.237   4.886   6.429
  492ACTN    H5 4919   6.404   4.845   6.407
  492ACTN    H6 4920   6.315   4.920   6.273
  493ACTN    C1 4921   1.361   6.774   1.862
  493ACTN    O1 4922   1.162   6.642   1.849
  493ACTN    C2 4923   1.261   6.677   1.916
  493ACTN    C3 4924   1.250   6.653   2.060
  493ACTN    H1 4925   1.457   6.727   1.842
  493ACTN    H2 4926   1.376   6.853   1.936
  493ACTN    H3 4927   1.325   6.818   1.768
  493ACTN    H4 4928   1.306   6.561   2.080
  493ACTN    H5 4929   1.147   6.630   2.091
  493ACTN    H6 4930   1.289   6.733   2.121
  494ACTN    C1 4931   4.628   3.939   2.378
  494ACTN    O1 4932   4.405   3.940   2.289
  494ACTN    C2 4933   4.478   3.949   2.389
  494ACTN    C3 4934   4.416   4.010   2.507
  494ACTN    H1 4935   4.666   3.846   2.422
  494ACTN    H2 4936   4.671   4.023   2.430
  494ACTN    H3 4937   4.658   3.940   2.273
  494ACTN    H4 4938   4.386   3.928   2.571
  494ACTN    H5 4939   4.323   4.062   2.482
  494ACTN    H6 4940   4.481   4.077   2.561
  495ACTN    C1 4941   7.879   7.006   1.509
  495ACTN    O1 4942   7.661   6.974   1.603
  495ACTN    C2 4943   7.784   6.962   1.616
  495ACTN    C3 4944   7.830   6.943   1.753
  495ACTN    H1 4945   7.928   6.922   1.460
  495ACTN    H2 4946   7.955   7.069   1.554
  495ACTN    H3 4947   7.826   7.062   1.431
  495ACTN    H4 4948   7.847   6.836   1.765
  495ACTN    H5 4949   7.753   6.967   1.827
  495ACTN    H6 4950   7.920   6.997   1.778
  496ACTN    C1 4951   1.419   6.178   1.798
  496ACTN    O1 4952   1.412   6.418   1.799
  496ACTN    C2 4953   1.479   6.315   1.780
  496ACTN    C3 4954   1.601   6.333   1.701
  496ACTN    H1 4955   1.460   6.127   1.885
  496ACTN    H2 4956   1.441   6.120   1.709
  496ACTN    H3 4957   1.311   6.186   1.813
  496ACTN    H4 4958   1.683   6.339   1.772
  496ACTN    H5 4959   1.603   6.429   1.648
  496ACTN    H6 4960   1.619   6.254   1.630
  497ACTN    C1 4961   0.409   4.494   1.026
  497ACTN    O1 4962   0.644   4.454   1.055
  497ACTN    C2 4963   0.539   4.499   1.102
  497ACTN    C3 4964   0.538   4.517   1.248
  497ACTN    H1 4965   0.377   4.593   0.994
  497ACTN    H2 4966   0.334   4.450   1.090
  497ACTN    H3 4967   0.422   4.433   0.936
  497ACTN    H4 4968   0.557   4.623   1.266
  497ACTN    H5 4969   0.621   4.466   1.297
  497ACTN    H6 4970   0.446   4.488   1.296
  498ACTN    C1 4971   4.607   3.877   5.447
  498ACTN    O1 4972   4.841   3.822   5.444
  498ACTN    C2 4973   4.740   3.858   5.380
  498ACTN    C3 4974   4.768   3.921   5.251
  498ACTN    H1 4975   4.535   3.801   5.416
  498ACTN    H2 4976   4.569   3.974   5.420
  498ACTN    H3 4977   4.618   3.870   5.556
  498ACTN    H4 4978   4.753   3.844   5.175
  498ACTN    H5 4979   4.873   3.950   5.240
  498ACTN    H6 4980   4.706   4.006   5.229
  499ACTN    C1 4981   2.099   7.823   4.823
  499ACTN    O1 4982   1.871   7.888   4.857
  499ACTN    C2 4983   1.970   7.826   4.899
  499ACTN    C3 4984   1.967   7.796   5.043
  499ACTN    H1 4985   2.120   7.724   4.783
  499ACTN    H2 4986   2.179   7.851   4.891
  499ACTN    H3 4987   2.095   7.893   4.739
  499ACTN    H4 4988   1.935   7.692   5.051
  499ACTN    H5 4989   1.890   7.853   5.096
  499ACTN    H6 4990   2.062   7.808   5.093
  500ACTN    C1 4991   5.612   6.400   2.431
  500ACTN    O1 4992   5.409   6.525   2.409
  500ACTN    C2 4993   5.520   6.496   2.362
  500ACTN    C3 4994   5.537   6.526   2.219
  500ACTN    H1 4995   5.700   6.449   2.472
  500ACTN    H2 4996   5.644   6.325   2.360
  500ACTN    H3 4997   5.560   6.351   2.515
  500ACTN    H4 4998   5.592   6.620   2.214
  500ACTN    H5 4999   5.443   6.546   2.169
  500ACTN    H6 5000   5.591   6.449   2.165
  501ACTN    C1 5001   1.025   3.842   5.849
  501ACTN    O1 5002   0.797   3.911   5.819
  501ACTN    C2 5003   0.917   3.942   5.815
  501ACTN    C3 5004   0.949   4.061   5.735
  501ACTN    H1 5005   1.075   3.867   5.942
  501ACTN    H2 5006   1.097   3.841   5.768
  501ACTN    H3 5007   0.981   3.742   5.861
  501ACTN    H4 5008   0.961   4.142   5.807
  501ACTN    H5 5009   0.865   4.092   5.672
  501ACTN    H6 5010   1.038   4.052   5.675
  502ACTN    C1 5011   5.517   4.569   2.754
  502ACTN    O1 5012   5.318   4.681   2.680
  502ACTN    C2 5013   5.392   4.650   2.775
  502ACTN    C3 5014   5.374   4.730   2.896
  502ACTN    H1 5015   5.508   4.469   2.796
  502ACTN    H2 5016   5.599   4.621   2.803
  502ACTN    H3 5017   5.537   4.559   2.647
  502ACTN    H4 5018   5.312   4.671   2.963
  502ACTN    H5 5019   5.316   4.821   2.878
  502ACTN    H6 5020   5.467   4.756   2.946
  503ACTN    C1 5021   7.068   0.229   2.977
  503ACTN    O1 5022   6.850   0.285   2.895
  503ACTN    C2 5023   6.942   0.310   2.975
  503ACTN    C3 5024   6.938   0.445   3.034
  503ACTN    H1 5025   7.076   0.168   3.067
  503ACTN    H2 5026   7.152   0.297   2.973
  503ACTN    H3 5027   7.070   0.161   2.892
  503ACTN    H4 5028   6.895   0.433   3.133
  503ACTN    H5 5029   6.870   0.512   2.981
  503ACTN    H6 5030   7.035   0.491   3.042
  504ACTN    C1 5031   7.562   3.915   3.366
  504ACTN    O1 5032   7.550   3.710   3.491
  504ACTN    C2 5033   7.617   3.809   3.457
  504ACTN    C3 5034   7.731   3.838   3.544
  504ACTN    H1 5035   7.610   3.914   3.268
  504ACTN    H2 5036   7.577   4.012   3.412
  504ACTN    H3 5037   7.454   3.897   3.349
  504ACTN    H4 5038   7.819   3.798   3.493
  504ACTN    H5 5039   7.727   3.784   3.639
  504ACTN    H6 5040   7.746   3.944   3.564
  505ACTN    C1 5041   1.924   4.120   1.152
  505ACTN    O1 5042   1.953   3.882   1.168
  505ACTN    C2 5043   1.935   3.990   1.227
  505ACTN    C3 5044   1.883   3.979   1.364
  505ACTN    H1 5045   2.011   4.184   1.169
  505ACTN    H2 5046   1.835   4.171   1.185
  505ACTN    H3 5047   1.919   4.101   1.044
  505ACTN    H4 5048   1.969   3.990   1.430
  505ACTN    H5 5049   1.845   3.879   1.385
  505ACTN    H6 5050   1.808   4.052   1.389
  506ACTN    C1 5051   7.618   1.196   0.443
  506ACTN    O1 5052   7.532   0.974   0.467
  506ACTN    C2 5053   7.578   1.075   0.522
  506ACTN    C3 5054   7.550   1.086   0.666
  506ACTN    H1 5055   7.726   1.211   0.443
  506ACTN    H2 5056   7.570   1.283   0.487
  506ACTN    H3 5057   7.586   1.185   0.339
  506ACTN    H4 5058   7.640   1.053   0.717
  506ACTN    H5 5059   7.472   1.017   0.699
  506ACTN    H6 5060   7.524   1.186   0.698
  507ACTN    C1 5061   2.901   4.392   4.093
  507ACTN    O1 5062   2.843   4.279   4.297
  507ACTN    C2 5063   2.833   4.381   4.227
  507ACTN    C3 5064   2.720   4.468   4.260
  507ACTN    H1 5065   2.982   4.464   4.095
  507ACTN    H2 5066   2.827   4.423   4.020
  507ACTN    H3 5067   2.944   4.295   4.065
  507ACTN    H4 5068   2.760   4.549   4.320
  507ACTN    H5 5069   2.647   4.419   4.325
  507ACTN    H6 5070   2.669   4.509   4.174
  508ACTN    C1 5071   1.326   2.893   6.541
  508ACTN    O1 5072   1.534   2.948   6.435
  508ACTN    C2 5073   1.470   2.868   6.505
  508ACTN    C3 5074   1.526   2.733   6.512
  508ACTN    H1 5075   1.314   2.916   6.646
  508ACTN    H2 5076   1.268   2.805   6.516
  508ACTN    H3 5077   1.288   2.979   6.484
  508ACTN    H4 5078   1.579   2.728   6.607
  508ACTN    H5 5079   1.602   2.715   6.436
  508ACTN    H6 5080   1.452   2.654   6.508
  509ACTN    C1 5081   1.594   3.801   5.372
  509ACTN    O1 5082   1.510   3.705   5.575
  509ACTN    C2 5083   1.609   3.735   5.506
  509ACTN    C3 5084   1.735   3.744   5.580
  509ACTN    H1 5085   1.623   3.734   5.291
  509ACTN    H2 5086   1.657   3.889   5.369
  509ACTN    H3 5087   1.490   3.830   5.355
  509ACTN    H4 5088   1.787   3.650   5.561
  509ACTN    H5 5089   1.721   3.746   5.688
  509ACTN    H6 5090   1.798   3.827   5.550
  510ACTN    C1 5091   3.739   4.034   3.613
  510ACTN    O1 5092   3.733   4.072   3.376
  510ACTN    C2 5093   3.799   4.036   3.475
  510ACTN    C3 5094   3.919   3.957   3.445
  510ACTN    H1 5095   3.782   4.111   3.677
  510ACTN    H2 5096   3.758   3.936   3.657
  510ACTN    H3 5097   3.631   4.052   3.607
  510ACTN    H4 5098   4.003   4.027   3.450
  510ACTN    H5 5099   3.920   3.921   3.342
  510ACTN    H6 5100   3.936   3.875   3.512
  511ACTN    C1 5101   0.743   2.816   0.119
  511ACTN    O1 5102   0.589   2.809   0.303
  511ACTN    C2 5103   0.681   2.869   0.246
  511ACTN    C3 5104   0.696   3.010   0.282
  511ACTN    H1 5105   0.844   2.782   0.134
  511ACTN    H2 5106   0.743   2.896   0.045
  511ACTN    H3 5107   0.684   2.732   0.082
  511ACTN    H4 5108   0.778   3.015   0.354
  511ACTN    H5 5109   0.609   3.049   0.336
  511ACTN    H6 5110   0.718   3.075   0.199
  512ACTN    C1 5111   1.257   4.254   5.567
  512ACTN    O1 5112   1.271   4.109   5.376
  512ACTN    C2 5113   1.288   4.223   5.423
  512ACTN    C3 5114   1.378   4.309   5.346
  512ACTN    H1 5115   1.170   4.319   5.576
  512ACTN    H2 5116   1.343   4.302   5.611
  512ACTN    H3 5117   1.234   4.161   5.621
  512ACTN    H4 5118   1.314   4.375   5.288
  512ACTN    H5 5119   1.437   4.254   5.272
  512ACTN    H6 5120   1.445   4.369   5.407
  513ACTN    C1 5121   0.238   0.061   3.529
  513ACTN    O1 5122   0.466  -0.011   3.508
  513ACTN    C2 5123   0.362   0.030   3.452
  513ACTN    C3 5124   0.383   0.085   3.317
  513ACTN    H1 5125   0.158  -0.011   3.509
  513ACTN    H2 5126   0.204   0.160   3.501
  513ACTN    H3 5127   0.258   0.057   3.637
  513ACTN    H4 5128   0.355   0.006   3.248
  513ACTN    H5 5129   0.488   0.105   3.296
  513ACTN    H6 5130   0.325   0.174   3.297
  514ACTN    C1 5131   0.101   3.082   1.388
  514ACTN    O1 5132  -0.044   3.011   1.211
  514ACTN    C2 5133   0.040   2.979   1.297
  514ACTN    C3 5134   0.043   2.837   1.332
  514ACTN    H1 5135   0.206   3.099   1.366
  514ACTN    H2 5136   0.091   3.046   1.490
  514ACTN    H3 5137   0.048   3.178   1.377
  514ACTN    H4 5138   0.127   2.794   1.276
  514ACTN    H5 5139  -0.045   2.783   1.296
  514ACTN    H6 5140   0.056   2.818   1.437
  515ACTN    C1 5141   6.241   4.628   5.452
  515ACTN    O1 5142   6.300   4.859   5.476
  515ACTN    C2 5143   6.215   4.770   5.492
  515ACTN    C3 5144   6.110   4.802   5.589
  515ACTN    H1 5145   6.181   4.598   5.366
  515ACTN    H2 5146   6.218   4.564   5.536
  515ACTN    H3 5147   6.346   4.616   5.424
  515ACTN    H4 5148   6.023   4.834   5.531
  515ACTN    H5 5149   6.134   4.889   5.651
  515ACTN    H6 5150   6.082   4.719   5.653
  516ACTN    C1 5151   3.473   4.665   3.948
  516ACTN    O1 5152   3.681   4.598   3.849
  516ACTN    C2 5153   3.560   4.576   3.864
  516ACTN    C3 5154   3.500   4.488   3.763
  516ACTN    H1 5155   3.440   4.615   4.039
  516ACTN    H2 5156   3.386   4.693   3.889
  516ACTN    H3 5157   3.529   4.754   3.977
  516ACTN    H4 5158   3.493   4.389   3.808
  516ACTN    H5 5159   3.565   4.473   3.676
  516ACTN    H6 5160   3.402   4.519   3.729
  517ACTN    C1 5161   2.106   6.209   3.110
  517ACTN    O1 5162   1.895   6.095   3.099
  517ACTN    C2 5163   1.986   6.155   3.038
  517ACTN    C3 5164   1.990   6.130   2.893
  517ACTN    H1 5165   2.107   6.317   3.112
  517ACTN    H2 5166   2.195   6.173   3.059
  517ACTN    H3 5167   2.106   6.174   3.214
  517ACTN    H4 5168   1.942   6.217   2.847
  517ACTN    H5 5169   1.928   6.045   2.863
  517ACTN    H6 5170   2.090   6.118   2.854
  518ACTN    C1 5171   5.356   6.547   3.035
  518ACTN    O1 5172   5.390   6.777   3.093
  518ACTN    C2 5173   5.424   6.659   3.108
  518ACTN    C3 5174   5.558   6.641   3.165
  518ACTN    H1 5175   5.298   6.484   3.102
  518ACTN    H2 5176   5.432   6.486   2.987
  518ACTN    H3 5177   5.288   6.587   2.960
  518ACTN    H4 5178   5.544   6.619   3.271
  518ACTN    H5 5179   5.618   6.732   3.163
  518ACTN    H6 5180   5.615   6.560   3.120
  519ACTN    C1 5181   4.112   5.986   0.553
  519ACTN    O1 5182   4.284   5.822   0.584
  519ACTN    C2 5183   4.255   5.942   0.568
  519ACTN    C3 5184   4.359   6.037   0.609
  519ACTN    H1 5185   4.091   6.021   0.452
  519ACTN    H2 5186   4.094   6.067   0.623
  519ACTN    H3 5187   4.044   5.903   0.573
  519ACTN    H4 5188   4.409   6.068   0.517
  519ACTN    H5 5189   4.437   5.991   0.669
  519ACTN    H6 5190   4.321   6.124   0.660
  520ACTN    C1 5191   3.744   7.464   7.086
  520ACTN    O1 5192   3.880   7.661   7.069
  520ACTN    C2 5193   3.805   7.591   7.139
  520ACTN    C3 5194   3.817   7.613   7.284
  520ACTN    H1 5195   3.636   7.474   7.073
  520ACTN    H2 5196   3.764   7.384   7.157
  520ACTN    H3 5197   3.787   7.440   6.988
  520ACTN    H4 5198   3.733   7.677   7.311
  520ACTN    H5 5199   3.905   7.671   7.310
  520ACTN    H6 5200   3.814   7.523   7.343
  521ACTN    C1 5201   3.636   2.490   1.374
  521ACTN    O1 5202   3.721   2.305   1.246
  521ACTN    C2 5203   3.706   2.428   1.256
  521ACTN    C3 5204   3.795   2.509   1.172
  521ACTN    H1 5205   3.540   2.532   1.347
  521ACTN    H2 5206   3.699   2.568   1.414
  521ACTN    H3 5207   3.618   2.414   1.451
  521ACTN    H4 5208   3.736   2.538   1.085
  521ACTN    H5 5209   3.878   2.450   1.131
  521ACTN    H6 5210   3.834   2.597   1.221
  522ACTN    C1 5211   4.511   4.366   4.089
  522ACTN    O1 5212   4.730   4.285   4.144
  522ACTN    C2 5213   4.613   4.258   4.114
  522ACTN    C3 5214   4.592   4.122   4.062
  522ACTN    H1 5215   4.436   4.369   4.167
  522ACTN    H2 5216   4.463   4.346   3.994
  522ACTN    H3 5217   4.560   4.464   4.086
  522ACTN    H4 5218   4.553   4.064   4.146
  522ACTN    H5 5219   4.686   4.073   4.035
  522ACTN    H6 5220   4.523   4.117   3.979
  523ACTN    C1 5221   7.424   7.120   4.793
  523ACTN    O1 5222   7.387   6.977   4.604
  523ACTN    C2 5223   7.444   6.994   4.713
  523ACTN    C3 5224   7.493   6.872   4.777
  523ACTN    H1 5225   7.514   7.181   4.796
  523ACTN    H2 5226   7.397   7.092   4.894
  523ACTN    H3 5227   7.344   7.181   4.749
  523ACTN    H4 5228   7.600   6.868   4.755
  523ACTN    H5 5229   7.452   6.781   4.732
  523ACTN    H6 5230   7.478   6.869   4.884
  524ACTN    C1 5231   5.901   2.085   0.765
  524ACTN    O1 5232   5.848   2.308   0.839
  524ACTN    C2 5233   5.853   2.186   0.866
  524ACTN    C3 5234   5.853   2.154   1.009
  524ACTN    H1 5235   5.820   2.021   0.731
  524ACTN    H2 5236   5.977   2.024   0.812
  524ACTN    H3 5237   5.942   2.137   0.678
  524ACTN    H4 5238   5.751   2.126   1.033
  524ACTN    H5 5239   5.873   2.242   1.072
  524ACTN    H6 5240   5.921   2.075   1.037
  525ACTN    C1 5241   2.284   1.072   4.347
  525ACTN    O1 5242   2.519   1.038   4.310
  525ACTN    C2 5243   2.411   1.080   4.266
  525ACTN    C3 5244   2.422   1.175   4.154
  525ACTN    H1 5245   2.214   1.001   4.305
  525ACTN    H2 5246   2.239   1.171   4.349
  525ACTN    H3 5247   2.307   1.040   4.449
  525ACTN    H4 5248   2.402   1.117   4.064
  525ACTN    H5 5249   2.524   1.213   4.142
  525ACTN    H6 5250   2.353   1.258   4.160
  526ACTN    C1 5251   3.313   5.494   2.799
  526ACTN    O1 5252   3.086   5.572   2.784
  526ACTN    C2 5253   3.207   5.596   2.767
  526ACTN    C3 5254   3.236   5.708   2.677
  526ACTN    H1 5255   3.372   5.523   2.885
  526ACTN    H2 5256   3.377   5.485   2.712
  526ACTN    H3 5257   3.266   5.398   2.821
  526ACTN    H4 5258   3.258   5.794   2.741
  526ACTN    H5 5259   3.149   5.739   2.619
  526ACTN    H6 5260   3.319   5.690   2.610
  527ACTN    C1 5261   0.682   5.748   5.260
  527ACTN    O1 5262   0.640   5.587   5.087
  527ACTN    C2 5263   0.723   5.642   5.162
  527ACTN    C3 5264   0.849   5.570   5.179
  527ACTN    H1 5265   0.719   5.846   5.232
  527ACTN    H2 5266   0.721   5.721   5.358
  527ACTN    H3 5267   0.572   5.754   5.265
  527ACTN    H4 5268   0.921   5.618   5.113
  527ACTN    H5 5269   0.844   5.466   5.143
  527ACTN    H6 5270   0.888   5.571   5.280
  528ACTN    C1 5271   7.349   2.616   5.080
  528ACTN    O1 5272   7.454   2.831   5.090
  528ACTN    C2 5273   7.400   2.738   5.151
  528ACTN    C3 5274   7.428   2.733   5.295
  528ACTN    H1 5275   7.240   2.611   5.081
  528ACTN    H2 5276   7.390   2.528   5.129
  528ACTN    H3 5277   7.381   2.618   4.975
  528ACTN    H4 5278   7.342   2.777   5.344
  528ACTN    H5 5279   7.512   2.798   5.324
  528ACTN    H6 5280   7.446   2.634   5.334
  529ACTN    C1 5281   2.396   6.753   7.872
  529ACTN    O1 5282   2.439   6.988   7.888
  529ACTN    C2 5283   2.405   6.892   7.817
  529ACTN    C3 5284   2.333   6.928   7.694
  529ACTN    H1 5285   2.473   6.688   7.832
  529ACTN    H2 5286   2.299   6.712   7.847
  529ACTN    H3 5287   2.409   6.755   7.981
  529ACTN    H4 5288   2.406   6.923   7.614
  529ACTN    H5 5289   2.299   7.032   7.695
  529ACTN    H6 5290   2.250   6.863   7.671
  530ACTN    C1 5291   6.823   6.914   4.625
  530ACTN    O1 5292   6.973   7.101   4.619
  530ACTN    C2 5293   6.857   7.059   4.609
  530ACTN    C3 5294   6.753   7.162   4.625
  530ACTN    H1 5295   6.792   6.869   4.531
  530ACTN    H2 5296   6.743   6.905   4.697
  530ACTN    H3 5297   6.911   6.859   4.660
  530ACTN    H4 5298   6.721   7.188   4.524
  530ACTN    H5 5299   6.792   7.255   4.667
  530ACTN    H6 5300   6.668   7.129   4.683
  531ACTN    C1 5301   5.280   5.762   4.148
  531ACTN    O1 5302   5.320   5.787   4.383
  531ACTN    C2 5303   5.250   5.737   4.293
  531ACTN    C3 5304   5.170   5.622   4.333
  531ACTN    H1 5305   5.204   5.824   4.100
  531ACTN    H2 5306   5.285   5.666   4.097
  531ACTN    H3 5307   5.376   5.815   4.138
  531ACTN    H4 5308   5.069   5.659   4.349
  531ACTN    H5 5309   5.200   5.581   4.430
  531ACTN    H6 5310   5.168   5.541   4.260
  532ACTN    C1 5311   5.473   4.817   6.012
  532ACTN    O1 5312   5.296   4.761   6.164
  532ACTN    C2 5313   5.393   4.723   6.096
  532ACTN    C3 5314   5.449   4.593   6.137
  532ACTN    H1 5315   5.458   4.800   5.905
  532ACTN    H2 5316   5.578   4.804   6.036
  532ACTN    H3 5317   5.443   4.921   6.033
  532ACTN    H4 5318   5.409   4.520   6.068
  532ACTN    H5 5319   5.413   4.561   6.235
  532ACTN    H6 5320   5.557   4.590   6.135
  533ACTN    C1 5321   1.510   0.175   3.536
  533ACTN    O1 5322   1.317   0.272   3.430
  533ACTN    C2 5323   1.403   0.280   3.520
  533ACTN    C3 5324   1.421   0.414   3.577
  533ACTN    H1 5325   1.495   0.116   3.627
  533ACTN    H2 5326   1.606   0.225   3.541
  533ACTN    H3 5327   1.508   0.106   3.451
  533ACTN    H4 5328   1.365   0.414   3.671
  533ACTN    H5 5329   1.374   0.492   3.517
  533ACTN    H6 5330   1.524   0.440   3.596
  534ACTN    C1 5331   7.085   2.860   4.212
  534ACTN    O1 5332   7.290   2.750   4.271
  534ACTN    C2 5333   7.220   2.852   4.279
  534ACTN    C3 5334   7.254   2.943   4.388
  534ACTN    H1 5335   7.085   2.929   4.128
  534ACTN    H2 5336   7.012   2.893   4.286
  534ACTN    H3 5337   7.056   2.761   4.174
  534ACTN    H4 5338   7.313   3.023   4.343
  534ACTN    H5 5339   7.320   2.898   4.462
  534ACTN    H6 5340   7.169   2.986   4.439
  535ACTN    C1 5341   6.867   1.269   1.717
  535ACTN    O1 5342   7.089   1.180   1.738
  535ACTN    C2 5343   6.997   1.214   1.663
  535ACTN    C3 5344   7.036   1.239   1.524
  535ACTN    H1 5345   6.785   1.200   1.701
  535ACTN    H2 5346   6.846   1.362   1.666
  535ACTN    H3 5347   6.876   1.286   1.824
  535ACTN    H4 5348   7.009   1.150   1.468
  535ACTN    H5 5349   7.144   1.248   1.512
  535ACTN    H6 5350   6.989   1.326   1.479
  536ACTN    C1 5351   4.041   0.878   1.511
  536ACTN    O1 5352   3.878   0.705   1.544
  536ACTN    C2 5353   3.988   0.752   1.575
  536ACTN    C3 5354   4.042   0.706   1.704
  536ACTN    H1 5355   4.126   0.858   1.446
  536ACTN    H2 5356   4.072   0.946   1.590
  536ACTN    H3 5357   3.963   0.925   1.451
  536ACTN    H4 5358   4.115   0.628   1.679
  536ACTN    H5 5359   3.967   0.655   1.765
  536ACTN    H6 5360   4.090   0.783   1.762
  537ACTN    C1 5361   5.252   7.934   4.189
  537ACTN    O1 5362   5.349   7.989   3.977
  537ACTN    C2 5363   5.358   7.925   4.083
  537ACTN    C3 5364   5.452   7.812   4.080
  537ACTN    H1 5365   5.287   7.986   4.278
  537ACTN    H2 5366   5.223   7.833   4.216
  537ACTN    H3 5367   5.165   7.989   4.151
  537ACTN    H4 5368   5.543   7.847   4.128
  537ACTN    H5 5369   5.482   7.785   3.979
  537ACTN    H6 5370   5.415   7.724   4.131
  538ACTN    C1 5371   1.507   0.534   7.133
  538ACTN    O1 5372   1.590   0.311   7.159
  538ACTN    C2 5373   1.547   0.399   7.082
  538ACTN    C3 5374   1.577   0.378   6.940
  538ACTN    H1 5375   1.399   0.550   7.127
  538ACTN    H2 5376   1.557   0.609   7.072
  538ACTN    H3 5377   1.537   0.546   7.238
  538ACTN    H4 5378   1.487   0.336   6.895
  538ACTN    H5 5379   1.654   0.302   6.924
  538ACTN    H6 5380   1.605   0.468   6.888
  539ACTN    C1 5381   3.592   6.452   7.239
  539ACTN    O1 5382   3.675   6.300   7.073
  539ACTN    C2 5383   3.692   6.406   7.137
  539ACTN    C3 5384   3.829   6.457   7.138
  539ACTN    H1 5385   3.538   6.541   7.206
  539ACTN    H2 5386   3.645   6.475   7.331
  539ACTN    H3 5387   3.518   6.374   7.258
  539ACTN    H4 5388   3.832   6.536   7.062
  539ACTN    H5 5389   3.902   6.383   7.103
  539ACTN    H6 5390   3.860   6.497   7.233
  540ACTN    C1 5391   2.108   5.258   2.243
  540ACTN    O1 5392   2.042   5.488   2.236
  540ACTN    C2 5393   2.021   5.372   2.198
  540ACTN    C3 5394   1.887   5.347   2.144
  540ACTN    H1 5395   2.169   5.218   2.163
  540ACTN    H2 5396   2.044   5.179   2.281
  540ACTN    H3 5397   2.176   5.291   2.323
  540ACTN    H4 5398   1.897   5.349   2.036
  540ACTN    H5 5399   1.817   5.427   2.167
  540ACTN    H6 5400   1.845   5.252   2.174
  541ACTN    C1 5401   6.960   2.638   3.758
  541ACTN    O1 5402   7.010   2.484   3.935
  541ACTN    C2 5403   6.939   2.512   3.837
  541ACTN    C3 5404   6.866   2.400   3.779
  541ACTN    H1 5405   6.879   2.709   3.772
  541ACTN    H2 5406   6.967   2.612   3.653
  541ACTN    H3 5407   7.053   2.688   3.790
  541ACTN    H4 5408   6.764   2.406   3.818
  541ACTN    H5 5409   6.903   2.303   3.814
  541ACTN    H6 5410   6.864   2.399   3.671
  542ACTN    C1 5411   7.245   5.159   5.981
  542ACTN    O1 5412   7.340   5.367   6.054
  542ACTN    C2 5413   7.319   5.288   5.960
  542ACTN    C3 5414   7.331   5.346   5.826
  542ACTN    H1 5415   7.310   5.073   5.971
  542ACTN    H2 5416   7.166   5.153   5.907
  542ACTN    H3 5417   7.202   5.157   6.082
  542ACTN    H4 5418   7.430   5.318   5.789
  542ACTN    H5 5419   7.333   5.455   5.828
  542ACTN    H6 5420   7.255   5.313   5.757
  543ACTN    C1 5421   3.931   5.475   1.675
  543ACTN    O1 5422   4.013   5.342   1.857
  543ACTN    C2 5423   3.960   5.346   1.744
  543ACTN    C3 5424   3.968   5.220   1.669
  543ACTN    H1 5425   3.824   5.495   1.668
  543ACTN    H2 5426   3.972   5.470   1.574
  543ACTN    H3 5427   3.977   5.558   1.730
  543ACTN    H4 5428   3.872   5.171   1.680
  543ACTN    H5 5429   4.040   5.150   1.711
  543ACTN    H6 5430   3.990   5.234   1.563
  544ACTN    C1 5431   5.971   0.641   5.901
  544ACTN    O1 5432   5.773   0.515   5.952
  544ACTN    C2 5433   5.873   0.575   5.995
  544ACTN    C3 5434   5.868   0.613   6.136
  544ACTN    H1 5435   6.066   0.589   5.899
  544ACTN    H2 5436   5.986   0.743   5.935
  544ACTN    H3 5437   5.930   0.641   5.799
  544ACTN    H4 5438   5.926   0.538   6.190
  544ACTN    H5 5439   5.767   0.605   6.178
  544ACTN    H6 5440   5.908   0.711   6.157
  545ACTN    C1 5441   7.908   3.170   4.010
  545ACTN    O1 5442   7.705   3.271   4.089
  545ACTN    C2 5443   7.761   3.171   4.041
  545ACTN    C3 5444   7.687   3.045   4.056
  545ACTN    H1 5445   7.927   3.169   3.903
  545ACTN    H2 5446   7.952   3.082   4.055
  545ACTN    H3 5447   7.955   3.261   4.051
  545ACTN    H4 5448   7.638   3.027   3.961
  545ACTN    H5 5449   7.606   3.052   4.129
  545ACTN    H6 5450   7.750   2.960   4.081
  546ACTN    C1 5451   0.799   4.788   6.322
  546ACTN    O1 5452   1.018   4.885   6.303
  546ACTN    C2 5453   0.922   4.829   6.246
  546ACTN    C3 5454   0.918   4.845   6.101
  546ACTN    H1 5455   0.791   4.680   6.330
  546ACTN    H2 5456   0.712   4.827   6.270
  546ACTN    H3 5457   0.803   4.829   6.424
  546ACTN    H4 5458   0.959   4.753   6.059
  546ACTN    H5 5459   0.985   4.923   6.065
  546ACTN    H6 5460   0.819   4.862   6.061
  547ACTN    C1 5461   2.916   1.910   7.455
  547ACTN    O1 5462   2.956   1.721   7.597
  547ACTN    C2 5463   2.944   1.844   7.587
  547ACTN    C3 5464   2.915   1.914   7.713
  547ACTN    H1 5465   3.001   1.968   7.420
  547ACTN    H2 5466   2.830   1.976   7.467
  547ACTN    H3 5467   2.894   1.834   7.379
  547ACTN    H4 5468   3.009   1.956   7.747
  547ACTN    H5 5469   2.884   1.846   7.793
  547ACTN    H6 5470   2.841   1.993   7.704
  548ACTN    C1 5471   5.031   0.899   2.048
  548ACTN    O1 5472   4.813   0.989   2.091
  548ACTN    C2 5473   4.883   0.889   2.068
  548ACTN    C3 5474   4.821   0.761   2.103
  548ACTN    H1 5475   5.060   0.879   1.945
  548ACTN    H2 5476   5.079   0.826   2.113
  548ACTN    H3 5477   5.066   1.000   2.073
  548ACTN    H4 5478   4.782   0.720   2.010
  548ACTN    H5 5479   4.733   0.773   2.167
  548ACTN    H6 5480   4.888   0.690   2.148
  549ACTN    C1 5481   0.124   4.747   3.294
  549ACTN    O1 5482   0.015   4.930   3.404
  549ACTN    C2 5483   0.091   4.832   3.414
  549ACTN    C3 5484   0.176   4.830   3.532
  549ACTN    H1 5485   0.079   4.648   3.301
  549ACTN    H2 5486   0.232   4.737   3.289
  549ACTN    H3 5487   0.086   4.794   3.203
  549ACTN    H4 5488   0.129   4.763   3.604
  549ACTN    H5 5489   0.180   4.927   3.583
  549ACTN    H6 5490   0.278   4.797   3.513
  550ACTN    C1 5491   7.113   0.815   3.806
  550ACTN    O1 5492   6.894   0.719   3.791
  550ACTN    C2 5493   6.964   0.822   3.796
  550ACTN    C3 5494   6.897   0.944   3.749
  550ACTN    H1 5495   7.149   0.848   3.903
  550ACTN    H2 5496   7.156   0.879   3.729
  550ACTN    H3 5497   7.147   0.712   3.792
  550ACTN    H4 5498   6.865   0.997   3.839
  550ACTN    H5 5499   6.805   0.923   3.694
  550ACTN    H6 5500   6.961   1.008   3.690
  551ACTN    C1 5501   6.755   4.428   3.098
  551ACTN    O1 5502   6.864   4.228   3.022
  551ACTN    C2 5503   6.830   4.300   3.118
  551ACTN    C3 5504   6.829   4.233   3.248
  551ACTN    H1 5505   6.816   4.515   3.121
  551ACTN    H2 5506   6.668   4.428   3.163
  551ACTN    H3 5507   6.724   4.437   2.993
  551ACTN    H4 5508   6.922   4.261   3.298
  551ACTN    H5 5509   6.834   4.124   3.240
  551ACTN    H6 5510   6.745   4.259   3.311
  552ACTN    C1 5511   1.136   3.683   0.086
  552ACTN    O1 5512   1.062   3.790   0.287
  552ACTN    C2 5513   1.057   3.784   0.163
  552ACTN    C3 5514   0.941   3.850   0.102
  552ACTN    H1 5515   1.217   3.728   0.029
  552ACTN    H2 5516   1.069   3.631   0.018
  552ACTN    H3 5517   1.182   3.610   0.155
  552ACTN    H4 5518   0.976   3.947   0.067
  552ACTN    H5 5519   0.863   3.874   0.175
  552ACTN    H6 5520   0.897   3.795   0.020
  553ACTN    C1 5521   7.198   5.416   0.485
  553ACTN    O1 5522   7.191   5.629   0.595
  553ACTN    C2 5523   7.233   5.512   0.595
  553ACTN    C3 5524   7.350   5.487   0.681
  553ACTN    H1 5525   7.131   5.337   0.519
  553ACTN    H2 5526   7.290   5.372   0.448
  553ACTN    H3 5527   7.147   5.469   0.404
  553ACTN    H4 5528   7.311   5.442   0.772
  553ACTN    H5 5529   7.398   5.580   0.714
  553ACTN    H6 5530   7.424   5.422   0.637
  554ACTN    C1 5531   6.260   6.236   1.502
  554ACTN    O1 5532   6.332   6.437   1.392
  554ACTN    C2 5533   6.249   6.381   1.466
  554ACTN    C3 5534   6.167   6.472   1.546
  554ACTN    H1 5535   6.182   6.176   1.456
  554ACTN    H2 5536   6.253   6.227   1.610
  554ACTN    H3 5537   6.357   6.196   1.469
  554ACTN    H4 5538   6.072   6.482   1.495
  554ACTN    H5 5539   6.207   6.574   1.549
  554ACTN    H6 5540   6.150   6.438   1.648
  555ACTN    C1 5541   1.604   5.005   0.429
  555ACTN    O1 5542   1.725   4.867   0.274
  555ACTN    C2 5543   1.683   4.883   0.390
  555ACTN    C3 5544   1.675   4.761   0.470
  555ACTN    H1 5545   1.661   5.069   0.496
  555ACTN    H2 5546   1.513   4.973   0.479
  555ACTN    H3 5547   1.579   5.064   0.340
  555ACTN    H4 5548   1.764   4.761   0.534
  555ACTN    H5 5549   1.685   4.670   0.410
  555ACTN    H6 5550   1.587   4.753   0.532
  556ACTN    C1 5551   1.969   5.388   2.839
  556ACTN    O1 5552   1.783   5.291   2.955
  556ACTN    C2 5553   1.905   5.314   2.953
  556ACTN    C3 5554   1.973   5.305   3.083
  556ACTN    H1 5555   2.033   5.323   2.779
  556ACTN    H2 5556   2.029   5.468   2.880
  556ACTN    H3 5557   1.892   5.428   2.772
  556ACTN    H4 5558   2.021   5.207   3.085
  556ACTN    H5 5559   1.902   5.303   3.166
  556ACTN    H6 5560   2.046   5.382   3.100
  557ACTN    C1 5561   3.599   3.557   3.534
  557ACTN    O1 5562   3.694   3.610   3.748
  557ACTN    C2 5563   3.679   3.526   3.657
  557ACTN    C3 5564   3.777   3.417   3.657
  557ACTN    H1 5565   3.506   3.500   3.531
  557ACTN    H2 5566   3.658   3.532   3.447
  557ACTN    H3 5567   3.572   3.664   3.532
  557ACTN    H4 5568   3.728   3.332   3.704
  557ACTN    H5 5569   3.863   3.438   3.721
  557ACTN    H6 5570   3.812   3.390   3.558
  558ACTN    C1 5571   4.671   4.760   1.797
  558ACTN    O1 5572   4.432   4.736   1.790
  558ACTN    C2 5573   4.542   4.712   1.737
  558ACTN    C3 5574   4.541   4.601   1.641
  558ACTN    H1 5575   4.717   4.838   1.737
  558ACTN    H2 5576   4.739   4.675   1.804
  558ACTN    H3 5577   4.653   4.801   1.897
  558ACTN    H4 5578   4.536   4.647   1.542
  558ACTN    H5 5579   4.451   4.540   1.648
  558ACTN    H6 5580   4.628   4.537   1.646
  559ACTN    C1 5581   0.048   6.640   3.301
  559ACTN    O1 5582  -0.045   6.839   3.398
  559ACTN    C2 5583   0.053   6.763   3.387
  559ACTN    C3 5584   0.181   6.821   3.426
  559ACTN    H1 5585   0.049   6.549   3.360
  559ACTN    H2 5586   0.134   6.641   3.235
  559ACTN    H3 5587  -0.045   6.639   3.242
  559ACTN    H4 5588   0.202   6.785   3.527
  559ACTN    H5 5589   0.177   6.930   3.436
  559ACTN    H6 5590   0.263   6.795   3.361
  560ACTN    C1 5591   6.006   5.262   6.973
  560ACTN    O1 5592   6.102   5.042   6.988
  560ACTN    C2 5593   6.064   5.144   7.047
  560ACTN    C3 5594   6.037   5.127   7.191
  560ACTN    H1 5595   6.072   5.348   6.975
  560ACTN    H2 5596   5.911   5.288   7.019
  560ACTN    H3 5597   5.990   5.235   6.868
  560ACTN    H4 5598   6.125   5.166   7.242
  560ACTN    H5 5599   6.032   5.022   7.220
  560ACTN    H6 5600   5.949   5.179   7.226
  561ACTN    C1 5601   2.522   5.552   4.039
  561ACTN    O1 5602   2.645   5.715   4.165
  561ACTN    C2 5603   2.537   5.656   4.146
  561ACTN    C3 5604   2.444   5.661   4.259
  561ACTN    H1 5605   2.458   5.586   3.958
  561ACTN    H2 5606   2.479   5.463   4.084
  561ACTN    H3 5607   2.620   5.528   3.996
  561ACTN    H4 5608   2.372   5.739   4.234
  561ACTN    H5 5609   2.491   5.696   4.351
  561ACTN    H6 5610   2.392   5.568   4.278
  562ACTN    C1 5611   1.843   4.914   2.279
  562ACTN    O1 5612   1.615   4.959   2.338
  562ACTN    C2 5613   1.706   4.970   2.254
  562ACTN    C3 5614   1.661   5.000   2.117
  562ACTN    H1 5615   1.917   4.993   2.293
  562ACTN    H2 5616   1.871   4.854   2.193
  562ACTN    H3 5617   1.843   4.853   2.370
  562ACTN    H4 5618   1.675   5.107   2.103
  562ACTN    H5 5619   1.554   4.984   2.104
  562ACTN    H6 5620   1.715   4.946   2.041
  563ACTN    C1 5621   2.089   4.832   0.105
  563ACTN    O1 5622   2.209   5.002   0.224
  563ACTN    C2 5623   2.181   4.881   0.213
  563ACTN    C3 5624   2.274   4.790   0.279
  563ACTN    H1 5625   1.995   4.796   0.145
  563ACTN    H2 5626   2.139   4.750   0.053
  563ACTN    H3 5627   2.067   4.913   0.034
  563ACTN    H4 5628   2.227   4.762   0.373
  563ACTN    H5 5629   2.367   4.839   0.309
  563ACTN    H6 5630   2.297   4.701   0.222
  564ACTN    C1 5631   4.320   1.763   3.378
  564ACTN    O1 5632   4.155   1.769   3.203
  564ACTN    C2 5633   4.181   1.748   3.323
  564ACTN    C3 5634   4.065   1.751   3.413
  564ACTN    H1 5635   4.363   1.667   3.405
  564ACTN    H2 5636   4.315   1.826   3.466
  564ACTN    H3 5637   4.385   1.808   3.303
  564ACTN    H4 5638   4.037   1.647   3.430
  564ACTN    H5 5639   3.976   1.795   3.366
  564ACTN    H6 5640   4.083   1.800   3.507
  565ACTN    C1 5641   6.313   1.707   2.626
  565ACTN    O1 5642   6.215   1.855   2.465
  565ACTN    C2 5643   6.318   1.803   2.511
  565ACTN    C3 5644   6.435   1.806   2.422
  565ACTN    H1 5645   6.356   1.749   2.717
  565ACTN    H2 5646   6.368   1.617   2.599
  565ACTN    H3 5647   6.209   1.680   2.649
  565ACTN    H4 5648   6.497   1.889   2.457
  565ACTN    H5 5649   6.408   1.832   2.320
  565ACTN    H6 5650   6.493   1.716   2.422
  566ACTN    C1 5651   0.026   4.446   3.745
  566ACTN    O1 5652  -0.046   4.278   3.590
  566ACTN    C2 5653  -0.006   4.394   3.608
  566ACTN    C3 5654   0.048   4.460   3.488
  566ACTN    H1 5655  -0.045   4.521   3.778
  566ACTN    H2 5656   0.125   4.491   3.742
  566ACTN    H3 5657   0.024   4.365   3.818
  566ACTN    H4 5658  -0.032   4.524   3.451
  566ACTN    H5 5659   0.067   4.389   3.407
  566ACTN    H6 5660   0.137   4.519   3.507
  567ACTN    C1 5661   0.298   1.108   4.112
  567ACTN    O1 5662   0.358   1.277   4.271
  567ACTN    C2 5663   0.386   1.216   4.167
  567ACTN    C3 5664   0.483   1.284   4.080
  567ACTN    H1 5665   0.344   1.009   4.120
  567ACTN    H2 5666   0.278   1.129   4.007
  567ACTN    H3 5667   0.204   1.104   4.168
  567ACTN    H4 5668   0.579   1.237   4.099
  567ACTN    H5 5669   0.498   1.389   4.108
  567ACTN    H6 5670   0.460   1.278   3.975
  568ACTN    C1 5671   4.790   4.166   6.765
  568ACTN    O1 5672   4.632   4.275   6.910
  568ACTN    C2 5673   4.690   4.273   6.800
  568ACTN    C3 5674   4.624   4.350   6.694
  568ACTN    H1 5675   4.891   4.206   6.759
  568ACTN    H2 5676   4.762   4.123   6.670
  568ACTN    H3 5677   4.790   4.089   6.843
  568ACTN    H4 5678   4.678   4.444   6.687
  568ACTN    H5 5679   4.522   4.379   6.720
  568ACTN    H6 5680   4.624   4.301   6.597
  569ACTN    C1 5681   1.865   1.569   7.246
  569ACTN    O1 5682   1.657   1.629   7.348
  569ACTN    C2 5683   1.718   1.555   7.269
  569ACTN    C3 5684   1.649   1.430   7.236
  569ACTN    H1 5685   1.888   1.606   7.146
  569ACTN    H2 5686   1.911   1.472   7.259
  569ACTN    H3 5687   1.908   1.640   7.318
  569ACTN    H4 5688   1.602   1.446   7.139
  569ACTN    H5 5689   1.565   1.409   7.303
  569ACTN    H6 5690   1.713   1.344   7.231
  570ACTN    C1 5691   5.876   1.177   6.955
  570ACTN    O1 5692   6.092   1.190   6.852
  570ACTN    C2 5693   6.013   1.235   6.937
  570ACTN    C3 5694   6.075   1.313   7.045
  570ACTN    H1 5695   5.798   1.246   6.922
  570ACTN    H2 5696   5.861   1.154   7.060
  570ACTN    H3 5697   5.866   1.086   6.895
  570ACTN    H4 5698   6.060   1.418   7.019
  570ACTN    H5 5699   6.184   1.301   7.049
  570ACTN    H6 5700   6.034   1.294   7.143
  571ACTN    C1 5701   0.318   0.539   6.859
  571ACTN    O1 5702   0.229   0.672   6.681
  571ACTN    C2 5703   0.323   0.602   6.723
  571ACTN    C3 5704   0.413   0.551   6.620
  571ACTN    H1 5705   0.390   0.584   6.928
  571ACTN    H2 5706   0.341   0.433   6.848
  571ACTN    H3 5707   0.219   0.551   6.903
  571ACTN    H4 5708   0.501   0.617   6.621
  571ACTN    H5 5709   0.373   0.562   6.519
  571ACTN    H6 5710   0.445   0.449   6.635
  572ACTN    C1 5711   3.677   5.610   2.738
  572ACTN    O1 5712   3.712   5.787   2.580
  572ACTN    C2 5713   3.672   5.671   2.601
  572ACTN    C3 5714   3.583   5.617   2.498
  572ACTN    H1 5715   3.751   5.530   2.744
  572ACTN    H2 5716   3.580   5.569   2.761
  572ACTN    H3 5717   3.705   5.686   2.812
  572ACTN    H4 5718   3.645   5.553   2.435
  572ACTN    H5 5719   3.545   5.694   2.431
  572ACTN    H6 5720   3.500   5.559   2.538
  573ACTN    C1 5721   1.385   4.059   4.110
  573ACTN    O1 5722   1.441   4.251   3.978
  573ACTN    C2 5723   1.478   4.143   4.028
  573ACTN    C3 5724   1.598   4.085   3.967
  573ACTN    H1 5725   1.413   4.057   4.215
  573ACTN    H2 5726   1.388   3.958   4.071
  573ACTN    H3 5727   1.283   4.099   4.104
  573ACTN    H4 5728   1.681   4.110   4.033
  573ACTN    H5 5729   1.624   4.131   3.872
  573ACTN    H6 5730   1.593   3.978   3.954
  574ACTN    C1 5731   3.297   6.245   1.834
  574ACTN    O1 5732   3.277   6.479   1.788
  574ACTN    C2 5733   3.334   6.389   1.852
  574ACTN    C3 5734   3.464   6.426   1.908
  574ACTN    H1 5735   3.247   6.204   1.923
  574ACTN    H2 5736   3.387   6.188   1.815
  574ACTN    H3 5737   3.227   6.234   1.750
  574ACTN    H4 5738   3.446   6.448   2.013
  574ACTN    H5 5739   3.503   6.519   1.867
  574ACTN    H6 5740   3.539   6.349   1.900
  575ACTN    C1 5741   6.848   2.420   2.745
  575ACTN    O1 5742   6.912   2.219   2.858
  575ACTN    C2 5743   6.937   2.338   2.834
  575ACTN    C3 5744   7.027   2.403   2.929
  575ACTN    H1 5745   6.897   2.446   2.651
  575ACTN    H2 5746   6.822   2.512   2.797
  575ACTN    H3 5747   6.757   2.365   2.720
  575ACTN    H4 5748   7.125   2.404   2.882
  575ACTN    H5 5749   7.041   2.345   3.021
  575ACTN    H6 5750   6.999   2.504   2.956
  576ACTN    C1 5751   3.224   7.608   7.576
  576ACTN    O1 5752   3.011   7.640   7.681
  576ACTN    C2 5753   3.076   7.634   7.575
  576ACTN    C3 5754   2.997   7.611   7.454
  576ACTN    H1 5755   3.281   7.696   7.545
  576ACTN    H2 5756   3.245   7.527   7.507
  576ACTN    H3 5757   3.257   7.581   7.677
  576ACTN    H4 5758   2.984   7.709   7.407
  576ACTN    H5 5759   2.895   7.578   7.477
  576ACTN    H6 5760   3.042   7.542   7.384
  577ACTN    C1 5761   0.394   4.202   5.585
  577ACTN    O1 5762   0.176   4.170   5.680
  577ACTN    C2 5763   0.295   4.199   5.699
  577ACTN    C3 5764   0.324   4.271   5.823
  577ACTN    H1 5765   0.466   4.120   5.592
  577ACTN    H2 5766   0.447   4.296   5.588
  577ACTN    H3 5767   0.342   4.190   5.489
  577ACTN    H4 5768   0.361   4.196   5.893
  577ACTN    H5 5769   0.233   4.310   5.870
  577ACTN    H6 5770   0.396   4.351   5.813
  578ACTN    C1 5771   3.135   7.591   4.124
  578ACTN    O1 5772   3.139   7.433   3.943
  578ACTN    C2 5773   3.157   7.455   4.064
  578ACTN    C3 5774   3.158   7.335   4.149
  578ACTN    H1 5775   3.228   7.637   4.154
  578ACTN    H2 5776   3.070   7.580   4.210
  578ACTN    H3 5777   3.088   7.657   4.050
  578ACTN    H4 5778   3.262   7.312   4.168
  578ACTN    H5 5779   3.118   7.247   4.098
  578ACTN    H6 5780   3.106   7.348   4.243
  579ACTN    C1 5781   6.071   6.365   0.854
  579ACTN    O1 5782   5.849   6.305   0.920
  579ACTN    C2 5783   5.957   6.357   0.951
  579ACTN    C3 5784   5.952   6.446   1.067
  579ACTN    H1 5785   6.154   6.300   0.882
  579ACTN    H2 5786   6.106   6.468   0.850
  579ACTN    H3 5787   6.038   6.334   0.754
  579ACTN    H4 5788   5.990   6.388   1.152
  579ACTN    H5 5789   5.850   6.473   1.095
  579ACTN    H6 5790   6.011   6.537   1.056
  580ACTN    C1 5791   0.255   3.298   0.884
  580ACTN    O1 5792   0.303   3.463   1.051
  580ACTN    C2 5793   0.254   3.353   1.024
  580ACTN    C3 5794   0.236   3.263   1.138
  580ACTN    H1 5795   0.156   3.295   0.840
  580ACTN    H2 5796   0.296   3.198   0.886
  580ACTN    H3 5797   0.317   3.362   0.820
  580ACTN    H4 5798   0.131   3.269   1.166
  580ACTN    H5 5799   0.290   3.296   1.227
  580ACTN    H6 5800   0.261   3.160   1.118
  581ACTN    C1 5801   3.105   7.659   7.029
  581ACTN    O1 5802   3.247   7.699   7.219
  581ACTN    C2 5803   3.227   7.635   7.114
  581ACTN    C3 5804   3.346   7.571   7.057
  581ACTN    H1 5805   3.036   7.574   7.032
  581ACTN    H2 5806   3.137   7.675   6.927
  581ACTN    H3 5807   3.050   7.747   7.066
  581ACTN    H4 5808   3.341   7.466   7.087
  581ACTN    H5 5809   3.439   7.608   7.101
  581ACTN    H6 5810   3.352   7.577   6.949
  582ACTN    C1 5811   5.992   5.827   0.799
  582ACTN    O1 5812   6.034   5.599   0.863
  582ACTN    C2 5813   6.008   5.715   0.899
  582ACTN    C3 5814   5.954   5.728   1.034
  582ACTN    H1 5815   6.074   5.899   0.805
  582ACTN    H2 5816   5.898   5.878   0.820
  582ACTN    H3 5817   5.990   5.786   0.698
  582ACTN    H4 5818   6.037   5.757   1.098
  582ACTN    H5 5819   5.920   5.632   1.075
  582ACTN    H6 5820   5.873   5.800   1.043
  583ACTN    C1 5821   4.131   4.088   1.447
  583ACTN    O1 5822   4.361   4.069   1.381
  583ACTN    C2 5823   4.243   4.088   1.347
  583ACTN    C3 5824   4.226   4.150   1.215
  583ACTN    H1 5825   4.066   4.001   1.435
  583ACTN    H2 5826   4.072   4.178   1.432
  583ACTN    H3 5827   4.171   4.086   1.548
  583ACTN    H4 5828   4.203   4.070   1.146
  583ACTN    H5 5829   4.318   4.194   1.177
  583ACTN    H6 5830   4.147   4.225   1.212
  584ACTN    C1 5831   0.814   5.845   6.735
  584ACTN    O1 5832   0.919   5.809   6.522
  584ACTN    C2 5833   0.854   5.761   6.617
  584ACTN    C3 5834   0.783   5.637   6.587
  584ACTN    H1 5835   0.867   5.816   6.825
  584ACTN    H2 5836   0.707   5.832   6.752
  584ACTN    H3 5837   0.836   5.950   6.716
  584ACTN    H4 5838   0.845   5.556   6.627
  584ACTN    H5 5839   0.778   5.616   6.480
  584ACTN    H6 5840   0.684   5.631   6.629
  585ACTN    C1 5841   4.843   2.335   2.069
  585ACTN    O1 5842   4.694   2.185   1.955
  585ACTN    C2 5843   4.713   2.298   2.003
  585ACTN    C3 5844   4.623   2.403   1.953
  585ACTN    H1 5845   4.831   2.348   2.177
  585ACTN    H2 5846   4.879   2.427   2.025
  585ACTN    H3 5847   4.917   2.255   2.054
  585ACTN    H4 5848   4.547   2.416   2.029
  585ACTN    H5 5849   4.569   2.372   1.864
  585ACTN    H6 5850   4.672   2.498   1.934
  586ACTN    C1 5851   5.419   5.864   2.309
  586ACTN    O1 5852   5.643   5.904   2.232
  586ACTN    C2 5853   5.539   5.951   2.282
  586ACTN    C3 5854   5.554   6.079   2.350
  586ACTN    H1 5855   5.336   5.887   2.243
  586ACTN    H2 5856   5.388   5.880   2.412
  586ACTN    H3 5857   5.445   5.758   2.294
  586ACTN    H4 5858   5.520   6.155   2.280
  586ACTN    H5 5859   5.659   6.104   2.369
  586ACTN    H6 5860   5.499   6.087   2.442
  587ACTN    C1 5861   3.197   4.054   7.483
  587ACTN    O1 5862   3.364   3.896   7.551
  587ACTN    C2 5863   3.243   3.921   7.535
  587ACTN    C3 5864   3.156   3.804   7.528
  587ACTN    H1 5865   3.146   4.112   7.559
  587ACTN    H2 5866   3.129   4.036   7.400
  587ACTN    H3 5867   3.283   4.113   7.449
  587ACTN    H4 5868   3.111   3.794   7.627
  587ACTN    H5 5869   3.212   3.710   7.514
  587ACTN    H6 5870   3.078   3.811   7.454
  588ACTN    C1 5871   0.357   2.878   7.101
  588ACTN    O1 5872   0.589   2.815   7.107
  588ACTN    C2 5873   0.485   2.827   7.040
  588ACTN    C3 5874   0.504   2.832   6.895
  588ACTN    H1 5875   0.282   2.799   7.108
  588ACTN    H2 5876   0.319   2.958   7.040
  588ACTN    H3 5877   0.376   2.914   7.203
  588ACTN    H4 5878   0.482   2.732   6.858
  588ACTN    H5 5879   0.609   2.849   6.867
  588ACTN    H6 5880   0.442   2.904   6.844
  589ACTN    C1 5881   6.743   2.399   2.289
  589ACTN    O1 5882   6.661   2.438   2.511
  589ACTN    C2 5883   6.741   2.469   2.422
  589ACTN    C3 5884   6.802   2.602   2.436
  589ACTN    H1 5885   6.832   2.338   2.276
  589ACTN    H2 5886   6.740   2.474   2.211
  589ACTN    H3 5887   6.656   2.333   2.281
  589ACTN    H4 5888   6.901   2.585   2.479
  589ACTN    H5 5889   6.751   2.664   2.510
  589ACTN    H6 5890   6.812   2.657   2.344
  590ACTN    C1 5891   1.457   5.395   7.133
  590ACTN    O1 5892   1.655   5.288   7.050
  590ACTN    C2 5893   1.585   5.391   7.054
  590ACTN    C3 5894   1.654   5.515   7.017
  590ACTN    H1 5895   1.369   5.401   7.068
  590ACTN    H2 5896   1.459   5.483   7.197
  590ACTN    H3 5897   1.447   5.304   7.193
  590ACTN    H4 5898   1.626   5.536   6.914
  590ACTN    H5 5899   1.763   5.503   7.015
  590ACTN    H6 5900   1.628   5.600   7.080
  591ACTN    C1 5901   2.196   5.120   1.808
  591ACTN    O1 5902   2.270   5.021   1.602
  591ACTN    C2 5903   2.218   5.005   1.713
  591ACTN    C3 5904   2.141   4.881   1.729
  591ACTN    H1 5905   2.261   5.113   1.895
  591ACTN    H2 5906   2.093   5.118   1.841
  591ACTN    H3 5907   2.218   5.214   1.757
  591ACTN    H4 5908   2.206   4.811   1.781
  591ACTN    H5 5909   2.120   4.832   1.633
  591ACTN    H6 5910   2.049   4.892   1.783
  592ACTN    C1 5911   3.428   6.260   6.217
  592ACTN    O1 5912   3.471   6.495   6.199
  592ACTN    C2 5913   3.467   6.384   6.143
  592ACTN    C3 5914   3.459   6.389   5.997
  592ACTN    H1 5915   3.512   6.192   6.230
  592ACTN    H2 5916   3.350   6.209   6.161
  592ACTN    H3 5917   3.391   6.286   6.317
  592ACTN    H4 5918   3.560   6.371   5.960
  592ACTN    H5 5919   3.433   6.488   5.959
  592ACTN    H6 5920   3.391   6.316   5.954
  593ACTN    C1 5921   0.499   3.667   2.858
  593ACTN    O1 5922   0.529   3.671   2.620
  593ACTN    C2 5923   0.581   3.658   2.732
  593ACTN    C3 5924   0.712   3.592   2.733
  593ACTN    H1 5925   0.521   3.757   2.915
  593ACTN    H2 5926   0.520   3.580   2.919
  593ACTN    H3 5927   0.392   3.670   2.833
  593ACTN    H4 5928   0.786   3.672   2.741
  593ACTN    H5 5929   0.735   3.543   2.639
  593ACTN    H6 5930   0.725   3.522   2.814
  594ACTN    C1 5931   7.108   7.007   4.385
  594ACTN    O1 5932   7.007   6.899   4.197
  594ACTN    C2 5933   6.994   6.977   4.292
  594ACTN    C3 5934   6.880   7.069   4.282
  594ACTN    H1 5935   7.091   6.965   4.485
  594ACTN    H2 5936   7.118   7.115   4.393
  594ACTN    H3 5937   7.201   6.963   4.347
  594ACTN    H4 5938   6.801   7.026   4.344
  594ACTN    H5 5939   6.837   7.071   4.181
  594ACTN    H6 5940   6.901   7.170   4.314
  595ACTN    C1 5941   4.650   1.844   6.234
  595ACTN    O1 5942   4.650   1.927   6.459
  595ACTN    C2 5943   4.588   1.914   6.352
  595ACTN    C3 5944   4.443   1.929   6.362
  595ACTN    H1 5945   4.671   1.913   6.152
  595ACTN    H2 5946   4.580   1.769   6.199
  595ACTN    H3 5947   4.745   1.797   6.263
  595ACTN    H4 5948   4.421   2.030   6.328
  595ACTN    H5 5949   4.408   1.926   6.466
  595ACTN    H6 5950   4.387   1.858   6.303
  596ACTN    C1 5951   0.881   4.527   1.687
  596ACTN    O1 5952   1.033   4.459   1.860
  596ACTN    C2 5953   1.003   4.543   1.773
  596ACTN    C3 5954   1.067   4.674   1.789
  596ACTN    H1 5955   0.907   4.505   1.584
  596ACTN    H2 5956   0.825   4.620   1.691
  596ACTN    H3 5957   0.819   4.445   1.724
  596ACTN    H4 5958   1.152   4.675   1.720
  596ACTN    H5 5959   1.112   4.687   1.888
  596ACTN    H6 5960   1.002   4.758   1.768
  597ACTN    C1 5961   5.578   2.417   1.801
  597ACTN    O1 5962   5.562   2.298   2.009
  597ACTN    C2 5963   5.583   2.293   1.887
  597ACTN    C3 5964   5.655   2.174   1.841
  597ACTN    H1 5965   5.493   2.416   1.734
  597ACTN    H2 5966   5.670   2.422   1.743
  597ACTN    H3 5967   5.569   2.506   1.864
  597ACTN    H4 5968   5.579   2.107   1.800
  597ACTN    H5 5969   5.700   2.117   1.923
  597ACTN    H6 5970   5.730   2.193   1.765
  598ACTN    C1 5971   0.848   5.812   7.654
  598ACTN    O1 5972   0.919   6.024   7.567
  598ACTN    C2 5973   0.846   5.924   7.554
  598ACTN    C3 5974   0.732   5.941   7.464
  598ACTN    H1 5975   0.891   5.721   7.613
  598ACTN    H2 5976   0.745   5.792   7.685
  598ACTN    H3 5977   0.907   5.841   7.742
  598ACTN    H4 5978   0.761   5.896   7.369
  598ACTN    H5 5979   0.713   6.046   7.440
  598ACTN    H6 5980   0.641   5.896   7.499
  599ACTN    C1 5981   3.616   5.372   4.435
  599ACTN    O1 5982   3.825   5.363   4.319
  599ACTN    C2 5983   3.701   5.358   4.312
  599ACTN    C3 5984   3.645   5.382   4.179
  599ACTN    H1 5985   3.566   5.278   4.461
  599ACTN    H2 5986   3.540   5.447   4.416
  599ACTN    H3 5987   3.677   5.401   4.521
  599ACTN    H4 5988   3.622   5.284   4.138
  599ACTN    H5 5989   3.718   5.425   4.110
  599ACTN    H6 5990   3.556   5.443   4.179
  600ACTN    C1 5991   7.680   3.259   5.322
  600ACTN    O1 5992   7.699   3.176   5.546
  600ACTN    C2 5993   7.654   3.263   5.470
  600ACTN    C3 5994   7.543   3.342   5.524
  600ACTN    H1 5995   7.747   3.339   5.290
  600ACTN    H2 5996   7.585   3.269   5.270
  600ACTN    H3 5997   7.727   3.164   5.295
  600ACTN    H4 5998   7.586   3.435   5.558
  600ACTN    H5 5999   7.499   3.297   5.613
  600ACTN    H6 6000   7.464   3.362   5.452
  601ACTN    C1 6001   6.516   6.418   5.527
  601ACTN    O1 6002   6.642   6.215   5.542
  601ACTN    C2 6003   6.643   6.339   5.541
  601ACTN    C3 6004   6.763   6.401   5.598
  601ACTN    H1 6005   6.510   6.469   5.431
  601ACTN    H2 6006   6.512   6.491   5.607
  601ACTN    H3 6007   6.429   6.351   5.534
  601ACTN    H4 6008   6.825   6.429   5.513
  601ACTN    H5 6009   6.824   6.330   5.654
  601ACTN    H6 6010   6.743   6.487   5.659
  602ACTN    C1 6011   1.556   7.038   2.663
  602ACTN    O1 6012   1.777   7.131   2.673
  602ACTN    C2 6013   1.674   7.100   2.734
  602ACTN    C3 6014   1.688   7.086   2.880
  602ACTN    H1 6015   1.471   7.107   2.659
  602ACTN    H2 6016   1.527   6.949   2.717
  602ACTN    H3 6017   1.584   7.013   2.561
  602ACTN    H4 6018   1.651   7.179   2.923
  602ACTN    H5 6019   1.793   7.081   2.911
  602ACTN    H6 6020   1.634   7.003   2.922
  603ACTN    C1 6021   5.846   4.191   6.555
  603ACTN    O1 6022   5.751   4.267   6.762
  603ACTN    C2 6023   5.772   4.289   6.641
  603ACTN    C3 6024   5.685   4.391   6.582
  603ACTN    H1 6025   5.943   4.229   6.525
  603ACTN    H2 6026   5.786   4.173   6.466
  603ACTN    H3 6027   5.861   4.097   6.609
  603ACTN    H4 6028   5.744   4.483   6.579
  603ACTN    H5 6029   5.599   4.415   6.645
  603ACTN    H6 6030   5.651   4.367   6.482
  604ACTN    C1 6031   7.559   0.318   2.475
  604ACTN    O1 6032   7.452   0.151   2.341
  604ACTN    C2 6033   7.492   0.185   2.453
  604ACTN    C3 6034   7.435   0.111   2.565
  604ACTN    H1 6035   7.665   0.308   2.497
  604ACTN    H2 6036   7.510   0.367   2.559
  604ACTN    H3 6037   7.549   0.380   2.385
  604ACTN    H4 6038   7.510   0.036   2.593
  604ACTN    H5 6039   7.347   0.052   2.537
  604ACTN    H6 6040   7.411   0.172   2.651
  605ACTN    C1 6041   4.636   1.908   6.968
  605ACTN    O1 6042   4.412   1.879   6.885
  605ACTN    C2 6043   4.521   1.939   6.876
  605ACTN    C3 6044   4.544   2.006   6.748
  605ACTN    H1 6045   4.655   1.990   7.037
  605ACTN    H2 6046   4.724   1.890   6.908
  605ACTN    H3 6047   4.613   1.819   7.028
  605ACTN    H4 6048   4.521   2.111   6.764
  605ACTN    H5 6049   4.474   1.974   6.670
  605ACTN    H6 6050   4.645   1.997   6.711
  606ACTN    C1 6051   4.122   4.543   5.842
  606ACTN    O1 6052   3.930   4.647   5.743
  606ACTN    C2 6053   4.053   4.630   5.741
  606ACTN    C3 6054   4.118   4.663   5.614
  606ACTN    H1 6055   4.183   4.601   5.911
  606ACTN    H2 6056   4.185   4.473   5.789
  606ACTN    H3 6057   4.048   4.489   5.902
  606ACTN    H4 6058   4.162   4.762   5.627
  606ACTN    H5 6059   4.047   4.674   5.532
  606ACTN    H6 6060   4.195   4.593   5.585
  607ACTN    C1 6061   6.446   5.449   0.992
  607ACTN    O1 6062   6.209   5.419   1.008
  607ACTN    C2 6063   6.315   5.448   1.065
  607ACTN    C3 6064   6.299   5.520   1.192
  607ACTN    H1 6065   6.512   5.368   1.024
  607ACTN    H2 6066   6.495   5.544   1.012
  607ACTN    H3 6067   6.430   5.438   0.885
  607ACTN    H4 6068   6.311   5.446   1.271
  607ACTN    H5 6069   6.198   5.560   1.205
  607ACTN    H6 6070   6.371   5.600   1.206
  608ACTN    C1 6071   0.460   4.962   3.629
  608ACTN    O1 6072   0.654   5.098   3.665
  608ACTN    C2 6073   0.531   5.087   3.672
  608ACTN    C3 6074   0.465   5.183   3.762
  608ACTN    H1 6075   0.401   4.977   3.538
  608ACTN    H2 6076   0.394   4.931   3.709
  608ACTN    H3 6077   0.533   4.883   3.607
  608ACTN    H4 6078   0.425   5.262   3.699
  608ACTN    H5 6079   0.536   5.233   3.828
  608ACTN    H6 6080   0.386   5.140   3.821
  609ACTN    C1 6081   4.789   2.430   1.464
  609ACTN    O1 6082   5.011   2.521   1.447
  609ACTN    C2 6083   4.915   2.491   1.521
  609ACTN    C3 6084   4.947   2.478   1.663
  609ACTN    H1 6085   4.705   2.499   1.469
  609ACTN    H2 6086   4.766   2.341   1.522
  609ACTN    H3 6087   4.804   2.404   1.359
  609ACTN    H4 6088   4.916   2.571   1.710
  609ACTN    H5 6089   5.055   2.472   1.682
  609ACTN    H6 6090   4.898   2.395   1.712
  610ACTN    C1 6091   6.864   5.970   4.029
  610ACTN    O1 6092   6.746   5.792   3.919
  610ACTN    C2 6093   6.768   5.914   3.928
  610ACTN    C3 6094   6.730   5.992   3.810
  610ACTN    H1 6095   6.812   6.026   4.107
  610ACTN    H2 6096   6.933   6.036   3.978
  610ACTN    H3 6097   6.919   5.888   4.078
  610ACTN    H4 6098   6.633   6.037   3.833
  610ACTN    H5 6099   6.711   5.929   3.722
  610ACTN    H6 6100   6.800   6.070   3.784
  611ACTN    C1 6101   1.326   7.046   3.104
  611ACTN    O1 6102   1.395   7.161   3.303
  611ACTN    C2 6103   1.378   7.165   3.180
  611ACTN    C3 6104   1.368   7.299   3.123
  611ACTN    H1 6105   1.402   7.002   3.040
  611ACTN    H2 6106   1.242   7.078   3.043
  611ACTN    H3 6107   1.293   6.968   3.175
  611ACTN    H4 6108   1.466   7.321   3.080
  611ACTN    H5 6109   1.354   7.377   3.199
  611ACTN    H6 6110   1.292   7.310   3.046
  612ACTN    C1 6111   5.521   6.595   6.155
  612ACTN    O1 6112   5.538   6.825   6.087
  612ACTN    C2 6113   5.523   6.706   6.053
  612ACTN    C3 6114   5.465   6.685   5.920
  612ACTN    H1 6115   5.609   6.532   6.148
  612ACTN    H2 6116   5.432   6.535   6.139
  612ACTN    H3 6117   5.518   6.638   6.256
  612ACTN    H4 6118   5.548   6.663   5.854
  612ACTN    H5 6119   5.421   6.777   5.879
  612ACTN    H6 6120   5.392   6.606   5.916
  613ACTN    C1 6121   7.032   7.539   7.355
  613ACTN    O1 6122   6.855   7.378   7.347
  613ACTN    C2 6123   6.931   7.448   7.417
  613ACTN    C3 6124   6.887   7.469   7.555
  613ACTN    H1 6125   7.134   7.505   7.371
  613ACTN    H2 6126   7.021   7.638   7.398
  613ACTN    H3 6127   7.017   7.544   7.246
  613ACTN    H4 6128   6.944   7.399   7.616
  613ACTN    H5 6129   6.782   7.440   7.571
  613ACTN    H6 6130   6.902   7.569   7.592
  614ACTN    C1 6131   2.447   3.382   7.042
  614ACTN    O1 6132   2.468   3.341   7.278
  614ACTN    C2 6133   2.524   3.348   7.167
  614ACTN    C3 6134   2.669   3.365   7.172
  614ACTN    H1 6135   2.440   3.297   6.975
  614ACTN    H2 6136   2.499   3.463   6.992
  614ACTN    H3 6137   2.345   3.413   7.068
  614ACTN    H4 6138   2.712   3.266   7.154
  614ACTN    H5 6139   2.705   3.393   7.272
  614ACTN    H6 6140   2.708   3.435   7.100
  615ACTN    C1 6141   3.002   1.234   7.395
  615ACTN    O1 6142   2.817   1.282   7.250
  615ACTN    C2 6143   2.939   1.293   7.272
  615ACTN    C3 6144   3.021   1.326   7.155
  615ACTN    H1 6145   3.035   1.311   7.464
  615ACTN    H2 6146   3.088   1.175   7.364
  615ACTN    H3 6147   2.930   1.171   7.448
  615ACTN    H4 6148   3.040   1.433   7.161
  615ACTN    H5 6149   2.967   1.313   7.061
  615ACTN    H6 6150   3.115   1.273   7.150
  616ACTN    C1 6151   6.432   0.620   2.939
  616ACTN    O1 6152   6.389   0.846   2.872
  616ACTN    C2 6153   6.438   0.735   2.843
  616ACTN    C3 6154   6.461   0.713   2.700
  616ACTN    H1 6155   6.530   0.595   2.979
  616ACTN    H2 6156   6.392   0.534   2.886
  616ACTN    H3 6157   6.367   0.644   3.024
  616ACTN    H4 6158   6.567   0.731   2.684
  616ACTN    H5 6159   6.410   0.786   2.637
  616ACTN    H6 6160   6.436   0.613   2.667
  617ACTN    C1 6161   1.700   0.410   6.103
  617ACTN    O1 6162   1.914   0.413   5.995
  617ACTN    C2 6163   1.850   0.401   6.101
  617ACTN    C3 6164   1.922   0.337   6.211
  617ACTN    H1 6165   1.665   0.500   6.152
  617ACTN    H2 6166   1.662   0.323   6.155
  617ACTN    H3 6167   1.661   0.412   6.000
  617ACTN    H4 6168   1.957   0.418   6.276
  617ACTN    H5 6169   2.014   0.287   6.178
  617ACTN    H6 6170   1.863   0.268   6.269
  618ACTN    C1 6171   3.194   6.967   5.877
  618ACTN    O1 6172   3.156   6.746   5.791
  618ACTN    C2 6173   3.116   6.839   5.862
  618ACTN    C3 6174   2.973   6.836   5.894
  618ACTN    H1 6175   3.236   6.977   5.977
  618ACTN    H2 6176   3.127   7.050   5.857
  618ACTN    H3 6177   3.277   6.968   5.806
  618ACTN    H4 6178   2.965   6.794   5.995
  618ACTN    H5 6179   2.917   6.766   5.831
  618ACTN    H6 6180   2.924   6.932   5.891
  619ACTN    C1 6181   4.845   1.466   2.600
  619ACTN    O1 6182   4.655   1.517   2.736
  619ACTN    C2 6183   4.778   1.504   2.729
  619ACTN    C3 6184   4.854   1.567   2.837
  619ACTN    H1 6185   4.886   1.365   2.603
  619ACTN    H2 6186   4.925   1.536   2.581
  619ACTN    H3 6187   4.773   1.469   2.517
  619ACTN    H4 6188   4.879   1.488   2.907
  619ACTN    H5 6189   4.794   1.637   2.895
  619ACTN    H6 6190   4.945   1.616   2.804
  620ACTN    C1 6191   7.041   7.318   5.551
  620ACTN    O1 6192   7.251   7.343   5.438
  620ACTN    C2 6193   7.138   7.291   5.440
  620ACTN    C3 6194   7.092   7.238   5.311
  620ACTN    H1 6195   7.025   7.231   5.614
  620ACTN    H2 6196   6.946   7.347   5.506
  620ACTN    H3 6197   7.078   7.399   5.614
  620ACTN    H4 6198   7.110   7.131   5.314
  620ACTN    H5 6199   7.152   7.274   5.227
  620ACTN    H6 6200   6.988   7.257   5.291
  621ACTN    C1 6201   2.340   0.950   2.665
  621ACTN    O1 6202   2.117   0.977   2.582
  621ACTN    C2 6203   2.231   1.025   2.594
  621ACTN    C3 6204   2.263   1.134   2.501
  621ACTN    H1 6205   2.367   0.997   2.759
  621ACTN    H2 6206   2.428   0.948   2.600
  621ACTN    H3 6207   2.308   0.848   2.686
  621ACTN    H4 6208   2.250   1.226   2.557
  621ACTN    H5 6209   2.191   1.141   2.419
  621ACTN    H6 6210   2.363   1.129   2.461
  622ACTN    C1 6211   2.604   4.189   7.509
  622ACTN    O1 6212   2.742   4.313   7.357
  622ACTN    C2 6213   2.689   4.204   7.387
  622ACTN    C3 6214   2.680   4.108   7.277
  622ACTN    H1 6215   2.652   4.128   7.585
  622ACTN    H2 6216   2.510   4.143   7.480
  622ACTN    H3 6217   2.584   4.287   7.554
  622ACTN    H4 6218   2.763   4.038   7.290
  622ACTN    H5 6219   2.698   4.154   7.179
  622ACTN    H6 6220   2.587   4.053   7.274
  623ACTN    C1 6221   4.308   3.281   0.734
  623ACTN    O1 6222   4.302   3.242   0.497
  623ACTN    C2 6223   4.371   3.261   0.599
  623ACTN    C3 6224   4.511   3.220   0.587
  623ACTN    H1 6225   4.320   3.383   0.770
  623ACTN    H2 6226   4.355   3.213   0.803
  623ACTN    H3 6227   4.200   3.260   0.728
  623ACTN    H4 6228   4.568   3.311   0.567
  623ACTN    H5 6229   4.529   3.157   0.499
  623ACTN    H6 6230   4.550   3.171   0.675
  624ACTN    C1 6231   4.636   1.430   7.772
  624ACTN    O1 6232   4.749   1.525   7.583
  624ACTN    C2 6233   4.705   1.541   7.698
  624ACTN    C3 6234   4.762   1.655   7.771
  624ACTN    H1 6235   4.529   1.450   7.784
  624ACTN    H2 6236   4.682   1.420   7.870
  624ACTN    H3 6237   4.645   1.336   7.716
  624ACTN    H4 6238   4.689   1.735   7.764
  624ACTN    H5 6239   4.852   1.695   7.723
  624ACTN    H6 6240   4.783   1.635   7.875
  625ACTN    C1 6241   5.023   5.484   5.230
  625ACTN    O1 6242   4.976   5.541   5.458
  625ACTN    C2 6243   4.974   5.575   5.339
  625ACTN    C3 6244   4.885   5.687   5.308
  625ACTN    H1 6245   5.115   5.520   5.185
  625ACTN    H2 6246   4.946   5.478   5.153
  625ACTN    H3 6247   5.043   5.384   5.271
  625ACTN    H4 6248   4.948   5.776   5.302
  625ACTN    H5 6249   4.814   5.708   5.389
  625ACTN    H6 6250   4.830   5.675   5.215
  626ACTN    C1 6251   5.819   1.689   3.552
  626ACTN    O1 6252   5.939   1.893   3.593
  626ACTN    C2 6253   5.852   1.834   3.527
  626ACTN    C3 6254   5.756   1.921   3.459
  626ACTN    H1 6255   5.851   1.626   3.470
  626ACTN    H2 6256   5.712   1.680   3.565
  626ACTN    H3 6257   5.871   1.654   3.642
  626ACTN    H4 6258   5.789   1.926   3.355
  626ACTN    H5 6259   5.760   2.024   3.494
  626ACTN    H6 6260   5.654   1.886   3.463
  627ACTN    C1 6261   0.817   6.951   0.879
  627ACTN    O1 6262   0.984   6.781   0.906
  627ACTN    C2 6263   0.900   6.835   0.832
  627ACTN    C3 6264   0.917   6.808   0.689
  627ACTN    H1 6265   0.712   6.924   0.891
  627ACTN    H2 6266   0.825   7.030   0.805
  627ACTN    H3 6267   0.854   6.986   0.976
  627ACTN    H4 6268   0.846   6.730   0.664
  627ACTN    H5 6269   1.015   6.765   0.665
  627ACTN    H6 6270   0.900   6.895   0.626
  628ACTN    C1 6271   3.136   3.593   4.858
  628ACTN    O1 6272   3.014   3.799   4.867
  628ACTN    C2 6273   3.067   3.705   4.929
  628ACTN    C3 6274   3.094   3.732   5.071
  628ACTN    H1 6275   3.081   3.499   4.866
  628ACTN    H2 6276   3.235   3.580   4.902
  628ACTN    H3 6277   3.146   3.617   4.751
  628ACTN    H4 6278   3.013   3.686   5.127
  628ACTN    H5 6279   3.087   3.838   5.095
  628ACTN    H6 6280   3.189   3.694   5.105
  629ACTN    C1 6281   7.870   2.284   6.179
  629ACTN    O1 6282   7.712   2.437   6.082
  629ACTN    C2 6283   7.823   2.380   6.074
  629ACTN    C3 6284   7.881   2.378   5.939
  629ACTN    H1 6285   7.953   2.324   6.236
  629ACTN    H2 6286   7.901   2.192   6.130
  629ACTN    H3 6287   7.788   2.263   6.250
  629ACTN    H4 6288   7.955   2.457   5.937
  629ACTN    H5 6289   7.809   2.405   5.862
  629ACTN    H6 6290   7.928   2.284   5.913
  630ACTN    C1 6291   2.823   3.692   3.120
  630ACTN    O1 6292   2.831   3.918   3.200
  630ACTN    C2 6293   2.802   3.840   3.108
  630ACTN    C3 6294   2.710   3.894   3.008
  630ACTN    H1 6295   2.903   3.656   3.056
  630ACTN    H2 6296   2.730   3.642   3.093
  630ACTN    H3 6297   2.850   3.666   3.223
  630ACTN    H4 6298   2.771   3.925   2.923
  630ACTN    H5 6299   2.661   3.986   3.041
  630ACTN    H6 6300   2.635   3.824   2.974
  631ACTN    C1 6301   6.961   6.063   1.752
  631ACTN    O1 6302   6.755   5.941   1.737
  631ACTN    C2 6303   6.823   6.037   1.698
  631ACTN    C3 6304   6.781   6.096   1.571
  631ACTN    H1 6305   6.965   6.152   1.814
  631ACTN    H2 6306   7.029   6.075   1.668
  631ACTN    H3 6307   6.993   5.978   1.814
  631ACTN    H4 6308   6.723   6.185   1.596
  631ACTN    H5 6309   6.711   6.032   1.516
  631ACTN    H6 6310   6.862   6.124   1.506
  632ACTN    C1 6311   2.954   7.416   5.952
  632ACTN    O1 6312   2.833   7.423   5.746
  632ACTN    C2 6313   2.888   7.486   5.837
  632ACTN    C3 6314   2.922   7.625   5.806
  632ACTN    H1 6315   2.900   7.430   6.046
  632ACTN    H2 6316   3.055   7.456   5.964
  632ACTN    H3 6317   2.959   7.308   5.933
  632ACTN    H4 6318   2.843   7.687   5.850
  632ACTN    H5 6319   2.916   7.647   5.699
  632ACTN    H6 6320   3.018   7.657   5.843
  633ACTN    C1 6321   7.021   5.184   0.759
  633ACTN    O1 6322   6.924   5.273   0.558
  633ACTN    C2 6323   6.946   5.288   0.680
  633ACTN    C3 6324   6.935   5.426   0.729
  633ACTN    H1 6325   6.956   5.133   0.830
  633ACTN    H2 6326   7.100   5.234   0.814
  633ACTN    H3 6327   7.063   5.109   0.692
  633ACTN    H4 6328   6.837   5.433   0.775
  633ACTN    H5 6329   6.933   5.499   0.648
  633ACTN    H6 6330   7.011   5.453   0.800
  634ACTN    C1 6331   5.100   4.469   3.762
  634ACTN    O1 6332   5.152   4.703   3.755
  634ACTN    C2 6333   5.156   4.596   3.819
  634ACTN    C3 6334   5.254   4.593   3.927
  634ACTN    H1 6335   5.011   4.437   3.816
  634ACTN    H2 6336   5.176   4.391   3.771
  634ACTN    H3 6337   5.073   4.483   3.657
  634ACTN    H4 6338   5.199   4.611   4.019
  634ACTN    H5 6339   5.326   4.675   3.922
  634ACTN    H6 6340   5.308   4.499   3.936
  635ACTN    C1 6341   4.372   3.611   3.428
  635ACTN    O1 6342   4.229   3.671   3.611
  635ACTN    C2 6343   4.268   3.582   3.533
  635ACTN    C3 6344   4.243   3.445   3.578
  635ACTN    H1 6345   4.329   3.607   3.327
  635ACTN    H2 6346   4.450   3.537   3.436
  635ACTN    H3 6347   4.413   3.711   3.442
  635ACTN    H4 6348   4.155   3.412   3.524
  635ACTN    H5 6349   4.215   3.440   3.683
  635ACTN    H6 6350   4.325   3.377   3.559
  636ACTN    C1 6351   0.681   6.726   2.205
  636ACTN    O1 6352   0.834   6.808   2.039
  636ACTN    C2 6353   0.737   6.831   2.114
  636ACTN    C3 6354   0.711   6.973   2.139
  636ACTN    H1 6355   0.582   6.693   2.173
  636ACTN    H2 6356   0.675   6.767   2.305
  636ACTN    H3 6357   0.747   6.638   2.205
  636ACTN    H4 6358   0.629   7.001   2.073
  636ACTN    H5 6359   0.795   7.037   2.109
  636ACTN    H6 6360   0.685   6.996   2.241
  637ACTN    C1 6361   6.464   4.405   4.276
  637ACTN    O1 6362   6.677   4.488   4.349
  637ACTN    C2 6363   6.556   4.473   4.373
  637ACTN    C3 6364   6.518   4.485   4.515
  637ACTN    H1 6365   6.393   4.475   4.231
  637ACTN    H2 6366   6.409   4.328   4.329
  637ACTN    H3 6367   6.522   4.360   4.194
  637ACTN    H4 6368   6.478   4.586   4.527
  637ACTN    H5 6369   6.605   4.481   4.581
  637ACTN    H6 6370   6.445   4.413   4.547
  638ACTN    C1 6371   2.757   7.916   0.126
  638ACTN    O1 6372   2.542   7.873   0.224
  638ACTN    C2 6373   2.664   7.851   0.225
  638ACTN    C3 6374   2.716   7.796   0.351
  638ACTN    H1 6375   2.797   7.844   0.055
  638ACTN    H2 6376   2.838   7.962   0.180
  638ACTN    H3 6377   2.702   7.992   0.069
  638ACTN    H4 6378   2.727   7.689   0.335
  638ACTN    H5 6379   2.645   7.805   0.433
  638ACTN    H6 6380   2.811   7.838   0.381
  639ACTN    C1 6381   2.471   7.893   7.059
  639ACTN    O1 6382   2.291   7.744   7.112
  639ACTN    C2 6383   2.391   7.806   7.152
  639ACTN    C3 6384   2.399   7.824   7.297
  639ACTN    H1 6385   2.570   7.850   7.039
  639ACTN    H2 6386   2.483   7.990   7.106
  639ACTN    H3 6387   2.420   7.903   6.963
  639ACTN    H4 6388   2.468   7.748   7.333
  639ACTN    H5 6389   2.304   7.802   7.347
  639ACTN    H6 6390   2.433   7.922   7.327
  640ACTN    C1 6391   1.204   1.392   1.964
  640ACTN    O1 6392   1.307   1.504   2.149
  640ACTN    C2 6393   1.248   1.514   2.040
  640ACTN    C3 6394   1.187   1.645   2.014
  640ACTN    H1 6395   1.261   1.379   1.872
  640ACTN    H2 6396   1.099   1.404   1.939
  640ACTN    H3 6397   1.218   1.302   2.025
  640ACTN    H4 6398   1.255   1.697   1.948
  640ACTN    H5 6399   1.181   1.707   2.104
  640ACTN    H6 6400   1.089   1.639   1.969
  641ACTN    C1 6401   0.672   4.683   0.919
  641ACTN    O1 6402   0.869   4.553   0.961
  641ACTN    C2 6403   0.791   4.601   0.877
  641ACTN    C3 6404   0.844   4.611   0.741
  641ACTN    H1 6405   0.578   4.630   0.900
  641ACTN    H2 6406   0.673   4.775   0.863
  641ACTN    H3 6407   0.677   4.704   1.026
  641ACTN    H4 6408   0.804   4.525   0.686
  641ACTN    H5 6409   0.953   4.597   0.737
  641ACTN    H6 6410   0.818   4.702   0.690
  642ACTN    C1 6411   2.060   4.727   4.395
  642ACTN    O1 6412   2.191   4.700   4.196
  642ACTN    C2 6413   2.156   4.653   4.305
  642ACTN    C3 6414   2.175   4.509   4.321
  642ACTN    H1 6415   2.110   4.764   4.485
  642ACTN    H2 6416   1.980   4.660   4.423
  642ACTN    H3 6417   2.019   4.814   4.343
  642ACTN    H4 6418   2.267   4.497   4.378
  642ACTN    H5 6419   2.196   4.459   4.226
  642ACTN    H6 6420   2.094   4.458   4.371
  643ACTN    C1 6421   1.407   1.773   0.577
  643ACTN    O1 6422   1.495   1.964   0.693
  643ACTN    C2 6423   1.483   1.841   0.688
  643ACTN    C3 6424   1.581   1.766   0.767
  643ACTN    H1 6425   1.315   1.729   0.613
  643ACTN    H2 6426   1.470   1.696   0.535
  643ACTN    H3 6427   1.381   1.847   0.500
  643ACTN    H4 6428   1.531   1.738   0.859
  643ACTN    H5 6429   1.665   1.828   0.800
  643ACTN    H6 6430   1.620   1.678   0.718
  644ACTN    C1 6431   2.789   2.847   4.830
  644ACTN    O1 6432   2.877   2.902   5.046
  644ACTN    C2 6433   2.900   2.869   4.929
  644ACTN    C3 6434   3.037   2.894   4.883
  644ACTN    H1 6435   2.779   2.743   4.803
  644ACTN    H2 6436   2.811   2.905   4.741
  644ACTN    H3 6437   2.694   2.880   4.873
  644ACTN    H4 6438   3.090   2.799   4.889
  644ACTN    H5 6439   3.092   2.961   4.950
  644ACTN    H6 6440   3.043   2.933   4.782
  645ACTN    C1 6441   4.587   5.053   3.445
  645ACTN    O1 6442   4.527   5.281   3.491
  645ACTN    C2 6443   4.546   5.193   3.406
  645ACTN    C3 6444   4.485   5.218   3.275
  645ACTN    H1 6445   4.690   5.031   3.415
  645ACTN    H2 6446   4.520   4.983   3.397
  645ACTN    H3 6447   4.582   5.042   3.554
  645ACTN    H4 6448   4.565   5.255   3.211
  645ACTN    H5 6449   4.412   5.299   3.278
  645ACTN    H6 6450   4.440   5.131   3.230
  646ACTN    C1 6451   2.715   6.581   2.930
  646ACTN    O1 6452   2.520   6.716   2.892
  646ACTN    C2 6453   2.632   6.680   2.853
  646ACTN    C3 6454   2.659   6.705   2.711
  646ACTN    H1 6455   2.802   6.627   2.975
  646ACTN    H2 6456   2.747   6.503   2.862
  646ACTN    H3 6457   2.655   6.538   3.011
  646ACTN    H4 6458   2.719   6.796   2.707
  646ACTN    H5 6459   2.569   6.729   2.655
  646ACTN    H6 6460   2.712   6.625   2.662
  647ACTN    C1 6461   2.264   6.166   5.241
  647ACTN    O1 6462   2.287   5.932   5.193
  647ACTN    C2 6463   2.343   6.041   5.215
  647ACTN    C3 6464   2.483   6.031   5.256
  647ACTN    H1 6465   2.273   6.237   5.159
  647ACTN    H2 6466   2.302   6.212   5.331
  647ACTN    H3 6467   2.158   6.142   5.252
  647ACTN    H4 6468   2.543   6.051   5.167
  647ACTN    H5 6469   2.511   5.929   5.285
  647ACTN    H6 6470   2.511   6.099   5.335
  648ACTN    C1 6471   0.299   5.391   1.737
  648ACTN    O1 6472   0.062   5.361   1.760
  648ACTN    C2 6473   0.174   5.361   1.814
  648ACTN    C3 6474   0.172   5.374   1.960
  648ACTN    H1 6475   0.362   5.303   1.726
  648ACTN    H2 6476   0.354   5.468   1.789
  648ACTN    H3 6477   0.273   5.426   1.636
  648ACTN    H4 6478   0.185   5.274   2.000
  648ACTN    H5 6479   0.074   5.407   1.999
  648ACTN    H6 6480   0.249   5.439   2.000
  649ACTN    C1 6481   1.137   5.613   7.357
  649ACTN    O1 6482   1.071   5.392   7.423
  649ACTN    C2 6483   1.068   5.481   7.336
  649ACTN    C3 6484   1.034   5.435   7.201
  649ACTN    H1 6485   1.065   5.694   7.368
  649ACTN    H2 6486   1.199   5.633   7.270
  649ACTN    H3 6487   1.198   5.610   7.447
  649ACTN    H4 6488   0.929   5.458   7.187
  649ACTN    H5 6489   1.040   5.326   7.192
  649ACTN    H6 6490   1.092   5.481   7.123
  650ACTN    C1 6491   0.860   3.607   6.969
  650ACTN    O1 6492   0.964   3.779   6.838
  650ACTN    C2 6493   0.893   3.750   6.936
  650ACTN    C3 6494   0.881   3.854   7.038
  650ACTN    H1 6495   0.755   3.585   6.951
  650ACTN    H2 6496   0.883   3.590   7.073
  650ACTN    H3 6497   0.919   3.539   6.905
  650ACTN    H4 6498   0.785   3.903   7.020
  650ACTN    H5 6499   0.955   3.934   7.025
  650ACTN    H6 6500   0.885   3.818   7.139
  651ACTN    C1 6501   0.844   1.275   2.838
  651ACTN    O1 6502   0.680   1.147   2.720
  651ACTN    C2 6503   0.792   1.150   2.774
  651ACTN    C3 6504   0.848   1.019   2.810
  651ACTN    H1 6505   0.928   1.318   2.782
  651ACTN    H2 6506   0.878   1.251   2.939
  651ACTN    H3 6507   0.765   1.351   2.842
  651ACTN    H4 6508   0.919   0.994   2.731
  651ACTN    H5 6509   0.773   0.939   2.805
  651ACTN    H6 6510   0.897   1.017   2.906
  652ACTN    C1 6511   6.473   6.844   4.738
  652ACTN    O1 6512   6.596   6.639   4.754
  652ACTN    C2 6513   6.548   6.738   4.813
  652ACTN    C3 6514   6.532   6.723   4.957
  652ACTN    H1 6515   6.529   6.938   4.733
  652ACTN    H2 6516   6.379   6.861   4.788
  652ACTN    H3 6517   6.455   6.812   4.635
  652ACTN    H4 6518   6.618   6.774   5.003
  652ACTN    H5 6519   6.541   6.619   4.991
  652ACTN    H6 6520   6.441   6.765   4.996
  653ACTN    C1 6521   3.527   2.277   5.670
  653ACTN    O1 6522   3.658   2.211   5.480
  653ACTN    C2 6523   3.646   2.214   5.603
  653ACTN    C3 6524   3.728   2.116   5.675
  653ACTN    H1 6525   3.554   2.369   5.723
  653ACTN    H2 6526   3.485   2.206   5.741
  653ACTN    H3 6527   3.452   2.304   5.595
  653ACTN    H4 6528   3.815   2.171   5.712
  653ACTN    H5 6529   3.770   2.039   5.610
  653ACTN    H6 6530   3.678   2.069   5.758
  654ACTN    C1 6531   2.827   6.655   0.678
  654ACTN    O1 6532   2.847   6.880   0.597
  654ACTN    C2 6533   2.890   6.763   0.595
  654ACTN    C3 6534   2.972   6.729   0.478
  654ACTN    H1 6535   2.892   6.623   0.759
  654ACTN    H2 6536   2.805   6.571   0.613
  654ACTN    H3 6537   2.734   6.692   0.723
  654ACTN    H4 6538   3.076   6.735   0.512
  654ACTN    H5 6539   2.965   6.803   0.398
  654ACTN    H6 6540   2.953   6.631   0.438
  655ACTN    C1 6541   4.926   4.214   5.641
  655ACTN    O1 6542   4.761   4.329   5.773
  655ACTN    C2 6543   4.785   4.251   5.679
  655ACTN    C3 6544   4.673   4.167   5.638
  655ACTN    H1 6545   4.955   4.256   5.546
  655ACTN    H2 6546   4.933   4.106   5.636
  655ACTN    H3 6547   4.996   4.252   5.717
  655ACTN    H4 6548   4.630   4.214   5.549
  655ACTN    H5 6549   4.591   4.167   5.711
  655ACTN    H6 6550   4.700   4.065   5.615
  656ACTN    C1 6551   1.822   5.811   7.412
  656ACTN    O1 6552   1.756   5.748   7.190
  656ACTN    C2 6553   1.738   5.736   7.312
  656ACTN    C3 6554   1.608   5.681   7.350
  656ACTN    H1 6555   1.888   5.745   7.467
  656ACTN    H2 6556   1.755   5.861   7.481
  656ACTN    H3 6557   1.884   5.885   7.360
  656ACTN    H4 6558   1.625   5.575   7.372
  656ACTN    H5 6559   1.536   5.681   7.268
  656ACTN    H6 6560   1.563   5.729   7.436
  657ACTN    C1 6561   2.360   7.361   4.001
  657ACTN    O1 6562   2.197   7.437   3.842
  657ACTN    C2 6563   2.259   7.341   3.891
  657ACTN    C3 6564   2.199   7.209   3.869
  657ACTN    H1 6565   2.462   7.342   3.967
  657ACTN    H2 6566   2.337   7.293   4.082
  657ACTN    H3 6567   2.356   7.464   4.037
  657ACTN    H4 6568   2.254   7.165   3.786
  657ACTN    H5 6569   2.096   7.216   3.833
  657ACTN    H6 6570   2.203   7.144   3.954
  658ACTN    C1 6571   0.270   1.707   3.558
  658ACTN    O1 6572   0.050   1.611   3.569
  658ACTN    C2 6573   0.130   1.686   3.510
  658ACTN    C3 6574   0.093   1.718   3.371
  658ACTN    H1 6575   0.286   1.807   3.598
  658ACTN    H2 6576   0.338   1.691   3.475
  658ACTN    H3 6577   0.293   1.635   3.639
  658ACTN    H4 6578   0.047   1.817   3.374
  658ACTN    H5 6579   0.015   1.652   3.332
  658ACTN    H6 6580   0.177   1.719   3.303
  659ACTN    C1 6581   6.290   6.599   6.459
  659ACTN    O1 6582   6.528   6.587   6.489
  659ACTN    C2 6583   6.416   6.595   6.541
  659ACTN    C3 6584   6.411   6.559   6.683
  659ACTN    H1 6585   6.242   6.696   6.462
  659ACTN    H2 6586   6.222   6.524   6.498
  659ACTN    H3 6587   6.314   6.577   6.354
  659ACTN    H4 6588   6.412   6.653   6.739
  659ACTN    H5 6589   6.501   6.506   6.716
  659ACTN    H6 6590   6.324   6.501   6.711
  660ACTN    C1 6591   3.955   3.399   2.147
  660ACTN    O1 6592   3.727   3.454   2.199
  660ACTN    C2 6593   3.841   3.427   2.241
  660ACTN    C3 6594   3.866   3.467   2.380
  660ACTN    H1 6595   3.986   3.295   2.151
  660ACTN    H2 6596   4.039   3.462   2.176
  660ACTN    H3 6597   3.925   3.421   2.044
  660ACTN    H4 6598   3.855   3.377   2.440
  660ACTN    H5 6599   3.790   3.536   2.418
  660ACTN    H6 6600   3.964   3.510   2.396
  661ACTN    C1 6601   6.108   7.370   2.421
  661ACTN    O1 6602   6.052   7.175   2.292
  661ACTN    C2 6603   6.131   7.230   2.371
  661ACTN    C3 6604   6.221   7.139   2.443
  661ACTN    H1 6605   6.180   7.441   2.380
  661ACTN    H2 6606   6.116   7.369   2.529
  661ACTN    H3 6607   6.008   7.404   2.391
  661ACTN    H4 6608   6.316   7.143   2.390
  661ACTN    H5 6609   6.189   7.035   2.436
  661ACTN    H6 6610   6.236   7.165   2.547
  662ACTN    C1 6611   0.735   2.707   1.912
  662ACTN    O1 6612   0.617   2.705   1.703
  662ACTN    C2 6613   0.703   2.652   1.776
  662ACTN    C3 6614   0.736   2.513   1.742
  662ACTN    H1 6615   0.834   2.751   1.916
  662ACTN    H2 6616   0.729   2.626   1.984
  662ACTN    H3 6617   0.663   2.786   1.939
  662ACTN    H4 6618   0.829   2.518   1.686
  662ACTN    H5 6619   0.664   2.469   1.673
  662ACTN    H6 6620   0.748   2.449   1.828
  663ACTN    C1 6621   2.206   7.933   2.434
  663ACTN    O1 6622   1.980   7.986   2.491
  663ACTN    C2 6623   2.089   7.939   2.527
  663ACTN    C3 6624   2.108   7.930   2.672
  663ACTN    H1 6625   2.230   7.831   2.405
  663ACTN    H2 6626   2.292   7.977   2.485
  663ACTN    H3 6627   2.185   7.989   2.343
  663ACTN    H4 6628   2.087   7.827   2.700
  663ACTN    H5 6629   2.034   7.989   2.728
  663ACTN    H6 6630   2.207   7.957   2.706
  664ACTN    C1 6631   2.376   7.414   2.430
  664ACTN    O1 6632   2.199   7.332   2.570
  664ACTN    C2 6633   2.254   7.430   2.516
  664ACTN    C3 6634   2.171   7.550   2.505
  664ACTN    H1 6635   2.465   7.456   2.478
  664ACTN    H2 6636   2.359   7.464   2.336
  664ACTN    H3 6637   2.396   7.307   2.413
  664ACTN    H4 6638   2.201   7.616   2.586
  664ACTN    H5 6639   2.065   7.529   2.523
  664ACTN    H6 6640   2.181   7.602   2.410
  665ACTN    C1 6641   5.042   4.884   5.339
  665ACTN    O1 6642   5.200   4.974   5.496
  665ACTN    C2 6643   5.136   4.875   5.456
  665ACTN    C3 6644   5.189   4.745   5.498
  665ACTN    H1 6645   4.938   4.874   5.369
  665ACTN    H2 6646   5.066   4.805   5.269
  665ACTN    H3 6647   5.053   4.982   5.290
  665ACTN    H4 6648   5.128   4.714   5.583
  665ACTN    H5 6649   5.290   4.752   5.539
  665ACTN    H6 6650   5.187   4.669   5.422
  666ACTN    C1 6651   6.081   3.723   2.468
  666ACTN    O1 6652   5.975   3.924   2.391
  666ACTN    C2 6653   5.978   3.833   2.475
  666ACTN    C3 6654   5.909   3.861   2.601
  666ACTN    H1 6655   6.037   3.627   2.442
  666ACTN    H2 6656   6.129   3.715   2.564
  666ACTN    H3 6657   6.156   3.747   2.391
  666ACTN    H4 6658   5.812   3.811   2.594
  666ACTN    H5 6659   5.884   3.967   2.613
  666ACTN    H6 6660   5.961   3.827   2.689
  667ACTN    C1 6661   7.026   7.399   5.908
  667ACTN    O1 6662   7.207   7.477   6.044
  667ACTN    C2 6663   7.143   7.380   6.001
  667ACTN    C3 6664   7.211   7.251   6.009
  667ACTN    H1 6665   6.932   7.374   5.956
  667ACTN    H2 6666   7.040   7.335   5.822
  667ACTN    H3 6667   7.020   7.504   5.875
  667ACTN    H4 6668   7.171   7.201   6.097
  667ACTN    H5 6669   7.318   7.261   6.030
  667ACTN    H6 6670   7.198   7.188   5.922
  668ACTN    C1 6671   4.246   7.019   6.025
  668ACTN    O1 6672   4.150   6.800   6.011
  668ACTN    C2 6673   4.153   6.916   5.968
  668ACTN    C3 6674   4.095   6.934   5.835
  668ACTN    H1 6675   4.193   7.096   6.080
  668ACTN    H2 6676   4.301   7.065   5.943
  668ACTN    H3 6677   4.317   6.971   6.094
  668ACTN    H4 6678   3.994   6.974   5.850
  668ACTN    H5 6679   4.079   6.839   5.782
  668ACTN    H6 6680   4.150   7.001   5.771
  669ACTN    C1 6681   5.485   2.504   7.302
  669ACTN    O1 6682   5.306   2.618   7.414
  669ACTN    C2 6683   5.363   2.592   7.306
  669ACTN    C3 6684   5.282   2.613   7.186
  669ACTN    H1 6685   5.574   2.560   7.276
  669ACTN    H2 6686   5.468   2.427   7.228
  669ACTN    H3 6687   5.502   2.458   7.400
  669ACTN    H4 6688   5.313   2.709   7.145
  669ACTN    H5 6689   5.176   2.626   7.209
  669ACTN    H6 6690   5.293   2.536   7.111
  670ACTN    C1 6691   6.320   5.733   4.375
  670ACTN    O1 6692   6.179   5.539   4.380
  670ACTN    C2 6693   6.202   5.651   4.331
  670ACTN    C3 6694   6.136   5.677   4.203
  670ACTN    H1 6695   6.289   5.821   4.431
  670ACTN    H2 6696   6.374   5.764   4.286
  670ACTN    H3 6697   6.385   5.674   4.439
  670ACTN    H4 6698   6.048   5.737   4.226
  670ACTN    H5 6699   6.096   5.586   4.157
  670ACTN    H6 6700   6.198   5.729   4.131
  671ACTN    C1 6701   7.752   4.386   0.473
  671ACTN    O1 6702   7.581   4.223   0.426
  671ACTN    C2 6703   7.614   4.343   0.429
  671ACTN    C3 6704   7.530   4.433   0.350
  671ACTN    H1 6705   7.750   4.436   0.569
  671ACTN    H2 6706   7.792   4.453   0.398
  671ACTN    H3 6707   7.816   4.298   0.484
  671ACTN    H4 6708   7.461   4.480   0.420
  671ACTN    H5 6709   7.466   4.380   0.280
  671ACTN    H6 6710   7.585   4.510   0.297
  672ACTN    C1 6711   2.846   7.192   6.573
  672ACTN    O1 6712   2.746   7.375   6.692
  672ACTN    C2 6713   2.730   7.277   6.617
  672ACTN    C3 6714   2.593   7.226   6.609
  672ACTN    H1 6715   2.868   7.205   6.468
  672ACTN    H2 6716   2.821   7.088   6.593
  672ACTN    H3 6717   2.936   7.220   6.629
  672ACTN    H4 6718   2.551   7.267   6.518
  672ACTN    H5 6719   2.529   7.265   6.689
  672ACTN    H6 6720   2.587   7.118   6.608
  673ACTN    C1 6721   0.971   1.802   5.337
  673ACTN    O1 6722   1.041   2.021   5.406
  673ACTN    C2 6723   1.054   1.897   5.418
  673ACTN    C3 6724   1.179   1.854   5.480
  673ACTN    H1 6725   0.898   1.749   5.399
  673ACTN    H2 6726   1.037   1.730   5.290
  673ACTN    H3 6727   0.915   1.857   5.260
  673ACTN    H4 6728   1.155   1.832   5.584
  673ACTN    H5 6729   1.254   1.933   5.485
  673ACTN    H6 6730   1.223   1.766   5.434
  674ACTN    C1 6731   5.450   7.497   7.566
  674ACTN    O1 6732   5.618   7.574   7.413
  674ACTN    C2 6733   5.501   7.533   7.430
  674ACTN    C3 6734   5.408   7.565   7.321
  674ACTN    H1 6735   5.433   7.389   7.576
  674ACTN    H2 6736   5.356   7.549   7.582
  674ACTN    H3 6737   5.522   7.526   7.643
  674ACTN    H4 6738   5.400   7.474   7.261
  674ACTN    H5 6739   5.448   7.639   7.252
  674ACTN    H6 6740   5.310   7.595   7.354
  675ACTN    C1 6741   2.987   6.546   7.238
  675ACTN    O1 6742   3.217   6.481   7.226
  675ACTN    C2 6743   3.122   6.516   7.297
  675ACTN    C3 6744   3.136   6.486   7.440
  675ACTN    H1 6745   2.962   6.652   7.243
  675ACTN    H2 6746   2.912   6.490   7.294
  675ACTN    H3 6747   2.985   6.516   7.133
  675ACTN    H4 6748   3.168   6.579   7.487
  675ACTN    H5 6749   3.217   6.416   7.460
  675ACTN    H6 6750   3.045   6.451   7.487
  676ACTN    C1 6751   2.474   3.136   1.799
  676ACTN    O1 6752   2.652   3.227   1.932
  676ACTN    C2 6753   2.548   3.160   1.928
  676ACTN    C3 6754   2.525   3.073   2.044
  676ACTN    H1 6755   2.379   3.189   1.796
  676ACTN    H2 6756   2.456   3.030   1.790
  676ACTN    H3 6757   2.534   3.171   1.715
  676ACTN    H4 6758   2.455   3.126   2.109
  676ACTN    H5 6759   2.615   3.061   2.105
  676ACTN    H6 6760   2.486   2.976   2.019
  677ACTN    C1 6761   5.245   6.285   2.178
  677ACTN    O1 6762   5.018   6.286   2.100
  677ACTN    C2 6763   5.104   6.337   2.174
  677ACTN    C3 6764   5.073   6.473   2.221
  677ACTN    H1 6765   5.267   6.236   2.272
  677ACTN    H2 6766   5.312   6.369   2.164
  677ACTN    H3 6767   5.260   6.211   2.098
  677ACTN    H4 6768   5.035   6.461   2.322
  677ACTN    H5 6769   4.991   6.519   2.165
  677ACTN    H6 6770   5.158   6.539   2.221
  678ACTN    C1 6771   3.231   3.617   3.587
  678ACTN    O1 6772   3.319   3.471   3.417
  678ACTN    C2 6773   3.281   3.586   3.448
  678ACTN    C3 6774   3.327   3.693   3.359
  678ACTN    H1 6775   3.125   3.637   3.588
  678ACTN    H2 6776   3.285   3.705   3.623
  678ACTN    H3 6777   3.250   3.532   3.654
  678ACTN    H4 6778   3.243   3.715   3.293
  678ACTN    H5 6779   3.407   3.660   3.293
  678ACTN    H6 6780   3.357   3.783   3.411
  679ACTN    C1 6781   3.327   7.096   7.428
  679ACTN    O1 6782   3.153   7.259   7.452
  679ACTN    C2 6783   3.257   7.224   7.393
  679ACTN    C3 6784   3.281   7.289   7.264
  679ACTN    H1 6785   3.422   7.114   7.477
  679ACTN    H2 6786   3.344   7.040   7.336
  679ACTN    H3 6787   3.265   7.036   7.496
  679ACTN    H4 6788   3.353   7.369   7.284
  679ACTN    H5 6789   3.192   7.341   7.227
  679ACTN    H6 6790   3.319   7.224   7.188
  680ACTN    C1 6791   5.153   6.812   2.678
  680ACTN    O1 6792   4.992   6.851   2.504
  680ACTN    C2 6793   5.111   6.832   2.535
  680ACTN    C3 6794   5.197   6.786   2.425
  680ACTN    H1 6795   5.212   6.896   2.715
  680ACTN    H2 6796   5.213   6.722   2.684
  680ACTN    H3 6797   5.065   6.803   2.742
  680ACTN    H4 6798   5.251   6.874   2.390
  680ACTN    H5 6799   5.140   6.752   2.338
  680ACTN    H6 6800   5.267   6.709   2.453
  681ACTN    C1 6801   1.292   2.401   2.636
  681ACTN    O1 6802   1.251   2.168   2.602
  681ACTN    C2 6803   1.299   2.273   2.558
  681ACTN    C3 6804   1.399   2.256   2.452
  681ACTN    H1 6805   1.225   2.474   2.590
  681ACTN    H2 6806   1.392   2.444   2.642
  681ACTN    H3 6807   1.254   2.382   2.737
  681ACTN    H4 6808   1.346   2.276   2.358
  681ACTN    H5 6809   1.434   2.153   2.443
  681ACTN    H6 6810   1.484   2.322   2.460
  682ACTN    C1 6811   1.068   5.783   4.540
  682ACTN    O1 6812   0.925   5.654   4.397
  682ACTN    C2 6813   1.025   5.728   4.407
  682ACTN    C3 6814   1.119   5.722   4.295
  682ACTN    H1 6815   1.052   5.891   4.546
  682ACTN    H2 6816   1.173   5.762   4.553
  682ACTN    H3 6817   1.010   5.736   4.621
  682ACTN    H4 6818   1.097   5.808   4.233
  682ACTN    H5 6819   1.101   5.636   4.230
  682ACTN    H6 6820   1.223   5.723   4.324
  683ACTN    C1 6821   5.725   4.539   4.881
  683ACTN    O1 6822   5.600   4.404   5.035
  683ACTN    C2 6823   5.599   4.492   4.948
  683ACTN    C3 6824   5.469   4.515   4.884
  683ACTN    H1 6825   5.751   4.641   4.910
  683ACTN    H2 6826   5.711   4.535   4.774
  683ACTN    H3 6827   5.809   4.475   4.910
  683ACTN    H4 6828   5.426   4.603   4.933
  683ACTN    H5 6829   5.397   4.435   4.906
  683ACTN    H6 6830   5.473   4.531   4.778
  684ACTN    C1 6831   6.392   2.976   0.110
  684ACTN    O1 6832   6.283   2.868   0.294
  684ACTN    C2 6833   6.343   2.856   0.186
  684ACTN    C3 6834   6.400   2.723   0.162
  684ACTN    H1 6835   6.336   2.990   0.018
  684ACTN    H2 6836   6.497   2.960   0.086
  684ACTN    H3 6837   6.380   3.066   0.170
  684ACTN    H4 6838   6.331   2.672   0.095
  684ACTN    H5 6839   6.403   2.661   0.252
  684ACTN    H6 6840   6.499   2.725   0.117
  685ACTN    C1 6841   0.316   4.638   0.388
  685ACTN    O1 6842   0.549   4.581   0.372
  685ACTN    C2 6843   0.455   4.621   0.443
  685ACTN    C3 6844   0.476   4.608   0.587
  685ACTN    H1 6845   0.287   4.743   0.382
  685ACTN    H2 6846   0.247   4.586   0.453
  685ACTN    H3 6847   0.310   4.597   0.287
  685ACTN    H4 6848   0.506   4.707   0.622
  685ACTN    H5 6849   0.561   4.544   0.612
  685ACTN    H6 6850   0.390   4.575   0.642
  686ACTN    C1 6851   1.294   7.412   7.447
  686ACTN    O1 6852   1.475   7.552   7.375
  686ACTN    C2 6853   1.417   7.443   7.365
  686ACTN    C3 6854   1.445   7.368   7.243
  686ACTN    H1 6855   1.314   7.336   7.522
  686ACTN    H2 6856   1.217   7.377   7.381
  686ACTN    H3 6857   1.261   7.502   7.500
  686ACTN    H4 6858   1.519   7.292   7.270
  686ACTN    H5 6859   1.495   7.428   7.167
  686ACTN    H6 6860   1.358   7.320   7.199
  687ACTN    C1 6861   0.849   2.243   2.961
  687ACTN    O1 6862   1.062   2.235   2.851
  687ACTN    C2 6863   0.961   2.173   2.889
  687ACTN    C3 6864   0.939   2.044   2.824
  687ACTN    H1 6865   0.843   2.213   3.066
  687ACTN    H2 6866   0.756   2.218   2.912
  687ACTN    H3 6867   0.865   2.351   2.959
  687ACTN    H4 6868   0.975   1.968   2.893
  687ACTN    H5 6869   1.000   2.031   2.734
  687ACTN    H6 6870   0.835   2.024   2.799
  688ACTN    C1 6871   4.335   4.163   2.067
  688ACTN    O1 6872   4.465   4.071   1.888
  688ACTN    C2 6873   4.367   4.138   1.923
  688ACTN    C3 6874   4.311   4.224   1.818
  688ACTN    H1 6875   4.246   4.111   2.099
  688ACTN    H2 6876   4.320   4.270   2.081
  688ACTN    H3 6877   4.418   4.129   2.130
  688ACTN    H4 6878   4.224   4.171   1.778
  688ACTN    H5 6879   4.378   4.236   1.732
  688ACTN    H6 6880   4.280   4.322   1.853
  689ACTN    C1 6881   5.908   2.261   4.822
  689ACTN    O1 6882   5.762   2.071   4.828
  689ACTN    C2 6883   5.804   2.168   4.764
  689ACTN    C3 6884   5.781   2.163   4.620
  689ACTN    H1 6885   5.867   2.359   4.844
  689ACTN    H2 6886   5.988   2.271   4.749
  689ACTN    H3 6887   5.947   2.219   4.915
  689ACTN    H4 6888   5.694   2.225   4.600
  689ACTN    H5 6889   5.752   2.063   4.586
  689ACTN    H6 6890   5.865   2.197   4.560
  690ACTN    C1 6891   5.916   6.073   2.503
  690ACTN    O1 6892   5.859   5.876   2.627
  690ACTN    C2 6893   5.942   5.935   2.556
  690ACTN    C3 6894   6.079   5.883   2.563
  690ACTN    H1 6895   5.900   6.074   2.396
  690ACTN    H2 6896   6.001   6.136   2.527
  690ACTN    H3 6897   5.826   6.115   2.550
  690ACTN    H4 6898   6.091   5.820   2.475
  690ACTN    H5 6899   6.094   5.815   2.647
  690ACTN    H6 6900   6.155   5.959   2.564
  691ACTN    C1 6901   4.086   5.044   4.513
  691ACTN    O1 6902   3.865   5.046   4.420
  691ACTN    C2 6903   3.939   5.013   4.514
  691ACTN    C3 6904   3.870   4.983   4.640
  691ACTN    H1 6905   4.146   4.954   4.502
  691ACTN    H2 6906   4.111   5.092   4.607
  691ACTN    H3 6907   4.110   5.110   4.429
  691ACTN    H4 6908   3.863   4.874   4.645
  691ACTN    H5 6909   3.766   5.017   4.640
  691ACTN    H6 6910   3.920   5.020   4.728
  692ACTN    C1 6911   7.272   3.336   3.512
  692ACTN    O1 6912   7.172   3.455   3.329
  692ACTN    C2 6913   7.276   3.421   3.388
  692ACTN    C3 6914   7.399   3.432   3.308
  692ACTN    H1 6915   7.302   3.392   3.600
  692ACTN    H2 6916   7.340   3.253   3.498
  692ACTN    H3 6917   7.171   3.299   3.528
  692ACTN    H4 6918   7.447   3.525   3.338
  692ACTN    H5 6919   7.379   3.444   3.202
  692ACTN    H6 6920   7.468   3.349   3.323
  693ACTN    C1 6921   1.861   2.953   1.026
  693ACTN    O1 6922   1.899   2.921   1.261
  693ACTN    C2 6923   1.856   2.995   1.170
  693ACTN    C3 6924   1.764   3.100   1.213
  693ACTN    H1 6925   1.933   3.012   0.969
  693ACTN    H2 6926   1.763   2.966   0.983
  693ACTN    H3 6927   1.892   2.848   1.018
  693ACTN    H4 6928   1.823   3.191   1.219
  693ACTN    H5 6929   1.727   3.084   1.315
  693ACTN    H6 6930   1.680   3.115   1.147
  694ACTN    C1 6931   5.477   6.701   7.096
  694ACTN    O1 6932   5.674   6.630   7.213
  694ACTN    C2 6933   5.551   6.647   7.215
  694ACTN    C3 6934   5.480   6.572   7.319
  694ACTN    H1 6935   5.439   6.801   7.114
  694ACTN    H2 6936   5.394   6.635   7.074
  694ACTN    H3 6937   5.544   6.707   7.010
  694ACTN    H4 6938   5.461   6.642   7.400
  694ACTN    H5 6939   5.542   6.493   7.364
  694ACTN    H6 6940   5.386   6.529   7.286
  695ACTN    C1 6941   1.376   7.196   5.204
  695ACTN    O1 6942   1.400   7.388   5.062
  695ACTN    C2 6943   1.335   7.286   5.091
  695ACTN    C3 6944   1.197   7.284   5.040
  695ACTN    H1 6945   1.411   7.099   5.168
  695ACTN    H2 6946   1.289   7.180   5.268
  695ACTN    H3 6947   1.457   7.242   5.261
  695ACTN    H4 6948   1.199   7.222   4.951
  695ACTN    H5 6949   1.164   7.382   5.005
  695ACTN    H6 6950   1.125   7.245   5.111
  696ACTN    C1 6951   6.396   6.624   3.920
  696ACTN    O1 6952   6.261   6.566   3.731
  696ACTN    C2 6953   6.293   6.652   3.815
  696ACTN    C3 6954   6.260   6.790   3.778
  696ACTN    H1 6955   6.352   6.619   4.020
  696ACTN    H2 6956   6.470   6.703   3.918
  696ACTN    H3 6957   6.445   6.527   3.901
  696ACTN    H4 6958   6.169   6.815   3.832
  696ACTN    H5 6959   6.234   6.800   3.672
  696ACTN    H6 6960   6.337   6.862   3.802
  697ACTN    C1 6961   1.238   1.111   3.577
  697ACTN    O1 6962   1.151   1.042   3.364
  697ACTN    C2 6963   1.183   1.136   3.439
  697ACTN    C3 6964   1.206   1.264   3.371
  697ACTN    H1 6965   1.168   1.142   3.654
  697ACTN    H2 6966   1.330   1.167   3.587
  697ACTN    H3 6967   1.258   1.004   3.591
  697ACTN    H4 6968   1.116   1.322   3.386
  697ACTN    H5 6969   1.215   1.253   3.263
  697ACTN    H6 6970   1.292   1.319   3.409
  698ACTN    C1 6971   3.779   2.012   2.061
  698ACTN    O1 6972   3.663   1.949   2.262
  698ACTN    C2 6973   3.656   1.992   2.145
  698ACTN    C3 6974   3.524   1.980   2.083
  698ACTN    H1 6975   3.799   2.118   2.044
  698ACTN    H2 6976   3.764   1.963   1.966
  698ACTN    H3 6977   3.866   1.970   2.112
  698ACTN    H4 6978   3.477   2.078   2.090
  698ACTN    H5 6979   3.457   1.913   2.138
  698ACTN    H6 6980   3.527   1.950   1.979
  699ACTN    C1 6981   2.726   1.110   7.905
  699ACTN    O1 6982   2.652   0.892   7.837
  699ACTN    C2 6983   2.687   1.006   7.803
  699ACTN    C3 6984   2.730   1.019   7.664
  699ACTN    H1 6985   2.653   1.191   7.910
  699ACTN    H2 6986   2.823   1.151   7.876
  699ACTN    H3 6987   2.733   1.065   8.004
  699ACTN    H4 6988   2.646   1.061   7.609
  699ACTN    H5 6989   2.748   0.922   7.616
  699ACTN    H6 6990   2.817   1.081   7.650
  700ACTN    C1 6991   2.322   0.118   0.865
  700ACTN    O1 6992   2.120   0.246   0.864
  700ACTN    C2 6993   2.199   0.176   0.928
  700ACTN    C3 6994   2.189   0.189   1.074
  700ACTN    H1 6995   2.316   0.009   0.855
  700ACTN    H2 6996   2.408   0.142   0.928
  700ACTN    H3 6997   2.336   0.159   0.765
  700ACTN    H4 6998   2.131   0.104   1.109
  700ACTN    H5 6999   2.131   0.277   1.104
  700ACTN    H6 7000   2.285   0.191   1.125
  701ACTN    C1 7001   6.258   6.653   1.827
  701ACTN    O1 7002   6.350   6.637   2.048
  701ACTN    C2 7003   6.294   6.707   1.962
  701ACTN    C3 7004   6.228   6.827   2.014
  701ACTN    H1 7005   6.319   6.696   1.748
  701ACTN    H2 7006   6.154   6.675   1.808
  701ACTN    H3 7007   6.274   6.544   1.824
  701ACTN    H4 7008   6.296   6.910   1.995
  701ACTN    H5 7009   6.216   6.825   2.123
  701ACTN    H6 7010   6.132   6.848   1.969
  702ACTN    C1 7011   1.692   2.555   3.269
  702ACTN    O1 7012   1.807   2.345   3.250
  702ACTN    C2 7013   1.745   2.436   3.193
  702ACTN    C3 7014   1.765   2.444   3.048
  702ACTN    H1 7015   1.583   2.555   3.274
  702ACTN    H2 7016   1.725   2.645   3.219
  702ACTN    H3 7017   1.730   2.553   3.372
  702ACTN    H4 7018   1.677   2.397   3.003
  702ACTN    H5 7019   1.849   2.384   3.014
  702ACTN    H6 7020   1.775   2.545   3.010
  703ACTN    C1 7021   6.796   0.326   2.041
  703ACTN    O1 7022   6.958   0.487   2.113
  703ACTN    C2 7023   6.861   0.415   2.142
  703ACTN    C3 7024   6.842   0.391   2.285
  703ACTN    H1 7025   6.696   0.361   2.013
  703ACTN    H2 7026   6.788   0.226   2.083
  703ACTN    H3 7027   6.856   0.323   1.949
  703ACTN    H4 7028   6.764   0.460   2.318
  703ACTN    H5 7029   6.930   0.419   2.344
  703ACTN    H6 7030   6.814   0.290   2.310
  704ACTN    C1 7031   2.824   3.710   3.970
  704ACTN    O1 7032   2.744   3.928   4.031
  704ACTN    C2 7033   2.828   3.838   4.049
  704ACTN    C3 7034   2.951   3.882   4.115
  704ACTN    H1 7035   2.798   3.625   4.032
  704ACTN    H2 7036   2.923   3.694   3.927
  704ACTN    H3 7037   2.750   3.718   3.890
  704ACTN    H4 7038   2.942   3.852   4.219
  704ACTN    H5 7039   2.962   3.990   4.118
  704ACTN    H6 7040   3.041   3.838   4.073
  705ACTN    C1 7041   7.821   3.959   1.089
  705ACTN    O1 7042   7.654   3.828   1.202
  705ACTN    C2 7043   7.774   3.845   1.175
  705ACTN    C3 7044   7.868   3.775   1.264
  705ACTN    H1 7045   7.857   3.925   0.992
  705ACTN    H2 7046   7.901   4.010   1.141
  705ACTN    H3 7047   7.738   4.028   1.071
  705ACTN    H4 7048   7.899   3.685   1.211
  705ACTN    H5 7049   7.820   3.739   1.355
  705ACTN    H6 7050   7.955   3.834   1.290
  706ACTN    C1 7051   0.977   3.435   6.565
  706ACTN    O1 7052   0.754   3.427   6.476
  706ACTN    C2 7053   0.835   3.483   6.552
  706ACTN    C3 7054   0.798   3.618   6.594
  706ACTN    H1 7055   0.996   3.390   6.661
  706ACTN    H2 7056   1.043   3.520   6.552
  706ACTN    H3 7057   0.998   3.360   6.488
  706ACTN    H4 7058   0.756   3.609   6.694
  706ACTN    H5 7059   0.718   3.661   6.533
  706ACTN    H6 7060   0.881   3.688   6.596
  707ACTN    C1 7061   3.635   1.388   2.485
  707ACTN    O1 7062   3.574   1.597   2.385
  707ACTN    C2 7063   3.610   1.479   2.369
  707ACTN    C3 7064   3.585   1.425   2.235
  707ACTN    H1 7065   3.741   1.365   2.497
  707ACTN    H2 7066   3.580   1.296   2.469
  707ACTN    H3 7067   3.602   1.436   2.578
  707ACTN    H4 7068   3.680   1.431   2.182
  707ACTN    H5 7069   3.516   1.486   2.177
  707ACTN    H6 7070   3.550   1.323   2.235
  708ACTN    C1 7071   7.263   6.168   7.953
  708ACTN    O1 7072   7.075   6.312   7.989
  708ACTN    C2 7073   7.188   6.297   7.940
  708ACTN    C3 7074   7.223   6.394   7.835
  708ACTN    H1 7075   7.349   6.178   8.018
  708ACTN    H2 7076   7.296   6.138   7.854
  708ACTN    H3 7077   7.198   6.091   7.995
  708ACTN    H4 7078   7.285   6.469   7.883
  708ACTN    H5 7079   7.136   6.449   7.798
  708ACTN    H6 7080   7.275   6.351   7.751
  709ACTN    C1 7081   4.399   6.047   5.890
  709ACTN    O1 7082   4.596   5.909   5.892
  709ACTN    C2 7083   4.547   6.022   5.907
  709ACTN    C3 7084   4.630   6.117   5.981
  709ACTN    H1 7085   4.377   6.105   5.801
  709ACTN    H2 7086   4.364   6.100   5.978
  709ACTN    H3 7087   4.346   5.951   5.881
  709ACTN    H4 7088   4.679   6.179   5.906
  709ACTN    H5 7089   4.713   6.068   6.034
  709ACTN    H6 7090   4.576   6.179   6.050
  710ACTN    C1 7091   2.957   0.062   3.873
  710ACTN    O1 7092   2.932   0.235   4.036
  710ACTN    C2 7093   2.963   0.117   4.012
  710ACTN    C3 7094   3.044   0.051   4.115
  710ACTN    H1 7095   2.876  -0.011   3.861
  710ACTN    H2 7096   3.052   0.014   3.851
  710ACTN    H3 7097   2.938   0.143   3.801
  710ACTN    H4 7098   2.975  -0.009   4.174
  710ACTN    H5 7099   3.087   0.122   4.187
  710ACTN    H6 7100   3.123  -0.011   4.076
  711ACTN    C1 7101   7.135   6.457   6.898
  711ACTN    O1 7102   7.344   6.574   6.879
  711ACTN    C2 7103   7.250   6.518   6.821
  711ACTN    C3 7104   7.235   6.551   6.680
  711ACTN    H1 7105   7.135   6.349   6.892
  711ACTN    H2 7106   7.043   6.495   6.856
  711ACTN    H3 7107   7.142   6.485   7.004
  711ACTN    H4 7108   7.279   6.469   6.624
  711ACTN    H5 7109   7.293   6.639   6.651
  711ACTN    H6 7110   7.132   6.565   6.648
  712ACTN    C1 7111   0.026   2.395   2.497
  712ACTN    O1 7112  -0.046   2.563   2.653
  712ACTN    C2 7113  -0.005   2.447   2.635
  712ACTN    C3 7114   0.051   2.382   2.753
  712ACTN    H1 7115  -0.045   2.319   2.465
  712ACTN    H2 7116   0.126   2.351   2.499
  712ACTN    H3 7117   0.023   2.477   2.424
  712ACTN    H4 7118  -0.028   2.317   2.792
  712ACTN    H5 7119   0.071   2.452   2.835
  712ACTN    H6 7120   0.140   2.323   2.734
  713ACTN    C1 7121   2.069   2.069   1.465
  713ACTN    O1 7122   2.134   1.869   1.580
  713ACTN    C2 7123   2.063   1.922   1.492
  713ACTN    C3 7124   2.011   1.829   1.392
  713ACTN    H1 7125   1.977   2.120   1.496
  713ACTN    H2 7126   2.084   2.084   1.359
  713ACTN    H3 7127   2.151   2.115   1.521
  713ACTN    H4 7128   1.908   1.809   1.420
  713ACTN    H5 7129   2.060   1.732   1.394
  713ACTN    H6 7130   2.013   1.868   1.291
  714ACTN    C1 7131   6.435   5.813   0.272
  714ACTN    O1 7132   6.557   5.703   0.098
  714ACTN    C2 7133   6.546   5.728   0.219
  714ACTN    C3 7134   6.619   5.637   0.308
  714ACTN    H1 7135   6.471   5.909   0.309
  714ACTN    H2 7136   6.387   5.760   0.354
  714ACTN    H3 7137   6.361   5.833   0.193
  714ACTN    H4 7138   6.711   5.688   0.335
  714ACTN    H5 7139   6.652   5.546   0.257
  714ACTN    H6 7140   6.565   5.609   0.397
  715ACTN    C1 7141   7.647   5.561   2.723
  715ACTN    O1 7142   7.811   5.516   2.893
  715ACTN    C2 7143   7.758   5.481   2.785
  715ACTN    C3 7144   7.838   5.388   2.704
  715ACTN    H1 7145   7.552   5.508   2.726
  715ACTN    H2 7146   7.673   5.581   2.620
  715ACTN    H3 7147   7.634   5.656   2.777
  715ACTN    H4 7148   7.796   5.289   2.723
  715ACTN    H5 7149   7.941   5.381   2.738
  715ACTN    H6 7150   7.836   5.409   2.598
  716ACTN    C1 7151   7.770   7.323   2.850
  716ACTN    O1 7152   7.931   7.449   2.975
  716ACTN    C2 7153   7.814   7.408   2.965
  716ACTN    C3 7154   7.738   7.410   3.090
  716ACTN    H1 7155   7.702   7.377   2.784
  716ACTN    H2 7156   7.720   7.235   2.889
  716ACTN    H3 7157   7.857   7.293   2.790
  716ACTN    H4 7158   7.676   7.499   3.086
  716ACTN    H5 7159   7.801   7.424   3.178
  716ACTN    H6 7160   7.675   7.323   3.105
  717ACTN    C1 7161   4.424   1.658   4.497
  717ACTN    O1 7162   4.459   1.857   4.367
  717ACTN    C2 7163   4.472   1.734   4.376
  717ACTN    C3 7164   4.497   1.664   4.250
  717ACTN    H1 7165   4.506   1.620   4.556
  717ACTN    H2 7166   4.363   1.575   4.463
  717ACTN    H3 7167   4.365   1.724   4.561
  717ACTN    H4 7168   4.604   1.646   4.245
  717ACTN    H5 7169   4.476   1.727   4.162
  717ACTN    H6 7170   4.444   1.570   4.240
  718ACTN    C1 7171   4.267   3.360   7.122
  718ACTN    O1 7172   4.073   3.241   7.198
  718ACTN    C2 7173   4.123   3.319   7.115
  718ACTN    C3 7174   4.048   3.333   6.990
  718ACTN    H1 7175   4.279   3.464   7.150
  718ACTN    H2 7176   4.313   3.343   7.025
  718ACTN    H3 7177   4.320   3.300   7.198
  718ACTN    H4 7178   3.991   3.425   6.999
  718ACTN    H5 7179   3.972   3.255   6.977
  718ACTN    H6 7180   4.110   3.337   6.902
  719ACTN    C1 7181   0.377   2.979   6.426
  719ACTN    O1 7182   0.477   3.154   6.555
  719ACTN    C2 7183   0.446   3.111   6.443
  719ACTN    C3 7184   0.442   3.211   6.336
  719ACTN    H1 7185   0.442   2.904   6.380
  719ACTN    H2 7186   0.290   2.994   6.363
  719ACTN    H3 7187   0.346   2.940   6.524
  719ACTN    H4 7188   0.536   3.202   6.282
  719ACTN    H5 7189   0.443   3.314   6.375
  719ACTN    H6 7190   0.360   3.199   6.268
  720ACTN    C1 7191   5.319   4.931   6.997
  720ACTN    O1 7192   5.379   4.700   6.972
  720ACTN    C2 7193   5.333   4.789   7.045
  720ACTN    C3 7194   5.256   4.742   7.160
  720ACTN    H1 7195   5.390   4.998   7.046
  720ACTN    H2 7196   5.218   4.964   7.017
  720ACTN    H3 7197   5.339   4.936   6.889
  720ACTN    H4 7198   5.323   4.747   7.246
  720ACTN    H5 7199   5.229   4.637   7.152
  720ACTN    H6 7200   5.167   4.800   7.181
  721ACTN    C1 7201   0.514   6.410   4.350
  721ACTN    O1 7202   0.724   6.526   4.365
  721ACTN    C2 7203   0.600   6.531   4.373
  721ACTN    C3 7204   0.547   6.646   4.447
  721ACTN    H1 7205   0.457   6.418   4.258
  721ACTN    H2 7206   0.446   6.400   4.433
  721ACTN    H3 7207   0.578   6.320   4.342
  721ACTN    H4 7208   0.516   6.719   4.371
  721ACTN    H5 7209   0.624   6.698   4.505
  721ACTN    H6 7210   0.464   6.623   4.511
  722ACTN    C1 7211   4.367   6.794   4.441
  722ACTN    O1 7212   4.564   6.681   4.365
  722ACTN    C2 7213   4.441   6.696   4.356
  722ACTN    C3 7214   4.382   6.645   4.232
  722ACTN    H1 7215   4.303   6.745   4.515
  722ACTN    H2 7216   4.305   6.856   4.377
  722ACTN    H3 7217   4.438   6.857   4.496
  722ACTN    H4 7218   4.340   6.548   4.256
  722ACTN    H5 7219   4.457   6.624   4.155
  722ACTN    H6 7220   4.306   6.709   4.190
  723ACTN    C1 7221   4.858   3.284   6.872
  723ACTN    O1 7222   4.955   3.113   7.008
  723ACTN    C2 7223   4.896   3.142   6.903
  723ACTN    C3 7224   4.907   3.043   6.796
  723ACTN    H1 7225   4.750   3.298   6.875
  723ACTN    H2 7226   4.894   3.309   6.772
  723ACTN    H3 7227   4.902   3.352   6.945
  723ACTN    H4 7228   4.814   2.987   6.797
  723ACTN    H5 7229   4.985   2.968   6.815
  723ACTN    H6 7230   4.922   3.085   6.697
  724ACTN    C1 7231   4.878   6.024   2.952
  724ACTN    O1 7232   5.050   6.006   2.785
  724ACTN    C2 7233   4.929   5.993   2.814
  724ACTN    C3 7234   4.838   5.989   2.700
  724ACTN    H1 7235   4.847   5.934   3.005
  724ACTN    H2 7236   4.794   6.091   2.943
  724ACTN    H3 7237   4.957   6.071   3.012
  724ACTN    H4 7238   4.814   5.884   2.683
  724ACTN    H5 7239   4.885   6.023   2.607
  724ACTN    H6 7240   4.746   6.045   2.715
  725ACTN    C1 7241   2.568   1.942   1.457
  725ACTN    O1 7242   2.348   1.922   1.553
  725ACTN    C2 7243   2.425   1.895   1.459
  725ACTN    C3 7244   2.383   1.783   1.374
  725ACTN    H1 7245   2.585   2.018   1.382
  725ACTN    H2 7246   2.631   1.856   1.437
  725ACTN    H3 7247   2.594   1.986   1.555
  725ACTN    H4 7248   2.337   1.828   1.286
  725ACTN    H5 7249   2.303   1.724   1.420
  725ACTN    H6 7250   2.463   1.718   1.344
  726ACTN    C1 7251   2.733   5.525   4.457
  726ACTN    O1 7252   2.713   5.309   4.559
  726ACTN    C2 7253   2.723   5.432   4.574
  726ACTN    C3 7254   2.681   5.481   4.706
  726ACTN    H1 7255   2.832   5.570   4.450
  726ACTN    H2 7256   2.659   5.603   4.469
  726ACTN    H3 7257   2.715   5.471   4.364
  726ACTN    H4 7258   2.772   5.496   4.763
  726ACTN    H5 7259   2.624   5.407   4.763
  726ACTN    H6 7260   2.625   5.573   4.702
  727ACTN    C1 7261   1.126   7.103   2.111
  727ACTN    O1 7262   1.005   7.295   2.188
  727ACTN    C2 7263   1.045   7.228   2.091
  727ACTN    C3 7264   0.974   7.252   1.965
  727ACTN    H1 7265   1.229   7.116   2.078
  727ACTN    H2 7266   1.080   7.023   2.054
  727ACTN    H3 7267   1.129   7.076   2.217
  727ACTN    H4 7268   1.037   7.319   1.907
  727ACTN    H5 7269   0.880   7.307   1.980
  727ACTN    H6 7270   0.954   7.162   1.908
  728ACTN    C1 7271   1.154   1.540   7.562
  728ACTN    O1 7272   1.278   1.701   7.688
  728ACTN    C2 7273   1.202   1.679   7.593
  728ACTN    C3 7274   1.128   1.795   7.544
  728ACTN    H1 7275   1.197   1.502   7.469
  728ACTN    H2 7276   1.046   1.542   7.553
  728ACTN    H3 7277   1.185   1.471   7.641
  728ACTN    H4 7278   1.181   1.829   7.455
  728ACTN    H5 7279   1.133   1.880   7.613
  728ACTN    H6 7280   1.025   1.775   7.519
  729ACTN    C1 7281   2.569   3.013   5.698
  729ACTN    O1 7282   2.550   3.138   5.902
  729ACTN    C2 7283   2.493   3.075   5.811
  729ACTN    C3 7284   2.357   3.028   5.844
  729ACTN    H1 7285   2.550   3.064   5.603
  729ACTN    H2 7286   2.539   2.909   5.689
  729ACTN    H3 7287   2.677   3.019   5.717
  729ACTN    H4 7288   2.289   3.099   5.798
  729ACTN    H5 7289   2.336   3.035   5.951
  729ACTN    H6 7290   2.335   2.929   5.809
  730ACTN    C1 7291   6.425   4.544   1.233
  730ACTN    O1 7292   6.199   4.543   1.152
  730ACTN    C2 7293   6.319   4.517   1.130
  730ACTN    C3 7294   6.343   4.422   1.021
  730ACTN    H1 7295   6.491   4.625   1.203
  730ACTN    H2 7296   6.484   4.454   1.245
  730ACTN    H3 7297   6.379   4.573   1.328
  730ACTN    H4 7298   6.371   4.482   0.934
  730ACTN    H5 7299   6.252   4.369   0.990
  730ACTN    H6 7300   6.421   4.350   1.041
  731ACTN    C1 7301   5.488   0.374   2.612
  731ACTN    O1 7302   5.409   0.525   2.443
  731ACTN    C2 7303   5.476   0.424   2.471
  731ACTN    C3 7304   5.504   0.336   2.358
  731ACTN    H1 7305   5.589   0.388   2.652
  731ACTN    H2 7306   5.464   0.268   2.613
  731ACTN    H3 7307   5.419   0.429   2.678
  731ACTN    H4 7308   5.606   0.359   2.326
  731ACTN    H5 7309   5.442   0.358   2.271
  731ACTN    H6 7310   5.497   0.230   2.381
  732ACTN    C1 7311   6.893   6.670   5.129
  732ACTN    O1 7312   6.844   6.553   5.332
  732ACTN    C2 7313   6.821   6.567   5.211
  732ACTN    C3 7314   6.756   6.453   5.146
  732ACTN    H1 7315   6.827   6.751   5.098
  732ACTN    H2 7316   6.934   6.622   5.041
  732ACTN    H3 7317   6.975   6.715   5.187
  732ACTN    H4 7318   6.650   6.479   5.140
  732ACTN    H5 7319   6.758   6.363   5.208
  732ACTN    H6 7320   6.794   6.430   5.048
  733ACTN    C1 7321   1.623   7.247   6.154
  733ACTN    O1 7322   1.702   7.111   6.335
  733ACTN    C2 7323   1.725   7.203   6.255
  733ACTN    C3 7324   1.837   7.290   6.292
  733ACTN    H1 7325   1.651   7.221   6.053
  733ACTN    H2 7326   1.612   7.355   6.162
  733ACTN    H3 7327   1.526   7.199   6.175
  733ACTN    H4 7328   1.922   7.257   6.233
  733ACTN    H5 7329   1.868   7.278   6.396
  733ACTN    H6 7330   1.818   7.395   6.273
  734ACTN    C1 7331   7.758   6.084   0.445
  734ACTN    O1 7332   7.700   6.317   0.451
  734ACTN    C2 7333   7.712   6.213   0.383
  734ACTN    C3 7334   7.639   6.213   0.256
  734ACTN    H1 7335   7.858   6.057   0.411
  734ACTN    H2 7336   7.688   6.006   0.417
  734ACTN    H3 7337   7.763   6.094   0.554
  734ACTN    H4 7338   7.713   6.237   0.179
  734ACTN    H5 7339   7.566   6.294   0.250
  734ACTN    H6 7340   7.591   6.119   0.232
  735ACTN    C1 7341   5.302   1.490   1.430
  735ACTN    O1 7342   5.274   1.253   1.404
  735ACTN    C2 7343   5.279   1.365   1.350
  735ACTN    C3 7344   5.304   1.363   1.205
  735ACTN    H1 7345   5.213   1.553   1.433
  735ACTN    H2 7346   5.383   1.546   1.384
  735ACTN    H3 7347   5.328   1.464   1.533
  735ACTN    H4 7348   5.208   1.377   1.157
  735ACTN    H5 7349   5.340   1.266   1.170
  735ACTN    H6 7350   5.373   1.440   1.172
  736ACTN    C1 7351   5.399   7.728   0.969
  736ACTN    O1 7352   5.268   7.899   1.074
  736ACTN    C2 7353   5.305   7.780   1.074
  736ACTN    C3 7354   5.289   7.710   1.202
  736ACTN    H1 7355   5.350   7.658   0.902
  736ACTN    H2 7356   5.481   7.677   1.019
  736ACTN    H3 7357   5.438   7.810   0.909
  736ACTN    H4 7358   5.199   7.650   1.192
  736ACTN    H5 7359   5.269   7.778   1.285
  736ACTN    H6 7360   5.372   7.645   1.228
  737ACTN    C1 7361   0.976   3.907   2.767
  737ACTN    O1 7362   0.744   3.939   2.820
  737ACTN    C2 7363   0.861   3.934   2.861
  737ACTN    C3 7364   0.885   3.996   2.992
  737ACTN    H1 7365   1.020   3.809   2.784
  737ACTN    H2 7366   1.051   3.984   2.783
  737ACTN    H3 7367   0.941   3.910   2.663
  737ACTN    H4 7368   0.887   3.914   3.064
  737ACTN    H5 7369   0.802   4.059   3.024
  737ACTN    H6 7370   0.977   4.052   2.998
  738ACTN    C1 7371   7.438   4.529   3.806
  738ACTN    O1 7372   7.466   4.519   4.044
  738ACTN    C2 7373   7.389   4.538   3.948
  738ACTN    C3 7374   7.247   4.524   3.979
  738ACTN    H1 7375   7.438   4.627   3.758
  738ACTN    H2 7376   7.372   4.463   3.752
  738ACTN    H3 7377   7.540   4.491   3.803
  738ACTN    H4 7378   7.209   4.626   3.992
  738ACTN    H5 7379   7.229   4.476   4.076
  738ACTN    H6 7380   7.190   4.473   3.903
  739ACTN    C1 7381   6.903   7.182   1.967
  739ACTN    O1 7382   6.743   7.012   1.909
  739ACTN    C2 7383   6.826   7.055   1.992
  739ACTN    C3 7384   6.812   7.002   2.128
  739ACTN    H1 7385   7.009   7.162   1.949
  739ACTN    H2 7386   6.893   7.246   2.054
  739ACTN    H3 7387   6.864   7.233   1.878
  739ACTN    H4 7388   6.887   6.924   2.137
  739ACTN    H5 7389   6.717   6.952   2.143
  739ACTN    H6 7390   6.826   7.076   2.205
  740ACTN    C1 7391   7.147   0.468   5.068
  740ACTN    O1 7392   7.021   0.663   5.006
  740ACTN    C2 7393   7.113   0.584   4.978
  740ACTN    C3 7394   7.154   0.583   4.837
  740ACTN    H1 7395   7.244   0.482   5.117
  740ACTN    H2 7396   7.150   0.378   5.008
  740ACTN    H3 7397   7.072   0.458   5.147
  740ACTN    H4 7398   7.244   0.644   4.832
  740ACTN    H5 7399   7.082   0.634   4.772
  740ACTN    H6 7400   7.174   0.485   4.798
  741ACTN    C1 7401   7.824   4.072   5.255
  741ACTN    O1 7402   7.755   4.149   5.038
  741ACTN    C2 7403   7.760   4.055   5.120
  741ACTN    C3 7404   7.666   3.946   5.095
  741ACTN    H1 7405   7.917   4.016   5.264
  741ACTN    H2 7406   7.754   4.037   5.330
  741ACTN    H3 7407   7.847   4.178   5.273
  741ACTN    H4 7408   7.723   3.867   5.046
  741ACTN    H5 7409   7.588   3.973   5.023
  741ACTN    H6 7410   7.620   3.906   5.184
  742ACTN    C1 7411   6.365   4.017   5.521
  742ACTN    O1 7412   6.509   4.199   5.460
  742ACTN    C2 7413   6.415   4.124   5.428
  742ACTN    C3 7414   6.331   4.172   5.317
  742ACTN    H1 7415   6.388   3.917   5.484
  742ACTN    H2 7416   6.257   4.027   5.529
  742ACTN    H3 7417   6.411   4.028   5.619
  742ACTN    H4 7418   6.365   4.120   5.228
  742ACTN    H5 7419   6.348   4.278   5.295
  742ACTN    H6 7420   6.226   4.156   5.332
  743ACTN    C1 7421   5.155   1.838   7.510
  743ACTN    O1 7422   5.174   2.044   7.632
  743ACTN    C2 7423   5.170   1.919   7.635
  743ACTN    C3 7424   5.223   1.859   7.758
  743ACTN    H1 7425   5.058   1.789   7.505
  743ACTN    H2 7426   5.233   1.762   7.509
  743ACTN    H3 7427   5.164   1.902   7.422
  743ACTN    H4 7428   5.137   1.834   7.819
  743ACTN    H5 7429   5.281   1.930   7.818
  743ACTN    H6 7430   5.282   1.770   7.741
  744ACTN    C1 7431   5.347   4.018   0.527
  744ACTN    O1 7432   5.161   4.143   0.613
  744ACTN    C2 7433   5.238   4.045   0.627
  744ACTN    C3 7434   5.243   3.989   0.761
  744ACTN    H1 7435   5.327   3.928   0.469
  744ACTN    H2 7436   5.440   4.005   0.582
  744ACTN    H3 7437   5.356   4.101   0.457
  744ACTN    H4 7438   5.179   3.900   0.760
  744ACTN    H5 7439   5.198   4.054   0.836
  744ACTN    H6 7440   5.342   3.960   0.794
  745ACTN    C1 7441   3.516   7.398   4.972
  745ACTN    O1 7442   3.285   7.460   4.953
  745ACTN    C2 7443   3.391   7.430   4.895
  745ACTN    C3 7444   3.376   7.387   4.756
  745ACTN    H1 7445   3.592   7.475   4.960
  745ACTN    H2 7446   3.555   7.304   4.936
  745ACTN    H3 7447   3.493   7.391   5.079
  745ACTN    H4 7448   3.401   7.473   4.694
  745ACTN    H5 7449   3.272   7.363   4.730
  745ACTN    H6 7450   3.439   7.303   4.729
  746ACTN    C1 7451   4.878   4.802   7.746
  746ACTN    O1 7452   4.979   4.953   7.589
  746ACTN    C2 7453   4.983   4.901   7.702
  746ACTN    C3 7454   5.112   4.907   7.770
  746ACTN    H1 7455   4.814   4.843   7.823
  746ACTN    H2 7456   4.928   4.714   7.784
  746ACTN    H3 7457   4.814   4.775   7.661
  746ACTN    H4 7458   5.106   4.990   7.840
  746ACTN    H5 7459   5.194   4.935   7.702
  746ACTN    H6 7460   5.139   4.816   7.822
  747ACTN    C1 7461   3.557   1.969   2.682
  747ACTN    O1 7462   3.319   1.940   2.672
  747ACTN    C2 7463   3.419   1.969   2.740
  747ACTN    C3 7464   3.390   2.044   2.863
  747ACTN    H1 7465   3.618   1.888   2.722
  747ACTN    H2 7466   3.604   2.064   2.705
  747ACTN    H3 7467   3.552   1.955   2.573
  747ACTN    H4 7468   3.392   1.971   2.944
  747ACTN    H5 7469   3.288   2.084   2.864
  747ACTN    H6 7470   3.460   2.124   2.883
  748ACTN    C1 7471   5.005   3.775   3.988
  748ACTN    O1 7472   4.859   3.962   3.953
  748ACTN    C2 7473   4.929   3.873   3.903
  748ACTN    C3 7474   4.900   3.842   3.762
  748ACTN    H1 7475   5.112   3.791   3.983
  748ACTN    H2 7476   4.982   3.675   3.953
  748ACTN    H3 7477   4.975   3.786   4.093
  748ACTN    H4 7478   4.976   3.895   3.704
  748ACTN    H5 7479   4.805   3.885   3.729
  748ACTN    H6 7480   4.902   3.737   3.739
  749ACTN    C1 7481   6.735   5.234   6.691
  749ACTN    O1 7482   6.684   5.467   6.705
  749ACTN    C2 7483   6.719   5.371   6.634
  749ACTN    C3 7484   6.700   5.391   6.490
  749ACTN    H1 7485   6.840   5.203   6.693
  749ACTN    H2 7486   6.679   5.164   6.629
  749ACTN    H3 7487   6.698   5.231   6.794
  749ACTN    H4 7488   6.798   5.418   6.450
  749ACTN    H5 7489   6.636   5.476   6.467
  749ACTN    H6 7490   6.663   5.303   6.438
  750ACTN    C1 7491   0.928   1.752   6.736
  750ACTN    O1 7492   0.947   1.520   6.678
  750ACTN    C2 7493   0.965   1.609   6.763
  750ACTN    C3 7494   0.982   1.561   6.900
  750ACTN    H1 7495   1.016   1.815   6.726
  750ACTN    H2 7496   0.867   1.787   6.818
  750ACTN    H3 7497   0.872   1.759   6.642
  750ACTN    H4 7498   1.089   1.561   6.919
  750ACTN    H5 7499   0.953   1.456   6.912
  750ACTN    H6 7500   0.931   1.621   6.974
  751ACTN    C1 7501   1.685   0.890   6.903
  751ACTN    O1 7502   1.585   1.099   6.841
  751ACTN    C2 7503   1.580   0.975   6.837
  751ACTN    C3 7504   1.448   0.918   6.806
  751ACTN    H1 7505   1.747   0.838   6.830
  751ACTN    H2 7506   1.636   0.817   6.966
  751ACTN    H3 7507   1.752   0.953   6.963
  751ACTN    H4 7508   1.451   0.892   6.700
  751ACTN    H5 7509   1.368   0.992   6.813
  751ACTN    H6 7510   1.422   0.831   6.864
  752ACTN    C1 7511   3.435   1.152   4.052
  752ACTN    O1 7512   3.359   1.366   4.128
  752ACTN    C2 7513   3.348   1.274   4.045
  752ACTN    C3 7514   3.221   1.271   3.971
  752ACTN    H1 7515   3.506   1.148   3.969
  752ACTN    H2 7516   3.371   1.064   4.048
  752ACTN    H3 7517   3.493   1.152   4.145
  752ACTN    H4 7518   3.242   1.316   3.874
  752ACTN    H5 7519   3.145   1.335   4.016
  752ACTN    H6 7520   3.181   1.172   3.957
  753ACTN    C1 7521   3.967   0.162   3.337
  753ACTN    O1 7522   4.194   0.174   3.260
  753ACTN    C2 7523   4.074   0.155   3.232
  753ACTN    C3 7524   4.040   0.168   3.090
  753ACTN    H1 7525   3.924   0.064   3.358
  753ACTN    H2 7526   3.888   0.228   3.301
  753ACTN    H3 7527   4.009   0.200   3.431
  753ACTN    H4 7528   4.036   0.067   3.050
  753ACTN    H5 7529   4.119   0.217   3.032
  753ACTN    H6 7530   3.946   0.218   3.071
  754ACTN    C1 7531   6.785   3.542   0.104
  754ACTN    O1 7532   6.728   3.505   0.334
  754ACTN    C2 7533   6.710   3.474   0.215
  754ACTN    C3 7534   6.647   3.344   0.193
  754ACTN    H1 7535   6.720   3.606   0.044
  754ACTN    H2 7536   6.829   3.466   0.041
  754ACTN    H3 7537   6.864   3.606   0.146
  754ACTN    H4 7538   6.542   3.363   0.174
  754ACTN    H5 7539   6.647   3.282   0.283
  754ACTN    H6 7540   6.689   3.288   0.111
  755ACTN    C1 7541   2.779   7.204   3.349
  755ACTN    O1 7542   2.603   7.279   3.494
  755ACTN    C2 7543   2.721   7.242   3.482
  755ACTN    C3 7544   2.809   7.279   3.594
  755ACTN    H1 7545   2.800   7.097   3.342
  755ACTN    H2 7546   2.872   7.259   3.335
  755ACTN    H3 7547   2.708   7.229   3.269
  755ACTN    H4 7548   2.818   7.190   3.656
  755ACTN    H5 7549   2.764   7.354   3.659
  755ACTN    H6 7550   2.907   7.312   3.563
  756ACTN    C1 7551   1.399   6.444   0.794
  756ACTN    O1 7552   1.161   6.429   0.766
  756ACTN    C2 7553   1.272   6.447   0.714
  756ACTN    C3 7554   1.276   6.428   0.568
  756ACTN    H1 7555   1.445   6.542   0.802
  756ACTN    H2 7556   1.469   6.376   0.745
  756ACTN    H3 7557   1.378   6.408   0.896
  756ACTN    H4 7558   1.271   6.528   0.525
  756ACTN    H5 7559   1.187   6.378   0.530
  756ACTN    H6 7560   1.364   6.377   0.532
  757ACTN    C1 7561   1.663   3.202   6.071
  757ACTN    O1 7562   1.730   3.430   6.041
  757ACTN    C2 7563   1.742   3.312   6.006
  757ACTN    C3 7564   1.801   3.292   5.873
  757ACTN    H1 7565   1.726   3.136   6.131
  757ACTN    H2 7566   1.614   3.144   5.993
  757ACTN    H3 7567   1.587   3.245   6.138
  757ACTN    H4 7568   1.905   3.267   5.890
  757ACTN    H5 7569   1.804   3.384   5.815
  757ACTN    H6 7570   1.754   3.214   5.815
  758ACTN    C1 7571   3.076   2.607   1.168
  758ACTN    O1 7572   3.238   2.523   1.012
  758ACTN    C2 7573   3.121   2.519   1.055
  758ACTN    C3 7574   3.024   2.458   0.964
  758ACTN    H1 7575   3.056   2.550   1.258
  758ACTN    H2 7576   2.985   2.657   1.137
  758ACTN    H3 7577   3.153   2.681   1.192
  758ACTN    H4 7578   3.010   2.356   0.999
  758ACTN    H5 7579   3.063   2.447   0.862
  758ACTN    H6 7580   2.929   2.509   0.960
  759ACTN    C1 7581   2.213   1.466   6.719
  759ACTN    O1 7582   2.280   1.682   6.798
  759ACTN    C2 7583   2.310   1.563   6.781
  759ACTN    C3 7584   2.453   1.533   6.785
  759ACTN    H1 7585   2.176   1.393   6.790
  759ACTN    H2 7586   2.264   1.414   6.638
  759ACTN    H3 7587   2.126   1.520   6.679
  759ACTN    H4 7588   2.473   1.494   6.884
  759ACTN    H5 7589   2.515   1.623   6.778
  759ACTN    H6 7590   2.485   1.461   6.711
  760ACTN    C1 7591   7.575   3.437   7.102
  760ACTN    O1 7592   7.561   3.209   7.175
  760ACTN    C2 7593   7.563   3.329   7.206
  760ACTN    C3 7594   7.511   3.360   7.340
  760ACTN    H1 7595   7.671   3.488   7.106
  760ACTN    H2 7596   7.496   3.510   7.119
  760ACTN    H3 7597   7.565   3.394   7.002
  760ACTN    H4 7598   7.598   3.372   7.404
  760ACTN    H5 7599   7.456   3.276   7.383
  760ACTN    H6 7600   7.451   3.449   7.344
  761ACTN    C1 7601   7.129   6.850   5.849
  761ACTN    O1 7602   7.186   6.657   5.718
  761ACTN    C2 7603   7.108   6.752   5.737
  761ACTN    C3 7604   7.024   6.788   5.622
  761ACTN    H1 7605   7.052   6.840   5.926
  761ACTN    H2 7606   7.125   6.950   5.808
  761ACTN    H3 7607   7.226   6.833   5.896
  761ACTN    H4 7608   6.927   6.742   5.640
  761ACTN    H5 7609   7.059   6.742   5.529
  761ACTN    H6 7610   7.013   6.894   5.607
  762ACTN    C1 7611   6.094   7.724   1.157
  762ACTN    O1 7612   5.869   7.755   1.077
  762ACTN    C2 7613   5.947   7.693   1.152
  762ACTN    C3 7614   5.882   7.621   1.262
  762ACTN    H1 7615   6.154   7.644   1.114
  762ACTN    H2 7616   6.122   7.737   1.261
  762ACTN    H3 7617   6.115   7.815   1.100
  762ACTN    H4 7618   5.875   7.517   1.230
  762ACTN    H5 7619   5.778   7.652   1.277
  762ACTN    H6 7620   5.935   7.627   1.356
  763ACTN    C1 7621   5.466   6.467   1.355
  763ACTN    O1 7622   5.536   6.402   1.575
  763ACTN    C2 7623   5.446   6.403   1.489
  763ACTN    C3 7624   5.341   6.303   1.509
  763ACTN    H1 7625   5.406   6.558   1.345
  763ACTN    H2 7626   5.438   6.396   1.278
  763ACTN    H3 7627   5.571   6.496   1.343
  763ACTN    H4 7628   5.257   6.355   1.555
  763ACTN    H5 7629   5.368   6.226   1.582
  763ACTN    H6 7630   5.308   6.255   1.418
  764ACTN    C1 7631   6.932   4.327   6.777
  764ACTN    O1 7632   7.077   4.402   6.602
  764ACTN    C2 7633   7.064   4.339   6.708
  764ACTN    C3 7634   7.171   4.242   6.737
  764ACTN    H1 7635   6.930   4.383   6.871
  764ACTN    H2 7636   6.912   4.223   6.798
  764ACTN    H3 7637   6.852   4.368   6.713
  764ACTN    H4 7638   7.238   4.291   6.808
  764ACTN    H5 7639   7.235   4.223   6.650
  764ACTN    H6 7640   7.137   4.149   6.778
  765ACTN    C1 7641   5.339   4.252   5.398
  765ACTN    O1 7642   5.272   4.478   5.352
  765ACTN    C2 7643   5.267   4.380   5.429
  765ACTN    C3 7644   5.227   4.411   5.567
  765ACTN    H1 7645   5.270   4.171   5.375
  765ACTN    H2 7646   5.399   4.224   5.484
  765ACTN    H3 7647   5.404   4.266   5.311
  765ACTN    H4 7648   5.121   4.385   5.574
  765ACTN    H5 7649   5.230   4.518   5.588
  765ACTN    H6 7650   5.283   4.358   5.642
  766ACTN    C1 7651   7.774   6.498   3.348
  766ACTN    O1 7652   7.636   6.326   3.254
  766ACTN    C2 7653   7.670   6.445   3.253
  766ACTN    C3 7654   7.638   6.519   3.130
  766ACTN    H1 7655   7.731   6.565   3.423
  766ACTN    H2 7656   7.848   6.552   3.291
  766ACTN    H3 7657   7.821   6.415   3.402
  766ACTN    H4 7658   7.547   6.575   3.152
  766ACTN    H5 7659   7.610   6.452   3.048
  766ACTN    H6 7660   7.715   6.586   3.097
  767ACTN    C1 7661   7.593   1.217   3.439
  767ACTN    O1 7662   7.485   1.392   3.315
  767ACTN    C2 7663   7.480   1.311   3.410
  767ACTN    C3 7664   7.380   1.342   3.513
  767ACTN    H1 7665   7.567   1.113   3.417
  767ACTN    H2 7666   7.619   1.225   3.544
  767ACTN    H3 7667   7.680   1.242   3.377
  767ACTN    H4 7668   7.294   1.279   3.493
  767ACTN    H5 7669   7.342   1.444   3.505
  767ACTN    H6 7670   7.415   1.325   3.614
  768ACTN    C1 7671   5.179   3.891   2.346
  768ACTN    O1 7672   5.020   3.816   2.182
  768ACTN    C2 7673   5.131   3.866   2.205
  768ACTN    C3 7674   5.228   3.857   2.095
  768ACTN    H1 7675   5.184   3.998   2.368
  768ACTN    H2 7676   5.277   3.847   2.357
  768ACTN    H3 7677   5.109   3.847   2.417
  768ACTN    H4 7678   5.227   3.954   2.046
  768ACTN    H5 7679   5.196   3.786   2.017
  768ACTN    H6 7680   5.328   3.832   2.126
  769ACTN    C1 7681   4.437   1.354   0.069
  769ACTN    O1 7682   4.557   1.397   0.272
  769ACTN    C2 7683   4.453   1.355   0.218
  769ACTN    C3 7684   4.370   1.269   0.303
  769ACTN    H1 7685   4.362   1.426   0.035
  769ACTN    H2 7686   4.405   1.254   0.039
  769ACTN    H3 7687   4.531   1.379   0.020
  769ACTN    H4 7688   4.289   1.333   0.340
  769ACTN    H5 7689   4.422   1.235   0.392
  769ACTN    H6 7690   4.328   1.184   0.252
  770ACTN    C1 7691   6.102   4.032   7.029
  770ACTN    O1 7692   6.243   4.147   6.872
  770ACTN    C2 7693   6.149   4.068   6.891
  770ACTN    C3 7694   6.062   4.046   6.775
  770ACTN    H1 7695   6.127   3.929   7.055
  770ACTN    H2 7696   5.995   4.046   7.034
  770ACTN    H3 7697   6.151   4.097   7.103
  770ACTN    H4 7698   6.094   3.953   6.730
  770ACTN    H5 7699   6.076   4.121   6.697
  770ACTN    H6 7700   5.956   4.041   6.799
  771ACTN    C1 7701   5.439   1.565   2.805
  771ACTN    O1 7702   5.440   1.536   2.567
  771ACTN    C2 7703   5.401   1.602   2.664
  771ACTN    C3 7704   5.355   1.738   2.633
  771ACTN    H1 7705   5.354   1.528   2.862
  771ACTN    H2 7706   5.479   1.654   2.854
  771ACTN    H3 7707   5.515   1.486   2.804
  771ACTN    H4 7708   5.246   1.733   2.630
  771ACTN    H5 7709   5.384   1.770   2.532
  771ACTN    H6 7710   5.385   1.813   2.704
  772ACTN    C1 7711   3.887   2.042   1.415
  772ACTN    O1 7712   4.117   1.975   1.397
  772ACTN    C2 7713   4.007   1.990   1.341
  772ACTN    C3 7714   4.012   1.996   1.194
  772ACTN    H1 7715   3.811   1.965   1.429
  772ACTN    H2 7716   3.845   2.124   1.358
  772ACTN    H3 7717   3.917   2.077   1.514
  772ACTN    H4 7718   3.984   1.897   1.159
  772ACTN    H5 7719   4.114   2.011   1.157
  772ACTN    H6 7720   3.947   2.070   1.151
  773ACTN    C1 7721   6.237   1.103   7.201
  773ACTN    O1 7722   6.295   0.961   7.385
  773ACTN    C2 7723   6.291   0.977   7.262
  773ACTN    C3 7724   6.380   0.889   7.185
  773ACTN    H1 7725   6.143   1.087   7.149
  773ACTN    H2 7726   6.311   1.141   7.130
  773ACTN    H3 7727   6.219   1.178   7.279
  773ACTN    H4 7728   6.317   0.809   7.146
  773ACTN    H5 7729   6.454   0.839   7.247
  773ACTN    H6 7730   6.430   0.938   7.103
  774ACTN    C1 7731   6.899   6.997   6.966
  774ACTN    O1 7732   7.022   7.132   6.811
  774ACTN    C2 7733   7.023   7.039   6.894
  774ACTN    C3 7734   7.139   6.949   6.885
  774ACTN    H1 7735   6.902   7.022   7.072
  774ACTN    H2 7736   6.889   6.889   6.956
  774ACTN    H3 7737   6.811   7.047   6.923
  774ACTN    H4 7738   7.208   6.981   6.963
  774ACTN    H5 7739   7.194   6.962   6.792
  774ACTN    H6 7740   7.115   6.845   6.898
  775ACTN    C1 7741   6.221   2.167   2.499
  775ACTN    O1 7742   6.356   1.999   2.605
  775ACTN    C2 7743   6.327   2.120   2.595
  775ACTN    C3 7744   6.367   2.203   2.709
  775ACTN    H1 7745   6.264   2.225   2.417
  775ACTN    H2 7746   6.151   2.230   2.554
  775ACTN    H3 7747   6.169   2.082   2.456
  775ACTN    H4 7748   6.459   2.253   2.679
  775ACTN    H5 7749   6.395   2.144   2.797
  775ACTN    H6 7750   6.293   2.276   2.738
  776ACTN    C1 7751   5.223   4.744   4.748
  776ACTN    O1 7752   5.147   4.848   4.951
  776ACTN    C2 7753   5.163   4.856   4.828
  776ACTN    C3 7754   5.082   4.959   4.762
  776ACTN    H1 7755   5.322   4.769   4.711
  776ACTN    H2 7756   5.157   4.722   4.665
  776ACTN    H3 7757   5.234   4.655   4.811
  776ACTN    H4 7758   5.148   5.045   4.747
  776ACTN    H5 7759   5.002   4.998   4.826
  776ACTN    H6 7760   5.040   4.929   4.667
  777ACTN    C1 7761   6.818   0.609   3.518
  777ACTN    O1 7762   6.656   0.530   3.677
  777ACTN    C2 7763   6.773   0.524   3.634
  777ACTN    C3 7764   6.870   0.467   3.727
  777ACTN    H1 7765   6.838   0.548   3.429
  777ACTN    H2 7766   6.909   0.660   3.547
  777ACTN    H3 7767   6.741   0.681   3.492
  777ACTN    H4 7768   6.885   0.364   3.696
  777ACTN    H5 7769   6.832   0.460   3.829
  777ACTN    H6 7770   6.966   0.518   3.728
  778ACTN    C1 7771   3.406   4.018   4.838
  778ACTN    O1 7772   3.558   3.909   4.687
  778ACTN    C2 7773   3.537   4.004   4.764
  778ACTN    C3 7774   3.656   4.074   4.811
  778ACTN    H1 7775   3.347   4.102   4.801
  778ACTN    H2 7776   3.428   4.032   4.943
  778ACTN    H3 7777   3.346   3.927   4.824
  778ACTN    H4 7778   3.665   4.164   4.750
  778ACTN    H5 7779   3.748   4.018   4.792
  778ACTN    H6 7780   3.653   4.101   4.916
  779ACTN    C1 7781   2.156   4.891   3.356
  779ACTN    O1 7782   2.312   4.711   3.386
  779ACTN    C2 7783   2.267   4.819   3.428
  779ACTN    C3 7784   2.296   4.849   3.568
  779ACTN    H1 7785   2.191   4.983   3.309
  779ACTN    H2 7786   2.079   4.915   3.428
  779ACTN    H3 7787   2.115   4.827   3.277
  779ACTN    H4 7788   2.381   4.918   3.568
  779ACTN    H5 7789   2.332   4.762   3.623
  779ACTN    H6 7790   2.214   4.894   3.622
  780ACTN    C1 7791   5.516   5.777   0.219
  780ACTN    O1 7792   5.739   5.691   0.242
  780ACTN    C2 7793   5.637   5.735   0.298
  780ACTN    C3 7794   5.625   5.704   0.441
  780ACTN    H1 7795   5.501   5.885   0.221
  780ACTN    H2 7796   5.429   5.729   0.261
  780ACTN    H3 7797   5.528   5.748   0.114
  780ACTN    H4 7798   5.658   5.794   0.494
  780ACTN    H5 7799   5.695   5.626   0.472
  780ACTN    H6 7800   5.525   5.678   0.472
  781ACTN    C1 7801   5.044   6.551   7.751
  781ACTN    O1 7802   4.810   6.498   7.754
  781ACTN    C2 7803   4.907   6.542   7.690
  781ACTN    C3 7804   4.891   6.541   7.544
  781ACTN    H1 7805   5.075   6.654   7.767
  781ACTN    H2 7806   5.115   6.503   7.684
  781ACTN    H3 7807   5.045   6.500   7.849
  781ACTN    H4 7808   4.864   6.643   7.517
  781ACTN    H5 7809   4.806   6.481   7.512
  781ACTN    H6 7810   4.979   6.511   7.490
  782ACTN    C1 7811   6.936   5.637   7.283
  782ACTN    O1 7812   6.997   5.433   7.394
  782ACTN    C2 7813   6.951   5.548   7.403
  782ACTN    C3 7814   6.874   5.574   7.525
  782ACTN    H1 7815   7.006   5.720   7.286
  782ACTN    H2 7816   6.835   5.675   7.282
  782ACTN    H3 7817   6.956   5.580   7.192
  782ACTN    H4 7818   6.941   5.627   7.593
  782ACTN    H5 7819   6.847   5.482   7.579
  782ACTN    H6 7820   6.785   5.633   7.509
  783ACTN    C1 7821   2.985   4.367   2.421
  783ACTN    O1 7822   3.176   4.473   2.321
  783ACTN    C2 7823   3.123   4.368   2.360
  783ACTN    C3 7824   3.181   4.244   2.307
  783ACTN    H1 7825   2.987   4.346   2.527
  783ACTN    H2 7826   2.926   4.292   2.370
  783ACTN    H3 7827   2.938   4.466   2.408
  783ACTN    H4 7828   3.247   4.206   2.384
  783ACTN    H5 7829   3.246   4.263   2.221
  783ACTN    H6 7830   3.108   4.169   2.280
  784ACTN    C1 7831   2.614   6.269   4.647
  784ACTN    O1 7832   2.588   6.062   4.530
  784ACTN    C2 7833   2.666   6.146   4.578
  784ACTN    C3 7834   2.802   6.098   4.603
  784ACTN    H1 7835   2.635   6.360   4.589
  784ACTN    H2 7836   2.662   6.277   4.744
  784ACTN    H3 7837   2.505   6.263   4.660
  784ACTN    H4 7838   2.862   6.134   4.519
  784ACTN    H5 7839   2.810   5.989   4.598
  784ACTN    H6 7840   2.845   6.133   4.696
  785ACTN    C1 7841   1.955   4.256   2.614
  785ACTN    O1 7842   2.155   4.359   2.529
  785ACTN    C2 7843   2.058   4.284   2.508
  785ACTN    C3 7844   2.027   4.261   2.366
  785ACTN    H1 7845   1.960   4.154   2.650
  785ACTN    H2 7846   1.857   4.275   2.571
  785ACTN    H3 7847   1.972   4.322   2.700
  785ACTN    H4 7848   2.070   4.164   2.341
  785ACTN    H5 7849   2.078   4.331   2.300
  785ACTN    H6 7850   1.922   4.261   2.344
  786ACTN    C1 7851   5.965   3.413   3.732
  786ACTN    O1 7852   5.969   3.512   3.951
  786ACTN    C2 7853   5.964   3.409   3.882
  786ACTN    C3 7854   5.999   3.286   3.954
  786ACTN    H1 7855   5.869   3.384   3.690
  786ACTN    H2 7856   6.042   3.345   3.697
  786ACTN    H3 7857   5.987   3.515   3.698
  786ACTN    H4 7858   5.905   3.238   3.981
  786ACTN    H5 7859   6.048   3.305   4.049
  786ACTN    H6 7860   6.060   3.217   3.896
  787ACTN    C1 7861   7.461   2.460   6.158
  787ACTN    O1 7862   7.531   2.231   6.168
  787ACTN    C2 7863   7.498   2.328   6.097
  787ACTN    C3 7864   7.539   2.319   5.957
  787ACTN    H1 7865   7.355   2.482   6.147
  787ACTN    H2 7866   7.519   2.538   6.109
  787ACTN    H3 7867   7.482   2.459   6.266
  787ACTN    H4 7868   7.451   2.287   5.902
  787ACTN    H5 7869   7.613   2.241   5.939
  787ACTN    H6 7870   7.575   2.413   5.916
  788ACTN    C1 7871   1.314   2.028   5.220
  788ACTN    O1 7872   1.182   2.224   5.174
  788ACTN    C2 7873   1.246   2.157   5.258
  788ACTN    C3 7874   1.285   2.230   5.379
  788ACTN    H1 7875   1.265   1.942   5.265
  788ACTN    H2 7876   1.416   2.033   5.255
  788ACTN    H3 7877   1.311   2.015   5.112
  788ACTN    H4 7878   1.213   2.203   5.456
  788ACTN    H5 7879   1.275   2.338   5.368
  788ACTN    H6 7880   1.385   2.207   5.413
  789ACTN    C1 7881   6.172   4.800   1.286
  789ACTN    O1 7882   5.947   4.782   1.205
  789ACTN    C2 7883   6.066   4.805   1.180
  789ACTN    C3 7884   6.103   4.793   1.038
  789ACTN    H1 7885   6.211   4.898   1.309
  789ACTN    H2 7886   6.252   4.736   1.252
  789ACTN    H3 7887   6.129   4.759   1.379
  789ACTN    H4 7888   6.105   4.895   0.999
  789ACTN    H5 7889   6.026   4.743   0.979
  789ACTN    H6 7890   6.198   4.745   1.021
  790ACTN    C1 7891   0.660   7.887   4.019
  790ACTN    O1 7892   0.862   7.783   4.096
  790ACTN    C2 7893   0.767   7.859   4.121
  790ACTN    C3 7894   0.742   7.883   4.263
  790ACTN    H1 7895   0.664   7.989   3.982
  790ACTN    H2 7896   0.563   7.870   4.065
  790ACTN    H3 7897   0.672   7.820   3.933
  790ACTN    H4 7898   0.787   7.980   4.285
  790ACTN    H5 7899   0.795   7.813   4.328
  790ACTN    H6 7900   0.638   7.885   4.290
  791ACTN    C1 7901   1.460   1.121   7.241
  791ACTN    O1 7902   1.262   1.042   7.351
  791ACTN    C2 7903   1.387   1.046   7.349
  791ACTN    C3 7904   1.452   1.012   7.475
  791ACTN    H1 7905   1.513   1.054   7.174
  791ACTN    H2 7906   1.532   1.187   7.289
  791ACTN    H3 7907   1.390   1.180   7.181
  791ACTN    H4 7908   1.485   0.909   7.466
  791ACTN    H5 7909   1.383   1.012   7.560
  791ACTN    H6 7910   1.537   1.075   7.499
  792ACTN    C1 7911   3.638   6.194   5.135
  792ACTN    O1 7912   3.611   6.009   5.286
  792ACTN    C2 7913   3.640   6.129   5.271
  792ACTN    C3 7914   3.634   6.210   5.393
  792ACTN    H1 7915   3.738   6.218   5.100
  792ACTN    H2 7916   3.579   6.284   5.142
  792ACTN    H3 7917   3.593   6.125   5.062
  792ACTN    H4 7918   3.737   6.220   5.428
  792ACTN    H5 7919   3.582   6.160   5.474
  792ACTN    H6 7920   3.591   6.308   5.378
  793ACTN    C1 7921   6.613   2.017   1.847
  793ACTN    O1 7922   6.539   2.245   1.840
  793ACTN    C2 7923   6.568   2.146   1.909
  793ACTN    C3 7924   6.597   2.175   2.050
  793ACTN    H1 7925   6.538   1.938   1.858
  793ACTN    H2 7926   6.705   1.986   1.895
  793ACTN    H3 7927   6.630   2.032   1.739
  793ACTN    H4 7928   6.506   2.150   2.105
  793ACTN    H5 7929   6.613   2.282   2.068
  793ACTN    H6 7930   6.680   2.119   2.090
  794ACTN    C1 7931   3.475   5.266   6.169
  794ACTN    O1 7932   3.442   5.501   6.131
  794ACTN    C2 7933   3.429   5.404   6.208
  794ACTN    C3 7934   3.407   5.438   6.348
  794ACTN    H1 7935   3.391   5.199   6.152
  794ACTN    H2 7936   3.537   5.227   6.249
  794ACTN    H3 7937   3.532   5.271   6.075
  794ACTN    H4 7938   3.300   5.429   6.366
  794ACTN    H5 7939   3.430   5.543   6.370
  794ACTN    H6 7940   3.460   5.375   6.418
  795ACTN    C1 7941   2.275   6.601   5.320
  795ACTN    O1 7942   2.479   6.638   5.440
  795ACTN    C2 7943   2.422   6.628   5.330
  795ACTN    C3 7944   2.495   6.685   5.217
  795ACTN    H1 7945   2.254   6.501   5.282
  795ACTN    H2 7946   2.231   6.674   5.253
  795ACTN    H3 7947   2.228   6.608   5.419
  795ACTN    H4 7948   2.544   6.601   5.167
  795ACTN    H5 7949   2.578   6.750   5.248
  795ACTN    H6 7950   2.433   6.738   5.146
  796ACTN    C1 7951   1.093   4.565   5.919
  796ACTN    O1 7952   1.167   4.584   6.146
  796ACTN    C2 7953   1.085   4.536   6.066
  796ACTN    C3 7954   1.010   4.420   6.115
  796ACTN    H1 7955   1.011   4.629   5.885
  796ACTN    H2 7956   1.090   4.471   5.865
  796ACTN    H3 7957   1.187   4.617   5.896
  796ACTN    H4 7958   0.913   4.458   6.147
  796ACTN    H5 7959   1.054   4.377   6.206
  796ACTN    H6 7960   0.996   4.342   6.041
  797ACTN    C1 7961   6.096   5.614   2.974
  797ACTN    O1 7962   6.013   5.551   3.191
  797ACTN    C2 7963   6.110   5.585   3.121
  797ACTN    C3 7964   6.226   5.636   3.196
  797ACTN    H1 7965   6.144   5.538   2.913
  797ACTN    H2 7966   6.141   5.711   2.954
  797ACTN    H3 7967   5.990   5.616   2.947
  797ACTN    H4 7968   6.296   5.553   3.202
  797ACTN    H5 7969   6.202   5.659   3.300
  797ACTN    H6 7970   6.274   5.721   3.150
  798ACTN    C1 7971   3.974   6.729   5.397
  798ACTN    O1 7972   4.117   6.740   5.590
  798ACTN    C2 7973   4.047   6.670   5.515
  798ACTN    C3 7974   4.074   6.526   5.520
  798ACTN    H1 7975   3.866   6.730   5.413
  798ACTN    H2 7976   3.997   6.671   5.309
  798ACTN    H3 7977   4.005   6.834   5.383
  798ACTN    H4 7978   3.997   6.483   5.584
  798ACTN    H5 7979   4.169   6.503   5.571
  798ACTN    H6 7980   4.073   6.477   5.424
  799ACTN    C1 7981   5.657   3.283   7.928
  799ACTN    O1 7982   5.790   3.369   7.748
  799ACTN    C2 7983   5.780   3.347   7.870
  799ACTN    C3 7984   5.907   3.345   7.944
  799ACTN    H1 7985   5.600   3.352   7.989
  799ACTN    H2 7986   5.689   3.199   7.990
  799ACTN    H3 7987   5.592   3.247   7.848
  799ACTN    H4 7988   5.915   3.443   7.992
  799ACTN    H5 7989   5.994   3.340   7.878
  799ACTN    H6 7990   5.914   3.267   8.018
  800ACTN    C1 7991   1.065   5.034   1.162
  800ACTN    O1 7992   1.300   4.994   1.187
  800ACTN    C2 7993   1.193   5.030   1.240
  800ACTN    C3 7994   1.192   5.025   1.386
  800ACTN    H1 7995   1.031   5.137   1.145
  800ACTN    H2 7996   0.989   4.981   1.218
  800ACTN    H3 7997   1.078   4.988   1.064
  800ACTN    H4 7998   1.209   5.127   1.420
  800ACTN    H5 7999   1.275   4.968   1.427
  800ACTN    H6 8000   1.099   4.988   1.428
  801ACTN    C1 8001   5.656   3.613   5.154
  801ACTN    O1 8002   5.766   3.826   5.143
  801ACTN    C2 8003   5.765   3.707   5.109
  801ACTN    C3 8004   5.847   3.675   4.992
  801ACTN    H1 8005   5.693   3.539   5.224
  801ACTN    H2 8006   5.617   3.562   5.066
  801ACTN    H3 8007   5.576   3.669   5.204
  801ACTN    H4 8008   5.940   3.633   5.031
  801ACTN    H5 8009   5.878   3.765   4.937
  801ACTN    H6 8010   5.801   3.605   4.923
  802ACTN    C1 8011   4.186   4.538   7.373
  802ACTN    O1 8012   4.321   4.375   7.486
  802ACTN    C2 8013   4.230   4.398   7.405
  802ACTN    C3 8014   4.200   4.288   7.313
  802ACTN    H1 8015   4.086   4.559   7.411
  802ACTN    H2 8016   4.185   4.550   7.265
  802ACTN    H3 8017   4.254   4.610   7.418
  802ACTN    H4 8018   4.112   4.238   7.353
  802ACTN    H5 8019   4.278   4.211   7.313
  802ACTN    H6 8020   4.181   4.319   7.211
  803ACTN    C1 8021   7.495   6.213   4.431
  803ACTN    O1 8022   7.669   6.298   4.289
  803ACTN    C2 8023   7.553   6.311   4.333
  803ACTN    C3 8024   7.497   6.445   4.320
  803ACTN    H1 8025   7.416   6.153   4.387
  803ACTN    H2 8026   7.455   6.268   4.515
  803ACTN    H3 8027   7.573   6.144   4.466
  803ACTN    H4 8028   7.432   6.442   4.233
  803ACTN    H5 8029   7.572   6.521   4.295
  803ACTN    H6 8030   7.440   6.478   4.406
  804ACTN    C1 8031   6.735   0.872   5.480
  804ACTN    O1 8032   6.794   0.992   5.281
  804ACTN    C2 8033   6.747   0.996   5.396
  804ACTN    C3 8034   6.746   1.129   5.459
  804ACTN    H1 8035   6.631   0.843   5.495
  804ACTN    H2 8036   6.780   0.892   5.577
  804ACTN    H3 8037   6.786   0.788   5.431
  804ACTN    H4 8038   6.644   1.166   5.448
  804ACTN    H5 8039   6.808   1.201   5.405
  804ACTN    H6 8040   6.774   1.128   5.563
  805ACTN    C1 8041   0.842   4.487   4.128
  805ACTN    O1 8042   0.631   4.528   4.236
  805ACTN    C2 8043   0.702   4.542   4.135
  805ACTN    C3 8044   0.629   4.576   4.012
  805ACTN    H1 8045   0.917   4.566   4.129
  805ACTN    H2 8046   0.851   4.429   4.036
  805ACTN    H3 8047   0.861   4.422   4.215
  805ACTN    H4 8048   0.640   4.684   4.000
  805ACTN    H5 8049   0.522   4.560   4.022
  805ACTN    H6 8050   0.665   4.525   3.924
  806ACTN    C1 8051   0.951   1.529   0.284
  806ACTN    O1 8052   1.168   1.628   0.257
  806ACTN    C2 8053   1.071   1.570   0.204
  806ACTN    C3 8054   1.064   1.583   0.059
  806ACTN    H1 8055   0.943   1.421   0.295
  806ACTN    H2 8056   0.862   1.566   0.233
  806ACTN    H3 8057   0.956   1.572   0.385
  806ACTN    H4 8058   1.104   1.490   0.018
  806ACTN    H5 8059   1.129   1.661   0.020
  806ACTN    H6 8060   0.963   1.598   0.021
  807ACTN    C1 8061   5.273   3.035   6.858
  807ACTN    O1 8062   5.112   3.211   6.886
  807ACTN    C2 8063   5.182   3.123   6.939
  807ACTN    C3 8064   5.202   3.138   7.083
  807ACTN    H1 8065   5.238   2.933   6.853
  807ACTN    H2 8066   5.372   3.038   6.903
  807ACTN    H3 8067   5.278   3.073   6.755
  807ACTN    H4 8068   5.132   3.070   7.131
  807ACTN    H5 8069   5.174   3.237   7.120
  807ACTN    H6 8070   5.303   3.115   7.116
  808ACTN    C1 8071   4.269   4.357   3.534
  808ACTN    O1 8072   4.203   4.126   3.549
  808ACTN    C2 8073   4.295   4.209   3.545
  808ACTN    C3 8074   4.425   4.160   3.594
  808ACTN    H1 8075   4.298   4.396   3.437
  808ACTN    H2 8076   4.325   4.407   3.612
  808ACTN    H3 8077   4.162   4.376   3.546
  808ACTN    H4 8078   4.483   4.134   3.505
  808ACTN    H5 8079   4.416   4.066   3.649
  808ACTN    H6 8080   4.479   4.232   3.653
  809ACTN    C1 8081   4.202   5.332   7.863
  809ACTN    O1 8082   4.038   5.318   7.688
  809ACTN    C2 8083   4.153   5.353   7.723
  809ACTN    C3 8084   4.248   5.372   7.613
  809ACTN    H1 8085   4.214   5.427   7.916
  809ACTN    H2 8086   4.298   5.282   7.859
  809ACTN    H3 8087   4.130   5.271   7.920
  809ACTN    H4 8088   4.252   5.480   7.595
  809ACTN    H5 8089   4.212   5.331   7.518
  809ACTN    H6 8090   4.347   5.335   7.633
  810ACTN    C1 8091   5.300   0.629   0.694
  810ACTN    O1 8092   5.115   0.668   0.546
  810ACTN    C2 8093   5.238   0.672   0.564
  810ACTN    C3 8094   5.318   0.679   0.442
  810ACTN    H1 8095   5.341   0.714   0.749
  810ACTN    H2 8096   5.379   0.559   0.672
  810ACTN    H3 8097   5.224   0.582   0.758
  810ACTN    H4 8098   5.345   0.784   0.430
  810ACTN    H5 8099   5.260   0.655   0.352
  810ACTN    H6 8100   5.407   0.618   0.444
  811ACTN    C1 8101   1.523   2.483   1.964
  811ACTN    O1 8102   1.634   2.695   1.981
  811ACTN    C2 8103   1.601   2.600   1.909
  811ACTN    C3 8104   1.602   2.626   1.765
  811ACTN    H1 8105   1.583   2.392   1.968
  811ACTN    H2 8106   1.437   2.466   1.901
  811ACTN    H3 8107   1.490   2.505   2.067
  811ACTN    H4 8108   1.695   2.584   1.727
  811ACTN    H5 8109   1.609   2.733   1.742
  811ACTN    H6 8110   1.518   2.584   1.711
  812ACTN    C1 8111   0.386   1.930   4.247
  812ACTN    O1 8112   0.604   1.859   4.178
  812ACTN    C2 8113   0.532   1.902   4.269
  812ACTN    C3 8114   0.584   1.883   4.405
  812ACTN    H1 8115   0.364   2.037   4.250
  812ACTN    H2 8116   0.329   1.880   4.325
  812ACTN    H3 8117   0.355   1.892   4.149
  812ACTN    H4 8118   0.628   1.979   4.434
  812ACTN    H5 8119   0.668   1.813   4.408
  812ACTN    H6 8120   0.510   1.854   4.477
  813ACTN    C1 8121   3.174   1.635   4.522
  813ACTN    O1 8122   3.138   1.443   4.662
  813ACTN    C2 8123   3.113   1.563   4.639
  813ACTN    C3 8124   2.991   1.614   4.703
  813ACTN    H1 8125   3.247   1.709   4.554
  813ACTN    H2 8126   3.095   1.683   4.467
  813ACTN    H3 8127   3.227   1.563   4.458
  813ACTN    H4 8128   3.024   1.669   4.791
  813ACTN    H5 8129   2.927   1.535   4.742
  813ACTN    H6 8130   2.933   1.680   4.640
  814ACTN    C1 8131   2.855   6.119   1.387
  814ACTN    O1 8132   2.673   5.974   1.326
  814ACTN    C2 8133   2.796   5.995   1.326
  814ACTN    C3 8134   2.879   5.877   1.303
  814ACTN    H1 8135   2.895   6.186   1.311
  814ACTN    H2 8136   2.934   6.089   1.454
  814ACTN    H3 8137   2.777   6.174   1.442
  814ACTN    H4 8138   2.908   5.880   1.197
  814ACTN    H5 8139   2.823   5.783   1.314
  814ACTN    H6 8140   2.968   5.873   1.364
  815ACTN    C1 8141   7.418   7.312   5.696
  815ACTN    O1 8142   7.563   7.329   5.886
  815ACTN    C2 8143   7.547   7.290   5.769
  815ACTN    C3 8144   7.671   7.263   5.695
  815ACTN    H1 8145   7.364   7.218   5.679
  815ACTN    H2 8146   7.440   7.357   5.600
  815ACTN    H3 8147   7.352   7.378   5.754
  815ACTN    H4 8148   7.685   7.155   5.699
  815ACTN    H5 8149   7.759   7.304   5.745
  815ACTN    H6 8150   7.669   7.296   5.593
  816ACTN    C1 8151   3.337   4.798   4.979
  816ACTN    O1 8152   3.529   4.804   4.836
  816ACTN    C2 8153   3.416   4.848   4.862
  816ACTN    C3 8154   3.384   4.976   4.799
  816ACTN    H1 8155   3.250   4.739   4.948
  816ACTN    H2 8156   3.302   4.883   5.036
  816ACTN    H3 8157   3.399   4.734   5.042
  816ACTN    H4 8158   3.323   4.953   4.712
  816ACTN    H5 8159   3.472   5.027   4.760
  816ACTN    H6 8160   3.330   5.044   4.864
  817ACTN    C1 8161   5.496   3.765   5.800
  817ACTN    O1 8162   5.350   3.579   5.837
  817ACTN    C2 8163   5.454   3.639   5.869
  817ACTN    C3 8164   5.506   3.606   6.002
  817ACTN    H1 8165   5.585   3.750   5.739
  817ACTN    H2 8166   5.516   3.841   5.875
  817ACTN    H3 8167   5.417   3.800   5.733
  817ACTN    H4 8168   5.587   3.535   5.986
  817ACTN    H5 8169   5.433   3.552   6.063
  817ACTN    H6 8170   5.542   3.691   6.058
  818ACTN    C1 8171   0.790   1.208   6.105
  818ACTN    O1 8172   1.023   1.150   6.103
  818ACTN    C2 8173   0.918   1.165   6.039
  818ACTN    C3 8174   0.935   1.181   5.894
  818ACTN    H1 8175   0.717   1.128   6.107
  818ACTN    H2 8176   0.749   1.292   6.050
  818ACTN    H3 8177   0.810   1.237   6.209
  818ACTN    H4 8178   0.914   1.084   5.850
  818ACTN    H5 8179   1.039   1.202   5.866
  818ACTN    H6 8180   0.871   1.256   5.850
  819ACTN    C1 8181   6.748   2.033   5.434
  819ACTN    O1 8182   6.586   2.183   5.341
  819ACTN    C2 8183   6.608   2.079   5.405
  819ACTN    C3 8184   6.496   2.030   5.486
  819ACTN    H1 8185   6.773   1.942   5.378
  819ACTN    H2 8186   6.757   2.013   5.540
  819ACTN    H3 8187   6.820   2.110   5.404
  819ACTN    H4 8188   6.450   1.950   5.429
  819ACTN    H5 8189   6.417   2.105   5.498
  819ACTN    H6 8190   6.524   1.993   5.584
  820ACTN    C1 8191   6.770   4.879   2.893
  820ACTN    O1 8192   6.886   4.740   3.051
  820ACTN    C2 8193   6.865   4.854   3.007
  820ACTN    C3 8194   6.903   4.963   3.097
  820ACTN    H1 8195   6.822   4.909   2.802
  820ACTN    H2 8196   6.701   4.957   2.923
  820ACTN    H3 8197   6.715   4.787   2.870
  820ACTN    H4 8198   7.000   4.999   3.062
  820ACTN    H5 8199   6.921   4.929   3.199
  820ACTN    H6 8200   6.832   5.045   3.099
  821ACTN    C1 8201   0.243   7.280   0.785
  821ACTN    O1 8202   0.471   7.249   0.719
  821ACTN    C2 8203   0.352   7.221   0.701
  821ACTN    C3 8204   0.321   7.162   0.570
  821ACTN    H1 8205   0.197   7.206   0.851
  821ACTN    H2 8206   0.167   7.321   0.719
  821ACTN    H3 8207   0.284   7.360   0.849
  821ACTN    H4 8208   0.314   7.055   0.585
  821ACTN    H5 8209   0.402   7.175   0.498
  821ACTN    H6 8210   0.229   7.198   0.526
  822ACTN    C1 8211   6.424   5.160   1.169
  822ACTN    O1 8212   6.198   5.083   1.190
  822ACTN    C2 8213   6.306   5.109   1.246
  822ACTN    C3 8214   6.298   5.128   1.391
  822ACTN    H1 8215   6.504   5.086   1.164
  822ACTN    H2 8216   6.461   5.249   1.218
  822ACTN    H3 8217   6.394   5.184   1.066
  822ACTN    H4 8218   6.330   5.035   1.436
  822ACTN    H5 8219   6.195   5.141   1.426
  822ACTN    H6 8220   6.358   5.210   1.428
  823ACTN    C1 8221   3.195   2.957   7.531
  823ACTN    O1 8222   3.347   2.773   7.553
  823ACTN    C2 8223   3.275   2.857   7.610
  823ACTN    C3 8224   3.239   2.824   7.748
  823ACTN    H1 8225   3.234   3.058   7.544
  823ACTN    H2 8226   3.093   2.954   7.566
  823ACTN    H3 8227   3.200   2.934   7.424
  823ACTN    H4 8228   3.306   2.883   7.811
  823ACTN    H5 8229   3.260   2.720   7.774
  823ACTN    H6 8230   3.136   2.847   7.773
  824ACTN    C1 8231   5.399   2.437   5.171
  824ACTN    O1 8232   5.601   2.562   5.133
  824ACTN    C2 8233   5.485   2.561   5.177
  824ACTN    C3 8234   5.453   2.668   5.272
  824ACTN    H1 8235   5.317   2.449   5.100
  824ACTN    H2 8236   5.359   2.418   5.269
  824ACTN    H3 8237   5.460   2.352   5.138
  824ACTN    H4 8238   5.400   2.744   5.215
  824ACTN    H5 8239   5.543   2.719   5.309
  824ACTN    H6 8240   5.393   2.637   5.356
  825ACTN    C1 8241   4.169   7.283   3.419
  825ACTN    O1 8242   4.295   7.145   3.269
  825ACTN    C2 8243   4.196   7.156   3.344
  825ACTN    C3 8244   4.089   7.059   3.320
  825ACTN    H1 8245   4.183   7.271   3.526
  825ACTN    H2 8246   4.066   7.313   3.400
  825ACTN    H3 8247   4.237   7.362   3.385
  825ACTN    H4 8248   4.101   6.982   3.396
  825ACTN    H5 8249   4.101   7.006   3.225
  825ACTN    H6 8250   3.990   7.101   3.326
  826ACTN    C1 8251   7.471   7.611   0.951
  826ACTN    O1 8252   7.449   7.383   1.020
  826ACTN    C2 8253   7.473   7.501   1.052
  826ACTN    C3 8254   7.459   7.530   1.195
  826ACTN    H1 8255   7.571   7.651   0.932
  826ACTN    H2 8256   7.408   7.691   0.988
  826ACTN    H3 8257   7.432   7.574   0.855
  826ACTN    H4 8258   7.560   7.530   1.236
  826ACTN    H5 8259   7.406   7.452   1.250
  826ACTN    H6 8260   7.412   7.626   1.216
  827ACTN    C1 8261   5.209   1.369   3.888
  827ACTN    O1 8262   5.189   1.274   3.669
  827ACTN    C2 8263   5.145   1.354   3.753
  827ACTN    C3 8264   5.057   1.459   3.700
  827ACTN    H1 8265   5.147   1.330   3.968
  827ACTN    H2 8266   5.227   1.475   3.906
  827ACTN    H3 8267   5.304   1.314   3.891
  827ACTN    H4 8268   4.955   1.426   3.720
  827ACTN    H5 8269   5.063   1.467   3.591
  827ACTN    H6 8270   5.074   1.556   3.744
  828ACTN    C1 8271   2.024   4.336   1.894
  828ACTN    O1 8272   2.091   4.561   1.946
  828ACTN    C2 8273   2.069   4.475   1.859
  828ACTN    C3 8274   2.045   4.528   1.724
  828ACTN    H1 8275   2.102   4.262   1.873
  828ACTN    H2 8276   1.936   4.313   1.837
  828ACTN    H3 8277   2.002   4.330   2.002
  828ACTN    H4 8278   2.139   4.516   1.670
  828ACTN    H5 8279   2.027   4.636   1.724
  828ACTN    H6 8280   1.966   4.479   1.670
  829ACTN    C1 8281   5.074   1.846   3.319
  829ACTN    O1 8282   4.850   1.825   3.236
  829ACTN    C2 8283   4.924   1.850   3.332
  829ACTN    C3 8284   4.861   1.924   3.442
  829ACTN    H1 8285   5.117   1.763   3.374
  829ACTN    H2 8286   5.114   1.940   3.358
  829ACTN    H3 8287   5.102   1.835   3.214
  829ACTN    H4 8288   4.836   1.850   3.518
  829ACTN    H5 8289   4.764   1.967   3.413
  829ACTN    H6 8290   4.923   2.001   3.485
  830ACTN    C1 8291   4.136   7.219   2.056
  830ACTN    O1 8292   4.366   7.263   2.109
  830ACTN    C2 8293   4.262   7.300   2.052
  830ACTN    C3 8294   4.257   7.443   2.019
  830ACTN    H1 8295   4.112   7.176   1.959
  830ACTN    H2 8296   4.055   7.283   2.087
  830ACTN    H3 8297   4.147   7.136   2.127
  830ACTN    H4 8298   4.283   7.451   1.914
  830ACTN    H5 8299   4.334   7.501   2.071
  830ACTN    H6 8300   4.161   7.489   2.036
  831ACTN    C1 8301   2.346   2.541   0.803
  831ACTN    O1 8302   2.180   2.490   0.636
  831ACTN    C2 8303   2.271   2.566   0.675
  831ACTN    C3 8304   2.328   2.652   0.571
  831ACTN    H1 8305   2.322   2.615   0.879
  831ACTN    H2 8306   2.452   2.544   0.781
  831ACTN    H3 8307   2.319   2.442   0.843
  831ACTN    H4 8308   2.281   2.749   0.583
  831ACTN    H5 8309   2.300   2.620   0.470
  831ACTN    H6 8310   2.436   2.662   0.576
  832ACTN    C1 8311   0.374   5.893   1.492
  832ACTN    O1 8312   0.284   6.115   1.472
  832ACTN    C2 8313   0.330   6.014   1.415
  832ACTN    C3 8314   0.297   6.003   1.272
  832ACTN    H1 8315   0.482   5.880   1.489
  832ACTN    H2 8316   0.326   5.806   1.449
  832ACTN    H3 8317   0.346   5.904   1.597
  832ACTN    H4 8318   0.385   6.038   1.218
  832ACTN    H5 8319   0.218   6.072   1.242
  832ACTN    H6 8320   0.272   5.903   1.240
  833ACTN    C1 8321   2.001   2.768   6.653
  833ACTN    O1 8322   1.857   2.707   6.836
  833ACTN    C2 8323   1.962   2.686   6.773
  833ACTN    C3 8324   2.064   2.608   6.845
  833ACTN    H1 8325   1.995   2.711   6.561
  833ACTN    H2 8326   2.102   2.803   6.667
  833ACTN    H3 8327   1.932   2.854   6.644
  833ACTN    H4 8328   2.056   2.506   6.809
  833ACTN    H5 8329   2.043   2.601   6.953
  833ACTN    H6 8330   2.165   2.644   6.831
  834ACTN    C1 8331   6.806   0.495   6.572
  834ACTN    O1 8332   6.953   0.678   6.522
  834ACTN    C2 8333   6.865   0.600   6.482
  834ACTN    C3 8334   6.793   0.643   6.361
  834ACTN    H1 8335   6.836   0.395   6.543
  834ACTN    H2 8336   6.698   0.503   6.568
  834ACTN    H3 8337   6.840   0.511   6.675
  834ACTN    H4 8338   6.839   0.588   6.278
  834ACTN    H5 8339   6.811   0.748   6.337
  834ACTN    H6 8340   6.687   0.624   6.364
  835ACTN    C1 8341   1.934   7.781   6.178
  835ACTN    O1 8342   2.158   7.848   6.231
  835ACTN    C2 8343   2.047   7.809   6.273
  835ACTN    C3 8344   2.047   7.753   6.408
  835ACTN    H1 8345   1.854   7.854   6.187
  835ACTN    H2 8346   1.894   7.682   6.201
  835ACTN    H3 8347   1.970   7.784   6.075
  835ACTN    H4 8348   2.012   7.832   6.474
  835ACTN    H5 8349   2.148   7.730   6.444
  835ACTN    H6 8350   1.985   7.666   6.420
  836ACTN    C1 8351   3.586   7.409   6.264
  836ACTN    O1 8352   3.442   7.341   6.443
  836ACTN    C2 8353   3.528   7.309   6.360
  836ACTN    C3 8354   3.598   7.183   6.389
  836ACTN    H1 8355   3.554   7.391   6.162
  836ACTN    H2 8356   3.694   7.402   6.270
  836ACTN    H3 8357   3.554   7.510   6.291
  836ACTN    H4 8358   3.551   7.107   6.326
  836ACTN    H5 8359   3.582   7.149   6.491
  836ACTN    H6 8360   3.704   7.186   6.368
  837ACTN    C1 8361   7.571   4.188   7.309
  837ACTN    O1 8362   7.526   3.982   7.194
  837ACTN    C2 8363   7.609   4.069   7.225
  837ACTN    C3 8364   7.749   4.028   7.213
  837ACTN    H1 8365   7.572   4.280   7.251
  837ACTN    H2 8366   7.642   4.196   7.390
  837ACTN    H3 8367   7.470   4.175   7.348
  837ACTN    H4 8368   7.784   4.069   7.118
  837ACTN    H5 8369   7.760   3.920   7.202
  837ACTN    H6 8370   7.812   4.063   7.293
  838ACTN    C1 8371   7.502   2.653   5.818
  838ACTN    O1 8372   7.639   2.726   5.635
  838ACTN    C2 8373   7.595   2.631   5.701
  838ACTN    C3 8374   7.601   2.500   5.635
  838ACTN    H1 8375   7.550   2.629   5.913
  838ACTN    H2 8376   7.415   2.589   5.805
  838ACTN    H3 8377   7.471   2.758   5.822
  838ACTN    H4 8378   7.689   2.450   5.676
  838ACTN    H5 8379   7.622   2.509   5.528
  838ACTN    H6 8380   7.514   2.439   5.650
  839ACTN    C1 8381   5.924   3.085   6.188
  839ACTN    O1 8382   6.109   3.231   6.142
  839ACTN    C2 8383   6.038   3.174   6.227
  839ACTN    C3 8384   6.098   3.165   6.361
  839ACTN    H1 8385   5.827   3.129   6.213
  839ACTN    H2 8386   5.935   2.991   6.241
  839ACTN    H3 8387   5.925   3.067   6.080
  839ACTN    H4 8388   6.053   3.245   6.420
  839ACTN    H5 8389   6.205   3.187   6.361
  839ACTN    H6 8390   6.081   3.071   6.410
  840ACTN    C1 8391   4.351   6.251   6.221
  840ACTN    O1 8392   4.340   6.376   6.426
  840ACTN    C2 8393   4.328   6.266   6.369
  840ACTN    C3 8394   4.333   6.149   6.457
  840ACTN    H1 8395   4.259   6.231   6.167
  840ACTN    H2 8396   4.420   6.169   6.206
  840ACTN    H3 8397   4.393   6.344   6.181
  840ACTN    H4 8398   4.230   6.119   6.474
  840ACTN    H5 8399   4.371   6.173   6.557
  840ACTN    H6 8400   4.390   6.066   6.417
  841ACTN    C1 8401   6.369   3.639   4.985
  841ACTN    O1 8402   6.185   3.724   4.856
  841ACTN    C2 8403   6.300   3.676   4.857
  841ACTN    C3 8404   6.344   3.618   4.729
  841ACTN    H1 8405   6.452   3.705   5.007
  841ACTN    H2 8406   6.405   3.537   4.976
  841ACTN    H3 8407   6.298   3.646   5.069
  841ACTN    H4 8408   6.407   3.694   4.683
  841ACTN    H5 8409   6.261   3.604   4.659
  841ACTN    H6 8410   6.399   3.526   4.739
  842ACTN    C1 8411   3.705   1.861   3.827
  842ACTN    O1 8412   3.866   1.760   3.681
  842ACTN    C2 8413   3.838   1.800   3.795
  842ACTN    C3 8414   3.922   1.746   3.903
  842ACTN    H1 8415   3.712   1.968   3.847
  842ACTN    H2 8416   3.664   1.811   3.914
  842ACTN    H3 8417   3.637   1.849   3.741
  842ACTN    H4 8418   3.996   1.823   3.925
  842ACTN    H5 8419   3.982   1.660   3.870
  842ACTN    H6 8420   3.868   1.720   3.992
  843ACTN    C1 8421   4.227   1.472   3.996
  843ACTN    O1 8422   4.265   1.665   3.859
  843ACTN    C2 8423   4.227   1.619   3.968
  843ACTN    C3 8424   4.226   1.716   4.078
  843ACTN    H1 8425   4.125   1.432   4.004
  843ACTN    H2 8426   4.279   1.455   4.090
  843ACTN    H3 8427   4.277   1.418   3.915
  843ACTN    H4 8428   4.123   1.748   4.089
  843ACTN    H5 8429   4.281   1.808   4.054
  843ACTN    H6 8430   4.262   1.677   4.172
  844ACTN    C1 8431   6.062   4.066   3.393
  844ACTN    O1 8432   6.201   4.262   3.380
  844ACTN    C2 8433   6.191   4.141   3.409
  844ACTN    C3 8434   6.319   4.069   3.416
  844ACTN    H1 8435   6.019   4.039   3.489
  844ACTN    H2 8436   6.081   3.976   3.336
  844ACTN    H3 8437   5.989   4.129   3.340
  844ACTN    H4 8438   6.344   4.062   3.521
  844ACTN    H5 8439   6.401   4.125   3.371
  844ACTN    H6 8440   6.316   3.970   3.372
  845ACTN    C1 8441   0.656   7.221   1.454
  845ACTN    O1 8442   0.831   7.067   1.510
  845ACTN    C2 8443   0.752   7.110   1.424
  845ACTN    C3 8444   0.788   7.077   1.286
  845ACTN    H1 8445   0.553   7.187   1.457
  845ACTN    H2 8446   0.666   7.297   1.377
  845ACTN    H3 8447   0.679   7.265   1.552
  845ACTN    H4 8448   0.726   6.992   1.258
  845ACTN    H5 8449   0.890   7.041   1.276
  845ACTN    H6 8450   0.771   7.158   1.216
  846ACTN    C1 8451   5.222   3.691   7.706
  846ACTN    O1 8452   5.157   3.911   7.777
  846ACTN    C2 8453   5.211   3.803   7.806
  846ACTN    C3 8454   5.298   3.807   7.924
  846ACTN    H1 8455   5.157   3.607   7.732
  846ACTN    H2 8456   5.325   3.658   7.704
  846ACTN    H3 8457   5.191   3.727   7.607
  846ACTN    H4 8458   5.239   3.767   8.006
  846ACTN    H5 8459   5.323   3.909   7.954
  846ACTN    H6 8460   5.389   3.749   7.913
  847ACTN    C1 8461   4.851   7.904   4.667
  847ACTN    O1 8462   4.822   7.701   4.791
  847ACTN    C2 8463   4.846   7.822   4.793
  847ACTN    C3 8464   4.825   7.887   4.923
  847ACTN    H1 8465   4.952   7.938   4.645
  847ACTN    H2 8466   4.787   7.991   4.680
  847ACTN    H3 8467   4.816   7.845   4.582
  847ACTN    H4 8468   4.924   7.896   4.968
  847ACTN    H5 8469   4.769   7.824   4.993
  847ACTN    H6 8470   4.779   7.984   4.917
  848ACTN    C1 8471   2.982   5.612   5.286
  848ACTN    O1 8472   3.160   5.683   5.142
  848ACTN    C2 8473   3.126   5.635   5.252
  848ACTN    C3 8474   3.232   5.564   5.324
  848ACTN    H1 8475   2.947   5.680   5.364
  848ACTN    H2 8476   2.971   5.510   5.321
  848ACTN    H3 8477   2.919   5.628   5.198
  848ACTN    H4 8478   3.270   5.634   5.399
  848ACTN    H5 8479   3.319   5.543   5.260
  848ACTN    H6 8480   3.200   5.473   5.372
  849ACTN    C1 8481   5.041   2.854   7.156
  849ACTN    O1 8482   5.153   2.977   7.330
  849ACTN    C2 8483   5.049   2.922   7.290
  849ACTN    C3 8484   4.952   2.890   7.396
  849ACTN    H1 8485   4.977   2.908   7.087
  849ACTN    H2 8486   5.001   2.754   7.171
  849ACTN    H3 8487   5.141   2.848   7.111
  849ACTN    H4 8488   4.877   2.968   7.393
  849ACTN    H5 8489   4.995   2.896   7.496
  849ACTN    H6 8490   4.904   2.793   7.384
  850ACTN    C1 8491   7.282   4.054   1.241
  850ACTN    O1 8492   7.497   4.045   1.134
  850ACTN    C2 8493   7.430   4.079   1.233
  850ACTN    C3 8494   7.508   4.105   1.354
  850ACTN    H1 8495   7.225   4.146   1.235
  850ACTN    H2 8496   7.261   4.005   1.335
  850ACTN    H3 8497   7.251   3.990   1.158
  850ACTN    H4 8498   7.519   4.213   1.361
  850ACTN    H5 8499   7.610   4.067   1.348
  850ACTN    H6 8500   7.462   4.068   1.445
  851ACTN    C1 8501   5.906   2.198   6.082
  851ACTN    O1 8502   6.015   2.322   6.256
  851ACTN    C2 8503   5.908   2.290   6.201
  851ACTN    C3 8504   5.788   2.310   6.282
  851ACTN    H1 8505   5.877   2.250   5.991
  851ACTN    H2 8506   5.834   2.119   6.102
  851ACTN    H3 8507   6.005   2.156   6.065
  851ACTN    H4 8508   5.744   2.403   6.248
  851ACTN    H5 8509   5.811   2.327   6.388
  851ACTN    H6 8510   5.716   2.230   6.274
  852ACTN    C1 8511   3.597   3.185   2.546
  852ACTN    O1 8512   3.414   3.113   2.408
  852ACTN    C2 8513   3.511   3.189   2.423
  852ACTN    C3 8514   3.562   3.249   2.299
  852ACTN    H1 8515   3.584   3.275   2.607
  852ACTN    H2 8516   3.700   3.177   2.516
  852ACTN    H3 8517   3.569   3.099   2.608
  852ACTN    H4 8518   3.521   3.350   2.295
  852ACTN    H5 8519   3.523   3.200   2.209
  852ACTN    H6 8520   3.670   3.253   2.293
  853ACTN    C1 8521   3.831   6.041   5.587
  853ACTN    O1 8522   3.953   6.227   5.678
  853ACTN    C2 8523   3.957   6.119   5.617
  853ACTN    C3 8524   4.079   6.095   5.540
  853ACTN    H1 8525   3.826   5.949   5.645
  853ACTN    H2 8526   3.830   6.017   5.481
  853ACTN    H3 8527   3.743   6.101   5.613
  853ACTN    H4 8528   4.141   6.029   5.600
  853ACTN    H5 8529   4.139   6.185   5.527
  853ACTN    H6 8530   4.062   6.050   5.443
  854ACTN    C1 8531   5.296   1.710   4.305
  854ACTN    O1 8532   5.115   1.747   4.458
  854ACTN    C2 8533   5.159   1.761   4.343
  854ACTN    C3 8534   5.059   1.788   4.240
  854ACTN    H1 8535   5.366   1.792   4.287
  854ACTN    H2 8536   5.286   1.650   4.215
  854ACTN    H3 8537   5.337   1.649   4.387
  854ACTN    H4 8538   5.062   1.896   4.223
  854ACTN    H5 8539   4.957   1.769   4.275
  854ACTN    H6 8540   5.076   1.736   4.147
  855ACTN    C1 8541   1.193   0.734   3.359
  855ACTN    O1 8542   1.186   0.908   3.193
  855ACTN    C2 8543   1.151   0.793   3.227
  855ACTN    C3 8544   1.035   0.740   3.155
  855ACTN    H1 8545   1.264   0.653   3.346
  855ACTN    H2 8546   1.104   0.697   3.409
  855ACTN    H3 8547   1.242   0.811   3.420
  855ACTN    H4 8548   1.075   0.673   3.079
  855ACTN    H5 8549   0.981   0.816   3.099
  855ACTN    H6 8550   0.965   0.686   3.218
  856ACTN    C1 8551   3.918   4.362   0.355
  856ACTN    O1 8552   4.030   4.150   0.367
  856ACTN    C2 8553   3.971   4.234   0.297
  856ACTN    C3 8554   3.993   4.221   0.153
  856ACTN    H1 8555   3.809   4.363   0.358
  856ACTN    H2 8556   3.952   4.444   0.294
  856ACTN    H3 8557   3.954   4.374   0.458
  856ACTN    H4 8558   3.906   4.168   0.113
  856ACTN    H5 8559   4.077   4.156   0.129
  856ACTN    H6 8560   4.005   4.315   0.102
  857ACTN    C1 8561   2.163   3.814   6.441
  857ACTN    O1 8562   1.978   3.966   6.440
  857ACTN    C2 8563   2.061   3.901   6.374
  857ACTN    C3 8564   2.027   3.881   6.233
  857ACTN    H1 8565   2.264   3.854   6.432
  857ACTN    H2 8566   2.160   3.716   6.395
  857ACTN    H3 8567   2.141   3.806   6.548
  857ACTN    H4 8568   2.084   3.956   6.177
  857ACTN    H5 8569   1.922   3.905   6.212
  857ACTN    H6 8570   2.050   3.782   6.196
  858ACTN    C1 8571   5.870   5.178   5.073
  858ACTN    O1 8572   5.774   4.973   4.996
  858ACTN    C2 8573   5.807   5.090   4.970
  858ACTN    C3 8574   5.821   5.120   4.827
  858ACTN    H1 8575   5.804   5.259   5.104
  858ACTN    H2 8576   5.961   5.221   5.031
  858ACTN    H3 8577   5.895   5.120   5.163
  858ACTN    H4 8578   5.729   5.170   4.798
  858ACTN    H5 8579   5.824   5.030   4.765
  858ACTN    H6 8580   5.906   5.182   4.803
  859ACTN    C1 8581   1.157   5.289   2.420
  859ACTN    O1 8582   1.161   5.127   2.597
  859ACTN    C2 8583   1.213   5.228   2.545
  859ACTN    C3 8584   1.300   5.305   2.634
  859ACTN    H1 8585   1.223   5.275   2.335
  859ACTN    H2 8586   1.143   5.395   2.438
  859ACTN    H3 8587   1.061   5.243   2.395
  859ACTN    H4 8588   1.402   5.276   2.609
  859ACTN    H5 8589   1.288   5.277   2.739
  859ACTN    H6 8590   1.289   5.412   2.624
  860ACTN    C1 8591   6.603   4.138   6.078
  860ACTN    O1 8592   6.409   4.014   6.145
  860ACTN    C2 8593   6.477   4.118   6.156
  860ACTN    C3 8594   6.405   4.232   6.214
  860ACTN    H1 8595   6.691   4.136   6.141
  860ACTN    H2 8596   6.597   4.235   6.028
  860ACTN    H3 8597   6.614   4.059   6.003
  860ACTN    H4 8598   6.435   4.236   6.319
  860ACTN    H5 8599   6.297   4.217   6.216
  860ACTN    H6 8600   6.427   4.326   6.166
  861ACTN    C1 8601   4.579   5.075   6.130
  861ACTN    O1 8602   4.737   5.255   6.142
  861ACTN    C2 8603   4.670   5.170   6.203
  861ACTN    C3 8604   4.717   5.138   6.338
  861ACTN    H1 8605   4.474   5.096   6.150
  861ACTN    H2 8606   4.601   4.974   6.162
  861ACTN    H3 8607   4.594   5.084   6.022
  861ACTN    H4 8608   4.653   5.194   6.406
  861ACTN    H5 8609   4.818   5.176   6.357
  861ACTN    H6 8610   4.714   5.033   6.363
  862ACTN    C1 8611   2.896   2.232   0.064
  862ACTN    O1 8612   2.934   2.347   0.271
  862ACTN    C2 8613   2.913   2.239   0.213
  862ACTN    C3 8614   2.950   2.120   0.289
  862ACTN    H1 8615   2.793   2.207   0.036
  862ACTN    H2 8616   2.962   2.156   0.025
  862ACTN    H3 8617   2.919   2.329   0.019
  862ACTN    H4 8618   2.857   2.081   0.331
  862ACTN    H5 8619   3.012   2.143   0.376
  862ACTN    H6 8620   2.998   2.043   0.231
  863ACTN    C1 8621   0.865   0.610   5.465
  863ACTN    O1 8622   0.869   0.765   5.648
  863ACTN    C2 8623   0.897   0.651   5.606
  863ACTN    C3 8624   0.996   0.578   5.685
  863ACTN    H1 8625   0.785   0.536   5.461
  863ACTN    H2 8626   0.955   0.568   5.421
  863ACTN    H3 8627   0.832   0.697   5.407
  863ACTN    H4 8628   0.940   0.509   5.748
  863ACTN    H5 8629   1.050   0.642   5.754
  863ACTN    H6 8630   1.067   0.522   5.625
  864ACTN    C1 8631   4.385   6.883   2.659
  864ACTN    O1 8632   4.379   6.720   2.835
  864ACTN    C2 8633   4.335   6.827   2.789
  864ACTN    C3 8634   4.207   6.870   2.845
  864ACTN    H1 8635   4.444   6.973   2.673
  864ACTN    H2 8636   4.299   6.906   2.597
  864ACTN    H3 8637   4.449   6.809   2.608
  864ACTN    H4 8638   4.230   6.945   2.920
  864ACTN    H5 8639   4.156   6.790   2.901
  864ACTN    H6 8640   4.139   6.911   2.772
  865ACTN    C1 8641   3.484   5.760   7.869
  865ACTN    O1 8642   3.300   5.914   7.862
  865ACTN    C2 8643   3.382   5.844   7.799
  865ACTN    C3 8644   3.344   5.816   7.660
  865ACTN    H1 8645   3.585   5.799   7.855
  865ACTN    H2 8646   3.479   5.659   7.830
  865ACTN    H3 8647   3.465   5.759   7.977
  865ACTN    H4 8648   3.401   5.885   7.599
  865ACTN    H5 8649   3.239   5.839   7.640
  865ACTN    H6 8650   3.365   5.714   7.629
  866ACTN    C1 8651   4.682   6.998   2.455
  866ACTN    O1 8652   4.533   7.155   2.351
  866ACTN    C2 8653   4.568   7.036   2.365
  866ACTN    C3 8654   4.468   6.937   2.326
  866ACTN    H1 8655   4.768   6.963   2.399
  866ACTN    H2 8656   4.648   6.920   2.522
  866ACTN    H3 8657   4.715   7.085   2.514
  866ACTN    H4 8658   4.497   6.902   2.226
  866ACTN    H5 8659   4.369   6.980   2.312
  866ACTN    H6 8660   4.461   6.852   2.393
  867ACTN    C1 8661   5.128   1.336   2.737
  867ACTN    O1 8662   5.206   1.434   2.532
  867ACTN    C2 8663   5.174   1.331   2.594
  867ACTN    C3 8664   5.142   1.216   2.509
  867ACTN    H1 8665   5.200   1.291   2.804
  867ACTN    H2 8666   5.034   1.282   2.744
  867ACTN    H3 8667   5.114   1.440   2.768
  867ACTN    H4 8668   5.230   1.153   2.509
  867ACTN    H5 8669   5.127   1.244   2.404
  867ACTN    H6 8670   5.056   1.159   2.542
  868ACTN    C1 8671   1.887   0.801   7.264
  868ACTN    O1 8672   1.735   0.626   7.321
  868ACTN    C2 8673   1.812   0.715   7.360
  868ACTN    C3 8674   1.793   0.757   7.499
  868ACTN    H1 8675   1.994   0.780   7.264
  868ACTN    H2 8676   1.872   0.905   7.291
  868ACTN    H3 8677   1.851   0.784   7.162
  868ACTN    H4 8678   1.869   0.706   7.558
  868ACTN    H5 8679   1.698   0.723   7.541
  868ACTN    H6 8680   1.802   0.864   7.514
  869ACTN    C1 8681   4.262   0.519   5.259
  869ACTN    O1 8682   4.248   0.755   5.296
  869ACTN    C2 8683   4.294   0.646   5.332
  869ACTN    C3 8684   4.412   0.654   5.419
  869ACTN    H1 8685   4.199   0.452   5.317
  869ACTN    H2 8686   4.355   0.468   5.236
  869ACTN    H3 8687   4.209   0.541   5.166
  869ACTN    H4 8688   4.376   0.639   5.521
  869ACTN    H5 8689   4.457   0.754   5.420
  869ACTN    H6 8690   4.489   0.581   5.396
  870ACTN    C1 8691   4.869   4.241   3.308
  870ACTN    O1 8692   4.847   4.476   3.265
  870ACTN    C2 8693   4.902   4.368   3.235
  870ACTN    C3 8694   4.964   4.364   3.103
  870ACTN    H1 8695   4.952   4.207   3.370
  870ACTN    H2 8696   4.846   4.164   3.235
  870ACTN    H3 8697   4.783   4.256   3.374
  870ACTN    H4 8698   5.071   4.380   3.119
  870ACTN    H5 8699   4.933   4.447   3.039
  870ACTN    H6 8700   4.949   4.271   3.050
  871ACTN    C1 8701   2.497   3.181   3.096
  871ACTN    O1 8702   2.621   2.983   3.042
  871ACTN    C2 8703   2.585   3.064   3.129
  871ACTN    C3 8704   2.597   3.016   3.267
  871ACTN    H1 8705   2.550   3.276   3.103
  871ACTN    H2 8706   2.414   3.182   3.165
  871ACTN    H3 8707   2.460   3.172   2.993
  871ACTN    H4 8708   2.689   3.059   3.306
  871ACTN    H5 8709   2.613   2.908   3.273
  871ACTN    H6 8710   2.514   3.044   3.330
  872ACTN    C1 8711   2.743   1.182   1.423
  872ACTN    O1 8712   2.904   1.215   1.248
  872ACTN    C2 8713   2.793   1.171   1.281
  872ACTN    C3 8714   2.699   1.148   1.171
  872ACTN    H1 8715   2.739   1.086   1.472
  872ACTN    H2 8716   2.644   1.225   1.421
  872ACTN    H3 8717   2.810   1.247   1.481
  872ACTN    H4 8718   2.703   1.041   1.150
  872ACTN    H5 8719   2.731   1.195   1.078
  872ACTN    H6 8720   2.597   1.177   1.193
  873ACTN    C1 8721   1.177   3.368   3.068
  873ACTN    O1 8722   1.191   3.130   3.038
  873ACTN    C2 8723   1.121   3.228   3.067
  873ACTN    C3 8724   0.976   3.206   3.057
  873ACTN    H1 8725   1.184   3.408   3.168
  873ACTN    H2 8726   1.112   3.431   3.008
  873ACTN    H3 8727   1.278   3.367   3.025
  873ACTN    H4 8728   0.941   3.188   3.159
  873ACTN    H5 8729   0.951   3.115   3.003
  873ACTN    H6 8730   0.922   3.289   3.014
  874ACTN    C1 8731   1.240   3.174   3.339
  874ACTN    O1 8732   1.246   2.941   3.282
  874ACTN    C2 8733   1.186   3.033   3.340
  874ACTN    C3 8734   1.045   3.008   3.368
  874ACTN    H1 8735   1.274   3.204   3.438
  874ACTN    H2 8736   1.160   3.240   3.307
  874ACTN    H3 8737   1.325   3.181   3.271
  874ACTN    H4 8738   1.040   2.978   3.473
  874ACTN    H5 8739   1.006   2.921   3.314
  874ACTN    H6 8740   0.980   3.093   3.351
  875ACTN    C1 8741   6.074   3.000   7.592
  875ACTN    O1 8742   5.848   2.921   7.612
  875ACTN    C2 8743   5.953   2.922   7.546
  875ACTN    C3 8744   5.968   2.813   7.449
  875ACTN    H1 8745   6.094   3.086   7.528
  875ACTN    H2 8746   6.160   2.933   7.590
  875ACTN    H3 8747   6.058   3.037   7.694
  875ACTN    H4 8748   5.941   2.856   7.352
  875ACTN    H5 8749   5.895   2.733   7.465
  875ACTN    H6 8750   6.067   2.771   7.444
  876ACTN    C1 8751   3.620   1.103   2.688
  876ACTN    O1 8752   3.638   0.905   2.822
  876ACTN    C2 8753   3.566   0.997   2.779
  876ACTN    C3 8754   3.422   0.970   2.785
  876ACTN    H1 8755   3.625   1.200   2.737
  876ACTN    H2 8756   3.555   1.111   2.601
  876ACTN    H3 8757   3.722   1.078   2.656
  876ACTN    H4 8758   3.386   1.023   2.874
  876ACTN    H5 8759   3.399   0.865   2.805
  876ACTN    H6 8760   3.367   1.003   2.699
  877ACTN    C1 8761   6.678   5.846   4.364
  877ACTN    O1 8762   6.500   5.937   4.231
  877ACTN    C2 8763   6.595   5.958   4.309
  877ACTN    C3 8764   6.646   6.095   4.308
  877ACTN    H1 8765   6.661   5.832   4.471
  877ACTN    H2 8766   6.782   5.869   4.347
  877ACTN    H3 8767   6.652   5.751   4.314
  877ACTN    H4 8768   6.602   6.144   4.394
  877ACTN    H5 8769   6.610   6.153   4.222
  877ACTN    H6 8770   6.754   6.102   4.313
  878ACTN    C1 8771   4.390   6.918   5.395
  878ACTN    O1 8772   4.218   7.002   5.539
  878ACTN    C2 8773   4.340   6.991   5.516
  878ACTN    C3 8774   4.426   7.088   5.585
  878ACTN    H1 8775   4.440   6.825   5.422
  878ACTN    H2 8776   4.460   6.982   5.342
  878ACTN    H3 8777   4.306   6.892   5.329
  878ACTN    H4 8778   4.467   7.036   5.671
  878ACTN    H5 8779   4.369   7.171   5.628
  878ACTN    H6 8780   4.506   7.128   5.524
  879ACTN    C1 8781   1.318   7.221   2.466
  879ACTN    O1 8782   1.356   7.457   2.488
  879ACTN    C2 8783   1.344   7.359   2.412
  879ACTN    C3 8784   1.315   7.391   2.272
  879ACTN    H1 8785   1.404   7.155   2.453
  879ACTN    H2 8786   1.233   7.179   2.412
  879ACTN    H3 8787   1.295   7.226   2.573
  879ACTN    H4 8788   1.410   7.384   2.219
  879ACTN    H5 8789   1.284   7.495   2.259
  879ACTN    H6 8790   1.243   7.326   2.226
  880ACTN    C1 8791   1.886   4.353   7.429
  880ACTN    O1 8792   1.924   4.516   7.257
  880ACTN    C2 8793   1.971   4.428   7.330
  880ACTN    C3 8794   2.099   4.372   7.285
  880ACTN    H1 8795   1.911   4.380   7.532
  880ACTN    H2 8796   1.902   4.247   7.415
  880ACTN    H3 8797   1.781   4.378   7.414
  880ACTN    H4 8798   2.176   4.422   7.344
  880ACTN    H5 8799   2.123   4.399   7.182
  880ACTN    H6 8800   2.108   4.265   7.297
  881ACTN    C1 8801   4.789   5.502   7.482
  881ACTN    O1 8802   4.561   5.552   7.425
  881ACTN    C2 8803   4.650   5.466   7.437
  881ACTN    C3 8804   4.602   5.328   7.449
  881ACTN    H1 8805   4.861   5.491   7.402
  881ACTN    H2 8806   4.816   5.437   7.565
  881ACTN    H3 8807   4.791   5.607   7.515
  881ACTN    H4 8808   4.614   5.284   7.350
  881ACTN    H5 8809   4.494   5.322   7.468
  881ACTN    H6 8810   4.655   5.269   7.522
  882ACTN    C1 8811   1.127   2.702   7.933
  882ACTN    O1 8812   1.036   2.723   7.712
  882ACTN    C2 8813   1.033   2.759   7.831
  882ACTN    C3 8814   0.965   2.887   7.855
  882ACTN    H1 8815   1.076   2.638   8.005
  882ACTN    H2 8816   1.174   2.784   7.986
  882ACTN    H3 8817   1.203   2.640   7.884
  882ACTN    H4 8818   0.865   2.862   7.890
  882ACTN    H5 8819   0.949   2.944   7.763
  882ACTN    H6 8820   1.015   2.950   7.928
  883ACTN    C1 8821   5.757   4.013   0.568
  883ACTN    O1 8822   5.740   4.236   0.654
  883ACTN    C2 8823   5.706   4.117   0.663
  883ACTN    C3 8824   5.651   4.078   0.793
  883ACTN    H1 8825   5.679   3.976   0.501
  883ACTN    H2 8826   5.797   3.930   0.626
  883ACTN    H3 8827   5.836   4.055   0.505
  883ACTN    H4 8828   5.543   4.077   0.781
  883ACTN    H5 8829   5.670   4.152   0.871
  883ACTN    H6 8830   5.684   3.981   0.828
  884ACTN    C1 8831   4.421   6.097   3.062
  884ACTN    O1 8832   4.296   5.992   3.238
  884ACTN    C2 8833   4.329   5.992   3.118
  884ACTN    C3 8834   4.308   5.866   3.048
  884ACTN    H1 8835   4.368   6.166   2.995
  884ACTN    H2 8836   4.500   6.047   3.007
  884ACTN    H3 8837   4.463   6.157   3.143
  884ACTN    H4 8838   4.215   5.876   2.992
  884ACTN    H5 8839   4.291   5.782   3.116
  884ACTN    H6 8840   4.388   5.840   2.979
  885ACTN    C1 8841   6.008   0.770   1.762
  885ACTN    O1 8842   6.055   0.544   1.698
  885ACTN    C2 8843   5.970   0.633   1.715
  885ACTN    C3 8844   5.842   0.611   1.648
  885ACTN    H1 8845   5.974   0.789   1.864
  885ACTN    H2 8846   5.964   0.843   1.695
  885ACTN    H3 8847   6.118   0.781   1.762
  885ACTN    H4 8848   5.774   0.572   1.723
  885ACTN    H5 8849   5.847   0.532   1.572
  885ACTN    H6 8850   5.799   0.700   1.603
  886ACTN    C1 8851   7.714   3.509   3.353
  886ACTN    O1 8852   7.915   3.423   3.254
  886ACTN    C2 8853   7.849   3.443   3.358
  886ACTN    C3 8854   7.889   3.363   3.473
  886ACTN    H1 8855   7.716   3.609   3.397
  886ACTN    H2 8856   7.644   3.447   3.409
  886ACTN    H3 8857   7.681   3.519   3.249
  886ACTN    H4 8858   7.951   3.428   3.535
  886ACTN    H5 8859   7.955   3.280   3.446
  886ACTN    H6 8860   7.806   3.326   3.532
  887ACTN    C1 8861   6.727   7.374   5.732
  887ACTN    O1 8862   6.632   7.153   5.727
  887ACTN    C2 8863   6.706   7.235   5.785
  887ACTN    C3 8864   6.733   7.204   5.926
  887ACTN    H1 8865   6.828   7.387   5.695
  887ACTN    H2 8866   6.708   7.444   5.812
  887ACTN    H3 8867   6.659   7.392   5.648
  887ACTN    H4 8868   6.832   7.158   5.929
  887ACTN    H5 8869   6.666   7.128   5.967
  887ACTN    H6 8870   6.731   7.291   5.991
  888ACTN    C1 8871   1.210   2.773   7.202
  888ACTN    O1 8872   1.229   2.540   7.152
  888ACTN    C2 8873   1.162   2.644   7.144
  888ACTN    C3 8874   1.059   2.643   7.039
  888ACTN    H1 8875   1.150   2.804   7.288
  888ACTN    H2 8876   1.203   2.850   7.126
  888ACTN    H3 8877   1.313   2.763   7.236
  888ACTN    H4 8878   0.965   2.621   7.089
  888ACTN    H5 8879   1.073   2.561   6.968
  888ACTN    H6 8880   1.051   2.736   6.984
  889ACTN    C1 8881   6.458   7.227   1.994
  889ACTN    O1 8882   6.312   7.103   2.138
  889ACTN    C2 8883   6.341   7.212   2.088
  889ACTN    C3 8884   6.234   7.312   2.089
  889ACTN    H1 8885   6.539   7.284   2.039
  889ACTN    H2 8886   6.424   7.277   1.905
  889ACTN    H3 8887   6.498   7.128   1.969
  889ACTN    H4 8888   6.255   7.378   2.173
  889ACTN    H5 8889   6.137   7.269   2.112
  889ACTN    H6 8890   6.227   7.370   1.998
  890ACTN    C1 8891   1.854   4.525   3.953
  890ACTN    O1 8892   1.955   4.741   3.925
  890ACTN    C2 8893   1.968   4.617   3.918
  890ACTN    C3 8894   2.079   4.571   3.836
  890ACTN    H1 8895   1.873   4.471   4.046
  890ACTN    H2 8896   1.842   4.454   3.872
  890ACTN    H3 8897   1.762   4.582   3.968
  890ACTN    H4 8898   2.160   4.546   3.906
  890ACTN    H5 8899   2.121   4.649   3.773
  890ACTN    H6 8900   2.056   4.484   3.775
  891ACTN    C1 8901   7.358   1.821   3.942
  891ACTN    O1 8902   7.441   1.956   4.122
  891ACTN    C2 8903   7.355   1.940   4.034
  891ACTN    C3 8904   7.231   2.016   4.053
  891ACTN    H1 8905   7.383   1.849   3.840
  891ACTN    H2 8906   7.260   1.774   3.943
  891ACTN    H3 8907   7.434   1.749   3.976
  891ACTN    H4 8908   7.239   2.103   3.988
  891ACTN    H5 8909   7.223   2.057   4.154
  891ACTN    H6 8910   7.142   1.961   4.029
  892ACTN    C1 8911   4.662   4.641   4.970
  892ACTN    O1 8912   4.894   4.691   4.933
  892ACTN    C2 8913   4.785   4.656   4.885
  892ACTN    C3 8914   4.773   4.672   4.740
  892ACTN    H1 8915   4.632   4.537   4.981
  892ACTN    H2 8916   4.581   4.696   4.924
  892ACTN    H3 8917   4.682   4.680   5.071
  892ACTN    H4 8918   4.791   4.574   4.697
  892ACTN    H5 8919   4.852   4.736   4.698
  892ACTN    H6 8920   4.677   4.709   4.707
  893ACTN    C1 8921   1.545   1.532   5.746
  893ACTN    O1 8922   1.499   1.732   5.871
  893ACTN    C2 8923   1.498   1.674   5.761
  893ACTN    C3 8924   1.412   1.735   5.659
  893ACTN    H1 8925   1.639   1.526   5.691
  893ACTN    H2 8926   1.469   1.476   5.694
  893ACTN    H3 8927   1.563   1.488   5.845
  893ACTN    H4 8928   1.477   1.794   5.595
  893ACTN    H5 8929   1.341   1.807   5.702
  893ACTN    H6 8930   1.357   1.663   5.600
  894ACTN    C1 8931   2.946   7.037   7.577
  894ACTN    O1 8932   2.899   6.814   7.499
  894ACTN    C2 8933   2.896   6.936   7.477
  894ACTN    C3 8934   2.882   6.973   7.335
  894ACTN    H1 8935   2.865   7.095   7.620
  894ACTN    H2 8936   3.015   7.104   7.527
  894ACTN    H3 8937   2.997   6.985   7.659
  894ACTN    H4 8938   2.776   6.997   7.321
  894ACTN    H5 8939   2.901   6.889   7.268
  894ACTN    H6 8940   2.942   7.057   7.305
  895ACTN    C1 8941   6.973   3.183   0.336
  895ACTN    O1 8942   6.884   3.384   0.431
  895ACTN    C2 8943   6.957   3.284   0.445
  895ACTN    C3 8944   7.055   3.294   0.554
  895ACTN    H1 8945   6.926   3.088   0.360
  895ACTN    H2 8946   7.080   3.167   0.320
  895ACTN    H3 8947   6.927   3.220   0.243
  895ACTN    H4 8948   7.012   3.239   0.638
  895ACTN    H5 8949   7.067   3.396   0.590
  895ACTN    H6 8950   7.152   3.253   0.529
  896ACTN    C1 8951   5.773   4.137   0.169
  896ACTN    O1 8952   5.830   3.914   0.099
  896ACTN    C2 8953   5.866   4.032   0.114
  896ACTN    C3 8954   6.011   4.053   0.117
  896ACTN    H1 8955   5.744   4.210   0.094
  896ACTN    H2 8956   5.823   4.188   0.251
  896ACTN    H3 8957   5.681   4.089   0.206
  896ACTN    H4 8958   6.039   4.088   0.018
  896ACTN    H5 8959   6.067   3.960   0.130
  896ACTN    H6 8960   6.044   4.125   0.192
  897ACTN    C1 8961   2.875   0.891   3.942
  897ACTN    O1 8962   2.664   0.840   3.840
  897ACTN    C2 8963   2.735   0.924   3.897
  897ACTN    C3 8964   2.693   1.064   3.881
  897ACTN    H1 8965   2.883   0.886   4.050
  897ACTN    H2 8966   2.942   0.968   3.905
  897ACTN    H3 8967   2.905   0.793   3.902
  897ACTN    H4 8968   2.639   1.090   3.971
  897ACTN    H5 8969   2.620   1.076   3.800
  897ACTN    H6 8970   2.775   1.133   3.866
  898ACTN    C1 8971   3.946   0.930   5.135
  898ACTN    O1 8972   3.866   0.800   4.950
  898ACTN    C2 8973   3.872   0.911   5.006
  898ACTN    C3 8974   3.842   1.026   4.920
  898ACTN    H1 8975   3.878   0.950   5.218
  898ACTN    H2 8976   4.014   1.014   5.124
  898ACTN    H3 8977   4.003   0.839   5.159
  898ACTN    H4 8978   3.739   1.053   4.941
  898ACTN    H5 8979   3.843   1.000   4.813
  898ACTN    H6 8980   3.906   1.111   4.936
  899ACTN    C1 8981   7.577   5.310   4.447
  899ACTN    O1 8982   7.462   5.520   4.462
  899ACTN    C2 8983   7.568   5.459   4.438
  899ACTN    C3 8984   7.667   5.536   4.360
  899ACTN    H1 8985   7.639   5.278   4.531
  899ACTN    H2 8986   7.621   5.273   4.355
  899ACTN    H3 8987   7.477   5.267   4.461
  899ACTN    H4 8988   7.739   5.574   4.432
  899ACTN    H5 8989   7.624   5.625   4.314
  899ACTN    H6 8990   7.718   5.478   4.285
  900ACTN    C1 8991   6.001   0.741   3.328
  900ACTN    O1 8992   5.767   0.770   3.369
  900ACTN    C2 8993   5.859   0.761   3.286
  900ACTN    C3 8994   5.817   0.729   3.149
  900ACTN    H1 8995   6.063   0.829   3.310
  900ACTN    H2 8996   6.042   0.657   3.273
  900ACTN    H3 8997   6.006   0.720   3.436
  900ACTN    H4 8998   5.816   0.823   3.094
  900ACTN    H5 8999   5.713   0.693   3.145
  900ACTN    H6 9000   5.881   0.658   3.099
  901ACTN    C1 9001   7.869   0.594   7.328
  901ACTN    O1 9002   7.686   0.457   7.256
  901ACTN    C2 9003   7.757   0.556   7.235
  901ACTN    C3 9004   7.755   0.606   7.097
  901ACTN    H1 9005   7.847   0.685   7.383
  901ACTN    H2 9006   7.959   0.607   7.270
  901ACTN    H3 9007   7.884   0.514   7.402
  901ACTN    H4 9008   7.688   0.691   7.097
  901ACTN    H5 9009   7.711   0.535   7.027
  901ACTN    H6 9010   7.852   0.637   7.060
  902ACTN    C1 9011   5.148   2.039   4.936
  902ACTN    O1 9012   5.359   2.058   4.823
  902ACTN    C2 9013   5.284   1.990   4.896
  902ACTN    C3 9014   5.317   1.847   4.902
  902ACTN    H1 9015   5.144   2.062   5.042
  902ACTN    H2 9016   5.076   1.961   4.914
  902ACTN    H3 9017   5.123   2.130   4.881
  902ACTN    H4 9018   5.372   1.833   4.995
  902ACTN    H5 9019   5.387   1.816   4.823
  902ACTN    H6 9020   5.231   1.782   4.900
  903ACTN    C1 9021   5.368   2.034   7.003
  903ACTN    O1 9022   5.236   1.843   6.942
  903ACTN    C2 9023   5.241   1.954   6.998
  903ACTN    C3 9024   5.111   2.019   7.017
  903ACTN    H1 9025   5.408   2.039   7.104
  903ACTN    H2 9026   5.347   2.134   6.967
  903ACTN    H3 9027   5.445   1.987   6.940
  903ACTN    H4 9028   5.083   2.001   7.121
  903ACTN    H5 9029   5.031   1.972   6.959
  903ACTN    H6 9030   5.112   2.125   6.997
  904ACTN    C1 9031   3.003   6.615   3.931
  904ACTN    O1 9032   2.819   6.500   4.035
  904ACTN    C2 9033   2.931   6.492   3.981
  904ACTN    C3 9034   3.005   6.369   4.009
  904ACTN    H1 9035   3.008   6.617   3.823
  904ACTN    H2 9036   3.103   6.614   3.972
  904ACTN    H3 9037   2.950   6.705   3.964
  904ACTN    H4 9038   2.991   6.305   3.921
  904ACTN    H5 9039   2.962   6.312   4.092
  904ACTN    H6 9040   3.110   6.383   4.026
  905ACTN    C1 9041   7.474   7.729   1.460
  905ACTN    O1 9042   7.594   7.929   1.517
  905ACTN    C2 9043   7.510   7.844   1.550
  905ACTN    C3 9044   7.481   7.837   1.694
  905ACTN    H1 9045   7.373   7.739   1.420
  905ACTN    H2 9046   7.481   7.637   1.517
  905ACTN    H3 9047   7.543   7.726   1.375
  905ACTN    H4 9048   7.389   7.893   1.709
  905ACTN    H5 9049   7.556   7.890   1.754
  905ACTN    H6 9050   7.470   7.737   1.732
  906ACTN    C1 9051   5.578   5.097   5.307
  906ACTN    O1 9052   5.682   5.313   5.291
  906ACTN    C2 9053   5.605   5.238   5.353
  906ACTN    C3 9054   5.577   5.278   5.491
  906ACTN    H1 9055   5.477   5.085   5.269
  906ACTN    H2 9056   5.593   5.031   5.391
  906ACTN    H3 9057   5.647   5.071   5.226
  906ACTN    H4 9058   5.480   5.328   5.489
  906ACTN    H5 9059   5.647   5.354   5.528
  906ACTN    H6 9060   5.574   5.195   5.561
  907ACTN    C1 9061   1.757   7.609   1.045
  907ACTN    O1 9062   1.568   7.729   0.959
  907ACTN    C2 9063   1.684   7.688   0.940
  907ACTN    C3 9064   1.726   7.682   0.800
  907ACTN    H1 9065   1.840   7.666   1.088
  907ACTN    H2 9066   1.796   7.519   0.999
  907ACTN    H3 9067   1.689   7.583   1.127
  907ACTN    H4 9068   1.786   7.771   0.783
  907ACTN    H5 9069   1.642   7.691   0.730
  907ACTN    H6 9070   1.784   7.594   0.775
  908ACTN    C1 9071   0.481   0.430   2.608
  908ACTN    O1 9072   0.405   0.615   2.475
  908ACTN    C2 9073   0.384   0.539   2.572
  908ACTN    C3 9074   0.288   0.589   2.670
  908ACTN    H1 9075   0.440   0.331   2.588
  908ACTN    H2 9076   0.504   0.439   2.714
  908ACTN    H3 9077   0.573   0.440   2.549
  908ACTN    H4 9078   0.194   0.538   2.649
  908ACTN    H5 9079   0.266   0.695   2.658
  908ACTN    H6 9080   0.316   0.570   2.773
  909ACTN    C1 9081   7.419   3.415   1.974
  909ACTN    O1 9082   7.309   3.535   1.797
  909ACTN    C2 9083   7.400   3.457   1.831
  909ACTN    C3 9084   7.457   3.377   1.722
  909ACTN    H1 9085   7.509   3.457   2.017
  909ACTN    H2 9086   7.424   3.307   1.977
  909ACTN    H3 9087   7.334   3.450   2.034
  909ACTN    H4 9088   7.549   3.426   1.693
  909ACTN    H5 9089   7.395   3.379   1.631
  909ACTN    H6 9090   7.477   3.274   1.748
  910ACTN    C1 9091   5.553   0.221   0.371
  910ACTN    O1 9092   5.593   0.186   0.137
  910ACTN    C2 9093   5.630   0.166   0.254
  910ACTN    C3 9094   5.723   0.054   0.272
  910ACTN    H1 9095   5.608   0.301   0.421
  910ACTN    H2 9096   5.535   0.141   0.441
  910ACTN    H3 9097   5.458   0.264   0.337
  910ACTN    H4 9098   5.822   0.098   0.279
  910ACTN    H5 9099   5.728  -0.011   0.184
  910ACTN    H6 9100   5.704  -0.005   0.360
  911ACTN    C1 9101   5.836   7.323   2.071
  911ACTN    O1 9102   5.746   7.334   1.848
  911ACTN    C2 9103   5.725   7.319   1.970
  911ACTN    C3 9104   5.586   7.340   2.011
  911ACTN    H1 9105   5.855   7.225   2.114
  911ACTN    H2 9106   5.808   7.392   2.149
  911ACTN    H3 9107   5.929   7.356   2.022
  911ACTN    H4 9108   5.542   7.241   2.021
  911ACTN    H5 9109   5.526   7.390   1.934
  911ACTN    H6 9110   5.575   7.393   2.105
  912ACTN    C1 9111   0.861   6.980   5.320
  912ACTN    O1 9112   0.720   7.167   5.269
  912ACTN    C2 9113   0.790   7.074   5.227
  912ACTN    C3 9114   0.764   7.035   5.088
  912ACTN    H1 9115   0.969   6.993   5.316
  912ACTN    H2 9116   0.837   6.878   5.291
  912ACTN    H3 9117   0.829   6.998   5.423
  912ACTN    H4 9118   0.842   7.082   5.028
  912ACTN    H5 9119   0.670   7.077   5.049
  912ACTN    H6 9120   0.764   6.928   5.071
  913ACTN    C1 9121   4.815   7.530   1.864
  913ACTN    O1 9122   4.708   7.356   1.990
  913ACTN    C2 9123   4.803   7.390   1.917
  913ACTN    C3 9124   4.920   7.302   1.923
  913ACTN    H1 9125   4.799   7.534   1.757
  913ACTN    H2 9126   4.915   7.566   1.886
  913ACTN    H3 9127   4.741   7.595   1.911
  913ACTN    H4 9128   4.914   7.238   1.835
  913ACTN    H5 9129   4.917   7.233   2.008
  913ACTN    H6 9130   5.015   7.354   1.923
  914ACTN    C1 9131   2.894   4.821   0.177
  914ACTN    O1 9132   2.740   4.913   0.018
  914ACTN    C2 9133   2.778   4.814   0.082
  914ACTN    C3 9134   2.679   4.706   0.093
  914ACTN    H1 9135   2.980   4.765   0.141
  914ACTN    H2 9136   2.863   4.779   0.272
  914ACTN    H3 9137   2.925   4.925   0.191
  914ACTN    H4 9138   2.707   4.632   0.018
  914ACTN    H5 9139   2.579   4.738   0.064
  914ACTN    H6 9140   2.675   4.659   0.190
  915ACTN    C1 9141   7.565   0.082   4.094
  915ACTN    O1 9142   7.740   0.247   4.098
  915ACTN    C2 9143   7.626   0.213   4.136
  915ACTN    C3 9144   7.576   0.285   4.253
  915ACTN    H1 9145   7.482   0.096   4.026
  915ACTN    H2 9146   7.530   0.031   4.183
  915ACTN    H3 9147   7.640   0.021   4.043
  915ACTN    H4 9148   7.509   0.362   4.215
  915ACTN    H5 9149   7.654   0.340   4.306
  915ACTN    H6 9150   7.524   0.222   4.324
  916ACTN    C1 9151   5.517   4.880   1.284
  916ACTN    O1 9152   5.392   4.698   1.189
  916ACTN    C2 9153   5.438   4.813   1.175
  916ACTN    C3 9154   5.448   4.859   1.036
  916ACTN    H1 9155   5.462   4.963   1.328
  916ACTN    H2 9156   5.609   4.917   1.241
  916ACTN    H3 9157   5.538   4.809   1.364
  916ACTN    H4 9158   5.361   4.922   1.019
  916ACTN    H5 9159   5.437   4.777   0.964
  916ACTN    H6 9160   5.538   4.914   1.014
  917ACTN    C1 9161   2.290   2.229   7.956
  917ACTN    O1 9162   2.491   2.285   7.838
  917ACTN    C2 9163   2.370   2.306   7.855
  917ACTN    C3 9164   2.322   2.436   7.805
  917ACTN    H1 9165   2.218   2.162   7.908
  917ACTN    H2 9166   2.236   2.299   8.018
  917ACTN    H3 9167   2.356   2.168   8.017
  917ACTN    H4 9168   2.275   2.415   7.709
  917ACTN    H5 9169   2.403   2.505   7.782
  917ACTN    H6 9170   2.251   2.484   7.870
  918ACTN    C1 9171   6.178   1.395   2.193
  918ACTN    O1 9172   6.239   1.186   2.294
  918ACTN    C2 9173   6.265   1.274   2.209
  918ACTN    C3 9174   6.403   1.273   2.160
  918ACTN    H1 9175   6.124   1.394   2.098
  918ACTN    H2 9176   6.242   1.483   2.196
  918ACTN    H3 9177   6.104   1.400   2.273
  918ACTN    H4 9178   6.401   1.223   2.064
  918ACTN    H5 9179   6.470   1.213   2.222
  918ACTN    H6 9180   6.446   1.372   2.148
  919ACTN    C1 9181   4.610   1.316   5.095
  919ACTN    O1 9182   4.389   1.226   5.066
  919ACTN    C2 9183   4.486   1.286   5.016
  919ACTN    C3 9184   4.490   1.285   4.869
  919ACTN    H1 9185   4.621   1.422   5.115
  919ACTN    H2 9186   4.696   1.281   5.039
  919ACTN    H3 9187   4.606   1.265   5.192
  919ACTN    H4 9188   4.451   1.382   4.838
  919ACTN    H5 9189   4.420   1.213   4.826
  919ACTN    H6 9190   4.588   1.270   4.828
  920ACTN    C1 9191   2.761   4.230   1.357
  920ACTN    O1 9192   2.634   4.157   1.547
  920ACTN    C2 9193   2.635   4.216   1.437
  920ACTN    C3 9194   2.504   4.230   1.373
  920ACTN    H1 9195   2.796   4.333   1.354
  920ACTN    H2 9196   2.741   4.196   1.256
  920ACTN    H3 9197   2.841   4.169   1.401
  920ACTN    H4 9198   2.471   4.332   1.394
  920ACTN    H5 9199   2.428   4.167   1.419
  920ACTN    H6 9200   2.505   4.214   1.266
  921ACTN    C1 9201   1.436   1.418   0.333
  921ACTN    O1 9202   1.463   1.452   0.097
  921ACTN    C2 9203   1.448   1.503   0.210
  921ACTN    C3 9204   1.488   1.643   0.220
  921ACTN    H1 9205   1.336   1.422   0.375
  921ACTN    H2 9206   1.507   1.453   0.407
  921ACTN    H3 9207   1.457   1.313   0.308
  921ACTN    H4 9208   1.396   1.701   0.215
  921ACTN    H5 9209   1.547   1.677   0.134
  921ACTN    H6 9210   1.541   1.668   0.311
  922ACTN    C1 9211   4.846   1.446   0.335
  922ACTN    O1 9212   4.808   1.627   0.488
  922ACTN    C2 9213   4.769   1.518   0.442
  922ACTN    C3 9214   4.672   1.447   0.525
  922ACTN    H1 9215   4.794   1.446   0.240
  922ACTN    H2 9216   4.861   1.343   0.368
  922ACTN    H3 9217   4.943   1.494   0.320
  922ACTN    H4 9218   4.574   1.467   0.482
  922ACTN    H5 9219   4.666   1.487   0.627
  922ACTN    H6 9220   4.688   1.340   0.530
  923ACTN    C1 9221   5.675   0.676   4.444
  923ACTN    O1 9222   5.484   0.792   4.530
  923ACTN    C2 9223   5.547   0.753   4.431
  923ACTN    C3 9224   5.470   0.748   4.306
  923ACTN    H1 9225   5.762   0.734   4.412
  923ACTN    H2 9226   5.668   0.587   4.384
  923ACTN    H3 9227   5.692   0.649   4.549
  923ACTN    H4 9228   5.496   0.839   4.251
  923ACTN    H5 9229   5.362   0.756   4.323
  923ACTN    H6 9230   5.490   0.661   4.245
  924ACTN    C1 9231   3.577   6.509   0.533
  924ACTN    O1 9232   3.382   6.371   0.529
  924ACTN    C2 9233   3.435   6.479   0.498
  924ACTN    C3 9234   3.367   6.552   0.391
  924ACTN    H1 9235   3.585   6.587   0.609
  924ACTN    H2 9236   3.629   6.542   0.443
  924ACTN    H3 9237   3.626   6.420   0.573
  924ACTN    H4 9238   3.307   6.629   0.439
  924ACTN    H5 9239   3.294   6.491   0.337
  924ACTN    H6 9240   3.434   6.598   0.319
  925ACTN    C1 9241   3.119   4.465   3.807
  925ACTN    O1 9242   3.172   4.664   3.930
  925ACTN    C2 9243   3.100   4.609   3.845
  925ACTN    C3 9244   2.973   4.677   3.817
  925ACTN    H1 9245   3.157   4.454   3.706
  925ACTN    H2 9246   3.023   4.415   3.814
  925ACTN    H3 9247   3.190   4.418   3.875
  925ACTN    H4 9248   2.988   4.734   3.725
  925ACTN    H5 9249   2.949   4.753   3.892
  925ACTN    H6 9250   2.889   4.611   3.805
  926ACTN    C1 9251   1.560   2.969   2.277
  926ACTN    O1 9252   1.487   2.940   2.050
  926ACTN    C2 9253   1.580   2.968   2.128
  926ACTN    C3 9254   1.715   2.957   2.070
  926ACTN    H1 9255   1.564   3.069   2.318
  926ACTN    H2 9256   1.639   2.909   2.322
  926ACTN    H3 9257   1.462   2.927   2.302
  926ACTN    H4 9258   1.745   3.059   2.044
  926ACTN    H5 9259   1.715   2.903   1.975
  926ACTN    H6 9260   1.787   2.914   2.137
  927ACTN    C1 9261   1.784   3.228   0.312
  927ACTN    O1 9262   1.978   3.352   0.242
  927ACTN    C2 9263   1.930   3.265   0.317
  927ACTN    C3 9264   2.028   3.174   0.377
  927ACTN    H1 9265   1.731   3.261   0.401
  927ACTN    H2 9266   1.777   3.120   0.304
  927ACTN    H3 9267   1.736   3.276   0.226
  927ACTN    H4 9268   2.045   3.211   0.479
  927ACTN    H5 9269   2.126   3.180   0.329
  927ACTN    H6 9270   1.996   3.071   0.381
  928ACTN    C1 9271   6.428   1.518   3.010
  928ACTN    O1 9272   6.414   1.494   3.248
  928ACTN    C2 9273   6.479   1.472   3.144
  928ACTN    C3 9274   6.620   1.441   3.164
  928ACTN    H1 9275   6.399   1.434   2.947
  928ACTN    H2 9276   6.508   1.573   2.961
  928ACTN    H3 9277   6.341   1.583   3.023
  928ACTN    H4 9278   6.629   1.333   3.157
  928ACTN    H5 9279   6.655   1.465   3.265
  928ACTN    H6 9280   6.686   1.488   3.092
  929ACTN    C1 9281   7.100   2.614   5.576
  929ACTN    O1 9282   6.993   2.788   5.701
  929ACTN    C2 9283   7.048   2.676   5.702
  929ACTN    C3 9284   7.096   2.632   5.833
  929ACTN    H1 9285   7.041   2.527   5.546
  929ACTN    H2 9286   7.203   2.582   5.593
  929ACTN    H3 9287   7.097   2.686   5.493
  929ACTN    H4 9288   7.021   2.563   5.871
  929ACTN    H5 9289   7.099   2.713   5.906
  929ACTN    H6 9290   7.192   2.582   5.830
  930ACTN    C1 9291   5.902   5.730   2.280
  930ACTN    O1 9292   5.895   5.498   2.221
  930ACTN    C2 9293   5.832   5.601   2.249
  930ACTN    C3 9294   5.691   5.601   2.207
  930ACTN    H1 9295   5.891   5.758   2.385
  930ACTN    H2 9296   5.859   5.808   2.219
  930ACTN    H3 9297   6.009   5.721   2.259
  930ACTN    H4 9298   5.633   5.576   2.297
  930ACTN    H5 9299   5.668   5.520   2.137
  930ACTN    H6 9300   5.657   5.695   2.166
  931ACTN    C1 9301   7.189   6.905   1.591
  931ACTN    O1 9302   7.391   6.886   1.462
  931ACTN    C2 9303   7.279   6.939   1.475
  931ACTN    C3 9304   7.259   7.063   1.399
  931ACTN    H1 9305   7.102   6.849   1.559
  931ACTN    H2 9306   7.157   6.998   1.637
  931ACTN    H3 9307   7.244   6.844   1.663
  931ACTN    H4 9308   7.203   7.035   1.310
  931ACTN    H5 9309   7.353   7.104   1.361
  931ACTN    H6 9310   7.206   7.140   1.453
  932ACTN    C1 9311   4.173   3.323   7.580
  932ACTN    O1 9312   4.324   3.322   7.766
  932ACTN    C2 9313   4.267   3.257   7.676
  932ACTN    C3 9314   4.329   3.128   7.644
  932ACTN    H1 9315   4.070   3.292   7.596
  932ACTN    H2 9316   4.203   3.296   7.479
  932ACTN    H3 9317   4.177   3.432   7.592
  932ACTN    H4 9318   4.270   3.053   7.696
  932ACTN    H5 9319   4.430   3.118   7.686
  932ACTN    H6 9320   4.332   3.106   7.538
  933ACTN    C1 9321   5.780   3.468   0.280
  933ACTN    O1 9322   5.578   3.355   0.344
  933ACTN    C2 9323   5.655   3.451   0.362
  933ACTN    C3 9324   5.596   3.565   0.433
  933ACTN    H1 9325   5.870   3.452   0.339
  933ACTN    H2 9326   5.781   3.569   0.240
  933ACTN    H3 9327   5.781   3.395   0.198
  933ACTN    H4 9328   5.629   3.557   0.536
  933ACTN    H5 9329   5.487   3.559   0.438
  933ACTN    H6 9330   5.624   3.661   0.393
  934ACTN    C1 9331   5.722   7.617   6.699
  934ACTN    O1 9332   5.682   7.851   6.734
  934ACTN    C2 9333   5.756   7.763   6.687
  934ACTN    C3 9334   5.851   7.809   6.586
  934ACTN    H1 9335   5.790   7.565   6.767
  934ACTN    H2 9336   5.729   7.572   6.601
  934ACTN    H3 9337   5.621   7.605   6.739
  934ACTN    H4 9338   5.946   7.821   6.636
  934ACTN    H5 9339   5.827   7.909   6.548
  934ACTN    H6 9340   5.862   7.742   6.502
  935ACTN    C1 9341   6.888   4.291   1.508
  935ACTN    O1 9342   6.700   4.148   1.549
  935ACTN    C2 9343   6.755   4.257   1.569
  935ACTN    C3 9344   6.667   4.364   1.618
  935ACTN    H1 9345   6.967   4.295   1.582
  935ACTN    H2 9346   6.880   4.387   1.458
  935ACTN    H3 9347   6.916   4.214   1.435
  935ACTN    H4 9348   6.682   4.369   1.725
  935ACTN    H5 9349   6.561   4.339   1.606
  935ACTN    H6 9350   6.686   4.460   1.573
  936ACTN    C1 9351   4.010   5.056   7.532
  936ACTN    O1 9352   4.228   5.005   7.618
  936ACTN    C2 9353   4.104   4.995   7.631
  936ACTN    C3 9354   4.060   4.887   7.720
  936ACTN    H1 9355   3.956   5.140   7.574
  936ACTN    H2 9356   3.939   4.980   7.500
  936ACTN    H3 9357   4.065   5.093   7.444
  936ACTN    H4 9358   4.037   4.935   7.815
  936ACTN    H5 9359   4.139   4.816   7.743
  936ACTN    H6 9360   3.973   4.834   7.684
  937ACTN    C1 9361   0.272   7.097   7.143
  937ACTN    O1 9362   0.194   6.885   7.061
  937ACTN    C2 9363   0.272   6.946   7.137
  937ACTN    C3 9364   0.328   6.867   7.246
  937ACTN    H1 9365   0.362   7.139   7.100
  937ACTN    H2 9366   0.264   7.126   7.247
  937ACTN    H3 9367   0.187   7.137   7.087
  937ACTN    H4 9368   0.429   6.839   7.214
  937ACTN    H5 9369   0.277   6.772   7.260
  937ACTN    H6 9370   0.334   6.920   7.340
  938ACTN    C1 9371   5.411   6.171   0.412
  938ACTN    O1 9372   5.615   6.126   0.294
  938ACTN    C2 9373   5.560   6.151   0.402
  938ACTN    C3 9374   5.638   6.118   0.521
  938ACTN    H1 9375   5.386   6.275   0.433
  938ACTN    H2 9376   5.373   6.107   0.491
  938ACTN    H3 9377   5.364   6.145   0.316
  938ACTN    H4 9378   5.683   6.211   0.556
  938ACTN    H5 9379   5.724   6.053   0.499
  938ACTN    H6 9380   5.581   6.073   0.601
  939ACTN    C1 9381   5.969   4.321   5.102
  939ACTN    O1 9382   5.971   4.094   5.180
  939ACTN    C2 9383   5.923   4.178   5.102
  939ACTN    C3 9384   5.856   4.122   4.984
  939ACTN    H1 9385   5.891   4.388   5.139
  939ACTN    H2 9386   5.995   4.349   5.001
  939ACTN    H3 9387   6.056   4.332   5.168
  939ACTN    H4 9388   5.749   4.125   5.006
  939ACTN    H5 9389   5.878   4.016   4.969
  939ACTN    H6 9390   5.876   4.175   4.892
  940ACTN    C1 9391   4.803   4.014   4.874
  940ACTN    O1 9392   4.722   4.240   4.872
  940ACTN    C2 9393   4.785   4.151   4.933
  940ACTN    C3 9394   4.873   4.199   5.040
  940ACTN    H1 9395   4.746   3.939   4.928
  940ACTN    H2 9396   4.909   3.989   4.878
  940ACTN    H3 9397   4.769   4.013   4.770
  940ACTN    H4 9398   4.819   4.183   5.133
  940ACTN    H5 9399   4.890   4.307   5.035
  940ACTN    H6 9400   4.968   4.148   5.044
  941ACTN    C1 9401   6.906   3.807   2.500
  941ACTN    O1 9402   6.988   3.749   2.719
  941ACTN    C2 9403   6.899   3.736   2.632
  941ACTN    C3 9404   6.814   3.618   2.649
  941ACTN    H1 9405   6.831   3.885   2.491
  941ACTN    H2 9406   6.892   3.733   2.421
  941ACTN    H3 9407   7.004   3.854   2.489
  941ACTN    H4 9408   6.722   3.653   2.696
  941ACTN    H5 9409   6.855   3.546   2.720
  941ACTN    H6 9410   6.790   3.567   2.557
  942ACTN    C1 9411   3.800   2.325   7.210
  942ACTN    O1 9412   3.750   2.093   7.247
  942ACTN    C2 9413   3.708   2.209   7.239
  942ACTN    C3 9414   3.564   2.222   7.218
  942ACTN    H1 9415   3.813   2.390   7.296
  942ACTN    H2 9416   3.758   2.382   7.128
  942ACTN    H3 9417   3.899   2.287   7.182
  942ACTN    H4 9418   3.520   2.244   7.315
  942ACTN    H5 9419   3.517   2.128   7.187
  942ACTN    H6 9420   3.536   2.299   7.147
  943ACTN    C1 9421   2.526   2.057   0.294
  943ACTN    O1 9422   2.313   2.165   0.319
  943ACTN    C2 9423   2.431   2.172   0.279
  943ACTN    C3 9424   2.457   2.278   0.182
  943ACTN    H1 9425   2.604   2.077   0.367
  943ACTN    H2 9426   2.572   2.037   0.198
  943ACTN    H3 9427   2.472   1.967   0.328
  943ACTN    H4 9428   2.502   2.360   0.238
  943ACTN    H5 9429   2.366   2.320   0.140
  943ACTN    H6 9430   2.523   2.249   0.101
  944ACTN    C1 9431   2.190   1.840   7.313
  944ACTN    O1 9432   2.420   1.877   7.369
  944ACTN    C2 9433   2.304   1.920   7.369
  944ACTN    C3 9434   2.278   2.031   7.462
  944ACTN    H1 9435   2.151   1.883   7.221
  944ACTN    H2 9436   2.111   1.837   7.387
  944ACTN    H3 9437   2.224   1.738   7.290
  944ACTN    H4 9438   2.281   2.122   7.403
  944ACTN    H5 9439   2.358   2.043   7.535
  944ACTN    H6 9440   2.183   2.024   7.514
  945ACTN    C1 9441   1.202   7.491   1.221
  945ACTN    O1 9442   1.315   7.702   1.204
  945ACTN    C2 9443   1.312   7.588   1.253
  945ACTN    C3 9444   1.440   7.540   1.305
  945ACTN    H1 9445   1.137   7.473   1.307
  945ACTN    H2 9446   1.246   7.397   1.190
  945ACTN    H3 9447   1.139   7.531   1.140
  945ACTN    H4 9448   1.436   7.555   1.413
  945ACTN    H5 9449   1.525   7.601   1.272
  945ACTN    H6 9450   1.461   7.436   1.284
  946ACTN    C1 9451   6.323   2.714   2.937
  946ACTN    O1 9452   6.139   2.794   2.805
  946ACTN    C2 9453   6.244   2.821   2.866
  946ACTN    C3 9454   6.306   2.948   2.830
  946ACTN    H1 9455   6.318   2.725   3.045
  946ACTN    H2 9456   6.426   2.722   2.905
  946ACTN    H3 9457   6.283   2.615   2.912
  946ACTN    H4 9458   6.277   3.019   2.908
  946ACTN    H5 9459   6.266   2.990   2.738
  946ACTN    H6 9460   6.414   2.944   2.823
  947ACTN    C1 9461   2.095   6.557   2.438
  947ACTN    O1 9462   2.269   6.421   2.532
  947ACTN    C2 9463   2.227   6.536   2.506
  947ACTN    C3 9464   2.289   6.643   2.584
  947ACTN    H1 9465   2.108   6.596   2.336
  947ACTN    H2 9466   2.038   6.629   2.496
  947ACTN    H3 9467   2.040   6.463   2.430
  947ACTN    H4 9468   2.364   6.688   2.518
  947ACTN    H5 9469   2.346   6.606   2.669
  947ACTN    H6 9470   2.220   6.719   2.617
  948ACTN    C1 9471   1.952   0.714   2.577
  948ACTN    O1 9472   2.145   0.571   2.583
  948ACTN    C2 9473   2.074   0.655   2.641
  948ACTN    C3 9474   2.091   0.659   2.787
  948ACTN    H1 9475   1.966   0.819   2.552
  948ACTN    H2 9476   1.869   0.704   2.646
  948ACTN    H3 9477   1.930   0.661   2.483
  948ACTN    H4 9478   2.156   0.744   2.807
  948ACTN    H5 9479   2.144   0.572   2.826
  948ACTN    H6 9480   1.998   0.672   2.842
  949ACTN    C1 9481   6.968   4.590   5.488
  949ACTN    O1 9482   6.808   4.762   5.439
  949ACTN    C2 9483   6.927   4.732   5.460
  949ACTN    C3 9484   7.025   4.831   5.415
  949ACTN    H1 9485   7.000   4.576   5.591
  949ACTN    H2 9486   7.050   4.565   5.421
  949ACTN    H3 9487   6.884   4.522   5.470
  949ACTN    H4 9488   7.055   4.887   5.504
  949ACTN    H5 9489   6.982   4.906   5.348
  949ACTN    H6 9490   7.113   4.788   5.369
  950ACTN    C1 9491   0.762   3.689   4.052
  950ACTN    O1 9492   0.578   3.571   4.151
  950ACTN    C2 9493   0.637   3.606   4.048
  950ACTN    C3 9494   0.604   3.527   3.928
  950ACTN    H1 9495   0.746   3.790   4.014
  950ACTN    H2 9496   0.838   3.640   3.991
  950ACTN    H3 9497   0.798   3.698   4.155
  950ACTN    H4 9498   0.532   3.586   3.872
  950ACTN    H5 9499   0.551   3.435   3.952
  950ACTN    H6 9500   0.689   3.505   3.866
  951ACTN    C1 9501   2.373   2.970   4.279
  951ACTN    O1 9502   2.490   3.168   4.349
  951ACTN    C2 9503   2.465   3.048   4.370
  951ACTN    C3 9504   2.559   2.979   4.457
  951ACTN    H1 9505   2.279   2.945   4.328
  951ACTN    H2 9506   2.424   2.879   4.250
  951ACTN    H3 9507   2.349   3.029   4.190
  951ACTN    H4 9508   2.513   2.975   4.556
  951ACTN    H5 9509   2.652   3.035   4.473
  951ACTN    H6 9510   2.584   2.878   4.425
  952ACTN    C1 9511   0.192   1.541   2.041
  952ACTN    O1 9512  -0.045   1.558   2.071
  952ACTN    C2 9513   0.063   1.516   2.114
  952ACTN    C3 9514   0.063   1.480   2.256
  952ACTN    H1 9515   0.233   1.450   1.998
  952ACTN    H2 9516   0.264   1.582   2.112
  952ACTN    H3 9517   0.176   1.612   1.960
  952ACTN    H4 9518   0.053   1.371   2.260
  952ACTN    H5 9519  -0.024   1.518   2.310
  952ACTN    H6 9520   0.153   1.509   2.309
  953ACTN    C1 9521   3.026   5.274   6.944
  953ACTN    O1 9522   3.260   5.317   6.980
  953ACTN    C2 9523   3.158   5.339   6.912
  953ACTN    C3 9524   3.163   5.461   6.831
  953ACTN    H1 9525   2.998   5.201   6.868
  953ACTN    H2 9526   2.950   5.351   6.949
  953ACTN    H3 9527   3.033   5.221   7.040
  953ACTN    H4 9528   3.188   5.429   6.730
  953ACTN    H5 9529   3.245   5.527   6.859
  953ACTN    H6 9530   3.070   5.517   6.829
  954ACTN    C1 9531   3.297   7.338   3.508
  954ACTN    O1 9532   3.352   7.567   3.458
  954ACTN    C2 9533   3.314   7.456   3.416
  954ACTN    C3 9534   3.248   7.458   3.285
  954ACTN    H1 9535   3.372   7.262   3.491
  954ACTN    H2 9536   3.199   7.296   3.492
  954ACTN    H3 9537   3.307   7.371   3.613
  954ACTN    H4 9538   3.323   7.428   3.213
  954ACTN    H5 9539   3.219   7.559   3.255
  954ACTN    H6 9540   3.162   7.393   3.278
  955ACTN    C1 9541   4.303   5.427   5.234
  955ACTN    O1 9542   4.165   5.332   5.063
  955ACTN    C2 9543   4.224   5.432   5.107
  955ACTN    C3 9544   4.247   5.539   5.009
  955ACTN    H1 9545   4.256   5.484   5.314
  955ACTN    H2 9546   4.402   5.469   5.215
  955ACTN    H3 9547   4.313   5.323   5.269
  955ACTN    H4 9548   4.169   5.613   5.026
  955ACTN    H5 9549   4.231   5.505   4.906
  955ACTN    H6 9550   4.344   5.585   5.017
  956ACTN    C1 9551   5.556   6.966   2.495
  956ACTN    O1 9552   5.390   7.138   2.513
  956ACTN    C2 9553   5.461   7.054   2.571
  956ACTN    C3 9554   5.479   7.077   2.715
  956ACTN    H1 9555   5.524   6.862   2.495
  956ACTN    H2 9556   5.654   6.973   2.542
  956ACTN    H3 9557   5.562   6.998   2.390
  956ACTN    H4 9558   5.410   7.010   2.765
  956ACTN    H5 9559   5.448   7.177   2.746
  956ACTN    H6 9560   5.580   7.058   2.750
  957ACTN    C1 9561   5.815   5.482   4.853
  957ACTN    O1 9562   5.736   5.636   4.687
  957ACTN    C2 9563   5.709   5.563   4.783
  957ACTN    C3 9564   5.583   5.593   4.851
  957ACTN    H1 9565   5.803   5.375   4.835
  957ACTN    H2 9566   5.809   5.501   4.959
  957ACTN    H3 9567   5.915   5.510   4.815
  957ACTN    H4 9568   5.511   5.520   4.813
  957ACTN    H5 9569   5.542   5.690   4.822
  957ACTN    H6 9570   5.588   5.587   4.959
  958ACTN    C1 9571   3.648   2.604   1.709
  958ACTN    O1 9572   3.672   2.478   1.912
  958ACTN    C2 9573   3.595   2.525   1.825
  958ACTN    C3 9574   3.462   2.464   1.820
  958ACTN    H1 9575   3.621   2.710   1.716
  958ACTN    H2 9576   3.606   2.563   1.618
  958ACTN    H3 9577   3.758   2.599   1.706
  958ACTN    H4 9578   3.396   2.532   1.873
  958ACTN    H5 9579   3.457   2.370   1.875
  958ACTN    H6 9580   3.425   2.448   1.720
  959ACTN    C1 9581   2.452   1.313   3.315
  959ACTN    O1 9582   2.526   1.336   3.087
  959ACTN    C2 9583   2.462   1.270   3.171
  959ACTN    C3 9584   2.365   1.175   3.115
  959ACTN    H1 9585   2.508   1.247   3.381
  959ACTN    H2 9586   2.347   1.313   3.343
  959ACTN    H3 9587   2.494   1.414   3.326
  959ACTN    H4 9588   2.413   1.077   3.117
  959ACTN    H5 9589   2.345   1.194   3.009
  959ACTN    H6 9590   2.272   1.171   3.169
  960ACTN    C1 9591   4.779   2.423   4.902
  960ACTN    O1 9592   5.001   2.515   4.899
  960ACTN    C2 9593   4.900   2.486   4.965
  960ACTN    C3 9594   4.922   2.477   5.110
  960ACTN    H1 9595   4.694   2.491   4.900
  960ACTN    H2 9596   4.753   2.335   4.960
  960ACTN    H3 9597   4.802   2.395   4.799
  960ACTN    H4 9598   4.887   2.571   5.152
  960ACTN    H5 9599   5.028   2.473   5.136
  960ACTN    H6 9600   4.870   2.394   5.157
  961ACTN    C1 9601   3.909   4.391   4.124
  961ACTN    O1 9602   3.713   4.516   4.064
  961ACTN    C2 9603   3.785   4.470   4.154
  961ACTN    C3 9604   3.767   4.533   4.285
  961ACTN    H1 9605   3.898   4.286   4.150
  961ACTN    H2 9606   3.991   4.433   4.180
  961ACTN    H3 9607   3.931   4.396   4.016
  961ACTN    H4 9608   3.703   4.466   4.343
  961ACTN    H5 9609   3.711   4.627   4.280
  961ACTN    H6 9610   3.859   4.549   4.339
  962ACTN    C1 9611   5.688   7.347   6.327
  962ACTN    O1 9612   5.914   7.345   6.248
  962ACTN    C2 9613   5.834   7.315   6.338
  962ACTN    C3 9614   5.882   7.212   6.431
  962ACTN    H1 9615   5.658   7.424   6.398
  962ACTN    H2 9616   5.632   7.256   6.348
  962ACTN    H3 9617   5.665   7.383   6.227
  962ACTN    H4 9618   5.917   7.265   6.520
  962ACTN    H5 9619   5.970   7.159   6.394
  962ACTN    H6 9620   5.806   7.140   6.459
  963ACTN    C1 9621   1.697   3.868   1.998
  963ACTN    O1 9622   1.859   4.016   1.900
  963ACTN    C2 9623   1.766   3.935   1.882
  963ACTN    C3 9624   1.701   3.943   1.751
  963ACTN    H1 9625   1.720   3.762   2.002
  963ACTN    H2 9626   1.590   3.881   1.986
  963ACTN    H3 9627   1.730   3.913   2.092
  963ACTN    H4 9628   1.744   3.862   1.692
  963ACTN    H5 9629   1.727   4.034   1.697
  963ACTN    H6 9630   1.594   3.933   1.754
  964ACTN    C1 9631   3.913   6.299   0.215
  964ACTN    O1 9632   3.865   6.111   0.356
  964ACTN    C2 9633   3.888   6.232   0.348
  964ACTN    C3 9634   3.847   6.312   0.464
  964ACTN    H1 9635   4.016   6.331   0.204
  964ACTN    H2 9636   3.847   6.385   0.207
  964ACTN    H3 9637   3.892   6.228   0.134
  964ACTN    H4 9638   3.937   6.328   0.522
  964ACTN    H5 9639   3.781   6.256   0.531
  964ACTN    H6 9640   3.802   6.407   0.439
  965ACTN    C1 9641   6.670   5.702   0.697
  965ACTN    O1 9642   6.526   5.800   0.862
  965ACTN    C2 9643   6.552   5.783   0.741
  965ACTN    C3 9644   6.441   5.810   0.649
  965ACTN    H1 9645   6.748   5.764   0.652
  965ACTN    H2 9646   6.636   5.629   0.624
  965ACTN    H3 9647   6.715   5.650   0.783
  965ACTN    H4 9648   6.458   5.910   0.609
  965ACTN    H5 9649   6.345   5.816   0.701
  965ACTN    H6 9650   6.433   5.739   0.568
  966ACTN    C1 9651   0.447   4.187   3.321
  966ACTN    O1 9652   0.413   4.057   3.519
  966ACTN    C2 9653   0.364   4.132   3.434
  966ACTN    C3 9654   0.218   4.129   3.424
  966ACTN    H1 9655   0.464   4.294   3.331
  966ACTN    H2 9656   0.395   4.168   3.228
  966ACTN    H3 9657   0.545   4.138   3.320
  966ACTN    H4 9658   0.182   4.216   3.479
  966ACTN    H5 9659   0.174   4.044   3.476
  966ACTN    H6 9660   0.181   4.132   3.323
  967ACTN    C1 9661   7.321   0.409   0.934
  967ACTN    O1 9662   7.118   0.283   0.913
  967ACTN    C2 9663   7.210   0.345   0.856
  967ACTN    C3 9664   7.227   0.313   0.714
  967ACTN    H1 9665   7.316   0.518   0.930
  967ACTN    H2 9666   7.416   0.377   0.892
  967ACTN    H3 9667   7.315   0.380   1.039
  967ACTN    H4 9668   7.179   0.394   0.659
  967ACTN    H5 9669   7.173   0.223   0.684
  967ACTN    H6 9670   7.330   0.305   0.683
  968ACTN    C1 9671   1.901   1.864   0.563
  968ACTN    O1 9672   1.712   1.849   0.415
  968ACTN    C2 9673   1.836   1.856   0.428
  968ACTN    C3 9674   1.913   1.811   0.311
  968ACTN    H1 9675   1.946   1.962   0.581
  968ACTN    H2 9676   1.978   1.788   0.569
  968ACTN    H3 9677   1.826   1.848   0.642
  968ACTN    H4 9678   1.943   1.902   0.259
  968ACTN    H5 9679   1.851   1.756   0.239
  968ACTN    H6 9680   2.000   1.753   0.336
  969ACTN    C1 9681   1.468   6.004   7.603
  969ACTN    O1 9682   1.249   5.949   7.684
  969ACTN    C2 9683   1.324   5.966   7.586
  969ACTN    C3 9684   1.277   5.907   7.461
  969ACTN    H1 9685   1.488   6.106   7.571
  969ACTN    H2 9686   1.529   5.936   7.545
  969ACTN    H3 9687   1.496   5.998   7.709
  969ACTN    H4 9688   1.233   5.987   7.403
  969ACTN    H5 9689   1.196   5.835   7.476
  969ACTN    H6 9690   1.356   5.860   7.403
  970ACTN    C1 9691   4.356   6.215   7.139
  970ACTN    O1 9692   4.125   6.254   7.089
  970ACTN    C2 9693   4.213   6.172   7.120
  970ACTN    C3 9694   4.165   6.047   7.177
  970ACTN    H1 9695   4.421   6.177   7.060
  970ACTN    H2 9696   4.391   6.177   7.234
  970ACTN    H3 9697   4.363   6.324   7.137
  970ACTN    H4 9698   4.167   5.974   7.096
  970ACTN    H5 9699   4.060   6.052   7.207
  970ACTN    H6 9700   4.224   6.011   7.260
  971ACTN    C1 9701   7.137   7.708   3.319
  971ACTN    O1 9702   6.931   7.591   3.284
  971ACTN    C2 9703   7.014   7.672   3.241
  971ACTN    C3 9704   7.008   7.697   3.096
  971ACTN    H1 9705   7.134   7.810   3.357
  971ACTN    H2 9706   7.224   7.697   3.254
  971ACTN    H3 9707   7.147   7.641   3.406
  971ACTN    H4 9708   6.954   7.790   3.084
  971ACTN    H5 9709   6.948   7.623   3.043
  971ACTN    H6 9710   7.105   7.705   3.049
  972ACTN    C1 9711   7.537   7.549   0.388
  972ACTN    O1 9712   7.332   7.457   0.304
  972ACTN    C2 9713   7.419   7.457   0.393
  972ACTN    C3 9714   7.377   7.396   0.520
  972ACTN    H1 9715   7.630   7.495   0.370
  972ACTN    H2 9716   7.544   7.601   0.483
  972ACTN    H3 9717   7.525   7.622   0.307
  972ACTN    H4 9718   7.418   7.295   0.520
  972ACTN    H5 9719   7.269   7.382   0.526
  972ACTN    H6 9720   7.411   7.449   0.608
  973ACTN    C1 9721   1.678   3.134   2.656
  973ACTN    O1 9722   1.907   3.060   2.649
  973ACTN    C2 9723   1.807   3.101   2.587
  973ACTN    C3 9724   1.836   3.155   2.453
  973ACTN    H1 9725   1.600   3.062   2.632
  973ACTN    H2 9726   1.647   3.233   2.626
  973ACTN    H3 9727   1.693   3.131   2.765
  973ACTN    H4 9728   1.812   3.076   2.383
  973ACTN    H5 9729   1.942   3.175   2.438
  973ACTN    H6 9730   1.780   3.245   2.429
  974ACTN    C1 9731   0.727   3.135   7.578
  974ACTN    O1 9732   0.863   3.167   7.383
  974ACTN    C2 9733   0.760   3.119   7.433
  974ACTN    C3 9734   0.655   3.085   7.336
  974ACTN    H1 9735   0.736   3.041   7.633
  974ACTN    H2 9736   0.626   3.173   7.587
  974ACTN    H3 9737   0.797   3.206   7.625
  974ACTN    H4 9738   0.662   2.978   7.320
  974ACTN    H5 9739   0.672   3.130   7.238
  974ACTN    H6 9740   0.555   3.110   7.369
  975ACTN    C1 9741   2.543   6.928   4.752
  975ACTN    O1 9742   2.577   6.703   4.674
  975ACTN    C2 9743   2.617   6.797   4.745
  975ACTN    C3 9744   2.712   6.760   4.850
  975ACTN    H1 9745   2.598   7.009   4.704
  975ACTN    H2 9746   2.528   6.953   4.857
  975ACTN    H3 9747   2.446   6.919   4.701
  975ACTN    H4 9748   2.811   6.784   4.811
  975ACTN    H5 9749   2.715   6.652   4.867
  975ACTN    H6 9750   2.696   6.811   4.944
  976ACTN    C1 9751   7.846   0.189   7.190
  976ACTN    O1 9752   7.896   0.193   6.955
  976ACTN    C2 9753   7.810   0.202   7.045
  976ACTN    C3 9754   7.684   0.266   7.004
  976ACTN    H1 9755   7.808   0.097   7.233
  976ACTN    H2 9756   7.804   0.274   7.243
  976ACTN    H3 9757   7.955   0.188   7.201
  976ACTN    H4 9758   7.614   0.186   6.985
  976ACTN    H5 9759   7.693   0.319   6.909
  976ACTN    H6 9760   7.644   0.333   7.079
  977ACTN    C1 9761   2.899   0.602   2.925
  977ACTN    O1 9762   2.737   0.706   3.068
  977ACTN    C2 9763   2.851   0.709   3.019
  977ACTN    C3 9764   2.916   0.840   3.022
  977ACTN    H1 9765   2.977   0.540   2.970
  977ACTN    H2 9766   2.939   0.650   2.836
  977ACTN    H3 9767   2.816   0.536   2.898
  977ACTN    H4 9768   2.985   0.838   3.106
  977ACTN    H5 9769   2.846   0.921   3.044
  977ACTN    H6 9770   2.971   0.865   2.932
  978ACTN    C1 9771   7.613   4.247   0.717
  978ACTN    O1 9772   7.490   4.115   0.876
  978ACTN    C2 9773   7.544   4.122   0.764
  978ACTN    C3 9774   7.573   3.993   0.701
  978ACTN    H1 9775   7.558   4.297   0.637
  978ACTN    H2 9776   7.711   4.221   0.682
  978ACTN    H3 9777   7.621   4.319   0.800
  978ACTN    H4 9778   7.493   3.976   0.629
  978ACTN    H5 9779   7.566   3.910   0.771
  978ACTN    H6 9780   7.668   3.990   0.650
  979ACTN    C1 9781   7.055   0.750   2.336
  979ACTN    O1 9782   7.284   0.805   2.287
  979ACTN    C2 9783   7.165   0.811   2.252
  979ACTN    C3 9784   7.134   0.914   2.153
  979ACTN    H1 9785   7.011   0.663   2.287
  979ACTN    H2 9786   6.978   0.825   2.351
  979ACTN    H3 9787   7.095   0.717   2.432
  979ACTN    H4 9788   7.129   0.863   2.057
  979ACTN    H5 9789   7.215   0.987   2.142
  979ACTN    H6 9790   7.041   0.966   2.171
  980ACTN    C1 9791   3.543   6.775   5.461
  980ACTN    O1 9792   3.324   6.690   5.414
  980ACTN    C2 9793   3.446   6.669   5.416
  980ACTN    C3 9794   3.485   6.528   5.414
  980ACTN    H1 9795   3.603   6.813   5.379
  980ACTN    H2 9796   3.609   6.731   5.536
  980ACTN    H3 9797   3.489   6.860   5.505
  980ACTN    H4 9798   3.513   6.506   5.311
  980ACTN    H5 9799   3.402   6.461   5.435
  980ACTN    H6 9800   3.568   6.504   5.479
  981ACTN    C1 9801   7.660   6.451   1.432
  981ACTN    O1 9802   7.719   6.226   1.373
  981ACTN    C2 9803   7.753   6.346   1.379
  981ACTN    C3 9804   7.897   6.369   1.372
  981ACTN    H1 9805   7.625   6.518   1.354
  981ACTN    H2 9806   7.713   6.509   1.507
  981ACTN    H3 9807   7.571   6.405   1.477
  981ACTN    H4 9808   7.918   6.398   1.270
  981ACTN    H5 9809   7.955   6.278   1.388
  981ACTN    H6 9810   7.932   6.446   1.440
  982ACTN    C1 9811   0.894   2.281   7.534
  982ACTN    O1 9812   1.110   2.282   7.429
  982ACTN    C2 9813   1.042   2.253   7.528
  982ACTN    C3 9814   1.102   2.155   7.619
  982ACTN    H1 9815   0.870   2.360   7.604
  982ACTN    H2 9816   0.843   2.190   7.563
  982ACTN    H3 9817   0.859   2.313   7.435
  982ACTN    H4 9818   1.146   2.212   7.701
  982ACTN    H5 9819   1.187   2.103   7.573
  982ACTN    H6 9820   1.033   2.082   7.658
  983ACTN    C1 9821   5.385   4.930   6.592
  983ACTN    O1 9822   5.147   4.932   6.563
  983ACTN    C2 9823   5.248   4.870   6.602
  983ACTN    C3 9824   5.221   4.760   6.695
  983ACTN    H1 9825   5.446   4.879   6.517
  983ACTN    H2 9826   5.433   4.922   6.688
  983ACTN    H3 9827   5.378   5.035   6.561
  983ACTN    H4 9828   5.225   4.669   6.636
  983ACTN    H5 9829   5.120   4.763   6.736
  983ACTN    H6 9830   5.293   4.753   6.777
  984ACTN    C1 9831   5.039   2.322   4.063
  984ACTN    O1 9832   5.178   2.188   3.920
  984ACTN    C2 9833   5.122   2.297   3.940
  984ACTN    C3 9834   5.175   2.409   3.862
  984ACTN    H1 9835   4.933   2.330   4.040
  984ACTN    H2 9836   5.073   2.414   4.109
  984ACTN    H3 9837   5.051   2.238   4.134
  984ACTN    H4 9838   5.107   2.423   3.778
  984ACTN    H5 9839   5.271   2.387   3.816
  984ACTN    H6 9840   5.183   2.502   3.918
  985ACTN    C1 9841   7.255   6.657   1.263
  985ACTN    O1 9842   7.337   6.433   1.241
  985ACTN    C2 9843   7.266   6.513   1.304
  985ACTN    C3 9844   7.163   6.452   1.388
  985ACTN    H1 9845   7.303   6.724   1.335
  985ACTN    H2 9846   7.150   6.683   1.255
  985ACTN    H3 9847   7.304   6.672   1.166
  985ACTN    H4 9848   7.203   6.453   1.490
  985ACTN    H5 9849   7.148   6.346   1.366
  985ACTN    H6 9850   7.068   6.503   1.386
  986ACTN    C1 9851   5.289   2.640   4.194
  986ACTN    O1 9852   5.090   2.691   4.318
  986ACTN    C2 9853   5.165   2.719   4.223
  986ACTN    C3 9854   5.105   2.804   4.119
  986ACTN    H1 9855   5.379   2.696   4.215
  986ACTN    H2 9856   5.288   2.611   4.089
  986ACTN    H3 9857   5.291   2.550   4.257
  986ACTN    H4 9858   5.139   2.905   4.138
  986ACTN    H5 9859   4.996   2.809   4.127
  986ACTN    H6 9860   5.131   2.775   4.018
  987ACTN    C1 9861   6.689   4.093   6.452
  987ACTN    O1 9862   6.607   3.966   6.639
  987ACTN    C2 9863   6.580   4.037   6.540
  987ACTN    C3 9864   6.442   4.027   6.492
  987ACTN    H1 9865   6.698   4.201   6.463
  987ACTN    H2 9866   6.664   4.069   6.349
  987ACTN    H3 9867   6.785   4.049   6.479
  987ACTN    H4 9868   6.390   4.114   6.532
  987ACTN    H5 9869   6.389   3.941   6.533
  987ACTN    H6 9870   6.433   4.026   6.384
  988ACTN    C1 9871   6.053   0.530   2.765
  988ACTN    O1 9872   6.020   0.298   2.815
  988ACTN    C2 9873   6.079   0.404   2.843
  988ACTN    C3 9874   6.137   0.411   2.977
  988ACTN    H1 9875   6.138   0.559   2.704
  988ACTN    H2 9876   6.030   0.610   2.835
  988ACTN    H3 9877   5.968   0.516   2.696
  988ACTN    H4 9878   6.243   0.390   2.964
  988ACTN    H5 9879   6.101   0.331   3.042
  988ACTN    H6 9880   6.124   0.506   3.026
  989ACTN    C1 9881   5.203   3.322   2.935
  989ACTN    O1 9882   5.226   3.538   3.038
  989ACTN    C2 9883   5.210   3.416   3.053
  989ACTN    C3 9884   5.242   3.365   3.186
  989ACTN    H1 9885   5.103   3.281   2.922
  989ACTN    H2 9886   5.273   3.241   2.952
  989ACTN    H3 9887   5.229   3.376   2.843
  989ACTN    H4 9888   5.147   3.354   3.238
  989ACTN    H5 9889   5.298   3.437   3.246
  989ACTN    H6 9890   5.294   3.270   3.186
  990ACTN    C1 9891   3.843   7.286   3.735
  990ACTN    O1 9892   3.815   7.312   3.498
  990ACTN    C2 9893   3.845   7.237   3.593
  990ACTN    C3 9894   3.840   7.094   3.564
  990ACTN    H1 9895   3.942   7.294   3.778
  990ACTN    H2 9896   3.784   7.216   3.794
  990ACTN    H3 9897   3.797   7.386   3.740
  990ACTN    H4 9898   3.943   7.063   3.545
  990ACTN    H5 9899   3.788   7.072   3.470
  990ACTN    H6 9900   3.798   7.034   3.643
  991ACTN    C1 9901   1.632   4.137   4.358
  991ACTN    O1 9902   1.674   4.328   4.497
  991ACTN    C2 9903   1.720   4.243   4.419
  991ACTN    C3 9904   1.848   4.278   4.357
  991ACTN    H1 9905   1.655   4.038   4.397
  991ACTN    H2 9906   1.647   4.137   4.251
  991ACTN    H3 9907   1.527   4.157   4.381
  991ACTN    H4 9908   1.924   4.224   4.413
  991ACTN    H5 9909   1.873   4.384   4.370
  991ACTN    H6 9910   1.855   4.252   4.252
  992ACTN    C1 9911   3.037   6.741   2.756
  992ACTN    O1 9912   3.122   6.965   2.763
  992ACTN    C2 9913   3.043   6.881   2.810
  992ACTN    C3 9914   2.990   6.912   2.943
  992ACTN    H1 9915   2.945   6.722   2.702
  992ACTN    H2 9916   3.045   6.672   2.840
  992ACTN    H3 9917   3.120   6.724   2.686
  992ACTN    H4 9918   2.890   6.954   2.927
  992ACTN    H5 9919   3.045   6.992   2.992
  992ACTN    H6 9920   2.984   6.827   3.009
  993ACTN    C1 9921   5.824   2.986   0.345
  993ACTN    O1 9922   5.691   2.832   0.218
  993ACTN    C2 9923   5.767   2.931   0.218
  993ACTN    C3 9924   5.829   2.961   0.089
  993ACTN    H1 9925   5.782   3.084   0.370
  993ACTN    H2 9926   5.931   2.996   0.333
  993ACTN    H3 9927   5.802   2.919   0.429
  993ACTN    H4 9928   5.771   3.042   0.045
  993ACTN    H5 9929   5.820   2.879   0.018
  993ACTN    H6 9930   5.933   2.991   0.096
  994ACTN    C1 9931   4.260   2.480   6.047
  994ACTN    O1 9932   4.252   2.462   6.286
  994ACTN    C2 9933   4.289   2.527   6.187
  994ACTN    C3 9934   4.322   2.667   6.213
  994ACTN    H1 9935   4.350   2.449   5.995
  994ACTN    H2 9936   4.215   2.563   5.992
  994ACTN    H3 9937   4.191   2.395   6.049
  994ACTN    H4 9938   4.431   2.672   6.220
  994ACTN    H5 9939   4.287   2.701   6.311
  994ACTN    H6 9940   4.288   2.736   6.137
  995ACTN    C1 9941   7.074   5.162   1.843
  995ACTN    O1 9942   6.835   5.159   1.857
  995ACTN    C2 9943   6.944   5.141   1.914
  995ACTN    C3 9944   6.937   5.142   2.061
  995ACTN    H1 9945   7.127   5.067   1.827
  995ACTN    H2 9946   7.137   5.226   1.904
  995ACTN    H3 9947   7.057   5.208   1.745
  995ACTN    H4 9948   6.937   5.038   2.092
  995ACTN    H5 9949   6.843   5.183   2.099
  995ACTN    H6 9950   7.020   5.194   2.108
  996ACTN    C1 9951   4.545   4.519   5.350
  996ACTN    O1 9952   4.437   4.611   5.544
  996ACTN    C2 9953   4.543   4.575   5.489
  996ACTN    C3 9954   4.665   4.630   5.549
  996ACTN    H1 9955   4.569   4.413   5.349
  996ACTN    H2 9956   4.619   4.573   5.292
  996ACTN    H3 9957   4.446   4.530   5.304
  996ACTN    H4 9958   4.706   4.551   5.613
  996ACTN    H5 9959   4.645   4.713   5.617
  996ACTN    H6 9960   4.740   4.661   5.477
  997ACTN    C1 9961   6.455   0.896   1.930
  997ACTN    O1 9962   6.374   0.806   2.137
  997ACTN    C2 9963   6.423   0.784   2.025
  997ACTN    C3 9964   6.488   0.653   2.010
  997ACTN    H1 9965   6.388   0.895   1.843
  997ACTN    H2 9966   6.557   0.885   1.896
  997ACTN    H3 9967   6.442   0.993   1.980
  997ACTN    H4 9968   6.416   0.590   1.958
  997ACTN    H5 9969   6.504   0.604   2.106
  997ACTN    H6 9970   6.580   0.656   1.955
  998ACTN    C1 9971   4.092   3.222   2.458
  998ACTN    O1 9972   3.962   3.092   2.304
  998ACTN    C2 9973   4.073   3.140   2.334
  998ACTN    C3 9974   4.188   3.078   2.267
  998ACTN    H1 9975   4.110   3.327   2.436
  998ACTN    H2 9976   4.177   3.182   2.513
  998ACTN    H3 9977   4.002   3.217   2.521
  998ACTN    H4 9978   4.214   3.144   2.184
  998ACTN    H5 9979   4.162   2.983   2.219
  998ACTN    H6 9980   4.274   3.064   2.331
  999ACTN    C1 9981   3.289   7.437   0.366
  999ACTN    O1 9982   3.316   7.656   0.273
  999ACTN    C2 9983   3.319   7.533   0.255
  999ACTN    C3 9984   3.310   7.491   0.115
  999ACTN    H1 9985   3.377   7.382   0.397
  999ACTN    H2 9986   3.214   7.367   0.331
  999ACTN    H3 9987   3.251   7.491   0.453
  999ACTN    H4 9988   3.412   7.468   0.083
  999ACTN    H5 9989   3.278   7.572   0.049
  999ACTN    H6 9990   3.247   7.405   0.099
 1000ACTN    C1 9991   0.670   5.396   6.153
 1000ACTN    O1 9992   0.490   5.251   6.090
 1000ACTN    C2 9993   0.560   5.349   6.061
 1000ACTN    C3 9994   0.561   5.387   5.919
 1000ACTN    H1 9995   0.646   5.492   6.198
 1000ACTN    H2 9996   0.761   5.406   6.095
 1000ACTN    H3 9997   0.685   5.324   6.234
 1000ACTN    H4 9998   0.492   5.471   5.910
 1000ACTN    H5 9999   0.518   5.309   5.855
 1000ACTN    H610000   0.658   5.415   5.881
    1SOL     OW10001   5.683   3.938   1.615
    1SOL    HW110002   5.705   4.030   1.582
    1SOL    HW210003   5.722   3.926   1.707
    2SOL     OW10004   1.443   3.042   4.160
    2SOL    HW110005   1.488   2.996   4.084
    2SOL    HW210006   1.363   3.093   4.126
    3SOL     OW10007   4.725   0.089   1.561
    3SOL    HW110008   4.704   0.121   1.469
    3SOL    HW210009   4.727  -0.011   1.563
    4SOL     OW10010   7.026   1.937   6.272
    4SOL    HW110011   7.013   2.027   6.231
    4SOL    HW210012   7.124   1.918   6.282
    5SOL     OW10013   4.842   6.691   4.222
    5SOL    HW110014   4.899   6.771   4.201
    5SOL    HW210015   4.763   6.719   4.276
    6SOL     OW10016   7.119   1.264   7.648
    6SOL    HW110017   7.175   1.202   7.592
    6SOL    HW210018   7.112   1.353   7.603
    7SOL     OW10019   2.749   4.844   1.465
    7SOL    HW110020   2.819   4.910   1.494
    7SOL    HW210021   2.683   4.830   1.538
    8SOL     OW10022   2.378   6.421   1.825
    8SOL    HW110023   2.373   6.494   1.894
    8SOL    HW210024   2.354   6.334   1.867
    9SOL     OW10025   3.306   1.516   7.832
    9SOL    HW110026   3.341   1.595   7.882
    9SOL    HW210027   3.273   1.544   7.742
   10SOL     OW10028   0.051   1.801   3.680
   10SOL    HW110029   0.087   1.893   3.691
   10SOL    HW210030  -0.046   1.805   3.656
   11SOL     OW10031   7.503   1.518   4.234
   11SOL    HW110032   7.545   1.431   4.260
   11SOL    HW210033   7.535   1.545   4.143
   12SOL     OW10034   2.612   0.124   3.807
   12SOL    HW110035   2.612   0.037   3.757
   12SOL    HW210036   2.550   0.117   3.886
   13SOL     OW10037   1.419   5.231   0.673
   13SOL    HW110038   1.403   5.156   0.737
   13SOL    HW210039   1.438   5.195   0.582
   14SOL     OW10040   3.850   4.233   7.375
   14SOL    HW110041   3.887   4.326   7.381
   14SOL    HW210042   3.817   4.215   7.282
   15SOL     OW10043   5.431   1.247   2.704
   15SOL    HW110044   5.443   1.150   2.682
   15SOL    HW210045   5.418   1.258   2.802
   16SOL     OW10046   5.730   0.895   1.687
   16SOL    HW110047   5.703   0.944   1.604
   16SOL    HW210048   5.658   0.833   1.715
   17SOL     OW10049   4.500   6.239   7.415
   17SOL    HW110050   4.466   6.332   7.406
   17SOL    HW210051   4.525   6.221   7.510
   18SOL     OW10052   4.123   4.377   4.395
   18SOL    HW110053   4.070   4.391   4.479
   18SOL    HW210054   4.203   4.435   4.396
   19SOL     OW10055   2.801   5.062   1.709
   19SOL    HW110056   2.896   5.040   1.734
   19SOL    HW210057   2.791   5.161   1.696
   20SOL     OW10058   6.033   4.581   0.248
   20SOL    HW110059   6.124   4.550   0.219
   20SOL    HW210060   6.010   4.540   0.336
   21SOL     OW10061   1.995   1.919   2.894
   21SOL    HW110062   1.977   2.017   2.882
   21SOL    HW210063   1.918   1.866   2.858
   22SOL     OW10064   0.210   5.436   4.325
   22SOL    HW110065   0.263   5.475   4.249
   22SOL    HW210066   0.214   5.336   4.322
   23SOL     OW10067   5.221   6.412   2.554
   23SOL    HW110068   5.203   6.449   2.463
   23SOL    HW210069   5.136   6.376   2.593
   24SOL     OW10070   6.008   1.419   5.984
   24SOL    HW110071   5.927   1.370   5.951
   24SOL    HW210072   6.019   1.405   6.083
   25SOL     OW10073   1.566   7.218   1.451
   25SOL    HW110074   1.566   7.229   1.351
   25SOL    HW210075   1.478   7.248   1.488
   26SOL     OW10076   1.654   3.071   7.856
   26SOL    HW110077   1.661   3.127   7.939
   26SOL    HW210078   1.714   2.991   7.865
   27SOL     OW10079   1.554   5.379   3.700
   27SOL    HW110080   1.627   5.442   3.726
   27SOL    HW210081   1.510   5.410   3.616
   28SOL     OW10082   3.437   2.132   0.586
   28SOL    HW110083   3.492   2.049   0.575
   28SOL    HW210084   3.353   2.111   0.637
   29SOL     OW10085   7.300   1.907   6.414
   29SOL    HW110086   7.315   2.003   6.390
   29SOL    HW210087   7.325   1.848   6.338
   30SOL     OW10088   2.649   3.199   4.199
   30SOL    HW110089   2.738   3.234   4.227
   30SOL    HW210090   2.630   3.224   4.104
   31SOL     OW10091   5.391   3.785   2.541
   31SOL    HW110092   5.317   3.844   2.574
   31SOL    HW210093   5.455   3.838   2.486
   32SOL     OW10094   3.691   2.665   0.507
   32SOL    HW110095   3.709   2.658   0.605
   32SOL    HW210096   3.762   2.719   0.463
   33SOL     OW10097   6.410   6.983   7.337
   33SOL    HW110098   6.385   7.036   7.418
   33SOL    HW210099   6.471   7.037   7.279
   34SOL     OW10100   2.261   0.202   6.126
   34SOL    HW110101   2.357   0.221   6.105
   34SOL    HW210102   2.254   0.157   6.215
   35SOL     OW10103   0.389   2.363   5.779
   35SOL    HW110104   0.462   2.392   5.842
   35SOL    HW210105   0.429   2.335   5.692
   36SOL     OW10106   3.827   2.394   5.521
   36SOL    HW110107   3.757   2.427   5.458
   36SOL    HW210108   3.918   2.415   5.485
   37SOL     OW10109   2.453   3.093   7.193
   37SOL    HW110110   2.548   3.126   7.195
   37SOL    HW210111   2.431   3.057   7.102
   38SOL     OW10112   4.173   5.566   4.497
   38SOL    HW110113   4.211   5.479   4.528
   38SOL    HW210114   4.076   5.571   4.522
   39SOL     OW10115   3.137   2.119   4.251
   39SOL    HW110116   3.215   2.154   4.199
   39SOL    HW210117   3.170   2.072   4.333
   40SOL     OW10118   3.676   0.032   6.392
   40SOL    HW110119   3.703   0.112   6.445
   40SOL    HW210120   3.585   0.002   6.420
   41SOL     OW10121   2.952   5.153   3.858
   41SOL    HW110122   3.021   5.214   3.898
   41SOL    HW210123   2.948   5.167   3.759
   42SOL     OW10124   3.138   5.777   5.607
   42SOL    HW110125   3.127   5.679   5.595
   42SOL    HW210126   3.100   5.805   5.696
   43SOL     OW10127   7.759   4.910   6.036
   43SOL    HW110128   7.714   4.915   6.125
   43SOL    HW210129   7.699   4.864   5.970
   44SOL     OW10130   0.965   7.572   1.990
   44SOL    HW110131   0.966   7.533   1.898
   44SOL    HW210132   0.881   7.623   2.005
   45SOL     OW10133   2.946   2.867   3.914
   45SOL    HW110134   2.949   2.960   3.877
   45SOL    HW210135   2.969   2.867   4.011
   46SOL     OW10136   6.446   1.066   4.688
   46SOL    HW110137   6.512   1.007   4.641
   46SOL    HW210138   6.364   1.014   4.710
   47SOL     OW10139   6.838   7.249   5.026
   47SOL    HW110140   6.811   7.231   4.932
   47SOL    HW210141   6.927   7.209   5.044
   48SOL     OW10142   5.354   5.301   4.629
   48SOL    HW110143   5.276   5.342   4.676
   48SOL    HW210144   5.439   5.335   4.668
   49SOL     OW10145   4.926   6.284   5.448
   49SOL    HW110146   4.921   6.313   5.544
   49SOL    HW210147   4.895   6.190   5.439
   50SOL     OW10148   5.129   7.213   6.810
   50SOL    HW110149   5.065   7.175   6.744
   50SOL    HW210150   5.085   7.224   6.899
   51SOL     OW10151   0.267   3.048   3.433
   51SOL    HW110152   0.299   2.957   3.406
   51SOL    HW210153   0.223   3.043   3.523
   52SOL     OW10154   6.833   5.736   5.778
   52SOL    HW110155   6.786   5.649   5.798
   52SOL    HW210156   6.842   5.748   5.680
   53SOL     OW10157   6.272   2.024   3.082
   53SOL    HW110158   6.311   2.027   2.990
   53SOL    HW210159   6.199   2.092   3.090
   54SOL     OW10160   4.575   5.587   6.168
   54SOL    HW110161   4.591   5.520   6.095
   54SOL    HW210162   4.515   5.548   6.237
   55SOL     OW10163   6.442   3.373   6.851
   55SOL    HW110164   6.434   3.394   6.948
   55SOL    HW210165   6.466   3.456   6.800
   56SOL     OW10166   4.793   5.578   4.544
   56SOL    HW110167   4.809   5.599   4.447
   56SOL    HW210168   4.848   5.499   4.572
   57SOL     OW10169   0.085   7.477   1.850
   57SOL    HW110170   0.028   7.428   1.784
   57SOL    HW210171   0.114   7.565   1.812
   58SOL     OW10172   2.988   1.746   5.298
   58SOL    HW110173   2.912   1.685   5.323
   58SOL    HW210174   3.007   1.737   5.200
   59SOL     OW10175   6.037   4.921   6.712
   59SOL    HW110176   5.978   4.842   6.692
   59SOL    HW210177   6.018   4.955   6.804
   60SOL     OW10178   2.444   7.531   7.357
   60SOL    HW110179   2.487   7.483   7.434
   60SOL    HW210180   2.508   7.538   7.281
   61SOL     OW10181   5.510   1.276   0.877
   61SOL    HW110182   5.527   1.374   0.866
   61SOL    HW210183   5.549   1.243   0.963
   62SOL     OW10184   1.034   5.284   2.899
   62SOL    HW110185   0.993   5.217   2.837
   62SOL    HW210186   1.133   5.270   2.905
   63SOL     OW10187   1.989   7.288   7.793
   63SOL    HW110188   1.988   7.318   7.889
   63SOL    HW210189   1.905   7.318   7.748
   64SOL     OW10190   1.591   6.085   3.162
   64SOL    HW110191   1.524   6.035   3.107
   64SOL    HW210192   1.563   6.083   3.258
   65SOL     OW10193   7.207   1.996   6.776
   65SOL    HW110194   7.267   1.979   6.854
   65SOL    HW210195   7.189   2.094   6.766
   66SOL     OW10196   0.805   2.012   6.312
   66SOL    HW110197   0.723   2.060   6.344
   66SOL    HW210198   0.821   1.932   6.369
   67SOL     OW10199   7.275   7.351   4.629
   67SOL    HW110200   7.274   7.446   4.660
   67SOL    HW210201   7.187   7.328   4.587
   68SOL     OW10202   2.856   6.656   6.281
   68SOL    HW110203   2.816   6.740   6.317
   68SOL    HW210204   2.821   6.639   6.189
   69SOL     OW10205   4.733   1.171   1.857
   69SOL    HW110206   4.653   1.205   1.906
   69SOL    HW210207   4.706   1.127   1.773
   70SOL     OW10208   1.961   6.832   2.592
   70SOL    HW110209   2.056   6.863   2.591
   70SOL    HW210210   1.939   6.794   2.682
   71SOL     OW10211   2.636   4.002   6.270
   71SOL    HW110212   2.725   3.961   6.290
   71SOL    HW210213   2.610   4.065   6.344
   72SOL     OW10214   0.576   2.559   1.201
   72SOL    HW110215   0.651   2.499   1.228
   72SOL    HW210216   0.536   2.603   1.282
   73SOL     OW10217   2.476   7.652   6.278
   73SOL    HW110218   2.385   7.650   6.318
   73SOL    HW210219   2.542   7.610   6.341
   74SOL     OW10220   4.369   4.026   4.362
   74SOL    HW110221   4.436   3.958   4.392
   74SOL    HW210222   4.359   4.097   4.432
   75SOL     OW10223   2.969   4.716   1.441
   75SOL    HW110224   2.932   4.653   1.372
   75SOL    HW210225   3.003   4.664   1.519
   76SOL     OW10226   3.332   3.367   1.798
   76SOL    HW110227   3.425   3.360   1.762
   76SOL    HW210228   3.282   3.438   1.749
   77SOL     OW10229   0.855   0.718   2.714
   77SOL    HW110230   0.788   0.648   2.690
   77SOL    HW210231   0.846   0.796   2.652
   78SOL     OW10232   1.272   6.460   6.125
   78SOL    HW110233   1.306   6.373   6.089
   78SOL    HW210234   1.231   6.446   6.215
   79SOL     OW10235   6.061   2.179   2.183
   79SOL    HW110236   6.044   2.127   2.099
   79SOL    HW210237   6.132   2.134   2.237
   80SOL     OW10238   5.594   5.410   4.049
   80SOL    HW110239   5.500   5.446   4.048
   80SOL    HW210240   5.659   5.484   4.035
   81SOL     OW10241   0.724   4.724   6.933
   81SOL    HW110242   0.731   4.824   6.931
   81SOL    HW210243   0.745   4.690   7.025
   82SOL     OW10244   2.160   4.904   2.784
   82SOL    HW110245   2.090   4.975   2.797
   82SOL    HW210246   2.245   4.933   2.829
   83SOL     OW10247   3.433   0.177   5.974
   83SOL    HW110248   3.449   0.155   6.070
   83SOL    HW210249   3.395   0.098   5.927
   84SOL     OW10250   2.466   7.590   1.849
   84SOL    HW110251   2.535   7.526   1.882
   84SOL    HW210252   2.502   7.641   1.770
   85SOL     OW10253   1.048   0.075   5.254
   85SOL    HW110254   1.046   0.073   5.355
   85SOL    HW210255   1.142   0.083   5.222
   86SOL     OW10256   0.389   5.727   1.879
   86SOL    HW110257   0.406   5.814   1.832
   86SOL    HW210258   0.401   5.739   1.977
   87SOL     OW10259  -0.014   2.520   1.034
   87SOL    HW110260  -0.045   2.612   1.062
   87SOL    HW210261  -0.045   2.501   0.941
   88SOL     OW10262   4.041   7.411   4.414
   88SOL    HW110263   3.943   7.431   4.409
   88SOL    HW210264   4.077   7.441   4.502
   89SOL     OW10265   1.886   7.015   5.310
   89SOL    HW110266   1.833   6.977   5.385
   89SOL    HW210267   1.964   7.067   5.345
   90SOL     OW10268   1.107   7.934   4.123
   90SOL    HW110269   1.028   7.977   4.167
   90SOL    HW210270   1.077   7.862   4.061
   91SOL     OW10271   1.948   5.575   3.922
   91SOL    HW110272   1.912   5.654   3.972
   91SOL    HW210273   1.926   5.584   3.825
   92SOL     OW10274   4.731   2.747   0.832
   92SOL    HW110275   4.633   2.758   0.850
   92SOL    HW210276   4.744   2.698   0.746
   93SOL     OW10277   6.846   7.459   2.025
   93SOL    HW110278   6.806   7.481   2.114
   93SOL    HW210279   6.778   7.472   1.953
   94SOL     OW10280   0.825   4.660   3.451
   94SOL    HW110281   0.792   4.582   3.398
   94SOL    HW210282   0.846   4.736   3.390
   95SOL     OW10283   2.845   5.353   3.937
   95SOL    HW110284   2.752   5.315   3.938
   95SOL    HW210285   2.875   5.368   3.843
   96SOL     OW10286   1.831   2.880   1.678
   96SOL    HW110287   1.785   2.894   1.766
   96SOL    HW210288   1.879   2.963   1.651
   97SOL     OW10289   1.560   4.210   1.456
   97SOL    HW110290   1.615   4.262   1.521
   97SOL    HW210291   1.518   4.272   1.390
   98SOL     OW10292   0.912   3.817   5.209
   98SOL    HW110293   0.866   3.734   5.176
   98SOL    HW210294   0.857   3.897   5.187
   99SOL     OW10295   0.900   1.327   7.940
   99SOL    HW110296   0.830   1.336   8.010
   99SOL    HW210297   0.906   1.232   7.909
  100SOL     OW10298   2.151   6.728   1.077
  100SOL    HW110299   2.102   6.643   1.058
  100SOL    HW210300   2.246   6.709   1.100
  101SOL     OW10301   2.653   5.565   2.781
  101SOL    HW110302   2.668   5.510   2.864
  101SOL    HW210303   2.639   5.505   2.702
  102SOL     OW10304   6.340   1.682   6.494
  102SOL    HW110305   6.240   1.682   6.486
  102SOL    HW210306   6.367   1.691   6.589
  103SOL     OW10307   6.670   0.083   3.567
  103SOL    HW110308   6.642   0.178   3.582
  103SOL    HW210309   6.769   0.075   3.574
  104SOL     OW10310   1.636   4.197   7.820
  104SOL    HW110311   1.730   4.187   7.788
  104SOL    HW210312   1.628   4.164   7.914
  105SOL     OW10313   4.800   3.944   6.341
  105SOL    HW110314   4.749   4.017   6.295
  105SOL    HW210315   4.864   3.901   6.277
  106SOL     OW10316   6.576   3.873   4.577
  106SOL    HW110317   6.657   3.931   4.569
  106SOL    HW210318   6.543   3.848   4.486
  107SOL     OW10319   5.286   1.887   2.971
  107SOL    HW110320   5.243   1.959   3.027
  107SOL    HW210321   5.233   1.873   2.888
  108SOL     OW10322   0.675   4.474   7.350
  108SOL    HW110323   0.615   4.394   7.343
  108SOL    HW210324   0.653   4.526   7.432
  109SOL     OW10325   1.901   1.848   2.627
  109SOL    HW110326   1.860   1.888   2.545
  109SOL    HW210327   1.839   1.780   2.666
  110SOL     OW10328   1.802   6.865   4.739
  110SOL    HW110329   1.793   6.932   4.664
  110SOL    HW210330   1.769   6.905   4.824
  111SOL     OW10331   4.583   4.235   1.406
  111SOL    HW110332   4.669   4.254   1.359
  111SOL    HW210333   4.591   4.150   1.458
  112SOL     OW10334   4.462   5.744   0.747
  112SOL    HW110335   4.511   5.696   0.674
  112SOL    HW210336   4.371   5.705   0.759
  113SOL     OW10337   0.829   4.745   1.984
  113SOL    HW110338   0.800   4.834   1.947
  113SOL    HW210339   0.791   4.671   1.929
  114SOL     OW10340   6.625   5.327   5.018
  114SOL    HW110341   6.535   5.285   5.026
  114SOL    HW210342   6.662   5.312   4.926
  115SOL     OW10343   7.028   5.629   3.289
  115SOL    HW110344   7.050   5.710   3.234
  115SOL    HW210345   7.098   5.559   3.278
  116SOL     OW10346   6.576   5.833   6.083
  116SOL    HW110347   6.481   5.854   6.108
  116SOL    HW210348   6.610   5.756   6.138
  117SOL     OW10349   0.842   2.447   1.132
  117SOL    HW110350   0.921   2.442   1.192
  117SOL    HW210351   0.795   2.359   1.128
  118SOL     OW10352   6.222   4.575   2.649
  118SOL    HW110353   6.142   4.625   2.682
  118SOL    HW210354   6.210   4.551   2.553
  119SOL     OW10355   4.644   0.370   6.672
  119SOL    HW110356   4.698   0.443   6.714
  119SOL    HW210357   4.692   0.283   6.682
  120SOL     OW10358   6.184   4.985   5.909
  120SOL    HW110359   6.222   5.053   5.972
  120SOL    HW210360   6.168   5.027   5.819
  121SOL     OW10361   4.201   4.406   1.488
  121SOL    HW110362   4.291   4.406   1.442
  121SOL    HW210363   4.208   4.360   1.576
  122SOL     OW10364   6.580   5.239   3.572
  122SOL    HW110365   6.608   5.149   3.540
  122SOL    HW210366   6.552   5.235   3.668
  123SOL     OW10367   5.832   4.203   5.396
  123SOL    HW110368   5.820   4.201   5.296
  123SOL    HW210369   5.836   4.298   5.428
  124SOL     OW10370   3.541   6.373   1.176
  124SOL    HW110371   3.626   6.403   1.221
  124SOL    HW210372   3.498   6.449   1.128
  125SOL     OW10373   2.844   1.678   2.251
  125SOL    HW110374   2.780   1.606   2.280
  125SOL    HW210375   2.873   1.661   2.157
  126SOL     OW10376   4.382   2.382   7.598
  126SOL    HW110377   4.338   2.295   7.577
  126SOL    HW210378   4.393   2.392   7.697
  127SOL     OW10379   6.789   0.241   6.712
  127SOL    HW110380   6.718   0.177   6.741
  127SOL    HW210381   6.852   0.258   6.788
  128SOL     OW10382   5.309   7.848   2.383
  128SOL    HW110383   5.358   7.919   2.331
  128SOL    HW210384   5.221   7.883   2.415
  129SOL     OW10385   4.714   5.170   2.775
  129SOL    HW110386   4.708   5.107   2.853
  129SOL    HW210387   4.739   5.120   2.693
  130SOL     OW10388   5.321   0.211   0.170
  130SOL    HW110389   5.293   0.244   0.079
  130SOL    HW210390   5.240   0.196   0.226
  131SOL     OW10391   4.964   3.663   0.977
  131SOL    HW110392   4.882   3.608   0.959
  131SOL    HW210393   5.026   3.658   0.899
  132SOL     OW10394   2.353   5.504   2.614
  132SOL    HW110395   2.422   5.459   2.671
  132SOL    HW210396   2.269   5.517   2.667
  133SOL     OW10397   0.720   0.234   6.750
  133SOL    HW110398   0.655   0.303   6.717
  133SOL    HW210399   0.766   0.191   6.672
  134SOL     OW10400   0.857   5.118   6.241
  134SOL    HW110401   0.837   5.060   6.162
  134SOL    HW210402   0.956   5.118   6.259
  135SOL     OW10403   3.325   0.270   0.353
  135SOL    HW110404   3.407   0.255   0.409
  135SOL    HW210405   3.255   0.203   0.376
  136SOL     OW10406   7.840   5.158   7.456
  136SOL    HW110407   7.936   5.135   7.438
  136SOL    HW210408   7.813   5.124   7.546
  137SOL     OW10409   0.342   5.421   4.811
  137SOL    HW110410   0.332   5.385   4.903
  137SOL    HW210411   0.311   5.516   4.807
  138SOL     OW10412   6.635   7.438   7.315
  138SOL    HW110413   6.686   7.518   7.347
  138SOL    HW210414   6.605   7.451   7.221
  139SOL     OW10415   2.122   3.167   6.446
  139SOL    HW110416   2.155   3.104   6.516
  139SOL    HW210417   2.043   3.218   6.480
  140SOL     OW10418   3.080   2.878   0.791
  140SOL    HW110419   3.137   2.803   0.759
  140SOL    HW210420   3.077   2.880   0.891
  141SOL     OW10421   6.680   6.457   0.833
  141SOL    HW110422   6.644   6.491   0.920
  141SOL    HW210423   6.766   6.408   0.848
  142SOL     OW10424   3.549   7.512   5.978
  142SOL    HW110425   3.527   7.557   5.892
  142SOL    HW210426   3.648   7.510   5.991
  143SOL     OW10427   4.807   7.948   5.913
  143SOL    HW110428   4.800   7.872   5.848
  143SOL    HW210429   4.898   7.989   5.908
  144SOL     OW10430   4.500   7.246   1.261
  144SOL    HW110431   4.568   7.286   1.199
  144SOL    HW210432   4.491   7.148   1.243
  145SOL     OW10433   3.184   7.255   7.669
  145SOL    HW110434   3.256   7.209   7.721
  145SOL    HW210435   3.204   7.353   7.662
  146SOL     OW10436   3.267   4.633   5.310
  146SOL    HW110437   3.350   4.590   5.346
  146SOL    HW210438   3.284   4.666   5.217
  147SOL     OW10439   0.564   6.288   4.680
  147SOL    HW110440   0.558   6.192   4.650
  147SOL    HW210441   0.524   6.297   4.771
  148SOL     OW10442   1.240   5.267   3.390
  148SOL    HW110443   1.245   5.353   3.339
  148SOL    HW210444   1.321   5.258   3.449
  149SOL     OW10445   1.968   1.483   3.107
  149SOL    HW110446   2.067   1.473   3.113
  149SOL    HW210447   1.927   1.475   3.198
  150SOL     OW10448   7.819   6.234   1.924
  150SOL    HW110449   7.909   6.192   1.920
  150SOL    HW210450   7.787   6.239   2.019
  151SOL     OW10451   7.931   7.115   5.910
  151SOL    HW110452   7.888   7.142   5.824
  151SOL    HW210453   7.925   7.190   5.976
  152SOL     OW10454   5.831   7.595   6.081
  152SOL    HW110455   5.826   7.507   6.128
  152SOL    HW210456   5.767   7.660   6.122
  153SOL     OW10457   2.231   4.140   2.987
  153SOL    HW110458   2.149   4.124   2.931
  153SOL    HW210459   2.268   4.053   3.019
  154SOL     OW10460   7.553   6.245   6.657
  154SOL    HW110461   7.495   6.308   6.708
  154SOL    HW210462   7.500   6.196   6.588
  155SOL     OW10463   5.614   5.196   3.972
  155SOL    HW110464   5.616   5.156   3.881
  155SOL    HW210465   5.705   5.227   3.999
  156SOL     OW10466   5.678   2.486   4.740
  156SOL    HW110467   5.675   2.523   4.647
  156SOL    HW210468   5.651   2.390   4.740
  157SOL     OW10469   1.044   2.367   3.172
  157SOL    HW110470   0.952   2.402   3.154
  157SOL    HW210471   1.090   2.347   3.085
  158SOL     OW10472   6.614   4.975   1.008
  158SOL    HW110473   6.572   5.051   0.957
  158SOL    HW210474   6.608   4.891   0.955
  159SOL     OW10475   5.343   1.367   4.714
  159SOL    HW110476   5.382   1.459   4.725
  159SOL    HW210477   5.343   1.320   4.802
  160SOL     OW10478   5.204   0.624   6.542
  160SOL    HW110479   5.169   0.671   6.461
  160SOL    HW210480   5.149   0.647   6.622
  161SOL     OW10481   6.319   2.437   6.768
  161SOL    HW110482   6.361   2.354   6.804
  161SOL    HW210483   6.354   2.456   6.677
  162SOL     OW10484   6.478   7.732   4.630
  162SOL    HW110485   6.559   7.693   4.588
  162SOL    HW210486   6.456   7.820   4.587
  163SOL     OW10487   1.141   4.988   5.174
  163SOL    HW110488   1.222   4.981   5.116
  163SOL    HW210489   1.147   4.922   5.249
  164SOL     OW10490   3.008   4.326   5.651
  164SOL    HW110491   3.056   4.263   5.712
  164SOL    HW210492   3.067   4.352   5.574
  165SOL     OW10493   7.815   4.824   2.864
  165SOL    HW110494   7.720   4.850   2.882
  165SOL    HW210495   7.820   4.760   2.787
  166SOL     OW10496   2.375   5.305   4.368
  166SOL    HW110497   2.411   5.358   4.445
  166SOL    HW210498   2.411   5.341   4.282
  167SOL     OW10499   5.470   6.407   6.517
  167SOL    HW110500   5.540   6.336   6.524
  167SOL    HW210501   5.509   6.496   6.538
  168SOL     OW10502   1.995   7.171   6.803
  168SOL    HW110503   2.062   7.166   6.729
  168SOL    HW210504   1.999   7.089   6.859
  169SOL     OW10505   7.125   1.217   0.562
  169SOL    HW110506   7.046   1.223   0.623
  169SOL    HW210507   7.184   1.296   0.574
  170SOL     OW10508   4.946   1.337   0.978
  170SOL    HW110509   4.882   1.260   0.988
  170SOL    HW210510   4.960   1.381   1.067
  171SOL     OW10511   2.872   0.061   0.752
  171SOL    HW110512   2.836   0.145   0.793
  171SOL    HW210513   2.803  -0.011   0.755
  172SOL     OW10514   6.872   7.378   6.635
  172SOL    HW110515   6.893   7.407   6.542
  172SOL    HW210516   6.823   7.290   6.633
  173SOL     OW10517   6.852   3.784   1.878
  173SOL    HW110518   6.827   3.841   1.957
  173SOL    HW210519   6.821   3.826   1.794
  174SOL     OW10520   6.374   1.267   4.639
  174SOL    HW110521   6.356   1.271   4.737
  174SOL    HW210522   6.289   1.285   4.588
  175SOL     OW10523   2.078   2.498   0.149
  175SOL    HW110524   2.097   2.578   0.206
  175SOL    HW210525   2.023   2.525   0.070
  176SOL     OW10526   0.940   3.499   7.963
  176SOL    HW110527   0.859   3.544   8.002
  176SOL    HW210528   0.920   3.468   7.870
  177SOL     OW10529   6.002   2.364   0.345
  177SOL    HW110530   6.065   2.363   0.423
  177SOL    HW210531   6.013   2.280   0.291
  178SOL     OW10532   2.277   7.052   2.960
  178SOL    HW110533   2.339   7.083   2.888
  178SOL    HW210534   2.314   6.970   3.004
  179SOL     OW10535   0.495   0.662   2.225
  179SOL    HW110536   0.484   0.678   2.127
  179SOL    HW210537   0.470   0.743   2.277
  180SOL     OW10538   5.628   5.890   5.177
  180SOL    HW110539   5.716   5.930   5.151
  180SOL    HW210540   5.634   5.850   5.269
  181SOL     OW10541   6.683   4.189   2.783
  181SOL    HW110542   6.767   4.159   2.827
  181SOL    HW210543   6.702   4.227   2.692
  182SOL     OW10544   6.102   7.314   4.293
  182SOL    HW110545   6.108   7.413   4.277
  182SOL    HW210546   6.129   7.294   4.388
  183SOL     OW10547   1.138   2.990   6.825
  183SOL    HW110548   1.205   2.917   6.838
  183SOL    HW210549   1.143   3.025   6.732
  184SOL     OW10550   4.380   5.392   5.708
  184SOL    HW110551   4.423   5.356   5.791
  184SOL    HW210552   4.447   5.441   5.653
  185SOL     OW10553   2.787   5.250   1.980
  185SOL    HW110554   2.860   5.190   1.946
  185SOL    HW210555   2.764   5.226   2.074
  186SOL     OW10556   4.320   2.267   2.957
  186SOL    HW110557   4.352   2.348   2.909
  186SOL    HW210558   4.356   2.265   3.051
  187SOL     OW10559   0.467   3.101   0.702
  187SOL    HW110560   0.412   3.183   0.685
  187SOL    HW210561   0.550   3.125   0.753
  188SOL     OW10562   1.989   2.068   6.596
  188SOL    HW110563   1.931   2.084   6.676
  188SOL    HW210564   1.935   2.026   6.522
  189SOL     OW10565   5.552   1.407   3.929
  189SOL    HW110566   5.501   1.347   3.992
  189SOL    HW210567   5.534   1.380   3.835
  190SOL     OW10568   2.663   0.723   6.511
  190SOL    HW110569   2.685   0.625   6.507
  190SOL    HW210570   2.740   0.777   6.477
  191SOL     OW10571   0.546   7.287   4.346
  191SOL    HW110572   0.475   7.223   4.316
  191SOL    HW210573   0.522   7.324   4.436
  192SOL     OW10574   1.034   4.223   4.567
  192SOL    HW110575   1.115   4.243   4.622
  192SOL    HW210576   0.958   4.196   4.626
  193SOL     OW10577   2.186   5.181   2.940
  193SOL    HW110578   2.231   5.113   2.997
  193SOL    HW210579   2.208   5.273   2.972
  194SOL     OW10580   2.941   2.455   5.743
  194SOL    HW110581   2.881   2.524   5.783
  194SOL    HW210582   3.004   2.420   5.812
  195SOL     OW10583   2.839   7.005   1.219
  195SOL    HW110584   2.872   6.987   1.312
  195SOL    HW210585   2.833   7.104   1.204
  196SOL     OW10586   1.927   2.192   3.824
  196SOL    HW110587   2.019   2.163   3.794
  196SOL    HW210588   1.882   2.117   3.872
  197SOL     OW10589   3.549   4.620   1.762
  197SOL    HW110590   3.566   4.632   1.664
  197SOL    HW210591   3.537   4.709   1.805
  198SOL     OW10592   3.396   0.227   7.675
  198SOL    HW110593   3.380   0.148   7.616
  198SOL    HW210594   3.494   0.238   7.692
  199SOL     OW10595   7.269   5.064   5.390
  199SOL    HW110596   7.228   4.976   5.367
  199SOL    HW210597   7.333   5.092   5.319
  200SOL     OW10598   7.718   7.451   1.574
  200SOL    HW110599   7.746   7.540   1.538
  200SOL    HW210600   7.780   7.380   1.540
  201SOL     OW10601   6.186   3.443   4.848
  201SOL    HW110602   6.266   3.394   4.884
  201SOL    HW210603   6.156   3.512   4.913
  202SOL     OW10604   3.103   5.162   2.855
  202SOL    HW110605   3.087   5.112   2.941
  202SOL    HW210606   3.195   5.141   2.821
  203SOL     OW10607   5.077   0.581   0.961
  203SOL    HW110608   5.174   0.606   0.971
  203SOL    HW210609   5.022   0.633   1.025
  204SOL     OW10610   2.642   4.498   5.833
  204SOL    HW110611   2.658   4.421   5.771
  204SOL    HW210612   2.550   4.494   5.870
  205SOL     OW10613   3.450   2.065   4.360
  205SOL    HW110614   3.503   2.008   4.298
  205SOL    HW210615   3.377   2.012   4.402
  206SOL     OW10616   1.881   2.357   0.060
  206SOL    HW110617   1.814   2.393   0.125
  206SOL    HW210618   1.889   2.258   0.069
  207SOL     OW10619   5.391   2.199   0.886
  207SOL    HW110620   5.344   2.133   0.826
  207SOL    HW210621   5.333   2.221   0.965
  208SOL     OW10622   0.197   0.633   4.074
  208SOL    HW110623   0.134   0.621   3.996
  208SOL    HW210624   0.196   0.728   4.105
  209SOL     OW10625   2.027   1.930   0.809
  209SOL    HW110626   1.980   2.018   0.797
  209SOL    HW210627   1.960   1.859   0.830
  210SOL     OW10628   3.350   4.179   6.186
  210SOL    HW110629   3.405   4.099   6.163
  210SOL    HW210630   3.392   4.261   6.147
  211SOL     OW10631   0.385   5.107   6.364
  211SOL    HW110632   0.468   5.161   6.353
  211SOL    HW210633   0.362   5.061   6.278
  212SOL     OW10634   7.120   3.976   3.363
  212SOL    HW110635   7.154   3.893   3.407
  212SOL    HW210636   7.045   4.014   3.417
  213SOL     OW10637   0.037   7.214   7.560
  213SOL    HW110638  -0.024   7.291   7.577
  213SOL    HW210639   0.118   7.222   7.619
  214SOL     OW10640   3.771   3.545   5.738
  214SOL    HW110641   3.673   3.567   5.747
  214SOL    HW210642   3.801   3.561   5.644
  215SOL     OW10643   1.068   1.826   3.392
  215SOL    HW110644   1.038   1.736   3.425
  215SOL    HW210645   1.106   1.818   3.300
  216SOL     OW10646   5.827   1.508   4.502
  216SOL    HW110647   5.914   1.557   4.490
  216SOL    HW210648   5.781   1.499   4.414
  217SOL     OW10649   2.280   0.166   4.880
  217SOL    HW110650   2.328   0.143   4.965
  217SOL    HW210651   2.320   0.115   4.804
  218SOL     OW10652   6.246   2.670   4.953
  218SOL    HW110653   6.329   2.705   4.909
  218SOL    HW210654   6.253   2.572   4.969
  219SOL     OW10655   7.298   1.170   3.880
  219SOL    HW110656   7.213   1.160   3.830
  219SOL    HW210657   7.358   1.235   3.834
  220SOL     OW10658   1.781   0.089   0.890
  220SOL    HW110659   1.708   0.154   0.871
  220SOL    HW210660   1.834   0.120   0.969
  221SOL     OW10661   4.804   3.778   6.847
  221SOL    HW110662   4.812   3.870   6.886
  221SOL    HW210663   4.767   3.783   6.754
  222SOL     OW10664   4.122   6.165   3.989
  222SOL    HW110665   4.023   6.156   3.977
  222SOL    HW210666   4.147   6.145   4.083
  223SOL     OW10667   0.987   4.838   0.480
  223SOL    HW110668   1.084   4.864   0.482
  223SOL    HW210669   0.972   4.761   0.542
  224SOL     OW10670   0.380   6.267   7.208
  224SOL    HW110671   0.424   6.337   7.265
  224SOL    HW210672   0.287   6.250   7.242
  225SOL     OW10673   2.954   4.238   0.082
  225SOL    HW110674   2.973   4.142   0.062
  225SOL    HW210675   3.003   4.297   0.018
  226SOL     OW10676   1.691   7.904   1.339
  226SOL    HW110677   1.757   7.863   1.402
  226SOL    HW210678   1.711   7.874   1.245
  227SOL     OW10679   1.101   1.593   5.577
  227SOL    HW110680   1.170   1.550   5.636
  227SOL    HW210681   1.123   1.575   5.481
  228SOL     OW10682   5.722   3.789   7.301
  228SOL    HW110683   5.635   3.835   7.283
  228SOL    HW210684   5.729   3.706   7.247
  229SOL     OW10685   7.137   4.789   1.763
  229SOL    HW110686   7.194   4.817   1.840
  229SOL    HW210687   7.066   4.725   1.794
  230SOL     OW10688   4.137   2.327   3.328
  230SOL    HW110689   4.222   2.363   3.288
  230SOL    HW210690   4.067   2.319   3.258
  231SOL     OW10691   5.142   4.162   7.924
  231SOL    HW110692   5.103   4.253   7.937
  231SOL    HW210693   5.116   4.127   7.834
  232SOL     OW10694   3.639   0.339   0.866
  232SOL    HW110695   3.596   0.298   0.947
  232SOL    HW210696   3.583   0.415   0.833
  233SOL     OW10697   3.429   5.526   4.671
  233SOL    HW110698   3.488   5.590   4.720
  233SOL    HW210699   3.427   5.550   4.574
  234SOL     OW10700   0.943   3.371   7.261
  234SOL    HW110701   0.873   3.412   7.202
  234SOL    HW210702   0.916   3.380   7.357
  235SOL     OW10703   2.476   7.675   7.921
  235SOL    HW110704   2.468   7.625   7.834
  235SOL    HW210705   2.554   7.736   7.917
  236SOL     OW10706   7.625   4.401   7.556
  236SOL    HW110707   7.709   4.368   7.511
  236SOL    HW210708   7.637   4.399   7.655
  237SOL     OW10709   5.360   4.928   2.544
  237SOL    HW110710   5.428   4.861   2.518
  237SOL    HW210711   5.324   4.908   2.636
  238SOL     OW10712   3.813   5.626   3.702
  238SOL    HW110713   3.913   5.619   3.701
  238SOL    HW210714   3.772   5.545   3.660
  239SOL     OW10715   3.507   7.141   3.661
  239SOL    HW110716   3.586   7.154   3.722
  239SOL    HW210717   3.527   7.070   3.594
  240SOL     OW10718   6.712   1.398   0.854
  240SOL    HW110719   6.771   1.321   0.880
  240SOL    HW210720   6.616   1.369   0.854
  241SOL     OW10721   2.110   7.298   7.236
  241SOL    HW110722   2.022   7.329   7.275
  241SOL    HW210723   2.173   7.375   7.230
  242SOL     OW10724   5.205   2.023   6.671
  242SOL    HW110725   5.120   1.976   6.695
  242SOL    HW210726   5.208   2.113   6.714
  243SOL     OW10727   3.979   3.782   7.296
  243SOL    HW110728   3.919   3.709   7.330
  243SOL    HW210729   4.003   3.765   7.201
  244SOL     OW10730   6.017   1.052   6.203
  244SOL    HW110731   6.027   1.148   6.175
  244SOL    HW210732   5.955   1.045   6.281
  245SOL     OW10733   3.992   4.714   3.610
  245SOL    HW110734   4.076   4.764   3.589
  245SOL    HW210735   3.993   4.684   3.705
  246SOL     OW10736   6.750   5.946   0.241
  246SOL    HW110737   6.721   5.885   0.167
  246SOL    HW210738   6.719   5.910   0.328
  247SOL     OW10739   1.654   2.891   6.908
  247SOL    HW110740   1.663   2.793   6.894
  247SOL    HW210741   1.725   2.940   6.857
  248SOL     OW10742   2.463   3.917   0.369
  248SOL    HW110743   2.543   3.892   0.313
  248SOL    HW210744   2.494   3.957   0.456
  249SOL     OW10745   6.386   5.273   2.895
  249SOL    HW110746   6.308   5.334   2.879
  249SOL    HW210747   6.398   5.260   2.993
  250SOL     OW10748   5.307   3.101   4.848
  250SOL    HW110749   5.212   3.111   4.817
  250SOL    HW210750   5.318   3.139   4.940
  251SOL     OW10751   4.481   0.613   3.680
  251SOL    HW110752   4.459   0.670   3.601
  251SOL    HW210753   4.415   0.538   3.687
  252SOL     OW10754   7.204   4.278   5.594
  252SOL    HW110755   7.229   4.208   5.662
  252SOL    HW210756   7.280   4.294   5.531
  253SOL     OW10757   1.088   2.043   5.993
  253SOL    HW110758   1.018   2.110   5.970
  253SOL    HW210759   1.174   2.089   6.012
  254SOL     OW10760   2.770   2.594   5.521
  254SOL    HW110761   2.706   2.529   5.562
  254SOL    HW210762   2.820   2.644   5.593
  255SOL     OW10763   5.158   5.474   3.015
  255SOL    HW110764   5.218   5.401   2.984
  255SOL    HW210765   5.149   5.471   3.115
  256SOL     OW10766   3.024   2.648   2.498
  256SOL    HW110767   3.112   2.658   2.545
  256SOL    HW210768   3.004   2.730   2.446
  257SOL     OW10769   2.192   3.818   2.249
  257SOL    HW110770   2.139   3.744   2.290
  257SOL    HW210771   2.177   3.821   2.150
  258SOL     OW10772   2.756   2.161   3.259
  258SOL    HW110773   2.789   2.248   3.298
  258SOL    HW210774   2.722   2.177   3.166
  259SOL     OW10775   0.050   4.439   4.925
  259SOL    HW110776   0.019   4.533   4.912
  259SOL    HW210777   0.149   4.433   4.912
  260SOL     OW10778   1.912   3.881   0.534
  260SOL    HW110779   1.979   3.941   0.490
  260SOL    HW210780   1.882   3.920   0.620
  261SOL     OW10781   7.911   2.536   0.833
  261SOL    HW110782   7.860   2.621   0.824
  261SOL    HW210783   7.903   2.501   0.926
  262SOL     OW10784   2.202   3.394   6.654
  262SOL    HW110785   2.273   3.454   6.618
  262SOL    HW210786   2.125   3.390   6.591
  263SOL     OW10787   0.550   3.496   2.051
  263SOL    HW110788   0.595   3.445   2.125
  263SOL    HW210789   0.528   3.588   2.081
  264SOL     OW10790   0.676   6.808   5.825
  264SOL    HW110791   0.588   6.791   5.781
  264SOL    HW210792   0.711   6.898   5.798
  265SOL     OW10793   1.808   7.426   2.302
  265SOL    HW110794   1.751   7.498   2.261
  265SOL    HW210795   1.845   7.457   2.390
  266SOL     OW10796   5.571   0.976   1.156
  266SOL    HW110797   5.666   1.007   1.165
  266SOL    HW210798   5.569   0.876   1.145
  267SOL     OW10799   0.839   1.838   4.584
  267SOL    HW110800   0.849   1.759   4.523
  267SOL    HW210801   0.749   1.836   4.627
  268SOL     OW10802   5.149   0.351   3.360
  268SOL    HW110803   5.217   0.284   3.390
  268SOL    HW210804   5.095   0.314   3.285
  269SOL     OW10805   5.248   7.798   4.623
  269SOL    HW110806   5.192   7.784   4.541
  269SOL    HW210807   5.207   7.870   4.680
  270SOL     OW10808   6.274   7.270   6.543
  270SOL    HW110809   6.355   7.261   6.486
  270SOL    HW210810   6.232   7.180   6.556
  271SOL     OW10811   7.072   7.512   5.277
  271SOL    HW110812   7.164   7.538   5.309
  271SOL    HW210813   7.004   7.539   5.345
  272SOL     OW10814   7.867   7.467   7.840
  272SOL    HW110815   7.776   7.507   7.823
  272SOL    HW210816   7.930   7.537   7.873
  273SOL     OW10817   5.620   6.868   0.376
  273SOL    HW110818   5.565   6.946   0.407
  273SOL    HW210819   5.564   6.806   0.322
  274SOL     OW10820   3.782   7.220   6.997
  274SOL    HW110821   3.786   7.122   7.017
  274SOL    HW210822   3.822   7.238   6.907
  275SOL     OW10823   4.542   1.767   0.573
  275SOL    HW110824   4.498   1.709   0.504
  275SOL    HW210825   4.474   1.799   0.639
  276SOL     OW10826   5.730   0.604   5.082
  276SOL    HW110827   5.791   0.556   5.020
  276SOL    HW210828   5.700   0.690   5.041
  277SOL     OW10829   6.145   6.076   5.511
  277SOL    HW110830   6.220   6.121   5.561
  277SOL    HW210831   6.139   6.112   5.418
  278SOL     OW10832   6.054   4.477   7.316
  278SOL    HW110833   5.959   4.453   7.296
  278SOL    HW210834   6.068   4.575   7.301
  279SOL     OW10835   7.469   0.297   4.933
  279SOL    HW110836   7.554   0.245   4.923
  279SOL    HW210837   7.395   0.236   4.962
  280SOL     OW10838   1.269   4.963   0.365
  280SOL    HW110839   1.296   4.916   0.450
  280SOL    HW210840   1.215   4.902   0.308
  281SOL     OW10841   2.854   6.023   3.794
  281SOL    HW110842   2.816   6.115   3.801
  281SOL    HW210843   2.809   5.973   3.719
  282SOL     OW10844   0.144   4.605   1.014
  282SOL    HW110845   0.187   4.614   1.103
  282SOL    HW210846   0.066   4.668   1.007
  283SOL     OW10847   6.954   1.619   7.461
  283SOL    HW110848   6.880   1.683   7.479
  283SOL    HW210849   7.031   1.666   7.417
  284SOL     OW10850   6.303   1.263   0.201
  284SOL    HW110851   6.394   1.276   0.242
  284SOL    HW210852   6.233   1.278   0.270
  285SOL     OW10853   7.724   0.993   3.980
  285SOL    HW110854   7.632   0.991   3.941
  285SOL    HW210855   7.753   0.900   4.003
  286SOL     OW10856   3.443   4.416   1.542
  286SOL    HW110857   3.367   4.352   1.554
  286SOL    HW210858   3.418   4.487   1.475
  287SOL     OW10859   4.073   6.229   6.285
  287SOL    HW110860   3.998   6.170   6.317
  287SOL    HW210861   4.095   6.297   6.355
  288SOL     OW10862   4.101   6.704   4.109
  288SOL    HW110863   4.019   6.675   4.158
  288SOL    HW210864   4.112   6.650   4.025
  289SOL     OW10865   2.966   3.251   3.001
  289SOL    HW110866   3.035   3.254   3.073
  289SOL    HW210867   3.004   3.286   2.916
  290SOL     OW10868   0.880   7.262   7.386
  290SOL    HW110869   0.952   7.281   7.319
  290SOL    HW210870   0.791   7.273   7.344
  291SOL     OW10871   6.327   0.343   3.302
  291SOL    HW110872   6.278   0.350   3.388
  291SOL    HW210873   6.362   0.250   3.290
  292SOL     OW10874   6.264   1.593   6.156
  292SOL    HW110875   6.198   1.526   6.124
  292SOL    HW210876   6.237   1.628   6.246
  293SOL     OW10877   2.385   4.988   1.107
  293SOL    HW110878   2.371   4.934   1.190
  293SOL    HW210879   2.301   5.038   1.084
  294SOL     OW10880   3.493   0.965   2.045
  294SOL    HW110881   3.515   1.053   2.003
  294SOL    HW210882   3.438   0.979   2.127
  295SOL     OW10883   3.674   7.208   2.928
  295SOL    HW110884   3.635   7.300   2.921
  295SOL    HW210885   3.718   7.197   3.017
  296SOL     OW10886   5.748   5.855   4.712
  296SOL    HW110887   5.843   5.826   4.716
  296SOL    HW210888   5.712   5.844   4.620
  297SOL     OW10889   1.798   4.804   0.822
  297SOL    HW110890   1.763   4.711   0.813
  297SOL    HW210891   1.825   4.839   0.733
  298SOL     OW10892   4.433   0.743   0.604
  298SOL    HW110893   4.454   0.785   0.692
  298SOL    HW210894   4.339   0.764   0.577
  299SOL     OW10895   2.154   0.567   7.494
  299SOL    HW110896   2.235   0.610   7.535
  299SOL    HW210897   2.133   0.609   7.406
  300SOL     OW10898   2.791   1.864   1.855
  300SOL    HW110899   2.791   1.778   1.906
  300SOL    HW210900   2.875   1.915   1.874
  301SOL     OW10901   1.231   1.123   7.041
  301SOL    HW110902   1.200   1.034   7.073
  301SOL    HW210903   1.244   1.121   6.941
  302SOL     OW10904   0.280   7.029   2.681
  302SOL    HW110905   0.215   7.035   2.756
  302SOL    HW210906   0.236   6.990   2.600
  303SOL     OW10907   7.722   3.001   6.235
  303SOL    HW110908   7.806   3.015   6.289
  303SOL    HW210909   7.658   3.076   6.251
  304SOL     OW10910   2.372   0.018   5.487
  304SOL    HW110911   2.438   0.092   5.474
  304SOL    HW210912   2.355   0.005   5.584
  305SOL     OW10913   7.417   5.021   4.040
  305SOL    HW110914   7.486   5.092   4.027
  305SOL    HW210915   7.435   4.972   4.125
  306SOL     OW10916   0.747   5.042   2.285
  306SOL    HW110917   0.756   5.097   2.202
  306SOL    HW210918   0.829   5.051   2.341
  307SOL     OW10919   6.982   3.902   7.653
  307SOL    HW110920   7.060   3.844   7.630
  307SOL    HW210921   6.942   3.940   7.569
  308SOL     OW10922   3.273   4.921   0.653
  308SOL    HW110923   3.335   4.846   0.674
  308SOL    HW210924   3.313   4.979   0.581
  309SOL     OW10925   3.665   5.643   4.104
  309SOL    HW110926   3.609   5.600   4.033
  309SOL    HW210927   3.618   5.724   4.140
  310SOL     OW10928   0.232   7.460   1.038
  310SOL    HW110929   0.217   7.559   1.034
  310SOL    HW210930   0.162   7.417   1.094
  311SOL     OW10931   1.058   4.333   4.023
  311SOL    HW110932   1.145   4.293   3.993
  311SOL    HW210933   1.034   4.300   4.114
  312SOL     OW10934   5.553   0.252   0.807
  312SOL    HW110935   5.643   0.251   0.852
  312SOL    HW210936   5.559   0.297   0.718
  313SOL     OW10937   6.563   1.821   3.398
  313SOL    HW110938   6.635   1.872   3.446
  313SOL    HW210939   6.550   1.859   3.307
  314SOL     OW10940   5.240   6.100   3.172
  314SOL    HW110941   5.183   6.182   3.182
  314SOL    HW210942   5.322   6.109   3.228
  315SOL     OW10943   4.729   1.405   6.895
  315SOL    HW110944   4.647   1.362   6.933
  315SOL    HW210945   4.746   1.372   6.802
  316SOL     OW10946   7.634   0.260   2.806
  316SOL    HW110947   7.678   0.310   2.880
  316SOL    HW210948   7.548   0.304   2.781
  317SOL     OW10949   5.552   0.292   3.157
  317SOL    HW110950   5.619   0.230   3.114
  317SOL    HW210951   5.527   0.256   3.247
  318SOL     OW10952   6.167   4.748   6.753
  318SOL    HW110953   6.236   4.813   6.723
  318SOL    HW210954   6.175   4.732   6.852
  319SOL     OW10955   1.608   7.335   2.123
  319SOL    HW110956   1.684   7.279   2.157
  319SOL    HW210957   1.643   7.419   2.082
  320SOL     OW10958   1.991   1.793   6.414
  320SOL    HW110959   2.085   1.766   6.433
  320SOL    HW210960   1.939   1.800   6.499
  321SOL     OW10961   7.477   7.637   6.846
  321SOL    HW110962   7.471   7.539   6.866
  321SOL    HW210963   7.394   7.683   6.877
  322SOL     OW10964   4.592   7.476   2.152
  322SOL    HW110965   4.658   7.540   2.111
  322SOL    HW210966   4.516   7.527   2.192
  323SOL     OW10967   4.680   4.669   2.193
  323SOL    HW110968   4.697   4.598   2.262
  323SOL    HW210969   4.731   4.649   2.110
  324SOL     OW10970   4.679   6.928   4.625
  324SOL    HW110971   4.715   6.842   4.590
  324SOL    HW210972   4.637   6.914   4.715
  325SOL     OW10973   2.985   4.030   1.201
  325SOL    HW110974   3.035   3.997   1.281
  325SOL    HW210975   3.046   4.087   1.145
  326SOL     OW10976   4.702   1.439   6.425
  326SOL    HW110977   4.620   1.490   6.397
  326SOL    HW210978   4.762   1.498   6.478
  327SOL     OW10979   7.443   3.793   7.363
  327SOL    HW110980   7.379   3.853   7.410
  327SOL    HW210981   7.421   3.788   7.266
  328SOL     OW10982   0.770   6.644   4.931
  328SOL    HW110983   0.791   6.730   4.979
  328SOL    HW210984   0.716   6.663   4.849
  329SOL     OW10985   2.225   1.794   3.818
  329SOL    HW110986   2.267   1.709   3.849
  329SOL    HW210987   2.253   1.813   3.723
  330SOL     OW10988   1.867   1.119   1.099
  330SOL    HW110989   1.940   1.162   1.045
  330SOL    HW210990   1.906   1.047   1.156
  331SOL     OW10991   3.845   2.099   3.388
  331SOL    HW110992   3.868   2.035   3.461
  331SOL    HW210993   3.901   2.181   3.396
  332SOL     OW10994   2.464   7.081   2.707
  332SOL    HW110995   2.524   7.002   2.705
  332SOL    HW210996   2.411   7.087   2.622
  333SOL     OW10997   0.107   2.456   4.311
  333SOL    HW110998   0.198   2.442   4.272
  333SOL    HW210999   0.050   2.509   4.249
  334SOL     OW11000   4.170   4.690   0.844
  334SOL    HW111001   4.252   4.744   0.827
  334SOL    HW211002   4.175   4.648   0.935
  335SOL     OW11003   1.228   7.013   5.021
  335SOL    HW111004   1.307   6.971   4.976
  335SOL    HW211005   1.207   6.965   5.106
  336SOL     OW11006   1.543   1.088   5.534
  336SOL    HW111007   1.619   1.102   5.470
  336SOL    HW211008   1.481   1.166   5.530
  337SOL     OW11009   7.043   4.854   4.537
  337SOL    HW111010   6.960   4.890   4.579
  337SOL    HW211011   7.037   4.861   4.438
  338SOL     OW11012   5.736   1.370   0.150
  338SOL    HW111013   5.746   1.285   0.202
  338SOL    HW211014   5.768   1.357   0.056
  339SOL     OW11015   5.698   7.189   1.077
  339SOL    HW111016   5.645   7.272   1.094
  339SOL    HW211017   5.770   7.181   1.146
  340SOL     OW11018   3.771   6.625   0.126
  340SOL    HW111019   3.706   6.576   0.184
  340SOL    HW211020   3.857   6.640   0.174
  341SOL     OW11021   0.992   0.890   7.325
  341SOL    HW111022   0.894   0.872   7.336
  341SOL    HW211023   1.040   0.805   7.307
  342SOL     OW11024   3.888   0.613   7.596
  342SOL    HW111025   3.793   0.621   7.567
  342SOL    HW211026   3.892   0.591   7.694
  343SOL     OW11027   5.720   5.525   5.243
  343SOL    HW111028   5.764   5.611   5.267
  343SOL    HW211029   5.673   5.534   5.155
  344SOL     OW11030   5.273   0.613   7.971
  344SOL    HW111031   5.226   0.543   7.918
  344SOL    HW211032   5.263   0.702   7.927
  345SOL     OW11033   4.352   6.144   4.384
  345SOL    HW111034   4.265   6.188   4.362
  345SOL    HW211035   4.375   6.077   4.313
  346SOL     OW11036   5.637   4.328   4.761
  346SOL    HW111037   5.547   4.313   4.800
  346SOL    HW211038   5.630   4.345   4.663
  347SOL     OW11039   7.856   5.972   1.329
  347SOL    HW111040   7.776   6.011   1.375
  347SOL    HW211041   7.849   5.872   1.328
  348SOL     OW11042   0.401   6.705   4.064
  348SOL    HW111043   0.358   6.680   4.151
  348SOL    HW211044   0.412   6.624   4.007
  349SOL     OW11045   2.457   1.871   2.577
  349SOL    HW111046   2.424   1.837   2.488
  349SOL    HW211047   2.380   1.884   2.639
  350SOL     OW11048   7.728   4.414   1.130
  350SOL    HW111049   7.809   4.467   1.103
  350SOL    HW211050   7.752   4.316   1.135
  351SOL     OW11051   1.415   5.833   2.060
  351SOL    HW111052   1.334   5.805   2.008
  351SOL    HW211053   1.420   5.932   2.066
  352SOL     OW11054   2.152   2.179   6.295
  352SOL    HW111055   2.160   2.278   6.301
  352SOL    HW211056   2.185   2.136   6.379
  353SOL     OW11057   6.588   2.590   5.421
  353SOL    HW111058   6.654   2.522   5.453
  353SOL    HW211059   6.508   2.592   5.481
  354SOL     OW11060   4.187   5.135   6.765
  354SOL    HW111061   4.178   5.232   6.787
  354SOL    HW211062   4.283   5.112   6.749
  355SOL     OW11063   7.751   5.784   6.055
  355SOL    HW111064   7.847   5.784   6.026
  355SOL    HW211065   7.693   5.753   5.980
  356SOL     OW11066   2.693   5.718   4.853
  356SOL    HW111067   2.714   5.809   4.817
  356SOL    HW211068   2.683   5.723   4.953
  357SOL     OW11069   3.412   0.554   0.102
  357SOL    HW111070   3.349   0.591   0.034
  357SOL    HW211071   3.417   0.616   0.181
  358SOL     OW11072   4.792   4.144   2.771
  358SOL    HW111073   4.773   4.144   2.673
  358SOL    HW211074   4.885   4.111   2.788
  359SOL     OW11075   4.830   2.578   6.373
  359SOL    HW111076   4.824   2.507   6.444
  359SOL    HW211077   4.914   2.566   6.321
  360SOL     OW11078   1.812   3.266   0.707
  360SOL    HW111079   1.825   3.184   0.763
  360SOL    HW211080   1.865   3.258   0.623
  361SOL     OW11081   1.121   5.140   4.956
  361SOL    HW111082   1.108   5.047   4.921
  361SOL    HW211083   1.218   5.158   4.970
  362SOL     OW11084   7.737   0.855   4.712
  362SOL    HW111085   7.798   0.790   4.757
  362SOL    HW211086   7.766   0.871   4.618
  363SOL     OW11087   7.513   1.113   7.360
  363SOL    HW111088   7.527   1.023   7.402
  363SOL    HW211089   7.546   1.111   7.265
  364SOL     OW11090   4.638   4.522   3.829
  364SOL    HW111091   4.558   4.462   3.829
  364SOL    HW211092   4.720   4.469   3.806
  365SOL     OW11093   3.669   5.029   3.500
  365SOL    HW111094   3.675   4.965   3.577
  365SOL    HW211095   3.617   4.988   3.425
  366SOL     OW11096   4.587   0.550   4.043
  366SOL    HW111097   4.565   0.640   4.078
  366SOL    HW211098   4.555   0.480   4.107
  367SOL     OW11099   1.770   4.498   5.717
  367SOL    HW111100   1.807   4.590   5.719
  367SOL    HW211101   1.829   4.438   5.662
  368SOL     OW11102   3.461   6.841   0.433
  368SOL    HW111103   3.545   6.787   0.432
  368SOL    HW211104   3.464   6.910   0.361
  369SOL     OW11105   3.867   2.228   6.046
  369SOL    HW111106   3.853   2.132   6.021
  369SOL    HW211107   3.874   2.237   6.145
  370SOL     OW11108   3.704   7.018   0.541
  370SOL    HW111109   3.715   6.979   0.633
  370SOL    HW211110   3.648   7.101   0.545
  371SOL     OW11111   7.660   2.896   4.364
  371SOL    HW111112   7.583   2.936   4.313
  371SOL    HW211113   7.690   2.959   4.436
  372SOL     OW11114   2.913   4.111   1.641
  372SOL    HW111115   2.941   4.207   1.636
  372SOL    HW211116   2.977   4.060   1.698
  373SOL     OW11117   7.338   6.100   1.678
  373SOL    HW111118   7.304   6.158   1.604
  373SOL    HW211119   7.438   6.104   1.681
  374SOL     OW11120   0.804   6.204   6.096
  374SOL    HW111121   0.769   6.123   6.143
  374SOL    HW211122   0.898   6.222   6.122
  375SOL     OW11123   1.760   6.286   1.999
  375SOL    HW111124   1.798   6.221   1.933
  375SOL    HW211125   1.776   6.379   1.967
  376SOL     OW11126   4.548   3.445   2.116
  376SOL    HW111127   4.494   3.429   2.033
  376SOL    HW211128   4.631   3.496   2.093
  377SOL     OW11129   3.079   1.220   1.503
  377SOL    HW111130   3.149   1.245   1.436
  377SOL    HW211131   3.021   1.299   1.523
  378SOL     OW11132   3.082   4.370   6.420
  378SOL    HW111133   3.159   4.380   6.482
  378SOL    HW211134   3.102   4.301   6.350
  379SOL     OW11135   3.236   0.168   1.475
  379SOL    HW111136   3.330   0.135   1.480
  379SOL    HW211137   3.176   0.096   1.441
  380SOL     OW11138   0.338   0.312   2.980
  380SOL    HW111139   0.429   0.299   3.019
  380SOL    HW211140   0.335   0.271   2.889
  381SOL     OW11141   1.118   3.051   7.393
  381SOL    HW111142   1.152   2.969   7.439
  381SOL    HW211143   1.174   3.071   7.313
  382SOL     OW11144   7.222   0.123   3.929
  382SOL    HW111145   7.233   0.135   4.028
  382SOL    HW211146   7.288   0.181   3.881
  383SOL     OW11147   6.527   3.935   0.465
  383SOL    HW111148   6.486   3.905   0.379
  383SOL    HW211149   6.482   3.890   0.542
  384SOL     OW11150   1.003   2.435   4.262
  384SOL    HW111151   1.044   2.524   4.284
  384SOL    HW211152   0.927   2.448   4.199
  385SOL     OW11153   6.885   0.844   0.762
  385SOL    HW111154   6.851   0.851   0.668
  385SOL    HW211155   6.832   0.775   0.812
  386SOL     OW11156   5.183   0.478   3.539
  386SOL    HW111157   5.250   0.552   3.528
  386SOL    HW211158   5.100   0.514   3.581
  387SOL     OW11159   5.875   2.232   7.173
  387SOL    HW111160   5.925   2.156   7.213
  387SOL    HW211161   5.929   2.274   7.100
  388SOL     OW11162   7.045   6.812   7.849
  388SOL    HW111163   7.042   6.894   7.791
  388SOL    HW211164   7.058   6.838   7.944
  389SOL     OW11165   6.844   3.610   1.195
  389SOL    HW111166   6.788   3.692   1.181
  389SOL    HW211167   6.927   3.615   1.141
  390SOL     OW11168   2.366   4.230   6.937
  390SOL    HW111169   2.285   4.257   6.885
  390SOL    HW211170   2.356   4.137   6.970
  391SOL     OW11171   3.549   3.952   2.475
  391SOL    HW111172   3.533   4.049   2.454
  391SOL    HW211173   3.606   3.943   2.557
  392SOL     OW11174   5.278   4.367   0.305
  392SOL    HW111175   5.204   4.304   0.279
  392SOL    HW211176   5.355   4.357   0.242
  393SOL     OW11177   7.324   5.316   6.519
  393SOL    HW111178   7.324   5.319   6.418
  393SOL    HW211179   7.416   5.294   6.552
  394SOL     OW11180   3.087   2.495   5.419
  394SOL    HW111181   3.103   2.584   5.461
  394SOL    HW211182   3.005   2.498   5.362
  395SOL     OW11183   1.248   0.503   6.343
  395SOL    HW111184   1.278   0.598   6.349
  395SOL    HW211185   1.150   0.496   6.360
  396SOL     OW11186   0.753   4.102   2.462
  396SOL    HW111187   0.694   4.125   2.539
  396SOL    HW211188   0.842   4.072   2.496
  397SOL     OW11189   1.236   0.313   5.259
  397SOL    HW111190   1.238   0.284   5.163
  397SOL    HW211191   1.266   0.408   5.266
  398SOL     OW11192   0.373   6.619   5.935
  398SOL    HW111193   0.461   6.662   5.956
  398SOL    HW211194   0.367   6.599   5.838
  399SOL     OW11195   6.708   1.876   5.948
  399SOL    HW111196   6.613   1.907   5.955
  399SOL    HW211197   6.753   1.886   6.037
  400SOL     OW11198   3.967   5.294   1.118
  400SOL    HW111199   3.973   5.378   1.171
  400SOL    HW211200   3.904   5.230   1.161
  401SOL     OW11201   5.839   6.955   1.406
  401SOL    HW111202   5.790   7.019   1.347
  401SOL    HW211203   5.795   6.952   1.497
  402SOL     OW11204   5.014   6.918   4.936
  402SOL    HW111205   4.922   6.958   4.933
  402SOL    HW211206   5.072   6.971   4.998
  403SOL     OW11207   5.601   4.378   0.333
  403SOL    HW111208   5.573   4.380   0.237
  403SOL    HW211209   5.653   4.294   0.352
  404SOL     OW11210   6.713   3.269   3.784
  404SOL    HW111211   6.659   3.246   3.703
  404SOL    HW211212   6.769   3.350   3.766
  405SOL     OW11213   4.830   5.520   4.158
  405SOL    HW111214   4.788   5.610   4.145
  405SOL    HW211215   4.892   5.522   4.237
  406SOL     OW11216   3.910   6.795   0.391
  406SOL    HW111217   3.865   6.722   0.442
  406SOL    HW211218   3.996   6.762   0.351
  407SOL     OW11219   1.246   2.662   6.752
  407SOL    HW111220   1.161   2.679   6.803
  407SOL    HW211221   1.225   2.633   6.659
  408SOL     OW11222   0.579   2.055   2.271
  408SOL    HW111223   0.530   1.974   2.240
  408SOL    HW211224   0.637   2.032   2.350
  409SOL     OW11225   4.780   3.208   2.473
  409SOL    HW111226   4.799   3.258   2.558
  409SOL    HW211227   4.748   3.272   2.403
  410SOL     OW11228   2.387   7.314   1.674
  410SOL    HW111229   2.449   7.351   1.605
  410SOL    HW211230   2.324   7.385   1.704
  411SOL     OW11231   5.098   1.389   6.317
  411SOL    HW111232   5.067   1.436   6.235
  411SOL    HW211233   5.020   1.344   6.362
  412SOL     OW11234   0.684  -0.011   7.278
  412SOL    HW111235   0.618  -0.007   7.202
  412SOL    HW211236   0.638   0.009   7.364
  413SOL     OW11237   7.585   1.549   6.208
  413SOL    HW111238   7.506   1.601   6.243
  413SOL    HW211239   7.572   1.531   6.110
  414SOL     OW11240   7.321   0.799   2.915
  414SOL    HW111241   7.250   0.752   2.862
  414SOL    HW211242   7.280   0.858   2.984
  415SOL     OW11243   6.462   0.319   4.878
  415SOL    HW111244   6.402   0.312   4.798
  415SOL    HW211245   6.450   0.239   4.937
  416SOL     OW11246   0.613   0.379   4.563
  416SOL    HW111247   0.668   0.461   4.547
  416SOL    HW211248   0.557   0.359   4.483
  417SOL     OW11249   0.343   3.537   1.730
  417SOL    HW111250   0.248   3.551   1.756
  417SOL    HW211251   0.385   3.624   1.706
  418SOL     OW11252   3.014   0.259   1.347
  418SOL    HW111253   2.943   0.254   1.276
  418SOL    HW211254   2.986   0.323   1.419
  419SOL     OW11255   4.652   3.574   7.250
  419SOL    HW111256   4.670   3.479   7.280
  419SOL    HW211257   4.556   3.597   7.266
  420SOL     OW11258   6.273   3.905   5.053
  420SOL    HW111259   6.368   3.936   5.060
  420SOL    HW211260   6.248   3.850   5.133
  421SOL     OW11261   1.931   5.325   2.525
  421SOL    HW111262   2.019   5.304   2.482
  421SOL    HW211263   1.891   5.406   2.484
  422SOL     OW11264   5.314   7.918   5.128
  422SOL    HW111265   5.366   7.846   5.081
  422SOL    HW211266   5.280   7.984   5.061
  423SOL     OW11267   2.984   5.220   6.568
  423SOL    HW111268   2.887   5.222   6.595
  423SOL    HW211269   3.041   5.241   6.648
  424SOL     OW11270   2.370   3.162   4.858
  424SOL    HW111271   2.277   3.159   4.823
  424SOL    HW211272   2.370   3.178   4.957
  425SOL     OW11273   6.700   6.048   4.661
  425SOL    HW111274   6.649   6.124   4.702
  425SOL    HW211275   6.664   6.027   4.570
  426SOL     OW11276   2.592   4.698   7.916
  426SOL    HW111277   2.673   4.697   7.858
  426SOL    HW211278   2.618   4.682   8.011
  427SOL     OW11279   6.655   2.260   1.301
  427SOL    HW111280   6.681   2.327   1.370
  427SOL    HW211281   6.625   2.306   1.218
  428SOL     OW11282   6.894   2.579   7.631
  428SOL    HW111283   6.921   2.505   7.694
  428SOL    HW211284   6.854   2.654   7.683
  429SOL     OW11285   1.741   6.686   0.929
  429SOL    HW111286   1.785   6.674   0.840
  429SOL    HW211287   1.697   6.600   0.957
  430SOL     OW11288   4.432   7.175   6.654
  430SOL    HW111289   4.369   7.143   6.583
  430SOL    HW211290   4.424   7.118   6.736
  431SOL     OW11291   0.007   4.959   1.622
  431SOL    HW111292   0.107   4.953   1.614
  431SOL    HW211293  -0.032   4.996   1.537
  432SOL     OW11294   2.109   5.220   1.087
  432SOL    HW111295   2.136   5.289   1.020
  432SOL    HW211296   2.159   5.233   1.173
  433SOL     OW11297   5.308   6.470   1.853
  433SOL    HW111298   5.382   6.411   1.885
  433SOL    HW211299   5.284   6.448   1.758
  434SOL     OW11300   4.327   5.372   2.396
  434SOL    HW111301   4.238   5.352   2.438
  434SOL    HW211302   4.331   5.335   2.304
  435SOL     OW11303   0.347   1.826   5.119
  435SOL    HW111304   0.440   1.860   5.101
  435SOL    HW211305   0.287   1.850   5.043
  436SOL     OW11306   6.983   1.516   3.463
  436SOL    HW111307   6.923   1.574   3.408
  436SOL    HW211308   7.074   1.555   3.467
  437SOL     OW11309   4.748   2.344   5.836
  437SOL    HW111310   4.786   2.270   5.780
  437SOL    HW211311   4.701   2.307   5.915
  438SOL     OW11312   7.523   1.075   2.740
  438SOL    HW111313   7.472   1.046   2.659
  438SOL    HW211314   7.617   1.097   2.716
  439SOL     OW11315   3.873   2.511   4.182
  439SOL    HW111316   3.797   2.450   4.206
  439SOL    HW211317   3.954   2.457   4.158
  440SOL     OW11318   4.639   4.662   2.833
  440SOL    HW111319   4.731   4.700   2.827
  440SOL    HW211320   4.643   4.562   2.836
  441SOL     OW11321   4.050   3.000   1.685
  441SOL    HW111322   4.112   2.939   1.733
  441SOL    HW211323   4.094   3.034   1.601
  442SOL     OW11324   1.009   4.052   4.148
  442SOL    HW111325   0.914   4.081   4.137
  442SOL    HW211326   1.051   4.099   4.226
  443SOL     OW11327   6.925   2.078   5.698
  443SOL    HW111328   6.975   1.997   5.728
  443SOL    HW211329   6.832   2.076   5.737
  444SOL     OW11330   7.138   2.831   5.261
  444SOL    HW111331   7.189   2.916   5.271
  444SOL    HW211332   7.101   2.824   5.168
  445SOL     OW11333   1.625   4.281   5.812
  445SOL    HW111334   1.671   4.354   5.863
  445SOL    HW211335   1.532   4.309   5.788
  446SOL     OW11336   0.403   2.268   0.333
  446SOL    HW111337   0.431   2.248   0.427
  446SOL    HW211338   0.435   2.196   0.272
  447SOL     OW11339   2.225   3.052   5.314
  447SOL    HW111340   2.267   3.123   5.371
  447SOL    HW211341   2.254   3.064   5.219
  448SOL     OW11342   2.727   0.923   0.956
  448SOL    HW111343   2.820   0.923   0.993
  448SOL    HW211344   2.727   0.963   0.864
  449SOL     OW11345   1.649   5.069   1.537
  449SOL    HW111346   1.557   5.071   1.498
  449SOL    HW211347   1.648   5.110   1.628
  450SOL     OW11348   2.147   0.107   5.616
  450SOL    HW111349   2.055   0.101   5.655
  450SOL    HW211350   2.146   0.072   5.523
  451SOL     OW11351   6.284   3.058   5.935
  451SOL    HW111352   6.241   3.124   5.996
  451SOL    HW211353   6.216   3.022   5.871
  452SOL     OW11354   1.641   5.758   6.658
  452SOL    HW111355   1.731   5.736   6.620
  452SOL    HW211356   1.637   5.730   6.753
  453SOL     OW11357   1.493   1.588   5.415
  453SOL    HW111358   1.569   1.619   5.472
  453SOL    HW211359   1.489   1.488   5.417
  454SOL     OW11360   5.381   7.191   6.658
  454SOL    HW111361   5.405   7.230   6.569
  454SOL    HW211362   5.286   7.163   6.659
  455SOL     OW11363   0.538   3.589   7.964
  455SOL    HW111364   0.500   3.559   7.877
  455SOL    HW211365   0.467   3.635   8.018
  456SOL     OW11366   7.024   4.811   0.467
  456SOL    HW111367   6.942   4.845   0.419
  456SOL    HW211368   7.061   4.882   0.526
  457SOL     OW11369   0.260   7.332   6.870
  457SOL    HW111370   0.333   7.341   6.938
  457SOL    HW211371   0.277   7.252   6.813
  458SOL     OW11372   4.305   3.732   7.839
  458SOL    HW111373   4.211   3.727   7.876
  458SOL    HW211374   4.315   3.667   7.764
  459SOL     OW11375   3.870   4.517   4.905
  459SOL    HW111376   3.926   4.442   4.941
  459SOL    HW211377   3.778   4.484   4.884
  460SOL     OW11378   6.508   0.306   7.371
  460SOL    HW111379   6.562   0.380   7.329
  460SOL    HW211380   6.452   0.343   7.445
  461SOL     OW11381   2.101   6.794   6.459
  461SOL    HW111382   2.136   6.805   6.365
  461SOL    HW211383   2.173   6.815   6.525
  462SOL     OW11384   4.380   4.749   1.139
  462SOL    HW111385   4.301   4.760   1.078
  462SOL    HW211386   4.463   4.737   1.085
  463SOL     OW11387   0.558   6.833   5.001
  463SOL    HW111388   0.600   6.845   4.911
  463SOL    HW211389   0.489   6.903   5.017
  464SOL     OW11390   1.604   6.754   2.087
  464SOL    HW111391   1.689   6.711   2.117
  464SOL    HW211392   1.614   6.789   1.994
  465SOL     OW11393   3.396   0.482   6.029
  465SOL    HW111394   3.421   0.542   5.953
  465SOL    HW211395   3.447   0.508   6.111
  466SOL     OW11396   4.483   1.260   1.778
  466SOL    HW111397   4.489   1.164   1.749
  466SOL    HW211398   4.441   1.265   1.868
  467SOL     OW11399   3.365   5.694   3.443
  467SOL    HW111400   3.462   5.677   3.462
  467SOL    HW211401   3.342   5.662   3.351
  468SOL     OW11402   1.733   5.257   2.449
  468SOL    HW111403   1.696   5.313   2.523
  468SOL    HW211404   1.738   5.161   2.477
  469SOL     OW11405   1.371   3.455   0.412
  469SOL    HW111406   1.462   3.496   0.411
  469SOL    HW211407   1.369   3.378   0.476
  470SOL     OW11408   5.281   3.801   3.181
  470SOL    HW111409   5.296   3.702   3.191
  470SOL    HW211410   5.203   3.818   3.122
  471SOL     OW11411   2.954   4.790   7.798
  471SOL    HW111412   2.994   4.857   7.736
  471SOL    HW211413   2.865   4.761   7.764
  472SOL     OW11414   3.192   7.700   7.901
  472SOL    HW111415   3.176   7.738   7.810
  472SOL    HW211416   3.238   7.612   7.894
  473SOL     OW11417   5.571   2.081   1.446
  473SOL    HW111418   5.648   2.141   1.470
  473SOL    HW211419   5.531   2.041   1.528
  474SOL     OW11420   7.024   6.570   7.294
  474SOL    HW111421   7.009   6.564   7.196
  474SOL    HW211422   7.057   6.482   7.329
  475SOL     OW11423   2.053   1.364   0.498
  475SOL    HW111424   2.121   1.394   0.564
  475SOL    HW211425   1.973   1.424   0.500
  476SOL     OW11426   2.805   2.232   5.291
  476SOL    HW111427   2.803   2.315   5.348
  476SOL    HW211428   2.803   2.258   5.194
  477SOL     OW11429   0.175   7.792   5.488
  477SOL    HW111430   0.262   7.839   5.473
  477SOL    HW211431   0.192   7.700   5.524
  478SOL     OW11432   6.387   5.952   5.324
  478SOL    HW111433   6.298   5.947   5.369
  478SOL    HW211434   6.380   5.921   5.229
  479SOL     OW11435   5.144   4.972   2.098
  479SOL    HW111436   5.211   4.911   2.055
  479SOL    HW211437   5.130   4.946   2.193
  480SOL     OW11438   4.262   7.909   5.476
  480SOL    HW111439   4.319   7.989   5.457
  480SOL    HW211440   4.297   7.861   5.557
  481SOL     OW11441   5.016   6.954   6.103
  481SOL    HW111442   5.112   6.928   6.102
  481SOL    HW211443   4.991   6.998   6.017
  482SOL     OW11444   2.596   0.304   1.973
  482SOL    HW111445   2.597   0.392   1.925
  482SOL    HW211446   2.642   0.313   2.062
  483SOL     OW11447   2.782   3.842   5.753
  483SOL    HW111448   2.692   3.827   5.711
  483SOL    HW211449   2.771   3.883   5.843
  484SOL     OW11450   7.237   4.687   7.593
  484SOL    HW111451   7.148   4.725   7.618
  484SOL    HW211452   7.310   4.740   7.636
  485SOL     OW11453   3.413   0.138   4.455
  485SOL    HW111454   3.346   0.204   4.488
  485SOL    HW211455   3.369   0.071   4.395
  486SOL     OW11456   7.628   7.015   1.355
  486SOL    HW111457   7.654   6.925   1.388
  486SOL    HW211458   7.653   7.024   1.258
  487SOL     OW11459   3.529   3.544   0.828
  487SOL    HW111460   3.474   3.624   0.849
  487SOL    HW211461   3.471   3.469   0.799
  488SOL     OW11462   5.144   7.908   0.783
  488SOL    HW111463   5.109   7.855   0.706
  488SOL    HW211464   5.102   7.878   0.868
  489SOL     OW11465   6.055   7.387   5.881
  489SOL    HW111466   6.036   7.465   5.822
  489SOL    HW211467   6.102   7.418   5.964
  490SOL     OW11468   4.266   5.266   3.588
  490SOL    HW111469   4.330   5.340   3.568
  490SOL    HW211470   4.282   5.231   3.680
  491SOL     OW11471   2.263   1.971   0.069
  491SOL    HW111472   2.262   1.885   0.018
  491SOL    HW211473   2.248   1.954   0.166
  492SOL     OW11474   6.348   6.097   6.886
  492SOL    HW111475   6.442   6.128   6.902
  492SOL    HW211476   6.350   6.002   6.854
  493SOL     OW11477   4.301   2.182   2.696
  493SOL    HW111478   4.312   2.282   2.697
  493SOL    HW211479   4.283   2.150   2.604
  494SOL     OW11480   7.708   3.960   2.816
  494SOL    HW111481   7.712   3.860   2.806
  494SOL    HW211482   7.792   3.993   2.858
  495SOL     OW11483   1.335   5.876   6.037
  495SOL    HW111484   1.383   5.961   6.062
  495SOL    HW211485   1.301   5.831   6.120
  496SOL     OW11486   0.880   5.232   5.936
  496SOL    HW111487   0.793   5.241   5.888
  496SOL    HW211488   0.956   5.260   5.877
  497SOL     OW11489   3.766   5.589   3.444
  497SOL    HW111490   3.677   5.635   3.446
  497SOL    HW211491   3.839   5.656   3.433
  498SOL     OW11492   1.009   4.267   2.801
  498SOL    HW111493   0.910   4.279   2.800
  498SOL    HW211494   1.054   4.355   2.814
  499SOL     OW11495   6.074   4.291   4.118
  499SOL    HW111496   6.147   4.357   4.135
  499SOL    HW211497   6.024   4.273   4.203
  500SOL     OW11498   0.230   0.713   5.977
  500SOL    HW111499   0.164   0.656   5.929
  500SOL    HW211500   0.216   0.706   6.076
  501SOL     OW11501   0.868   2.233   3.889
  501SOL    HW111502   0.916   2.313   3.924
  501SOL    HW211503   0.834   2.251   3.796
  502SOL     OW11504   2.982   1.361   2.002
  502SOL    HW111505   2.993   1.458   2.027
  502SOL    HW211506   3.024   1.303   2.072
  503SOL     OW11507   0.410   5.026   4.322
  503SOL    HW111508   0.501   5.003   4.358
  503SOL    HW211509   0.341   5.009   4.392
  504SOL     OW11510   6.333   2.116   0.881
  504SOL    HW111511   6.291   2.189   0.827
  504SOL    HW211512   6.429   2.136   0.897
  505SOL     OW11513   2.262   3.848   0.583
  505SOL    HW111514   2.196   3.879   0.515
  505SOL    HW211515   2.331   3.920   0.599
  506SOL     OW11516   0.346   1.145   6.334
  506SOL    HW111517   0.369   1.240   6.356
  506SOL    HW211518   0.294   1.141   6.249
  507SOL     OW11519   3.884   0.530   0.545
  507SOL    HW111520   3.837   0.509   0.631
  507SOL    HW211521   3.900   0.629   0.539
  508SOL     OW11522   3.386   0.397   7.350
  508SOL    HW111523   3.411   0.300   7.357
  508SOL    HW211524   3.355   0.417   7.258
  509SOL     OW11525   0.163   3.239   7.950
  509SOL    HW111526   0.192   3.309   7.884
  509SOL    HW211527   0.234   3.227   8.019
  510SOL     OW11528   2.768   6.087   2.334
  510SOL    HW111529   2.841   6.047   2.279
  510SOL    HW211530   2.723   6.160   2.283
  511SOL     OW11531   4.393   6.126   3.894
  511SOL    HW111532   4.487   6.105   3.919
  511SOL    HW211533   4.341   6.151   3.976
  512SOL     OW11534   1.541   6.987   1.514
  512SOL    HW111535   1.442   6.987   1.501
  512SOL    HW211536   1.578   6.896   1.500
  513SOL     OW11537   6.007   4.069   1.328
  513SOL    HW111538   6.026   4.167   1.329
  513SOL    HW211539   6.077   4.019   1.379
  514SOL     OW11540   1.243   5.450   2.089
  514SOL    HW111541   1.254   5.467   1.991
  514SOL    HW211542   1.153   5.480   2.119
  515SOL     OW11543   2.388   1.097   3.489
  515SOL    HW111544   2.303   1.139   3.519
  515SOL    HW211545   2.375   1.057   3.398
  516SOL     OW11546   3.855   2.913   0.815
  516SOL    HW111547   3.849   2.817   0.841
  516SOL    HW211548   3.916   2.962   0.877
  517SOL     OW11549   0.669   6.406   6.145
  517SOL    HW111550   0.587   6.373   6.098
  517SOL    HW211551   0.644   6.476   6.212
  518SOL     OW11552   5.865   7.334   7.940
  518SOL    HW111553   5.786   7.339   7.878
  518SOL    HW211554   5.851   7.395   8.018
  519SOL     OW11555   4.679   6.815   2.804
  519SOL    HW111556   4.772   6.815   2.840
  519SOL    HW211557   4.616   6.852   2.873
  520SOL     OW11558   7.152   0.375   7.252
  520SOL    HW111559   7.075   0.372   7.188
  520SOL    HW211560   7.173   0.283   7.285
  521SOL     OW11561   0.138   7.060   7.769
  521SOL    HW111562   0.225   7.092   7.806
  521SOL    HW211563   0.096   6.995   7.833
  522SOL     OW11564   2.163   7.361   6.506
  522SOL    HW111565   2.225   7.434   6.476
  522SOL    HW211566   2.070   7.380   6.475
  523SOL     OW11567   0.211   1.110   3.521
  523SOL    HW111568   0.248   1.168   3.449
  523SOL    HW211569   0.161   1.166   3.587
  524SOL     OW11570   3.655   4.423   1.240
  524SOL    HW111571   3.578   4.364   1.266
  524SOL    HW211572   3.720   4.429   1.315
  525SOL     OW11573   4.634   3.558   0.195
  525SOL    HW111574   4.559   3.539   0.259
  525SOL    HW211575   4.597   3.577   0.104
  526SOL     OW11576   6.051   1.929   3.779
  526SOL    HW111577   5.984   1.964   3.845
  526SOL    HW211578   6.050   1.829   3.779
  527SOL     OW11579   0.164   6.816   0.784
  527SOL    HW111580   0.156   6.914   0.801
  527SOL    HW211581   0.074   6.779   0.758
  528SOL     OW11582   3.204   3.872   7.965
  528SOL    HW111583   3.279   3.848   7.903
  528SOL    HW211584   3.211   3.968   7.991
  529SOL     OW11585   2.282   1.807   0.927
  529SOL    HW111586   2.226   1.865   0.986
  529SOL    HW211587   2.364   1.777   0.976
  530SOL     OW11588   4.807   7.807   0.770
  530SOL    HW111589   4.821   7.708   0.766
  530SOL    HW211590   4.829   7.841   0.861
  531SOL     OW11591   5.768   2.906   4.314
  531SOL    HW111592   5.679   2.866   4.337
  531SOL    HW211593   5.803   2.866   4.229
  532SOL     OW11594   3.711   2.723   4.345
  532SOL    HW111595   3.739   2.632   4.316
  532SOL    HW211596   3.674   2.720   4.438
  533SOL     OW11597   7.536   1.349   1.781
  533SOL    HW111598   7.605   1.354   1.854
  533SOL    HW211599   7.445   1.350   1.821
  534SOL     OW11600   3.382   5.039   3.507
  534SOL    HW111601   3.453   5.009   3.571
  534SOL    HW211602   3.368   4.969   3.436
  535SOL     OW11603   3.889   3.678   2.176
  535SOL    HW111604   3.805   3.657   2.227
  535SOL    HW211605   3.883   3.638   2.084
  536SOL     OW11606   3.836   5.591   3.970
  536SOL    HW111607   3.889   5.533   3.908
  536SOL    HW211608   3.786   5.660   3.918
  537SOL     OW11609   2.956   7.449   4.966
  537SOL    HW111610   2.907   7.529   4.929
  537SOL    HW211611   2.994   7.471   5.056
  538SOL     OW11612   6.185   0.744   1.119
  538SOL    HW111613   6.186   0.830   1.171
  538SOL    HW211614   6.240   0.675   1.166
  539SOL     OW11615   6.371   1.842   0.993
  539SOL    HW111616   6.383   1.890   0.906
  539SOL    HW211617   6.371   1.908   1.068
  540SOL     OW11618   3.599   6.924   6.123
  540SOL    HW111619   3.689   6.967   6.131
  540SOL    HW211620   3.528   6.993   6.116
  541SOL     OW11621   0.194   1.414   3.234
  541SOL    HW111622   0.127   1.363   3.181
  541SOL    HW211623   0.287   1.384   3.212
  542SOL     OW11624   1.458   3.752   6.457
  542SOL    HW111625   1.455   3.827   6.523
  542SOL    HW211626   1.389   3.766   6.386
  543SOL     OW11627   7.336   4.122   0.566
  543SOL    HW111628   7.261   4.095   0.506
  543SOL    HW211629   7.301   4.163   0.650
  544SOL     OW11630   7.540   7.759   6.015
  544SOL    HW111631   7.504   7.757   5.922
  544SOL    HW211632   7.620   7.819   6.020
  545SOL     OW11633   6.730   5.367   4.496
  545SOL    HW111634   6.766   5.284   4.539
  545SOL    HW211635   6.752   5.368   4.399
  546SOL     OW11636   0.317   4.531   3.942
  546SOL    HW111637   0.319   4.439   3.983
  546SOL    HW211638   0.266   4.593   4.002
  547SOL     OW11639   7.853   2.984   4.637
  547SOL    HW111640   7.882   2.977   4.542
  547SOL    HW211641   7.806   2.900   4.664
  548SOL     OW11642   7.181   3.486   6.298
  548SOL    HW111643   7.270   3.462   6.338
  548SOL    HW211644   7.193   3.509   6.201
  549SOL     OW11645   1.870   6.614   5.729
  549SOL    HW111646   1.810   6.682   5.687
  549SOL    HW211647   1.948   6.595   5.669
  550SOL     OW11648   4.159   6.052   5.821
  550SOL    HW111649   4.087   5.987   5.847
  550SOL    HW211650   4.129   6.145   5.838
  551SOL     OW11651  -0.045   0.209   6.263
  551SOL    HW111652  -0.045   0.108   6.264
  551SOL    HW211653  -0.026   0.244   6.355
  552SOL     OW11654   1.651   6.976   5.524
  552SOL    HW111655   1.619   6.938   5.437
  552SOL    HW211656   1.720   6.917   5.564
  553SOL     OW11657   3.248   7.005   3.739
  553SOL    HW111658   3.153   6.999   3.706
  553SOL    HW211659   3.302   7.062   3.677
  554SOL     OW11660   0.489   7.252   7.661
  554SOL    HW111661   0.444   7.336   7.631
  554SOL    HW211662   0.524   7.263   7.754
  555SOL     OW11663   0.223   1.454   1.176
  555SOL    HW111664   0.239   1.545   1.216
  555SOL    HW211665   0.306   1.421   1.131
  556SOL     OW11666   4.186   6.494   4.430
  556SOL    HW111667   4.208   6.539   4.516
  556SOL    HW211668   4.111   6.429   4.443
  557SOL     OW11669   7.689   0.947   7.124
  557SOL    HW111670   7.654   0.895   7.202
  557SOL    HW211671   7.664   0.902   7.038
  558SOL     OW11672   6.775   0.040   4.651
  558SOL    HW111673   6.713   0.117   4.636
  558SOL    HW211674   6.748  -0.011   4.732
  559SOL     OW11675   0.166   3.701   3.528
  559SOL    HW111676   0.122   3.628   3.476
  559SOL    HW211677   0.249   3.731   3.483
  560SOL     OW11678   7.756   4.794   3.507
  560SOL    HW111679   7.842   4.744   3.522
  560SOL    HW211680   7.684   4.754   3.563
  561SOL     OW11681   1.206   0.202   0.674
  561SOL    HW111682   1.236   0.287   0.631
  561SOL    HW211683   1.138   0.157   0.617
  562SOL     OW11684   6.632   2.224   0.044
  562SOL    HW111685   6.727   2.240   0.018
  562SOL    HW211686   6.628   2.181   0.134
  563SOL     OW11687   3.522   6.807   3.430
  563SOL    HW111688   3.467   6.836   3.509
  563SOL    HW211689   3.560   6.716   3.448
  564SOL     OW11690   4.558   1.556   6.784
  564SOL    HW111691   4.520   1.640   6.744
  564SOL    HW211692   4.588   1.573   6.878
  565SOL     OW11693   7.025   5.783   3.842
  565SOL    HW111694   7.066   5.715   3.781
  565SOL    HW211695   6.985   5.737   3.922
  566SOL     OW11696   5.782   4.944   3.261
  566SOL    HW111697   5.842   5.024   3.258
  566SOL    HW211698   5.833   4.864   3.294
  567SOL     OW11699   7.318   4.328   4.583
  567SOL    HW111700   7.408   4.348   4.546
  567SOL    HW211701   7.325   4.301   4.679
  568SOL     OW11702   4.524   2.926   5.265
  568SOL    HW111703   4.599   2.860   5.260
  568SOL    HW211704   4.539   2.988   5.342
  569SOL     OW11705   6.057   2.907   7.042
  569SOL    HW111706   6.093   2.913   7.135
  569SOL    HW211707   5.982   2.841   7.039
  570SOL     OW11708   7.948   4.092   0.219
  570SOL    HW111709   7.954   4.185   0.256
  570SOL    HW211710   7.899   4.033   0.283
  571SOL     OW11711   2.596   6.873   6.119
  571SOL    HW111712   2.687   6.843   6.147
  571SOL    HW211713   2.599   6.909   6.026
  572SOL     OW11714   4.217   4.245   5.234
  572SOL    HW111715   4.135   4.208   5.277
  572SOL    HW211716   4.298   4.196   5.267
  573SOL     OW11717   1.105   4.998   6.929
  573SOL    HW111718   1.177   5.051   6.975
  573SOL    HW211719   1.028   4.983   6.991
  574SOL     OW11720   5.558   2.620   2.653
  574SOL    HW111721   5.546   2.621   2.752
  574SOL    HW211722   5.632   2.681   2.627
  575SOL     OW11723   3.035   7.742   0.710
  575SOL    HW111724   3.083   7.811   0.655
  575SOL    HW211725   3.099   7.697   0.772
  576SOL     OW11726   4.832   5.381   7.175
  576SOL    HW111727   4.853   5.304   7.235
  576SOL    HW211728   4.879   5.371   7.087
  577SOL     OW11729   0.561   7.585   7.763
  577SOL    HW111730   0.514   7.603   7.849
  577SOL    HW211731   0.626   7.509   7.773
  578SOL     OW11732   2.706   6.542   7.086
  578SOL    HW111733   2.756   6.460   7.111
  578SOL    HW211734   2.728   6.569   6.992
  579SOL     OW11735   3.177   0.208   6.186
  579SOL    HW111736   3.170   0.108   6.177
  579SOL    HW211737   3.192   0.232   6.282
  580SOL     OW11738   7.881   5.653   7.666
  580SOL    HW111739   7.914   5.730   7.721
  580SOL    HW211740   7.954   5.620   7.606
  581SOL     OW11741   4.350   0.938   7.123
  581SOL    HW111742   4.332   0.861   7.184
  581SOL    HW211743   4.276   1.004   7.130
  582SOL     OW11744   5.494   1.417   0.257
  582SOL    HW111745   5.559   1.488   0.231
  582SOL    HW211746   5.479   1.354   0.181
  583SOL     OW11747   7.561   5.092   6.694
  583SOL    HW111748   7.579   5.181   6.652
  583SOL    HW211749   7.546   5.103   6.792
  584SOL     OW11750   5.390   4.379   0.884
  584SOL    HW111751   5.483   4.343   0.890
  584SOL    HW211752   5.325   4.303   0.873
  585SOL     OW11753   7.817   1.331   1.642
  585SOL    HW111754   7.897   1.275   1.621
  585SOL    HW211755   7.785   1.313   1.735
  586SOL     OW11756   6.370   7.945   5.072
  586SOL    HW111757   6.459   7.908   5.044
  586SOL    HW211758   6.320   7.876   5.125
  587SOL     OW11759   6.906   2.202   6.395
  587SOL    HW111760   6.899   2.103   6.408
  587SOL    HW211761   6.861   2.228   6.309
  588SOL     OW11762   1.122   2.004   2.109
  588SOL    HW111763   1.083   1.912   2.106
  588SOL    HW211764   1.054   2.072   2.081
  589SOL     OW11765   0.709   5.891   7.971
  589SOL    HW111766   0.786   5.831   7.993
  589SOL    HW211767   0.668   5.863   7.884
  590SOL     OW11768   4.969   0.456   1.781
  590SOL    HW111769   4.893   0.507   1.740
  590SOL    HW211770   5.003   0.506   1.861
  591SOL     OW11771   1.728   6.923   6.708
  591SOL    HW111772   1.690   6.987   6.642
  591SOL    HW211773   1.677   6.927   6.794
  592SOL     OW11774   2.738   3.538   2.048
  592SOL    HW111775   2.808   3.601   2.016
  592SOL    HW211776   2.732   3.541   2.147
  593SOL     OW11777   6.510   0.195   0.374
  593SOL    HW111778   6.521   0.247   0.459
  593SOL    HW211779   6.569   0.232   0.303
  594SOL     OW11780   2.996   4.480   6.742
  594SOL    HW111781   2.994   4.396   6.688
  594SOL    HW211782   2.906   4.497   6.783
  595SOL     OW11783   0.307   7.632   5.864
  595SOL    HW111784   0.236   7.578   5.909
  595SOL    HW211785   0.353   7.576   5.795
  596SOL     OW11786   3.162   5.485   3.189
  596SOL    HW111787   3.113   5.484   3.277
  596SOL    HW211788   3.247   5.536   3.198
  597SOL     OW11789   1.009   4.273   1.441
  597SOL    HW111790   0.939   4.225   1.389
  597SOL    HW211791   1.039   4.217   1.518
  598SOL     OW11792   4.215   0.869   6.060
  598SOL    HW111793   4.142   0.937   6.065
  598SOL    HW211794   4.242   0.854   5.965
  599SOL     OW11795   4.723   6.790   6.186
  599SOL    HW111796   4.708   6.884   6.156
  599SOL    HW211797   4.718   6.784   6.285
  600SOL     OW11798   6.101   3.952   4.396
  600SOL    HW111799   6.193   3.933   4.431
  600SOL    HW211800   6.102   4.035   4.342
  601SOL     OW11801   5.904   1.957   0.445
  601SOL    HW111802   5.878   1.864   0.418
  601SOL    HW211803   5.993   1.956   0.489
  602SOL     OW11804   3.792   6.754   3.517
  602SOL    HW111805   3.759   6.660   3.524
  602SOL    HW211806   3.877   6.757   3.465
  603SOL     OW11807   2.227   7.746   7.677
  603SOL    HW111808   2.208   7.844   7.686
  603SOL    HW211809   2.240   7.723   7.580
  604SOL     OW11810   1.285   3.255   4.806
  604SOL    HW111811   1.330   3.293   4.726
  604SOL    HW211812   1.344   3.265   4.886
  605SOL     OW11813   3.573   5.960   0.762
  605SOL    HW111814   3.496   5.897   0.747
  605SOL    HW211815   3.594   5.964   0.860
  606SOL     OW11816   7.047   1.084   1.985
  606SOL    HW111817   7.026   1.177   2.015
  606SOL    HW211818   6.998   1.063   1.901
  607SOL     OW11819   1.477   3.441   5.041
  607SOL    HW111820   1.472   3.341   5.048
  607SOL    HW211821   1.467   3.482   5.132
  608SOL     OW11822   3.717   1.132   6.675
  608SOL    HW111823   3.659   1.052   6.662
  608SOL    HW211824   3.798   1.124   6.617
  609SOL     OW11825   7.570   5.413   6.838
  609SOL    HW111826   7.495   5.348   6.822
  609SOL    HW211827   7.649   5.388   6.783
  610SOL     OW11828   6.440   5.689   4.652
  610SOL    HW111829   6.529   5.716   4.615
  610SOL    HW211830   6.452   5.655   4.745
  611SOL     OW11831   5.989   3.222   5.424
  611SOL    HW111832   6.024   3.282   5.496
  611SOL    HW211833   5.981   3.273   5.338
  612SOL     OW11834   6.563   0.504   1.797
  612SOL    HW111835   6.550   0.576   1.729
  612SOL    HW211836   6.659   0.498   1.824
  613SOL     OW11837   0.071   6.171   5.737
  613SOL    HW111838   0.054   6.269   5.752
  613SOL    HW211839   0.056   6.148   5.641
  614SOL     OW11840   5.373   3.455   1.342
  614SOL    HW111841   5.342   3.542   1.302
  614SOL    HW211842   5.411   3.471   1.433
  615SOL     OW11843   4.737   3.870   7.350
  615SOL    HW111844   4.681   3.921   7.415
  615SOL    HW211845   4.715   3.899   7.257
  616SOL     OW11846   6.336   6.461   3.227
  616SOL    HW111847   6.266   6.404   3.271
  616SOL    HW211848   6.403   6.491   3.295
  617SOL     OW11849   5.408   6.415   7.662
  617SOL    HW111850   5.440   6.508   7.646
  617SOL    HW211851   5.449   6.353   7.595
  618SOL     OW11852   5.855   4.631   2.744
  618SOL    HW111853   5.785   4.587   2.688
  618SOL    HW211854   5.869   4.580   2.829
  619SOL     OW11855   0.540   5.090   2.132
  619SOL    HW111856   0.520   5.002   2.088
  619SOL    HW211857   0.559   5.159   2.062
  620SOL     OW11858   0.576   3.954   1.634
  620SOL    HW111859   0.654   3.982   1.578
  620SOL    HW211860   0.607   3.898   1.711
  621SOL     OW11861   0.928   6.723   4.549
  621SOL    HW111862   0.870   6.675   4.615
  621SOL    HW211863   0.882   6.805   4.515
  622SOL     OW11864   1.516   7.175   0.377
  622SOL    HW111865   1.549   7.237   0.448
  622SOL    HW211866   1.514   7.223   0.289
  623SOL     OW11867   0.587   0.113   5.499
  623SOL    HW111868   0.645   0.143   5.575
  623SOL    HW211869   0.615   0.159   5.415
  624SOL     OW11870   4.691   6.790   6.615
  624SOL    HW111871   4.790   6.797   6.612
  624SOL    HW211872   4.663   6.736   6.695
  625SOL     OW11873   1.870   6.929   2.402
  625SOL    HW111874   1.794   6.874   2.437
  625SOL    HW211875   1.867   7.021   2.441
  626SOL     OW11876   4.549   2.429   6.874
  626SOL    HW111877   4.646   2.406   6.869
  626SOL    HW211878   4.501   2.365   6.934
  627SOL     OW11879   6.673   3.919   5.087
  627SOL    HW111880   6.620   3.990   5.132
  627SOL    HW211881   6.611   3.852   5.044
  628SOL     OW11882   0.342   7.981   4.489
  628SOL    HW111883   0.244   7.964   4.505
  628SOL    HW211884   0.378   7.917   4.422
  629SOL     OW11885   1.962   6.991   1.515
  629SOL    HW111886   1.987   6.901   1.551
  629SOL    HW211887   1.997   7.003   1.423
  630SOL     OW11888   7.293   5.342   4.350
  630SOL    HW111889   7.233   5.407   4.397
  630SOL    HW211890   7.268   5.249   4.375
  631SOL     OW11891   1.033   0.649   1.673
  631SOL    HW111892   1.002   0.735   1.714
  631SOL    HW211893   0.971   0.622   1.600
  632SOL     OW11894   5.254   3.914   1.741
  632SOL    HW111895   5.172   3.924   1.798
  632SOL    HW211896   5.311   3.996   1.748
  633SOL     OW11897   6.667   4.613   1.872
  633SOL    HW111898   6.705   4.589   1.961
  633SOL    HW211899   6.588   4.674   1.883
  634SOL     OW11900   1.692   0.311   0.067
  634SOL    HW111901   1.721   0.395   0.021
  634SOL    HW211902   1.727   0.231   0.018
  635SOL     OW11903   7.066   2.960   7.841
  635SOL    HW111904   7.081   2.861   7.838
  635SOL    HW211905   7.139   3.004   7.894
  636SOL     OW11906   2.733   0.538   2.071
  636SOL    HW111907   2.761   0.531   2.167
  636SOL    HW211908   2.785   0.473   2.015
  637SOL     OW11909   3.574   0.974   6.356
  637SOL    HW111910   3.557   0.914   6.434
  637SOL    HW211911   3.527   0.939   6.275
  638SOL     OW11912   0.034   1.214   0.467
  638SOL    HW111913   0.008   1.224   0.371
  638SOL    HW211914   0.123   1.169   0.474
  639SOL     OW11915   6.294   3.383   6.513
  639SOL    HW111916   6.354   3.341   6.581
  639SOL    HW211917   6.326   3.361   6.421
  640SOL     OW11918   6.965   4.505   2.746
  640SOL    HW111919   6.877   4.459   2.756
  640SOL    HW211920   7.025   4.482   2.823
  641SOL     OW11921   6.889   5.318   2.580
  641SOL    HW111922   6.968   5.337   2.638
  641SOL    HW211923   6.876   5.392   2.514
  642SOL     OW11924   2.729   6.177   0.811
  642SOL    HW111925   2.731   6.079   0.830
  642SOL    HW211926   2.771   6.228   0.886
  643SOL     OW11927   5.903   5.708   1.675
  643SOL    HW111928   5.930   5.634   1.613
  643SOL    HW211929   5.924   5.796   1.634
  644SOL     OW11930   7.441   0.266   7.294
  644SOL    HW111931   7.469   0.313   7.210
  644SOL    HW211932   7.428   0.332   7.367
  645SOL     OW11933   0.700   2.686   7.340
  645SOL    HW111934   0.632   2.754   7.368
  645SOL    HW211935   0.695   2.671   7.241
  646SOL     OW11936   3.743   6.211   5.842
  646SOL    HW111937   3.838   6.228   5.868
  646SOL    HW211938   3.701   6.295   5.809
  647SOL     OW11939   6.585   7.873   0.107
  647SOL    HW111940   6.517   7.802   0.128
  647SOL    HW211941   6.673   7.831   0.086
  648SOL     OW11942   6.552   3.197   1.463
  648SOL    HW111943   6.458   3.179   1.434
  648SOL    HW211944   6.603   3.241   1.388
  649SOL     OW11945   2.036   3.566   4.856
  649SOL    HW111946   2.057   3.657   4.821
  649SOL    HW211947   2.071   3.556   4.949
  650SOL     OW11948   0.537   2.056   5.182
  650SOL    HW111949   0.472   2.100   5.245
  650SOL    HW211950   0.536   2.104   5.094
  651SOL     OW11951   7.475   3.575   5.286
  651SOL    HW111952   7.558   3.616   5.325
  651SOL    HW211953   7.398   3.638   5.298
  652SOL     OW11954   6.757   2.354   1.911
  652SOL    HW111955   6.686   2.425   1.909
  652SOL    HW211956   6.832   2.384   1.969
  653SOL     OW11957   4.980   7.981   3.518
  653SOL    HW111958   5.045   7.989   3.442
  653SOL    HW211959   5.029   7.989   3.604
  654SOL     OW11960   1.999   1.715   3.065
  654SOL    HW111961   1.906   1.721   3.102
  654SOL    HW211962   1.997   1.675   2.973
  655SOL     OW11963   0.515   5.228   7.238
  655SOL    HW111964   0.583   5.282   7.188
  655SOL    HW211965   0.557   5.144   7.272
  656SOL     OW11966   5.233   6.223   3.506
  656SOL    HW111967   5.195   6.136   3.538
  656SOL    HW211968   5.263   6.215   3.412
  657SOL     OW11969   3.619   0.312   7.885
  657SOL    HW111970   3.709   0.355   7.898
  657SOL    HW211971   3.630   0.215   7.863
  658SOL     OW11972   1.275   2.420   2.058
  658SOL    HW111973   1.226   2.403   2.144
  658SOL    HW211974   1.216   2.398   1.980
  659SOL     OW11975   2.561   0.125   5.057
  659SOL    HW111976   2.483   0.105   5.116
  659SOL    HW211977   2.646   0.124   5.111
  660SOL     OW11978   7.273   3.461   5.681
  660SOL    HW111979   7.274   3.391   5.753
  660SOL    HW211980   7.184   3.506   5.678
  661SOL     OW11981   2.330   2.562   5.769
  661SOL    HW111982   2.267   2.572   5.846
  661SOL    HW211983   2.318   2.637   5.704
  662SOL     OW11984   1.333   0.487   2.450
  662SOL    HW111985   1.299   0.528   2.535
  662SOL    HW211986   1.295   0.536   2.371
  663SOL     OW11987   3.966   1.405   1.311
  663SOL    HW111988   3.953   1.319   1.262
  663SOL    HW211989   4.028   1.391   1.388
  664SOL     OW11990   1.519   1.639   1.819
  664SOL    HW111991   1.590   1.705   1.843
  664SOL    HW211992   1.554   1.574   1.752
  665SOL     OW11993   7.961   0.642   2.936
  665SOL    HW111994   7.901   0.712   2.975
  665SOL    HW211995   7.918   0.552   2.942
  666SOL     OW11996   5.942   6.524   6.771
  666SOL    HW111997   6.025   6.577   6.753
  666SOL    HW211998   5.958   6.460   6.846
  667SOL     OW11999   0.392   6.165   3.305
  667SOL    HW112000   0.442   6.105   3.243
  667SOL    HW212001   0.455   6.209   3.369
  668SOL     OW12002   6.066   0.250   5.207
  668SOL    HW112003   6.135   0.227   5.276
  668SOL    HW212004   6.026   0.167   5.169
  669SOL     OW12005   3.106   7.829   3.480
  669SOL    HW112006   3.046   7.908   3.491
  669SOL    HW212007   3.096   7.768   3.559
  670SOL     OW12008   5.244   3.069   1.454
  670SOL    HW112009   5.187   2.989   1.473
  670SOL    HW212010   5.318   3.075   1.521
  671SOL     OW12011   1.473   2.163   0.349
  671SOL    HW112012   1.437   2.254   0.366
  671SOL    HW212013   1.403   2.106   0.306
  672SOL     OW12014   5.914   7.217   7.686
  672SOL    HW112015   5.827   7.218   7.638
  672SOL    HW212016   5.902   7.181   7.779
  673SOL     OW12017   0.611   7.122   7.528
  673SOL    HW112018   0.705   7.102   7.555
  673SOL    HW212019   0.605   7.129   7.428
  674SOL     OW12020   3.797   5.295   3.861
  674SOL    HW112021   3.717   5.350   3.834
  674SOL    HW212022   3.831   5.325   3.949
  675SOL     OW12023   3.553   1.853   4.126
  675SOL    HW112024   3.637   1.907   4.125
  675SOL    HW212025   3.564   1.774   4.187
  676SOL     OW12026   0.191   1.405   4.164
  676SOL    HW112027   0.161   1.448   4.249
  676SOL    HW212028   0.206   1.475   4.094
  677SOL     OW12029   0.304   0.995   5.541
  677SOL    HW112030   0.382   1.054   5.523
  677SOL    HW212031   0.233   1.009   5.471
  678SOL     OW12032   3.102   1.878   2.301
  678SOL    HW112033   3.007   1.849   2.299
  678SOL    HW212034   3.120   1.943   2.227
  679SOL     OW12035   3.283   0.670   2.465
  679SOL    HW112036   3.232   0.724   2.531
  679SOL    HW212037   3.220   0.627   2.400
  680SOL     OW12038   7.425   1.902   4.771
  680SOL    HW112039   7.433   1.989   4.820
  680SOL    HW212040   7.507   1.886   4.715
  681SOL     OW12041   2.352   4.248   2.243
  681SOL    HW112042   2.337   4.170   2.184
  681SOL    HW212043   2.313   4.231   2.334
  682SOL     OW12044   7.136   4.761   2.341
  682SOL    HW112045   7.108   4.670   2.309
  682SOL    HW212046   7.086   4.785   2.424
  683SOL     OW12047   2.774   0.544   7.695
  683SOL    HW112048   2.835   0.465   7.688
  683SOL    HW212049   2.739   0.553   7.789
  684SOL     OW12050   7.955   6.364   6.259
  684SOL    HW112051   7.925   6.347   6.353
  684SOL    HW212052   7.950   6.462   6.239
  685SOL     OW12053   4.883   5.207   4.362
  685SOL    HW112054   4.938   5.273   4.413
  685SOL    HW212055   4.801   5.251   4.325
  686SOL     OW12056   0.013   0.346   2.956
  686SOL    HW112057   0.096   0.397   2.980
  686SOL    HW212058   0.032   0.248   2.953
  687SOL     OW12059   0.126   7.590   7.296
  687SOL    HW112060   0.065   7.544   7.360
  687SOL    HW212061   0.189   7.524   7.255
  688SOL     OW12062   6.257   1.868   3.936
  688SOL    HW112063   6.261   1.854   3.837
  688SOL    HW212064   6.224   1.785   3.980
  689SOL     OW12065   0.056   7.382   1.306
  689SOL    HW112066   0.087   7.288   1.293
  689SOL    HW212067   0.020   7.394   1.398
  690SOL     OW12068   3.026   2.703   4.530
  690SOL    HW112069   3.093   2.629   4.541
  690SOL    HW212070   2.968   2.708   4.612
  691SOL     OW12071   0.144   3.467   7.711
  691SOL    HW112072   0.144   3.433   7.617
  691SOL    HW212073   0.050   3.474   7.745
  692SOL     OW12074   6.722   2.053   7.788
  692SOL    HW112075   6.710   2.149   7.813
  692SOL    HW212076   6.701   2.040   7.691
  693SOL     OW12077   4.345   4.551   7.938
  693SOL    HW112078   4.376   4.645   7.952
  693SOL    HW212079   4.332   4.533   7.841
  694SOL     OW12080   6.234   3.547   7.371
  694SOL    HW112081   6.274   3.460   7.403
  694SOL    HW212082   6.144   3.530   7.331
  695SOL     OW12083   3.593   0.356   4.389
  695SOL    HW112084   3.515   0.415   4.370
  695SOL    HW212085   3.580   0.307   4.475
  696SOL     OW12086   0.600   7.315   2.026
  696SOL    HW112087   0.638   7.260   1.951
  696SOL    HW212088   0.504   7.335   2.007
  697SOL     OW12089   3.526   1.128   0.246
  697SOL    HW112090   3.491   1.191   0.316
  697SOL    HW212091   3.481   1.146   0.159
  698SOL     OW12092   2.627   2.979   0.725
  698SOL    HW112093   2.607   3.077   0.721
  698SOL    HW212094   2.543   2.926   0.710
  699SOL     OW12095   2.157   0.517   6.191
  699SOL    HW112096   2.118   0.607   6.207
  699SOL    HW212097   2.119   0.478   6.107
  700SOL     OW12098   4.167   1.150   1.494
  700SOL    HW112099   4.240   1.093   1.533
  700SOL    HW212100   4.205   1.213   1.426
  701SOL     OW12101   6.846   4.476   0.303
  701SOL    HW112102   6.812   4.568   0.325
  701SOL    HW212103   6.792   4.437   0.228
  702SOL     OW12104   2.048   6.441   0.193
  702SOL    HW112105   2.086   6.507   0.129
  702SOL    HW212106   1.973   6.482   0.244
  703SOL     OW12107   0.362   7.096   5.332
  703SOL    HW112108   0.284   7.090   5.270
  703SOL    HW212109   0.331   7.122   5.424
  704SOL     OW12110   1.573   3.089   0.399
  704SOL    HW112111   1.520   3.165   0.436
  704SOL    HW212112   1.539   3.065   0.308
  705SOL     OW12113   2.524   4.608   5.340
  705SOL    HW112114   2.583   4.527   5.346
  705SOL    HW212115   2.430   4.581   5.322
  706SOL     OW12116   6.479   5.496   3.690
  706SOL    HW112117   6.566   5.450   3.711
  706SOL    HW212118   6.407   5.428   3.678
  707SOL     OW12119   5.462   5.771   4.550
  707SOL    HW112120   5.521   5.837   4.503
  707SOL    HW212121   5.518   5.708   4.604
  708SOL     OW12122   4.781   4.187   4.335
  708SOL    HW112123   4.711   4.126   4.298
  708SOL    HW212124   4.757   4.212   4.429
  709SOL     OW12125   5.724   2.013   3.750
  709SOL    HW112126   5.740   1.920   3.784
  709SOL    HW212127   5.679   2.068   3.821
  710SOL     OW12128   2.335   2.644   7.213
  710SOL    HW112129   2.410   2.577   7.208
  710SOL    HW212130   2.371   2.733   7.239
  711SOL     OW12131   1.790   6.205   7.526
  711SOL    HW112132   1.877   6.235   7.486
  711SOL    HW212133   1.798   6.202   7.626
  712SOL     OW12134   5.893   5.594   6.450
  712SOL    HW112135   5.840   5.516   6.418
  712SOL    HW212136   5.833   5.663   6.489
  713SOL     OW12137   5.347   2.515   1.094
  713SOL    HW112138   5.290   2.440   1.061
  713SOL    HW212139   5.330   2.531   1.191
  714SOL     OW12140   4.715   4.408   4.334
  714SOL    HW112141   4.639   4.408   4.400
  714SOL    HW212142   4.799   4.437   4.379
  715SOL     OW12143   5.400   7.632   6.838
  715SOL    HW112144   5.346   7.603   6.759
  715SOL    HW212145   5.377   7.727   6.862
  716SOL     OW12146   0.416   3.781   3.192
  716SOL    HW112147   0.400   3.682   3.184
  716SOL    HW212148   0.420   3.822   3.101
  717SOL     OW12149   3.048   4.023   5.208
  717SOL    HW112150   3.000   4.091   5.264
  717SOL    HW212151   3.057   4.057   5.115
  718SOL     OW12152   4.830   4.130   6.015
  718SOL    HW112153   4.901   4.129   5.945
  718SOL    HW212154   4.827   4.041   6.061
  719SOL     OW12155   1.385   2.393   6.787
  719SOL    HW112156   1.401   2.486   6.755
  719SOL    HW212157   1.424   2.381   6.878
  720SOL     OW12158   7.374   7.294   5.210
  720SOL    HW112159   7.360   7.384   5.251
  720SOL    HW212160   7.342   7.295   5.115
  721SOL     OW12161   4.018   2.989   4.147
  721SOL    HW112162   4.094   2.929   4.172
  721SOL    HW212163   4.016   3.068   4.209
  722SOL     OW12164   3.959   4.535   6.161
  722SOL    HW112165   3.902   4.516   6.081
  722SOL    HW212166   3.943   4.628   6.193
  723SOL     OW12167   2.195   4.362   2.856
  723SOL    HW112168   2.153   4.416   2.782
  723SOL    HW212169   2.127   4.344   2.927
  724SOL     OW12170   7.713   0.658   3.749
  724SOL    HW112171   7.699   0.749   3.787
  724SOL    HW212172   7.674   0.653   3.657
  725SOL     OW12173   3.251   5.262   5.642
  725SOL    HW112174   3.328   5.267   5.706
  725SOL    HW212175   3.279   5.296   5.552
  726SOL     OW12176   4.620   1.730   7.492
  726SOL    HW112177   4.695   1.785   7.529
  726SOL    HW212178   4.598   1.762   7.400
  727SOL     OW12179   0.486   2.243   7.550
  727SOL    HW112180   0.397   2.288   7.543
  727SOL    HW212181   0.525   2.258   7.641
  728SOL     OW12182   5.987   6.701   2.473
  728SOL    HW112183   5.923   6.653   2.534
  728SOL    HW212184   6.081   6.674   2.493
  729SOL     OW12185   1.304   0.845   1.033
  729SOL    HW112186   1.307   0.902   0.950
  729SOL    HW212187   1.214   0.805   1.044
  730SOL     OW12188   2.003   0.309   6.944
  730SOL    HW112189   1.911   0.322   6.907
  730SOL    HW212190   2.018   0.372   7.020
  731SOL     OW12191   4.304   1.120   3.973
  731SOL    HW112192   4.399   1.149   3.967
  731SOL    HW212193   4.298   1.034   4.023
  732SOL     OW12194   7.874   3.619   5.239
  732SOL    HW112195   7.955   3.606   5.296
  732SOL    HW212196   7.866   3.544   5.172
  733SOL     OW12197   7.144   6.146   3.261
  733SOL    HW112198   7.221   6.083   3.246
  733SOL    HW212199   7.141   6.174   3.357
  734SOL     OW12200   5.806   3.938   4.686
  734SOL    HW112201   5.870   4.014   4.698
  734SOL    HW212202   5.799   3.887   4.772
  735SOL     OW12203   0.686   6.605   0.381
  735SOL    HW112204   0.597   6.561   0.398
  735SOL    HW212205   0.733   6.620   0.468
  736SOL     OW12206   6.248   3.839   5.952
  736SOL    HW112207   6.207   3.919   5.907
  736SOL    HW212208   6.285   3.865   6.041
  737SOL     OW12209   3.870   4.545   7.373
  737SOL    HW112210   3.854   4.605   7.451
  737SOL    HW212211   3.889   4.600   7.291
  738SOL     OW12212   0.857   2.086   4.510
  738SOL    HW112213   0.778   2.069   4.569
  738SOL    HW212214   0.847   2.036   4.424
  739SOL     OW12215   0.947   2.515   3.421
  739SOL    HW112216   0.971   2.599   3.470
  739SOL    HW212217   0.919   2.538   3.327
  740SOL     OW12218   7.939   0.020   7.446
  740SOL    HW112219   7.955   0.111   7.408
  740SOL    HW212220   7.856   0.021   7.502
  741SOL     OW12221   5.104   7.038   1.179
  741SOL    HW112222   5.111   6.983   1.095
  741SOL    HW212223   5.047   6.991   1.246
  742SOL     OW12224   3.409   0.848   7.104
  742SOL    HW112225   3.465   0.765   7.109
  742SOL    HW212226   3.406   0.881   7.010
  743SOL     OW12227   7.318   5.479   2.176
  743SOL    HW112228   7.303   5.381   2.161
  743SOL    HW212229   7.316   5.527   2.088
  744SOL     OW12230   4.697   3.447   7.028
  744SOL    HW112231   4.694   3.544   7.002
  744SOL    HW212232   4.613   3.421   7.075
  745SOL     OW12233   3.437   1.683   2.556
  745SOL    HW112234   3.398   1.737   2.630
  745SOL    HW212235   3.436   1.586   2.581
  746SOL     OW12236   5.900   7.663   7.500
  746SOL    HW112237   5.858   7.744   7.540
  746SOL    HW212238   5.865   7.647   7.408
  747SOL     OW12239   0.130   4.098   6.768
  747SOL    HW112240   0.107   4.007   6.804
  747SOL    HW212241   0.152   4.091   6.671
  748SOL     OW12242   4.273   0.290   0.275
  748SOL    HW112243   4.210   0.287   0.198
  748SOL    HW212244   4.222   0.298   0.361
  749SOL     OW12245   3.007   7.128   0.419
  749SOL    HW112246   3.009   7.029   0.407
  749SOL    HW212247   2.962   7.171   0.341
  750SOL     OW12248   1.104   1.262   7.653
  750SOL    HW112249   1.177   1.266   7.722
  750SOL    HW212250   1.022   1.307   7.689
  751SOL     OW12251   6.870   5.195   6.402
  751SOL    HW112252   6.858   5.251   6.319
  751SOL    HW212253   6.965   5.197   6.431
  752SOL     OW12254   1.653   4.092   5.187
  752SOL    HW112255   1.610   4.002   5.179
  752SOL    HW212256   1.659   4.134   5.097
  753SOL     OW12257   4.476   2.859   6.327
  753SOL    HW112258   4.423   2.939   6.301
  753SOL    HW212259   4.497   2.862   6.425
  754SOL     OW12260   4.841   5.683   0.196
  754SOL    HW112261   4.848   5.734   0.110
  754SOL    HW212262   4.888   5.595   0.187
  755SOL     OW12263   6.782   0.508   7.676
  755SOL    HW112264   6.774   0.590   7.732
  755SOL    HW212265   6.706   0.502   7.612
  756SOL     OW12266   0.010   3.190   7.043
  756SOL    HW112267   0.082   3.225   7.103
  756SOL    HW212268  -0.045   3.123   7.091
  757SOL     OW12269   3.762   2.071   5.181
  757SOL    HW112270   3.729   2.153   5.229
  757SOL    HW212271   3.858   2.085   5.154
  758SOL     OW12272   5.621   6.172   7.120
  758SOL    HW112273   5.711   6.190   7.081
  758SOL    HW212274   5.549   6.200   7.056
  759SOL     OW12275   4.943   5.874   3.209
  759SOL    HW112276   4.906   5.787   3.178
  759SOL    HW212277   4.890   5.908   3.286
  760SOL     OW12278   1.468   0.566   5.600
  760SOL    HW112279   1.485   0.490   5.662
  760SOL    HW212280   1.408   0.537   5.525
  761SOL     OW12281   0.108   7.735   0.274
  761SOL    HW112282   0.197   7.692   0.286
  761SOL    HW212283   0.092   7.756   0.177
  762SOL     OW12284   2.969   6.199   6.124
  762SOL    HW112285   2.952   6.235   6.031
  762SOL    HW212286   3.056   6.234   6.158
  763SOL     OW12287   2.856   1.194   4.834
  763SOL    HW112288   2.818   1.195   4.742
  763SOL    HW212289   2.786   1.167   4.900
  764SOL     OW12290   0.043   5.358   3.666
  764SOL    HW112291   0.116   5.407   3.715
  764SOL    HW212292  -0.045   5.375   3.710
  765SOL     OW12293   3.581   6.372   6.402
  765SOL    HW112294   3.649   6.322   6.348
  765SOL    HW212295   3.618   6.392   6.493
  766SOL     OW12296   3.819   1.831   7.376
  766SOL    HW112297   3.896   1.786   7.421
  766SOL    HW212298   3.840   1.928   7.362
  767SOL     OW12299   2.809   1.611   7.718
  767SOL    HW112300   2.725   1.583   7.671
  767SOL    HW212301   2.827   1.550   7.795
  768SOL     OW12302   6.814   5.450   1.450
  768SOL    HW112303   6.782   5.508   1.375
  768SOL    HW212304   6.802   5.354   1.426
  769SOL     OW12305   2.744   3.122   2.885
  769SOL    HW112306   2.800   3.063   2.942
  769SOL    HW212307   2.690   3.184   2.942
  770SOL     OW12308   5.489   4.993   4.858
  770SOL    HW112309   5.426   4.916   4.865
  770SOL    HW212310   5.490   5.027   4.764
  771SOL     OW12311   2.867   0.361   7.100
  771SOL    HW112312   2.830   0.275   7.134
  771SOL    HW212313   2.900   0.350   7.007
  772SOL     OW12314   7.708   1.677   5.251
  772SOL    HW112315   7.788   1.638   5.205
  772SOL    HW212316   7.625   1.632   5.220
  773SOL     OW12317   2.430   3.699   4.950
  773SOL    HW112318   2.333   3.679   4.960
  773SOL    HW212319   2.484   3.629   4.999
  774SOL     OW12320   6.930   0.111   0.193
  774SOL    HW112321   6.924   0.154   0.284
  774SOL    HW212322   6.936   0.012   0.203
  775SOL     OW12323   7.895   3.397   5.504
  775SOL    HW112324   7.955   3.468   5.467
  775SOL    HW212325   7.949   3.325   5.548
  776SOL     OW12326   0.034   4.375   6.227
  776SOL    HW112327   0.117   4.425   6.251
  776SOL    HW212328  -0.023   4.430   6.166
  777SOL     OW12329   5.695   1.304   3.582
  777SOL    HW112330   5.778   1.263   3.545
  777SOL    HW212331   5.719   1.382   3.640
  778SOL     OW12332   7.901   3.808   4.835
  778SOL    HW112333   7.812   3.853   4.845
  778SOL    HW212334   7.955   3.818   4.918
  779SOL     OW12335   2.603   5.707   1.132
  779SOL    HW112336   2.524   5.677   1.187
  779SOL    HW212337   2.632   5.632   1.072
  780SOL     OW12338   2.449   3.302   1.560
  780SOL    HW112339   2.406   3.335   1.476
  780SOL    HW212340   2.540   3.344   1.569
  781SOL     OW12341   5.113   5.845   3.576
  781SOL    HW112342   5.135   5.925   3.519
  781SOL    HW212343   5.153   5.856   3.667
  782SOL     OW12344   2.073   5.783   0.655
  782SOL    HW112345   2.097   5.872   0.616
  782SOL    HW212346   2.150   5.746   0.708
  783SOL     OW12347   1.731   2.143   3.558
  783SOL    HW112348   1.766   2.154   3.650
  783SOL    HW212349   1.752   2.052   3.523
  784SOL     OW12350   7.180   1.340   0.795
  784SOL    HW112351   7.123   1.294   0.863
  784SOL    HW212352   7.265   1.289   0.781
  785SOL     OW12353   0.984   6.161   2.713
  785SOL    HW112354   1.084   6.149   2.715
  785SOL    HW212355   0.947   6.118   2.631
  786SOL     OW12356   3.778   6.177   0.835
  786SOL    HW112357   3.753   6.100   0.774
  786SOL    HW212358   3.857   6.151   0.891
  787SOL     OW12359   5.758   4.662   0.185
  787SOL    HW112360   5.675   4.638   0.135
  787SOL    HW212361   5.819   4.582   0.187
  788SOL     OW12362   6.521   4.074   0.943
  788SOL    HW112363   6.564   4.032   1.023
  788SOL    HW212364   6.456   4.144   0.973
  789SOL     OW12365   3.640   6.881   5.836
  789SOL    HW112366   3.560   6.925   5.877
  789SOL    HW212367   3.697   6.840   5.908
  790SOL     OW12368   6.202  -0.002   6.669
  790SOL    HW112369   6.192   0.093   6.701
  790SOL    HW212370   6.163  -0.011   6.577
  791SOL     OW12371   0.412   6.138   4.891
  791SOL    HW112372   0.473   6.086   4.830
  791SOL    HW212373   0.400   6.089   4.977
  792SOL     OW12374   0.244   0.463   2.376
  792SOL    HW112375   0.260   0.384   2.436
  792SOL    HW212376   0.203   0.538   2.429
  793SOL     OW12377   6.973   3.710   5.594
  793SOL    HW112378   6.943   3.624   5.551
  793SOL    HW212379   7.066   3.699   5.629
  794SOL     OW12380   5.877   4.966   1.304
  794SOL    HW112381   5.825   5.021   1.239
  794SOL    HW212382   5.894   5.018   1.387
  795SOL     OW12383   3.828   1.317   1.030
  795SOL    HW112384   3.765   1.338   1.104
  795SOL    HW212385   3.799   1.234   0.982
  796SOL     OW12386   7.474   2.653   0.705
  796SOL    HW112387   7.463   2.553   0.710
  796SOL    HW212388   7.471   2.682   0.609
  797SOL     OW12389   5.892   7.617   2.619
  797SOL    HW112390   5.910   7.530   2.574
  797SOL    HW212391   5.972   7.676   2.612
  798SOL     OW12392   2.371   5.965   2.157
  798SOL    HW112393   2.318   6.046   2.130
  798SOL    HW212394   2.311   5.885   2.158
  799SOL     OW12395   3.165   0.942   6.718
  799SOL    HW112396   3.132   1.033   6.746
  799SOL    HW212397   3.158   0.932   6.619
  800SOL     OW12398   1.366   5.321   6.643
  800SOL    HW112399   1.320   5.408   6.664
  800SOL    HW212400   1.407   5.283   6.726
  801SOL     OW12401   4.393   3.133   1.582
  801SOL    HW112402   4.381   3.066   1.509
  801SOL    HW212403   4.448   3.093   1.656
  802SOL     OW12404   1.670   7.511   4.680
  802SOL    HW112405   1.756   7.464   4.702
  802SOL    HW212406   1.600   7.488   4.747
  803SOL     OW12407   4.930   5.466   1.026
  803SOL    HW112408   4.874   5.385   1.009
  803SOL    HW212409   4.912   5.502   1.117
  804SOL     OW12410   2.711   6.595   4.445
  804SOL    HW112411   2.751   6.668   4.390
  804SOL    HW212412   2.742   6.603   4.540
  805SOL     OW12413   2.571   2.976   1.428
  805SOL    HW112414   2.636   2.930   1.489
  805SOL    HW212415   2.590   2.951   1.333
  806SOL     OW12416   2.811   4.941   2.115
  806SOL    HW112417   2.865   4.998   2.053
  806SOL    HW212418   2.717   4.975   2.119
  807SOL     OW12419   3.644   5.267   4.692
  807SOL    HW112420   3.603   5.178   4.668
  807SOL    HW212421   3.614   5.294   4.783
  808SOL     OW12422   3.505   0.635   7.304
  808SOL    HW112423   3.461   0.646   7.394
  808SOL    HW212424   3.574   0.706   7.291
  809SOL     OW12425   4.976   0.043   7.371
  809SOL    HW112426   4.957   0.141   7.371
  809SOL    HW212427   5.073   0.027   7.356
  810SOL     OW12428   2.804   0.513   4.585
  810SOL    HW112429   2.870   0.482   4.653
  810SOL    HW212430   2.744   0.582   4.625
  811SOL     OW12431   6.079   1.123   5.858
  811SOL    HW112432   6.032   1.047   5.904
  811SOL    HW212433   6.015   1.199   5.844
  812SOL     OW12434   6.010   1.526   2.781
  812SOL    HW112435   5.990   1.451   2.844
  812SOL    HW212436   5.959   1.607   2.807
  813SOL     OW12437   4.334   6.610   5.472
  813SOL    HW112438   4.269   6.672   5.430
  813SOL    HW212439   4.364   6.645   5.560
  814SOL     OW12440   4.283   5.997   1.887
  814SOL    HW112441   4.302   6.089   1.920
  814SOL    HW212442   4.222   5.950   1.951
  815SOL     OW12443   4.189   5.473   1.870
  815SOL    HW112444   4.243   5.405   1.821
  815SOL    HW212445   4.231   5.493   1.959
  816SOL     OW12446   0.015   4.843   5.820
  816SOL    HW112447  -0.045   4.906   5.871
  816SOL    HW212448  -0.039   4.791   5.755
  817SOL     OW12449   7.897   4.740   7.405
  817SOL    HW112450   7.909   4.650   7.447
  817SOL    HW212451   7.838   4.733   7.325
  818SOL     OW12452   4.448   0.495   4.879
  818SOL    HW112453   4.353   0.487   4.849
  818SOL    HW212454   4.509   0.500   4.800
  819SOL     OW12455   7.274   6.691   6.333
  819SOL    HW112456   7.183   6.656   6.354
  819SOL    HW212457   7.307   6.654   6.246
  820SOL     OW12458   2.310   7.858   0.609
  820SOL    HW112459   2.373   7.926   0.570
  820SOL    HW212460   2.334   7.842   0.705
  821SOL     OW12461   6.868   0.641   5.214
  821SOL    HW112462   6.877   0.567   5.147
  821SOL    HW212463   6.940   0.632   5.284
  822SOL     OW12464   5.985   5.311   2.892
  822SOL    HW112465   5.956   5.267   2.977
  822SOL    HW212466   5.907   5.322   2.831
  823SOL     OW12467   0.190   6.776   5.803
  823SOL    HW112468   0.275   6.812   5.841
  823SOL    HW212469   0.194   6.777   5.703
  824SOL     OW12470   4.019   7.300   1.346
  824SOL    HW112471   3.979   7.392   1.346
  824SOL    HW212472   3.978   7.244   1.274
  825SOL     OW12473   0.265   0.560   5.569
  825SOL    HW112474   0.251   0.608   5.655
  825SOL    HW212475   0.349   0.593   5.525
  826SOL     OW12476   2.431   3.213   3.995
  826SOL    HW112477   2.492   3.171   3.928
  826SOL    HW212478   2.453   3.310   4.006
  827SOL     OW12479   2.374   0.765   0.813
  827SOL    HW112480   2.366   0.670   0.845
  827SOL    HW212481   2.436   0.770   0.735
  828SOL     OW12482   0.656   5.254   3.029
  828SOL    HW112483   0.726   5.282   3.095
  828SOL    HW212484   0.699   5.228   2.942
  829SOL     OW12485   2.345   4.293   4.352
  829SOL    HW112486   2.379   4.310   4.260
  829SOL    HW212487   2.412   4.324   4.419
  830SOL     OW12488   0.040   7.580   7.013
  830SOL    HW112489   0.138   7.559   7.014
  830SOL    HW212490  -0.011   7.511   7.064
  831SOL     OW12491   1.398   3.271   2.456
  831SOL    HW112492   1.398   3.369   2.475
  831SOL    HW212493   1.373   3.255   2.361
  832SOL     OW12494   0.757   3.083   0.812
  832SOL    HW112495   0.748   3.020   0.734
  832SOL    HW212496   0.802   3.037   0.888
  833SOL     OW12497   6.007   7.063   6.963
  833SOL    HW112498   6.070   6.995   6.999
  833SOL    HW212499   5.931   7.018   6.916
  834SOL     OW12500   3.420   3.436   5.922
  834SOL    HW112501   3.472   3.517   5.897
  834SOL    HW212502   3.411   3.429   6.021
  835SOL     OW12503   3.891   5.403   0.566
  835SOL    HW112504   3.885   5.389   0.665
  835SOL    HW212505   3.921   5.497   0.547
  836SOL     OW12506   5.179   3.504   7.242
  836SOL    HW112507   5.093   3.545   7.273
  836SOL    HW212508   5.165   3.459   7.154
  837SOL     OW12509   7.772   5.186   6.508
  837SOL    HW112510   7.818   5.181   6.596
  837SOL    HW212511   7.776   5.280   6.472
  838SOL     OW12512   3.485   3.203   6.390
  838SOL    HW112513   3.452   3.294   6.413
  838SOL    HW212514   3.550   3.171   6.458
  839SOL     OW12515   7.349   4.157   4.963
  839SOL    HW112516   7.259   4.116   4.953
  839SOL    HW212517   7.342   4.257   4.965
  840SOL     OW12518   2.833   6.298   4.984
  840SOL    HW112519   2.801   6.357   5.059
  840SOL    HW212520   2.925   6.265   5.002
  841SOL     OW12521   2.155   4.633   7.410
  841SOL    HW112522   2.064   4.653   7.373
  841SOL    HW212523   2.164   4.671   7.502
  842SOL     OW12524   7.856   1.935   0.226
  842SOL    HW112525   7.920   2.003   0.262
  842SOL    HW212526   7.830   1.959   0.133
  843SOL     OW12527   3.361   6.667   3.622
  843SOL    HW112528   3.330   6.637   3.531
  843SOL    HW212529   3.342   6.595   3.689
  844SOL     OW12530   2.694   2.597   5.196
  844SOL    HW112531   2.609   2.550   5.170
  844SOL    HW212532   2.765   2.577   5.130
  845SOL     OW12533   3.656   3.213   0.371
  845SOL    HW112534   3.693   3.128   0.410
  845SOL    HW212535   3.671   3.214   0.272
  846SOL     OW12536   6.390   4.100   0.197
  846SOL    HW112537   6.337   4.077   0.278
  846SOL    HW212538   6.348   4.176   0.148
  847SOL     OW12539   6.500   5.831   1.953
  847SOL    HW112540   6.528   5.744   1.993
  847SOL    HW212541   6.531   5.837   1.858
  848SOL     OW12542   0.036   7.831   4.009
  848SOL    HW112543  -0.045   7.790   3.968
  848SOL    HW212544   0.067   7.776   4.087
  849SOL     OW12545   5.986   0.475   4.624
  849SOL    HW112546   5.902   0.482   4.570
  849SOL    HW212547   5.991   0.549   4.690
  850SOL     OW12548   6.127   1.180   2.665
  850SOL    HW112549   6.138   1.252   2.735
  850SOL    HW212550   6.032   1.148   2.665
  851SOL     OW12551   0.424   1.589   2.587
  851SOL    HW112552   0.344   1.628   2.541
  851SOL    HW212553   0.431   1.624   2.680
  852SOL     OW12554   6.392   3.858   1.822
  852SOL    HW112555   6.332   3.848   1.742
  852SOL    HW212556   6.361   3.798   1.895
  853SOL     OW12557   2.927   5.162   1.423
  853SOL    HW112558   2.933   5.087   1.357
  853SOL    HW212559   2.837   5.163   1.467
  854SOL     OW12560   6.490   3.483   1.540
  854SOL    HW112561   6.552   3.552   1.504
  854SOL    HW212562   6.512   3.463   1.636
  855SOL     OW12563   7.859   7.171   7.132
  855SOL    HW112564   7.819   7.128   7.051
  855SOL    HW212565   7.883   7.266   7.111
  856SOL     OW12566   3.832   7.536   6.637
  856SOL    HW112567   3.772   7.480   6.580
  856SOL    HW212568   3.778   7.586   6.705
  857SOL     OW12569   4.361   5.319   6.060
  857SOL    HW112570   4.406   5.402   6.093
  857SOL    HW212571   4.331   5.263   6.137
  858SOL     OW12572   4.980   3.617   2.266
  858SOL    HW112573   4.932   3.529   2.258
  858SOL    HW212574   4.930   3.678   2.327
  859SOL     OW12575   6.249   6.461   5.421
  859SOL    HW112576   6.207   6.538   5.374
  859SOL    HW212577   6.247   6.475   5.520
  860SOL     OW12578   1.345   2.255   0.631
  860SOL    HW112579   1.376   2.190   0.700
  860SOL    HW212580   1.424   2.294   0.582
  861SOL     OW12581   6.701   0.899   6.099
  861SOL    HW112582   6.736   0.868   6.010
  861SOL    HW212583   6.608   0.864   6.113
  862SOL     OW12584   2.584   2.502   2.408
  862SOL    HW112585   2.673   2.469   2.376
  862SOL    HW212586   2.535   2.429   2.455
  863SOL     OW12587   5.418   6.553   5.586
  863SOL    HW112588   5.342   6.509   5.537
  863SOL    HW212589   5.447   6.496   5.662
  864SOL     OW12590   6.023   6.697   0.658
  864SOL    HW112591   5.997   6.628   0.726
  864SOL    HW212592   5.994   6.787   0.688
  865SOL     OW12593   3.135   2.458   7.918
  865SOL    HW112594   3.208   2.391   7.907
  865SOL    HW212595   3.145   2.505   8.006
  866SOL     OW12596   4.352   2.849   6.722
  866SOL    HW112597   4.420   2.834   6.650
  866SOL    HW212598   4.396   2.888   6.803
  867SOL     OW12599   3.499   5.047   7.066
  867SOL    HW112600   3.571   5.098   7.019
  867SOL    HW212601   3.427   5.023   7.002
  868SOL     OW12602   3.418   7.801   6.930
  868SOL    HW112603   3.326   7.788   6.893
  868SOL    HW212604   3.413   7.848   7.018
  869SOL     OW12605   6.667   5.313   2.403
  869SOL    HW112606   6.629   5.394   2.448
  869SOL    HW212607   6.617   5.295   2.319
  870SOL     OW12608   6.267   4.729   7.219
  870SOL    HW112609   6.339   4.768   7.162
  870SOL    HW212610   6.233   4.798   7.284
  871SOL     OW12611   7.030   6.167   3.552
  871SOL    HW112612   7.035   6.071   3.527
  871SOL    HW212613   6.949   6.183   3.608
  872SOL     OW12614   1.470   7.000   5.694
  872SOL    HW112615   1.405   6.977   5.767
  872SOL    HW212616   1.422   7.045   5.619
  873SOL     OW12617   4.098   1.869   6.024
  873SOL    HW112618   4.193   1.862   5.993
  873SOL    HW212619   4.065   1.779   6.053
  874SOL     OW12620   5.594   7.191   3.033
  874SOL    HW112621   5.602   7.149   3.123
  874SOL    HW212622   5.684   7.220   3.000
  875SOL     OW12623   0.584   5.318   5.487
  875SOL    HW112624   0.600   5.219   5.489
  875SOL    HW212625   0.568   5.348   5.393
  876SOL     OW12626   1.563   1.540   4.775
  876SOL    HW112627   1.494   1.494   4.720
  876SOL    HW212628   1.653   1.501   4.756
  877SOL     OW12629   4.511   0.259   6.319
  877SOL    HW112630   4.565   0.259   6.234
  877SOL    HW212631   4.570   0.273   6.398
  878SOL     OW12632   7.068   4.599   7.316
  878SOL    HW112633   7.138   4.567   7.381
  878SOL    HW212634   7.112   4.635   7.234
  879SOL     OW12635   5.184   2.731   2.735
  879SOL    HW112636   5.095   2.767   2.762
  879SOL    HW212637   5.173   2.668   2.658
  880SOL     OW12638   6.242   0.062   7.663
  880SOL    HW112639   6.326   0.018   7.631
  880SOL    HW212640   6.218   0.028   7.754
  881SOL     OW12641   6.472   5.806   1.237
  881SOL    HW112642   6.451   5.794   1.140
  881SOL    HW212643   6.388   5.824   1.289
  882SOL     OW12644   5.296   2.361   0.661
  882SOL    HW112645   5.383   2.349   0.709
  882SOL    HW212646   5.289   2.296   0.585
  883SOL     OW12647   4.658   7.883   1.701
  883SOL    HW112648   4.728   7.889   1.630
  883SOL    HW212649   4.598   7.963   1.697
  884SOL     OW12650   1.233   5.957   2.686
  884SOL    HW112651   1.250   6.008   2.771
  884SOL    HW212652   1.136   5.939   2.676
  885SOL     OW12653   5.025   7.003   3.100
  885SOL    HW112654   4.985   6.912   3.086
  885SOL    HW212655   5.000   7.038   3.191
  886SOL     OW12656   1.501   3.498   4.750
  886SOL    HW112657   1.511   3.417   4.692
  886SOL    HW212658   1.439   3.480   4.825
  887SOL     OW12659   3.995   3.219   1.944
  887SOL    HW112660   4.069   3.153   1.936
  887SOL    HW212661   3.988   3.274   1.861
  888SOL     OW12662   6.797   5.458   5.126
  888SOL    HW112663   6.890   5.497   5.121
  888SOL    HW212664   6.738   5.519   5.179
  889SOL     OW12665   6.625   2.647   0.983
  889SOL    HW112666   6.544   2.664   1.040
  889SOL    HW212667   6.707   2.642   1.041
  890SOL     OW12668   1.757   1.042   6.685
  890SOL    HW112669   1.854   1.059   6.705
  890SOL    HW212670   1.714   1.127   6.654
  891SOL     OW12671   7.958   0.823   7.017
  891SOL    HW112672   7.940   0.833   6.919
  891SOL    HW212673   7.885   0.866   7.070
  892SOL     OW12674   2.100   6.263   3.850
  892SOL    HW112675   2.176   6.226   3.797
  892SOL    HW212676   2.066   6.346   3.806
  893SOL     OW12677   7.602   2.921   3.016
  893SOL    HW112678   7.546   2.843   3.045
  893SOL    HW212679   7.689   2.888   2.979
  894SOL     OW12680   1.424   7.365   3.898
  894SOL    HW112681   1.424   7.282   3.954
  894SOL    HW212682   1.350   7.425   3.926
  895SOL     OW12683   4.431   4.801   7.106
  895SOL    HW112684   4.530   4.793   7.101
  895SOL    HW212685   4.392   4.723   7.155
  896SOL     OW12686   7.115   0.387   1.668
  896SOL    HW112687   7.208   0.363   1.697
  896SOL    HW212688   7.118   0.433   1.579
  897SOL     OW12689   7.321   3.101   1.089
  897SOL    HW112690   7.277   3.015   1.063
  897SOL    HW212691   7.311   3.117   1.187
  898SOL     OW12692   7.391   1.800   1.221
  898SOL    HW112693   7.390   1.824   1.124
  898SOL    HW212694   7.380   1.701   1.232
  899SOL     OW12695   4.776   4.662   4.370
  899SOL    HW112696   4.683   4.625   4.379
  899SOL    HW212697   4.814   4.636   4.281
  900SOL     OW12698   4.508   0.134   0.149
  900SOL    HW112699   4.447   0.212   0.165
  900SOL    HW212700   4.506   0.109   0.052
  901SOL     OW12701   7.720   7.757   0.398
  901SOL    HW112702   7.742   7.696   0.474
  901SOL    HW212703   7.626   7.789   0.406
  902SOL     OW12704   1.837   2.174   2.950
  902SOL    HW112705   1.814   2.145   3.043
  902SOL    HW212706   1.758   2.216   2.907
  903SOL     OW12707   6.547   7.065   0.937
  903SOL    HW112708   6.584   6.980   0.974
  903SOL    HW212709   6.582   7.081   0.845
  904SOL     OW12710   5.800   2.663   0.643
  904SOL    HW112711   5.775   2.734   0.710
  904SOL    HW212712   5.724   2.648   0.580
  905SOL     OW12713   7.159   4.644   2.094
  905SOL    HW112714   7.081   4.707   2.093
  905SOL    HW212715   7.147   4.573   2.024
  906SOL     OW12716   6.502   2.445   6.215
  906SOL    HW112717   6.537   2.453   6.308
  906SOL    HW212718   6.564   2.388   6.160
  907SOL     OW12719   4.276   5.554   1.202
  907SOL    HW112720   4.228   5.573   1.117
  907SOL    HW212721   4.212   5.556   1.279
  908SOL     OW12722   6.648   6.233   1.967
  908SOL    HW112723   6.596   6.308   1.927
  908SOL    HW212724   6.700   6.264   2.046
  909SOL     OW12725   3.800   5.578   0.371
  909SOL    HW112726   3.872   5.530   0.320
  909SOL    HW212727   3.771   5.660   0.320
  910SOL     OW12728   3.229   2.921   2.470
  910SOL    HW112729   3.217   2.975   2.386
  910SOL    HW212730   3.308   2.954   2.520
  911SOL     OW12731   7.949   0.954   4.468
  911SOL    HW112732   7.859   0.996   4.455
  911SOL    HW212733   7.955   0.868   4.417
  912SOL     OW12734   4.518   2.554   5.129
  912SOL    HW112735   4.427   2.571   5.090
  912SOL    HW212736   4.525   2.598   5.219
  913SOL     OW12737   5.651   3.779   7.033
  913SOL    HW112738   5.652   3.878   7.015
  913SOL    HW212739   5.557   3.748   7.041
  914SOL     OW12740   4.147   4.672   4.406
  914SOL    HW112741   4.123   4.767   4.387
  914SOL    HW212742   4.073   4.611   4.375
  915SOL     OW12743   0.955   0.118   2.047
  915SOL    HW112744   1.050   0.087   2.051
  915SOL    HW212745   0.904   0.082   2.125
  916SOL     OW12746   5.642   5.967   0.909
  916SOL    HW112747   5.637   5.867   0.912
  916SOL    HW212748   5.693   5.996   0.829
  917SOL     OW12749   4.799   4.484   1.489
  917SOL    HW112750   4.735   4.520   1.421
  917SOL    HW212751   4.891   4.519   1.471
  918SOL     OW12752   2.219   5.618   2.223
  918SOL    HW112753   2.293   5.561   2.258
  918SOL    HW212754   2.244   5.653   2.132
  919SOL     OW12755   7.248   3.536   3.053
  919SOL    HW112756   7.200   3.451   3.073
  919SOL    HW212757   7.325   3.519   2.991
  920SOL     OW12758   6.159   0.144   0.107
  920SOL    HW112759   6.149   0.190   0.018
  920SOL    HW212760   6.255   0.138   0.132
  921SOL     OW12761   3.069   0.319   5.150
  921SOL    HW112762   2.979   0.298   5.187
  921SOL    HW212763   3.085   0.267   5.066
  922SOL     OW12764   3.140   2.531   6.968
  922SOL    HW112765   3.070   2.525   7.039
  922SOL    HW212766   3.154   2.441   6.927
  923SOL     OW12767   5.866   3.062   7.338
  923SOL    HW112768   5.873   3.125   7.260
  923SOL    HW212769   5.894   3.108   7.422
  924SOL     OW12770   0.107   7.035   5.420
  924SOL    HW112771   0.014   7.007   5.395
  924SOL    HW212772   0.104   7.123   5.467
  925SOL     OW12773   7.877   5.800   0.806
  925SOL    HW112774   7.954   5.836   0.753
  925SOL    HW212775   7.901   5.795   0.903
  926SOL     OW12776   3.795   3.422   1.018
  926SOL    HW112777   3.846   3.505   1.041
  926SOL    HW212778   3.781   3.417   0.919
  927SOL     OW12779   5.587   1.541   7.286
  927SOL    HW112780   5.606   1.630   7.327
  927SOL    HW212781   5.563   1.553   7.189
  928SOL     OW12782   6.234   7.828   0.859
  928SOL    HW112783   6.212   7.884   0.779
  928SOL    HW212784   6.154   7.776   0.887
  929SOL     OW12785   2.934   2.485   1.684
  929SOL    HW112786   2.918   2.425   1.763
  929SOL    HW212787   2.847   2.511   1.642
  930SOL     OW12788   7.880   2.387   5.233
  930SOL    HW112789   7.955   2.436   5.189
  930SOL    HW212790   7.905   2.360   5.326
  931SOL     OW12791   6.618   3.748   2.191
  931SOL    HW112792   6.530   3.729   2.145
  931SOL    HW212793   6.603   3.760   2.289
  932SOL     OW12794   1.892   7.161   0.963
  932SOL    HW112795   1.962   7.091   0.984
  932SOL    HW212796   1.815   7.152   1.026
  933SOL     OW12797   5.432   0.254   3.540
  933SOL    HW112798   5.430   0.279   3.443
  933SOL    HW212799   5.525   0.235   3.569
  934SOL     OW12800   1.387   4.885   0.115
  934SOL    HW112801   1.382   4.979   0.147
  934SOL    HW212802   1.350   4.878   0.023
  935SOL     OW12803   6.038   6.209   6.507
  935SOL    HW112804   6.081   6.286   6.555
  935SOL    HW212805   6.075   6.123   6.542
  936SOL     OW12806   3.229   3.624   5.760
  936SOL    HW112807   3.318   3.652   5.795
  936SOL    HW212808   3.216   3.661   5.667
  937SOL     OW12809   4.303   2.680   3.154
  937SOL    HW112810   4.215   2.634   3.142
  937SOL    HW212811   4.300   2.740   3.233
  938SOL     OW12812   0.586   3.162   2.060
  938SOL    HW112813   0.517   3.108   2.110
  938SOL    HW212814   0.665   3.179   2.119
  939SOL     OW12815   2.499   5.817   1.673
  939SOL    HW112816   2.468   5.887   1.609
  939SOL    HW212817   2.478   5.845   1.767
  940SOL     OW12818   4.094   4.845   5.983
  940SOL    HW112819   4.056   4.776   6.046
  940SOL    HW212820   4.103   4.805   5.892
  941SOL     OW12821   5.261   1.671   2.348
  941SOL    HW112822   5.200   1.645   2.423
  941SOL    HW212823   5.243   1.615   2.268
  942SOL     OW12824   5.426   6.238   2.989
  942SOL    HW112825   5.335   6.196   2.998
  942SOL    HW212826   5.496   6.171   3.016
  943SOL     OW12827   7.252   0.707   0.216
  943SOL    HW112828   7.323   0.751   0.161
  943SOL    HW212829   7.288   0.687   0.307
  944SOL     OW12830   0.356   6.586   0.998
  944SOL    HW112831   0.431   6.528   1.032
  944SOL    HW212832   0.356   6.587   0.898
  945SOL     OW12833   6.472   0.912   4.935
  945SOL    HW112834   6.474   0.996   4.990
  945SOL    HW212835   6.514   0.928   4.846
  946SOL     OW12836   5.264   2.377   6.239
  946SOL    HW112837   5.207   2.452   6.272
  946SOL    HW212838   5.318   2.407   6.161
  947SOL     OW12839   1.694   2.726   1.033
  947SOL    HW112840   1.769   2.665   1.058
  947SOL    HW212841   1.701   2.752   0.937
  948SOL     OW12842   0.462   0.176   1.522
  948SOL    HW112843   0.438   0.221   1.608
  948SOL    HW212844   0.560   0.187   1.504
  949SOL     OW12845   0.700   7.022   5.617
  949SOL    HW112846   0.634   7.091   5.647
  949SOL    HW212847   0.793   7.056   5.632
  950SOL     OW12848   3.928   7.279   6.470
  950SOL    HW112849   3.873   7.327   6.401
  950SOL    HW212850   3.894   7.185   6.482
  951SOL     OW12851   6.603   3.451   0.520
  951SOL    HW112852   6.544   3.426   0.597
  951SOL    HW212853   6.662   3.527   0.547
  952SOL     OW12854   2.599   5.282   5.875
  952SOL    HW112855   2.672   5.249   5.936
  952SOL    HW212856   2.510   5.252   5.910
  953SOL     OW12857   1.788   0.077   5.665
  953SOL    HW112858   1.729  -0.003   5.677
  953SOL    HW212859   1.841   0.094   5.748
  954SOL     OW12860   2.705   2.544   3.924
  954SOL    HW112861   2.658   2.494   3.996
  954SOL    HW212862   2.640   2.566   3.850
  955SOL     OW12863   7.037   2.706   6.832
  955SOL    HW112864   6.944   2.740   6.846
  955SOL    HW212865   7.101   2.757   6.890
  956SOL     OW12866   4.400   7.100   1.474
  956SOL    HW112867   4.341   7.084   1.553
  956SOL    HW212868   4.367   7.048   1.395
  957SOL     OW12869   4.650   1.119   5.589
  957SOL    HW112870   4.663   1.166   5.502
  957SOL    HW212871   4.699   1.168   5.661
  958SOL     OW12872   2.922   2.811   7.723
  958SOL    HW112873   2.912   2.831   7.626
  958SOL    HW212874   2.837   2.832   7.771
  959SOL     OW12875   2.587   2.762   2.478
  959SOL    HW112876   2.616   2.815   2.558
  959SOL    HW212877   2.627   2.801   2.395
  960SOL     OW12878   7.066   6.149   6.721
  960SOL    HW112879   7.025   6.071   6.674
  960SOL    HW212880   7.101   6.121   6.811
  961SOL     OW12881   6.817   4.036   0.411
  961SOL    HW112882   6.738   3.975   0.416
  961SOL    HW212883   6.826   4.072   0.318
  962SOL     OW12884   3.442   5.666   1.506
  962SOL    HW112885   3.488   5.755   1.516
  962SOL    HW212886   3.346   5.680   1.480
  963SOL     OW12887   4.585   2.018   2.584
  963SOL    HW112888   4.661   1.963   2.618
  963SOL    HW212889   4.498   1.971   2.600
  964SOL     OW12890   5.763   3.765   0.899
  964SOL    HW112891   5.799   3.684   0.852
  964SOL    HW212892   5.724   3.739   0.987
  965SOL     OW12893   0.115   7.989   6.988
  965SOL    HW112894   0.058   7.948   6.917
  965SOL    HW212895   0.067   7.987   7.076
  966SOL     OW12896   5.891   7.011   4.546
  966SOL    HW112897   5.878   6.920   4.506
  966SOL    HW212898   5.924   7.002   4.640
  967SOL     OW12899   1.752   2.129   0.756
  967SOL    HW112900   1.696   2.047   0.772
  967SOL    HW212901   1.802   2.119   0.671
  968SOL     OW12902   4.368   0.875   6.276
  968SOL    HW112903   4.396   0.964   6.240
  968SOL    HW212904   4.392   0.867   6.372
  969SOL     OW12905   3.621   7.229   3.355
  969SOL    HW112906   3.603   7.138   3.316
  969SOL    HW212907   3.599   7.230   3.452
  970SOL     OW12908   3.486   4.354   5.009
  970SOL    HW112909   3.568   4.297   5.022
  970SOL    HW212910   3.415   4.300   4.963
  971SOL     OW12911   6.192   4.295   5.883
  971SOL    HW112912   6.194   4.371   5.948
  971SOL    HW212913   6.247   4.219   5.917
  972SOL     OW12914   1.233   6.878   6.789
  972SOL    HW112915   1.324   6.867   6.829
  972SOL    HW212916   1.240   6.917   6.698
  973SOL     OW12917   1.578   2.439   6.061
  973SOL    HW112918   1.671   2.411   6.038
  973SOL    HW212919   1.519   2.428   5.981
  974SOL     OW12920   4.193   1.876   1.768
  974SOL    HW112921   4.292   1.887   1.756
  974SOL    HW212922   4.161   1.937   1.840
  975SOL     OW12923   0.814   7.837   0.539
  975SOL    HW112924   0.875   7.837   0.619
  975SOL    HW212925   0.838   7.762   0.478
  976SOL     OW12926   6.072   2.821   2.555
  976SOL    HW112927   6.133   2.900   2.545
  976SOL    HW212928   6.050   2.783   2.465
  977SOL     OW12929   6.986   7.893   1.814
  977SOL    HW112930   6.961   7.990   1.816
  977SOL    HW212931   7.003   7.864   1.720
  978SOL     OW12932   5.444   3.809   4.694
  978SOL    HW112933   5.461   3.895   4.743
  978SOL    HW212934   5.406   3.828   4.604
  979SOL     OW12935   4.501   2.682   2.836
  979SOL    HW112936   4.432   2.747   2.805
  979SOL    HW212937   4.524   2.619   2.762
  980SOL     OW12938   5.874   3.356   1.617
  980SOL    HW112939   5.783   3.342   1.576
  980SOL    HW212940   5.866   3.407   1.702
  981SOL     OW12941   5.755   4.678   1.248
  981SOL    HW112942   5.672   4.636   1.284
  981SOL    HW212943   5.731   4.746   1.178
  982SOL     OW12944   4.422   2.489   0.035
  982SOL    HW112945   4.454   2.578   0.067
  982SOL    HW212946   4.323   2.493   0.017
  983SOL     OW12947   3.268   1.856   1.522
  983SOL    HW112948   3.349   1.843   1.465
  983SOL    HW212949   3.186   1.849   1.466
  984SOL     OW12950   2.995   5.646   1.301
  984SOL    HW112951   3.044   5.628   1.216
  984SOL    HW212952   3.051   5.618   1.379
  985SOL     OW12953   3.196   1.532   0.690
  985SOL    HW112954   3.168   1.493   0.777
  985SOL    HW212955   3.219   1.459   0.625
  986SOL     OW12956   7.178   3.458   5.450
  986SOL    HW112957   7.088   3.500   5.439
  986SOL    HW212958   7.249   3.529   5.450
  987SOL     OW12959   0.445   7.931   2.288
  987SOL    HW112960   0.370   7.865   2.287
  987SOL    HW212961   0.492   7.930   2.199
  988SOL     OW12962   5.407   6.114   3.814
  988SOL    HW112963   5.443   6.020   3.809
  988SOL    HW212964   5.319   6.119   3.769
  989SOL     OW12965   1.390   5.867   1.104
  989SOL    HW112966   1.473   5.821   1.135
  989SOL    HW212967   1.310   5.822   1.144
  990SOL     OW12968   4.912   7.093   2.885
  990SOL    HW112969   4.880   7.154   2.813
  990SOL    HW212970   4.898   7.134   2.974
  991SOL     OW12971   1.080   2.216   1.036
  991SOL    HW112972   1.047   2.298   1.083
  991SOL    HW212973   1.019   2.194   0.960
  992SOL     OW12974   3.933   7.950   7.803
  992SOL    HW112975   3.943   7.985   7.896
  992SOL    HW212976   3.900   7.856   7.805
  993SOL     OW12977   2.039   3.751   2.702
  993SOL    HW112978   2.038   3.779   2.606
  993SOL    HW212979   1.949   3.766   2.742
  994SOL     OW12980   2.231   6.267   2.379
  994SOL    HW112981   2.329   6.258   2.395
  994SOL    HW212982   2.214   6.298   2.286
  995SOL     OW12983   7.643   1.772   3.422
  995SOL    HW112984   7.698   1.775   3.505
  995SOL    HW212985   7.674   1.697   3.363
  996SOL     OW12986   3.501   1.973   0.814
  996SOL    HW112987   3.460   2.061   0.837
  996SOL    HW212988   3.447   1.899   0.853
  997SOL     OW12989   1.191   1.285   4.620
  997SOL    HW112990   1.146   1.237   4.695
  997SOL    HW212991   1.290   1.284   4.633
  998SOL     OW12992   2.543   3.451   3.369
  998SOL    HW112993   2.588   3.363   3.352
  998SOL    HW212994   2.463   3.460   3.310
  999SOL     OW12995   0.558   5.009   6.117
  999SOL    HW112996   0.627   5.079   6.100
  999SOL    HW212997   0.563   4.979   6.212
 1000SOL     OW12998   2.636   7.578   4.924
 1000SOL    HW112999   2.638   7.594   5.022
 1000SOL    HW213000   2.686   7.495   4.901
 1001SOL     OW13001   2.020   4.698   3.553
 1001SOL    HW113002   2.120   4.705   3.551
 1001SOL    HW213003   1.980   4.786   3.578
 1002SOL     OW13004   0.437   1.547   1.482
 1002SOL    HW113005   0.454   1.494   1.565
 1002SOL    HW213006   0.483   1.635   1.487
 1003SOL     OW13007   7.593   3.550   0.618
 1003SOL    HW113008   7.654   3.627   0.638
 1003SOL    HW213009   7.523   3.542   0.689
 1004SOL     OW13010   7.848   6.297   3.065
 1004SOL    HW113011   7.765   6.253   3.029
 1004SOL    HW213012   7.833   6.327   3.159
 1005SOL     OW13013   5.873   5.695   4.059
 1005SOL    HW113014   5.796   5.709   3.996
 1005SOL    HW213015   5.952   5.747   4.028
 1006SOL     OW13016   1.718   3.219   7.096
 1006SOL    HW113017   1.666   3.245   7.178
 1006SOL    HW213018   1.660   3.166   7.035
 1007SOL     OW13019   6.754   0.699   1.814
 1007SOL    HW113020   6.847   0.691   1.850
 1007SOL    HW213021   6.753   0.676   1.717
 1008SOL     OW13022   7.597   1.553   0.210
 1008SOL    HW113023   7.690   1.571   0.179
 1008SOL    HW213024   7.596   1.543   0.310
 1009SOL     OW13025   2.231   1.165   1.990
 1009SOL    HW113026   2.241   1.142   2.087
 1009SOL    HW213027   2.136   1.156   1.963
 1010SOL     OW13028   3.570   0.060   4.588
 1010SOL    HW113029   3.602  -0.011   4.524
 1010SOL    HW213030   3.553   0.020   4.678
 1011SOL     OW13031   0.912   0.862   4.230
 1011SOL    HW113032   0.818   0.842   4.258
 1011SOL    HW213033   0.912   0.938   4.164
 1012SOL     OW13034   6.957   0.802   2.642
 1012SOL    HW113035   6.908   0.829   2.559
 1012SOL    HW213036   6.899   0.742   2.697
 1013SOL     OW13037   1.536   0.473   1.939
 1013SOL    HW113038   1.524   0.400   1.872
 1013SOL    HW213039   1.525   0.436   2.032
 1014SOL     OW13040   0.340   2.028   2.665
 1014SOL    HW113041   0.435   2.013   2.640
 1014SOL    HW213042   0.306   1.950   2.718
 1015SOL     OW13043   4.932   7.424   3.103
 1015SOL    HW113044   4.880   7.495   3.151
 1015SOL    HW213045   5.017   7.462   3.066
 1016SOL     OW13046   0.476   0.198   3.642
 1016SOL    HW113047   0.574   0.203   3.622
 1016SOL    HW213048   0.435   0.289   3.633
 1017SOL     OW13049   4.177   5.237   0.142
 1017SOL    HW113050   4.198   5.330   0.112
 1017SOL    HW213051   4.260   5.181   0.141
 1018SOL     OW13052   4.777   4.168   7.490
 1018SOL    HW113053   4.727   4.242   7.535
 1018SOL    HW213054   4.768   4.084   7.543
 1019SOL     OW13055   0.309   4.121   6.921
 1019SOL    HW113056   0.336   4.209   6.960
 1019SOL    HW213057   0.292   4.055   6.994
 1020SOL     OW13058   1.190   0.507   6.947
 1020SOL    HW113059   1.289   0.498   6.931
 1020SOL    HW213060   1.167   0.468   7.035
 1021SOL     OW13061   1.258   4.208   2.129
 1021SOL    HW113062   1.185   4.270   2.099
 1021SOL    HW213063   1.226   4.155   2.208
 1022SOL     OW13064   2.886   2.648   3.429
 1022SOL    HW113065   2.791   2.628   3.404
 1022SOL    HW213066   2.923   2.575   3.487
 1023SOL     OW13067   4.633   6.204   7.774
 1023SOL    HW113068   4.656   6.216   7.871
 1023SOL    HW213069   4.645   6.290   7.725
 1024SOL     OW13070   1.295   3.583   1.507
 1024SOL    HW113071   1.241   3.501   1.523
 1024SOL    HW213072   1.348   3.573   1.422
 1025SOL     OW13073   0.855   1.782   1.511
 1025SOL    HW113074   0.951   1.808   1.506
 1025SOL    HW213075   0.814   1.786   1.420
 1026SOL     OW13076   0.942   7.168   6.151
 1026SOL    HW113077   0.915   7.076   6.122
 1026SOL    HW213078   0.861   7.221   6.176
 1027SOL     OW13079   3.837   1.369   4.736
 1027SOL    HW113080   3.871   1.279   4.764
 1027SOL    HW213081   3.784   1.360   4.651
 1028SOL     OW13082   6.776   1.007   2.082
 1028SOL    HW113083   6.825   1.086   2.045
 1028SOL    HW213084   6.808   0.986   2.174
 1029SOL     OW13085   2.507   7.780   4.518
 1029SOL    HW113086   2.472   7.855   4.574
 1029SOL    HW213087   2.440   7.707   4.513
 1030SOL     OW13088   3.393   5.943   0.389
 1030SOL    HW113089   3.314   5.993   0.356
 1030SOL    HW213090   3.419   5.976   0.480
 1031SOL     OW13091   7.725   2.696   3.535
 1031SOL    HW113092   7.722   2.795   3.552
 1031SOL    HW213093   7.648   2.651   3.579
 1032SOL     OW13094   4.277   2.423   4.910
 1032SOL    HW113095   4.213   2.347   4.924
 1032SOL    HW213096   4.261   2.465   4.821
 1033SOL     OW13097   1.670   7.541   3.176
 1033SOL    HW113098   1.595   7.485   3.210
 1033SOL    HW213099   1.735   7.559   3.250
 1034SOL     OW13100   6.431   1.678   3.995
 1034SOL    HW113101   6.376   1.619   3.935
 1034SOL    HW213102   6.479   1.622   4.062
 1035SOL     OW13103   2.627   0.209   1.743
 1035SOL    HW113104   2.534   0.229   1.773
 1035SOL    HW213105   2.625   0.157   1.658
 1036SOL     OW13106   5.567   1.233   7.895
 1036SOL    HW113107   5.495   1.234   7.965
 1036SOL    HW213108   5.602   1.326   7.881
 1037SOL     OW13109   2.979   2.528   6.541
 1037SOL    HW113110   2.943   2.620   6.525
 1037SOL    HW213111   3.059   2.532   6.601
 1038SOL     OW13112   0.065   5.456   4.656
 1038SOL    HW113113   0.084   5.547   4.619
 1038SOL    HW213114   0.094   5.451   4.752
 1039SOL     OW13115   0.335   6.331   6.931
 1039SOL    HW113116   0.427   6.292   6.939
 1039SOL    HW213117   0.296   6.348   7.021
 1040SOL     OW13118   7.673   4.568   7.898
 1040SOL    HW113119   7.579   4.600   7.880
 1040SOL    HW213120   7.686   4.555   7.996
 1041SOL     OW13121   6.984   0.568   0.787
 1041SOL    HW113122   7.040   0.650   0.777
 1041SOL    HW213123   7.024   0.508   0.857
 1042SOL     OW13124   0.261   2.157   1.886
 1042SOL    HW113125   0.277   2.084   1.819
 1042SOL    HW213126   0.273   2.246   1.842
 1043SOL     OW13127   2.452   1.087   0.061
 1043SOL    HW113128   2.352   1.091   0.056
 1043SOL    HW213129   2.484   1.135   0.142
 1044SOL     OW13130   0.627   5.611   0.304
 1044SOL    HW113131   0.610   5.512   0.311
 1044SOL    HW213132   0.542   5.659   0.283
 1045SOL     OW13133   4.471   6.448   5.532
 1045SOL    HW113134   4.548   6.507   5.554
 1045SOL    HW213135   4.490   6.396   5.449
 1046SOL     OW13136   4.551   1.722   1.964
 1046SOL    HW113137   4.612   1.668   1.906
 1046SOL    HW213138   4.466   1.672   1.980
 1047SOL     OW13139   6.094   0.398   3.748
 1047SOL    HW113140   6.180   0.357   3.720
 1047SOL    HW213141   6.017   0.352   3.703
 1048SOL     OW13142   6.849   2.441   6.258
 1048SOL    HW113143   6.813   2.529   6.228
 1048SOL    HW213144   6.904   2.453   6.341
 1049SOL     OW13145   6.966   2.759   1.322
 1049SOL    HW113146   7.066   2.755   1.318
 1049SOL    HW213147   6.931   2.811   1.245
 1050SOL     OW13148   2.208   4.288   1.236
 1050SOL    HW113149   2.286   4.231   1.263
 1050SOL    HW213150   2.222   4.382   1.266
 1051SOL     OW13151   7.801   2.743   4.477
 1051SOL    HW113152   7.882   2.727   4.534
 1051SOL    HW213153   7.719   2.715   4.526
 1052SOL     OW13154   3.558   3.367   5.612
 1052SOL    HW113155   3.609   3.298   5.663
 1052SOL    HW213156   3.484   3.404   5.668
 1053SOL     OW13157   3.602   3.766   3.965
 1053SOL    HW113158   3.521   3.741   4.019
 1053SOL    HW213159   3.683   3.767   4.023
 1054SOL     OW13160   1.008   3.137   3.904
 1054SOL    HW113161   1.048   3.177   3.821
 1054SOL    HW213162   0.939   3.070   3.879
 1055SOL     OW13163   1.127   0.775   4.109
 1055SOL    HW113164   1.084   0.716   4.177
 1055SOL    HW213165   1.116   0.736   4.018
 1056SOL     OW13166   5.219   4.129   1.898
 1056SOL    HW113167   5.302   4.143   1.952
 1056SOL    HW213168   5.196   4.212   1.848
 1057SOL     OW13169   5.922   4.304   2.692
 1057SOL    HW113170   5.905   4.402   2.704
 1057SOL    HW213171   5.879   4.272   2.608
 1058SOL     OW13172   0.765   5.936   5.532
 1058SOL    HW113173   0.716   5.859   5.573
 1058SOL    HW213174   0.798   5.910   5.441
 1059SOL     OW13175   3.465   4.786   8.008
 1059SOL    HW113176   3.381   4.741   7.977
 1059SOL    HW213177   3.485   4.865   7.950
 1060SOL     OW13178   4.540   4.334   7.696
 1060SOL    HW113179   4.618   4.342   7.757
 1060SOL    HW213180   4.509   4.425   7.668
 1061SOL     OW13181   2.014   0.925   4.712
 1061SOL    HW113182   2.000   0.899   4.808
 1061SOL    HW213183   2.078   1.001   4.707
 1062SOL     OW13184   4.702   2.920   6.097
 1062SOL    HW113185   4.608   2.886   6.082
 1062SOL    HW213186   4.699   3.017   6.120
 1063SOL     OW13187   0.357   3.577   5.332
 1063SOL    HW113188   0.411   3.493   5.325
 1063SOL    HW213189   0.264   3.562   5.299
 1064SOL     OW13190   5.755   5.823   6.223
 1064SOL    HW113191   5.774   5.772   6.307
 1064SOL    HW213192   5.668   5.793   6.184
 1065SOL     OW13193   7.153   3.512   0.401
 1065SOL    HW113194   7.187   3.603   0.378
 1065SOL    HW213195   7.109   3.470   0.321
 1066SOL     OW13196   1.791   0.622   1.952
 1066SOL    HW113197   1.873   0.680   1.946
 1066SOL    HW213198   1.742   0.642   2.037
 1067SOL     OW13199   3.973   4.290   3.619
 1067SOL    HW113200   3.995   4.248   3.707
 1067SOL    HW213201   3.997   4.228   3.544
 1068SOL     OW13202   3.784   1.477   7.071
 1068SOL    HW113203   3.836   1.425   7.002
 1068SOL    HW213204   3.698   1.507   7.033
 1069SOL     OW13205   1.038   4.479   0.566
 1069SOL    HW113206   1.125   4.451   0.608
 1069SOL    HW213207   1.047   4.481   0.467
 1070SOL     OW13208   3.350   3.098   1.303
 1070SOL    HW113209   3.279   3.111   1.373
 1070SOL    HW213210   3.386   3.187   1.274
 1071SOL     OW13211   5.142   4.169   7.054
 1071SOL    HW113212   5.123   4.234   6.981
 1071SOL    HW213213   5.236   4.181   7.087
 1072SOL     OW13214   2.019   2.149   7.193
 1072SOL    HW113215   2.071   2.223   7.151
 1072SOL    HW213216   2.057   2.128   7.283
 1073SOL     OW13217   7.542   5.758   3.605
 1073SOL    HW113218   7.604   5.709   3.666
 1073SOL    HW213219   7.512   5.698   3.530
 1074SOL     OW13220   2.960   1.387   6.592
 1074SOL    HW113221   2.952   1.401   6.691
 1074SOL    HW213222   3.047   1.423   6.560
 1075SOL     OW13223   1.891   4.139   0.043
 1075SOL    HW113224   1.983   4.172   0.022
 1075SOL    HW213225   1.872   4.152   0.141
 1076SOL     OW13226   2.643   4.343   2.463
 1076SOL    HW113227   2.663   4.311   2.370
 1076SOL    HW213228   2.552   4.314   2.491
 1077SOL     OW13229   0.023   5.851   7.713
 1077SOL    HW113230   0.021   5.775   7.778
 1077SOL    HW213231   0.094   5.836   7.645
 1078SOL     OW13232   6.696   2.065   2.801
 1078SOL    HW113233   6.630   2.130   2.840
 1078SOL    HW213234   6.670   2.042   2.707
 1079SOL     OW13235   0.946   0.869   3.462
 1079SOL    HW113236   0.938   0.848   3.364
 1079SOL    HW213237   1.040   0.895   3.484
 1080SOL     OW13238   0.584   1.798   2.787
 1080SOL    HW113239   0.497   1.824   2.745
 1080SOL    HW213240   0.621   1.717   2.742
 1081SOL     OW13241   1.865   0.909   6.460
 1081SOL    HW113242   1.823   0.820   6.474
 1081SOL    HW213243   1.960   0.898   6.429
 1082SOL     OW13244   4.452   4.528   4.350
 1082SOL    HW113245   4.378   4.587   4.319
 1082SOL    HW213246   4.467   4.540   4.448
 1083SOL     OW13247   5.911   0.739   2.141
 1083SOL    HW113248   5.971   0.796   2.084
 1083SOL    HW213249   5.892   0.652   2.096
 1084SOL     OW13250   5.077   0.894   0.773
 1084SOL    HW113251   5.154   0.841   0.810
 1084SOL    HW213252   5.099   0.926   0.681
 1085SOL     OW13253   6.125   6.393   5.944
 1085SOL    HW113254   6.036   6.438   5.939
 1085SOL    HW213255   6.191   6.452   5.990
 1086SOL     OW13256   0.417   2.592   2.374
 1086SOL    HW113257   0.341   2.527   2.366
 1086SOL    HW213258   0.382   2.681   2.403
 1087SOL     OW13259   2.143   2.998   7.387
 1087SOL    HW113260   2.100   2.942   7.457
 1087SOL    HW213261   2.205   2.943   7.332
 1088SOL     OW13262   4.741   3.076   2.666
 1088SOL    HW113263   4.669   3.030   2.614
 1088SOL    HW213264   4.705   3.105   2.755
 1089SOL     OW13265   1.626   5.171   1.128
 1089SOL    HW113266   1.617   5.266   1.097
 1089SOL    HW213267   1.722   5.149   1.142
 1090SOL     OW13268   0.054   1.588   7.042
 1090SOL    HW113269   0.057   1.670   6.986
 1090SOL    HW213270  -0.040   1.564   7.063
 1091SOL     OW13271   1.456   2.893   6.192
 1091SOL    HW113272   1.457   2.991   6.175
 1091SOL    HW213273   1.549   2.857   6.193
 1092SOL     OW13274   7.472   0.655   3.106
 1092SOL    HW113275   7.415   0.633   3.027
 1092SOL    HW213276   7.480   0.576   3.166
 1093SOL     OW13277   4.462   3.085   6.035
 1093SOL    HW113278   4.457   3.005   5.975
 1093SOL    HW213279   4.389   3.081   6.103
 1094SOL     OW13280   3.527   2.536   3.161
 1094SOL    HW113281   3.536   2.488   3.248
 1094SOL    HW213282   3.600   2.509   3.099
 1095SOL     OW13283   5.391   1.525   7.610
 1095SOL    HW113284   5.380   1.425   7.620
 1095SOL    HW213285   5.399   1.549   7.514
 1096SOL     OW13286   3.212   0.730   3.319
 1096SOL    HW113287   3.227   0.818   3.365
 1096SOL    HW213288   3.182   0.745   3.225
 1097SOL     OW13289   6.601   5.971   1.103
 1097SOL    HW113290   6.567   6.056   1.144
 1097SOL    HW213291   6.548   5.951   1.020
 1098SOL     OW13292   0.975   5.372   1.343
 1098SOL    HW113293   0.881   5.382   1.310
 1098SOL    HW213294   1.022   5.301   1.292
 1099SOL     OW13295   0.949   6.421   2.488
 1099SOL    HW113296   0.993   6.509   2.508
 1099SOL    HW213297   0.916   6.421   2.394
 1100SOL     OW13298   4.924   6.275   1.483
 1100SOL    HW113299   4.899   6.197   1.426
 1100SOL    HW213300   4.876   6.271   1.570
 1101SOL     OW13301   5.042   4.334   5.296
 1101SOL    HW113302   5.067   4.415   5.243
 1101SOL    HW213303   5.041   4.254   5.237
 1102SOL     OW13304   2.978   5.376   5.922
 1102SOL    HW113305   2.908   5.305   5.928
 1102SOL    HW213306   3.059   5.340   5.876
 1103SOL     OW13307   3.740   6.144   6.800
 1103SOL    HW113308   3.761   6.174   6.707
 1103SOL    HW213309   3.750   6.221   6.864
 1104SOL     OW13310   4.144   6.096   7.865
 1104SOL    HW113311   4.233   6.051   7.865
 1104SOL    HW213312   4.152   6.190   7.832
 1105SOL     OW13313   0.378   2.765   7.596
 1105SOL    HW113314   0.381   2.856   7.556
 1105SOL    HW213315   0.373   2.696   7.523
 1106SOL     OW13316   0.867   1.887   7.784
 1106SOL    HW113317   0.792   1.905   7.720
 1106SOL    HW213318   0.842   1.917   7.876
 1107SOL     OW13319   3.975   2.983   3.860
 1107SOL    HW113320   3.893   2.970   3.805
 1107SOL    HW213321   4.004   3.079   3.856
 1108SOL     OW13322   0.178   3.539   4.815
 1108SOL    HW113323   0.266   3.582   4.836
 1108SOL    HW213324   0.112   3.607   4.783
 1109SOL     OW13325   4.837   4.132   0.145
 1109SOL    HW113326   4.743   4.125   0.111
 1109SOL    HW213327   4.837   4.166   0.239
 1110SOL     OW13328   3.407   2.286   5.171
 1110SOL    HW113329   3.468   2.336   5.110
 1110SOL    HW213330   3.343   2.230   5.118
 1111SOL     OW13331   2.836   5.632   0.980
 1111SOL    HW113332   2.878   5.710   1.027
 1111SOL    HW213333   2.800   5.660   0.891
 1112SOL     OW13334   5.658   7.525   5.954
 1112SOL    HW113335   5.637   7.444   6.009
 1112SOL    HW213336   5.574   7.560   5.911
 1113SOL     OW13337   0.027   3.081   5.575
 1113SOL    HW113338  -0.045   3.115   5.515
 1113SOL    HW213339   0.028   3.135   5.660
 1114SOL     OW13340   6.358   0.278   5.226
 1114SOL    HW113341   6.356   0.223   5.309
 1114SOL    HW213342   6.316   0.227   5.151
 1115SOL     OW13343   0.858   0.846   0.162
 1115SOL    HW113344   0.825   0.883   0.249
 1115SOL    HW213345   0.862   0.918   0.093
 1116SOL     OW13346   1.602   5.283   6.325
 1116SOL    HW113347   1.596   5.204   6.264
 1116SOL    HW213348   1.568   5.259   6.416
 1117SOL     OW13349   7.729   4.984   7.310
 1117SOL    HW113350   7.827   4.982   7.289
 1117SOL    HW213351   7.711   4.928   7.391
 1118SOL     OW13352   6.905   2.110   6.019
 1118SOL    HW113353   6.916   2.021   5.975
 1118SOL    HW213354   6.994   2.146   6.046
 1119SOL     OW13355   5.670   4.938   0.684
 1119SOL    HW113356   5.737   4.944   0.759
 1119SOL    HW213357   5.692   5.006   0.613
 1120SOL     OW13358   2.777   6.718   5.524
 1120SOL    HW113359   2.777   6.623   5.491
 1120SOL    HW213360   2.761   6.720   5.623
 1121SOL     OW13361   0.540   4.028   7.689
 1121SOL    HW113362   0.480   4.047   7.766
 1121SOL    HW213363   0.629   4.072   7.702
 1122SOL     OW13364   2.185   3.545   3.492
 1122SOL    HW113365   2.091   3.563   3.519
 1122SOL    HW213366   2.187   3.501   3.402
 1123SOL     OW13367   2.685   5.253   7.234
 1123SOL    HW113368   2.742   5.243   7.316
 1123SOL    HW213369   2.589   5.263   7.262
 1124SOL     OW13370   5.861   5.400   5.674
 1124SOL    HW113371   5.780   5.459   5.670
 1124SOL    HW213372   5.848   5.321   5.614
 1125SOL     OW13373   6.693   3.479   1.769
 1125SOL    HW113374   6.768   3.545   1.767
 1125SOL    HW213375   6.656   3.473   1.862
 1126SOL     OW13376   5.305   0.082   3.036
 1126SOL    HW113377   5.315   0.152   2.965
 1126SOL    HW213378   5.390   0.073   3.088
 1127SOL     OW13379   0.692   1.665   5.179
 1127SOL    HW113380   0.626   1.590   5.179
 1127SOL    HW213381   0.643   1.752   5.184
 1128SOL     OW13382   7.583   5.595   1.738
 1128SOL    HW113383   7.576   5.499   1.767
 1128SOL    HW213384   7.537   5.607   1.650
 1129SOL     OW13385   7.546   1.877   5.237
 1129SOL    HW113386   7.645   1.887   5.232
 1129SOL    HW213387   7.509   1.861   5.145
 1130SOL     OW13388   2.837   4.226   6.759
 1130SOL    HW113389   2.859   4.218   6.856
 1130SOL    HW213390   2.874   4.148   6.709
 1131SOL     OW13391   0.184   7.767   7.129
 1131SOL    HW113392   0.275   7.807   7.119
 1131SOL    HW213393   0.132   7.777   7.045
 1132SOL     OW13394   0.647   6.532   5.723
 1132SOL    HW113395   0.584   6.548   5.799
 1132SOL    HW213396   0.720   6.599   5.723
 1133SOL     OW13397   5.086   3.656   0.458
 1133SOL    HW113398   4.990   3.686   0.454
 1133SOL    HW213399   5.108   3.603   0.376
 1134SOL     OW13400   7.080   1.872   7.567
 1134SOL    HW113401   6.987   1.869   7.529
 1134SOL    HW213402   7.077   1.865   7.666
 1135SOL     OW13403   0.777   2.788   3.045
 1135SOL    HW113404   0.863   2.805   3.093
 1135SOL    HW213405   0.711   2.746   3.108
 1136SOL     OW13406   6.154   4.585   0.571
 1136SOL    HW113407   6.192   4.562   0.660
 1136SOL    HW213408   6.122   4.503   0.525
 1137SOL     OW13409   4.403   0.344   4.373
 1137SOL    HW113410   4.420   0.322   4.469
 1137SOL    HW213411   4.401   0.443   4.360
 1138SOL     OW13412   7.602   6.798   7.950
 1138SOL    HW113413   7.575   6.883   7.995
 1138SOL    HW213414   7.621   6.727   8.018
 1139SOL     OW13415   0.474   2.478   0.621
 1139SOL    HW113416   0.511   2.407   0.561
 1139SOL    HW213417   0.427   2.547   0.567
 1140SOL     OW13418   6.085   2.136   5.720
 1140SOL    HW113419   5.993   2.147   5.760
 1140SOL    HW213420   6.079   2.080   5.637
 1141SOL     OW13421   4.842   1.259   7.121
 1141SOL    HW113422   4.792   1.339   7.154
 1141SOL    HW213423   4.811   1.235   7.029
 1142SOL     OW13424   7.370   7.311   2.653
 1142SOL    HW113425   7.358   7.409   2.637
 1142SOL    HW213426   7.371   7.292   2.751
 1143SOL     OW13427   3.682   6.972   5.509
 1143SOL    HW113428   3.619   7.040   5.471
 1143SOL    HW213429   3.694   6.988   5.607
 1144SOL     OW13430   5.464   5.911   6.171
 1144SOL    HW113431   5.479   6.010   6.173
 1144SOL    HW213432   5.491   5.874   6.081
 1145SOL     OW13433   6.187   5.981   7.219
 1145SOL    HW113434   6.216   5.890   7.249
 1145SOL    HW213435   6.088   5.984   7.209
 1146SOL     OW13436   0.376   4.298   7.461
 1146SOL    HW113437   0.409   4.258   7.376
 1146SOL    HW213438   0.403   4.241   7.539
 1147SOL     OW13439   7.368   2.664   7.387
 1147SOL    HW113440   7.465   2.639   7.395
 1147SOL    HW213441   7.334   2.696   7.475
 1148SOL     OW13442   2.280   7.585   4.405
 1148SOL    HW113443   2.336   7.514   4.363
 1148SOL    HW213444   2.239   7.550   4.489
 1149SOL     OW13445   2.774   6.394   1.431
 1149SOL    HW113446   2.839   6.424   1.361
 1149SOL    HW213447   2.694   6.454   1.431
 1150SOL     OW13448   2.050   2.298   4.030
 1150SOL    HW113449   2.004   2.210   4.042
 1150SOL    HW213450   2.144   2.283   3.999
 1151SOL     OW13451   6.420   5.857   7.324
 1151SOL    HW113452   6.463   5.922   7.262
 1151SOL    HW213453   6.487   5.790   7.355
 1152SOL     OW13454   5.385   0.030   2.231
 1152SOL    HW113455   5.416   0.121   2.203
 1152SOL    HW213456   5.408   0.014   2.327
 1153SOL     OW13457   7.607   0.081   7.882
 1153SOL    HW113458   7.596  -0.011   7.844
 1153SOL    HW213459   7.567   0.086   7.973
 1154SOL     OW13460   1.711   6.716   6.336
 1154SOL    HW113461   1.677   6.807   6.361
 1154SOL    HW213462   1.640   6.648   6.353
 1155SOL     OW13463   0.174   6.280   3.031
 1155SOL    HW113464   0.074   6.285   3.040
 1155SOL    HW213465   0.216   6.358   3.075
 1156SOL     OW13466   7.264   5.091   0.298
 1156SOL    HW113467   7.254   5.181   0.341
 1156SOL    HW213468   7.250   5.098   0.199
 1157SOL     OW13469   3.440   1.500   4.601
 1157SOL    HW113470   3.451   1.578   4.540
 1157SOL    HW213471   3.402   1.423   4.552
 1158SOL     OW13472   2.394   3.582   0.680
 1158SOL    HW113473   2.478   3.542   0.718
 1158SOL    HW213474   2.415   3.631   0.595
 1159SOL     OW13475   4.965   6.954   2.014
 1159SOL    HW113476   4.935   6.865   1.979
 1159SOL    HW213477   4.983   7.016   1.937
 1160SOL     OW13478   0.193   7.911   1.180
 1160SOL    HW113479   0.272   7.897   1.239
 1160SOL    HW213480   0.113   7.937   1.235
 1161SOL     OW13481   0.024   6.968   0.467
 1161SOL    HW113482  -0.039   6.943   0.541
 1161SOL    HW213483   0.074   6.887   0.435
 1162SOL     OW13484   2.314   5.333   6.849
 1162SOL    HW113485   2.399   5.375   6.882
 1162SOL    HW213486   2.289   5.370   6.760
 1163SOL     OW13487   5.618   7.488   1.062
 1163SOL    HW113488   5.596   7.451   0.972
 1163SOL    HW213489   5.672   7.572   1.051
 1164SOL     OW13490   5.698   3.514   1.150
 1164SOL    HW113491   5.752   3.537   1.069
 1164SOL    HW213492   5.716   3.420   1.178
 1165SOL     OW13493   1.815   7.361   5.085
 1165SOL    HW113494   1.846   7.453   5.064
 1165SOL    HW213495   1.773   7.320   5.004
 1166SOL     OW13496   1.969   3.685   4.052
 1166SOL    HW113497   1.942   3.776   4.020
 1166SOL    HW213498   1.888   3.633   4.079
 1167SOL     OW13499   5.736   6.540   2.714
 1167SOL    HW113500   5.709   6.631   2.685
 1167SOL    HW213501   5.825   6.516   2.675
 1168SOL     OW13502   4.388   1.795   1.398
 1168SOL    HW113503   4.379   1.889   1.364
 1168SOL    HW213504   4.428   1.796   1.490
 1169SOL     OW13505   1.804   1.139   4.708
 1169SOL    HW113506   1.830   1.053   4.752
 1169SOL    HW213507   1.875   1.167   4.643
 1170SOL     OW13508   1.188   2.661   4.383
 1170SOL    HW113509   1.187   2.596   4.459
 1170SOL    HW213510   1.257   2.635   4.316
 1171SOL     OW13511  -0.001   2.154   1.073
 1171SOL    HW113512  -0.003   2.054   1.077
 1171SOL    HW213513   0.046   2.184   0.990
 1172SOL     OW13514   7.076   3.208   1.147
 1172SOL    HW113515   7.097   3.152   1.227
 1172SOL    HW213516   7.128   3.294   1.151
 1173SOL     OW13517   2.938   7.259   1.861
 1173SOL    HW113518   2.937   7.160   1.871
 1173SOL    HW213519   2.859   7.289   1.807
 1174SOL     OW13520   1.575   0.073   0.073
 1174SOL    HW113521   1.483   0.072   0.113
 1174SOL    HW213522   1.589  -0.010   0.019
 1175SOL     OW13523   1.409   6.748   0.139
 1175SOL    HW113524   1.351   6.700   0.073
 1175SOL    HW213525   1.489   6.691   0.161
 1176SOL     OW13526   1.610   6.771   5.237
 1176SOL    HW113527   1.592   6.869   5.227
 1176SOL    HW213528   1.602   6.745   5.333
 1177SOL     OW13529   0.291   3.989   6.219
 1177SOL    HW113530   0.275   4.048   6.298
 1177SOL    HW213531   0.372   4.020   6.168
 1178SOL     OW13532   5.494   2.864   3.190
 1178SOL    HW113533   5.544   2.940   3.231
 1178SOL    HW213534   5.462   2.888   3.099
 1179SOL     OW13535   1.213   5.132   7.176
 1179SOL    HW113536   1.238   5.229   7.175
 1179SOL    HW213537   1.265   5.084   7.247
 1180SOL     OW13538   2.209   4.582   2.367
 1180SOL    HW113539   2.244   4.497   2.329
 1180SOL    HW213540   2.136   4.618   2.310
 1181SOL     OW13541   1.196   1.383   2.697
 1181SOL    HW113542   1.108   1.359   2.656
 1181SOL    HW213543   1.181   1.432   2.783
 1182SOL     OW13544   6.838   2.707   3.489
 1182SOL    HW113545   6.845   2.613   3.455
 1182SOL    HW213546   6.773   2.711   3.565
 1183SOL     OW13547   2.742   5.096   5.152
 1183SOL    HW113548   2.731   5.012   5.206
 1183SOL    HW213549   2.783   5.074   5.064
 1184SOL     OW13550   5.443   5.247   2.620
 1184SOL    HW113551   5.466   5.341   2.649
 1184SOL    HW213552   5.413   5.247   2.525
 1185SOL     OW13553   4.127   1.987   2.157
 1185SOL    HW113554   4.103   1.941   2.243
 1185SOL    HW213555   4.124   2.086   2.170
 1186SOL     OW13556   2.626   1.058   6.252
 1186SOL    HW113557   2.642   0.962   6.273
 1186SOL    HW213558   2.714   1.107   6.246
 1187SOL     OW13559   2.648   5.194   6.833
 1187SOL    HW113560   2.593   5.272   6.861
 1187SOL    HW213561   2.615   5.157   6.746
 1188SOL     OW13562   7.911   1.770   6.008
 1188SOL    HW113563   7.924   1.677   6.041
 1188SOL    HW213564   7.955   1.782   5.920
 1189SOL     OW13565   6.605   7.519   6.325
 1189SOL    HW113566   6.660   7.578   6.266
 1189SOL    HW213567   6.531   7.478   6.272
 1190SOL     OW13568   4.022   4.730   7.104
 1190SOL    HW113569   4.094   4.661   7.098
 1190SOL    HW213570   4.062   4.822   7.101
 1191SOL     OW13571   7.259   7.030   7.261
 1191SOL    HW113572   7.307   6.952   7.301
 1191SOL    HW213573   7.316   7.112   7.265
 1192SOL     OW13574   4.749   0.275   7.421
 1192SOL    HW113575   4.686   0.292   7.497
 1192SOL    HW213576   4.708   0.212   7.356
 1193SOL     OW13577   7.083   7.206   7.109
 1193SOL    HW113578   7.167   7.151   7.102
 1193SOL    HW213579   7.028   7.174   7.186
 1194SOL     OW13580   5.870   5.014   4.458
 1194SOL    HW113581   5.873   5.113   4.443
 1194SOL    HW213582   5.879   4.994   4.555
 1195SOL     OW13583   0.378   5.200   6.614
 1195SOL    HW113584   0.428   5.287   6.613
 1195SOL    HW213585   0.286   5.213   6.576
 1196SOL     OW13586   7.894   4.755   5.259
 1196SOL    HW113587   7.832   4.677   5.267
 1196SOL    HW213588   7.940   4.771   5.346
 1197SOL     OW13589   3.059   3.484   2.268
 1197SOL    HW113590   3.058   3.562   2.205
 1197SOL    HW213591   3.150   3.473   2.307
 1198SOL     OW13592   1.424   3.088   3.099
 1198SOL    HW113593   1.443   3.001   3.144
 1198SOL    HW213594   1.449   3.082   3.002
 1199SOL     OW13595   0.878   5.054   5.341
 1199SOL    HW113596   0.784   5.077   5.366
 1199SOL    HW213597   0.888   5.056   5.242
 1200SOL     OW13598   5.301   2.666   2.403
 1200SOL    HW113599   5.208   2.664   2.441
 1200SOL    HW213600   5.300   2.706   2.311
 1201SOL     OW13601   1.838   2.538   4.059
 1201SOL    HW113602   1.910   2.604   4.075
 1201SOL    HW213603   1.802   2.548   3.966
 1202SOL     OW13604   5.772   5.035   4.110
 1202SOL    HW113605   5.673   5.025   4.106
 1202SOL    HW213606   5.802   5.039   4.205
 1203SOL     OW13607   0.192   2.940   5.106
 1203SOL    HW113608   0.138   2.888   5.040
 1203SOL    HW213609   0.145   2.946   5.193
 1204SOL     OW13610   2.106   3.207   5.958
 1204SOL    HW113611   2.076   3.120   5.919
 1204SOL    HW213612   2.127   3.271   5.884
 1205SOL     OW13613   5.737   0.063   7.405
 1205SOL    HW113614   5.796   0.091   7.481
 1205SOL    HW213615   5.788   0.006   7.341
 1206SOL     OW13616   2.364   1.665   4.168
 1206SOL    HW113617   2.331   1.754   4.200
 1206SOL    HW213618   2.330   1.647   4.076
 1207SOL     OW13619   4.773   1.854   3.797
 1207SOL    HW113620   4.673   1.858   3.801
 1207SOL    HW213621   4.812   1.912   3.869
 1208SOL     OW13622   5.476   6.712   1.843
 1208SOL    HW113623   5.481   6.612   1.842
 1208SOL    HW213624   5.550   6.751   1.788
 1209SOL     OW13625   2.066   0.065   6.851
 1209SOL    HW113626   2.150   0.117   6.832
 1209SOL    HW213627   2.067   0.032   6.946
 1210SOL     OW13628   1.930   3.825   4.354
 1210SOL    HW113629   1.966   3.747   4.302
 1210SOL    HW213630   1.863   3.794   4.421
 1211SOL     OW13631   5.363   2.865   1.867
 1211SOL    HW113632   5.431   2.804   1.827
 1211SOL    HW213633   5.305   2.815   1.931
 1212SOL     OW13634   2.811   4.190   4.801
 1212SOL    HW113635   2.858   4.266   4.755
 1212SOL    HW213636   2.850   4.103   4.771
 1213SOL     OW13637   6.227   7.630   1.704
 1213SOL    HW113638   6.133   7.647   1.675
 1213SOL    HW213639   6.289   7.693   1.657
 1214SOL     OW13640   4.064   7.333   0.992
 1214SOL    HW113641   4.040   7.238   0.971
 1214SOL    HW213642   4.026   7.359   1.080
 1215SOL     OW13643   2.819   0.143   4.239
 1215SOL    HW113644   2.853   0.136   4.333
 1215SOL    HW213645   2.726   0.105   4.234
 1216SOL     OW13646   1.419   3.160   4.501
 1216SOL    HW113647   1.473   3.200   4.575
 1216SOL    HW213648   1.393   3.230   4.435
 1217SOL     OW13649   2.741   4.137   1.901
 1217SOL    HW113650   2.738   4.179   1.810
 1217SOL    HW213651   2.650   4.135   1.941
 1218SOL     OW13652   6.981   2.168   4.004
 1218SOL    HW113653   6.903   2.228   4.022
 1218SOL    HW213654   7.039   2.161   4.086
 1219SOL     OW13655   3.550   4.787   4.617
 1219SOL    HW113656   3.530   4.786   4.519
 1219SOL    HW213657   3.605   4.868   4.640
 1220SOL     OW13658   2.195   1.581   0.773
 1220SOL    HW113659   2.279   1.545   0.734
 1220SOL    HW213660   2.116   1.546   0.724
 1221SOL     OW13661   1.500   0.526   3.281
 1221SOL    HW113662   1.477   0.598   3.346
 1221SOL    HW213663   1.519   0.440   3.329
 1222SOL     OW13664   2.348   4.617   1.396
 1222SOL    HW113665   2.336   4.518   1.397
 1222SOL    HW213666   2.445   4.640   1.407
 1223SOL     OW13667   2.745   3.258   1.595
 1223SOL    HW113668   2.745   3.174   1.539
 1223SOL    HW213669   2.828   3.263   1.649
 1224SOL     OW13670   5.756   4.294   1.266
 1224SOL    HW113671   5.704   4.212   1.241
 1224SOL    HW213672   5.854   4.278   1.251
 1225SOL     OW13673   0.627   1.651   1.248
 1225SOL    HW113674   0.707   1.684   1.197
 1225SOL    HW213675   0.543   1.678   1.202
 1226SOL     OW13676   7.209   3.802   2.112
 1226SOL    HW113677   7.248   3.733   2.051
 1226SOL    HW213678   7.171   3.877   2.058
 1227SOL     OW13679   5.960   1.067   2.930
 1227SOL    HW113680   6.052   1.104   2.916
 1227SOL    HW213681   5.906   1.078   2.848
 1228SOL     OW13682   3.801   2.217   7.812
 1228SOL    HW113683   3.707   2.224   7.846
 1228SOL    HW213684   3.802   2.221   7.712
 1229SOL     OW13685   3.718   3.152   3.397
 1229SOL    HW113686   3.766   3.088   3.338
 1229SOL    HW213687   3.782   3.194   3.462
 1230SOL     OW13688   1.584   4.100   3.467
 1230SOL    HW113689   1.594   4.113   3.566
 1230SOL    HW213690   1.532   4.176   3.427
 1231SOL     OW13691   5.670   7.601   4.913
 1231SOL    HW113692   5.660   7.692   4.872
 1231SOL    HW213693   5.627   7.600   5.003
 1232SOL     OW13694   7.099   0.524   1.124
 1232SOL    HW113695   7.141   0.446   1.170
 1232SOL    HW213696   6.999   0.516   1.125
 1233SOL     OW13697   5.633   6.851   5.550
 1233SOL    HW113698   5.723   6.888   5.526
 1233SOL    HW213699   5.637   6.807   5.639
 1234SOL     OW13700   1.226   5.671   5.069
 1234SOL    HW113701   1.207   5.679   4.971
 1234SOL    HW213702   1.317   5.706   5.089
 1235SOL     OW13703   5.044   7.774   0.072
 1235SOL    HW113704   4.951   7.737   0.082
 1235SOL    HW213705   5.104   7.707   0.029
 1236SOL     OW13706   3.700   5.062   4.266
 1236SOL    HW113707   3.648   5.134   4.312
 1236SOL    HW213708   3.712   5.085   4.169
 1237SOL     OW13709   6.016   3.554   0.051
 1237SOL    HW113710   5.950   3.497   0.101
 1237SOL    HW213711   5.983   3.648   0.046
 1238SOL     OW13712   5.939   0.780   0.816
 1238SOL    HW113713   5.956   0.876   0.793
 1238SOL    HW213714   5.933   0.768   0.915
 1239SOL     OW13715   5.718   3.854   3.312
 1239SOL    HW113716   5.806   3.893   3.338
 1239SOL    HW213717   5.672   3.914   3.246
 1240SOL     OW13718   0.463   2.075   5.585
 1240SOL    HW113719   0.389   2.131   5.549
 1240SOL    HW213720   0.512   2.124   5.656
 1241SOL     OW13721   2.703   3.600   1.233
 1241SOL    HW113722   2.794   3.583   1.196
 1241SOL    HW213723   2.654   3.513   1.244
 1242SOL     OW13724   7.232   1.511   1.805
 1242SOL    HW113725   7.179   1.549   1.881
 1242SOL    HW213726   7.205   1.417   1.788
 1243SOL     OW13727   5.662   1.524   3.416
 1243SOL    HW113728   5.607   1.443   3.436
 1243SOL    HW213729   5.707   1.514   3.327
 1244SOL     OW13730   2.238   4.031   5.269
 1244SOL    HW113731   2.149   3.986   5.262
 1244SOL    HW213732   2.247   4.076   5.358
 1245SOL     OW13733   4.489   2.225   7.880
 1245SOL    HW113734   4.390   2.238   7.870
 1245SOL    HW213735   4.532   2.311   7.907
 1246SOL     OW13736   2.197   7.008   5.813
 1246SOL    HW113737   2.259   6.963   5.748
 1246SOL    HW213738   2.190   6.953   5.896
 1247SOL     OW13739   1.083   6.037   6.784
 1247SOL    HW113740   1.040   5.990   6.861
 1247SOL    HW213741   1.066   5.987   6.699
 1248SOL     OW13742   2.554   7.892   2.218
 1248SOL    HW113743   2.623   7.873   2.149
 1248SOL    HW213744   2.595   7.937   2.296
 1249SOL     OW13745   5.300   2.382   6.753
 1249SOL    HW113746   5.245   2.377   6.669
 1249SOL    HW213747   5.240   2.398   6.832
 1250SOL     OW13748   4.823   5.858   6.325
 1250SOL    HW113749   4.875   5.800   6.389
 1250SOL    HW213750   4.851   5.838   6.231
 1251SOL     OW13751   7.409   7.985   2.085
 1251SOL    HW113752   7.315   7.977   2.119
 1251SOL    HW213753   7.421   7.928   2.004
 1252SOL     OW13754   6.864   3.401   1.263
 1252SOL    HW113755   6.944   3.403   1.203
 1252SOL    HW213756   6.870   3.323   1.324
 1253SOL     OW13757   4.946   1.647   6.138
 1253SOL    HW113758   4.918   1.723   6.078
 1253SOL    HW213759   4.875   1.629   6.205
 1254SOL     OW13760   0.181   4.356   6.895
 1254SOL    HW113761   0.114   4.411   6.946
 1254SOL    HW213762   0.138   4.317   6.814
 1255SOL     OW13763   6.931   6.298   0.062
 1255SOL    HW113764   6.932   6.356   0.144
 1255SOL    HW213765   6.972   6.210   0.082
 1256SOL     OW13766   4.349   2.634   7.880
 1256SOL    HW113767   4.398   2.623   7.794
 1256SOL    HW213768   4.261   2.679   7.864
 1257SOL     OW13769   5.987   4.092   0.796
 1257SOL    HW113770   5.911   4.153   0.820
 1257SOL    HW213771   5.967   4.043   0.711
 1258SOL     OW13772   3.919   3.713   0.499
 1258SOL    HW113773   3.958   3.804   0.514
 1258SOL    HW213774   3.985   3.654   0.452
 1259SOL     OW13775   6.087   3.551   3.072
 1259SOL    HW113776   6.028   3.598   3.138
 1259SOL    HW213777   6.154   3.616   3.034
 1260SOL     OW13778   5.188   4.271   4.029
 1260SOL    HW113779   5.110   4.219   4.065
 1260SOL    HW213780   5.212   4.238   3.938
 1261SOL     OW13781   6.478   0.545   6.256
 1261SOL    HW113782   6.535   0.466   6.276
 1261SOL    HW213783   6.531   0.616   6.209
 1262SOL     OW13784   5.903   0.395   7.449
 1262SOL    HW113785   5.880   0.307   7.490
 1262SOL    HW213786   5.933   0.382   7.355
 1263SOL     OW13787   7.923   6.042   7.500
 1263SOL    HW113788   7.869   6.116   7.539
 1263SOL    HW213789   7.893   6.023   7.407
 1264SOL     OW13790   1.950   3.136   1.795
 1264SOL    HW113791   1.940   3.203   1.722
 1264SOL    HW213792   1.924   3.175   1.883
 1265SOL     OW13793   5.506   5.435   0.575
 1265SOL    HW113794   5.605   5.427   0.573
 1265SOL    HW213795   5.472   5.426   0.668
 1266SOL     OW13796   6.397   4.298   3.878
 1266SOL    HW113797   6.473   4.354   3.843
 1266SOL    HW213798   6.411   4.281   3.975
 1267SOL     OW13799   1.286   2.603   2.296
 1267SOL    HW113800   1.374   2.575   2.257
 1267SOL    HW213801   1.244   2.526   2.343
 1268SOL     OW13802   1.593   0.347   1.296
 1268SOL    HW113803   1.568   0.267   1.350
 1268SOL    HW213804   1.569   0.332   1.200
 1269SOL     OW13805   0.036   7.835   1.708
 1269SOL    HW113806  -0.045   7.784   1.677
 1269SOL    HW213807   0.090   7.864   1.629
 1270SOL     OW13808   0.296   3.527   1.265
 1270SOL    HW113809   0.200   3.498   1.261
 1270SOL    HW213810   0.313   3.576   1.350
 1271SOL     OW13811   2.683   1.335   6.365
 1271SOL    HW113812   2.614   1.398   6.330
 1271SOL    HW213813   2.755   1.322   6.297
 1272SOL     OW13814   5.374   7.330   1.281
 1272SOL    HW113815   5.282   7.315   1.318
 1272SOL    HW213816   5.384   7.425   1.250
 1273SOL     OW13817   5.682   1.720   0.803
 1273SOL    HW113818   5.698   1.811   0.842
 1273SOL    HW213819   5.593   1.718   0.757
 1274SOL     OW13820   5.870   0.101   2.502
 1274SOL    HW113821   5.863   0.127   2.598
 1274SOL    HW213822   5.937   0.027   2.491
 1275SOL     OW13823   2.659   4.819   4.159
 1275SOL    HW113824   2.574   4.871   4.171
 1275SOL    HW213825   2.661   4.778   4.068
 1276SOL     OW13826   5.152   0.413   7.422
 1276SOL    HW113827   5.209   0.354   7.364
 1276SOL    HW213828   5.161   0.386   7.518
 1277SOL     OW13829   1.262   7.928   5.469
 1277SOL    HW113830   1.297   7.873   5.545
 1277SOL    HW213831   1.251   7.871   5.388
 1278SOL     OW13832   5.492   3.303   7.005
 1278SOL    HW113833   5.402   3.300   7.050
 1278SOL    HW213834   5.486   3.358   6.922
 1279SOL     OW13835   6.124   6.413   4.096
 1279SOL    HW113836   6.152   6.497   4.048
 1279SOL    HW213837   6.168   6.409   4.186
 1280SOL     OW13838   0.641   1.154   3.258
 1280SOL    HW113839   0.707   1.225   3.237
 1280SOL    HW213840   0.560   1.164   3.200
 1281SOL     OW13841   4.131   5.748   5.295
 1281SOL    HW113842   4.225   5.753   5.328
 1281SOL    HW213843   4.079   5.681   5.349
 1282SOL     OW13844   2.692   6.351   6.824
 1282SOL    HW113845   2.777   6.367   6.773
 1282SOL    HW213846   2.710   6.357   6.922
 1283SOL     OW13847   6.509   1.252   6.098
 1283SOL    HW113848   6.498   1.339   6.146
 1283SOL    HW213849   6.486   1.176   6.159
 1284SOL     OW13850   5.790   4.521   6.856
 1284SOL    HW113851   5.863   4.589   6.867
 1284SOL    HW213852   5.725   4.553   6.787
 1285SOL     OW13853   1.074   2.981   1.264
 1285SOL    HW113854   1.023   2.938   1.189
 1285SOL    HW213855   1.131   2.913   1.310
 1286SOL     OW13856   1.182   6.346   1.350
 1286SOL    HW113857   1.090   6.350   1.388
 1286SOL    HW213858   1.247   6.315   1.420
 1287SOL     OW13859   5.856   3.963   3.041
 1287SOL    HW113860   5.846   3.897   2.967
 1287SOL    HW213861   5.767   4.000   3.067
 1288SOL     OW13862   3.006   6.923   1.725
 1288SOL    HW113863   3.051   6.999   1.773
 1288SOL    HW213864   2.976   6.854   1.791
 1289SOL     OW13865   0.473   2.600   4.317
 1289SOL    HW113866   0.553   2.547   4.347
 1289SOL    HW213867   0.484   2.626   4.221
 1290SOL     OW13868   4.294   4.006   0.507
 1290SOL    HW113869   4.359   3.931   0.489
 1290SOL    HW213870   4.299   4.073   0.433
 1291SOL     OW13871   4.242   2.942   2.559
 1291SOL    HW113872   4.314   3.009   2.541
 1291SOL    HW213873   4.200   2.913   2.473
 1292SOL     OW13874   1.457   0.299   6.410
 1292SOL    HW113875   1.532   0.364   6.392
 1292SOL    HW213876   1.473   0.251   6.497
 1293SOL     OW13877   6.760   6.171   6.141
 1293SOL    HW113878   6.790   6.227   6.218
 1293SOL    HW213879   6.802   6.203   6.056
 1294SOL     OW13880   0.511   1.214   7.641
 1294SOL    HW113881   0.502   1.132   7.586
 1294SOL    HW213882   0.424   1.236   7.685
 1295SOL     OW13883   1.636   5.578   6.243
 1295SOL    HW113884   1.563   5.640   6.275
 1295SOL    HW213885   1.709   5.575   6.311
 1296SOL     OW13886   4.406   2.799   3.467
 1296SOL    HW113887   4.326   2.741   3.452
 1296SOL    HW213888   4.382   2.895   3.452
 1297SOL     OW13889   4.647   1.040   2.465
 1297SOL    HW113890   4.673   0.964   2.525
 1297SOL    HW213891   4.702   1.121   2.486
 1298SOL     OW13892   3.932   2.405   3.843
 1298SOL    HW113893   3.846   2.361   3.815
 1298SOL    HW213894   3.931   2.421   3.942
 1299SOL     OW13895   0.647   3.513   0.983
 1299SOL    HW113896   0.712   3.586   1.005
 1299SOL    HW213897   0.565   3.552   0.940
 1300SOL     OW13898   1.190   6.718   1.262
 1300SOL    HW113899   1.172   6.816   1.268
 1300SOL    HW213900   1.191   6.689   1.166
 1301SOL     OW13901   1.286   5.261   0.319
 1301SOL    HW113902   1.362   5.246   0.382
 1301SOL    HW213903   1.207   5.297   0.368
 1302SOL     OW13904   6.412   3.725   5.296
 1302SOL    HW113905   6.409   3.824   5.284
 1302SOL    HW213906   6.470   3.684   5.225
 1303SOL     OW13907   3.781   6.702   0.651
 1303SOL    HW113908   3.791   6.734   0.745
 1303SOL    HW213909   3.718   6.762   0.601
 1304SOL     OW13910   5.036   3.831   4.606
 1304SOL    HW113911   5.061   3.734   4.600
 1304SOL    HW213912   5.066   3.879   4.523
 1305SOL     OW13913   2.867   7.871   3.928
 1305SOL    HW113914   2.879   7.841   4.022
 1305SOL    HW213915   2.956   7.890   3.886
 1306SOL     OW13916   5.813   2.652   7.178
 1306SOL    HW113917   5.807   2.681   7.082
 1306SOL    HW213918   5.741   2.696   7.232
 1307SOL     OW13919   3.352   5.851   5.670
 1307SOL    HW113920   3.363   5.944   5.635
 1307SOL    HW213921   3.361   5.850   5.769
 1308SOL     OW13922   1.159   3.870   2.955
 1308SOL    HW113923   1.236   3.812   2.925
 1308SOL    HW213924   1.182   3.915   3.041
 1309SOL     OW13925   6.033   1.742   6.649
 1309SOL    HW113926   6.047   1.651   6.610
 1309SOL    HW213927   6.083   1.810   6.596
 1310SOL     OW13928   4.788   4.916   4.101
 1310SOL    HW113929   4.732   4.915   4.018
 1310SOL    HW213930   4.777   4.829   4.151
 1311SOL     OW13931   4.154   7.287   7.449
 1311SOL    HW113932   4.207   7.278   7.534
 1311SOL    HW213933   4.074   7.227   7.453
 1312SOL     OW13934   6.690   1.531   1.751
 1312SOL    HW113935   6.783   1.538   1.786
 1312SOL    HW213936   6.636   1.471   1.810
 1313SOL     OW13937   2.095   7.339   7.506
 1313SOL    HW113938   2.152   7.277   7.451
 1313SOL    HW213939   2.040   7.286   7.570
 1314SOL     OW13940   6.288   3.516   0.083
 1314SOL    HW113941   6.378   3.504   0.041
 1314SOL    HW213942   6.233   3.579   0.028
 1315SOL     OW13943   4.746   5.219   4.815
 1315SOL    HW113944   4.692   5.235   4.898
 1315SOL    HW213945   4.824   5.161   4.836
 1316SOL     OW13946   4.832   6.600   3.205
 1316SOL    HW113947   4.872   6.566   3.291
 1316SOL    HW213948   4.862   6.695   3.189
 1317SOL     OW13949   7.454   5.923   3.721
 1317SOL    HW113950   7.427   6.018   3.704
 1317SOL    HW213951   7.467   5.909   3.819
 1318SOL     OW13952   2.512   2.914   6.005
 1318SOL    HW113953   2.540   2.885   6.097
 1318SOL    HW213954   2.589   2.907   5.942
 1319SOL     OW13955   3.069   6.469   0.179
 1319SOL    HW113956   3.155   6.484   0.130
 1319SOL    HW213957   3.048   6.372   0.185
 1320SOL     OW13958   6.627   0.745   1.065
 1320SOL    HW113959   6.670   0.790   0.987
 1320SOL    HW213960   6.659   0.788   1.150
 1321SOL     OW13961   2.418   0.546   6.268
 1321SOL    HW113962   2.376   0.535   6.177
 1321SOL    HW213963   2.402   0.639   6.302
 1322SOL     OW13964   1.033   1.563   2.951
 1322SOL    HW113965   0.970   1.611   3.012
 1322SOL    HW213966   0.994   1.474   2.925
 1323SOL     OW13967   7.459   2.248   7.449
 1323SOL    HW113968   7.471   2.159   7.493
 1323SOL    HW213969   7.549   2.289   7.431
 1324SOL     OW13970   7.510   4.237   5.522
 1324SOL    HW113971   7.529   4.229   5.620
 1324SOL    HW213972   7.452   4.162   5.493
 1325SOL     OW13973   7.769   5.843   7.370
 1325SOL    HW113974   7.777   5.781   7.292
 1325SOL    HW213975   7.779   5.793   7.455
 1326SOL     OW13976   1.833   6.023   7.861
 1326SOL    HW113977   1.838   5.932   7.901
 1326SOL    HW213978   1.745   6.037   7.816
 1327SOL     OW13979   0.824   0.206   5.464
 1327SOL    HW113980   0.867   0.273   5.403
 1327SOL    HW213981   0.845   0.113   5.433
 1328SOL     OW13982   1.047   6.450   3.013
 1328SOL    HW113983   1.098   6.516   3.069
 1328SOL    HW213984   1.065   6.466   2.916
 1329SOL     OW13985   2.476   2.076   5.345
 1329SOL    HW113986   2.576   2.084   5.344
 1329SOL    HW213987   2.435   2.159   5.383
 1330SOL     OW13988   2.776   5.570   7.974
 1330SOL    HW113989   2.720   5.604   7.899
 1330SOL    HW213990   2.835   5.643   8.008
 1331SOL     OW13991   6.595   6.626   1.197
 1331SOL    HW113992   6.607   6.668   1.107
 1331SOL    HW213993   6.659   6.550   1.208
 1332SOL     OW13994   5.925   3.532   4.757
 1332SOL    HW113995   5.951   3.436   4.745
 1332SOL    HW213996   6.007   3.589   4.767
 1333SOL     OW13997   2.071   7.327   0.323
 1333SOL    HW113998   2.158   7.291   0.288
 1333SOL    HW213999   2.005   7.334   0.248
 1334SOL     OW14000   4.889   4.285   0.780
 1334SOL    HW114001   4.960   4.345   0.817
 1334SOL    HW214002   4.867   4.313   0.686
 1335SOL     OW14003   2.089   2.741   7.227
 1335SOL    HW114004   2.165   2.777   7.174
 1335SOL    HW214005   2.032   2.683   7.171
 1336SOL     OW14006   1.932   0.423   2.680
 1336SOL    HW114007   1.873   0.491   2.723
 1336SOL    HW214008   1.932   0.437   2.581
 1337SOL     OW14009   2.495   4.247   2.867
 1337SOL    HW114010   2.448   4.334   2.879
 1337SOL    HW214011   2.560   4.232   2.941
 1338SOL     OW14012   7.454   4.367   1.120
 1338SOL    HW114013   7.513   4.290   1.097
 1338SOL    HW214014   7.404   4.348   1.205
 1339SOL     OW14015   5.400   5.011   0.032
 1339SOL    HW114016   5.420   5.027   0.129
 1339SOL    HW214017   5.371   4.917   0.018
 1340SOL     OW14018   1.467   4.328   6.317
 1340SOL    HW114019   1.512   4.336   6.406
 1340SOL    HW214020   1.485   4.409   6.261
 1341SOL     OW14021   7.638   6.152   2.263
 1341SOL    HW114022   7.729   6.187   2.284
 1341SOL    HW214023   7.640   6.097   2.180
 1342SOL     OW14024   4.163   5.202   3.263
 1342SOL    HW114025   4.198   5.272   3.200
 1342SOL    HW214026   4.197   5.218   3.355
 1343SOL     OW14027   3.236   6.627   7.038
 1343SOL    HW114028   3.171   6.610   6.964
 1343SOL    HW214029   3.306   6.691   7.007
 1344SOL     OW14030   1.230   0.621   3.798
 1344SOL    HW114031   1.259   0.601   3.891
 1344SOL    HW214032   1.191   0.540   3.755
 1345SOL     OW14033   5.569   7.345   7.848
 1345SOL    HW114034   5.597   7.350   7.752
 1345SOL    HW214035   5.474   7.313   7.854
 1346SOL     OW14036   4.842   4.941   6.610
 1346SOL    HW114037   4.743   4.940   6.624
 1346SOL    HW214038   4.871   5.029   6.571
 1347SOL     OW14039   4.397   0.455   6.988
 1347SOL    HW114040   4.459   0.436   6.913
 1347SOL    HW214041   4.392   0.553   7.006
 1348SOL     OW14042   4.785   0.783   1.614
 1348SOL    HW114043   4.736   0.703   1.648
 1348SOL    HW214044   4.722   0.860   1.602
 1349SOL     OW14045   2.810   6.935   5.534
 1349SOL    HW114046   2.734   6.943   5.599
 1349SOL    HW214047   2.776   6.938   5.440
 1350SOL     OW14048   1.667   0.379   2.872
 1350SOL    HW114049   1.765   0.359   2.865
 1350SOL    HW214050   1.626   0.321   2.942
 1351SOL     OW14051   0.358   7.201   1.111
 1351SOL    HW114052   0.341   7.110   1.074
 1351SOL    HW214053   0.390   7.195   1.205
 1352SOL     OW14054   2.400   5.822   4.803
 1352SOL    HW114055   2.496   5.833   4.777
 1352SOL    HW214056   2.383   5.868   4.891
 1353SOL     OW14057   2.174   6.281   6.404
 1353SOL    HW114058   2.224   6.355   6.358
 1353SOL    HW214059   2.235   6.231   6.465
 1354SOL     OW14060   6.681   4.392   6.245
 1354SOL    HW114061   6.615   4.445   6.192
 1354SOL    HW214062   6.639   4.308   6.279
 1355SOL     OW14063   6.392   7.451   4.938
 1355SOL    HW114064   6.382   7.388   5.015
 1355SOL    HW214065   6.461   7.417   4.875
 1356SOL     OW14066   6.200   1.651   1.366
 1356SOL    HW114067   6.151   1.582   1.313
 1356SOL    HW214068   6.217   1.617   1.459
 1357SOL     OW14069   7.871   3.112   1.091
 1357SOL    HW114070   7.808   3.035   1.108
 1357SOL    HW214071   7.825   3.181   1.035
 1358SOL     OW14072   0.978   7.342   4.375
 1358SOL    HW114073   0.887   7.299   4.376
 1358SOL    HW214074   1.004   7.368   4.467
 1359SOL     OW14075   3.878   6.927   7.549
 1359SOL    HW114076   3.969   6.949   7.514
 1359SOL    HW214077   3.837   7.008   7.590
 1360SOL     OW14078   6.709   6.463   0.072
 1360SOL    HW114079   6.757   6.489   0.156
 1360SOL    HW214080   6.688   6.545   0.018
 1361SOL     OW14081   0.317   2.672   5.921
 1361SOL    HW114082   0.406   2.718   5.929
 1361SOL    HW214083   0.262   2.692   6.002
 1362SOL     OW14084   3.649   2.302   2.124
 1362SOL    HW114085   3.580   2.350   2.179
 1362SOL    HW214086   3.613   2.287   2.031
 1363SOL     OW14087   2.550   5.081   4.717
 1363SOL    HW114088   2.466   5.076   4.773
 1363SOL    HW214089   2.538   5.028   4.633
 1364SOL     OW14090   2.616   3.875   6.645
 1364SOL    HW114091   2.569   3.924   6.572
 1364SOL    HW214092   2.588   3.779   6.646
 1365SOL     OW14093   0.765   6.167   7.191
 1365SOL    HW114094   0.821   6.251   7.192
 1365SOL    HW214095   0.813   6.094   7.238
 1366SOL     OW14096   0.229   2.499   7.040
 1366SOL    HW114097   0.277   2.419   7.076
 1366SOL    HW214098   0.272   2.582   7.074
 1367SOL     OW14099   0.863   1.045   3.745
 1367SOL    HW114100   0.924   1.046   3.823
 1367SOL    HW214101   0.769   1.065   3.774
 1368SOL     OW14102   7.184   3.694   2.470
 1368SOL    HW114103   7.225   3.777   2.509
 1368SOL    HW214104   7.194   3.695   2.370
 1369SOL     OW14105   6.618   6.352   2.798
 1369SOL    HW114106   6.671   6.432   2.770
 1369SOL    HW214107   6.597   6.296   2.718
 1370SOL     OW14108   5.258   5.671   4.792
 1370SOL    HW114109   5.300   5.703   4.707
 1370SOL    HW214110   5.330   5.643   4.856
 1371SOL     OW14111   1.432   1.181   2.820
 1371SOL    HW114112   1.348   1.139   2.787
 1371SOL    HW214113   1.418   1.220   2.911
 1372SOL     OW14114   6.954   5.308   5.951
 1372SOL    HW114115   6.908   5.228   5.990
 1372SOL    HW214116   6.986   5.288   5.859
 1373SOL     OW14117   1.235   7.275   4.285
 1373SOL    HW114118   1.315   7.318   4.327
 1373SOL    HW214119   1.209   7.324   4.202
 1374SOL     OW14120   1.565   0.607   3.915
 1374SOL    HW114121   1.478   0.597   3.867
 1374SOL    HW214122   1.607   0.695   3.892
 1375SOL     OW14123   2.317   2.883   2.670
 1375SOL    HW114124   2.227   2.924   2.656
 1375SOL    HW214125   2.339   2.821   2.596
 1376SOL     OW14126   3.180   2.941   5.856
 1376SOL    HW114127   3.225   3.019   5.901
 1376SOL    HW214128   3.159   2.965   5.761
 1377SOL     OW14129   5.476   7.246   4.049
 1377SOL    HW114130   5.414   7.308   4.001
 1377SOL    HW214131   5.564   7.290   4.064
 1378SOL     OW14132   0.058   4.696   6.202
 1378SOL    HW114133   0.114   4.688   6.285
 1378SOL    HW214134   0.108   4.659   6.124
 1379SOL     OW14135   7.562   0.950   7.736
 1379SOL    HW114136   7.643   0.996   7.698
 1379SOL    HW214137   7.497   0.930   7.662
 1380SOL     OW14138   0.154   6.813   7.504
 1380SOL    HW114139   0.223   6.741   7.495
 1380SOL    HW214140   0.197   6.901   7.518
 1381SOL     OW14141   7.633   0.118   3.846
 1381SOL    HW114142   7.556   0.061   3.821
 1381SOL    HW214143   7.694   0.130   3.768
 1382SOL     OW14144   6.933   6.060   4.435
 1382SOL    HW114145   6.970   5.974   4.399
 1382SOL    HW214146   6.964   6.074   4.529
 1383SOL     OW14147   6.342   5.131   5.610
 1383SOL    HW114148   6.316   5.047   5.658
 1383SOL    HW214149   6.336   5.209   5.672
 1384SOL     OW14150   7.849   7.136   5.306
 1384SOL    HW114151   7.865   7.057   5.246
 1384SOL    HW214152   7.760   7.128   5.351
 1385SOL     OW14153   0.690   2.427   3.176
 1385SOL    HW114154   0.682   2.509   3.232
 1385SOL    HW214155   0.644   2.441   3.088
 1386SOL     OW14156   6.498   0.239   1.389
 1386SOL    HW114157   6.432   0.189   1.445
 1386SOL    HW214158   6.569   0.177   1.357
 1387SOL     OW14159   0.622   0.185   4.143
 1387SOL    HW114160   0.572   0.238   4.211
 1387SOL    HW214161   0.720   0.193   4.159
 1388SOL     OW14162   0.802   6.294   2.671
 1388SOL    HW114163   0.753   6.208   2.682
 1388SOL    HW214164   0.796   6.348   2.755
 1389SOL     OW14165   7.497   5.276   2.144
 1389SOL    HW114166   7.536   5.334   2.216
 1389SOL    HW214167   7.506   5.180   2.170
 1390SOL     OW14168   4.536   1.574   5.396
 1390SOL    HW114169   4.457   1.575   5.458
 1390SOL    HW214170   4.588   1.658   5.406
 1391SOL     OW14171   7.371   0.889   6.196
 1391SOL    HW114172   7.327   0.820   6.138
 1391SOL    HW214173   7.464   0.861   6.220
 1392SOL     OW14174   5.535   7.400   3.072
 1392SOL    HW114175   5.447   7.374   3.031
 1392SOL    HW214176   5.521   7.433   3.165
 1393SOL     OW14177   3.678   4.223   0.103
 1393SOL    HW114178   3.731   4.308   0.104
 1393SOL    HW214179   3.589   4.238   0.061
 1394SOL     OW14180   6.299   1.937   3.319
 1394SOL    HW114181   6.337   2.026   3.292
 1394SOL    HW214182   6.288   1.933   3.418
 1395SOL     OW14183   6.157   1.232   3.630
 1395SOL    HW114184   6.255   1.225   3.652
 1395SOL    HW214185   6.129   1.328   3.630
 1396SOL     OW14186   3.448   1.345   3.767
 1396SOL    HW114187   3.490   1.349   3.858
 1396SOL    HW214188   3.483   1.419   3.710
 1397SOL     OW14189   1.246   2.273   3.239
 1397SOL    HW114190   1.209   2.190   3.197
 1397SOL    HW214191   1.202   2.291   3.326
 1398SOL     OW14192   6.597   7.400   3.630
 1398SOL    HW114193   6.522   7.339   3.604
 1398SOL    HW214194   6.584   7.431   3.724
 1399SOL     OW14195   5.226   3.362   4.821
 1399SOL    HW114196   5.141   3.407   4.792
 1399SOL    HW214197   5.245   3.384   4.917
 1400SOL     OW14198   5.696   7.989   1.496
 1400SOL    HW114199   5.687   7.938   1.582
 1400SOL    HW214200   5.618   7.971   1.437
 1401SOL     OW14201   7.891   2.897   1.603
 1401SOL    HW114202   7.955   2.829   1.639
 1401SOL    HW214203   7.925   2.933   1.516
 1402SOL     OW14204   2.942   5.000   2.818
 1402SOL    HW114205   2.957   4.914   2.770
 1402SOL    HW214206   2.901   5.068   2.757
 1403SOL     OW14207   0.160   0.729   4.663
 1403SOL    HW114208   0.128   0.653   4.719
 1403SOL    HW214209   0.220   0.696   4.590
 1404SOL     OW14210   7.828   4.275   2.719
 1404SOL    HW114211   7.870   4.247   2.632
 1404SOL    HW214212   7.824   4.198   2.782
 1405SOL     OW14213   3.223   2.285   4.475
 1405SOL    HW114214   3.277   2.327   4.402
 1405SOL    HW214215   3.245   2.328   4.563
 1406SOL     OW14216   7.942   0.633   2.661
 1406SOL    HW114217   7.880   0.561   2.695
 1406SOL    HW214218   7.931   0.644   2.563
 1407SOL     OW14219   5.261   4.694   6.375
 1407SOL    HW114220   5.194   4.743   6.430
 1407SOL    HW214221   5.216   4.623   6.321
 1408SOL     OW14222   3.960   3.122   6.124
 1408SOL    HW114223   3.962   3.200   6.061
 1408SOL    HW214224   3.922   3.042   6.078
 1409SOL     OW14225   3.413   0.302   4.755
 1409SOL    HW114226   3.453   0.369   4.817
 1409SOL    HW214227   3.483   0.266   4.694
 1410SOL     OW14228   2.648   6.565   2.306
 1410SOL    HW114229   2.708   6.527   2.236
 1410SOL    HW214230   2.682   6.654   2.336
 1411SOL     OW14231   1.678   5.308   2.763
 1411SOL    HW114232   1.723   5.219   2.748
 1411SOL    HW214233   1.583   5.303   2.732
 1412SOL     OW14234   6.944   1.198   3.924
 1412SOL    HW114235   6.990   1.215   4.011
 1412SOL    HW214236   6.959   1.275   3.862
 1413SOL     OW14237   3.624   5.065   0.806
 1413SOL    HW114238   3.603   5.031   0.897
 1413SOL    HW214239   3.543   5.107   0.765
 1414SOL     OW14240   2.445   1.258   7.551
 1414SOL    HW114241   2.472   1.336   7.494
 1414SOL    HW214242   2.516   1.239   7.619
 1415SOL     OW14243   3.783   0.500   3.550
 1415SOL    HW114244   3.765   0.585   3.500
 1415SOL    HW214245   3.749   0.422   3.498
 1416SOL     OW14246   7.151   5.723   0.827
 1416SOL    HW114247   7.250   5.735   0.816
 1416SOL    HW214248   7.103   5.806   0.798
 1417SOL     OW14249   1.157   5.813   3.330
 1417SOL    HW114250   1.241   5.839   3.283
 1417SOL    HW214251   1.096   5.891   3.337
 1418SOL     OW14252   6.011   5.269   3.378
 1418SOL    HW114253   5.976   5.363   3.384
 1418SOL    HW214254   5.990   5.231   3.289
 1419SOL     OW14255   0.445   7.539   3.374
 1419SOL    HW114256   0.362   7.579   3.412
 1419SOL    HW214257   0.423   7.490   3.290
 1420SOL     OW14258   5.081   3.252   5.410
 1420SOL    HW114259   5.169   3.213   5.384
 1420SOL    HW214260   5.062   3.234   5.506
 1421SOL     OW14261   5.801   4.138   4.526
 1421SOL    HW114262   5.751   4.217   4.491
 1421SOL    HW214263   5.898   4.144   4.502
 1422SOL     OW14264   2.827   6.578   5.183
 1422SOL    HW114265   2.835   6.587   5.282
 1422SOL    HW214266   2.777   6.656   5.145
 1423SOL     OW14267   3.205   0.334   7.941
 1423SOL    HW114268   3.142   0.257   7.948
 1423SOL    HW214269   3.192   0.396   8.018
 1424SOL     OW14270   5.821   4.099   4.080
 1424SOL    HW114271   5.730   4.079   4.043
 1424SOL    HW214272   5.816   4.176   4.144
 1425SOL     OW14273   6.044   7.247   2.801
 1425SOL    HW114274   6.082   7.247   2.708
 1425SOL    HW214275   6.037   7.154   2.835
 1426SOL     OW14276   6.646   6.138   5.051
 1426SOL    HW114277   6.557   6.092   5.038
 1426SOL    HW214278   6.651   6.177   5.143
 1427SOL     OW14279   0.501   1.588   3.761
 1427SOL    HW114280   0.517   1.594   3.662
 1427SOL    HW214281   0.581   1.619   3.811
 1428SOL     OW14282   2.333   4.714   3.136
 1428SOL    HW114283   2.409   4.760   3.183
 1428SOL    HW214284   2.361   4.690   3.043
 1429SOL     OW14285   1.685   0.942   1.542
 1429SOL    HW114286   1.593   0.905   1.549
 1429SOL    HW214287   1.748   0.871   1.511
 1430SOL     OW14288   2.290   4.427   7.652
 1430SOL    HW114289   2.235   4.478   7.718
 1430SOL    HW214290   2.237   4.350   7.616
 1431SOL     OW14291   1.728   6.629   3.469
 1431SOL    HW114292   1.820   6.666   3.460
 1431SOL    HW214293   1.660   6.702   3.458
 1432SOL     OW14294   4.147   3.305   3.142
 1432SOL    HW114295   4.184   3.214   3.161
 1432SOL    HW214296   4.190   3.373   3.202
 1433SOL     OW14297   3.745   3.442   5.341
 1433SOL    HW114298   3.782   3.458   5.433
 1433SOL    HW214299   3.814   3.397   5.284
 1434SOL     OW14300   0.661   0.349   1.237
 1434SOL    HW114301   0.694   0.414   1.168
 1434SOL    HW214302   0.732   0.334   1.306
 1435SOL     OW14303   3.210   7.066   3.478
 1435SOL    HW114304   3.111   7.056   3.487
 1435SOL    HW214305   3.247   6.991   3.423
 1436SOL     OW14306   3.341   7.460   2.303
 1436SOL    HW114307   3.388   7.543   2.334
 1436SOL    HW214308   3.307   7.472   2.210
 1437SOL     OW14309   0.436   1.252   5.756
 1437SOL    HW114310   0.391   1.335   5.789
 1437SOL    HW214311   0.406   1.231   5.663
 1438SOL     OW14312   0.215   2.658   3.386
 1438SOL    HW114313   0.203   2.745   3.337
 1438SOL    HW214314   0.132   2.603   3.379
 1439SOL     OW14315   1.512   3.409   1.981
 1439SOL    HW114316   1.460   3.337   1.934
 1439SOL    HW214317   1.472   3.426   2.071
 1440SOL     OW14318   7.630   1.908   7.489
 1440SOL    HW114319   7.590   1.852   7.562
 1440SOL    HW214320   7.559   1.963   7.445
 1441SOL     OW14321   2.287   5.556   2.883
 1441SOL    HW114322   2.240   5.489   2.941
 1441SOL    HW214323   2.270   5.648   2.918
 1442SOL     OW14324   1.024   0.215   4.498
 1442SOL    HW114325   1.082   0.146   4.455
 1442SOL    HW214326   1.057   0.234   4.590
 1443SOL     OW14327   6.020   2.560   3.399
 1443SOL    HW114328   6.068   2.550   3.311
 1443SOL    HW214329   5.985   2.653   3.408
 1444SOL     OW14330   4.524   2.216   6.103
 1444SOL    HW114331   4.593   2.263   6.158
 1444SOL    HW214332   4.485   2.278   6.035
 1445SOL     OW14333   5.601   4.059   4.782
 1445SOL    HW114334   5.680   4.113   4.751
 1445SOL    HW214335   5.625   4.008   4.864
 1446SOL     OW14336   5.152   6.863   2.936
 1446SOL    HW114337   5.110   6.948   2.905
 1446SOL    HW214338   5.207   6.880   3.018
 1447SOL     OW14339   7.542   3.947   2.956
 1447SOL    HW114340   7.505   4.027   2.909
 1447SOL    HW214341   7.582   3.974   3.044
 1448SOL     OW14342   3.546   3.622   0.275
 1448SOL    HW114343   3.461   3.594   0.231
 1448SOL    HW214344   3.527   3.662   0.365
 1449SOL     OW14345   7.543   1.182   6.708
 1449SOL    HW114346   7.595   1.137   6.635
 1449SOL    HW214347   7.447   1.153   6.706
 1450SOL     OW14348   2.831   2.160   6.983
 1450SOL    HW114349   2.908   2.107   7.021
 1450SOL    HW214350   2.823   2.142   6.885
 1451SOL     OW14351   6.828   7.736   0.514
 1451SOL    HW114352   6.874   7.825   0.512
 1451SOL    HW214353   6.730   7.749   0.523
 1452SOL     OW14354   1.347   4.796   2.097
 1452SOL    HW114355   1.348   4.830   2.190
 1452SOL    HW214356   1.438   4.803   2.056
 1453SOL     OW14357   2.658   7.124   5.340
 1453SOL    HW114358   2.649   7.118   5.439
 1453SOL    HW214359   2.595   7.060   5.296
 1454SOL     OW14360   2.393   6.467   4.424
 1454SOL    HW114361   2.394   6.468   4.524
 1454SOL    HW214362   2.344   6.386   4.391
 1455SOL     OW14363   6.866   6.779   0.501
 1455SOL    HW114364   6.908   6.727   0.575
 1455SOL    HW214365   6.895   6.741   0.413
 1456SOL     OW14366   2.012   2.863   4.199
 1456SOL    HW114367   1.971   2.942   4.153
 1456SOL    HW214368   2.056   2.892   4.284
 1457SOL     OW14369   5.293   6.588   5.227
 1457SOL    HW114370   5.304   6.675   5.276
 1457SOL    HW214371   5.284   6.605   5.129
 1458SOL     OW14372   3.168   1.843   3.659
 1458SOL    HW114373   3.134   1.925   3.613
 1458SOL    HW214374   3.231   1.868   3.732
 1459SOL     OW14375   7.863   6.307   2.759
 1459SOL    HW114376   7.902   6.391   2.720
 1459SOL    HW214377   7.898   6.293   2.851
 1460SOL     OW14378   1.503   2.280   5.136
 1460SOL    HW114379   1.590   2.316   5.103
 1460SOL    HW214380   1.512   2.249   5.230
 1461SOL     OW14381   3.477   7.909   5.517
 1461SOL    HW114382   3.435   7.989   5.559
 1461SOL    HW214383   3.570   7.897   5.551
 1462SOL     OW14384   3.928   3.264   5.416
 1462SOL    HW114385   3.946   3.172   5.380
 1462SOL    HW214386   3.936   3.264   5.516
 1463SOL     OW14387   5.497   1.085   4.977
 1463SOL    HW114388   5.569   1.152   4.994
 1463SOL    HW214389   5.525   0.995   5.011
 1464SOL     OW14390   1.560   4.096   5.386
 1464SOL    HW114391   1.642   4.115   5.440
 1464SOL    HW214392   1.479   4.093   5.446
 1465SOL     OW14393   4.054   0.315   2.211
 1465SOL    HW114394   4.104   0.402   2.219
 1465SOL    HW214395   4.112   0.239   2.242
 1466SOL     OW14396   5.846   0.184   6.893
 1466SOL    HW114397   5.869   0.266   6.841
 1466SOL    HW214398   5.920   0.117   6.885
 1467SOL     OW14399   3.721   6.045   2.446
 1467SOL    HW114400   3.680   5.999   2.526
 1467SOL    HW214401   3.759   5.976   2.384
 1468SOL     OW14402   7.291   0.067   7.607
 1468SOL    HW114403   7.237   0.141   7.567
 1468SOL    HW214404   7.327   0.096   7.696
 1469SOL     OW14405   0.839   0.563   7.369
 1469SOL    HW114406   0.842   0.516   7.280
 1469SOL    HW214407   0.749   0.603   7.383
 1470SOL     OW14408   4.127   3.236   6.682
 1470SOL    HW114409   4.189   3.213   6.607
 1470SOL    HW214410   4.129   3.164   6.751
 1471SOL     OW14411   7.738   4.179   1.911
 1471SOL    HW114412   7.678   4.180   1.991
 1471SOL    HW214413   7.722   4.097   1.857
 1472SOL     OW14414   2.753   3.807   2.738
 1472SOL    HW114415   2.701   3.724   2.759
 1472SOL    HW214416   2.843   3.783   2.703
 1473SOL     OW14417   4.924   4.938   0.693
 1473SOL    HW114418   4.962   4.924   0.785
 1473SOL    HW214419   4.824   4.944   0.699
 1474SOL     OW14420   1.506   5.316   1.996
 1474SOL    HW114421   1.583   5.258   1.972
 1474SOL    HW214422   1.420   5.271   1.973
 1475SOL     OW14423   0.660   3.199   2.923
 1475SOL    HW114424   0.618   3.284   2.953
 1475SOL    HW214425   0.634   3.179   2.828
 1476SOL     OW14426   7.236   3.955   5.949
 1476SOL    HW114427   7.138   3.965   5.966
 1476SOL    HW214428   7.288   4.000   6.022
 1477SOL     OW14429   5.457   1.945   4.640
 1477SOL    HW114430   5.532   2.005   4.612
 1477SOL    HW214431   5.442   1.874   4.571
 1478SOL     OW14432   6.862   5.671   3.551
 1478SOL    HW114433   6.939   5.651   3.489
 1478SOL    HW214434   6.895   5.676   3.645
 1479SOL     OW14435   3.998   6.327   5.047
 1479SOL    HW114436   4.023   6.413   5.001
 1479SOL    HW214437   4.065   6.256   5.023
 1480SOL     OW14438   3.372   4.173   2.725
 1480SOL    HW114439   3.455   4.188   2.779
 1480SOL    HW214440   3.394   4.179   2.627
 1481SOL     OW14441   3.576   0.045   0.478
 1481SOL    HW114442   3.488   0.047   0.430
 1481SOL    HW214443   3.636   0.116   0.441
 1482SOL     OW14444   5.536   1.775   2.334
 1482SOL    HW114445   5.570   1.860   2.294
 1482SOL    HW214446   5.576   1.761   2.425
 1483SOL     OW14447   5.953   7.859   5.501
 1483SOL    HW114448   5.891   7.789   5.538
 1483SOL    HW214449   5.928   7.881   5.407
 1484SOL     OW14450   3.468   2.660   0.557
 1484SOL    HW114451   3.377   2.657   0.515
 1484SOL    HW214452   3.465   2.716   0.640
 1485SOL     OW14453   2.461   1.953   5.816
 1485SOL    HW114454   2.489   1.945   5.912
 1485SOL    HW214455   2.424   1.866   5.784
 1486SOL     OW14456   1.527   0.658   1.711
 1486SOL    HW114457   1.598   0.702   1.765
 1486SOL    HW214458   1.504   0.714   1.632
 1487SOL     OW14459   7.018   6.698   4.107
 1487SOL    HW114460   7.079   6.627   4.071
 1487SOL    HW214461   6.992   6.677   4.201
 1488SOL     OW14462   5.011   5.477   6.044
 1488SOL    HW114463   5.067   5.422   5.981
 1488SOL    HW214464   4.931   5.424   6.073
 1489SOL     OW14465   1.861   6.852   4.382
 1489SOL    HW114466   1.935   6.914   4.356
 1489SOL    HW214467   1.881   6.809   4.470
 1490SOL     OW14468   7.802   2.228   6.728
 1490SOL    HW114469   7.871   2.163   6.761
 1490SOL    HW214470   7.808   2.313   6.780
 1491SOL     OW14471   6.803   3.776   4.692
 1491SOL    HW114472   6.833   3.724   4.611
 1491SOL    HW214473   6.707   3.756   4.711
 1492SOL     OW14474   1.785   5.576   1.334
 1492SOL    HW114475   1.692   5.538   1.340
 1492SOL    HW214476   1.798   5.621   1.245
 1493SOL     OW14477   4.420   1.993   2.343
 1493SOL    HW114478   4.426   2.090   2.369
 1493SOL    HW214479   4.387   1.985   2.249
 1494SOL     OW14480   6.261   4.139   4.197
 1494SOL    HW114481   6.304   4.124   4.286
 1494SOL    HW214482   6.331   4.141   4.126
 1495SOL     OW14483   7.955   7.170   3.234
 1495SOL    HW114484   7.942   7.152   3.137
 1495SOL    HW214485   7.932   7.265   3.255
 1496SOL     OW14486   7.303   0.335   4.428
 1496SOL    HW114487   7.299   0.270   4.352
 1496SOL    HW214488   7.348   0.419   4.399
 1497SOL     OW14489   5.876   6.789   7.085
 1497SOL    HW114490   5.875   6.868   7.145
 1497SOL    HW214491   5.873   6.818   6.989
 1498SOL     OW14492   4.665   3.731   4.184
 1498SOL    HW114493   4.763   3.720   4.202
 1498SOL    HW214494   4.623   3.641   4.167
 1499SOL     OW14495  -0.033   3.411   2.863
 1499SOL    HW114496   0.056   3.389   2.823
 1499SOL    HW214497  -0.046   3.360   2.948
 1500SOL     OW14498   0.307   6.432   0.287
 1500SOL    HW114499   0.367   6.507   0.316
 1500SOL    HW214500   0.212   6.461   0.293
 1501SOL     OW14501   0.407   6.819   6.178
 1501SOL    HW114502   0.429   6.790   6.272
 1501SOL    HW214503   0.490   6.818   6.122
 1502SOL     OW14504   7.483   3.011   5.504
 1502SOL    HW114505   7.488   3.094   5.449
 1502SOL    HW214506   7.554   3.012   5.574
 1503SOL     OW14507   1.202   6.173   7.596
 1503SOL    HW114508   1.137   6.101   7.570
 1503SOL    HW214509   1.193   6.195   7.693
 1504SOL     OW14510   4.853   6.347   4.224
 1504SOL    HW114511   4.800   6.427   4.195
 1504SOL    HW214512   4.930   6.333   4.161
 1505SOL     OW14513   4.783   6.626   1.855
 1505SOL    HW114514   4.706   6.571   1.823
 1505SOL    HW214515   4.762   6.666   1.944
 1506SOL     OW14516   6.325   0.006   5.581
 1506SOL    HW114517   6.301   0.028   5.487
 1506SOL    HW214518   6.361   0.087   5.627
 1507SOL     OW14519   2.527   6.601   0.853
 1507SOL    HW114520   2.538   6.628   0.948
 1507SOL    HW214521   2.604   6.545   0.823
 1508SOL     OW14522   2.725   1.071   2.567
 1508SOL    HW114523   2.647   1.126   2.597
 1508SOL    HW214524   2.746   1.091   2.472
 1509SOL     OW14525   3.518   4.619   3.200
 1509SOL    HW114526   3.488   4.711   3.227
 1509SOL    HW214527   3.465   4.589   3.121
 1510SOL     OW14528   7.673   5.193   5.220
 1510SOL    HW114529   7.681   5.094   5.211
 1510SOL    HW214530   7.618   5.216   5.300
 1511SOL     OW14531   6.439   5.019   7.372
 1511SOL    HW114532   6.411   5.019   7.468
 1511SOL    HW214533   6.428   5.111   7.333
 1512SOL     OW14534   4.350   6.864   7.485
 1512SOL    HW114535   4.384   6.785   7.433
 1512SOL    HW214536   4.296   6.833   7.563
 1513SOL     OW14537   0.312   0.476   3.777
 1513SOL    HW114538   0.272   0.393   3.738
 1513SOL    HW214539   0.258   0.506   3.856
 1514SOL     OW14540   1.985   3.480   1.352
 1514SOL    HW114541   1.943   3.402   1.306
 1514SOL    HW214542   2.041   3.449   1.428
 1515SOL     OW14543   5.587   7.585   0.738
 1515SOL    HW114544   5.510   7.552   0.794
 1515SOL    HW214545   5.613   7.515   0.671
 1516SOL     OW14546   6.507   4.449   7.163
 1516SOL    HW114547   6.472   4.381   7.227
 1516SOL    HW214548   6.523   4.406   7.074
 1517SOL     OW14549   6.814   5.069   3.418
 1517SOL    HW114550   6.906   5.031   3.420
 1517SOL    HW214551   6.758   5.020   3.352
 1518SOL     OW14552   4.003   4.030   3.777
 1518SOL    HW114553   4.013   3.930   3.786
 1518SOL    HW214554   4.087   4.075   3.807
 1519SOL     OW14555   7.259   4.163   0.867
 1519SOL    HW114556   7.276   4.070   0.900
 1519SOL    HW214557   7.193   4.209   0.925
 1520SOL     OW14558   4.383   1.705   5.173
 1520SOL    HW114559   4.378   1.802   5.149
 1520SOL    HW214560   4.401   1.694   5.271
 1521SOL     OW14561   3.582   2.794   3.090
 1521SOL    HW114562   3.602   2.881   3.046
 1521SOL    HW214563   3.546   2.728   3.023
 1522SOL     OW14564   2.755   4.306   3.778
 1522SOL    HW114565   2.820   4.241   3.739
 1522SOL    HW214566   2.728   4.276   3.870
 1523SOL     OW14567   6.049   5.716   5.530
 1523SOL    HW114568   6.047   5.815   5.514
 1523SOL    HW214569   6.081   5.697   5.623
 1524SOL     OW14570   0.406   5.743   4.948
 1524SOL    HW114571   0.322   5.689   4.954
 1524SOL    HW214572   0.442   5.761   5.039
 1525SOL     OW14573   6.120   0.895   0.468
 1525SOL    HW114574   6.034   0.848   0.489
 1525SOL    HW214575   6.155   0.939   0.551
 1526SOL     OW14576   5.363   3.762   7.416
 1526SOL    HW114577   5.374   3.805   7.506
 1526SOL    HW214578   5.428   3.800   7.351
 1527SOL     OW14579   1.155   6.093   2.111
 1527SOL    HW114580   1.075   6.033   2.117
 1527SOL    HW214581   1.135   6.180   2.156
 1528SOL     OW14582   5.782   0.433   0.018
 1528SOL    HW114583   5.748   0.339   0.024
 1528SOL    HW214584   5.754   0.485   0.098
 1529SOL     OW14585   4.524   2.254   2.807
 1529SOL    HW114586   4.517   2.180   2.741
 1529SOL    HW214587   4.518   2.342   2.760
 1530SOL     OW14588   4.725   4.551   2.599
 1530SOL    HW114589   4.816   4.588   2.617
 1530SOL    HW214590   4.723   4.454   2.624
 1531SOL     OW14591   3.612   2.765   6.932
 1531SOL    HW114592   3.652   2.841   6.984
 1531SOL    HW214593   3.584   2.798   6.841
 1532SOL     OW14594  -0.024   3.519   2.471
 1532SOL    HW114595   0.061   3.557   2.508
 1532SOL    HW214596  -0.045   3.561   2.383
 1533SOL     OW14597   1.113   4.824   3.730
 1533SOL    HW114598   1.123   4.918   3.765
 1533SOL    HW214599   1.075   4.826   3.638
 1534SOL     OW14600   6.174   7.824   2.514
 1534SOL    HW114601   6.209   7.820   2.421
 1534SOL    HW214602   6.244   7.860   2.576
 1535SOL     OW14603   5.537   3.529   3.206
 1535SOL    HW114604   5.637   3.527   3.210
 1535SOL    HW214605   5.499   3.554   3.295
 1536SOL     OW14606   7.584   2.291   6.496
 1536SOL    HW114607   7.653   2.364   6.500
 1536SOL    HW214608   7.528   2.301   6.414
 1537SOL     OW14609   4.975   3.664   5.857
 1537SOL    HW114610   4.948   3.756   5.887
 1537SOL    HW214611   5.010   3.668   5.764
 1538SOL     OW14612   3.669   2.861   5.814
 1538SOL    HW114613   3.593   2.873   5.877
 1538SOL    HW214614   3.756   2.874   5.862
 1539SOL     OW14615   6.839   7.467   1.635
 1539SOL    HW114616   6.911   7.439   1.699
 1539SOL    HW214617   6.749   7.451   1.676
 1540SOL     OW14618   6.590   5.543   5.686
 1540SOL    HW114619   6.641   5.599   5.620
 1540SOL    HW214620   6.511   5.502   5.641
 1541SOL     OW14621   4.252   7.815   1.232
 1541SOL    HW114622   4.207   7.886   1.286
 1541SOL    HW214623   4.279   7.852   1.143
 1542SOL     OW14624   7.483   3.074   0.907
 1542SOL    HW114625   7.423   2.994   0.900
 1542SOL    HW214626   7.506   3.108   0.816
 1543SOL     OW14627   5.994   2.790   1.735
 1543SOL    HW114628   6.047   2.759   1.815
 1543SOL    HW214629   5.897   2.769   1.749
 1544SOL     OW14630   0.749   3.109   5.143
 1544SOL    HW114631   0.778   3.196   5.102
 1544SOL    HW214632   0.808   3.035   5.109
 1545SOL     OW14633   3.240   2.677   3.016
 1545SOL    HW114634   3.307   2.746   2.987
 1545SOL    HW214635   3.148   2.716   3.016
 1546SOL     OW14636   4.880   1.659   4.013
 1546SOL    HW114637   4.966   1.676   3.965
 1546SOL    HW214638   4.867   1.561   4.028
 1547SOL     OW14639   1.487   0.825   3.575
 1547SOL    HW114640   1.515   0.866   3.488
 1547SOL    HW214641   1.461   0.730   3.562
 1548SOL     OW14642   1.232   3.356   7.357
 1548SOL    HW114643   1.302   3.354   7.429
 1548SOL    HW214644   1.274   3.377   7.269
 1549SOL     OW14645   3.116   0.205   2.238
 1549SOL    HW114646   3.096   0.279   2.174
 1549SOL    HW214647   3.208   0.170   2.223
 1550SOL     OW14648   5.172   6.037   0.141
 1550SOL    HW114649   5.226   6.118   0.121
 1550SOL    HW214650   5.164   5.980   0.058
 1551SOL     OW14651   4.071   3.475   6.285
 1551SOL    HW114652   3.978   3.474   6.323
 1551SOL    HW214653   4.086   3.561   6.235
 1552SOL     OW14654   2.590   0.615   3.371
 1552SOL    HW114655   2.588   0.618   3.471
 1552SOL    HW214656   2.519   0.674   3.334
 1553SOL     OW14657   5.898   0.587   7.135
 1553SOL    HW114658   5.927   0.679   7.110
 1553SOL    HW214659   5.803   0.589   7.167
 1554SOL     OW14660   2.737   1.658   4.964
 1554SOL    HW114661   2.709   1.693   5.054
 1554SOL    HW214662   2.818   1.707   4.933
 1555SOL     OW14663   2.385   3.347   6.002
 1555SOL    HW114664   2.337   3.328   5.917
 1555SOL    HW214665   2.379   3.444   6.025
 1556SOL     OW14666   6.561   0.082   3.188
 1556SOL    HW114667   6.642   0.093   3.130
 1556SOL    HW214668   6.558  -0.011   3.225
 1557SOL     OW14669   5.458   7.636   1.595
 1557SOL    HW114670   5.555   7.626   1.614
 1557SOL    HW214671   5.444   7.676   1.505
 1558SOL     OW14672   0.971   3.029   7.216
 1558SOL    HW114673   1.022   2.972   7.152
 1558SOL    HW214674   0.874   3.027   7.193
 1559SOL     OW14675   5.661   0.218   5.999
 1559SOL    HW114676   5.741   0.277   6.003
 1559SOL    HW214677   5.578   0.271   6.019
 1560SOL     OW14678   7.474   1.765   1.664
 1560SOL    HW114679   7.547   1.747   1.598
 1560SOL    HW214680   7.501   1.733   1.754
 1561SOL     OW14681   0.005   6.518   6.804
 1561SOL    HW114682   0.092   6.500   6.849
 1561SOL    HW214683  -0.030   6.608   6.832
 1562SOL     OW14684   0.931   5.064   5.703
 1562SOL    HW114685   1.003   5.041   5.768
 1562SOL    HW214686   0.966   5.123   5.631
 1563SOL     OW14687   1.258   2.987   4.636
 1563SOL    HW114688   1.170   2.959   4.597
 1563SOL    HW214689   1.245   3.022   4.729
 1564SOL     OW14690   2.083   2.156   0.934
 1564SOL    HW114691   2.172   2.194   0.909
 1564SOL    HW214692   2.031   2.221   0.989
 1565SOL     OW14693   3.209   0.380   1.574
 1565SOL    HW114694   3.263   0.459   1.542
 1565SOL    HW214695   3.253   0.340   1.654
 1566SOL     OW14696   3.085   3.658   2.932
 1566SOL    HW114697   3.091   3.686   2.836
 1566SOL    HW214698   3.072   3.559   2.938
 1567SOL     OW14699   6.080   5.929   6.927
 1567SOL    HW114700   6.098   6.019   6.967
 1567SOL    HW214701   6.093   5.933   6.828
 1568SOL     OW14702   4.421   2.138   4.027
 1568SOL    HW114703   4.410   2.082   3.945
 1568SOL    HW214704   4.339   2.192   4.043
 1569SOL     OW14705   7.247   2.416   5.282
 1569SOL    HW114706   7.235   2.363   5.198
 1569SOL    HW214707   7.341   2.408   5.314
 1570SOL     OW14708   7.318   3.596   0.597
 1570SOL    HW114709   7.270   3.509   0.606
 1570SOL    HW214710   7.364   3.601   0.508
 1571SOL     OW14711   2.639   4.190   2.660
 1571SOL    HW114712   2.702   4.268   2.661
 1571SOL    HW214713   2.666   4.124   2.730
 1572SOL     OW14714   6.202   6.933   0.170
 1572SOL    HW114715   6.269   6.894   0.233
 1572SOL    HW214716   6.203   7.033   0.177
 1573SOL     OW14717   4.480   3.224   4.454
 1573SOL    HW114718   4.396   3.260   4.413
 1573SOL    HW214719   4.550   3.295   4.455
 1574SOL     OW14720   2.159   6.354   6.102
 1574SOL    HW114721   2.093   6.402   6.159
 1574SOL    HW214722   2.117   6.327   6.015
 1575SOL     OW14723   4.708   0.341   7.969
 1575SOL    HW114724   4.734   0.343   7.872
 1575SOL    HW214725   4.736   0.426   8.014
 1576SOL     OW14726   7.623   3.146   5.869
 1576SOL    HW114727   7.557   3.093   5.923
 1576SOL    HW214728   7.658   3.090   5.794
 1577SOL     OW14729   3.447   1.473   6.920
 1577SOL    HW114730   3.482   1.467   7.014
 1577SOL    HW214731   3.465   1.388   6.871
 1578SOL     OW14732   5.983   4.590   0.826
 1578SOL    HW114733   6.024   4.499   0.829
 1578SOL    HW214734   5.998   4.632   0.737
 1579SOL     OW14735   1.222   6.590   2.390
 1579SOL    HW114736   1.237   6.574   2.293
 1579SOL    HW214737   1.228   6.687   2.411
 1580SOL     OW14738   5.888   6.750   1.604
 1580SOL    HW114739   5.843   6.812   1.668
 1580SOL    HW214740   5.948   6.801   1.543
 1581SOL     OW14741   1.646   2.371   4.215
 1581SOL    HW114742   1.596   2.307   4.157
 1581SOL    HW214743   1.589   2.400   4.292
 1582SOL     OW14744   3.748   5.297   2.123
 1582SOL    HW114745   3.769   5.282   2.220
 1582SOL    HW214746   3.748   5.209   2.074
 1583SOL     OW14747   2.921   7.258   3.084
 1583SOL    HW114748   2.866   7.176   3.101
 1583SOL    HW214749   2.878   7.336   3.129
 1584SOL     OW14750   4.205   0.378   2.025
 1584SOL    HW114751   4.282   0.421   2.072
 1584SOL    HW214752   4.228   0.360   1.930
 1585SOL     OW14753   5.306   4.947   1.561
 1585SOL    HW114754   5.321   4.848   1.554
 1585SOL    HW214755   5.295   4.985   1.469
 1586SOL     OW14756   0.427   4.663   4.438
 1586SOL    HW114757   0.434   4.756   4.472
 1586SOL    HW214758   0.395   4.602   4.511
 1587SOL     OW14759   3.021   6.294   7.066
 1587SOL    HW114760   2.959   6.340   7.003
 1587SOL    HW214761   3.113   6.288   7.026
 1588SOL     OW14762   5.592   0.766   0.938
 1588SOL    HW114763   5.660   0.729   0.874
 1588SOL    HW214764   5.505   0.718   0.928
 1589SOL     OW14765   5.050   2.064   0.940
 1589SOL    HW114766   5.074   2.160   0.953
 1589SOL    HW214767   5.131   2.011   0.919
 1590SOL     OW14768   6.034   5.043   6.203
 1590SOL    HW114769   6.065   4.948   6.193
 1590SOL    HW214770   6.073   5.099   6.130
 1591SOL     OW14771   0.907   7.296   1.714
 1591SOL    HW114772   0.823   7.307   1.767
 1591SOL    HW214773   0.923   7.199   1.693
 1592SOL     OW14774   0.184   3.303   6.878
 1592SOL    HW114775   0.183   3.337   6.784
 1592SOL    HW214776   0.127   3.361   6.936
 1593SOL     OW14777   2.237   6.380   6.661
 1593SOL    HW114778   2.298   6.429   6.723
 1593SOL    HW214779   2.216   6.290   6.697
 1594SOL     OW14780   3.837   6.994   0.895
 1594SOL    HW114781   3.805   7.037   0.980
 1594SOL    HW214782   3.786   6.910   0.878
 1595SOL     OW14783   6.316   4.819   4.537
 1595SOL    HW114784   6.314   4.729   4.581
 1595SOL    HW214785   6.345   4.810   4.442
 1596SOL     OW14786   6.795   4.769   0.770
 1596SOL    HW114787   6.785   4.669   0.765
 1596SOL    HW214788   6.796   4.799   0.865
 1597SOL     OW14789   7.527   4.657   2.595
 1597SOL    HW114790   7.617   4.675   2.635
 1597SOL    HW214791   7.523   4.694   2.502
 1598SOL     OW14792   2.004   7.345   0.531
 1598SOL    HW114793   1.941   7.284   0.580
 1598SOL    HW214794   2.096   7.338   0.570
 1599SOL     OW14795   6.699   0.771   7.978
 1599SOL    HW114796   6.759   0.742   7.903
 1599SOL    HW214797   6.726   0.862   8.010
 1600SOL     OW14798   0.080   1.483   0.833
 1600SOL    HW114799   0.125   1.460   0.747
 1600SOL    HW214800   0.087   1.581   0.850
 1601SOL     OW14801   2.866   5.466   1.470
 1601SOL    HW114802   2.824   5.381   1.437
 1601SOL    HW214803   2.863   5.469   1.570
 1602SOL     OW14804   6.817   3.232   6.342
 1602SOL    HW114805   6.819   3.320   6.294
 1602SOL    HW214806   6.794   3.246   6.438
 1603SOL     OW14807   5.890   7.019   5.849
 1603SOL    HW114808   5.939   6.979   5.771
 1603SOL    HW214809   5.808   7.066   5.817
 1604SOL     OW14810   5.470   4.854   3.268
 1604SOL    HW114811   5.526   4.937   3.275
 1604SOL    HW214812   5.414   4.843   3.350
 1605SOL     OW14813   4.344   4.426   5.469
 1605SOL    HW114814   4.283   4.396   5.542
 1605SOL    HW214815   4.367   4.349   5.409
 1606SOL     OW14816   2.830   4.201   7.902
 1606SOL    HW114817   2.763   4.209   7.828
 1606SOL    HW214818   2.791   4.236   7.987
 1607SOL     OW14819   2.220   6.929   6.795
 1607SOL    HW114820   2.205   7.025   6.818
 1607SOL    HW214821   2.297   6.892   6.848
 1608SOL     OW14822   4.511   6.737   1.863
 1608SOL    HW114823   4.527   6.832   1.891
 1608SOL    HW214824   4.527   6.727   1.765
 1609SOL     OW14825   5.534   1.603   5.311
 1609SOL    HW114826   5.570   1.688   5.272
 1609SOL    HW214827   5.569   1.592   5.404
 1610SOL     OW14828   0.913   7.503   3.177
 1610SOL    HW114829   0.970   7.555   3.241
 1610SOL    HW214830   0.900   7.410   3.211
 1611SOL     OW14831   4.029   2.759   2.193
 1611SOL    HW114832   4.113   2.770   2.246
 1611SOL    HW214833   4.039   2.802   2.104
 1612SOL     OW14834   7.122   7.223   0.697
 1612SOL    HW114835   7.063   7.271   0.631
 1612SOL    HW214836   7.208   7.272   0.707
 1613SOL     OW14837   3.193   3.821   4.639
 1613SOL    HW114838   3.160   3.873   4.719
 1613SOL    HW214839   3.274   3.866   4.601
 1614SOL     OW14840   0.728   4.683   1.410
 1614SOL    HW114841   0.796   4.736   1.359
 1614SOL    HW214842   0.767   4.596   1.439
 1615SOL     OW14843   5.545   0.794   7.878
 1615SOL    HW114844   5.488   0.771   7.957
 1615SOL    HW214845   5.642   0.788   7.903
 1616SOL     OW14846   2.930   3.145   1.387
 1616SOL    HW114847   2.957   3.123   1.480
 1616SOL    HW214848   3.011   3.160   1.330
 1617SOL     OW14849   6.888   4.238   2.144
 1617SOL    HW114850   6.820   4.235   2.217
 1617SOL    HW214851   6.846   4.216   2.056
 1618SOL     OW14852   6.958   4.934   2.545
 1618SOL    HW114853   6.886   4.865   2.538
 1618SOL    HW214854   6.928   5.007   2.608
 1619SOL     OW14855   6.829   2.342   4.519
 1619SOL    HW114856   6.913   2.289   4.510
 1619SOL    HW214857   6.776   2.338   4.434
 1620SOL     OW14858   7.550   3.082   7.474
 1620SOL    HW114859   7.550   3.096   7.573
 1620SOL    HW214860   7.629   3.127   7.433
 1621SOL     OW14861   6.902   5.758   1.837
 1621SOL    HW114862   6.942   5.703   1.763
 1621SOL    HW214863   6.839   5.701   1.890
 1622SOL     OW14864   7.536   1.457   4.538
 1622SOL    HW114865   7.538   1.557   4.538
 1622SOL    HW214866   7.443   1.425   4.555
 1623SOL     OW14867   1.348   6.924   1.159
 1623SOL    HW114868   1.423   6.863   1.187
 1623SOL    HW214869   1.375   6.975   1.078
 1624SOL     OW14870   4.486   4.081   7.619
 1624SOL    HW114871   4.510   3.991   7.583
 1624SOL    HW214872   4.449   4.072   7.712
 1625SOL     OW14873   5.779   1.945   0.083
 1625SOL    HW114874   5.680   1.963   0.078
 1625SOL    HW214875   5.805   1.927   0.178
 1626SOL     OW14876   1.960   4.961   7.004
 1626SOL    HW114877   1.912   4.880   6.969
 1626SOL    HW214878   2.049   4.971   6.960
 1627SOL     OW14879   1.883   4.727   3.120
 1627SOL    HW114880   1.949   4.656   3.147
 1627SOL    HW214881   1.902   4.756   3.026
 1628SOL     OW14882   2.279   3.794   0.298
 1628SOL    HW114883   2.340   3.811   0.220
 1628SOL    HW214884   2.203   3.859   0.296
 1629SOL     OW14885   2.085   7.441   4.791
 1629SOL    HW114886   2.035   7.399   4.866
 1629SOL    HW214887   2.134   7.371   4.739
 1630SOL     OW14888   4.186   7.799   7.403
 1630SOL    HW114889   4.090   7.772   7.408
 1630SOL    HW214890   4.214   7.811   7.308
 1631SOL     OW14891   5.714   7.877   0.935
 1631SOL    HW114892   5.638   7.854   0.997
 1631SOL    HW214893   5.781   7.933   0.983
 1632SOL     OW14894   2.357   0.606   1.759
 1632SOL    HW114895   2.294   0.554   1.818
 1632SOL    HW214896   2.395   0.547   1.688
 1633SOL     OW14897   0.898   1.669   1.847
 1633SOL    HW114898   0.940   1.620   1.770
 1633SOL    HW214899   0.927   1.764   1.847
 1634SOL     OW14900   2.390   0.997   5.665
 1634SOL    HW114901   2.407   1.076   5.606
 1634SOL    HW214902   2.430   1.012   5.755
 1635SOL     OW14903   6.484   3.759   1.383
 1635SOL    HW114904   6.402   3.815   1.372
 1635SOL    HW214905   6.555   3.788   1.319
 1636SOL     OW14906   6.431   4.017   1.289
 1636SOL    HW114907   6.422   4.013   1.189
 1636SOL    HW214908   6.412   4.110   1.322
 1637SOL     OW14909   5.410   0.988   5.580
 1637SOL    HW114910   5.499   1.024   5.549
 1637SOL    HW214911   5.420   0.946   5.670
 1638SOL     OW14912   0.002   7.209   2.514
 1638SOL    HW114913   0.098   7.191   2.538
 1638SOL    HW214914  -0.003   7.284   2.448
 1639SOL     OW14915   4.786   5.217   1.713
 1639SOL    HW114916   4.722   5.288   1.742
 1639SOL    HW214917   4.826   5.172   1.792
 1640SOL     OW14918   7.863   5.533   5.764
 1640SOL    HW114919   7.847   5.444   5.806
 1640SOL    HW214920   7.779   5.588   5.767
 1641SOL     OW14921   2.877   1.057   2.197
 1641SOL    HW114922   2.875   1.053   2.298
 1641SOL    HW214923   2.790   1.092   2.163
 1642SOL     OW14924   7.921   3.450   3.013
 1642SOL    HW114925   7.955   3.361   2.980
 1642SOL    HW214926   7.955   3.523   2.954
 1643SOL     OW14927   3.343   7.770   4.348
 1643SOL    HW114928   3.257   7.719   4.357
 1643SOL    HW214929   3.379   7.762   4.255
 1644SOL     OW14930   2.659   4.830   1.867
 1644SOL    HW114931   2.736   4.843   1.929
 1644SOL    HW214932   2.685   4.858   1.775
 1645SOL     OW14933   2.461   5.458   3.676
 1645SOL    HW114934   2.364   5.465   3.653
 1645SOL    HW214935   2.490   5.540   3.726
 1646SOL     OW14936   7.350   3.011   3.574
 1646SOL    HW114937   7.395   2.933   3.531
 1646SOL    HW214938   7.309   2.982   3.661
 1647SOL     OW14939   2.072   1.207   0.837
 1647SOL    HW114940   2.124   1.291   0.849
 1647SOL    HW214941   2.123   1.129   0.875
 1648SOL     OW14942   5.031   3.050   7.778
 1648SOL    HW114943   4.990   3.019   7.691
 1648SOL    HW214944   5.121   3.089   7.760
 1649SOL     OW14945   2.492   7.578   2.994
 1649SOL    HW114946   2.566   7.521   3.029
 1649SOL    HW214947   2.411   7.568   3.051
 1650SOL     OW14948   6.831   6.604   7.850
 1650SOL    HW114949   6.898   6.530   7.855
 1650SOL    HW214950   6.770   6.601   7.929
 1651SOL     OW14951   3.686   6.475   7.787
 1651SOL    HW114952   3.663   6.379   7.768
 1651SOL    HW214953   3.645   6.534   7.718
 1652SOL     OW14954   6.782   6.294   3.058
 1652SOL    HW114955   6.711   6.290   2.987
 1652SOL    HW214956   6.870   6.265   3.020
 1653SOL     OW14957   7.528   5.960   2.475
 1653SOL    HW114958   7.524   5.911   2.562
 1653SOL    HW214959   7.619   5.950   2.435
 1654SOL     OW14960   3.223   6.193   2.197
 1654SOL    HW114961   3.165   6.275   2.202
 1654SOL    HW214962   3.300   6.209   2.136
 1655SOL     OW14963   1.892   1.613   0.932
 1655SOL    HW114964   1.972   1.619   0.873
 1655SOL    HW214965   1.906   1.669   1.014
 1656SOL     OW14966   1.560   7.470   5.212
 1656SOL    HW114967   1.519   7.449   5.300
 1656SOL    HW214968   1.656   7.446   5.211
 1657SOL     OW14969   1.669   6.797   7.283
 1657SOL    HW114970   1.608   6.721   7.259
 1657SOL    HW214971   1.662   6.817   7.380
 1658SOL     OW14972   4.086   6.487   1.028
 1658SOL    HW114973   4.075   6.432   0.945
 1658SOL    HW214974   4.174   6.536   1.026
 1659SOL     OW14975   4.516   7.702   0.872
 1659SOL    HW114976   4.458   7.772   0.914
 1659SOL    HW214977   4.491   7.691   0.776
 1660SOL     OW14978   1.123   2.668   3.269
 1660SOL    HW114979   1.099   2.741   3.205
 1660SOL    HW214980   1.130   2.705   3.361
 1661SOL     OW14981   1.518   6.910   3.663
 1661SOL    HW114982   1.597   6.945   3.613
 1661SOL    HW214983   1.496   6.971   3.739
 1662SOL     OW14984   3.364   7.837   3.165
 1662SOL    HW114985   3.289   7.903   3.153
 1662SOL    HW214986   3.442   7.864   3.109
 1663SOL     OW14987   3.077   4.129   1.958
 1663SOL    HW114988   2.983   4.128   1.923
 1663SOL    HW214989   3.077   4.162   2.052
 1664SOL     OW14990   6.570   4.151   1.756
 1664SOL    HW114991   6.490   4.210   1.770
 1664SOL    HW214992   6.544   4.055   1.769
 1665SOL     OW14993   1.015   4.545   2.683
 1665SOL    HW114994   1.008   4.637   2.644
 1665SOL    HW214995   0.938   4.528   2.744
 1666SOL     OW14996   3.758   7.831   5.855
 1666SOL    HW114997   3.760   7.788   5.764
 1666SOL    HW214998   3.794   7.924   5.849
 1667SOL     OW14999   5.911   2.226   6.806
 1667SOL    HW115000   5.991   2.249   6.750
 1667SOL    HW215001   5.940   2.194   6.896
 1668SOL     OW15002   6.704   2.015   6.226
 1668SOL    HW115003   6.688   2.113   6.234
 1668SOL    HW215004   6.700   1.973   6.317
 1669SOL     OW15005   4.505   5.987   5.565
 1669SOL    HW115006   4.422   6.027   5.525
 1669SOL    HW215007   4.522   6.027   5.655
 1670SOL     OW15008   6.423   5.478   3.960
 1670SOL    HW115009   6.407   5.390   3.917
 1670SOL    HW215010   6.340   5.511   4.004
 1671SOL     OW15011   1.764   0.153   1.268
 1671SOL    HW115012   1.823   0.072   1.268
 1671SOL    HW215013   1.775   0.204   1.183
 1672SOL     OW15014   3.612   2.429   3.670
 1672SOL    HW115015   3.661   2.414   3.584
 1672SOL    HW215016   3.534   2.367   3.677
 1673SOL     OW15017   6.417   4.080   2.435
 1673SOL    HW115018   6.317   4.091   2.435
 1673SOL    HW215019   6.460   4.168   2.416
 1674SOL     OW15020   1.384   7.254   5.483
 1674SOL    HW115021   1.302   7.197   5.487
 1674SOL    HW215022   1.426   7.261   5.574
 1675SOL     OW15023   2.339   6.483   0.241
 1675SOL    HW115024   2.379   6.466   0.331
 1675SOL    HW215025   2.274   6.410   0.219
 1676SOL     OW15026   5.493   3.599   7.291
 1676SOL    HW115027   5.416   3.549   7.331
 1676SOL    HW215028   5.480   3.607   7.192
 1677SOL     OW15029   3.993   5.732   4.147
 1677SOL    HW115030   3.905   5.699   4.180
 1677SOL    HW215031   4.005   5.707   4.051
 1678SOL     OW15032   3.481   7.653   4.036
 1678SOL    HW115033   3.441   7.742   4.014
 1678SOL    HW215034   3.413   7.581   4.021
 1679SOL     OW15035   3.559   5.008   6.312
 1679SOL    HW115036   3.479   5.046   6.359
 1679SOL    HW215037   3.540   4.999   6.215
 1680SOL     OW15038   0.874   2.360   3.576
 1680SOL    HW115039   0.802   2.428   3.561
 1680SOL    HW215040   0.933   2.389   3.652
 1681SOL     OW15041   0.320   7.785   1.764
 1681SOL    HW115042   0.267   7.704   1.737
 1681SOL    HW215043   0.259   7.856   1.798
 1682SOL     OW15044   5.248   7.260   2.257
 1682SOL    HW115045   5.191   7.205   2.196
 1682SOL    HW215046   5.192   7.300   2.329
 1683SOL     OW15047   1.782   7.698   1.887
 1683SOL    HW115048   1.728   7.669   1.965
 1683SOL    HW215049   1.721   7.729   1.813
 1684SOL     OW15050   4.325   6.068   2.449
 1684SOL    HW115051   4.347   6.143   2.511
 1684SOL    HW215052   4.245   6.018   2.483
 1685SOL     OW15053   1.006   0.098   0.147
 1685SOL    HW115054   1.009   0.127   0.243
 1685SOL    HW215055   0.947   0.160   0.095
 1686SOL     OW15056   3.576   3.629   2.960
 1686SOL    HW115057   3.603   3.550   3.015
 1686SOL    HW215058   3.652   3.694   2.954
 1687SOL     OW15059   4.772   0.200   5.954
 1687SOL    HW115060   4.761   0.297   5.934
 1687SOL    HW215061   4.771   0.185   6.053
 1688SOL     OW15062   1.383   4.285   3.585
 1688SOL    HW115063   1.313   4.214   3.591
 1688SOL    HW215064   1.376   4.347   3.663
 1689SOL     OW15065   0.369   1.415   0.177
 1689SOL    HW115066   0.272   1.393   0.190
 1689SOL    HW215067   0.381   1.477   0.100
 1690SOL     OW15068   5.995   1.158   2.171
 1690SOL    HW115069   6.086   1.170   2.132
 1690SOL    HW215070   5.999   1.094   2.247
 1691SOL     OW15071   7.655   2.518   5.171
 1691SOL    HW115072   7.710   2.590   5.212
 1691SOL    HW215073   7.636   2.540   5.075
 1692SOL     OW15074   6.946   2.189   0.256
 1692SOL    HW115075   6.912   2.103   0.293
 1692SOL    HW215076   6.934   2.262   0.323
 1693SOL     OW15077   6.432   4.577   4.862
 1693SOL    HW115078   6.407   4.590   4.766
 1693SOL    HW215079   6.362   4.618   4.921
 1694SOL     OW15080   0.807   7.301   5.042
 1694SOL    HW115081   0.735   7.320   5.110
 1694SOL    HW215082   0.790   7.354   4.959
 1695SOL     OW15083   4.453   5.238   2.991
 1695SOL    HW115084   4.457   5.297   2.910
 1695SOL    HW215085   4.540   5.190   3.003
 1696SOL     OW15086   5.497   2.739   6.225
 1696SOL    HW115087   5.465   2.830   6.198
 1696SOL    HW215088   5.542   2.743   6.314
 1697SOL     OW15089   3.920   0.296   5.683
 1697SOL    HW115090   3.926   0.382   5.735
 1697SOL    HW215091   3.833   0.251   5.702
 1698SOL     OW15092   2.852   3.180   3.426
 1698SOL    HW115093   2.828   3.100   3.481
 1698SOL    HW215094   2.850   3.263   3.482
 1699SOL     OW15095   7.220   3.101   2.192
 1699SOL    HW115096   7.174   3.179   2.150
 1699SOL    HW215097   7.274   3.052   2.123
 1700SOL     OW15098   3.263   5.650   1.279
 1700SOL    HW115099   3.245   5.552   1.293
 1700SOL    HW215100   3.301   5.665   1.188
 1701SOL     OW15101   1.829   5.584   4.164
 1701SOL    HW115102   1.900   5.648   4.195
 1701SOL    HW215103   1.748   5.594   4.221
 1702SOL     OW15104   4.245   1.221   6.180
 1702SOL    HW115105   4.155   1.195   6.217
 1702SOL    HW215106   4.247   1.319   6.160
 1703SOL     OW15107   2.776   1.793   3.975
 1703SOL    HW115108   2.827   1.867   4.019
 1703SOL    HW215109   2.757   1.817   3.880
 1704SOL     OW15110   4.309   1.229   4.377
 1704SOL    HW115111   4.362   1.281   4.444
 1704SOL    HW215112   4.233   1.285   4.343
 1705SOL     OW15113   7.682   7.467   2.494
 1705SOL    HW115114   7.746   7.440   2.566
 1705SOL    HW215115   7.631   7.548   2.522
 1706SOL     OW15116   5.652   1.498   4.130
 1706SOL    HW115117   5.728   1.453   4.176
 1706SOL    HW215118   5.684   1.581   4.084
 1707SOL     OW15119   1.474   3.434   7.547
 1707SOL    HW115120   1.532   3.482   7.480
 1707SOL    HW215121   1.515   3.346   7.570
 1708SOL     OW15122   2.925   1.805   2.938
 1708SOL    HW115123   3.010   1.775   2.980
 1708SOL    HW215124   2.945   1.854   2.853
 1709SOL     OW15125   5.532   5.104   6.763
 1709SOL    HW115126   5.523   5.163   6.844
 1709SOL    HW215127   5.629   5.085   6.745
 1710SOL     OW15128   1.274   0.754   2.985
 1710SOL    HW115129   1.338   0.708   2.924
 1710SOL    HW215130   1.323   0.813   3.049
 1711SOL     OW15131   4.763   5.255   5.188
 1711SOL    HW115132   4.769   5.205   5.101
 1711SOL    HW215133   4.853   5.288   5.215
 1712SOL     OW15134   1.874   3.895   3.300
 1712SOL    HW115135   1.909   3.859   3.214
 1712SOL    HW215136   1.951   3.917   3.361
 1713SOL     OW15137   1.583   2.881   3.842
 1713SOL    HW115138   1.619   2.801   3.794
 1713SOL    HW215139   1.539   2.853   3.927
 1714SOL     OW15140   1.943   6.762   7.614
 1714SOL    HW115141   1.980   6.855   7.605
 1714SOL    HW215142   1.976   6.720   7.698
 1715SOL     OW15143   7.209   7.165   0.929
 1715SOL    HW115144   7.125   7.218   0.917
 1715SOL    HW215145   7.196   7.096   1.000
 1716SOL     OW15146   0.804   2.893   5.497
 1716SOL    HW115147   0.870   2.959   5.533
 1716SOL    HW215148   0.773   2.923   5.407
 1717SOL     OW15149   4.591   3.335   4.788
 1717SOL    HW115150   4.644   3.262   4.832
 1717SOL    HW215151   4.495   3.328   4.814
 1718SOL     OW15152   4.746   0.441   3.632
 1718SOL    HW115153   4.694   0.526   3.626
 1718SOL    HW215154   4.844   0.460   3.630
 1719SOL     OW15155   7.699   0.230   2.193
 1719SOL    HW115156   7.769   0.298   2.215
 1719SOL    HW215157   7.656   0.252   2.105
 1720SOL     OW15158   7.955   4.610   3.850
 1720SOL    HW115159   7.912   4.625   3.939
 1720SOL    HW215160   7.944   4.691   3.792
 1721SOL     OW15161   6.261   5.503   0.298
 1721SOL    HW115162   6.248   5.602   0.290
 1721SOL    HW215163   6.262   5.461   0.207
 1722SOL     OW15164   6.267   2.933   1.900
 1722SOL    HW115165   6.173   2.948   1.870
 1722SOL    HW215166   6.329   2.938   1.821
 1723SOL     OW15167   6.043   7.757   6.295
 1723SOL    HW115168   6.074   7.672   6.254
 1723SOL    HW215169   6.115   7.795   6.353
 1724SOL     OW15170   5.374   3.462   1.789
 1724SOL    HW115171   5.442   3.524   1.748
 1724SOL    HW215172   5.283   3.482   1.752
 1725SOL     OW15173   5.657   7.719   2.577
 1725SOL    HW115174   5.621   7.683   2.663
 1725SOL    HW215175   5.689   7.644   2.520
 1726SOL     OW15176   3.903   2.710   3.724
 1726SOL    HW115177   3.960   2.784   3.689
 1726SOL    HW215178   3.836   2.745   3.789
 1727SOL     OW15179   3.350   2.058   2.405
 1727SOL    HW115180   3.281   1.989   2.384
 1727SOL    HW215181   3.397   2.087   2.321
 1728SOL     OW15182   5.580   7.017   4.332
 1728SOL    HW115183   5.634   7.094   4.366
 1728SOL    HW215184   5.539   6.968   4.408
 1729SOL     OW15185   7.885   0.311   2.732
 1729SOL    HW115186   7.955   0.243   2.751
 1729SOL    HW215187   7.876   0.374   2.810
 1730SOL     OW15188   5.929   6.970   2.469
 1730SOL    HW115189   6.000   6.920   2.517
 1730SOL    HW215190   5.959   6.994   2.377
 1731SOL     OW15191   0.156   6.908   5.192
 1731SOL    HW115192   0.207   6.944   5.114
 1731SOL    HW215193   0.082   6.849   5.160
 1732SOL     OW15194   4.617   3.876   6.075
 1732SOL    HW115195   4.642   3.926   5.993
 1732SOL    HW215196   4.695   3.872   6.138
 1733SOL     OW15197   1.358   1.816   6.539
 1733SOL    HW115198   1.291   1.756   6.495
 1733SOL    HW215199   1.416   1.858   6.469
 1734SOL     OW15200   0.651   7.672   2.931
 1734SOL    HW115201   0.623   7.582   2.898
 1734SOL    HW215202   0.626   7.683   3.027
 1735SOL     OW15203   0.965   6.065   4.426
 1735SOL    HW115204   0.959   6.162   4.449
 1735SOL    HW215205   1.019   6.053   4.343
 1736SOL     OW15206   5.813   7.033   0.552
 1736SOL    HW115207   5.835   7.110   0.613
 1736SOL    HW215208   5.733   7.056   0.497
 1737SOL     OW15209   3.729   2.519   7.645
 1737SOL    HW115210   3.675   2.560   7.571
 1737SOL    HW215211   3.668   2.492   7.720
 1738SOL     OW15212   4.177   1.954   4.181
 1738SOL    HW115213   4.131   2.043   4.171
 1738SOL    HW215214   4.239   1.956   4.259
 1739SOL     OW15215   6.723   6.493   3.645
 1739SOL    HW115216   6.740   6.571   3.584
 1739SOL    HW215217   6.805   6.435   3.650
 1740SOL     OW15218   7.937   4.865   0.518
 1740SOL    HW115219   7.879   4.892   0.442
 1740SOL    HW215220   7.955   4.767   0.514
 1741SOL     OW15221   1.416   6.189   5.196
 1741SOL    HW115222   1.488   6.253   5.225
 1741SOL    HW215223   1.385   6.212   5.104
 1742SOL     OW15224   0.602   0.054   1.194
 1742SOL    HW115225   0.617   0.028   1.099
 1742SOL    HW215226   0.689   0.057   1.243
 1743SOL     OW15227   1.617   7.713   0.201
 1743SOL    HW115228   1.589   7.640   0.263
 1743SOL    HW215229   1.563   7.796   0.218
 1744SOL     OW15230   4.654   4.817   5.999
 1744SOL    HW115231   4.557   4.840   5.993
 1744SOL    HW215232   4.710   4.899   5.985
 1745SOL     OW15233   5.355   5.993   7.867
 1745SOL    HW115234   5.280   6.047   7.829
 1745SOL    HW215235   5.320   5.906   7.904
 1746SOL     OW15236   3.101   7.480   6.316
 1746SOL    HW115237   3.064   7.453   6.405
 1746SOL    HW215238   3.109   7.401   6.256
 1747SOL     OW15239   7.783   4.799   0.873
 1747SOL    HW115240   7.774   4.746   0.789
 1747SOL    HW215241   7.715   4.768   0.940
 1748SOL     OW15242   7.109   7.273   2.770
 1748SOL    HW115243   7.013   7.266   2.742
 1748SOL    HW215244   7.116   7.324   2.855
 1749SOL     OW15245   7.534   1.521   2.430
 1749SOL    HW115246   7.445   1.543   2.469
 1749SOL    HW215247   7.528   1.435   2.379
 1750SOL     OW15248   6.173   2.118   4.348
 1750SOL    HW115249   6.256   2.141   4.400
 1750SOL    HW215250   6.192   2.044   4.284
 1751SOL     OW15251   5.538   0.689   1.337
 1751SOL    HW115252   5.598   0.680   1.257
 1751SOL    HW215253   5.493   0.778   1.336
 1752SOL     OW15254   7.624   6.257   3.744
 1752SOL    HW115255   7.696   6.217   3.801
 1752SOL    HW215256   7.541   6.202   3.749
 1753SOL     OW15257   0.101   1.655   0.067
 1753SOL    HW115258   0.108   1.568   0.018
 1753SOL    HW215259   0.027   1.650   0.134
 1754SOL     OW15260   2.972   4.311   0.964
 1754SOL    HW115261   2.895   4.311   1.029
 1754SOL    HW215262   2.940   4.339   0.873
 1755SOL     OW15263   2.109   2.996   2.477
 1755SOL    HW115264   2.027   2.938   2.478
 1755SOL    HW215265   2.101   3.068   2.547
 1756SOL     OW15266   4.860   5.209   3.416
 1756SOL    HW115267   4.924   5.259   3.359
 1756SOL    HW215268   4.870   5.236   3.512
 1757SOL     OW15269   3.198   1.984   6.254
 1757SOL    HW115270   3.245   2.071   6.245
 1757SOL    HW215271   3.219   1.925   6.176
 1758SOL     OW15272   1.127   2.105   3.880
 1758SOL    HW115273   1.166   2.196   3.864
 1758SOL    HW215274   1.121   2.056   3.793
 1759SOL     OW15275   5.393   7.433   1.656
 1759SOL    HW115276   5.347   7.409   1.742
 1759SOL    HW215277   5.411   7.351   1.603
 1760SOL     OW15278   5.589   1.080   4.117
 1760SOL    HW115279   5.668   1.132   4.085
 1760SOL    HW215280   5.609   1.040   4.206
 1761SOL     OW15281   3.250   2.516   0.768
 1761SOL    HW115282   3.318   2.578   0.730
 1761SOL    HW215283   3.277   2.421   0.751
 1762SOL     OW15284   3.186   3.432   7.193
 1762SOL    HW115285   3.125   3.426   7.272
 1762SOL    HW215286   3.167   3.357   7.130
 1763SOL     OW15287   3.687   2.676   3.560
 1763SOL    HW115288   3.604   2.622   3.545
 1763SOL    HW215289   3.676   2.736   3.639
 1764SOL     OW15290   7.326   3.775   4.843
 1764SOL    HW115291   7.327   3.689   4.894
 1764SOL    HW215292   7.264   3.840   4.886
 1765SOL     OW15293   1.176   3.510   0.637
 1765SOL    HW115294   1.097   3.492   0.697
 1765SOL    HW215295   1.144   3.543   0.549
 1766SOL     OW15296   6.096   0.142   1.085
 1766SOL    HW115297   6.004   0.159   1.050
 1766SOL    HW215298   6.120   0.210   1.155
 1767SOL     OW15299   7.661   2.956   0.964
 1767SOL    HW115300   7.702   3.033   0.914
 1767SOL    HW215301   7.726   2.882   0.971
 1768SOL     OW15302   6.321   7.451   7.306
 1768SOL    HW115303   6.223   7.449   7.285
 1768SOL    HW215304   6.336   7.494   7.395
 1769SOL     OW15305   7.580   4.214   2.788
 1769SOL    HW115306   7.627   4.216   2.877
 1769SOL    HW215307   7.482   4.223   2.801
 1770SOL     OW15308   5.965   3.054   3.691
 1770SOL    HW115309   6.009   3.036   3.779
 1770SOL    HW215310   5.872   3.018   3.692
 1771SOL     OW15311   0.147   3.716   7.228
 1771SOL    HW115312   0.112   3.795   7.279
 1771SOL    HW215313   0.176   3.745   7.136
 1772SOL     OW15314   0.480   7.547   6.736
 1772SOL    HW115315   0.478   7.447   6.730
 1772SOL    HW215316   0.390   7.585   6.714
 1773SOL     OW15317   7.690   0.056   0.880
 1773SOL    HW115318   7.774   0.102   0.848
 1773SOL    HW215319   7.709   0.007   0.965
 1774SOL     OW15320   5.694   4.724   1.495
 1774SOL    HW115321   5.790   4.714   1.521
 1774SOL    HW215322   5.645   4.639   1.513
 1775SOL     OW15323   0.531   3.782   5.763
 1775SOL    HW115324   0.448   3.739   5.801
 1775SOL    HW215325   0.563   3.854   5.824
 1776SOL     OW15326   4.333   1.124   6.003
 1776SOL    HW115327   4.374   1.036   6.029
 1776SOL    HW215328   4.366   1.152   5.913
 1777SOL     OW15329   4.506   2.270   2.489
 1777SOL    HW115330   4.428   2.329   2.510
 1777SOL    HW215331   4.579   2.283   2.557
 1778SOL     OW15332   7.425   7.712   7.813
 1778SOL    HW115333   7.499   7.659   7.772
 1778SOL    HW215334   7.404   7.677   7.904
 1779SOL     OW15335   1.632   1.258   3.330
 1779SOL    HW115336   1.707   1.314   3.366
 1779SOL    HW215337   1.571   1.315   3.274
 1780SOL     OW15338   7.267   1.373   1.081
 1780SOL    HW115339   7.195   1.332   1.137
 1780SOL    HW215340   7.226   1.426   1.007
 1781SOL     OW15341   3.856   0.071   1.933
 1781SOL    HW115342   3.823  -0.011   1.980
 1781SOL    HW215343   3.848   0.060   1.834
 1782SOL     OW15344   5.432   0.894   2.887
 1782SOL    HW115345   5.494   0.968   2.861
 1782SOL    HW215346   5.440   0.875   2.985
 1783SOL     OW15347   0.492   1.817   0.092
 1783SOL    HW115348   0.516   1.858   0.180
 1783SOL    HW215349   0.404   1.770   0.100
 1784SOL     OW15350   2.971   2.068   1.248
 1784SOL    HW115351   3.041   2.137   1.264
 1784SOL    HW215352   2.881   2.104   1.270
 1785SOL     OW15353   2.974   6.606   1.595
 1785SOL    HW115354   2.884   6.574   1.565
 1785SOL    HW215355   2.969   6.703   1.618
 1786SOL     OW15356   4.643   3.084   7.410
 1786SOL    HW115357   4.686   3.032   7.484
 1786SOL    HW215358   4.693   3.069   7.325
 1787SOL     OW15359   1.047   2.734   1.092
 1787SOL    HW115360   1.004   2.648   1.121
 1787SOL    HW215361   1.080   2.726   0.998
 1788SOL     OW15362   6.052   5.908   1.412
 1788SOL    HW115363   5.999   5.832   1.375
 1788SOL    HW215364   6.078   5.889   1.507
 1789SOL     OW15365   7.698   3.585   5.012
 1789SOL    HW115366   7.692   3.540   4.923
 1789SOL    HW215367   7.770   3.655   5.009
 1790SOL     OW15368   0.929   1.556   7.260
 1790SOL    HW115369   0.956   1.625   7.193
 1790SOL    HW215370   0.981   1.568   7.345
 1791SOL     OW15371   4.162   6.555   0.781
 1791SOL    HW115372   4.168   6.640   0.832
 1791SOL    HW215373   4.211   6.564   0.694
 1792SOL     OW15374   1.644   2.914   5.003
 1792SOL    HW115375   1.635   2.827   4.955
 1792SOL    HW215376   1.609   2.904   5.097
 1793SOL     OW15377   7.046   4.167   4.923
 1793SOL    HW115378   7.029   4.084   4.871
 1793SOL    HW215379   6.969   4.230   4.914
 1794SOL     OW15380   5.857   0.947   4.633
 1794SOL    HW115381   5.797   0.966   4.711
 1794SOL    HW215382   5.911   0.864   4.651
 1795SOL     OW15383   2.347   7.855   1.953
 1795SOL    HW115384   2.289   7.808   2.019
 1795SOL    HW215385   2.362   7.797   1.873
 1796SOL     OW15386   1.255   5.307   1.676
 1796SOL    HW115387   1.278   5.373   1.604
 1796SOL    HW215388   1.159   5.280   1.667
 1797SOL     OW15389   2.800   1.324   7.542
 1797SOL    HW115390   2.730   1.263   7.505
 1797SOL    HW215391   2.775   1.353   7.634
 1798SOL     OW15392   1.131   1.231   7.345
 1798SOL    HW115393   1.153   1.211   7.441
 1798SOL    HW215394   1.162   1.323   7.322
 1799SOL     OW15395   1.484   5.617   1.270
 1799SOL    HW115396   1.521   5.697   1.318
 1799SOL    HW215397   1.541   5.595   1.191
 1800SOL     OW15398   7.027   1.782   5.807
 1800SOL    HW115399   6.978   1.799   5.892
 1800SOL    HW215400   7.118   1.744   5.826
 1801SOL     OW15401   6.515   6.677   0.783
 1801SOL    HW115402   6.431   6.705   0.830
 1801SOL    HW215403   6.594   6.718   0.828
 1802SOL     OW15404   4.684   7.469   5.421
 1802SOL    HW115405   4.727   7.497   5.507
 1802SOL    HW215406   4.736   7.394   5.380
 1803SOL     OW15407   1.669   3.995   0.109
 1803SOL    HW115408   1.664   4.037   0.018
 1803SOL    HW215409   1.672   4.066   0.179
 1804SOL     OW15410   3.567   3.940   2.046
 1804SOL    HW115411   3.474   3.972   2.030
 1804SOL    HW215412   3.589   3.946   2.144
 1805SOL     OW15413   1.126   1.774   0.988
 1805SOL    HW115414   1.140   1.869   1.017
 1805SOL    HW215415   1.200   1.716   1.022
 1806SOL     OW15416   1.437   6.668   1.576
 1806SOL    HW115417   1.363   6.637   1.635
 1806SOL    HW215418   1.412   6.753   1.531
 1807SOL     OW15419   0.520   5.691   1.664
 1807SOL    HW115420   0.528   5.609   1.721
 1807SOL    HW215421   0.429   5.694   1.623
 1808SOL     OW15422   4.209   2.199   0.594
 1808SOL    HW115423   4.250   2.114   0.559
 1808SOL    HW215424   4.165   2.181   0.682
 1809SOL     OW15425   3.195   0.034   3.002
 1809SOL    HW115426   3.243   0.010   3.086
 1809SOL    HW215427   3.254   0.090   2.944
 1810SOL     OW15428   4.750   0.498   7.600
 1810SOL    HW115429   4.765   0.545   7.513
 1810SOL    HW215430   4.671   0.536   7.647
 1811SOL     OW15431   3.773   1.025   1.637
 1811SOL    HW115432   3.808   1.055   1.549
 1811SOL    HW215433   3.848   0.994   1.695
 1812SOL     OW15434   5.002   2.298   3.007
 1812SOL    HW115435   5.016   2.337   2.916
 1812SOL    HW215436   4.910   2.317   3.039
 1813SOL     OW15437   7.004   5.949   0.115
 1813SOL    HW115438   6.938   5.875   0.133
 1813SOL    HW215439   6.999   6.018   0.187
 1814SOL     OW15440   7.338   0.067   5.200
 1814SOL    HW115441   7.386   0.073   5.113
 1814SOL    HW215442   7.372  -0.011   5.253
 1815SOL     OW15443   0.833   7.460   2.381
 1815SOL    HW115444   0.785   7.374   2.363
 1815SOL    HW215445   0.780   7.537   2.344
 1816SOL     OW15446   7.154   1.860   4.429
 1816SOL    HW115447   7.073   1.882   4.374
 1816SOL    HW215448   7.143   1.894   4.522
 1817SOL     OW15449   6.183   7.246   7.561
 1817SOL    HW115450   6.121   7.170   7.539
 1817SOL    HW215451   6.275   7.225   7.527
 1818SOL     OW15452   5.829   6.363   4.662
 1818SOL    HW115453   5.863   6.284   4.611
 1818SOL    HW215454   5.866   6.361   4.755
 1819SOL     OW15455   0.042  -0.006   3.197
 1819SOL    HW115456  -0.041   0.051   3.198
 1819SOL    HW215457   0.080  -0.011   3.289
 1820SOL     OW15458   4.939   2.560   3.559
 1820SOL    HW115459   5.001   2.486   3.588
 1820SOL    HW215460   4.963   2.589   3.467
 1821SOL     OW15461   2.086   2.188   0.194
 1821SOL    HW115462   2.091   2.094   0.229
 1821SOL    HW215463   2.124   2.192   0.102
 1822SOL     OW15464   1.824   2.904   0.203
 1822SOL    HW115465   1.727   2.928   0.208
 1822SOL    HW215466   1.842   2.851   0.120
 1823SOL     OW15467   4.044   2.961   7.573
 1823SOL    HW115468   3.966   2.900   7.564
 1823SOL    HW215469   4.033   3.019   7.653
 1824SOL     OW15470   2.387   7.294   7.210
 1824SOL    HW115471   2.375   7.329   7.304
 1824SOL    HW215472   2.366   7.196   7.207
 1825SOL     OW15473   5.630   6.735   2.010
 1825SOL    HW115474   5.700   6.788   2.057
 1825SOL    HW215475   5.540   6.754   2.049
 1826SOL     OW15476   4.241   0.336   1.466
 1826SOL    HW115477   4.265   0.370   1.557
 1826SOL    HW215478   4.149   0.297   1.467
 1827SOL     OW15479   2.542   2.323   6.367
 1827SOL    HW115480   2.587   2.316   6.278
 1827SOL    HW215481   2.591   2.268   6.434
 1828SOL     OW15482   4.777   4.359   5.302
 1828SOL    HW115483   4.835   4.423   5.251
 1828SOL    HW215484   4.826   4.328   5.384
 1829SOL     OW15485   0.985   2.247   2.382
 1829SOL    HW115486   0.998   2.156   2.422
 1829SOL    HW215487   1.073   2.288   2.361
 1830SOL     OW15488   0.520   6.608   2.477
 1830SOL    HW115489   0.470   6.692   2.500
 1830SOL    HW215490   0.457   6.540   2.440
 1831SOL     OW15491   6.315   3.545   0.577
 1831SOL    HW115492   6.334   3.472   0.511
 1831SOL    HW215493   6.263   3.510   0.654
 1832SOL     OW15494   5.745   5.312   6.855
 1832SOL    HW115495   5.652   5.337   6.882
 1832SOL    HW215496   5.744   5.272   6.763
 1833SOL     OW15497   4.107   4.698   1.221
 1833SOL    HW115498   4.114   4.741   1.311
 1833SOL    HW215499   4.084   4.766   1.152
 1834SOL     OW15500   5.644   3.048   6.490
 1834SOL    HW115501   5.612   3.114   6.422
 1834SOL    HW215502   5.716   2.991   6.451
 1835SOL     OW15503   6.754   6.008   2.179
 1835SOL    HW115504   6.814   6.072   2.228
 1835SOL    HW215505   6.720   6.051   2.096
 1836SOL     OW15506   0.731   3.820   2.210
 1836SOL    HW115507   0.637   3.853   2.196
 1836SOL    HW215508   0.758   3.761   2.135
 1837SOL     OW15509   2.999   6.778   0.084
 1837SOL    HW115510   3.024   6.707   0.018
 1837SOL    HW215511   3.023   6.868   0.048
 1838SOL     OW15512   6.299   1.503   7.730
 1838SOL    HW115513   6.382   1.555   7.711
 1838SOL    HW215514   6.319   1.405   7.726
 1839SOL     OW15515   2.487   4.193   6.539
 1839SOL    HW115516   2.571   4.225   6.583
 1839SOL    HW215517   2.483   4.225   6.445
 1840SOL     OW15518   0.635   7.646   0.311
 1840SOL    HW115519   0.685   7.614   0.392
 1840SOL    HW215520   0.634   7.576   0.241
 1841SOL     OW15521   0.578   1.334   0.137
 1841SOL    HW115522   0.593   1.308   0.042
 1841SOL    HW215523   0.616   1.264   0.198
 1842SOL     OW15524   2.382   4.582   0.701
 1842SOL    HW115525   2.312   4.631   0.752
 1842SOL    HW215526   2.372   4.600   0.603
 1843SOL     OW15527   6.458   2.180   0.376
 1843SOL    HW115528   6.474   2.258   0.316
 1843SOL    HW215529   6.392   2.205   0.447
 1844SOL     OW15530   3.362   5.362   7.945
 1844SOL    HW115531   3.274   5.369   7.991
 1844SOL    HW215532   3.434   5.400   8.003
 1845SOL     OW15533   6.835   2.021   7.068
 1845SOL    HW115534   6.892   2.034   7.150
 1845SOL    HW215535   6.819   2.108   7.024
 1846SOL     OW15536   0.622   0.556   6.832
 1846SOL    HW115537   0.573   0.468   6.837
 1846SOL    HW215538   0.698   0.548   6.768
 1847SOL     OW15539   5.761   1.407   1.714
 1847SOL    HW115540   5.781   1.505   1.718
 1847SOL    HW215541   5.700   1.388   1.637
 1848SOL     OW15542   4.035   1.358   3.085
 1848SOL    HW115543   3.962   1.388   3.024
 1848SOL    HW215544   4.123   1.391   3.051
 1849SOL     OW15545   6.378   5.757   2.259
 1849SOL    HW115546   6.404   5.743   2.355
 1849SOL    HW215547   6.460   5.761   2.202
 1850SOL     OW15548   3.895   3.913   6.696
 1850SOL    HW115549   3.871   3.892   6.791
 1850SOL    HW215550   3.848   3.849   6.635
 1851SOL     OW15551   1.316   2.728   4.870
 1851SOL    HW115552   1.320   2.820   4.831
 1851SOL    HW215553   1.375   2.723   4.950
 1852SOL     OW15554   3.129   6.284   1.319
 1852SOL    HW115555   3.221   6.321   1.338
 1852SOL    HW215556   3.136   6.189   1.290
 1853SOL     OW15557   5.973   4.346   3.455
 1853SOL    HW115558   5.894   4.397   3.419
 1853SOL    HW215559   5.994   4.378   3.547
 1854SOL     OW15560   0.821   6.696   7.233
 1854SOL    HW115561   0.766   6.773   7.200
 1854SOL    HW215562   0.762   6.618   7.253
 1855SOL     OW15563   0.684   0.897   3.283
 1855SOL    HW115564   0.722   0.887   3.375
 1855SOL    HW215565   0.754   0.880   3.214
 1856SOL     OW15566   3.537   7.222   7.152
 1856SOL    HW115567   3.579   7.137   7.183
 1856SOL    HW215568   3.567   7.243   7.059
 1857SOL     OW15569   3.423   4.448   7.925
 1857SOL    HW115570   3.505   4.403   7.889
 1857SOL    HW215571   3.393   4.401   8.008
 1858SOL     OW15572   3.749   1.370   7.829
 1858SOL    HW115573   3.768   1.363   7.926
 1858SOL    HW215574   3.827   1.409   7.780
 1859SOL     OW15575   5.341   6.632   3.759
 1859SOL    HW115576   5.278   6.667   3.690
 1859SOL    HW215577   5.327   6.681   3.845
 1860SOL     OW15578   3.718   0.355   3.761
 1860SOL    HW115579   3.740   0.410   3.842
 1860SOL    HW215580   3.645   0.398   3.709
 1861SOL     OW15581   1.950   2.625   2.656
 1861SOL    HW115582   1.934   2.673   2.742
 1861SOL    HW215583   2.045   2.638   2.627
 1862SOL     OW15584   2.379   5.593   5.054
 1862SOL    HW115585   2.413   5.667   4.997
 1862SOL    HW215586   2.353   5.514   4.998
 1863SOL     OW15587   2.771   2.200   7.728
 1863SOL    HW115588   2.825   2.213   7.811
 1863SOL    HW215589   2.682   2.246   7.737
 1864SOL     OW15590   6.826   4.719   7.473
 1864SOL    HW115591   6.759   4.785   7.507
 1864SOL    HW215592   6.797   4.682   7.385
 1865SOL     OW15593   0.537   2.929   1.651
 1865SOL    HW115594   0.627   2.933   1.696
 1865SOL    HW215595   0.539   2.983   1.567
 1866SOL     OW15596   6.169   6.609   1.313
 1866SOL    HW115597   6.123   6.552   1.245
 1866SOL    HW215598   6.102   6.670   1.357
 1867SOL     OW15599   4.958   6.028   5.074
 1867SOL    HW115600   5.013   6.072   5.003
 1867SOL    HW215601   5.016   5.969   5.130
 1868SOL     OW15602   1.475   4.186   1.950
 1868SOL    HW115603   1.377   4.204   1.944
 1868SOL    HW215604   1.496   4.130   2.030
 1869SOL     OW15605   1.361   2.192   3.697
 1869SOL    HW115606   1.346   2.230   3.605
 1869SOL    HW215607   1.417   2.254   3.751
 1870SOL     OW15608   6.321   1.477   6.613
 1870SOL    HW115609   6.258   1.520   6.679
 1870SOL    HW215610   6.269   1.441   6.536
 1871SOL     OW15611   4.932   3.879   1.013
 1871SOL    HW115612   4.928   3.978   1.024
 1871SOL    HW215613   4.842   3.839   1.027
 1872SOL     OW15614   3.275   6.820   3.995
 1872SOL    HW115615   3.321   6.897   4.040
 1872SOL    HW215616   3.255   6.844   3.900
 1873SOL     OW15617   6.788   4.350   6.035
 1873SOL    HW115618   6.849   4.415   6.080
 1873SOL    HW215619   6.833   4.311   5.955
 1874SOL     OW15620   5.510   6.161   1.963
 1874SOL    HW115621   5.576   6.227   1.928
 1874SOL    HW215622   5.537   6.131   2.055
 1875SOL     OW15623   0.669   0.315   2.852
 1875SOL    HW115624   0.764   0.344   2.865
 1875SOL    HW215625   0.655   0.282   2.759
 1876SOL     OW15626   1.158   6.399   2.186
 1876SOL    HW115627   1.073   6.397   2.240
 1876SOL    HW215628   1.136   6.391   2.089
 1877SOL     OW15629   4.938   3.574   1.897
 1877SOL    HW115630   4.891   3.575   1.985
 1877SOL    HW215631   5.000   3.652   1.891
 1878SOL     OW15632   7.090   2.535   1.358
 1878SOL    HW115633   7.016   2.540   1.291
 1878SOL    HW215634   7.159   2.469   1.327
 1879SOL     OW15635   5.691   2.357   2.278
 1879SOL    HW115636   5.651   2.267   2.264
 1879SOL    HW215637   5.712   2.400   2.191
 1880SOL     OW15638   1.111   1.995   3.170
 1880SOL    HW115639   1.040   2.037   3.227
 1880SOL    HW215640   1.092   2.012   3.074
 1881SOL     OW15641   3.797   6.048   3.256
 1881SOL    HW115642   3.725   5.980   3.245
 1881SOL    HW215643   3.885   6.004   3.275
 1882SOL     OW15644   5.758   1.835   6.126
 1882SOL    HW115645   5.833   1.786   6.082
 1882SOL    HW215646   5.735   1.791   6.213
 1883SOL     OW15647   5.097   2.403   1.265
 1883SOL    HW115648   5.074   2.332   1.331
 1883SOL    HW215649   5.115   2.363   1.175
 1884SOL     OW15650   6.952   6.477   4.323
 1884SOL    HW115651   6.868   6.528   4.342
 1884SOL    HW215652   6.961   6.460   4.225
 1885SOL     OW15653   5.044   5.587   1.706
 1885SOL    HW115654   5.089   5.509   1.664
 1885SOL    HW215655   5.012   5.650   1.636
 1886SOL     OW15656   3.497   6.128   2.967
 1886SOL    HW115657   3.448   6.128   2.880
 1886SOL    HW215658   3.451   6.187   3.033
 1887SOL     OW15659   6.059   1.684   0.650
 1887SOL    HW115660   6.076   1.780   0.627
 1887SOL    HW215661   6.059   1.629   0.567
 1888SOL     OW15662   0.532   6.792   1.105
 1888SOL    HW115663   0.545   6.887   1.133
 1888SOL    HW215664   0.461   6.787   1.035
 1889SOL     OW15665   0.385   6.495   7.951
 1889SOL    HW115666   0.450   6.457   8.017
 1889SOL    HW215667   0.401   6.456   7.861
 1890SOL     OW15668   2.788   3.592   5.598
 1890SOL    HW115669   2.816   3.506   5.640
 1890SOL    HW215670   2.864   3.632   5.547
 1891SOL     OW15671   0.639   4.967   0.586
 1891SOL    HW115672   0.647   4.868   0.572
 1891SOL    HW215673   0.728   5.011   0.571
 1892SOL     OW15674   1.230   2.486   3.183
 1892SOL    HW115675   1.256   2.565   3.127
 1892SOL    HW215676   1.263   2.499   3.277
 1893SOL     OW15677   6.505   6.466   4.430
 1893SOL    HW115678   6.411   6.477   4.463
 1893SOL    HW215679   6.511   6.385   4.371
 1894SOL     OW15680   6.560   2.858   5.780
 1894SOL    HW115681   6.584   2.860   5.877
 1894SOL    HW215682   6.467   2.823   5.769
 1895SOL     OW15683   6.309   4.984   1.028
 1895SOL    HW115684   6.345   4.902   1.072
 1895SOL    HW215685   6.352   4.996   0.939
 1896SOL     OW15686   5.503   3.106   1.065
 1896SOL    HW115687   5.597   3.111   1.033
 1896SOL    HW215688   5.501   3.089   1.163
 1897SOL     OW15689  -0.046   4.662   1.491
 1897SOL    HW115690  -0.029   4.575   1.538
 1897SOL    HW215691  -0.007   4.658   1.398
 1898SOL     OW15692   4.623   7.690   7.178
 1898SOL    HW115693   4.534   7.734   7.192
 1898SOL    HW215694   4.627   7.647   7.088
 1899SOL     OW15695   1.188   7.332   0.435
 1899SOL    HW115696   1.116   7.286   0.487
 1899SOL    HW215697   1.185   7.303   0.340
 1900SOL     OW15698   7.284   0.329   1.416
 1900SOL    HW115699   7.380   0.335   1.445
 1900SOL    HW215700   7.276   0.359   1.321
 1901SOL     OW15701   4.778   5.565   6.335
 1901SOL    HW115702   4.761   5.642   6.273
 1901SOL    HW215703   4.738   5.481   6.298
 1902SOL     OW15704   4.477   3.373   3.279
 1902SOL    HW115705   4.427   3.288   3.296
 1902SOL    HW215706   4.537   3.363   3.200
 1903SOL     OW15707   5.349   0.270   5.752
 1903SOL    HW115708   5.315   0.176   5.752
 1903SOL    HW215709   5.296   0.326   5.815
 1904SOL     OW15710   6.094   1.224   4.361
 1904SOL    HW115711   6.065   1.154   4.295
 1904SOL    HW215712   6.093   1.187   4.453
 1905SOL     OW15713   2.570   2.251   5.199
 1905SOL    HW115714   2.581   2.333   5.144
 1905SOL    HW215715   2.555   2.171   5.140
 1906SOL     OW15716   7.263   5.122   2.187
 1906SOL    HW115717   7.179   5.120   2.241
 1906SOL    HW215718   7.244   5.089   2.094
 1907SOL     OW15719   3.337  -0.009   7.131
 1907SOL    HW115720   3.269  -0.011   7.203
 1907SOL    HW215721   3.429  -0.011   7.170
 1908SOL     OW15722   3.353   3.519   5.496
 1908SOL    HW115723   3.414   3.581   5.546
 1908SOL    HW215724   3.278   3.570   5.455
 1909SOL     OW15725   4.799   7.750   7.546
 1909SOL    HW115726   4.890   7.750   7.586
 1909SOL    HW215727   4.801   7.790   7.455
 1910SOL     OW15728   5.136   4.792   0.756
 1910SOL    HW115729   5.236   4.787   0.758
 1910SOL    HW215730   5.099   4.717   0.701
 1911SOL     OW15731   1.451   2.234   4.477
 1911SOL    HW115732   1.521   2.224   4.407
 1911SOL    HW215733   1.487   2.206   4.566
 1912SOL     OW15734   1.879   5.483   6.766
 1912SOL    HW115735   1.906   5.546   6.839
 1912SOL    HW215736   1.788   5.446   6.784
 1913SOL     OW15737   2.410   6.488   1.135
 1913SOL    HW115738   2.340   6.470   1.066
 1913SOL    HW215739   2.382   6.563   1.194
 1914SOL     OW15740   0.326   2.410   2.104
 1914SOL    HW115741   0.254   2.444   2.044
 1914SOL    HW215742   0.370   2.486   2.151
 1915SOL     OW15743   2.663   2.383   6.735
 1915SOL    HW115744   2.715   2.458   6.776
 1915SOL    HW215745   2.659   2.306   6.799
 1916SOL     OW15746   6.771   6.263   1.268
 1916SOL    HW115747   6.783   6.275   1.366
 1916SOL    HW215748   6.698   6.198   1.250
 1917SOL     OW15749   2.342   0.604   1.368
 1917SOL    HW115750   2.428   0.553   1.370
 1917SOL    HW215751   2.338   0.661   1.287
 1918SOL     OW15752   2.426   5.716   2.730
 1918SOL    HW115753   2.433   5.802   2.779
 1918SOL    HW215754   2.394   5.732   2.636
 1919SOL     OW15755   5.531   5.900   1.989
 1919SOL    HW115756   5.460   5.894   2.059
 1919SOL    HW215757   5.493   5.878   1.899
 1920SOL     OW15758   5.676   2.886   6.142
 1920SOL    HW115759   5.742   2.948   6.100
 1920SOL    HW215760   5.715   2.845   6.225
 1921SOL     OW15761   0.634   7.235   3.126
 1921SOL    HW115762   0.576   7.158   3.100
 1921SOL    HW215763   0.644   7.237   3.226
 1922SOL     OW15764   1.104   7.210   3.208
 1922SOL    HW115765   1.159   7.197   3.291
 1922SOL    HW215766   1.096   7.308   3.188
 1923SOL     OW15767   2.339   0.330   2.151
 1923SOL    HW115768   2.390   0.345   2.066
 1923SOL    HW215769   2.286   0.245   2.144
 1924SOL     OW15770   6.583   0.207   2.557
 1924SOL    HW115771   6.634   0.293   2.559
 1924SOL    HW215772   6.592   0.165   2.467
 1925SOL     OW15773   3.829   2.147   0.326
 1925SOL    HW115774   3.906   2.097   0.288
 1925SOL    HW215775   3.854   2.243   0.339
 1926SOL     OW15776   2.361   0.435   0.834
 1926SOL    HW115777   2.455   0.468   0.828
 1926SOL    HW215778   2.345   0.392   0.922
 1927SOL     OW15779   2.499   1.312   6.520
 1927SOL    HW115780   2.437   1.382   6.486
 1927SOL    HW215781   2.475   1.223   6.482
 1928SOL     OW15782   4.666   4.313   3.552
 1928SOL    HW115783   4.690   4.399   3.597
 1928SOL    HW215784   4.594   4.329   3.485
 1929SOL     OW15785   3.266   3.669   4.114
 1929SOL    HW115786   3.282   3.767   4.126
 1929SOL    HW215787   3.291   3.620   4.198
 1930SOL     OW15788   5.235   4.932   3.116
 1930SOL    HW115789   5.228   4.839   3.078
 1930SOL    HW215790   5.266   4.928   3.211
 1931SOL     OW15791   6.851   7.266   0.112
 1931SOL    HW115792   6.858   7.172   0.148
 1931SOL    HW215793   6.884   7.270   0.018
 1932SOL     OW15794   5.025   5.320   1.784
 1932SOL    HW115795   4.961   5.395   1.802
 1932SOL    HW215796   5.013   5.288   1.690
 1933SOL     OW15797   4.148   2.054   5.297
 1933SOL    HW115798   4.147   2.153   5.310
 1933SOL    HW215799   4.221   2.028   5.234
 1934SOL     OW15800   2.987   7.291   4.750
 1934SOL    HW115801   2.941   7.251   4.671
 1934SOL    HW215802   3.048   7.225   4.792
 1935SOL     OW15803   6.956   4.871   6.755
 1935SOL    HW115804   7.026   4.902   6.691
 1935SOL    HW215805   6.950   4.771   6.754
 1936SOL     OW15806   2.990   3.324   4.605
 1936SOL    HW115807   3.060   3.352   4.671
 1936SOL    HW215808   2.981   3.394   4.534
 1937SOL     OW15809   0.201   5.188   6.198
 1937SOL    HW115810   0.119   5.244   6.206
 1937SOL    HW215811   0.211   5.156   6.103
 1938SOL     OW15812   4.252   3.186   6.262
 1938SOL    HW115813   4.252   3.087   6.276
 1938SOL    HW215814   4.175   3.227   6.311
 1939SOL     OW15815   6.700   5.022   6.049
 1939SOL    HW115816   6.639   5.102   6.051
 1939SOL    HW215817   6.717   4.995   5.954
 1940SOL     OW15818   3.668   1.739   6.009
 1940SOL    HW115819   3.705   1.826   5.975
 1940SOL    HW215820   3.702   1.663   5.953
 1941SOL     OW15821   5.728   6.799   2.371
 1941SOL    HW115822   5.713   6.743   2.453
 1941SOL    HW215823   5.643   6.806   2.319
 1942SOL     OW15824   7.799   4.416   7.192
 1942SOL    HW115825   7.735   4.489   7.169
 1942SOL    HW215826   7.889   4.435   7.153
 1943SOL     OW15827   5.758   0.065   5.095
 1943SOL    HW115828   5.706   0.147   5.120
 1943SOL    HW215829   5.721   0.026   5.011
 1944SOL     OW15830   5.563   4.829   6.967
 1944SOL    HW115831   5.559   4.915   6.916
 1944SOL    HW215832   5.582   4.753   6.905
 1945SOL     OW15833   7.821   5.041   3.264
 1945SOL    HW115834   7.854   5.080   3.350
 1945SOL    HW215835   7.895   4.988   3.221
 1946SOL     OW15836   2.533   1.646   3.323
 1946SOL    HW115837   2.625   1.673   3.354
 1946SOL    HW215838   2.477   1.620   3.401
 1947SOL     OW15839   5.490   3.484   2.978
 1947SOL    HW115840   5.406   3.483   2.924
 1947SOL    HW215841   5.521   3.578   2.992
 1948SOL     OW15842   7.294   6.581   7.574
 1948SOL    HW115843   7.371   6.518   7.565
 1948SOL    HW215844   7.258   6.577   7.667
 1949SOL     OW15845   0.034   1.790   3.120
 1949SOL    HW115846  -0.045   1.826   3.169
 1949SOL    HW215847   0.008   1.765   3.027
 1950SOL     OW15848   3.457   2.426   6.804
 1950SOL    HW115849   3.532   2.381   6.853
 1950SOL    HW215850   3.469   2.415   6.705
 1951SOL     OW15851   3.048   7.123   3.854
 1951SOL    HW115852   3.129   7.128   3.913
 1951SOL    HW215853   2.982   7.058   3.893
 1952SOL     OW15854   7.635   5.305   4.764
 1952SOL    HW115855   7.698   5.278   4.837
 1952SOL    HW215856   7.572   5.374   4.798
 1953SOL     OW15857   3.262   3.690   6.895
 1953SOL    HW115858   3.288   3.755   6.967
 1953SOL    HW215859   3.210   3.737   6.824
 1954SOL     OW15860   0.950   1.314   7.444
 1954SOL    HW115861   0.904   1.375   7.508
 1954SOL    HW215862   0.945   1.351   7.351
 1955SOL     OW15863   2.945   0.725   7.781
 1955SOL    HW115864   2.969   0.638   7.738
 1955SOL    HW215865   2.878   0.710   7.853
 1956SOL     OW15866   4.532   1.286   6.213
 1956SOL    HW115867   4.444   1.274   6.258
 1956SOL    HW215868   4.519   1.314   6.118
 1957SOL     OW15869   5.643   7.885   3.135
 1957SOL    HW115870   5.737   7.919   3.134
 1957SOL    HW215871   5.622   7.844   3.224
 1958SOL     OW15872   0.331   1.864   2.044
 1958SOL    HW115873   0.332   1.910   2.132
 1958SOL    HW215874   0.325   1.931   1.970
 1959SOL     OW15875   0.230   1.251   3.802
 1959SOL    HW115876   0.224   1.349   3.822
 1959SOL    HW215877   0.139   1.210   3.803
 1960SOL     OW15878   6.506   0.460   3.218
 1960SOL    HW115879   6.494   0.558   3.199
 1960SOL    HW215880   6.494   0.408   3.134
 1961SOL     OW15881   0.503   5.337   4.226
 1961SOL    HW115882   0.407   5.312   4.214
 1961SOL    HW215883   0.562   5.266   4.187
 1962SOL     OW15884   4.653   5.351   0.820
 1962SOL    HW115885   4.632   5.323   0.913
 1962SOL    HW215886   4.569   5.374   0.771
 1963SOL     OW15887   6.526   5.232   2.560
 1963SOL    HW115888   6.472   5.307   2.598
 1963SOL    HW215889   6.477   5.191   2.483
 1964SOL     OW15890   7.159   6.689   3.106
 1964SOL    HW115891   7.233   6.684   3.039
 1964SOL    HW215892   7.175   6.624   3.180
 1965SOL     OW15893   0.842   1.911   4.814
 1965SOL    HW115894   0.884   1.823   4.837
 1965SOL    HW215895   0.769   1.933   4.878
 1966SOL     OW15896   0.593   2.683   2.247
 1966SOL    HW115897   0.677   2.702   2.298
 1966SOL    HW215898   0.607   2.704   2.150
 1967SOL     OW15899   6.547   7.597   6.704
 1967SOL    HW115900   6.511   7.512   6.743
 1967SOL    HW215901   6.519   7.606   6.609
 1968SOL     OW15902   0.298   3.990   3.027
 1968SOL    HW115903   0.212   4.038   3.013
 1968SOL    HW215904   0.372   4.056   3.040
 1969SOL     OW15905   4.243   4.224   4.967
 1969SOL    HW115906   4.333   4.218   5.012
 1969SOL    HW215907   4.197   4.308   4.993
 1970SOL     OW15908   4.047   5.994   6.152
 1970SOL    HW115909   4.094   6.039   6.076
 1970SOL    HW215910   4.112   5.938   6.204
 1971SOL     OW15911   3.657   3.136   0.993
 1971SOL    HW115912   3.691   3.214   0.940
 1971SOL    HW215913   3.607   3.073   0.934
 1972SOL     OW15914   5.376   5.876   3.148
 1972SOL    HW115915   5.346   5.876   3.243
 1972SOL    HW215916   5.441   5.950   3.132
 1973SOL     OW15917   5.451   4.852   4.021
 1973SOL    HW115918   5.451   4.906   4.105
 1973SOL    HW215919   5.445   4.913   3.941
 1974SOL     OW15920   1.871   4.163   4.939
 1974SOL    HW115921   1.878   4.077   4.888
 1974SOL    HW215922   1.938   4.163   5.014
 1975SOL     OW15923   7.076   2.547   4.950
 1975SOL    HW115924   7.064   2.456   4.909
 1975SOL    HW215925   7.033   2.550   5.040
 1976SOL     OW15926   6.256   6.895   3.374
 1976SOL    HW115927   6.202   6.940   3.302
 1976SOL    HW215928   6.337   6.853   3.334
 1977SOL     OW15929   2.988   1.770   6.067
 1977SOL    HW115930   2.950   1.841   6.007
 1977SOL    HW215931   3.087   1.782   6.074
 1978SOL     OW15932   2.202   4.802   0.667
 1978SOL    HW115933   2.279   4.813   0.603
 1978SOL    HW215934   2.122   4.767   0.618
 1979SOL     OW15935   3.529   4.421   5.861
 1979SOL    HW115936   3.471   4.493   5.823
 1979SOL    HW215937   3.601   4.397   5.795
 1980SOL     OW15938   3.069   2.280   1.463
 1980SOL    HW115939   3.152   2.325   1.429
 1980SOL    HW215940   3.057   2.301   1.560
 1981SOL     OW15941   7.139   0.552   6.779
 1981SOL    HW115942   7.047   0.555   6.740
 1981SOL    HW215943   7.137   0.581   6.875
 1982SOL     OW15944   0.364   3.323   0.092
 1982SOL    HW115945   0.294   3.332   0.162
 1982SOL    HW215946   0.356   3.397   0.025
 1983SOL     OW15947   3.240   3.319   4.425
 1983SOL    HW115948   3.223   3.338   4.522
 1983SOL    HW215949   3.203   3.393   4.369
 1984SOL     OW15950   5.018   1.338   7.598
 1984SOL    HW115951   5.033   1.284   7.515
 1984SOL    HW215952   5.029   1.435   7.578
 1985SOL     OW15953   2.353   3.781   3.107
 1985SOL    HW115954   2.445   3.767   3.069
 1985SOL    HW215955   2.357   3.781   3.207
 1986SOL     OW15956   1.517   7.972   2.265
 1986SOL    HW115957   1.514   7.895   2.200
 1986SOL    HW215958   1.612   7.989   2.293
 1987SOL     OW15959   0.387   3.111   0.211
 1987SOL    HW115960   0.429   3.023   0.187
 1987SOL    HW215961   0.380   3.119   0.311
 1988SOL     OW15962   5.590   4.411   2.417
 1988SOL    HW115963   5.599   4.319   2.377
 1988SOL    HW215964   5.642   4.477   2.363
 1989SOL     OW15965   7.524   5.521   5.052
 1989SOL    HW115966   7.433   5.530   5.012
 1989SOL    HW215967   7.520   5.543   5.150
 1990SOL     OW15968   2.697   1.852   5.785
 1990SOL    HW115969   2.660   1.924   5.727
 1990SOL    HW215970   2.700   1.883   5.880
 1991SOL     OW15971   4.250   6.389   1.976
 1991SOL    HW115972   4.341   6.347   1.973
 1991SOL    HW215973   4.224   6.407   2.071
 1992SOL     OW15974   5.453   7.301   3.600
 1992SOL    HW115975   5.439   7.249   3.516
 1992SOL    HW215976   5.445   7.399   3.582
 1993SOL     OW15977   0.109   7.392   4.573
 1993SOL    HW115978   0.205   7.401   4.597
 1993SOL    HW215979   0.099   7.335   4.491
 1994SOL     OW15980   3.343   4.798   7.481
 1994SOL    HW115981   3.439   4.815   7.504
 1994SOL    HW215982   3.319   4.850   7.399
 1995SOL     OW15983   2.465   3.267   7.890
 1995SOL    HW115984   2.442   3.344   7.950
 1995SOL    HW215985   2.557   3.235   7.909
 1996SOL     OW15986   7.826   1.066   6.238
 1996SOL    HW115987   7.819   0.967   6.251
 1996SOL    HW215988   7.769   1.095   6.162
 1997SOL     OW15989   2.833   0.225   2.315
 1997SOL    HW115990   2.888   0.284   2.256
 1997SOL    HW215991   2.891   0.186   2.387
 1998SOL     OW15992   4.099   2.849   6.147
 1998SOL    HW115993   4.050   2.864   6.061
 1998SOL    HW215994   4.109   2.936   6.195
 1999SOL     OW15995   4.578   2.469   2.428
 1999SOL    HW115996   4.660   2.466   2.371
 1999SOL    HW215997   4.498   2.485   2.371
 2000SOL     OW15998   3.487   5.177   1.094
 2000SOL    HW115999   3.410   5.145   1.151
 2000SOL    HW216000   3.573   5.161   1.142
 2001SOL     OW16001   3.579   0.896   7.736
 2001SOL    HW116002   3.663   0.846   7.753
 2001SOL    HW216003   3.523   0.848   7.669
 2002SOL     OW16004   4.379   7.591   0.104
 2002SOL    HW116005   4.351   7.495   0.108
 2002SOL    HW216006   4.479   7.597   0.108
 2003SOL     OW16007   4.669   2.223   5.185
 2003SOL    HW116008   4.645   2.314   5.151
 2003SOL    HW216009   4.717   2.231   5.272
 2004SOL     OW16010   3.008   5.073   7.365
 2004SOL    HW116011   2.929   5.129   7.393
 2004SOL    HW216012   2.987   5.025   7.280
 2005SOL     OW16013   3.026   0.763   0.554
 2005SOL    HW116014   2.939   0.781   0.599
 2005SOL    HW216015   3.012   0.738   0.458
 2006SOL     OW16016   5.042   6.653   3.968
 2006SOL    HW116017   5.060   6.664   4.066
 2006SOL    HW216018   4.944   6.645   3.951
 2007SOL     OW16019   5.121   6.875   1.841
 2007SOL    HW116020   5.195   6.930   1.881
 2007SOL    HW216021   5.099   6.909   1.749
 2008SOL     OW16022   1.151   5.186   6.673
 2008SOL    HW116023   1.165   5.096   6.714
 2008SOL    HW216024   1.106   5.247   6.739
 2009SOL     OW16025   3.060   6.809   6.682
 2009SOL    HW116026   3.107   6.722   6.667
 2009SOL    HW216027   3.077   6.841   6.775
 2010SOL     OW16028   7.124   0.931   5.228
 2010SOL    HW116029   7.115   1.022   5.270
 2010SOL    HW216030   7.080   0.930   5.139
 2011SOL     OW16031   3.522   6.148   0.641
 2011SOL    HW116032   3.548   6.229   0.692
 2011SOL    HW216033   3.439   6.166   0.588
 2012SOL     OW16034   0.926   7.149   7.627
 2012SOL    HW116035   0.905   7.078   7.694
 2012SOL    HW216036   0.934   7.110   7.536
 2013SOL     OW16037   1.167   7.674   2.190
 2013SOL    HW116038   1.252   7.711   2.227
 2013SOL    HW216039   1.122   7.742   2.133
 2014SOL     OW16040   1.697   2.003   2.917
 2014SOL    HW116041   1.750   2.007   2.832
 2014SOL    HW216042   1.727   1.926   2.973
 2015SOL     OW16043   1.686   7.537   7.146
 2015SOL    HW116044   1.732   7.532   7.234
 2015SOL    HW216045   1.705   7.454   7.092
 2016SOL     OW16046   2.449   6.862   3.712
 2016SOL    HW116047   2.438   6.798   3.788
 2016SOL    HW216048   2.416   6.820   3.628
 2017SOL     OW16049   1.880   2.418   3.541
 2017SOL    HW116050   1.809   2.347   3.533
 2017SOL    HW216051   1.837   2.506   3.558
 2018SOL     OW16052   0.337   4.241   7.809
 2018SOL    HW116053   0.408   4.225   7.878
 2018SOL    HW216054   0.247   4.234   7.850
 2019SOL     OW16055   4.017   4.353   1.904
 2019SOL    HW116056   4.076   4.274   1.918
 2019SOL    HW216057   4.017   4.411   1.985
 2020SOL     OW16058   6.138   3.935   6.260
 2020SOL    HW116059   6.166   4.031   6.265
 2020SOL    HW216060   6.192   3.880   6.324
 2021SOL     OW16061   6.581   7.092   0.110
 2021SOL    HW116062   6.571   6.999   0.076
 2021SOL    HW216063   6.544   7.099   0.202
 2022SOL     OW16064   0.454   0.717   7.641
 2022SOL    HW116065   0.445   0.621   7.667
 2022SOL    HW216066   0.516   0.726   7.563
 2023SOL     OW16067   6.052   3.441   1.944
 2023SOL    HW116068   6.117   3.512   1.972
 2023SOL    HW216069   6.023   3.456   1.850
 2024SOL     OW16070   7.647   0.761   2.115
 2024SOL    HW116071   7.585   0.698   2.161
 2024SOL    HW216072   7.664   0.730   2.021
 2025SOL     OW16073   0.291   7.420   6.401
 2025SOL    HW116074   0.302   7.468   6.488
 2025SOL    HW216075   0.357   7.456   6.335
 2026SOL     OW16076   3.292   5.600   0.396
 2026SOL    HW116077   3.355   5.676   0.411
 2026SOL    HW216078   3.328   5.517   0.440
 2027SOL     OW16079   7.678   4.476   5.841
 2027SOL    HW116080   7.653   4.529   5.759
 2027SOL    HW216081   7.631   4.513   5.921
 2028SOL     OW16082   7.777   5.477   1.452
 2028SOL    HW116083   7.762   5.378   1.455
 2028SOL    HW216084   7.807   5.511   1.541
 2029SOL     OW16085   7.942   3.009   5.509
 2029SOL    HW116086   7.955   3.108   5.513
 2029SOL    HW216087   7.883   2.979   5.584
 2030SOL     OW16088   6.299   6.713   7.924
 2030SOL    HW116089   6.250   6.761   7.996
 2030SOL    HW216090   6.240   6.699   7.845
 2031SOL     OW16091   1.566   1.432   6.751
 2031SOL    HW116092   1.630   1.412   6.826
 2031SOL    HW216093   1.617   1.445   6.666
 2032SOL     OW16094   1.788   0.135   3.050
 2032SOL    HW116095   1.719   0.193   3.094
 2032SOL    HW216096   1.778   0.140   2.950
 2033SOL     OW16097   1.653   3.364   7.824
 2033SOL    HW116098   1.573   3.315   7.859
 2033SOL    HW216099   1.668   3.342   7.728
 2034SOL     OW16100   6.720   3.872   5.866
 2034SOL    HW116101   6.761   3.959   5.838
 2034SOL    HW216102   6.737   3.856   5.963
 2035SOL     OW16103   6.064   6.598   5.686
 2035SOL    HW116104   6.008   6.528   5.732
 2035SOL    HW216105   6.161   6.576   5.696
 2036SOL     OW16106   0.159   4.146   3.813
 2036SOL    HW116107   0.084   4.166   3.750
 2036SOL    HW216108   0.155   4.208   3.891
 2037SOL     OW16109   4.191   1.800   5.463
 2037SOL    HW116110   4.125   1.739   5.419
 2037SOL    HW216111   4.257   1.834   5.396
 2038SOL     OW16112   5.916   6.753   0.036
 2038SOL    HW116113   5.845   6.685   0.018
 2038SOL    HW216114   5.907   6.788   0.130
 2039SOL     OW16115   6.517   3.144   2.262
 2039SOL    HW116116   6.435   3.089   2.248
 2039SOL    HW216117   6.500   3.239   2.237
 2040SOL     OW16118  -0.041   2.066   4.417
 2040SOL    HW116119   0.045   2.015   4.427
 2040SOL    HW216120  -0.045   2.110   4.327
 2041SOL     OW16121   6.062   5.576   5.806
 2041SOL    HW116122   5.966   5.563   5.779
 2041SOL    HW216123   6.066   5.607   5.901
 2042SOL     OW16124   6.992   6.914   1.078
 2042SOL    HW116125   6.902   6.928   1.120
 2042SOL    HW216126   6.982   6.873   0.988
 2043SOL     OW16127   2.759   0.756   1.318
 2043SOL    HW116128   2.758   0.850   1.352
 2043SOL    HW216129   2.716   0.752   1.228
 2044SOL     OW16130   7.761   1.101   5.783
 2044SOL    HW116131   7.790   1.018   5.734
 2044SOL    HW216132   7.721   1.076   5.871
 2045SOL     OW16133   1.550   5.128   7.931
 2045SOL    HW116134   1.641   5.086   7.919
 2045SOL    HW216135   1.559   5.226   7.943
 2046SOL     OW16136   0.437   4.901   3.156
 2046SOL    HW116137   0.508   4.920   3.087
 2046SOL    HW216138   0.377   4.980   3.164
 2047SOL     OW16139   3.468   2.487   2.343
 2047SOL    HW116140   3.508   2.528   2.426
 2047SOL    HW216141   3.462   2.556   2.271
 2048SOL     OW16142   2.549   0.094   0.678
 2048SOL    HW116143   2.568   0.037   0.757
 2048SOL    HW216144   2.634   0.136   0.645
 2049SOL     OW16145   7.592   2.298   8.019
 2049SOL    HW116146   7.555   2.244   7.943
 2049SOL    HW216147   7.622   2.387   7.985
 2050SOL     OW16148   5.841   6.850   0.374
 2050SOL    HW116149   5.843   6.914   0.297
 2050SOL    HW216150   5.882   6.763   0.347
 2051SOL     OW16151   7.472   5.066   0.930
 2051SOL    HW116152   7.420   5.152   0.925
 2051SOL    HW216153   7.442   5.012   1.008
 2052SOL     OW16154   0.033   6.975   2.995
 2052SOL    HW116155   0.000   7.059   3.038
 2052SOL    HW216156  -0.045   6.920   2.964
 2053SOL     OW16157   7.020   0.181   6.467
 2053SOL    HW116158   7.096   0.244   6.456
 2053SOL    HW216159   7.021   0.141   6.559
 2054SOL     OW16160   0.549   6.493   2.712
 2054SOL    HW116161   0.647   6.501   2.700
 2054SOL    HW216162   0.505   6.581   2.695
 2055SOL     OW16163   5.719   4.936   7.169
 2055SOL    HW116164   5.661   5.015   7.147
 2055SOL    HW216165   5.741   4.887   7.085
 2056SOL     OW16166   0.786   3.323   2.666
 2056SOL    HW116167   0.856   3.376   2.715
 2056SOL    HW216168   0.794   3.338   2.568
 2057SOL     OW16169   7.207   7.479   1.829
 2057SOL    HW116170   7.276   7.548   1.852
 2057SOL    HW216171   7.251   7.391   1.811
 2058SOL     OW16172   0.547   4.090   2.021
 2058SOL    HW116173   0.618   4.157   2.044
 2058SOL    HW216174   0.525   4.097   1.924
 2059SOL     OW16175   4.780   4.989   5.269
 2059SOL    HW116176   4.800   5.077   5.312
 2059SOL    HW216177   4.738   5.003   5.180
 2060SOL     OW16178   5.141   5.538   7.791
 2060SOL    HW116179   5.219   5.597   7.770
 2060SOL    HW216180   5.098   5.566   7.876
 2061SOL     OW16181   7.817   0.142   4.879
 2061SOL    HW116182   7.729   0.108   4.846
 2061SOL    HW216183   7.865   0.189   4.805
 2062SOL     OW16184   5.985   5.922   5.171
 2062SOL    HW116185   6.032   5.886   5.090
 2062SOL    HW216186   5.932   5.850   5.214
 2063SOL     OW16187   1.255   3.011   3.633
 2063SOL    HW116188   1.224   2.934   3.577
 2063SOL    HW216189   1.333   3.057   3.589
 2064SOL     OW16190   4.753   5.564   3.413
 2064SOL    HW116191   4.796   5.481   3.449
 2064SOL    HW216192   4.685   5.541   3.344
 2065SOL     OW16193   3.269   5.813   4.527
 2065SOL    HW116194   3.323   5.744   4.577
 2065SOL    HW216195   3.173   5.786   4.526
 2066SOL     OW16196   3.017   6.204   6.808
 2066SOL    HW116197   3.062   6.163   6.729
 2066SOL    HW216198   2.985   6.296   6.786
 2067SOL     OW16199   7.845   2.613   3.115
 2067SOL    HW116200   7.754   2.577   3.137
 2067SOL    HW216201   7.844   2.656   3.025
 2068SOL     OW16202   7.462   4.624   6.825
 2068SOL    HW116203   7.419   4.554   6.883
 2068SOL    HW216204   7.472   4.709   6.877
 2069SOL     OW16205   2.309   6.175   0.321
 2069SOL    HW116206   2.329   6.196   0.225
 2069SOL    HW216207   2.212   6.190   0.340
 2070SOL     OW16208   0.874   2.508   2.519
 2070SOL    HW116209   0.888   2.429   2.459
 2070SOL    HW216210   0.869   2.591   2.464
 2071SOL     OW16211   3.133   6.802   4.735
 2071SOL    HW116212   3.077   6.847   4.666
 2071SOL    HW216213   3.222   6.777   4.696
 2072SOL     OW16214   0.727   2.560   7.623
 2072SOL    HW116215   0.694   2.625   7.555
 2072SOL    HW216216   0.808   2.597   7.668
 2073SOL     OW16217   1.718   4.314   5.493
 2073SOL    HW116218   1.760   4.255   5.562
 2073SOL    HW216219   1.764   4.302   5.405
 2074SOL     OW16220   2.439   5.837   2.419
 2074SOL    HW116221   2.352   5.883   2.398
 2074SOL    HW216222   2.462   5.773   2.346
 2075SOL     OW16223   7.678   1.987   0.920
 2075SOL    HW116224   7.668   2.057   0.991
 2075SOL    HW216225   7.775   1.972   0.900
 2076SOL     OW16226   2.608   6.886   0.784
 2076SOL    HW116227   2.583   6.855   0.692
 2076SOL    HW216228   2.549   6.842   0.852
 2077SOL     OW16229   6.400   4.476   1.546
 2077SOL    HW116230   6.411   4.538   1.624
 2077SOL    HW216231   6.331   4.407   1.567
 2078SOL     OW16232   0.159   2.788   0.532
 2078SOL    HW116233   0.099   2.794   0.452
 2078SOL    HW216234   0.253   2.772   0.503
 2079SOL     OW16235   6.766   6.301   3.312
 2079SOL    HW116236   6.794   6.284   3.406
 2079SOL    HW216237   6.838   6.351   3.263
 2080SOL     OW16238   2.001   1.451   6.929
 2080SOL    HW116239   2.005   1.465   7.028
 2080SOL    HW216240   1.911   1.415   6.903
 2081SOL     OW16241   1.680   3.577   0.978
 2081SOL    HW116242   1.730   3.499   1.016
 2081SOL    HW216243   1.712   3.597   0.886
 2082SOL     OW16244   5.364   3.877   5.522
 2082SOL    HW116245   5.283   3.832   5.561
 2082SOL    HW216246   5.336   3.943   5.452
 2083SOL     OW16247   2.013   7.361   7.049
 2083SOL    HW116248   2.003   7.460   7.047
 2083SOL    HW216249   1.979   7.321   6.964
 2084SOL     OW16250   7.827   7.852   1.684
 2084SOL    HW116251   7.765   7.781   1.719
 2084SOL    HW216252   7.794   7.888   1.598
 2085SOL     OW16253   4.702   6.165   5.241
 2085SOL    HW116254   4.702   6.203   5.334
 2085SOL    HW216255   4.630   6.208   5.186
 2086SOL     OW16256   7.543   6.931   7.199
 2086SOL    HW116257   7.570   7.025   7.221
 2086SOL    HW216258   7.597   6.867   7.253
 2087SOL     OW16259   4.126   4.564   3.277
 2087SOL    HW116260   4.039   4.528   3.311
 2087SOL    HW216261   4.148   4.522   3.189
 2088SOL     OW16262   4.468   5.690   6.724
 2088SOL    HW116263   4.396   5.633   6.686
 2088SOL    HW216264   4.458   5.698   6.823
 2089SOL     OW16265   7.482   7.101   3.836
 2089SOL    HW116266   7.412   7.081   3.767
 2089SOL    HW216267   7.505   7.018   3.886
 2090SOL     OW16268   4.467   0.829   5.149
 2090SOL    HW116269   4.427   0.866   5.233
 2090SOL    HW216270   4.419   0.865   5.069
 2091SOL     OW16271   3.444   2.583   5.382
 2091SOL    HW116272   3.518   2.620   5.326
 2091SOL    HW216273   3.475   2.503   5.432
 2092SOL     OW16274   5.112   6.270   1.242
 2092SOL    HW116275   5.210   6.273   1.221
 2092SOL    HW216276   5.089   6.337   1.312
 2093SOL     OW16277   4.940   2.646   7.774
 2093SOL    HW116278   4.925   2.744   7.765
 2093SOL    HW216279   5.019   2.618   7.719
 2094SOL     OW16280   2.673   7.124   3.921
 2094SOL    HW116281   2.602   7.190   3.893
 2094SOL    HW216282   2.677   7.118   4.021
 2095SOL     OW16283   4.798   5.148   3.071
 2095SOL    HW116284   4.821   5.057   3.036
 2095SOL    HW216285   4.743   5.140   3.154
 2096SOL     OW16286   6.937   5.590   4.179
 2096SOL    HW116287   6.862   5.545   4.228
 2096SOL    HW216288   6.993   5.642   4.243
 2097SOL     OW16289   5.489   7.362   2.396
 2097SOL    HW116290   5.394   7.336   2.411
 2097SOL    HW216291   5.494   7.443   2.337
 2098SOL     OW16292   0.870   3.240   4.830
 2098SOL    HW116293   0.820   3.228   4.744
 2098SOL    HW216294   0.961   3.197   4.823
 2099SOL     OW16295   5.251   3.017   6.055
 2099SOL    HW116296   5.306   3.096   6.085
 2099SOL    HW216297   5.188   2.990   6.128
 2100SOL     OW16298   0.783   2.805   6.193
 2100SOL    HW116299   0.686   2.827   6.180
 2100SOL    HW216300   0.794   2.706   6.203
 2101SOL     OW16301   6.194   2.593   3.977
 2101SOL    HW116302   6.177   2.516   3.915
 2101SOL    HW216303   6.114   2.653   3.979
 2102SOL     OW16304   0.920   3.162   1.916
 2102SOL    HW116305   0.883   3.092   1.979
 2102SOL    HW216306   0.939   3.246   1.967
 2103SOL     OW16307   1.362   1.088   2.271
 2103SOL    HW116308   1.439   1.128   2.220
 2103SOL    HW216309   1.393   1.056   2.360
 2104SOL     OW16310   6.045   6.405   3.768
 2104SOL    HW116311   6.050   6.497   3.729
 2104SOL    HW216312   6.079   6.406   3.862
 2105SOL     OW16313   3.418   3.558   7.690
 2105SOL    HW116314   3.467   3.579   7.774
 2105SOL    HW216315   3.343   3.493   7.708
 2106SOL     OW16316   7.054   2.678   6.474
 2106SOL    HW116317   7.121   2.604   6.481
 2106SOL    HW216318   7.004   2.671   6.388
 2107SOL     OW16319   5.275   5.953   5.231
 2107SOL    HW116320   5.329   5.982   5.152
 2107SOL    HW216321   5.208   5.884   5.203
 2108SOL     OW16322   3.876   5.889   0.905
 2108SOL    HW116323   3.800   5.945   0.940
 2108SOL    HW216324   3.880   5.895   0.805
 2109SOL     OW16325   3.973   1.768   3.081
 2109SOL    HW116326   3.915   1.745   3.160
 2109SOL    HW216327   3.953   1.706   3.005
 2110SOL     OW16328   3.834   5.000   2.304
 2110SOL    HW116329   3.823   5.097   2.328
 2110SOL    HW216330   3.919   4.987   2.254
 2111SOL     OW16331   4.876   5.554   4.942
 2111SOL    HW116332   4.893   5.633   4.883
 2111SOL    HW216333   4.780   5.526   4.935
 2112SOL     OW16334   3.309   5.466   4.268
 2112SOL    HW116335   3.304   5.382   4.324
 2112SOL    HW216336   3.246   5.459   4.191
 2113SOL     OW16337   7.373   2.966   7.570
 2113SOL    HW116338   7.278   2.936   7.582
 2113SOL    HW216339   7.420   2.903   7.509
 2114SOL     OW16340   2.513   4.349   1.720
 2114SOL    HW116341   2.569   4.402   1.656
 2114SOL    HW216342   2.425   4.327   1.678
 2115SOL     OW16343   0.058   4.158   6.386
 2115SOL    HW116344   0.149   4.198   6.397
 2115SOL    HW216345  -0.012   4.230   6.391
 2116SOL     OW16346   2.859   3.023   1.999
 2116SOL    HW116347   2.829   3.118   2.006
 2116SOL    HW216348   2.863   2.982   2.091
 2117SOL     OW16349   7.071   4.803   2.831
 2117SOL    HW116350   6.991   4.746   2.844
 2117SOL    HW216351   7.082   4.865   2.908
 2118SOL     OW16352   6.965   2.647   7.926
 2118SOL    HW116353   6.983   2.549   7.926
 2118SOL    HW216354   6.893   2.669   7.992
 2119SOL     OW16355   3.923   4.967   1.743
 2119SOL    HW116356   3.856   4.940   1.813
 2119SOL    HW216357   3.923   4.900   1.669
 2120SOL     OW16358   2.458   0.113   2.041
 2120SOL    HW116359   2.524   0.105   2.116
 2120SOL    HW216360   2.404   0.029   2.033
 2121SOL     OW16361   1.579   6.139   4.875
 2121SOL    HW116362   1.534   6.228   4.885
 2121SOL    HW216363   1.559   6.100   4.786
 2122SOL     OW16364   7.660   3.180   4.325
 2122SOL    HW116365   7.712   3.238   4.388
 2122SOL    HW216366   7.579   3.229   4.293
 2123SOL     OW16367   7.386   3.351   0.358
 2123SOL    HW116368   7.472   3.300   0.358
 2123SOL    HW216369   7.369   3.388   0.449
 2124SOL     OW16370   0.372   3.672   7.261
 2124SOL    HW116371   0.351   3.591   7.317
 2124SOL    HW216372   0.371   3.648   7.164
 2125SOL     OW16373   4.891   0.532   6.497
 2125SOL    HW116374   4.909   0.611   6.438
 2125SOL    HW216375   4.920   0.552   6.590
 2126SOL     OW16376   5.996   4.587   7.514
 2126SOL    HW116377   6.095   4.598   7.522
 2126SOL    HW216378   5.964   4.518   7.578
 2127SOL     OW16379   3.268   1.103   3.111
 2127SOL    HW116380   3.300   1.110   3.206
 2127SOL    HW216381   3.171   1.126   3.106
 2128SOL     OW16382   0.533   0.697   5.612
 2128SOL    HW116383   0.619   0.667   5.570
 2128SOL    HW216384   0.525   0.658   5.704
 2129SOL     OW16385   4.061   4.319   0.649
 2129SOL    HW116386   4.106   4.332   0.737
 2129SOL    HW216387   4.107   4.247   0.597
 2130SOL     OW16388   2.344   3.680   7.435
 2130SOL    HW116389   2.426   3.627   7.415
 2130SOL    HW216390   2.262   3.624   7.423
 2131SOL     OW16391   0.793   5.009   4.617
 2131SOL    HW116392   0.846   4.925   4.629
 2131SOL    HW216393   0.816   5.074   4.690
 2132SOL     OW16394   2.934   3.222   6.265
 2132SOL    HW116395   2.999   3.248   6.337
 2132SOL    HW216396   2.909   3.126   6.276
 2133SOL     OW16397   3.058   3.825   3.339
 2133SOL    HW116398   3.055   3.925   3.345
 2133SOL    HW216399   3.042   3.785   3.429
 2134SOL     OW16400   4.867   1.186   5.824
 2134SOL    HW116401   4.837   1.091   5.815
 2134SOL    HW216402   4.822   1.228   5.903
 2135SOL     OW16403   0.900   5.781   1.412
 2135SOL    HW116404   0.831   5.814   1.347
 2135SOL    HW216405   0.866   5.790   1.505
 2136SOL     OW16406   0.971   6.857   5.672
 2136SOL    HW116407   0.932   6.891   5.586
 2136SOL    HW216408   0.928   6.902   5.750
 2137SOL     OW16409   2.403   3.644   1.673
 2137SOL    HW116410   2.378   3.653   1.770
 2137SOL    HW216411   2.415   3.548   1.649
 2138SOL     OW16412   3.121   5.102   4.059
 2138SOL    HW116413   3.195   5.077   3.996
 2138SOL    HW216414   3.160   5.150   4.138
 2139SOL     OW16415   6.984   7.019   6.138
 2139SOL    HW116416   6.983   7.104   6.191
 2139SOL    HW216417   7.076   7.003   6.102
 2140SOL     OW16418   0.613   1.158   6.322
 2140SOL    HW116419   0.573   1.178   6.412
 2140SOL    HW216420   0.592   1.232   6.258
 2141SOL     OW16421   4.688   1.886   1.911
 2141SOL    HW116422   4.644   1.970   1.943
 2141SOL    HW216423   4.740   1.844   1.985
 2142SOL     OW16424   1.098   4.590   6.385
 2142SOL    HW116425   1.150   4.673   6.407
 2142SOL    HW216426   1.000   4.612   6.383
 2143SOL     OW16427   6.430   0.094   1.150
 2143SOL    HW116428   6.340   0.049   1.143
 2143SOL    HW216429   6.420   0.184   1.191
 2144SOL     OW16430   3.247   7.955   4.936
 2144SOL    HW116431   3.340   7.969   4.972
 2144SOL    HW216432   3.242   7.989   4.842
 2145SOL     OW16433   4.139   1.171   2.735
 2145SOL    HW116434   4.147   1.110   2.655
 2145SOL    HW216435   4.191   1.134   2.811
 2146SOL     OW16436   2.351   1.275   6.195
 2146SOL    HW116437   2.439   1.306   6.159
 2146SOL    HW216438   2.362   1.239   6.287
 2147SOL     OW16439   3.005   0.320   0.970
 2147SOL    HW116440   2.969   0.411   0.949
 2147SOL    HW216441   2.975   0.292   1.062
 2148SOL     OW16442   0.371   7.343   4.133
 2148SOL    HW116443   0.350   7.263   4.077
 2148SOL    HW216444   0.315   7.342   4.216
 2149SOL     OW16445   7.011   4.130   0.653
 2149SOL    HW116446   7.081   4.180   0.601
 2149SOL    HW216447   6.921   4.147   0.614
 2150SOL     OW16448   2.502   4.984   5.824
 2150SOL    HW116449   2.547   5.017   5.907
 2150SOL    HW216450   2.483   5.061   5.762
 2151SOL     OW16451   7.617   2.353   7.642
 2151SOL    HW116452   7.701   2.354   7.587
 2151SOL    HW216453   7.634   2.307   7.729
 2152SOL     OW16454   3.275   5.017   5.411
 2152SOL    HW116455   3.294   5.091   5.345
 2152SOL    HW216456   3.334   5.027   5.491
 2153SOL     OW16457   1.244   6.935   2.581
 2153SOL    HW116458   1.274   6.865   2.645
 2153SOL    HW216459   1.180   6.998   2.626
 2154SOL     OW16460   5.338   7.316   0.664
 2154SOL    HW116461   5.354   7.220   0.686
 2154SOL    HW216462   5.378   7.338   0.575
 2155SOL     OW16463   2.196   5.591   6.714
 2155SOL    HW116464   2.196   5.541   6.627
 2155SOL    HW216465   2.107   5.584   6.759
 2156SOL     OW16466   5.293   0.492   4.816
 2156SOL    HW116467   5.342   0.556   4.876
 2156SOL    HW216468   5.208   0.463   4.860
 2157SOL     OW16469   7.401   6.407   5.395
 2157SOL    HW116470   7.427   6.491   5.443
 2157SOL    HW216471   7.326   6.425   5.331
 2158SOL     OW16472   2.223   6.093   7.907
 2158SOL    HW116473   2.294   6.122   7.842
 2158SOL    HW216474   2.261   6.084   7.998
 2159SOL     OW16475   5.914   4.462   4.716
 2159SOL    HW116476   5.918   4.364   4.693
 2159SOL    HW216477   5.898   4.515   4.633
 2160SOL     OW16478   0.944   6.779   4.829
 2160SOL    HW116479   1.044   6.784   4.834
 2160SOL    HW216480   0.910   6.847   4.765
 2161SOL     OW16481   0.726   6.203   5.134
 2161SOL    HW116482   0.732   6.148   5.217
 2161SOL    HW216483   0.631   6.211   5.105
 2162SOL     OW16484   7.256   0.017   1.720
 2162SOL    HW116485   7.180   0.064   1.675
 2162SOL    HW216486   7.261   0.046   1.816
 2163SOL     OW16487   5.040   6.225   0.849
 2163SOL    HW116488   5.078   6.243   0.940
 2163SOL    HW216489   5.111   6.192   0.787
 2164SOL     OW16490   2.652   4.518   5.033
 2164SOL    HW116491   2.640   4.533   5.131
 2164SOL    HW216492   2.691   4.599   4.990
 2165SOL     OW16493   6.543   6.370   1.421
 2165SOL    HW116494   6.549   6.274   1.392
 2165SOL    HW216495   6.620   6.422   1.384
 2166SOL     OW16496   5.256   3.068   4.509
 2166SOL    HW116497   5.252   2.984   4.454
 2166SOL    HW216498   5.351   3.094   4.525
 2167SOL     OW16499   0.395   0.767   0.275
 2167SOL    HW116500   0.342   0.711   0.339
 2167SOL    HW216501   0.366   0.862   0.280
 2168SOL     OW16502   0.584   4.379   0.190
 2168SOL    HW116503   0.539   4.379   0.279
 2168SOL    HW216504   0.556   4.300   0.136
 2169SOL     OW16505   4.839   2.687   4.646
 2169SOL    HW116506   4.767   2.628   4.683
 2169SOL    HW216507   4.863   2.658   4.553
 2170SOL     OW16508   3.979   2.080   1.761
 2170SOL    HW116509   4.045   2.156   1.759
 2170SOL    HW216510   3.970   2.045   1.855
 2171SOL     OW16511   6.324   5.605   2.709
 2171SOL    HW116512   6.228   5.576   2.712
 2171SOL    HW216513   6.333   5.686   2.651
 2172SOL     OW16514   3.791   5.629   0.708
 2172SOL    HW116515   3.811   5.609   0.804
 2172SOL    HW216516   3.795   5.727   0.692
 2173SOL     OW16517   1.409   7.317   2.793
 2173SOL    HW116518   1.503   7.301   2.761
 2173SOL    HW216519   1.362   7.230   2.805
 2174SOL     OW16520   7.732  -0.011   2.510
 2174SOL    HW116521   7.823   0.018   2.540
 2174SOL    HW216522   7.692   0.059   2.452
 2175SOL     OW16523   1.660   0.952   1.250
 2175SOL    HW116524   1.742   0.963   1.307
 2175SOL    HW216525   1.583   0.921   1.307
 2176SOL     OW16526   0.212   3.536   2.776
 2176SOL    HW116527   0.163   3.617   2.743
 2176SOL    HW216528   0.220   3.540   2.876
 2177SOL     OW16529   5.350   4.378   0.542
 2177SOL    HW116530   5.400   4.350   0.624
 2177SOL    HW216531   5.284   4.308   0.516
 2178SOL     OW16532   0.601   4.606   3.283
 2178SOL    HW116533   0.613   4.525   3.224
 2178SOL    HW216534   0.546   4.582   3.363
 2179SOL     OW16535   0.392   2.456   1.139
 2179SOL    HW116536   0.308   2.431   1.189
 2179SOL    HW216537   0.387   2.422   1.045
 2180SOL     OW16538   1.759   7.588   1.347
 2180SOL    HW116539   1.761   7.492   1.375
 2180SOL    HW216540   1.845   7.612   1.302
 2181SOL     OW16541   6.284   5.603   3.729
 2181SOL    HW116542   6.314   5.699   3.727
 2181SOL    HW216543   6.201   5.593   3.674
 2182SOL     OW16544   0.218   0.299   1.002
 2182SOL    HW116545   0.278   0.224   1.030
 2182SOL    HW216546   0.268   0.364   0.946
 2183SOL     OW16547   4.960   6.400   1.892
 2183SOL    HW116548   5.023   6.467   1.932
 2183SOL    HW216549   4.914   6.439   1.812
 2184SOL     OW16550   7.121   6.644   2.357
 2184SOL    HW116551   7.087   6.729   2.397
 2184SOL    HW216552   7.110   6.646   2.257
 2185SOL     OW16553   1.608   5.560   5.079
 2185SOL    HW116554   1.559   5.472   5.079
 2185SOL    HW216555   1.582   5.615   5.000
 2186SOL     OW16556   2.397   3.963   2.780
 2186SOL    HW116557   2.409   4.046   2.834
 2186SOL    HW216558   2.361   3.985   2.690
 2187SOL     OW16559   1.088   7.437   0.854
 2187SOL    HW116560   1.002   7.406   0.812
 2187SOL    HW216561   1.087   7.418   0.952
 2188SOL     OW16562   3.292   1.214   7.291
 2188SOL    HW116563   3.359   1.165   7.347
 2188SOL    HW216564   3.323   1.218   7.196
 2189SOL     OW16565   2.119   3.920   7.369
 2189SOL    HW116566   2.176   3.928   7.286
 2189SOL    HW216567   2.118   4.007   7.418
 2190SOL     OW16568   6.814   4.618   3.332
 2190SOL    HW116569   6.737   4.654   3.279
 2190SOL    HW216570   6.783   4.548   3.395
 2191SOL     OW16571   0.904   5.947   3.033
 2191SOL    HW116572   0.865   5.857   3.053
 2191SOL    HW216573   1.000   5.938   3.007
 2192SOL     OW16574   6.082   4.869   1.990
 2192SOL    HW116575   6.137   4.817   2.056
 2192SOL    HW216576   5.988   4.834   1.989
 2193SOL     OW16577   7.179   4.886   7.070
 2193SOL    HW116578   7.189   4.956   6.999
 2193SOL    HW216579   7.224   4.915   7.154
 2194SOL     OW16580   4.406   5.062   7.480
 2194SOL    HW116581   4.502   5.037   7.473
 2194SOL    HW216582   4.395   5.139   7.543
 2195SOL     OW16583   3.499   1.074   4.742
 2195SOL    HW116584   3.588   1.090   4.784
 2195SOL    HW216585   3.450   1.161   4.731
 2196SOL     OW16586   4.156   6.859   7.290
 2196SOL    HW116587   4.197   6.771   7.316
 2196SOL    HW216588   4.192   6.888   7.201
 2197SOL     OW16589   0.979   5.089   4.214
 2197SOL    HW116590   0.894   5.132   4.245
 2197SOL    HW216591   0.974   5.071   4.116
 2198SOL     OW16592   4.354   0.449   0.736
 2198SOL    HW116593   4.418   0.402   0.674
 2198SOL    HW216594   4.370   0.419   0.830
 2199SOL     OW16595   2.346   7.951   7.902
 2199SOL    HW116596   2.348   7.861   7.860
 2199SOL    HW216597   2.313   7.945   7.996
 2200SOL     OW16598   1.448   1.593   6.079
 2200SOL    HW116599   1.521   1.662   6.078
 2200SOL    HW216600   1.370   1.625   6.025
 2201SOL     OW16601   4.400   5.435   1.515
 2201SOL    HW116602   4.436   5.450   1.607
 2201SOL    HW216603   4.300   5.440   1.516
 2202SOL     OW16604   1.936   6.539   6.412
 2202SOL    HW116605   1.841   6.521   6.385
 2202SOL    HW216606   1.938   6.585   6.500
 2203SOL     OW16607   1.113   4.292   5.258
 2203SOL    HW116608   1.124   4.195   5.237
 2203SOL    HW216609   1.024   4.307   5.302
 2204SOL     OW16610   5.219   3.779   7.249
 2204SOL    HW116611   5.131   3.752   7.209
 2204SOL    HW216612   5.292   3.768   7.182
 2205SOL     OW16613   1.013   4.753   6.981
 2205SOL    HW116614   0.953   4.783   6.906
 2205SOL    HW216615   0.962   4.753   7.067
 2206SOL     OW16616   3.090   7.169   2.840
 2206SOL    HW116617   3.069   7.203   2.932
 2206SOL    HW216618   3.185   7.189   2.817
 2207SOL     OW16619   7.716   6.203   5.807
 2207SOL    HW116620   7.635   6.159   5.770
 2207SOL    HW216621   7.698   6.239   5.899
 2208SOL     OW16622   1.581   7.876   4.228
 2208SOL    HW116623   1.617   7.792   4.270
 2208SOL    HW216624   1.657   7.937   4.205
 2209SOL     OW16625   0.261   7.638   4.104
 2209SOL    HW116626   0.255   7.702   4.181
 2209SOL    HW216627   0.290   7.549   4.136
 2210SOL     OW16628   5.424   6.894   6.705
 2210SOL    HW116629   5.374   6.944   6.634
 2210SOL    HW216630   5.384   6.914   6.794
 2211SOL     OW16631   2.743   0.242   7.431
 2211SOL    HW116632   2.832   0.240   7.384
 2211SOL    HW216633   2.749   0.195   7.518
 2212SOL     OW16634   1.783   5.945   3.230
 2212SOL    HW116635   1.760   5.912   3.322
 2212SOL    HW216636   1.721   5.907   3.163
 2213SOL     OW16637   6.157   4.303   2.117
 2213SOL    HW116638   6.217   4.305   2.197
 2213SOL    HW216639   6.076   4.359   2.135
 2214SOL     OW16640   7.695   0.674   6.573
 2214SOL    HW116641   7.774   0.667   6.634
 2214SOL    HW216642   7.676   0.586   6.531
 2215SOL     OW16643   0.192   6.307   4.256
 2215SOL    HW116644   0.258   6.245   4.212
 2215SOL    HW216645   0.241   6.386   4.293
 2216SOL     OW16646   7.488   7.919   4.144
 2216SOL    HW116647   7.425   7.989   4.178
 2216SOL    HW216648   7.437   7.841   4.109
 2217SOL     OW16649   6.125   6.131   3.995
 2217SOL    HW116650   6.183   6.051   3.985
 2217SOL    HW216651   6.162   6.208   3.943
 2218SOL     OW16652   3.757   2.221   3.959
 2218SOL    HW116653   3.669   2.179   3.984
 2218SOL    HW216654   3.807   2.160   3.897
 2219SOL     OW16655   6.268   2.242   5.842
 2219SOL    HW116656   6.300   2.337   5.853
 2219SOL    HW216657   6.290   2.210   5.750
 2220SOL     OW16658   3.057   4.207   1.414
 2220SOL    HW116659   3.025   4.302   1.421
 2220SOL    HW216660   3.130   4.201   1.346
 2221SOL     OW16661   4.584   6.048   2.005
 2221SOL    HW116662   4.567   6.040   2.104
 2221SOL    HW216663   4.539   6.130   1.970
 2222SOL     OW16664   1.453   4.540   5.692
 2222SOL    HW116665   1.367   4.516   5.738
 2222SOL    HW216666   1.454   4.502   5.600
 2223SOL     OW16667   2.455   3.306   0.901
 2223SOL    HW116668   2.503   3.219   0.910
 2223SOL    HW216669   2.452   3.353   0.990
 2224SOL     OW16670   5.414   1.229   6.502
 2224SOL    HW116671   5.470   1.163   6.452
 2224SOL    HW216672   5.407   1.202   6.598
 2225SOL     OW16673   0.664   5.404   1.961
 2225SOL    HW116674   0.738   5.344   1.929
 2225SOL    HW216675   0.633   5.375   2.051
 2226SOL     OW16676   4.381   3.173   0.152
 2226SOL    HW116677   4.294   3.137   0.116
 2226SOL    HW216678   4.454   3.160   0.085
 2227SOL     OW16679   5.101   1.649   6.351
 2227SOL    HW116680   5.090   1.747   6.368
 2227SOL    HW216681   5.016   1.601   6.372
 2228SOL     OW16682   2.610   4.618   6.943
 2228SOL    HW116683   2.534   4.683   6.953
 2228SOL    HW216684   2.678   4.633   7.015
 2229SOL     OW16685   1.490   7.950   0.987
 2229SOL    HW116686   1.412   7.934   0.926
 2229SOL    HW216687   1.458   7.987   1.074
 2230SOL     OW16688   4.746   3.691   5.947
 2230SOL    HW116689   4.719   3.756   5.876
 2230SOL    HW216690   4.669   3.672   6.008
 2231SOL     OW16691   5.688   5.441   6.633
 2231SOL    HW116692   5.590   5.430   6.646
 2231SOL    HW216693   5.718   5.391   6.552
 2232SOL     OW16694   0.739   3.854   2.522
 2232SOL    HW116695   0.813   3.788   2.533
 2232SOL    HW216696   0.654   3.807   2.499
 2233SOL     OW16697   5.424   1.595   3.300
 2233SOL    HW116698   5.517   1.606   3.264
 2233SOL    HW216699   5.427   1.572   3.397
 2234SOL     OW16700   7.458   4.638   2.189
 2234SOL    HW116701   7.484   4.715   2.247
 2234SOL    HW216702   7.501   4.647   2.099
 2235SOL     OW16703   6.030   2.304   3.049
 2235SOL    HW116704   6.123   2.323   3.081
 2235SOL    HW216705   6.019   2.338   2.956
 2236SOL     OW16706   5.291   6.980   0.793
 2236SOL    HW116707   5.303   6.888   0.831
 2236SOL    HW216708   5.333   6.985   0.702
 2237SOL     OW16709   0.981   5.754   3.725
 2237SOL    HW116710   0.928   5.838   3.709
 2237SOL    HW216711   0.981   5.698   3.642
 2238SOL     OW16712   5.351   3.319   4.645
 2238SOL    HW116713   5.382   3.414   4.643
 2238SOL    HW216714   5.282   3.305   4.574
 2239SOL     OW16715   1.988   1.794   4.423
 2239SOL    HW116716   2.047   1.782   4.504
 2239SOL    HW216717   2.035   1.759   4.342
 2240SOL     OW16718   4.482   4.191   6.470
 2240SOL    HW116719   4.481   4.128   6.547
 2240SOL    HW216720   4.485   4.140   6.384
 2241SOL     OW16721   4.023   4.323   7.685
 2241SOL    HW116722   4.079   4.261   7.630
 2241SOL    HW216723   3.926   4.297   7.678
 2242SOL     OW16724   7.300   0.205   7.107
 2242SOL    HW116725   7.255   0.201   7.017
 2242SOL    HW216726   7.376   0.140   7.110
 2243SOL     OW16727   3.921   0.290   5.146
 2243SOL    HW116728   3.929   0.387   5.124
 2243SOL    HW216729   3.875   0.241   5.072
 2244SOL     OW16730   0.675   7.577   5.234
 2244SOL    HW116731   0.584   7.562   5.274
 2244SOL    HW216732   0.682   7.531   5.146
 2245SOL     OW16733   0.701   7.443   0.821
 2245SOL    HW116734   0.723   7.352   0.785
 2245SOL    HW216735   0.750   7.512   0.769
 2246SOL     OW16736   3.805   5.116   5.256
 2246SOL    HW116737   3.740   5.067   5.315
 2246SOL    HW216738   3.793   5.086   5.161
 2247SOL     OW16739   5.403   1.017   0.234
 2247SOL    HW116740   5.332   1.059   0.177
 2247SOL    HW216741   5.478   0.983   0.177
 2248SOL     OW16742   3.872   6.512   1.071
 2248SOL    HW116743   3.787   6.465   1.048
 2248SOL    HW216744   3.865   6.551   1.163
 2249SOL     OW16745   0.502   2.756   3.337
 2249SOL    HW116746   0.544   2.676   3.379
 2249SOL    HW216747   0.542   2.772   3.246
 2250SOL     OW16748   3.507   0.144   1.988
 2250SOL    HW116749   3.561   0.085   1.928
 2250SOL    HW216750   3.412   0.146   1.957
 2251SOL     OW16751   0.483   2.938   4.451
 2251SOL    HW116752   0.502   3.030   4.486
 2251SOL    HW216753   0.568   2.885   4.448
 2252SOL     OW16754   4.190   2.753   3.643
 2252SOL    HW116755   4.135   2.749   3.560
 2252SOL    HW216756   4.235   2.842   3.650
 2253SOL     OW16757   3.480   4.809   5.683
 2253SOL    HW116758   3.454   4.826   5.779
 2253SOL    HW216759   3.431   4.730   5.648
 2254SOL     OW16760   6.322   1.185   6.326
 2254SOL    HW116761   6.390   1.258   6.338
 2254SOL    HW216762   6.278   1.194   6.237
 2255SOL     OW16763   6.749   6.744   1.908
 2255SOL    HW116764   6.763   6.797   1.993
 2255SOL    HW216765   6.746   6.806   1.830
 2256SOL     OW16766   0.767   6.228   2.947
 2256SOL    HW116767   0.806   6.143   2.982
 2256SOL    HW216768   0.685   6.209   2.892
 2257SOL     OW16769   0.840   1.187   2.159
 2257SOL    HW116770   0.921   1.182   2.217
 2257SOL    HW216771   0.865   1.220   2.068
 2258SOL     OW16772   5.118   5.329   6.537
 2258SOL    HW116773   5.071   5.411   6.572
 2258SOL    HW216774   5.084   5.307   6.446
 2259SOL     OW16775   0.695   1.463   3.266
 2259SOL    HW116776   0.660   1.507   3.349
 2259SOL    HW216777   0.619   1.432   3.209
 2260SOL     OW16778   5.708   3.697   7.538
 2260SOL    HW116779   5.763   3.716   7.620
 2260SOL    HW216780   5.636   3.765   7.528
 2261SOL     OW16781   0.744   6.615   6.957
 2261SOL    HW116782   0.843   6.624   6.962
 2261SOL    HW216783   0.708   6.576   7.042
 2262SOL     OW16784   2.533   6.600   6.760
 2262SOL    HW116785   2.474   6.558   6.692
 2262SOL    HW216786   2.485   6.608   6.847
 2263SOL     OW16787   1.907   3.701   6.693
 2263SOL    HW116788   1.827   3.656   6.732
 2263SOL    HW216789   1.933   3.780   6.750
 2264SOL     OW16790   0.260   0.082   6.254
 2264SOL    HW116791   0.173   0.131   6.247
 2264SOL    HW216792   0.308   0.109   6.337
 2265SOL     OW16793   5.592   7.210   3.347
 2265SOL    HW116794   5.646   7.294   3.336
 2265SOL    HW216795   5.651   7.130   3.343
 2266SOL     OW16796   1.214   1.915   2.866
 2266SOL    HW116797   1.176   1.844   2.807
 2266SOL    HW216798   1.309   1.933   2.841
 2267SOL     OW16799   4.699   0.665   5.739
 2267SOL    HW116800   4.648   0.678   5.654
 2267SOL    HW216801   4.640   0.620   5.806
 2268SOL     OW16802   5.583   5.716   1.293
 2268SOL    HW116803   5.633   5.755   1.370
 2268SOL    HW216804   5.602   5.618   1.286
 2269SOL     OW16805   5.246   1.597   0.225
 2269SOL    HW116806   5.226   1.528   0.295
 2269SOL    HW216807   5.336   1.579   0.185
 2270SOL     OW16808   6.337   2.973   6.552
 2270SOL    HW116809   6.362   2.883   6.514
 2270SOL    HW216810   6.284   3.024   6.485
 2271SOL     OW16811   6.243   7.959   1.436
 2271SOL    HW116812   6.315   7.902   1.476
 2271SOL    HW216813   6.215   7.922   1.348
 2272SOL     OW16814   5.220   4.276   2.826
 2272SOL    HW116815   5.314   4.285   2.792
 2272SOL    HW216816   5.203   4.183   2.858
 2273SOL     OW16817   2.941   3.544   5.288
 2273SOL    HW116818   2.919   3.501   5.200
 2273SOL    HW216819   2.867   3.528   5.353
 2274SOL     OW16820   2.220   0.350   0.355
 2274SOL    HW116821   2.298   0.339   0.417
 2274SOL    HW216822   2.220   0.277   0.287
 2275SOL     OW16823   4.333   4.204   0.070
 2275SOL    HW116824   4.331   4.119   0.018
 2275SOL    HW216825   4.293   4.190   0.161
 2276SOL     OW16826   2.893   5.851   5.841
 2276SOL    HW116827   2.846   5.878   5.757
 2276SOL    HW216828   2.978   5.904   5.850
 2277SOL     OW16829   5.183   6.658   6.090
 2277SOL    HW116830   5.203   6.686   5.996
 2277SOL    HW216831   5.103   6.709   6.124
 2278SOL     OW16832   5.416   5.031   5.571
 2278SOL    HW116833   5.394   4.935   5.590
 2278SOL    HW216834   5.346   5.090   5.610
 2279SOL     OW16835   2.563   5.121   7.541
 2279SOL    HW116836   2.590   5.132   7.445
 2279SOL    HW216837   2.574   5.207   7.589
 2280SOL     OW16838   5.975   6.168   7.921
 2280SOL    HW116839   5.887   6.193   7.880
 2280SOL    HW216840   6.040   6.144   7.849
 2281SOL     OW16841   4.287   1.595   2.097
 2281SOL    HW116842   4.231   1.666   2.142
 2281SOL    HW216843   4.251   1.576   2.006
 2282SOL     OW16844   4.207   2.656   5.607
 2282SOL    HW116845   4.219   2.604   5.522
 2282SOL    HW216846   4.131   2.720   5.596
 2283SOL     OW16847   6.566   6.637   5.837
 2283SOL    HW116848   6.494   6.646   5.907
 2283SOL    HW216849   6.552   6.704   5.765
 2284SOL     OW16850   7.859   2.117   2.811
 2284SOL    HW116851   7.808   2.167   2.740
 2284SOL    HW216852   7.955   2.145   2.809
 2285SOL     OW16853   4.172   4.981   4.801
 2285SOL    HW116854   4.243   4.960   4.733
 2285SOL    HW216855   4.099   4.913   4.796
 2286SOL     OW16856   4.848   6.927   6.780
 2286SOL    HW116857   4.880   7.022   6.775
 2286SOL    HW216858   4.875   6.886   6.866
 2287SOL     OW16859   3.475   6.613   4.445
 2287SOL    HW116860   3.380   6.619   4.413
 2287SOL    HW216861   3.485   6.663   4.531
 2288SOL     OW16862   0.305   3.653   5.532
 2288SOL    HW116863   0.236   3.582   5.523
 2288SOL    HW216864   0.312   3.682   5.628
 2289SOL     OW16865   0.567   5.797   4.342
 2289SOL    HW116866   0.631   5.732   4.385
 2289SOL    HW216867   0.489   5.812   4.402
 2290SOL     OW16868   0.213   4.777   4.714
 2290SOL    HW116869   0.245   4.692   4.673
 2290SOL    HW216870   0.175   4.760   4.805
 2291SOL     OW16871   1.345   7.277   7.905
 2291SOL    HW116872   1.411   7.346   7.875
 2291SOL    HW216873   1.368   7.245   7.997
 2292SOL     OW16874   6.142   0.862   2.563
 2292SOL    HW116875   6.123   0.953   2.601
 2292SOL    HW216876   6.081   0.844   2.486
 2293SOL     OW16877   2.501   5.056   5.139
 2293SOL    HW116878   2.414   5.051   5.187
 2293SOL    HW216879   2.506   4.984   5.069
 2294SOL     OW16880   5.717   6.116   7.389
 2294SOL    HW116881   5.788   6.166   7.439
 2294SOL    HW216882   5.759   6.066   7.313
 2295SOL     OW16883   4.433   6.504   0.573
 2295SOL    HW116884   4.373   6.437   0.616
 2295SOL    HW216885   4.461   6.572   0.641
 2296SOL     OW16886   0.288   3.828   0.222
 2296SOL    HW116887   0.188   3.827   0.225
 2296SOL    HW216888   0.325   3.767   0.292
 2297SOL     OW16889   1.525   7.491   4.153
 2297SOL    HW116890   1.565   7.566   4.204
 2297SOL    HW216891   1.579   7.473   4.070
 2298SOL     OW16892   7.952   6.862   3.806
 2298SOL    HW116893   7.910   6.773   3.791
 2298SOL    HW216894   7.922   6.900   3.893
 2299SOL     OW16895   1.773   7.380   5.386
 2299SOL    HW116896   1.746   7.319   5.461
 2299SOL    HW216897   1.810   7.465   5.423
 2300SOL     OW16898   4.692   7.255   2.213
 2300SOL    HW116899   4.684   7.306   2.299
 2300SOL    HW216900   4.604   7.253   2.166
 2301SOL     OW16901   6.087   7.934   4.308
 2301SOL    HW116902   5.995   7.945   4.346
 2301SOL    HW216903   6.083   7.885   4.221
 2302SOL     OW16904   1.506   6.484   6.291
 2302SOL    HW116905   1.591   6.451   6.251
 2302SOL    HW216906   1.451   6.408   6.325
 2303SOL     OW16907   6.595   4.961   6.341
 2303SOL    HW116908   6.649   4.927   6.418
 2303SOL    HW216909   6.654   5.011   6.277
 2304SOL     OW16910   0.003   1.176   3.372
 2304SOL    HW116911  -0.045   1.248   3.423
 2304SOL    HW216912  -0.014   1.186   3.274
 2305SOL     OW16913   2.036   6.052   1.799
 2305SOL    HW116914   2.127   6.046   1.840
 2305SOL    HW216915   2.020   6.144   1.765
 2306SOL     OW16916   4.454   6.477   0.929
 2306SOL    HW116917   4.478   6.574   0.942
 2306SOL    HW216918   4.410   6.465   0.840
 2307SOL     OW16919   5.406   6.482   6.818
 2307SOL    HW116920   5.477   6.482   6.889
 2307SOL    HW216921   5.434   6.541   6.742
 2308SOL     OW16922   5.299   1.784   2.038
 2308SOL    HW116923   5.337   1.708   2.092
 2308SOL    HW216924   5.343   1.787   1.949
 2309SOL     OW16925   3.132   3.047   1.185
 2309SOL    HW116926   3.095   2.972   1.241
 2309SOL    HW216927   3.081   3.054   1.099
 2310SOL     OW16928   6.926   3.565   0.556
 2310SOL    HW116929   6.969   3.637   0.611
 2310SOL    HW216930   6.861   3.605   0.492
 2311SOL     OW16931   2.096   3.691   3.752
 2311SOL    HW116932   2.012   3.681   3.698
 2311SOL    HW216933   2.115   3.788   3.769
 2312SOL     OW16934   4.265   1.527   1.480
 2312SOL    HW116935   4.208   1.502   1.558
 2312SOL    HW216936   4.221   1.498   1.395
 2313SOL     OW16937   5.627   3.332   3.062
 2313SOL    HW116938   5.597   3.292   2.976
 2313SOL    HW216939   5.675   3.264   3.117
 2314SOL     OW16940   3.885   5.851   3.769
 2314SOL    HW116941   3.910   5.834   3.865
 2314SOL    HW216942   3.950   5.914   3.727
 2315SOL     OW16943   0.424   1.022   1.492
 2315SOL    HW116944   0.441   0.979   1.404
 2315SOL    HW216945   0.472   0.973   1.564
 2316SOL     OW16946   7.624   6.746   2.218
 2316SOL    HW116947   7.702   6.683   2.224
 2316SOL    HW216948   7.579   6.736   2.129
 2317SOL     OW16949   4.778   6.067   6.373
 2317SOL    HW116950   4.681   6.090   6.362
 2317SOL    HW216951   4.829   6.099   6.294
 2318SOL     OW16952   0.304   1.253   5.973
 2318SOL    HW116953   0.378   1.185   5.972
 2318SOL    HW216954   0.260   1.254   6.063
 2319SOL     OW16955   1.017   2.000   6.256
 2319SOL    HW116956   1.029   2.094   6.223
 2319SOL    HW216957   1.072   1.985   6.338
 2320SOL     OW16958   0.100   4.591   2.096
 2320SOL    HW116959   0.124   4.619   2.189
 2320SOL    HW216960   0.101   4.671   2.035
 2321SOL     OW16961   4.081   0.425   7.393
 2321SOL    HW116962   4.012   0.375   7.445
 2321SOL    HW216963   4.122   0.365   7.324
 2322SOL     OW16964   6.383   0.359   1.576
 2322SOL    HW116965   6.351   0.393   1.664
 2322SOL    HW216966   6.432   0.431   1.527
 2323SOL     OW16967   1.003   7.807   3.033
 2323SOL    HW116968   1.088   7.785   2.984
 2323SOL    HW216969   1.014   7.787   3.130
 2324SOL     OW16970   4.069   0.083   7.919
 2324SOL    HW116971   4.103   0.063   8.011
 2324SOL    HW216972   4.070  -0.001   7.864
 2325SOL     OW16973   5.007   4.610   6.408
 2325SOL    HW116974   4.946   4.665   6.464
 2325SOL    HW216975   4.957   4.567   6.333
 2326SOL     OW16976   1.253   6.226   6.451
 2326SOL    HW116977   1.213   6.201   6.539
 2326SOL    HW216978   1.314   6.304   6.463
 2327SOL     OW16979   2.670   7.275   2.826
 2327SOL    HW116980   2.668   7.349   2.894
 2327SOL    HW216981   2.578   7.255   2.794
 2328SOL     OW16982   6.477   5.991   3.002
 2328SOL    HW116983   6.421   5.954   3.077
 2328SOL    HW216984   6.538   6.061   3.038
 2329SOL     OW16985   6.671   3.091   7.761
 2329SOL    HW116986   6.611   3.017   7.791
 2329SOL    HW216987   6.635   3.133   7.678
 2330SOL     OW16988   1.353   4.375   4.502
 2330SOL    HW116989   1.344   4.468   4.468
 2330SOL    HW216990   1.371   4.313   4.425
 2331SOL     OW16991   3.464   5.832   6.733
 2331SOL    HW116992   3.541   5.806   6.791
 2331SOL    HW216993   3.391   5.871   6.789
 2332SOL     OW16994   4.202   6.508   4.768
 2332SOL    HW116995   4.206   6.409   4.783
 2332SOL    HW216996   4.171   6.553   4.852
 2333SOL     OW16997   1.100   0.770   2.813
 2333SOL    HW116998   1.078   0.673   2.815
 2333SOL    HW216999   1.066   0.815   2.895
 2334SOL     OW17000   2.486   7.901   4.231
 2334SOL    HW117001   2.483   7.866   4.137
 2334SOL    HW217002   2.557   7.971   4.238
 2335SOL     OW17003   6.020   7.497   7.197
 2335SOL    HW117004   5.961   7.498   7.278
 2335SOL    HW217005   5.968   7.525   7.116
 2336SOL     OW17006   4.478   2.192   5.291
 2336SOL    HW117007   4.438   2.130   5.224
 2336SOL    HW217008   4.535   2.140   5.356
 2337SOL     OW17009   5.000   1.442   2.277
 2337SOL    HW117010   4.932   1.422   2.206
 2337SOL    HW217011   4.954   1.453   2.366
 2338SOL     OW17012   5.926   7.079   0.991
 2338SOL    HW117013   5.850   7.023   0.959
 2338SOL    HW217014   6.013   7.038   0.965
 2339SOL     OW17015   2.511   0.491   2.429
 2339SOL    HW117016   2.423   0.445   2.433
 2339SOL    HW217017   2.512   0.569   2.492
 2340SOL     OW17018   7.531   7.618   2.716
 2340SOL    HW117019   7.539   7.518   2.719
 2340SOL    HW217020   7.547   7.656   2.808
 2341SOL     OW17021   1.490   4.639   6.696
 2341SOL    HW117022   1.551   4.634   6.775
 2341SOL    HW217023   1.522   4.578   6.624
 2342SOL     OW17024   6.144   3.193   2.919
 2342SOL    HW117025   6.066   3.141   2.882
 2342SOL    HW217026   6.110   3.270   2.973
 2343SOL     OW17027   1.429   0.107   6.876
 2343SOL    HW117028   1.386   0.030   6.924
 2343SOL    HW217029   1.428   0.090   6.777
 2344SOL     OW17030   5.193   6.470   0.910
 2344SOL    HW117031   5.272   6.434   0.860
 2344SOL    HW217032   5.197   6.442   1.006
 2345SOL     OW17033   5.972   3.456   5.868
 2345SOL    HW117034   5.926   3.432   5.783
 2345SOL    HW217035   6.047   3.519   5.849
 2346SOL     OW17036   6.336   0.557   2.331
 2346SOL    HW117037   6.277   0.546   2.252
 2346SOL    HW217038   6.303   0.634   2.387
 2347SOL     OW17039   4.407   3.831   1.952
 2347SOL    HW117040   4.424   3.900   2.022
 2347SOL    HW217041   4.312   3.834   1.924
 2348SOL     OW17042   6.685   6.078   7.010
 2348SOL    HW117043   6.673   6.159   6.952
 2348SOL    HW217044   6.596   6.037   7.029
 2349SOL     OW17045   1.184   6.665   6.508
 2349SOL    HW117046   1.171   6.750   6.558
 2349SOL    HW217047   1.281   6.644   6.499
 2350SOL     OW17048   2.813   7.745   1.563
 2350SOL    HW117049   2.787   7.792   1.479
 2350SOL    HW217050   2.739   7.685   1.593
 2351SOL     OW17051   4.620   1.976   3.582
 2351SOL    HW117052   4.614   1.876   3.589
 2351SOL    HW217053   4.598   2.018   3.670
 2352SOL     OW17054   6.632   2.947   6.105
 2352SOL    HW117055   6.629   3.042   6.074
 2352SOL    HW217056   6.674   2.943   6.196
 2353SOL     OW17057   7.813   2.639   6.824
 2353SOL    HW117058   7.829   2.722   6.771
 2353SOL    HW217059   7.848   2.651   6.917
 2354SOL     OW17060   1.520   6.852   4.023
 2354SOL    HW117061   1.472   6.795   3.957
 2354SOL    HW217062   1.478   6.843   4.113
 2355SOL     OW17063   6.753   3.560   5.320
 2355SOL    HW117064   6.735   3.628   5.392
 2355SOL    HW217065   6.721   3.470   5.350
 2356SOL     OW17066   7.891   3.374   0.907
 2356SOL    HW117067   7.955   3.449   0.922
 2356SOL    HW217068   7.925   3.314   0.834
 2357SOL     OW17069   7.007   7.966   2.963
 2357SOL    HW117070   6.922   7.944   2.915
 2357SOL    HW217071   7.079   7.989   2.897
 2358SOL     OW17072   4.904   6.804   1.435
 2358SOL    HW117073   4.943   6.741   1.503
 2358SOL    HW217074   4.970   6.820   1.361
 2359SOL     OW17075   4.058   2.115   5.856
 2359SOL    HW117076   4.050   2.176   5.934
 2359SOL    HW217077   4.139   2.057   5.866
 2360SOL     OW17078   1.258   5.967   4.558
 2360SOL    HW117079   1.287   5.927   4.645
 2360SOL    HW217080   1.333   6.017   4.516
 2361SOL     OW17081   6.978   2.249   7.089
 2361SOL    HW117082   7.063   2.198   7.101
 2361SOL    HW217083   6.970   2.280   6.995
 2362SOL     OW17084   3.246   7.360   7.973
 2362SOL    HW117085   3.335   7.352   8.019
 2362SOL    HW217086   3.259   7.367   7.874
 2363SOL     OW17087   3.982   2.432   6.233
 2363SOL    HW117088   4.042   2.354   6.256
 2363SOL    HW217089   4.018   2.481   6.154
 2364SOL     OW17090   1.430   6.665   6.767
 2364SOL    HW117091   1.476   6.745   6.727
 2364SOL    HW217092   1.462   6.652   6.861
 2365SOL     OW17093   0.162   2.394   6.819
 2365SOL    HW117094   0.088   2.381   6.884
 2365SOL    HW217095   0.194   2.489   6.823
 2366SOL     OW17096   3.976   5.056   6.861
 2366SOL    HW117097   3.903   5.069   6.929
 2366SOL    HW217098   4.059   5.024   6.906
 2367SOL     OW17099   5.171   5.944   7.445
 2367SOL    HW117100   5.248   5.891   7.482
 2367SOL    HW217101   5.193   5.975   7.353
 2368SOL     OW17102   5.974   1.280   2.446
 2368SOL    HW117103   6.004   1.369   2.482
 2368SOL    HW217104   6.053   1.229   2.413
 2369SOL     OW17105   1.700   0.034   5.956
 2369SOL    HW117106   1.789  -0.011   5.945
 2369SOL    HW217107   1.648  -0.011   6.027
 2370SOL     OW17108   6.484   1.919   5.177
 2370SOL    HW117109   6.513   1.932   5.083
 2370SOL    HW217110   6.385   1.910   5.182
 2371SOL     OW17111   2.363   3.012   1.583
 2371SOL    HW117112   2.305   3.087   1.617
 2371SOL    HW217113   2.310   2.954   1.520
 2372SOL     OW17114   3.148   0.220   7.196
 2372SOL    HW117115   3.189   0.191   7.283
 2372SOL    HW217116   3.198   0.180   7.120
 2373SOL     OW17117   7.157   6.353   2.418
 2373SOL    HW117118   7.166   6.264   2.463
 2373SOL    HW217119   7.100   6.344   2.337
 2374SOL     OW17120   3.786   1.746   2.710
 2374SOL    HW117121   3.788   1.749   2.610
 2374SOL    HW217122   3.862   1.798   2.748
 2375SOL     OW17123   3.942   5.774   1.817
 2375SOL    HW117124   3.940   5.867   1.779
 2375SOL    HW217125   4.037   5.745   1.830
 2376SOL     OW17126   5.044   2.530   3.110
 2376SOL    HW117127   5.085   2.533   3.201
 2376SOL    HW217128   4.945   2.520   3.117
 2377SOL     OW17129   0.724   2.973   3.427
 2377SOL    HW117130   0.739   2.912   3.505
 2377SOL    HW217131   0.627   2.971   3.400
 2378SOL     OW17132   5.239   3.875   5.989
 2378SOL    HW117133   5.254   3.961   5.940
 2378SOL    HW217134   5.160   3.884   6.050
 2379SOL     OW17135   0.773   2.379   0.374
 2379SOL    HW117136   0.817   2.301   0.329
 2379SOL    HW217137   0.812   2.393   0.464
 2380SOL     OW17138   2.212   7.112   0.963
 2380SOL    HW117139   2.164   7.037   0.916
 2380SOL    HW217140   2.171   7.128   1.053
 2381SOL     OW17141   1.151   4.071   6.227
 2381SOL    HW117142   1.075   4.011   6.201
 2381SOL    HW217143   1.149   4.155   6.173
 2382SOL     OW17144   7.051   2.813   7.508
 2382SOL    HW117145   7.047   2.890   7.572
 2382SOL    HW217146   6.990   2.830   7.430
 2383SOL     OW17147   4.806   4.978   1.282
 2383SOL    HW117148   4.888   4.935   1.321
 2383SOL    HW217149   4.823   5.075   1.264
 2384SOL     OW17150   5.117   7.795   7.414
 2384SOL    HW117151   5.098   7.697   7.426
 2384SOL    HW217152   5.094   7.845   7.497
 2385SOL     OW17153   0.996   2.963   0.814
 2385SOL    HW117154   1.015   2.914   0.729
 2385SOL    HW217155   0.996   2.899   0.891
 2386SOL     OW17156   6.934   6.659   1.998
 2386SOL    HW117157   7.018   6.649   1.943
 2386SOL    HW217158   6.952   6.632   2.092
 2387SOL     OW17159   3.788   2.995   0.146
 2387SOL    HW117160   3.697   3.024   0.117
 2387SOL    HW217161   3.853   3.008   0.072
 2388SOL     OW17162   7.837   2.203   3.287
 2388SOL    HW117163   7.910   2.261   3.323
 2388SOL    HW217164   7.829   2.120   3.342
 2389SOL     OW17165   0.018   5.757   1.130
 2389SOL    HW117166  -0.045   5.785   1.058
 2389SOL    HW217167   0.112   5.760   1.097
 2390SOL     OW17168   3.919   4.357   6.721
 2390SOL    HW117169   4.006   4.315   6.743
 2390SOL    HW217170   3.864   4.368   6.804
 2391SOL     OW17171   6.959   2.141   3.602
 2391SOL    HW117172   6.912   2.078   3.664
 2391SOL    HW217173   7.026   2.196   3.652
 2392SOL     OW17174   5.859   0.843   6.445
 2392SOL    HW117175   5.924   0.918   6.458
 2392SOL    HW217176   5.865   0.779   6.522
 2393SOL     OW17177   1.656   5.112   6.903
 2393SOL    HW117178   1.640   5.055   6.984
 2393SOL    HW217179   1.682   5.054   6.826
 2394SOL     OW17180   2.260   1.854   5.537
 2394SOL    HW117181   2.310   1.918   5.596
 2394SOL    HW217182   2.194   1.903   5.480
 2395SOL     OW17183   7.445   0.401   6.661
 2395SOL    HW117184   7.456   0.314   6.710
 2395SOL    HW217185   7.529   0.455   6.668
 2396SOL     OW17186   7.394   7.269   3.039
 2396SOL    HW117187   7.326   7.335   3.009
 2396SOL    HW217188   7.460   7.252   2.966
 2397SOL     OW17189   5.758   7.038   4.173
 2397SOL    HW117190   5.741   6.944   4.200
 2397SOL    HW217191   5.853   7.048   4.142
 2398SOL     OW17192   7.424   6.886   1.920
 2398SOL    HW117193   7.446   6.870   2.016
 2398SOL    HW217194   7.325   6.884   1.907
 2399SOL     OW17195   7.323   4.861   2.282
 2399SOL    HW117196   7.293   4.949   2.319
 2399SOL    HW217197   7.286   4.848   2.190
 2400SOL     OW17198   1.126   6.994   5.586
 2400SOL    HW117199   1.202   7.051   5.618
 2400SOL    HW217200   1.102   7.019   5.492
 2401SOL     OW17201   6.901   4.213   7.121
 2401SOL    HW117202   6.930   4.255   7.208
 2401SOL    HW217203   6.965   4.140   7.096
 2402SOL     OW17204   6.565   4.980   3.248
 2402SOL    HW117205   6.574   4.880   3.251
 2402SOL    HW217206   6.582   5.014   3.156
 2403SOL     OW17207   6.929   3.786   3.890
 2403SOL    HW117208   6.878   3.848   3.831
 2403SOL    HW217209   6.960   3.835   3.972
 2404SOL     OW17210   1.121   4.652   3.360
 2404SOL    HW117211   1.108   4.670   3.457
 2404SOL    HW217212   1.134   4.737   3.310
 2405SOL     OW17213   6.699   2.151   3.491
 2405SOL    HW117214   6.703   2.147   3.591
 2405SOL    HW217215   6.736   2.068   3.451
 2406SOL     OW17216   2.478   0.046   1.149
 2406SOL    HW117217   2.500  -0.011   1.069
 2406SOL    HW217218   2.439  -0.011   1.222
 2407SOL     OW17219   6.314   3.449   7.923
 2407SOL    HW117220   6.354   3.539   7.941
 2407SOL    HW217221   6.273   3.447   7.832
 2408SOL     OW17222   3.894   5.647   3.036
 2408SOL    HW117223   3.948   5.619   3.116
 2408SOL    HW217224   3.906   5.744   3.019
 2409SOL     OW17225   5.924   6.660   7.314
 2409SOL    HW117226   5.907   6.563   7.331
 2409SOL    HW217227   5.999   6.692   7.372
 2410SOL     OW17228   3.151   0.114   4.549
 2410SOL    HW117229   3.129   0.032   4.495
 2410SOL    HW217230   3.161   0.090   4.645
 2411SOL     OW17231   7.414   3.191   3.173
 2411SOL    HW117232   7.329   3.232   3.206
 2411SOL    HW217233   7.406   3.169   3.076
 2412SOL     OW17234   5.592   2.442   0.780
 2412SOL    HW117235   5.514   2.473   0.835
 2412SOL    HW217236   5.613   2.509   0.710
 2413SOL     OW17237   4.905   2.347   3.338
 2413SOL    HW117238   4.987   2.404   3.350
 2413SOL    HW217239   4.853   2.379   3.259
 2414SOL     OW17240   2.195   7.583   5.699
 2414SOL    HW117241   2.258   7.511   5.669
 2414SOL    HW217242   2.164   7.564   5.792
 2415SOL     OW17243   6.821   4.664   4.471
 2415SOL    HW117244   6.846   4.750   4.427
 2415SOL    HW217245   6.875   4.651   4.554
 2416SOL     OW17246   5.880   2.958   4.045
 2416SOL    HW117247   5.937   3.015   4.103
 2416SOL    HW217248   5.856   3.008   3.961
 2417SOL     OW17249   2.901   7.666   6.147
 2417SOL    HW117250   2.949   7.589   6.189
 2417SOL    HW217251   2.937   7.683   6.055
 2418SOL     OW17252   2.396   4.797   4.433
 2418SOL    HW117253   2.392   4.704   4.397
 2418SOL    HW217254   2.313   4.847   4.408
 2419SOL     OW17255   6.024   7.737   6.900
 2419SOL    HW117256   5.951   7.701   6.958
 2419SOL    HW217257   5.993   7.820   6.853
 2420SOL     OW17258   0.654   3.936   4.468
 2420SOL    HW117259   0.560   3.922   4.497
 2420SOL    HW217260   0.680   3.867   4.400
 2421SOL     OW17261   7.013   1.568   1.633
 2421SOL    HW117262   7.069   1.504   1.580
 2421SOL    HW217263   6.995   1.531   1.723
 2422SOL     OW17264   3.923   2.981   0.433
 2422SOL    HW117265   3.963   3.000   0.343
 2422SOL    HW217266   3.846   2.919   0.424
 2423SOL     OW17267   6.506   2.644   5.933
 2423SOL    HW117268   6.546   2.690   6.013
 2423SOL    HW217269   6.431   2.585   5.961
 2424SOL     OW17270   5.180   5.370   2.656
 2424SOL    HW117271   5.102   5.429   2.634
 2424SOL    HW217272   5.263   5.424   2.664
 2425SOL     OW17273   1.414   4.337   1.196
 2425SOL    HW117274   1.398   4.262   1.131
 2425SOL    HW217275   1.465   4.410   1.151
 2426SOL     OW17276   6.498   0.078   0.162
 2426SOL    HW117277   6.429   0.018   0.202
 2426SOL    HW217278   6.504   0.064   0.063
 2427SOL     OW17279   5.018   7.528   7.895
 2427SOL    HW117280   4.955   7.594   7.853
 2427SOL    HW217281   5.046   7.561   7.985
 2428SOL     OW17282   6.548   2.896   3.314
 2428SOL    HW117283   6.497   2.813   3.289
 2428SOL    HW217284   6.589   2.885   3.404
 2429SOL     OW17285   6.862   1.936   6.579
 2429SOL    HW117286   6.781   1.896   6.537
 2429SOL    HW217287   6.841   1.968   6.671
 2430SOL     OW17288   5.388   2.110   2.179
 2430SOL    HW117289   5.337   2.195   2.172
 2430SOL    HW217290   5.427   2.101   2.271
 2431SOL     OW17291   3.122   6.594   7.785
 2431SOL    HW117292   3.192   6.552   7.727
 2431SOL    HW217293   3.036   6.602   7.735
 2432SOL     OW17294   2.139   3.504   6.301
 2432SOL    HW117295   2.054   3.457   6.278
 2432SOL    HW217296   2.161   3.493   6.398
 2433SOL     OW17297   0.181   6.458   5.776
 2433SOL    HW117298   0.250   6.388   5.793
 2433SOL    HW217299   0.207   6.513   5.697
 2434SOL     OW17300   0.890   0.277   5.979
 2434SOL    HW117301   0.859   0.282   6.074
 2434SOL    HW217302   0.925   0.185   5.960
 2435SOL     OW17303   6.766   6.901   5.819
 2435SOL    HW117304   6.773   6.996   5.790
 2435SOL    HW217305   6.719   6.847   5.749
 2436SOL     OW17306   2.155   3.098   4.088
 2436SOL    HW117307   2.227   3.161   4.060
 2436SOL    HW217308   2.078   3.104   4.024
 2437SOL     OW17309   3.527   5.437   3.626
 2437SOL    HW117310   3.473   5.520   3.615
 2437SOL    HW217311   3.602   5.436   3.559
 2438SOL     OW17312   7.886   2.335   7.786
 2438SOL    HW117313   7.819   2.409   7.793
 2438SOL    HW217314   7.881   2.278   7.868
 2439SOL     OW17315   5.560   1.692   1.851
 2439SOL    HW117316   5.554   1.786   1.885
 2439SOL    HW217317   5.494   1.634   1.900
 2440SOL     OW17318   3.185   1.160   3.452
 2440SOL    HW117319   3.157   1.209   3.535
 2440SOL    HW217320   3.185   1.061   3.470
 2441SOL     OW17321   4.883   5.347   3.108
 2441SOL    HW117322   4.968   5.354   3.160
 2441SOL    HW217323   4.815   5.409   3.146
 2442SOL     OW17324   7.014   0.998   0.125
 2442SOL    HW117325   6.986   0.924   0.064
 2442SOL    HW217326   7.104   0.978   0.165
 2443SOL     OW17327   4.521   6.979   0.212
 2443SOL    HW117328   4.461   7.050   0.176
 2443SOL    HW217329   4.609   7.018   0.239
 2444SOL     OW17330   6.533   6.775   7.188
 2444SOL    HW117331   6.485   6.848   7.140
 2444SOL    HW217332   6.546   6.801   7.284
 2445SOL     OW17333   3.894   4.114   0.660
 2445SOL    HW117334   3.836   4.170   0.600
 2445SOL    HW217335   3.847   4.098   0.747
 2446SOL     OW17336   3.717   1.079   5.461
 2446SOL    HW117337   3.711   1.108   5.556
 2446SOL    HW217338   3.666   0.994   5.447
 2447SOL     OW17339   0.193   3.486   4.445
 2447SOL    HW117340   0.126   3.508   4.375
 2447SOL    HW217341   0.159   3.514   4.535
 2448SOL     OW17342   0.372   5.396   5.633
 2448SOL    HW117343   0.444   5.435   5.691
 2448SOL    HW217344   0.387   5.298   5.623
 2449SOL     OW17345   3.941   7.829   0.121
 2449SOL    HW117346   3.927   7.912   0.175
 2449SOL    HW217347   3.854   7.797   0.085
 2450SOL     OW17348   5.810   3.281   3.448
 2450SOL    HW117349   5.817   3.226   3.531
 2450SOL    HW217350   5.829   3.377   3.469
 2451SOL     OW17351   0.943   6.856   4.228
 2451SOL    HW117352   0.887   6.773   4.223
 2451SOL    HW217353   0.961   6.879   4.324
 2452SOL     OW17354   3.218   0.586   6.325
 2452SOL    HW117355   3.313   0.578   6.293
 2452SOL    HW217356   3.216   0.596   6.424
 2453SOL     OW17357   6.367   7.492   2.993
 2453SOL    HW117358   6.405   7.400   2.990
 2453SOL    HW217359   6.402   7.547   2.917
 2454SOL     OW17360   1.866   0.281   3.652
 2454SOL    HW117361   1.910   0.357   3.602
 2454SOL    HW217362   1.769   0.303   3.668
 2455SOL     OW17363   2.454   1.274   3.737
 2455SOL    HW117364   2.374   1.334   3.734
 2455SOL    HW217365   2.433   1.191   3.790
 2456SOL     OW17366   7.327   7.383   7.019
 2456SOL    HW117367   7.268   7.401   6.940
 2456SOL    HW217368   7.370   7.293   7.010
 2457SOL     OW17369   4.898   3.963   7.692
 2457SOL    HW117370   4.980   3.999   7.647
 2457SOL    HW217371   4.922   3.922   7.780
 2458SOL     OW17372   1.002   2.284   6.645
 2458SOL    HW117373   1.025   2.258   6.551
 2458SOL    HW217374   1.043   2.221   6.710
 2459SOL     OW17375   2.226   6.681   1.447
 2459SOL    HW117376   2.278   6.753   1.493
 2459SOL    HW217377   2.204   6.709   1.354
 2460SOL     OW17378   7.617   1.161   0.908
 2460SOL    HW117379   7.546   1.176   0.977
 2460SOL    HW217380   7.697   1.217   0.928
 2461SOL     OW17381   7.767   1.438   2.340
 2461SOL    HW117382   7.736   1.344   2.353
 2461SOL    HW217383   7.832   1.443   2.263
 2462SOL     OW17384   3.065   4.915   7.518
 2462SOL    HW117385   3.068   4.843   7.448
 2462SOL    HW217386   3.148   4.913   7.572
 2463SOL     OW17387   0.256   3.140   5.981
 2463SOL    HW117388   0.167   3.129   5.935
 2463SOL    HW217389   0.243   3.166   6.076
 2464SOL     OW17390   5.803   1.432   0.713
 2464SOL    HW117391   5.774   1.376   0.791
 2464SOL    HW217392   5.852   1.513   0.745
 2465SOL     OW17393   5.667   0.575   7.729
 2465SOL    HW117394   5.762   0.554   7.750
 2465SOL    HW217395   5.612   0.574   7.813
 2466SOL     OW17396   7.038   3.114   1.795
 2466SOL    HW117397   7.123   3.096   1.745
 2466SOL    HW217398   7.051   3.098   1.893
 2467SOL     OW17399   4.113   4.450   4.787
 2467SOL    HW117400   4.206   4.453   4.825
 2467SOL    HW217401   4.112   4.490   4.696
 2468SOL     OW17402   4.360   2.157   1.749
 2468SOL    HW117403   4.263   2.140   1.735
 2468SOL    HW217404   4.405   2.074   1.782
 2469SOL     OW17405   4.821   5.234   0.358
 2469SOL    HW117406   4.900   5.295   0.371
 2469SOL    HW217407   4.830   5.185   0.271
 2470SOL     OW17408   1.106   5.775   7.072
 2470SOL    HW117409   1.136   5.813   7.160
 2470SOL    HW217410   1.167   5.701   7.045
 2471SOL     OW17411   3.469   7.171   0.183
 2471SOL    HW117412   3.417   7.203   0.263
 2471SOL    HW217413   3.566   7.189   0.197
 2472SOL     OW17414   5.041   0.469   2.585
 2472SOL    HW117415   5.125   0.517   2.609
 2472SOL    HW217416   4.983   0.528   2.529
 2473SOL     OW17417   3.695   7.679   4.273
 2473SOL    HW117418   3.757   7.601   4.285
 2473SOL    HW217419   3.741   7.764   4.299
 2474SOL     OW17420   3.360   3.572   4.684
 2474SOL    HW117421   3.403   3.615   4.764
 2474SOL    HW217422   3.403   3.484   4.665
 2475SOL     OW17423   4.272   4.153   3.897
 2475SOL    HW117424   4.279   4.243   3.854
 2475SOL    HW217425   4.307   4.157   3.991
 2476SOL     OW17426   6.923   2.962   3.699
 2476SOL    HW117427   6.846   2.903   3.672
 2476SOL    HW217428   6.900   3.012   3.782
 2477SOL     OW17429   1.107   3.289   2.577
 2477SOL    HW117430   1.065   3.336   2.499
 2477SOL    HW217431   1.038   3.272   2.647
 2478SOL     OW17432   7.847   1.652   1.237
 2478SOL    HW117433   7.781   1.726   1.228
 2478SOL    HW217434   7.921   1.679   1.299
 2479SOL     OW17435   5.944   2.717   1.317
 2479SOL    HW117436   5.882   2.692   1.392
 2479SOL    HW217437   5.983   2.807   1.334
 2480SOL     OW17438   0.508   2.217   2.409
 2480SOL    HW117439   0.479   2.191   2.501
 2480SOL    HW217440   0.430   2.253   2.358
 2481SOL     OW17441   6.640   2.956   5.052
 2481SOL    HW117442   6.652   3.029   4.984
 2481SOL    HW217443   6.683   2.872   5.019
 2482SOL     OW17444   0.393   7.695   5.035
 2482SOL    HW117445   0.332   7.767   5.069
 2482SOL    HW217446   0.367   7.670   4.941
 2483SOL     OW17447   7.589   7.906   2.233
 2483SOL    HW117448   7.670   7.876   2.183
 2483SOL    HW217449   7.609   7.989   2.285
 2484SOL     OW17450   4.983   4.540   5.420
 2484SOL    HW117451   4.910   4.520   5.486
 2484SOL    HW217452   4.973   4.633   5.385
 2485SOL     OW17453   4.831   0.754   5.178
 2485SOL    HW117454   4.785   0.835   5.141
 2485SOL    HW217455   4.763   0.689   5.211
 2486SOL     OW17456   5.308   3.409   7.511
 2486SOL    HW117457   5.250   3.457   7.444
 2486SOL    HW217458   5.376   3.472   7.548
 2487SOL     OW17459   0.631   4.606   5.245
 2487SOL    HW117460   0.647   4.697   5.284
 2487SOL    HW217461   0.598   4.615   5.151
 2488SOL     OW17462   4.982   3.309   6.318
 2488SOL    HW117463   4.903   3.365   6.344
 2488SOL    HW217464   5.049   3.308   6.393
 2489SOL     OW17465   1.239   0.755   2.334
 2489SOL    HW117466   1.251   0.824   2.406
 2489SOL    HW217467   1.142   0.748   2.310
 2490SOL     OW17468   7.888   3.917   6.863
 2490SOL    HW117469   7.838   4.002   6.843
 2490SOL    HW217470   7.955   3.934   6.936
 2491SOL     OW17471   2.060   2.997   4.849
 2491SOL    HW117472   1.962   3.010   4.864
 2491SOL    HW217473   2.076   2.962   4.757
 2492SOL     OW17474   4.405   1.269   0.722
 2492SOL    HW117475   4.455   1.192   0.682
 2492SOL    HW217476   4.332   1.297   0.660
 2493SOL     OW17477   2.994   4.158   4.927
 2493SOL    HW117478   3.046   4.219   4.867
 2493SOL    HW217479   2.934   4.211   4.986
 2494SOL     OW17480   5.336   7.483   5.183
 2494SOL    HW117481   5.370   7.390   5.168
 2494SOL    HW217482   5.273   7.509   5.110
 2495SOL     OW17483   0.042   2.013   6.833
 2495SOL    HW117484  -0.011   2.017   6.748
 2495SOL    HW217485   0.009   2.081   6.898
 2496SOL     OW17486   1.733   5.345   0.368
 2496SOL    HW117487   1.722   5.250   0.338
 2496SOL    HW217488   1.829   5.362   0.392
 2497SOL     OW17489   5.691   3.468   7.325
 2497SOL    HW117490   5.607   3.420   7.352
 2497SOL    HW217491   5.730   3.427   7.244
 2498SOL     OW17492   2.739   3.966   3.481
 2498SOL    HW117493   2.679   4.035   3.441
 2498SOL    HW217494   2.814   3.945   3.418
 2499SOL     OW17495   7.762   5.677   0.586
 2499SOL    HW117496   7.675   5.715   0.620
 2499SOL    HW217497   7.744   5.605   0.520
 2500SOL     OW17498   4.189   6.450   5.216
 2500SOL    HW117499   4.155   6.532   5.170
 2500SOL    HW217500   4.207   6.378   5.149
 2501SOL     OW17501   6.777   7.658   4.903
 2501SOL    HW117502   6.818   7.707   4.825
 2501SOL    HW217503   6.807   7.563   4.903
 2502SOL     OW17504   2.781   0.250   4.716
 2502SOL    HW117505   2.825   0.175   4.766
 2502SOL    HW217506   2.741   0.215   4.632
 2503SOL     OW17507   5.300   5.489   7.546
 2503SOL    HW117508   5.227   5.424   7.527
 2503SOL    HW217509   5.379   5.470   7.486
 2504SOL     OW17510   5.842   6.450   3.965
 2504SOL    HW117511   5.886   6.534   3.932
 2504SOL    HW217512   5.867   6.434   4.060
 2505SOL     OW17513   1.965   5.482   7.810
 2505SOL    HW117514   2.048   5.427   7.807
 2505SOL    HW217515   1.919   5.471   7.898
 2506SOL     OW17516   2.871   3.956   6.917
 2506SOL    HW117517   2.814   4.021   6.967
 2506SOL    HW217518   2.841   3.952   6.821
 2507SOL     OW17519   0.655   4.924   6.558
 2507SOL    HW117520   0.718   5.001   6.553
 2507SOL    HW217521   0.601   4.919   6.474
 2508SOL     OW17522   4.459   4.331   2.834
 2508SOL    HW117523   4.501   4.248   2.797
 2508SOL    HW217524   4.424   4.314   2.926
 2509SOL     OW17525   1.087   5.584   5.411
 2509SOL    HW117526   1.125   5.503   5.366
 2509SOL    HW217527   1.151   5.661   5.403
 2510SOL     OW17528   5.236   2.287   7.081
 2510SOL    HW117529   5.181   2.360   7.042
 2510SOL    HW217530   5.330   2.317   7.093
 2511SOL     OW17531   0.826   5.998   1.991
 2511SOL    HW117532   0.886   6.075   2.013
 2511SOL    HW217533   0.731   6.029   1.983
 2512SOL     OW17534   6.629   2.116   6.475
 2512SOL    HW117535   6.698   2.161   6.532
 2512SOL    HW217536   6.585   2.182   6.415
 2513SOL     OW17537   4.915   6.519   7.020
 2513SOL    HW117538   5.006   6.482   7.003
 2513SOL    HW217539   4.873   6.472   7.097
 2514SOL     OW17540   1.420   3.337   1.717
 2514SOL    HW117541   1.501   3.288   1.684
 2514SOL    HW217542   1.340   3.311   1.663
 2515SOL     OW17543   7.909   7.909   4.108
 2515SOL    HW117544   7.955   7.982   4.159
 2515SOL    HW217545   7.955   7.822   4.125
 2516SOL     OW17546   2.060   0.747   3.572
 2516SOL    HW117547   1.967   0.732   3.603
 2516SOL    HW217548   2.059   0.789   3.481
 2517SOL     OW17549   5.830   3.077   2.157
 2517SOL    HW117550   5.929   3.065   2.173
 2517SOL    HW217551   5.779   3.008   2.208
 2518SOL     OW17552  -0.023   5.741   3.965
 2518SOL    HW117553   0.048   5.773   3.902
 2518SOL    HW217554   0.019   5.714   4.052
 2519SOL     OW17555   1.451   3.175   7.387
 2519SOL    HW117556   1.490   3.084   7.405
 2519SOL    HW217557   1.372   3.167   7.325
 2520SOL     OW17558   4.793   5.464   2.853
 2520SOL    HW117559   4.708   5.453   2.906
 2520SOL    HW217560   4.869   5.419   2.900
 2521SOL     OW17561   3.736   7.296   1.087
 2521SOL    HW117562   3.802   7.361   1.124
 2521SOL    HW217563   3.759   7.203   1.116
 2522SOL     OW17564   7.280   1.509   1.390
 2522SOL    HW117565   7.283   1.435   1.458
 2522SOL    HW217566   7.291   1.471   1.299
 2523SOL     OW17567   7.748   6.164   4.728
 2523SOL    HW117568   7.689   6.239   4.699
 2523SOL    HW217569   7.709   6.076   4.700
 2524SOL     OW17570   6.442   3.504   1.922
 2524SOL    HW117571   6.366   3.498   1.858
 2524SOL    HW217572   6.408   3.519   2.015
 2525SOL     OW17573   0.289   2.212   0.939
 2525SOL    HW117574   0.364   2.147   0.950
 2525SOL    HW217575   0.255   2.240   1.029
 2526SOL     OW17576   6.324   0.387   0.063
 2526SOL    HW117577   6.312   0.482   0.035
 2526SOL    HW217578   6.372   0.382   0.150
 2527SOL     OW17579   0.739   5.644   7.090
 2527SOL    HW117580   0.709   5.605   7.177
 2527SOL    HW217581   0.830   5.684   7.100
 2528SOL     OW17582   5.899   5.436   2.535
 2528SOL    HW117583   5.878   5.342   2.563
 2528SOL    HW217584   5.989   5.440   2.492
 2529SOL     OW17585   2.464   0.323   7.273
 2529SOL    HW117586   2.514   0.382   7.209
 2529SOL    HW217587   2.519   0.304   7.353
 2530SOL     OW17588   4.178   7.183   2.713
 2530SOL    HW117589   4.268   7.228   2.713
 2530SOL    HW217590   4.132   7.199   2.626
 2531SOL     OW17591   6.173   4.501   4.624
 2531SOL    HW117592   6.176   4.404   4.648
 2531SOL    HW217593   6.215   4.515   4.535
 2532SOL     OW17594   6.011   1.150   4.932
 2532SOL    HW117595   6.023   1.236   4.982
 2532SOL    HW217596   5.945   1.162   4.859
 2533SOL     OW17597   4.651   7.692   2.335
 2533SOL    HW117598   4.602   7.777   2.358
 2533SOL    HW217599   4.603   7.614   2.374
 2534SOL     OW17600   0.612   2.210   2.730
 2534SOL    HW117601   0.528   2.203   2.783
 2534SOL    HW217602   0.617   2.135   2.664
 2535SOL     OW17603   7.764   2.329   4.686
 2535SOL    HW117604   7.831   2.390   4.728
 2535SOL    HW217605   7.736   2.259   4.752
 2536SOL     OW17606   5.163   7.490   2.796
 2536SOL    HW117607   5.112   7.563   2.751
 2536SOL    HW217608   5.183   7.516   2.891
 2537SOL     OW17609   4.481   3.921   6.427
 2537SOL    HW117610   4.425   3.915   6.509
 2537SOL    HW217611   4.424   3.927   6.346
 2538SOL     OW17612   0.251   4.849   0.695
 2538SOL    HW117613   0.228   4.936   0.739
 2538SOL    HW217614   0.345   4.851   0.662
 2539SOL     OW17615   0.000   5.167   2.956
 2539SOL    HW117616   0.100   5.162   2.952
 2539SOL    HW217617  -0.028   5.229   3.029
 2540SOL     OW17618   4.020   6.392   5.816
 2540SOL    HW117619   4.012   6.492   5.805
 2540SOL    HW217620   4.053   6.370   5.907
 2541SOL     OW17621   6.818   5.712   6.083
 2541SOL    HW117622   6.903   5.677   6.122
 2541SOL    HW217623   6.838   5.760   5.997
 2542SOL     OW17624   5.460   2.166   6.683
 2542SOL    HW117625   5.440   2.069   6.664
 2542SOL    HW217626   5.414   2.195   6.766
 2543SOL     OW17627   0.839   7.301   4.018
 2543SOL    HW117628   0.755   7.256   3.985
 2543SOL    HW217629   0.883   7.244   4.086
 2544SOL     OW17630   4.747   3.806   0.481
 2544SOL    HW117631   4.828   3.851   0.518
 2544SOL    HW217632   4.725   3.842   0.391
 2545SOL     OW17633   6.473   0.969   2.256
 2545SOL    HW117634   6.381   1.005   2.239
 2545SOL    HW217635   6.468   0.890   2.317
 2546SOL     OW17636   4.608   4.278   0.875
 2546SOL    HW117637   4.620   4.244   0.968
 2546SOL    HW217638   4.677   4.239   0.814
 2547SOL     OW17639   4.703   4.630   6.339
 2547SOL    HW117640   4.646   4.556   6.373
 2547SOL    HW217641   4.736   4.610   6.247
 2548SOL     OW17642   6.899   3.925   7.881
 2548SOL    HW117643   6.848   3.862   7.823
 2548SOL    HW217644   6.996   3.902   7.879
 2549SOL     OW17645   6.591   0.844   7.726
 2549SOL    HW117646   6.493   0.850   7.744
 2549SOL    HW217647   6.609   0.783   7.649
 2550SOL     OW17648   7.557   0.528   7.509
 2550SOL    HW117649   7.591   0.452   7.453
 2550SOL    HW217650   7.565   0.505   7.606
 2551SOL     OW17651   4.017   5.720   6.644
 2551SOL    HW117652   4.076   5.644   6.670
 2551SOL    HW217653   4.048   5.761   6.559
 2552SOL     OW17654   5.530   4.957   2.048
 2552SOL    HW117655   5.450   4.904   2.018
 2552SOL    HW217656   5.578   4.909   2.121
 2553SOL     OW17657   0.050   2.436   2.156
 2553SOL    HW117658   0.063   2.375   2.235
 2553SOL    HW217659  -0.007   2.514   2.183
 2554SOL     OW17660   0.810   3.276   3.324
 2554SOL    HW117661   0.823   3.271   3.423
 2554SOL    HW217662   0.832   3.368   3.291
 2555SOL     OW17663   1.622   4.849   4.625
 2555SOL    HW117664   1.663   4.759   4.609
 2555SOL    HW217665   1.605   4.894   4.537
 2556SOL     OW17666   3.222   6.987   0.369
 2556SOL    HW117667   3.269   6.980   0.281
 2556SOL    HW217668   3.287   7.013   0.441
 2557SOL     OW17669   3.932   7.879   1.152
 2557SOL    HW117670   3.997   7.952   1.129
 2557SOL    HW217671   3.974   7.815   1.216
 2558SOL     OW17672   3.469   7.370   3.787
 2558SOL    HW117673   3.561   7.378   3.750
 2558SOL    HW217674   3.465   7.416   3.876
 2559SOL     OW17675   5.044   7.455   3.442
 2559SOL    HW117676   5.049   7.401   3.526
 2559SOL    HW217677   4.994   7.540   3.460
 2560SOL     OW17678   0.528   3.637   3.407
 2560SOL    HW117679   0.593   3.563   3.426
 2560SOL    HW217680   0.444   3.622   3.459
 2561SOL     OW17681   7.744   2.562   2.160
 2561SOL    HW117682   7.786   2.653   2.159
 2561SOL    HW217683   7.667   2.561   2.223
 2562SOL     OW17684   5.370   3.640   4.924
 2562SOL    HW117685   5.366   3.701   5.003
 2562SOL    HW217686   5.451   3.660   4.869
 2563SOL     OW17687   0.698   1.514   6.931
 2563SOL    HW117688   0.603   1.519   6.964
 2563SOL    HW217689   0.709   1.433   6.875
 2564SOL     OW17690   0.116   0.931   1.202
 2564SOL    HW117691   0.097   1.029   1.199
 2564SOL    HW217692   0.168   0.909   1.284
 2565SOL     OW17693   5.642   4.477   3.044
 2565SOL    HW117694   5.723   4.417   3.039
 2565SOL    HW217695   5.656   4.547   3.114
 2566SOL     OW17696   7.848   0.521   4.365
 2566SOL    HW117697   7.881   0.427   4.369
 2566SOL    HW217698   7.750   0.523   4.382
 2567SOL     OW17699   1.344   5.049   3.265
 2567SOL    HW117700   1.377   5.143   3.254
 2567SOL    HW217701   1.246   5.049   3.282
 2568SOL     OW17702   5.177   7.244   6.005
 2568SOL    HW117703   5.233   7.201   6.076
 2568SOL    HW217704   5.194   7.202   5.916
 2569SOL     OW17705   3.188   5.542   1.676
 2569SOL    HW117706   3.275   5.577   1.710
 2569SOL    HW217707   3.179   5.559   1.578
 2570SOL     OW17708   5.103   7.465   5.875
 2570SOL    HW117709   5.159   7.437   5.796
 2570SOL    HW217710   5.008   7.441   5.858
 2571SOL     OW17711   0.399   1.285   3.635
 2571SOL    HW117712   0.330   1.344   3.593
 2571SOL    HW217713   0.426   1.213   3.570
 2572SOL     OW17714   2.353   2.268   3.344
 2572SOL    HW117715   2.340   2.279   3.443
 2572SOL    HW217716   2.291   2.329   3.295
 2573SOL     OW17717   2.310   1.818   0.328
 2573SOL    HW117718   2.326   1.754   0.253
 2573SOL    HW217719   2.314   1.770   0.416
 2574SOL     OW17720   4.990   1.661   4.926
 2574SOL    HW117721   5.004   1.600   4.848
 2574SOL    HW217722   4.912   1.721   4.909
 2575SOL     OW17723   3.139   4.296   1.119
 2575SOL    HW117724   3.079   4.350   1.179
 2575SOL    HW217725   3.186   4.356   1.055
 2576SOL     OW17726   7.627   2.528   3.309
 2576SOL    HW117727   7.622   2.432   3.284
 2576SOL    HW217728   7.582   2.543   3.397
 2577SOL     OW17729   3.113   3.810   0.252
 2577SOL    HW117730   3.017   3.830   0.273
 2577SOL    HW217731   3.172   3.883   0.287
 2578SOL     OW17732   4.194   4.779   2.789
 2578SOL    HW117733   4.094   4.770   2.789
 2578SOL    HW217734   4.232   4.730   2.867
 2579SOL     OW17735   2.407   3.515   5.752
 2579SOL    HW117736   2.317   3.512   5.796
 2579SOL    HW217737   2.410   3.591   5.686
 2580SOL     OW17738   2.590   2.482   7.108
 2580SOL    HW117739   2.660   2.410   7.102
 2580SOL    HW217740   2.511   2.458   7.053
 2581SOL     OW17741   2.478   0.942   1.167
 2581SOL    HW117742   2.516   0.850   1.158
 2581SOL    HW217743   2.416   0.945   1.245
 2582SOL     OW17744   5.245   6.797   2.132
 2582SOL    HW117745   5.297   6.879   2.154
 2582SOL    HW217746   5.300   6.716   2.150
 2583SOL     OW17747   0.074   2.861   5.548
 2583SOL    HW117748   0.159   2.911   5.530
 2583SOL    HW217749   0.079   2.817   5.638
 2584SOL     OW17750   4.913   7.301   0.452
 2584SOL    HW117751   4.946   7.368   0.518
 2584SOL    HW217752   4.858   7.232   0.498
 2585SOL     OW17753   3.261   6.647   2.206
 2585SOL    HW117754   3.231   6.734   2.167
 2585SOL    HW217755   3.284   6.659   2.303
 2586SOL     OW17756   4.937   3.979   2.452
 2586SOL    HW117757   4.892   4.020   2.531
 2586SOL    HW217758   4.869   3.935   2.393
 2587SOL     OW17759   4.634   5.321   2.382
 2587SOL    HW117760   4.546   5.370   2.388
 2587SOL    HW217761   4.661   5.312   2.287
 2588SOL     OW17762   1.692   2.559   2.431
 2588SOL    HW117763   1.621   2.551   2.361
 2588SOL    HW217764   1.658   2.612   2.508
 2589SOL     OW17765   1.456   0.255   5.223
 2589SOL    HW117766   1.547   0.267   5.263
 2589SOL    HW217767   1.464   0.226   5.127
 2590SOL     OW17768   7.727   7.085   6.781
 2590SOL    HW117769   7.769   7.170   6.813
 2590SOL    HW217770   7.713   7.022   6.857
 2591SOL     OW17771   0.989   3.825   4.840
 2591SOL    HW117772   1.051   3.784   4.907
 2591SOL    HW217773   0.933   3.896   4.885
 2592SOL     OW17774   6.552   6.839   2.446
 2592SOL    HW117775   6.499   6.924   2.452
 2592SOL    HW217776   6.545   6.801   2.354
 2593SOL     OW17777   6.946   1.213   6.227
 2593SOL    HW117778   7.003   1.207   6.310
 2593SOL    HW217779   6.851   1.230   6.252
 2594SOL     OW17780   0.563   5.938   5.711
 2594SOL    HW117781   0.521   6.021   5.676
 2594SOL    HW217782   0.558   5.935   5.811
 2595SOL     OW17783   1.100   2.102   6.886
 2595SOL    HW117784   1.075   2.025   6.827
 2595SOL    HW217785   1.052   2.095   6.973
 2596SOL     OW17786   1.911   4.033   7.315
 2596SOL    HW117787   1.838   4.089   7.276
 2596SOL    HW217788   1.902   3.939   7.283
 2597SOL     OW17789   7.545   7.411   7.950
 2597SOL    HW117790   7.476   7.436   8.018
 2597SOL    HW217791   7.569   7.491   7.895
 2598SOL     OW17792   3.993   2.612   4.911
 2598SOL    HW117793   4.090   2.586   4.920
 2598SOL    HW217794   3.984   2.685   4.843
 2599SOL     OW17795   0.385   2.809   4.614
 2599SOL    HW117796   0.476   2.791   4.653
 2599SOL    HW217797   0.324   2.733   4.633
 2600SOL     OW17798   1.741   3.290   2.141
 2600SOL    HW117799   1.674   3.275   2.069
 2600SOL    HW217800   1.697   3.289   2.231
 2601SOL     OW17801   7.782   1.868   1.400
 2601SOL    HW117802   7.881   1.875   1.405
 2601SOL    HW217803   7.748   1.819   1.480
 2602SOL     OW17804   6.286   6.421   5.206
 2602SOL    HW117805   6.332   6.334   5.224
 2602SOL    HW217806   6.304   6.450   5.112
 2603SOL     OW17807   1.703   0.211   4.696
 2603SOL    HW117808   1.800   0.233   4.709
 2603SOL    HW217809   1.664   0.270   4.626
 2604SOL     OW17810   1.728   3.242   6.598
 2604SOL    HW117811   1.633   3.233   6.568
 2604SOL    HW217812   1.735   3.225   6.696
 2605SOL     OW17813   3.367   6.157   5.691
 2605SOL    HW117814   3.334   6.124   5.779
 2605SOL    HW217815   3.345   6.254   5.681
 2606SOL     OW17816   4.537   2.357   4.718
 2606SOL    HW117817   4.536   2.328   4.623
 2606SOL    HW217818   4.533   2.457   4.723
 2607SOL     OW17819   2.734   4.580   2.658
 2607SOL    HW117820   2.662   4.519   2.690
 2607SOL    HW217821   2.764   4.552   2.567
 2608SOL     OW17822   7.186   0.024   2.693
 2608SOL    HW117823   7.245   0.017   2.774
 2608SOL    HW217824   7.095  -0.011   2.715
 2609SOL     OW17825   7.357   0.957   2.492
 2609SOL    HW117826   7.399   0.982   2.405
 2609SOL    HW217827   7.338   0.859   2.494
 2610SOL     OW17828   0.976   3.413   5.785
 2610SOL    HW117829   0.928   3.369   5.709
 2610SOL    HW217830   0.990   3.347   5.859
 2611SOL     OW17831   4.090   3.557   3.906
 2611SOL    HW117832   3.998   3.523   3.885
 2611SOL    HW217833   4.135   3.589   3.823
 2612SOL     OW17834   0.247   4.616   6.981
 2612SOL    HW117835   0.148   4.630   6.984
 2612SOL    HW217836   0.289   4.648   7.066
 2613SOL     OW17837   0.642   7.508   4.210
 2613SOL    HW117838   0.586   7.430   4.184
 2613SOL    HW217839   0.669   7.501   4.306
 2614SOL     OW17840   4.654   6.042   3.178
 2614SOL    HW117841   4.658   5.944   3.159
 2614SOL    HW217842   4.742   6.085   3.157
 2615SOL     OW17843   3.176   0.358   7.630
 2615SOL    HW117844   3.206   0.328   7.721
 2615SOL    HW217845   3.189   0.456   7.621
 2616SOL     OW17846   3.540   0.641   6.934
 2616SOL    HW117847   3.609   0.570   6.940
 2616SOL    HW217848   3.583   0.731   6.927
 2617SOL     OW17849   7.357   2.421   2.172
 2617SOL    HW117850   7.278   2.482   2.173
 2617SOL    HW217851   7.441   2.473   2.188
 2618SOL     OW17852   4.498   2.601   2.139
 2618SOL    HW117853   4.516   2.668   2.211
 2618SOL    HW217854   4.426   2.538   2.168
 2619SOL     OW17855   3.463   5.261   3.259
 2619SOL    HW117856   3.511   5.180   3.293
 2619SOL    HW217857   3.491   5.280   3.165
 2620SOL     OW17858   1.071   4.009   4.737
 2620SOL    HW117859   1.166   4.024   4.709
 2620SOL    HW217860   1.042   4.080   4.801
 2621SOL     OW17861   0.884   3.625   2.313
 2621SOL    HW117862   0.932   3.683   2.247
 2621SOL    HW217863   0.947   3.599   2.387
 2622SOL     OW17864   5.845   6.654   5.106
 2622SOL    HW117865   5.838   6.635   5.008
 2622SOL    HW217866   5.768   6.612   5.155
 2623SOL     OW17867   0.978   3.903   6.484
 2623SOL    HW117868   1.032   3.819   6.496
 2623SOL    HW217869   0.963   3.947   6.573
 2624SOL     OW17870   7.156   4.455   0.211
 2624SOL    HW117871   7.238   4.420   0.257
 2624SOL    HW217872   7.179   4.488   0.120
 2625SOL     OW17873   6.310   5.057   2.010
 2625SOL    HW117874   6.270   5.120   2.076
 2625SOL    HW217875   6.239   5.018   1.952
 2626SOL     OW17876   5.948   0.286   1.815
 2626SOL    HW117877   5.878   0.303   1.885
 2626SOL    HW217878   5.963   0.188   1.805
 2627SOL     OW17879   1.777   3.126   4.900
 2627SOL    HW117880   1.833   3.158   4.977
 2627SOL    HW217881   1.686   3.166   4.904
 2628SOL     OW17882   6.621   4.437   0.370
 2628SOL    HW117883   6.639   4.369   0.441
 2628SOL    HW217884   6.569   4.396   0.295
 2629SOL     OW17885   7.344   0.324   2.259
 2629SOL    HW117886   7.342   0.408   2.314
 2629SOL    HW217887   7.251   0.295   2.238
 2630SOL     OW17888   1.251   1.287   6.331
 2630SOL    HW117889   1.258   1.195   6.370
 2630SOL    HW217890   1.315   1.297   6.255
 2631SOL     OW17891   3.554   4.568   3.472
 2631SOL    HW117892   3.648   4.536   3.482
 2631SOL    HW217893   3.492   4.490   3.464
 2632SOL     OW17894   4.739   4.398   2.947
 2632SOL    HW117895   4.665   4.343   2.909
 2632SOL    HW217896   4.709   4.442   3.032
 2633SOL     OW17897   3.615   3.297   3.202
 2633SOL    HW117898   3.614   3.200   3.177
 2633SOL    HW217899   3.596   3.307   3.300
 2634SOL     OW17900   0.501   1.034   0.718
 2634SOL    HW117901   0.514   1.133   0.710
 2634SOL    HW217902   0.406   1.010   0.698
 2635SOL     OW17903   2.851   2.050   3.568
 2635SOL    HW117904   2.812   2.092   3.486
 2635SOL    HW217905   2.803   2.083   3.650
 2636SOL     OW17906   5.298   2.127   6.420
 2636SOL    HW117907   5.307   2.028   6.430
 2636SOL    HW217908   5.342   2.174   6.497
 2637SOL     OW17909   7.401   5.188   6.939
 2637SOL    HW117910   7.416   5.094   6.971
 2637SOL    HW217911   7.374   5.247   7.015
 2638SOL     OW17912   1.566   0.092   6.294
 2638SOL    HW117913   1.480   0.043   6.281
 2638SOL    HW217914   1.627   0.039   6.352
 2639SOL     OW17915   2.181   0.719   1.009
 2639SOL    HW117916   2.232   0.800   0.978
 2639SOL    HW217917   2.119   0.689   0.937
 2640SOL     OW17918   5.743   0.139   1.760
 2640SOL    HW117919   5.797   0.121   1.677
 2640SOL    HW217920   5.721   0.053   1.806
 2641SOL     OW17921   0.190   5.970   1.909
 2641SOL    HW117922   0.247   6.032   1.854
 2641SOL    HW217923   0.099   6.010   1.921
 2642SOL     OW17924   4.233   6.564   6.722
 2642SOL    HW117925   4.263   6.530   6.633
 2642SOL    HW217926   4.276   6.652   6.741
 2643SOL     OW17927   5.249   0.192   7.083
 2643SOL    HW117928   5.215   0.135   7.008
 2643SOL    HW217929   5.231   0.288   7.065
 2644SOL     OW17930   6.987   7.989   5.354
 2644SOL    HW117931   7.085   7.978   5.336
 2644SOL    HW217932   6.959   7.929   5.428
 2645SOL     OW17933   3.814   0.358   6.797
 2645SOL    HW117934   3.896   0.303   6.813
 2645SOL    HW217935   3.831   0.422   6.722
 2646SOL     OW17936   7.636   0.846   6.009
 2646SOL    HW117937   7.570   0.905   5.962
 2646SOL    HW217938   7.650   0.877   6.103
 2647SOL     OW17939  -0.017   7.646   4.785
 2647SOL    HW117940   0.004   7.667   4.880
 2647SOL    HW217941   0.064   7.610   4.739
 2648SOL     OW17942   3.588   0.588   5.355
 2648SOL    HW117943   3.546   0.502   5.384
 2648SOL    HW217944   3.606   0.587   5.257
 2649SOL     OW17945   4.980   7.795   2.444
 2649SOL    HW117946   4.956   7.794   2.347
 2649SOL    HW217947   5.040   7.718   2.465
 2650SOL     OW17948   3.718   2.953   4.735
 2650SOL    HW117949   3.808   2.954   4.689
 2650SOL    HW217950   3.709   3.033   4.794
 2651SOL     OW17951   5.458   7.424   2.701
 2651SOL    HW117952   5.437   7.361   2.625
 2651SOL    HW217953   5.374   7.447   2.749
 2652SOL     OW17954   5.208   6.915   0.434
 2652SOL    HW117955   5.192   6.915   0.533
 2652SOL    HW217956   5.191   6.823   0.397
 2653SOL     OW17957   1.515   0.533   7.833
 2653SOL    HW117958   1.524   0.439   7.800
 2653SOL    HW217959   1.600   0.562   7.876
 2654SOL     OW17960   3.452   2.812   2.613
 2654SOL    HW117961   3.397   2.777   2.689
 2654SOL    HW217962   3.425   2.768   2.528
 2655SOL     OW17963   2.167   2.910   6.999
 2655SOL    HW117964   2.244   2.962   7.037
 2655SOL    HW217965   2.176   2.904   6.899
 2656SOL     OW17966   5.190   5.022   7.404
 2656SOL    HW117967   5.163   5.047   7.497
 2656SOL    HW217968   5.114   4.978   7.356
 2657SOL     OW17969   0.150   4.184   1.151
 2657SOL    HW117970   0.181   4.090   1.136
 2657SOL    HW217971   0.063   4.199   1.105
 2658SOL     OW17972   5.427   0.738   3.201
 2658SOL    HW117973   5.339   0.743   3.155
 2658SOL    HW217974   5.420   0.775   3.294
 2659SOL     OW17975   6.878   3.066   0.626
 2659SOL    HW117976   6.825   3.037   0.706
 2659SOL    HW217977   6.866   2.999   0.552
 2660SOL     OW17978   7.346   6.677   3.325
 2660SOL    HW117979   7.365   6.587   3.286
 2660SOL    HW217980   7.333   6.670   3.424
 2661SOL     OW17981   5.210   2.897   3.577
 2661SOL    HW117982   5.284   2.956   3.610
 2661SOL    HW217983   5.175   2.930   3.490
 2662SOL     OW17984   6.334   4.262   5.604
 2662SOL    HW117985   6.415   4.244   5.660
 2662SOL    HW217986   6.254   4.276   5.662
 2663SOL     OW17987   2.407   2.461   4.480
 2663SOL    HW117988   2.341   2.390   4.457
 2663SOL    HW217989   2.494   2.443   4.435
 2664SOL     OW17990   2.605   1.219   0.548
 2664SOL    HW117991   2.692   1.193   0.591
 2664SOL    HW217992   2.553   1.277   0.611
 2665SOL     OW17993   2.663   3.415   5.229
 2665SOL    HW117994   2.739   3.376   5.177
 2665SOL    HW217995   2.662   3.514   5.217
 2666SOL     OW17996   2.191   3.196   3.180
 2666SOL    HW117997   2.213   3.103   3.209
 2666SOL    HW217998   2.102   3.223   3.217
 2667SOL     OW17999   5.508   7.005   6.359
 2667SOL    HW118000   5.439   7.003   6.432
 2667SOL    HW218001   5.593   7.044   6.395
 2668SOL     OW18002   3.054   5.723   3.189
 2668SOL    HW118003   3.114   5.736   3.110
 2668SOL    HW218004   3.109   5.704   3.271
 2669SOL     OW18005   6.467   3.796   5.896
 2669SOL    HW118006   6.545   3.738   5.872
 2669SOL    HW218007   6.419   3.824   5.814
 2670SOL     OW18008   0.370   5.905   7.857
 2670SOL    HW118009   0.297   5.836   7.857
 2670SOL    HW218010   0.401   5.921   7.764
 2671SOL     OW18011   0.700   2.173   1.612
 2671SOL    HW118012   0.765   2.235   1.566
 2671SOL    HW218013   0.730   2.158   1.706
 2672SOL     OW18014   4.570   4.542   5.876
 2672SOL    HW118015   4.483   4.518   5.832
 2672SOL    HW218016   4.571   4.639   5.899
 2673SOL     OW18017   1.600   7.587   2.734
 2673SOL    HW118018   1.521   7.583   2.672
 2673SOL    HW218019   1.627   7.494   2.761
 2674SOL     OW18020   6.387   6.100   7.480
 2674SOL    HW118021   6.351   6.098   7.386
 2674SOL    HW218022   6.313   6.121   7.544
 2675SOL     OW18023   4.614   2.831   7.419
 2675SOL    HW118024   4.607   2.851   7.321
 2675SOL    HW218025   4.609   2.733   7.434
 2676SOL     OW18026   5.656   4.269   7.215
 2676SOL    HW118027   5.737   4.310   7.175
 2676SOL    HW218028   5.579   4.333   7.208
 2677SOL     OW18029   1.439   1.402   7.593
 2677SOL    HW118030   1.386   1.317   7.590
 2677SOL    HW218031   1.407   1.465   7.522
 2678SOL     OW18032   6.669   0.650   7.223
 2678SOL    HW118033   6.643   0.741   7.191
 2678SOL    HW218034   6.641   0.581   7.156
 2679SOL     OW18035   3.274   0.474   4.227
 2679SOL    HW118036   3.347   0.532   4.190
 2679SOL    HW218037   3.299   0.444   4.319
 2680SOL     OW18038   7.241   3.748   1.222
 2680SOL    HW118039   7.302   3.748   1.142
 2680SOL    HW218040   7.287   3.790   1.300
 2681SOL     OW18041   0.920   3.236   1.506
 2681SOL    HW118042   0.901   3.198   1.597
 2681SOL    HW218043   0.994   3.184   1.463
 2682SOL     OW18044   5.051   1.324   1.551
 2682SOL    HW118045   5.083   1.320   1.646
 2682SOL    HW218046   4.999   1.408   1.536
 2683SOL     OW18047   4.898   6.011   2.238
 2683SOL    HW118048   4.970   6.032   2.304
 2683SOL    HW218049   4.811   5.997   2.285
 2684SOL     OW18050   2.450   7.675   2.476
 2684SOL    HW118051   2.395   7.686   2.393
 2684SOL    HW218052   2.405   7.722   2.552
 2685SOL     OW18053   6.682   1.143   2.361
 2685SOL    HW118054   6.614   1.144   2.435
 2685SOL    HW218055   6.773   1.158   2.400
 2686SOL     OW18056   0.247   2.928   0.697
 2686SOL    HW118057   0.154   2.948   0.727
 2686SOL    HW218058   0.305   2.909   0.776
 2687SOL     OW18059   5.023   3.453   5.718
 2687SOL    HW118060   5.075   3.424   5.798
 2687SOL    HW218061   5.061   3.412   5.636
 2688SOL     OW18062   1.671   0.635   1.369
 2688SOL    HW118063   1.590   0.576   1.368
 2688SOL    HW218064   1.724   0.620   1.286
 2689SOL     OW18065   3.355   6.949   1.708
 2689SOL    HW118066   3.294   6.983   1.636
 2689SOL    HW218067   3.428   6.894   1.669
 2690SOL     OW18068   3.922   2.643   5.476
 2690SOL    HW118069   3.912   2.742   5.470
 2690SOL    HW218070   3.939   2.616   5.571
 2691SOL     OW18071   4.632   0.047   4.027
 2691SOL    HW118072   4.624   0.101   4.111
 2691SOL    HW218073   4.580   0.092   3.954
 2692SOL     OW18074   5.781   7.577   3.754
 2692SOL    HW118075   5.813   7.485   3.728
 2692SOL    HW218076   5.735   7.572   3.843
 2693SOL     OW18077   4.207   6.280   6.728
 2693SOL    HW118078   4.295   6.241   6.752
 2693SOL    HW218079   4.145   6.277   6.806
 2694SOL     OW18080   2.653   1.032   1.702
 2694SOL    HW118081   2.633   1.123   1.664
 2694SOL    HW218082   2.637   0.962   1.632
 2695SOL     OW18083   2.148   5.887   2.654
 2695SOL    HW118084   2.049   5.880   2.640
 2695SOL    HW218085   2.168   5.928   2.743
 2696SOL     OW18086   7.091   2.890   3.550
 2696SOL    HW118087   7.006   2.840   3.530
 2696SOL    HW218088   7.123   2.868   3.642
 2697SOL     OW18089   6.994   5.137   6.934
 2697SOL    HW118090   6.927   5.097   6.872
 2697SOL    HW218091   7.086   5.123   6.899
 2698SOL     OW18092   0.829   4.185   1.597
 2698SOL    HW118093   0.858   4.094   1.566
 2698SOL    HW218094   0.813   4.183   1.695
 2699SOL     OW18095   4.621   4.048   3.355
 2699SOL    HW118096   4.601   4.135   3.311
 2699SOL    HW218097   4.698   4.058   3.418
 2700SOL     OW18098   7.716   2.125   5.734
 2700SOL    HW118099   7.650   2.075   5.790
 2700SOL    HW218100   7.725   2.083   5.644
 2701SOL     OW18101   3.382   1.101   6.238
 2701SOL    HW118102   3.321   1.022   6.248
 2701SOL    HW218103   3.374   1.160   6.319
 2702SOL     OW18104   7.644   4.733   6.615
 2702SOL    HW118105   7.559   4.750   6.565
 2702SOL    HW218106   7.625   4.726   6.713
 2703SOL     OW18107   5.346   0.435   6.420
 2703SOL    HW118108   5.431   0.465   6.463
 2703SOL    HW218109   5.275   0.422   6.489
 2704SOL     OW18110   3.651   6.306   0.978
 2704SOL    HW118111   3.605   6.219   0.998
 2704SOL    HW218112   3.616   6.345   0.893
 2705SOL     OW18113   5.283   1.626   0.630
 2705SOL    HW118114   5.258   1.533   0.600
 2705SOL    HW218115   5.203   1.671   0.670
 2706SOL     OW18116   7.645   1.651   6.807
 2706SOL    HW118117   7.637   1.586   6.731
 2706SOL    HW218118   7.624   1.606   6.893
 2707SOL     OW18119   4.943   5.150   4.158
 2707SOL    HW118120   4.876   5.180   4.090
 2707SOL    HW218121   4.960   5.052   4.148
 2708SOL     OW18122   2.139   2.795   2.872
 2708SOL    HW118123   2.086   2.825   2.792
 2708SOL    HW218124   2.095   2.717   2.915
 2709SOL     OW18125   1.754   4.698   6.721
 2709SOL    HW118126   1.698   4.735   6.646
 2709SOL    HW218127   1.759   4.764   6.796
 2710SOL     OW18128   4.046   0.055   6.148
 2710SOL    HW118129   4.127   0.092   6.103
 2710SOL    HW218130   4.068   0.023   6.240
 2711SOL     OW18131   5.197   4.929   4.126
 2711SOL    HW118132   5.126   4.940   4.056
 2711SOL    HW218133   5.257   5.009   4.126
 2712SOL     OW18134   0.911   4.564   6.903
 2712SOL    HW118135   0.926   4.519   6.814
 2712SOL    HW218136   0.923   4.498   6.977
 2713SOL     OW18137   5.508   6.903   7.768
 2713SOL    HW118138   5.564   6.930   7.690
 2713SOL    HW218139   5.550   6.827   7.816
 2714SOL     OW18140   0.533   7.444   2.473
 2714SOL    HW118141   0.626   7.449   2.509
 2714SOL    HW218142   0.529   7.485   2.382
 2715SOL     OW18143   3.850   3.008   7.286
 2715SOL    HW118144   3.929   2.946   7.282
 2715SOL    HW218145   3.876   3.098   7.251
 2716SOL     OW18146   2.108   2.385   0.816
 2716SOL    HW118147   2.042   2.318   0.783
 2716SOL    HW218148   2.080   2.419   0.906
 2717SOL     OW18149   1.896   5.245   7.958
 2717SOL    HW118150   1.807   5.291   7.957
 2717SOL    HW218151   1.909   5.194   7.874
 2718SOL     OW18152   4.410   1.752   2.823
 2718SOL    HW118153   4.481   1.818   2.796
 2718SOL    HW218154   4.348   1.795   2.889
 2719SOL     OW18155   1.612   0.795   5.086
 2719SOL    HW118156   1.679   0.721   5.095
 2719SOL    HW218157   1.538   0.782   5.152
 2720SOL     OW18158   4.656   5.782   2.249
 2720SOL    HW118159   4.682   5.826   2.336
 2720SOL    HW218160   4.680   5.842   2.173
 2721SOL     OW18161   2.551   1.079   0.800
 2721SOL    HW118162   2.599   1.165   0.822
 2721SOL    HW218163   2.501   1.090   0.714
 2722SOL     OW18164   3.906   4.384   3.088
 2722SOL    HW118165   4.001   4.409   3.070
 2722SOL    HW218166   3.844   4.441   3.034
 2723SOL     OW18167   2.483   1.648   3.847
 2723SOL    HW118168   2.446   1.557   3.826
 2723SOL    HW218169   2.581   1.651   3.826
 2724SOL     OW18170   4.185   6.477   2.816
 2724SOL    HW118171   4.105   6.440   2.768
 2724SOL    HW218172   4.160   6.503   2.909
 2725SOL     OW18173   6.684   7.788   3.426
 2725SOL    HW118174   6.737   7.722   3.371
 2725SOL    HW218175   6.681   7.759   3.521
 2726SOL     OW18176   7.545   0.305   3.951
 2726SOL    HW118177   7.447   0.321   3.946
 2726SOL    HW218178   7.593   0.390   3.974
 2727SOL     OW18179   0.603   5.808   4.590
 2727SOL    HW118180   0.606   5.907   4.582
 2727SOL    HW218181   0.607   5.780   4.686
 2728SOL     OW18182   4.980   4.432   2.066
 2728SOL    HW118183   5.075   4.453   2.043
 2728SOL    HW218184   4.976   4.390   2.157
 2729SOL     OW18185   0.638   3.092   4.654
 2729SOL    HW118186   0.608   3.188   4.654
 2729SOL    HW218187   0.706   3.077   4.582
 2730SOL     OW18188   6.420   6.578   2.511
 2730SOL    HW118189   6.494   6.611   2.453
 2730SOL    HW218190   6.409   6.479   2.499
 2731SOL     OW18191   5.546   4.367   1.263
 2731SOL    HW118192   5.560   4.360   1.164
 2731SOL    HW218193   5.455   4.336   1.288
 2732SOL     OW18194   5.573   3.583   7.763
 2732SOL    HW118195   5.570   3.671   7.716
 2732SOL    HW218196   5.502   3.578   7.833
 2733SOL     OW18197   4.379   1.997   3.668
 2733SOL    HW118198   4.316   1.920   3.665
 2733SOL    HW218199   4.342   2.070   3.725
 2734SOL     OW18200   7.756   7.877   4.263
 2734SOL    HW118201   7.684   7.945   4.274
 2734SOL    HW218202   7.724   7.803   4.203
 2735SOL     OW18203   1.547   6.335   7.976
 2735SOL    HW118204   1.570   6.276   7.898
 2735SOL    HW218205   1.451   6.360   7.973
 2736SOL     OW18206   3.212   7.709   4.890
 2736SOL    HW118207   3.271   7.652   4.833
 2736SOL    HW218208   3.144   7.652   4.937
 2737SOL     OW18209   1.590   0.668   4.465
 2737SOL    HW118210   1.619   0.681   4.560
 2737SOL    HW218211   1.663   0.697   4.403
 2738SOL     OW18212   0.633   4.977   3.363
 2738SOL    HW118213   0.559   4.912   3.346
 2738SOL    HW218214   0.626   5.013   3.456
 2739SOL     OW18215   5.769   6.571   4.700
 2739SOL    HW118216   5.817   6.653   4.668
 2739SOL    HW218217   5.751   6.577   4.798
 2740SOL     OW18218   5.469   3.681   5.547
 2740SOL    HW118219   5.440   3.590   5.517
 2740SOL    HW218220   5.517   3.728   5.473
 2741SOL     OW18221   3.866   0.802   2.718
 2741SOL    HW118222   3.814   0.735   2.665
 2741SOL    HW218223   3.839   0.895   2.691
 2742SOL     OW18224   1.436   7.634   2.131
 2742SOL    HW118225   1.511   7.664   2.071
 2742SOL    HW218226   1.365   7.589   2.077
 2743SOL     OW18227   6.273   1.497   2.776
 2743SOL    HW118228   6.220   1.551   2.842
 2743SOL    HW218229   6.213   1.458   2.707
 2744SOL     OW18230   6.739   2.582   5.693
 2744SOL    HW118231   6.789   2.504   5.656
 2744SOL    HW218232   6.718   2.566   5.790
 2745SOL     OW18233   6.633   2.075   1.439
 2745SOL    HW118234   6.631   2.155   1.499
 2745SOL    HW218235   6.722   2.069   1.393
 2746SOL     OW18236   1.336   5.220   4.578
 2746SOL    HW118237   1.371   5.148   4.518
 2746SOL    HW218238   1.264   5.183   4.638
 2747SOL     OW18239   0.239   7.773   6.221
 2747SOL    HW118240   0.175   7.798   6.293
 2747SOL    HW218241   0.189   7.737   6.142
 2748SOL     OW18242   1.550   1.086   3.500
 2748SOL    HW118243   1.588   1.160   3.555
 2748SOL    HW218244   1.483   1.123   3.436
 2749SOL     OW18245   0.716   4.952   4.048
 2749SOL    HW118246   0.677   4.876   4.100
 2749SOL    HW218247   0.815   4.939   4.038
 2750SOL     OW18248   4.389   5.713   4.522
 2750SOL    HW118249   4.375   5.625   4.568
 2750SOL    HW218250   4.311   5.734   4.463
 2751SOL     OW18251   2.370   1.932   7.012
 2751SOL    HW118252   2.467   1.936   7.034
 2751SOL    HW218253   2.323   1.868   7.073
 2752SOL     OW18254   0.245   5.884   2.211
 2752SOL    HW118255   0.292   5.858   2.126
 2752SOL    HW218256   0.251   5.810   2.278
 2753SOL     OW18257   3.655   3.585   1.162
 2753SOL    HW118258   3.584   3.554   1.099
 2753SOL    HW218259   3.625   3.669   1.208
 2754SOL     OW18260   6.253   0.095   6.408
 2754SOL    HW118261   6.239   0.183   6.361
 2754SOL    HW218262   6.331   0.102   6.470
 2755SOL     OW18263   1.865   1.242   1.745
 2755SOL    HW118264   1.831   1.151   1.772
 2755SOL    HW218265   1.867   1.250   1.646
 2756SOL     OW18266   1.265   4.497   1.215
 2756SOL    HW118267   1.291   4.589   1.247
 2756SOL    HW218268   1.257   4.496   1.116
 2757SOL     OW18269   7.921   4.130   6.246
 2757SOL    HW118270   7.873   4.214   6.273
 2757SOL    HW218271   7.924   4.066   6.323
 2758SOL     OW18272   2.269   2.319   5.719
 2758SOL    HW118273   2.287   2.292   5.814
 2758SOL    HW218274   2.355   2.337   5.672
 2759SOL     OW18275   3.273   6.854   7.239
 2759SOL    HW118276   3.312   6.766   7.214
 2759SOL    HW218277   3.178   6.843   7.269
 2760SOL     OW18278   1.732   4.609   4.464
 2760SOL    HW118279   1.771   4.525   4.503
 2760SOL    HW218280   1.769   4.624   4.372
 2761SOL     OW18281   0.416   2.535   1.904
 2761SOL    HW118282   0.483   2.470   1.939
 2761SOL    HW218283   0.400   2.608   1.970
 2762SOL     OW18284   4.842   7.202   0.162
 2762SOL    HW118285   4.890   7.238   0.242
 2762SOL    HW218286   4.810   7.277   0.105
 2763SOL     OW18287   7.765  -0.013   7.031
 2763SOL    HW118288   7.862  -0.012   7.052
 2763SOL    HW218289   7.749   0.019   6.938
 2764SOL     OW18290   1.785   7.437   1.845
 2764SOL    HW118291   1.729   7.503   1.796
 2764SOL    HW218292   1.843   7.483   1.912
 2765SOL     OW18293   2.784   7.938   6.065
 2765SOL    HW118294   2.829   7.882   6.135
 2765SOL    HW218295   2.744   7.880   5.995
 2766SOL     OW18296   2.772   4.894   6.734
 2766SOL    HW118297   2.791   4.962   6.804
 2766SOL    HW218298   2.682   4.854   6.750
 2767SOL     OW18299   5.840   4.439   2.274
 2767SOL    HW118300   5.896   4.477   2.201
 2767SOL    HW218301   5.847   4.339   2.275
 2768SOL     OW18302   2.584   3.782   0.558
 2768SOL    HW118303   2.593   3.813   0.653
 2768SOL    HW218304   2.662   3.726   0.533
 2769SOL     OW18305   2.132   4.951   6.188
 2769SOL    HW118306   2.057   4.902   6.233
 2769SOL    HW218307   2.219   4.926   6.231
 2770SOL     OW18308   4.470   2.624   4.571
 2770SOL    HW118309   4.569   2.607   4.565
 2770SOL    HW218310   4.452   2.720   4.587
 2771SOL     OW18311   2.287   5.300   7.863
 2771SOL    HW118312   2.365   5.252   7.903
 2771SOL    HW218313   2.313   5.337   7.774
 2772SOL     OW18314   7.181   7.643   5.521
 2772SOL    HW118315   7.105   7.623   5.583
 2772SOL    HW218316   7.242   7.564   5.515
 2773SOL     OW18317   5.081   7.895   5.755
 2773SOL    HW118318   5.110   7.989   5.775
 2773SOL    HW218319   5.052   7.887   5.660
 2774SOL     OW18320   4.085   0.804   7.352
 2774SOL    HW118321   4.159   0.801   7.420
 2774SOL    HW218322   4.092   0.725   7.291
 2775SOL     OW18323   6.669   7.889   6.020
 2775SOL    HW118324   6.753   7.839   5.997
 2775SOL    HW218325   6.607   7.829   6.071
 2776SOL     OW18326   1.276   7.188   0.156
 2776SOL    HW118327   1.371   7.195   0.123
 2776SOL    HW218328   1.223   7.132   0.092
 2777SOL     OW18329   2.526   4.730   5.051
 2777SOL    HW118330   2.445   4.684   5.014
 2777SOL    HW218331   2.506   4.764   5.143
 2778SOL     OW18332   7.932   3.466   4.628
 2778SOL    HW118333   7.954   3.532   4.699
 2778SOL    HW218334   7.839   3.480   4.595
 2779SOL     OW18335   4.740   6.380   5.097
 2779SOL    HW118336   4.647   6.390   5.061
 2779SOL    HW218337   4.747   6.427   5.185
 2780SOL     OW18338   5.991   4.917   7.485
 2780SOL    HW118339   5.991   5.016   7.499
 2780SOL    HW218340   5.897   4.882   7.487
 2781SOL     OW18341   1.757   1.453   5.404
 2781SOL    HW118342   1.832   1.520   5.414
 2781SOL    HW218343   1.692   1.484   5.335
 2782SOL     OW18344   1.664   6.758   3.763
 2782SOL    HW118345   1.661   6.823   3.839
 2782SOL    HW218346   1.753   6.760   3.718
 2783SOL     OW18347   2.446   0.740   3.952
 2783SOL    HW118348   2.431   0.656   4.005
 2783SOL    HW218349   2.480   0.717   3.861
 2784SOL     OW18350   4.792   5.935   1.009
 2784SOL    HW118351   4.806   5.970   1.102
 2784SOL    HW218352   4.786   6.011   0.945
 2785SOL     OW18353   4.182   7.511   1.114
 2785SOL    HW118354   4.187   7.532   1.016
 2785SOL    HW218355   4.265   7.542   1.160
 2786SOL     OW18356   3.348   1.894   6.387
 2786SOL    HW118357   3.354   1.823   6.317
 2786SOL    HW218358   3.319   1.854   6.474
 2787SOL     OW18359   1.076   4.340   0.122
 2787SOL    HW118360   1.064   4.251   0.078
 2787SOL    HW218361   1.160   4.340   0.175
 2788SOL     OW18362   3.008   5.645   7.466
 2788SOL    HW118363   3.015   5.694   7.553
 2788SOL    HW218364   3.097   5.646   7.420
 2789SOL     OW18365   6.197   0.918   6.325
 2789SOL    HW118366   6.244   0.831   6.343
 2789SOL    HW218367   6.255   0.977   6.270
 2790SOL     OW18368   2.152   5.672   6.264
 2790SOL    HW118369   2.125   5.765   6.241
 2790SOL    HW218370   2.178   5.666   6.361
 2791SOL     OW18371   0.463   6.901   4.648
 2791SOL    HW118372   0.461   6.834   4.573
 2791SOL    HW218373   0.386   6.885   4.710
 2792SOL     OW18374   3.235   4.940   5.936
 2792SOL    HW118375   3.315   4.973   5.986
 2792SOL    HW218376   3.196   5.014   5.882
 2793SOL     OW18377   1.562   7.076   2.129
 2793SOL    HW118378   1.566   6.978   2.109
 2793SOL    HW218379   1.559   7.089   2.228
 2794SOL     OW18380   4.333   3.063   7.927
 2794SOL    HW118381   4.432   3.071   7.914
 2794SOL    HW218382   4.313   3.028   8.018
 2795SOL     OW18383   2.117   6.336   8.015
 2795SOL    HW118384   2.064   6.421   8.018
 2795SOL    HW218385   2.084   6.278   7.941
 2796SOL     OW18386   3.432   6.770   5.000
 2796SOL    HW118387   3.525   6.775   5.036
 2796SOL    HW218388   3.434   6.785   4.901
 2797SOL     OW18389   3.967   7.905   3.992
 2797SOL    HW118390   3.921   7.989   3.964
 2797SOL    HW218391   4.061   7.905   3.958
 2798SOL     OW18392   1.984   0.220   2.609
 2798SOL    HW118393   1.886   0.207   2.629
 2798SOL    HW218394   2.036   0.212   2.694
 2799SOL     OW18395   5.407   6.020   2.746
 2799SOL    HW118396   5.376   6.110   2.777
 2799SOL    HW218397   5.438   6.025   2.651
 2800SOL     OW18398   0.963   3.573   0.864
 2800SOL    HW118399   0.926   3.605   0.777
 2800SOL    HW218400   0.939   3.637   0.937
 2801SOL     OW18401   1.331   5.389   0.064
 2801SOL    HW118402   1.281   5.465   0.023
 2801SOL    HW218403   1.347   5.406   0.161
 2802SOL     OW18404   7.668   4.289   3.378
 2802SOL    HW118405   7.723   4.219   3.333
 2802SOL    HW218406   7.667   4.274   3.477
 2803SOL     OW18407   6.146   0.518   1.904
 2803SOL    HW118408   6.199   0.594   1.867
 2803SOL    HW218409   6.170   0.503   1.999
 2804SOL     OW18410   1.802   4.190   0.358
 2804SOL    HW118411   1.893   4.230   0.369
 2804SOL    HW218412   1.804   4.094   0.383
 2805SOL     OW18413   1.337   2.851   7.488
 2805SOL    HW118414   1.432   2.825   7.505
 2805SOL    HW218415   1.284   2.771   7.459
 2806SOL     OW18416   0.045   2.897   3.350
 2806SOL    HW118417  -0.045   2.862   3.323
 2806SOL    HW218418   0.039   2.939   3.441
 2807SOL     OW18419   3.592   2.953   5.292
 2807SOL    HW118420   3.525   3.019   5.260
 2807SOL    HW218421   3.630   2.982   5.380
 2808SOL     OW18422   0.133   1.310   7.104
 2808SOL    HW118423   0.170   1.235   7.049
 2808SOL    HW218424   0.111   1.276   7.196
 2809SOL     OW18425   6.918   0.525   1.585
 2809SOL    HW118426   6.826   0.496   1.612
 2809SOL    HW218427   6.926   0.525   1.485
 2810SOL     OW18428   7.829   4.415   6.183
 2810SOL    HW118429   7.857   4.418   6.087
 2810SOL    HW218430   7.731   4.431   6.190
 2811SOL     OW18431   1.909   2.560   5.359
 2811SOL    HW118432   2.007   2.541   5.375
 2811SOL    HW218433   1.896   2.593   5.265
 2812SOL     OW18434   6.278   4.935   1.702
 2812SOL    HW118435   6.307   5.022   1.742
 2812SOL    HW218436   6.232   4.952   1.615
 2813SOL     OW18437   1.385   5.632   3.179
 2813SOL    HW118438   1.441   5.702   3.224
 2813SOL    HW218439   1.357   5.665   3.088
 2814SOL     OW18440   0.360   5.574   2.954
 2814SOL    HW118441   0.423   5.545   2.882
 2814SOL    HW218442   0.405   5.569   3.043
 2815SOL     OW18443   3.266   0.999   2.447
 2815SOL    HW118444   3.316   1.080   2.479
 2815SOL    HW218445   3.230   0.948   2.525
 2816SOL     OW18446   1.564   3.418   5.539
 2816SOL    HW118447   1.493   3.489   5.541
 2816SOL    HW218448   1.645   3.450   5.588
 2817SOL     OW18449   7.562   1.969   1.471
 2817SOL    HW118450   7.530   1.980   1.565
 2817SOL    HW218451   7.519   1.890   1.428
 2818SOL     OW18452   6.253   7.532   5.351
 2818SOL    HW118453   6.229   7.435   5.354
 2818SOL    HW218454   6.296   7.554   5.264
 2819SOL     OW18455   7.771   6.825   0.870
 2819SOL    HW118456   7.825   6.757   0.820
 2819SOL    HW218457   7.674   6.815   0.847
 2820SOL     OW18458   7.768   5.804   5.099
 2820SOL    HW118459   7.834   5.865   5.142
 2820SOL    HW218460   7.715   5.756   5.168
 2821SOL     OW18461   6.783   5.490   5.452
 2821SOL    HW118462   6.708   5.436   5.489
 2821SOL    HW218463   6.821   5.446   5.370
 2822SOL     OW18464   2.460   7.407   0.378
 2822SOL    HW118465   2.406   7.329   0.347
 2822SOL    HW218466   2.554   7.399   0.344
 2823SOL     OW18467   2.973   4.974   3.446
 2823SOL    HW118468   3.051   4.912   3.460
 2823SOL    HW218469   2.987   5.030   3.365
 2824SOL     OW18470   2.619   2.960   0.109
 2824SOL    HW118471   2.651   2.903   0.033
 2824SOL    HW218472   2.520   2.949   0.120
 2825SOL     OW18473   3.273   1.403   5.007
 2825SOL    HW118474   3.314   1.476   4.952
 2825SOL    HW218475   3.330   1.384   5.086
 2826SOL     OW18476   3.842   4.650   4.592
 2826SOL    HW118477   3.937   4.638   4.562
 2826SOL    HW218478   3.804   4.564   4.624
 2827SOL     OW18479   0.416   5.496   5.238
 2827SOL    HW118480   0.342   5.545   5.191
 2827SOL    HW218481   0.456   5.428   5.177
 2828SOL     OW18482   1.019   2.386   2.632
 2828SOL    HW118483   1.007   2.410   2.728
 2828SOL    HW218484   1.022   2.286   2.621
 2829SOL     OW18485   4.204   6.891   1.517
 2829SOL    HW118486   4.121   6.947   1.505
 2829SOL    HW218487   4.182   6.808   1.569
 2830SOL     OW18488   0.614   2.332   1.430
 2830SOL    HW118489   0.574   2.424   1.424
 2830SOL    HW218490   0.665   2.312   1.347
 2831SOL     OW18491   1.946   0.909   4.224
 2831SOL    HW118492   1.928   0.953   4.312
 2831SOL    HW218493   2.037   0.933   4.191
 2832SOL     OW18494   1.413   4.578   3.749
 2832SOL    HW118495   1.423   4.583   3.650
 2832SOL    HW218496   1.434   4.666   3.791
 2833SOL     OW18497   6.265   7.578   0.452
 2833SOL    HW118498   6.347   7.616   0.409
 2833SOL    HW218499   6.290   7.520   0.529
 2834SOL     OW18500   1.974   7.379   6.699
 2834SOL    HW118501   1.970   7.463   6.752
 2834SOL    HW218502   1.897   7.375   6.635
 2835SOL     OW18503   3.747   6.009   3.703
 2835SOL    HW118504   3.743   6.078   3.630
 2835SOL    HW218505   3.786   6.049   3.786
 2836SOL     OW18506   1.217   1.037   4.785
 2836SOL    HW118507   1.218   1.028   4.686
 2836SOL    HW218508   1.280   1.109   4.814
 2837SOL     OW18509   6.389   3.933   2.213
 2837SOL    HW118510   6.413   3.921   2.117
 2837SOL    HW218511   6.472   3.936   2.269
 2838SOL     OW18512   0.672   0.344   7.103
 2838SOL    HW118513   0.757   0.357   7.155
 2838SOL    HW218514   0.677   0.392   7.016
 2839SOL     OW18515   1.121   2.558   5.514
 2839SOL    HW118516   1.068   2.477   5.539
 2839SOL    HW218517   1.166   2.544   5.425
 2840SOL     OW18518   2.423   4.284   3.490
 2840SOL    HW118519   2.500   4.323   3.439
 2840SOL    HW218520   2.410   4.189   3.465
 2841SOL     OW18521   2.350   4.527   1.730
 2841SOL    HW118522   2.414   4.591   1.688
 2841SOL    HW218523   2.374   4.514   1.827
 2842SOL     OW18524   0.771   4.808   3.008
 2842SOL    HW118525   0.719   4.859   3.078
 2842SOL    HW218526   0.708   4.756   2.951
 2843SOL     OW18527   0.159   1.734   0.332
 2843SOL    HW118528   0.092   1.660   0.344
 2843SOL    HW218529   0.212   1.717   0.249
 2844SOL     OW18530   2.179   5.783   5.073
 2844SOL    HW118531   2.090   5.826   5.056
 2844SOL    HW218532   2.192   5.705   5.011
 2845SOL     OW18533   3.727   1.526   6.206
 2845SOL    HW118534   3.817   1.545   6.167
 2845SOL    HW218535   3.725   1.433   6.243
 2846SOL     OW18536   4.480   1.276   5.573
 2846SOL    HW118537   4.446   1.196   5.524
 2846SOL    HW218538   4.459   1.267   5.671
 2847SOL     OW18539   2.349   0.758   3.007
 2847SOL    HW118540   2.251   0.764   3.025
 2847SOL    HW218541   2.368   0.787   2.913
 2848SOL     OW18542   4.058   4.885   3.251
 2848SOL    HW118543   4.107   4.964   3.215
 2848SOL    HW218544   3.979   4.865   3.193
 2849SOL     OW18545   1.396   7.425   0.294
 2849SOL    HW118546   1.359   7.513   0.326
 2849SOL    HW218547   1.343   7.393   0.215
 2850SOL     OW18548   0.476   4.535   1.809
 2850SOL    HW118549   0.479   4.597   1.730
 2850SOL    HW218550   0.425   4.577   1.883
 2851SOL     OW18551   5.777   6.692   6.072
 2851SOL    HW118552   5.831   6.768   6.035
 2851SOL    HW218553   5.809   6.669   6.164
 2852SOL     OW18554   4.991   7.113   4.415
 2852SOL    HW118555   5.075   7.087   4.463
 2852SOL    HW218556   5.001   7.202   4.372
 2853SOL     OW18557   1.914   1.037   3.296
 2853SOL    HW118558   1.914   0.937   3.300
 2853SOL    HW218559   1.942   1.067   3.205
 2854SOL     OW18560   6.672   0.886   2.450
 2854SOL    HW118561   6.701   0.797   2.484
 2854SOL    HW218562   6.713   0.904   2.361
 2855SOL     OW18563   1.577   1.802   3.269
 2855SOL    HW118564   1.536   1.892   3.284
 2855SOL    HW218565   1.533   1.756   3.192
 2856SOL     OW18566   3.103   2.541   3.770
 2856SOL    HW118567   3.094   2.463   3.831
 2856SOL    HW218568   3.017   2.556   3.721
 2857SOL     OW18569   3.397   7.114   0.767
 2857SOL    HW118570   3.318   7.061   0.798
 2857SOL    HW218571   3.453   7.141   0.846
 2858SOL     OW18572   3.314   0.105   3.492
 2858SOL    HW118573   3.287   0.048   3.570
 2858SOL    HW218574   3.407   0.139   3.506
 2859SOL     OW18575   1.376   2.454   4.276
 2859SOL    HW118576   1.362   2.388   4.202
 2859SOL    HW218577   1.357   2.410   4.364
 2860SOL     OW18578   2.117   2.685   4.936
 2860SOL    HW118579   2.060   2.666   5.016
 2860SOL    HW218580   2.200   2.628   4.939
 2861SOL     OW18581   5.888   1.873   3.133
 2861SOL    HW118582   5.799   1.919   3.135
 2861SOL    HW218583   5.947   1.912   3.203
 2862SOL     OW18584   5.129   3.294   1.752
 2862SOL    HW118585   5.048   3.303   1.809
 2862SOL    HW218586   5.210   3.282   1.810
 2863SOL     OW18587   3.766   4.461   0.680
 2863SOL    HW118588   3.793   4.439   0.773
 2863SOL    HW218589   3.726   4.381   0.636
 2864SOL     OW18590   2.230   0.914   3.235
 2864SOL    HW118591   2.301   0.845   3.223
 2864SOL    HW218592   2.210   0.927   3.332
 2865SOL     OW18593   3.165   1.604   1.848
 2865SOL    HW118594   3.255   1.622   1.808
 2865SOL    HW218595   3.118   1.533   1.796
 2866SOL     OW18596   6.186   6.664   4.990
 2866SOL    HW118597   6.275   6.621   4.977
 2866SOL    HW218598   6.175   6.691   5.086
 2867SOL     OW18599   4.058  -0.007   4.637
 2867SOL    HW118600   4.016   0.018   4.724
 2867SOL    HW218601   4.143   0.044   4.623
 2868SOL     OW18602   5.151   5.911   2.565
 2868SOL    HW118603   5.224   5.938   2.627
 2868SOL    HW218604   5.123   5.817   2.584
 2869SOL     OW18605   6.129   2.372   0.876
 2869SOL    HW118606   6.110   2.281   0.912
 2869SOL    HW218607   6.163   2.431   0.948
 2870SOL     OW18608   3.671   5.939   3.458
 2870SOL    HW118609   3.756   5.887   3.461
 2870SOL    HW218610   3.614   5.916   3.538
 2871SOL     OW18611   1.154   2.295   7.927
 2871SOL    HW118612   1.085   2.358   7.891
 2871SOL    HW218613   1.183   2.325   8.018
 2872SOL     OW18614   4.097   1.490   6.160
 2872SOL    HW118615   4.023   1.510   6.095
 2872SOL    HW218616   4.183   1.527   6.125
 2873SOL     OW18617   3.274   5.520   7.700
 2873SOL    HW118618   3.176   5.534   7.686
 2873SOL    HW218619   3.295   5.512   7.797
 2874SOL     OW18620   6.974   5.303   7.218
 2874SOL    HW118621   6.993   5.281   7.122
 2874SOL    HW218622   6.905   5.241   7.254
 2875SOL     OW18623   3.172   4.020   7.133
 2875SOL    HW118624   3.240   3.959   7.173
 2875SOL    HW218625   3.208   4.062   7.050
 2876SOL     OW18626   2.432   6.863   1.990
 2876SOL    HW118627   2.338   6.861   1.958
 2876SOL    HW218628   2.436   6.900   2.083
 2877SOL     OW18629   4.796   3.278   7.898
 2877SOL    HW118630   4.832   3.227   7.977
 2877SOL    HW218631   4.842   3.249   7.815
 2878SOL     OW18632   7.176   5.375   3.056
 2878SOL    HW118633   7.274   5.354   3.061
 2878SOL    HW218634   7.128   5.328   3.130
 2879SOL     OW18635   2.599   1.056   2.289
 2879SOL    HW118636   2.525   1.025   2.350
 2879SOL    HW218637   2.587   1.015   2.199
 2880SOL     OW18638   5.233   7.819   1.907
 2880SOL    HW118639   5.267   7.767   1.828
 2880SOL    HW218640   5.291   7.802   1.986
 2881SOL     OW18641   2.405   0.418   4.117
 2881SOL    HW118642   2.337   0.347   4.136
 2881SOL    HW218643   2.493   0.375   4.095
 2882SOL     OW18644   4.106   2.242   6.695
 2882SOL    HW118645   4.179   2.197   6.748
 2882SOL    HW218646   4.145   2.289   6.616
 2883SOL     OW18647   1.144   6.255   2.988
 2883SOL    HW118648   1.190   6.243   2.900
 2883SOL    HW218649   1.069   6.190   2.996
 2884SOL     OW18650   3.408   3.401   3.156
 2884SOL    HW118651   3.442   3.450   3.236
 2884SOL    HW218652   3.411   3.460   3.076
 2885SOL     OW18653   4.103   7.081   4.489
 2885SOL    HW118654   4.118   7.167   4.539
 2885SOL    HW218655   4.171   7.013   4.517
 2886SOL     OW18656   5.393   4.502   3.213
 2886SOL    HW118657   5.336   4.508   3.295
 2886SOL    HW218658   5.366   4.422   3.159
 2887SOL     OW18659   6.666   3.100   4.266
 2887SOL    HW118660   6.764   3.104   4.285
 2887SOL    HW218661   6.646   3.147   4.179
 2888SOL     OW18662   1.936   6.446   5.976
 2888SOL    HW118663   1.974   6.535   6.000
 2888SOL    HW218664   1.885   6.452   5.890
 2889SOL     OW18665   6.564   7.334   6.487
 2889SOL    HW118666   6.613   7.318   6.572
 2889SOL    HW218667   6.509   7.418   6.495
 2890SOL     OW18668   4.239   0.596   3.290
 2890SOL    HW118669   4.170   0.665   3.270
 2890SOL    HW218670   4.247   0.583   3.389
 2891SOL     OW18671   3.569   1.501   7.938
 2891SOL    HW118672   3.558   1.573   8.008
 2891SOL    HW218673   3.489   1.442   7.938
 2892SOL     OW18674   7.165   6.825   6.196
 2892SOL    HW118675   7.074   6.808   6.235
 2892SOL    HW218676   7.170   6.786   6.104
 2893SOL     OW18677   4.689   6.228   3.491
 2893SOL    HW118678   4.677   6.302   3.426
 2893SOL    HW218679   4.691   6.264   3.584
 2894SOL     OW18680   6.509   7.676   1.043
 2894SOL    HW118681   6.585   7.617   1.069
 2894SOL    HW218682   6.453   7.631   0.973
 2895SOL     OW18683   7.139   1.436   7.888
 2895SOL    HW118684   7.047   1.471   7.874
 2895SOL    HW218685   7.146   1.343   7.851
 2896SOL     OW18686   7.593   5.511   2.053
 2896SOL    HW118687   7.513   5.467   2.010
 2896SOL    HW218688   7.676   5.485   2.004
 2897SOL     OW18689   7.157   5.670   7.780
 2897SOL    HW118690   7.117   5.762   7.781
 2897SOL    HW218691   7.087   5.602   7.803
 2898SOL     OW18692   7.132   2.751   2.166
 2898SOL    HW118693   7.190   2.683   2.211
 2898SOL    HW218694   7.087   2.711   2.086
 2899SOL     OW18695   5.777   1.328   2.201
 2899SOL    HW118696   5.823   1.283   2.277
 2899SOL    HW218697   5.803   1.285   2.115
 2900SOL     OW18698   1.960   0.711   5.571
 2900SOL    HW118699   1.909   0.794   5.547
 2900SOL    HW218700   1.994   0.718   5.665
 2901SOL     OW18701   1.667   3.252   3.919
 2901SOL    HW118702   1.611   3.169   3.926
 2901SOL    HW218703   1.647   3.312   3.996
 2902SOL     OW18704   4.982   4.016   0.665
 2902SOL    HW118705   5.003   3.925   0.630
 2902SOL    HW218706   4.945   4.009   0.758
 2903SOL     OW18707   3.225   6.509   6.294
 2903SOL    HW118708   3.304   6.553   6.335
 2903SOL    HW218709   3.253   6.452   6.217
 2904SOL     OW18710   1.458   5.114   2.998
 2904SOL    HW118711   1.519   5.040   3.026
 2904SOL    HW218712   1.509   5.184   2.949
 2905SOL     OW18713   0.838   1.593   6.501
 2905SOL    HW118714   0.798   1.501   6.511
 2905SOL    HW218715   0.932   1.586   6.469
 2906SOL     OW18716   6.253   5.558   0.833
 2906SOL    HW118717   6.239   5.651   0.800
 2906SOL    HW218718   6.205   5.493   0.774
 2907SOL     OW18719   2.276   3.203   2.487
 2907SOL    HW118720   2.245   3.283   2.436
 2907SOL    HW218721   2.347   3.155   2.435
 2908SOL     OW18722   2.502   1.641   1.898
 2908SOL    HW118723   2.552   1.554   1.899
 2908SOL    HW218724   2.438   1.645   1.974
 2909SOL     OW18725   6.069   6.867   7.618
 2909SOL    HW118726   6.159   6.890   7.582
 2909SOL    HW218727   6.036   6.782   7.578
 2910SOL     OW18728   2.439   3.480   5.194
 2910SOL    HW118729   2.370   3.478   5.121
 2910SOL    HW218730   2.405   3.535   5.271
 2911SOL     OW18731   5.489   3.931   5.051
 2911SOL    HW118732   5.439   4.006   5.094
 2911SOL    HW218733   5.447   3.909   4.962
 2912SOL     OW18734   7.205   6.194   5.269
 2912SOL    HW118735   7.287   6.206   5.326
 2912SOL    HW218736   7.224   6.226   5.177
 2913SOL     OW18737   7.407   0.673   6.871
 2913SOL    HW118738   7.327   0.721   6.908
 2913SOL    HW218739   7.383   0.625   6.787
 2914SOL     OW18740   0.866   2.373   4.587
 2914SOL    HW118741   0.895   2.467   4.574
 2914SOL    HW218742   0.910   2.335   4.669
 2915SOL     OW18743   7.265   7.934   2.344
 2915SOL    HW118744   7.321   7.861   2.306
 2915SOL    HW218745   7.170   7.903   2.354
 2916SOL     OW18746   0.627   4.834   2.495
 2916SOL    HW118747   0.655   4.896   2.422
 2916SOL    HW218748   0.599   4.886   2.576
 2917SOL     OW18749   0.030   1.162   6.192
 2917SOL    HW118750   0.068   1.253   6.174
 2917SOL    HW218751   0.076   1.122   6.271
 2918SOL     OW18752   0.316   6.140   4.595
 2918SOL    HW118753   0.389   6.096   4.543
 2918SOL    HW218754   0.227   6.103   4.568
 2919SOL     OW18755   6.268   1.390   0.722
 2919SOL    HW118756   6.262   1.444   0.638
 2919SOL    HW218757   6.262   1.450   0.802
 2920SOL     OW18758   3.186   3.805   1.192
 2920SOL    HW118759   3.096   3.770   1.165
 2920SOL    HW218760   3.185   3.836   1.286
 2921SOL     OW18761   0.623   1.069   7.900
 2921SOL    HW118762   0.680   0.988   7.914
 2921SOL    HW218763   0.635   1.104   7.807
 2922SOL     OW18764   2.214   0.434   7.752
 2922SOL    HW118765   2.122   0.406   7.778
 2922SOL    HW218766   2.227   0.425   7.653
 2923SOL     OW18767   2.916   3.567   3.570
 2923SOL    HW118768   2.910   3.605   3.662
 2923SOL    HW218769   2.896   3.637   3.502
 2924SOL     OW18770   7.264   1.454   7.047
 2924SOL    HW118771   7.222   1.400   7.120
 2924SOL    HW218772   7.259   1.405   6.960
 2925SOL     OW18773   4.755   2.894   2.103
 2925SOL    HW118774   4.695   2.957   2.054
 2925SOL    HW218775   4.822   2.855   2.041
 2926SOL     OW18776   7.844   1.420   5.791
 2926SOL    HW118777   7.843   1.327   5.828
 2926SOL    HW218778   7.884   1.419   5.699
 2927SOL     OW18779   0.891   1.702   6.211
 2927SOL    HW118780   0.870   1.611   6.173
 2927SOL    HW218781   0.854   1.709   6.303
 2928SOL     OW18782   1.902   3.320   3.384
 2928SOL    HW118783   1.966   3.389   3.420
 2928SOL    HW218784   1.909   3.316   3.285
 2929SOL     OW18785   6.163   6.953   6.332
 2929SOL    HW118786   6.107   6.923   6.409
 2929SOL    HW218787   6.157   6.888   6.257
 2930SOL     OW18788   0.249   6.715   2.341
 2930SOL    HW118789   0.340   6.725   2.299
 2930SOL    HW218790   0.259   6.696   2.438
 2931SOL     OW18791   6.524   1.517   1.026
 2931SOL    HW118792   6.583   1.586   1.069
 2931SOL    HW218793   6.506   1.543   0.932
 2932SOL     OW18794   0.579   0.731   7.321
 2932SOL    HW118795   0.568   0.820   7.366
 2932SOL    HW218796   0.534   0.732   7.232
 2933SOL     OW18797   0.153   3.595   6.914
 2933SOL    HW118798   0.067   3.567   6.871
 2933SOL    HW218799   0.155   3.566   7.009
 2934SOL     OW18800   5.685   4.854   4.460
 2934SOL    HW118801   5.599   4.821   4.500
 2934SOL    HW218802   5.669   4.940   4.412
 2935SOL     OW18803   5.862   7.805   1.752
 2935SOL    HW118804   5.861   7.895   1.708
 2935SOL    HW218805   5.786   7.749   1.719
 2936SOL     OW18806   0.510   1.741   5.403
 2936SOL    HW118807   0.609   1.724   5.404
 2936SOL    HW218808   0.463   1.668   5.453
 2937SOL     OW18809   0.943   4.240   7.309
 2937SOL    HW118810   0.848   4.263   7.291
 2937SOL    HW218811   0.967   4.263   7.403
 2938SOL     OW18812   1.220   3.920   5.007
 2938SOL    HW118813   1.136   3.956   5.048
 2938SOL    HW218814   1.224   3.947   4.911
 2939SOL     OW18815   0.614   1.459   6.678
 2939SOL    HW118816   0.667   1.544   6.683
 2939SOL    HW218817   0.534   1.472   6.620
 2940SOL     OW18818   7.579   6.455   1.009
 2940SOL    HW118819   7.481   6.446   0.992
 2940SOL    HW218820   7.595   6.507   1.093
 2941SOL     OW18821   4.006   4.998   5.014
 2941SOL    HW118822   3.931   5.000   4.948
 2941SOL    HW218823   4.044   4.906   5.020
 2942SOL     OW18824   4.627   5.964   0.403
 2942SOL    HW118825   4.664   5.981   0.311
 2942SOL    HW218826   4.673   5.885   0.443
 2943SOL     OW18827   1.116   0.440   3.938
 2943SOL    HW118828   1.060   0.358   3.925
 2943SOL    HW218829   1.074   0.500   4.006
 2944SOL     OW18830   1.983   4.743   2.005
 2944SOL    HW118831   2.033   4.819   2.048
 2944SOL    HW218832   1.925   4.778   1.931
 2945SOL     OW18833   1.040   6.649   1.584
 2945SOL    HW118834   1.136   6.641   1.608
 2945SOL    HW218835   1.031   6.677   1.488
 2946SOL     OW18836   7.474   2.617   6.450
 2946SOL    HW118837   7.452   2.689   6.384
 2946SOL    HW218838   7.390   2.580   6.490
 2947SOL     OW18839   0.039   0.750   7.815
 2947SOL    HW118840   0.051   0.717   7.909
 2947SOL    HW218841   0.060   0.847   7.811
 2948SOL     OW18842   2.600   0.163   4.420
 2948SOL    HW118843   2.539   0.140   4.344
 2948SOL    HW218844   2.563   0.240   4.472
 2949SOL     OW18845   4.408   1.745   4.793
 2949SOL    HW118846   4.491   1.699   4.761
 2949SOL    HW218847   4.399   1.834   4.749
 2950SOL     OW18848   7.388   5.078   3.193
 2950SOL    HW118849   7.392   5.160   3.136
 2950SOL    HW218850   7.478   5.061   3.234
 2951SOL     OW18851   6.496   1.302   1.865
 2951SOL    HW118852   6.475   1.377   1.927
 2951SOL    HW218853   6.589   1.269   1.882
 2952SOL     OW18854   0.526   4.936   7.819
 2952SOL    HW118855   0.624   4.922   7.804
 2952SOL    HW218856   0.498   4.893   7.905
 2953SOL     OW18857   5.089   5.714   2.108
 2953SOL    HW118858   5.141   5.770   2.173
 2953SOL    HW218859   4.994   5.708   2.137
 2954SOL     OW18860   7.834   6.483   6.888
 2954SOL    HW118861   7.787   6.515   6.806
 2954SOL    HW218862   7.811   6.387   6.904
 2955SOL     OW18863   3.851   5.330   5.243
 2955SOL    HW118864   3.914   5.331   5.165
 2955SOL    HW218865   3.898   5.362   5.325
 2956SOL     OW18866   2.079   7.973   0.090
 2956SOL    HW118867   2.021   7.935   0.018
 2956SOL    HW218868   2.056   7.930   0.178
 2957SOL     OW18869   1.998   5.755   7.101
 2957SOL    HW118870   2.008   5.835   7.160
 2957SOL    HW218871   2.048   5.769   7.016
 2958SOL     OW18872   1.467   5.911   1.402
 2958SOL    HW118873   1.565   5.901   1.386
 2958SOL    HW218874   1.434   5.997   1.364
 2959SOL     OW18875   2.308   2.710   1.496
 2959SOL    HW118876   2.350   2.627   1.532
 2959SOL    HW218877   2.224   2.688   1.446
 2960SOL     OW18878   0.025   5.727   1.432
 2960SOL    HW118879  -0.045   5.794   1.454
 2960SOL    HW218880  -0.013   5.655   1.374
 2961SOL     OW18881   3.736   4.360   3.810
 2961SOL    HW118882   3.814   4.374   3.749
 2961SOL    HW218883   3.766   4.316   3.895
 2962SOL     OW18884   0.545   2.408   6.798
 2962SOL    HW118885   0.457   2.388   6.756
 2962SOL    HW218886   0.531   2.450   6.888
 2963SOL     OW18887   2.261   7.649   1.338
 2963SOL    HW118888   2.240   7.746   1.343
 2963SOL    HW218889   2.326   7.624   1.410
 2964SOL     OW18890   4.845   7.298   3.356
 2964SOL    HW118891   4.843   7.398   3.361
 2964SOL    HW218892   4.926   7.264   3.404
 2965SOL     OW18893   6.040   3.828   6.095
 2965SOL    HW118894   5.942   3.832   6.114
 2965SOL    HW218895   6.058   3.757   6.027
 2966SOL     OW18896   2.250   0.164   1.838
 2966SOL    HW118897   2.170   0.104   1.833
 2966SOL    HW218898   2.275   0.179   1.934
 2967SOL     OW18899   5.087   3.898   2.814
 2967SOL    HW118900   5.154   3.845   2.763
 2967SOL    HW218901   5.058   3.977   2.761
 2968SOL     OW18902   4.175   4.642   2.544
 2968SOL    HW118903   4.252   4.622   2.605
 2968SOL    HW218904   4.090   4.642   2.596
 2969SOL     OW18905   4.822   5.473   1.977
 2969SOL    HW118906   4.860   5.557   2.016
 2969SOL    HW218907   4.801   5.408   2.050
 2970SOL     OW18908   3.788   6.382   6.143
 2970SOL    HW118909   3.801   6.327   6.060
 2970SOL    HW218910   3.750   6.471   6.120
 2971SOL     OW18911   5.912   3.745   7.023
 2971SOL    HW118912   5.860   3.818   6.978
 2971SOL    HW218913   5.852   3.668   7.044
 2972SOL     OW18914   6.969   2.242   2.610
 2972SOL    HW118915   7.019   2.273   2.529
 2972SOL    HW218916   7.032   2.196   2.673
 2973SOL     OW18917   6.334   1.647   7.362
 2973SOL    HW118918   6.355   1.559   7.404
 2973SOL    HW218919   6.290   1.707   7.429
 2974SOL     OW18920   5.554   5.385   6.335
 2974SOL    HW118921   5.644   5.342   6.347
 2974SOL    HW218922   5.529   5.435   6.418
 2975SOL     OW18923   6.739   2.077   5.014
 2975SOL    HW118924   6.826   2.035   4.986
 2975SOL    HW218925   6.722   2.058   5.110
 2976SOL     OW18926   4.696   0.690   6.849
 2976SOL    HW118927   4.748   0.703   6.933
 2976SOL    HW218928   4.638   0.769   6.832
 2977SOL     OW18929   5.474   5.540   6.951
 2977SOL    HW118930   5.469   5.638   6.932
 2977SOL    HW218931   5.466   5.488   6.866
 2978SOL     OW18932   5.551   0.526   4.082
 2978SOL    HW118933   5.587   0.439   4.115
 2978SOL    HW218934   5.569   0.536   3.985
 2979SOL     OW18935   1.265   1.219   0.018
 2979SOL    HW118936   1.235   1.125   0.034
 2979SOL    HW218937   1.349   1.238   0.068
 2980SOL     OW18938   5.742   4.174   3.363
 2980SOL    HW118939   5.645   4.149   3.365
 2980SOL    HW218940   5.791   4.128   3.437
 2981SOL     OW18941   0.782   2.094   7.351
 2981SOL    HW118942   0.699   2.128   7.396
 2981SOL    HW218943   0.772   2.101   7.252
 2982SOL     OW18944   0.027   0.217   1.284
 2982SOL    HW118945  -0.045   0.230   1.353
 2982SOL    HW218946   0.113   0.255   1.317
 2983SOL     OW18947   6.049   6.688   6.962
 2983SOL    HW118948   6.110   6.725   6.892
 2983SOL    HW218949   6.084   6.601   6.996
 2984SOL     OW18950   5.885   7.535   5.258
 2984SOL    HW118951   5.949   7.580   5.195
 2984SOL    HW218952   5.926   7.528   5.349
 2985SOL     OW18953   5.516   5.213   0.772
 2985SOL    HW118954   5.598   5.269   0.757
 2985SOL    HW218955   5.540   5.116   0.770
 2986SOL     OW18956   1.354   4.760   6.187
 2986SOL    HW118957   1.261   4.786   6.159
 2986SOL    HW218958   1.404   4.724   6.108
 2987SOL     OW18959   5.730   0.563   6.717
 2987SOL    HW118960   5.650   0.608   6.676
 2987SOL    HW218961   5.752   0.605   6.805
 2988SOL     OW18962   0.478   1.075   0.018
 2988SOL    HW118963   0.516   1.086   0.110
 2988SOL    HW218964   0.378   1.079   0.022
 2989SOL     OW18965   0.541   0.173   7.666
 2989SOL    HW118966   0.519   0.083   7.703
 2989SOL    HW218967   0.578   0.165   7.574
 2990SOL     OW18968   0.695   5.499   7.696
 2990SOL    HW118969   0.701   5.399   7.699
 2990SOL    HW218970   0.733   5.533   7.610
 2991SOL     OW18971   0.767   4.247   0.343
 2991SOL    HW118972   0.703   4.180   0.305
 2991SOL    HW218973   0.737   4.275   0.435
 2992SOL     OW18974   2.194   2.657   3.128
 2992SOL    HW118975   2.212   2.565   3.093
 2992SOL    HW218976   2.095   2.673   3.132
 2993SOL     OW18977   7.302   7.947   7.553
 2993SOL    HW118978   7.378   7.976   7.611
 2993SOL    HW218979   7.320   7.972   7.458
 2994SOL     OW18980   3.844   1.741   1.446
 2994SOL    HW118981   3.888   1.705   1.363
 2994SOL    HW218982   3.872   1.688   1.526
 2995SOL     OW18983   7.125   5.091   7.453
 2995SOL    HW118984   7.114   5.188   7.429
 2995SOL    HW218985   7.220   5.073   7.479
 2996SOL     OW18986   2.954   5.129   4.860
 2996SOL    HW118987   2.972   5.107   4.956
 2996SOL    HW218988   2.856   5.125   4.842
 2997SOL     OW18989   7.279   4.135   3.478
 2997SOL    HW118990   7.319   4.046   3.455
 2997SOL    HW218991   7.348   4.195   3.518
 2998SOL     OW18992   6.642   3.388   6.533
 2998SOL    HW118993   6.595   3.398   6.445
 2998SOL    HW218994   6.583   3.339   6.598
 2999SOL     OW18995   1.937   2.739   1.944
 2999SOL    HW118996   1.851   2.727   1.894
 2999SOL    HW218997   1.989   2.653   1.942
 3000SOL     OW18998   1.293   7.491   5.224
 3000SOL    HW118999   1.274   7.586   5.200
 3000SOL    HW219000   1.208   7.444   5.251
 3001SOL     OW19001   5.884   4.923   6.425
 3001SOL    HW119002   5.877   5.002   6.364
 3001SOL    HW219003   5.949   4.942   6.498
 3002SOL     OW19004   7.726   3.812   6.234
 3002SOL    HW119005   7.816   3.820   6.192
 3002SOL    HW219006   7.731   3.756   6.316
 3003SOL     OW19007   4.501   2.775   2.598
 3003SOL    HW119008   4.423   2.817   2.552
 3003SOL    HW219009   4.555   2.845   2.644
 3004SOL     OW19010   6.331   4.458   2.083
 3004SOL    HW119011   6.281   4.534   2.124
 3004SOL    HW219012   6.299   4.442   1.990
 3005SOL     OW19013   2.757   2.173   0.974
 3005SOL    HW119014   2.824   2.245   0.956
 3005SOL    HW219015   2.732   2.128   0.888
 3006SOL     OW19016   1.833   2.157   4.866
 3006SOL    HW119017   1.880   2.077   4.829
 3006SOL    HW219018   1.762   2.129   4.930
 3007SOL     OW19019   3.359   0.493   7.913
 3007SOL    HW119020   3.285   0.534   7.860
 3007SOL    HW219021   3.419   0.441   7.852
 3008SOL     OW19022   4.994   4.219   1.548
 3008SOL    HW119023   4.991   4.317   1.526
 3008SOL    HW219024   4.910   4.176   1.516
 3009SOL     OW19025   5.219   6.995   6.436
 3009SOL    HW119026   5.184   6.960   6.349
 3009SOL    HW219027   5.173   6.951   6.513
 3010SOL     OW19028   2.403   4.179   3.830
 3010SOL    HW119029   2.307   4.171   3.859
 3010SOL    HW219030   2.450   4.246   3.888
 3011SOL     OW19031   4.499   4.375   3.183
 3011SOL    HW119032   4.443   4.452   3.151
 3011SOL    HW219033   4.500   4.372   3.282
 3012SOL     OW19034   4.601   6.727   7.630
 3012SOL    HW119035   4.608   6.632   7.661
 3012SOL    HW219036   4.682   6.751   7.578
 3013SOL     OW19037   4.481   0.113   4.427
 3013SOL    HW119038   4.529   0.126   4.514
 3013SOL    HW219039   4.537   0.146   4.351
 3014SOL     OW19040   5.229   7.600   2.420
 3014SOL    HW119041   5.322   7.597   2.383
 3014SOL    HW219042   5.228   7.564   2.513
 3015SOL     OW19043   1.910   4.756   4.621
 3015SOL    HW119044   1.869   4.834   4.574
 3015SOL    HW219045   1.992   4.785   4.671
 3016SOL     OW19046   4.660   0.449   4.636
 3016SOL    HW119047   4.595   0.429   4.563
 3016SOL    HW219048   4.725   0.519   4.606
 3017SOL     OW19049   3.960   1.907   5.295
 3017SOL    HW119050   4.025   1.849   5.246
 3017SOL    HW219051   3.965   1.888   5.393
 3018SOL     OW19052   3.450   4.207   7.803
 3018SOL    HW119053   3.544   4.173   7.813
 3018SOL    HW219054   3.441   4.258   7.717
 3019SOL     OW19055   3.354   1.819   1.817
 3019SOL    HW119056   3.417   1.887   1.778
 3019SOL    HW219057   3.367   1.813   1.916
 3020SOL     OW19058   6.782   7.390   5.366
 3020SOL    HW119059   6.746   7.466   5.420
 3020SOL    HW219060   6.707   7.344   5.319
 3021SOL     OW19061   5.506   4.075   4.387
 3021SOL    HW119062   5.483   4.166   4.423
 3021SOL    HW219063   5.464   4.062   4.298
 3022SOL     OW19064   1.016   0.205   3.544
 3022SOL    HW119065   1.090   0.148   3.581
 3022SOL    HW219066   1.034   0.228   3.449
 3023SOL     OW19067   0.444   1.520   5.001
 3023SOL    HW119068   0.487   1.446   5.053
 3023SOL    HW219069   0.385   1.481   4.930
 3024SOL     OW19070   5.054   4.538   2.879
 3024SOL    HW119071   5.142   4.537   2.926
 3024SOL    HW219072   5.051   4.615   2.815
 3025SOL     OW19073   3.646   5.446   3.248
 3025SOL    HW119074   3.661   5.354   3.283
 3025SOL    HW219075   3.682   5.454   3.156
 3026SOL     OW19076   3.775   4.670   3.339
 3026SOL    HW119077   3.848   4.655   3.406
 3026SOL    HW219078   3.752   4.584   3.294
 3027SOL     OW19079   4.673   5.001   4.835
 3027SOL    HW119080   4.588   5.038   4.871
 3027SOL    HW219081   4.677   4.902   4.851
 3028SOL     OW19082   6.205   3.803   3.580
 3028SOL    HW119083   6.290   3.768   3.541
 3028SOL    HW219084   6.195   3.773   3.675
 3029SOL     OW19085   7.213   7.495   0.823
 3029SOL    HW119086   7.271   7.421   0.859
 3029SOL    HW219087   7.248   7.525   0.734
 3030SOL     OW19088   7.416   4.656   0.110
 3030SOL    HW119089   7.378   4.572   0.071
 3030SOL    HW219090   7.345   4.706   0.159
 3031SOL     OW19091   4.274   7.116   6.352
 3031SOL    HW119092   4.229   7.196   6.313
 3031SOL    HW219093   4.339   7.078   6.286
 3032SOL     OW19094   3.278   3.113   6.336
 3032SOL    HW119095   3.179   3.122   6.343
 3032SOL    HW219096   3.314   3.067   6.417
 3033SOL     OW19097   1.698   6.224   2.256
 3033SOL    HW119098   1.694   6.125   2.269
 3033SOL    HW219099   1.607   6.260   2.236
 3034SOL     OW19100   6.604   2.168   5.856
 3034SOL    HW119101   6.550   2.115   5.790
 3034SOL    HW219102   6.680   2.112   5.891
 3035SOL     OW19103   5.516   5.144   4.373
 3035SOL    HW119104   5.442   5.138   4.306
 3035SOL    HW219105   5.514   5.233   4.419
 3036SOL     OW19106   3.051   0.639   2.094
 3036SOL    HW119107   3.080   0.587   2.014
 3036SOL    HW219108   3.091   0.731   2.091
 3037SOL     OW19109   2.353   3.139   1.107
 3037SOL    HW119110   2.317   3.175   1.021
 3037SOL    HW219111   2.408   3.058   1.089
 3038SOL     OW19112   4.854   0.880   1.842
 3038SOL    HW119113   4.912   0.888   1.760
 3038SOL    HW219114   4.825   0.971   1.872
 3039SOL     OW19115   1.660   7.691   4.805
 3039SOL    HW119116   1.711   7.768   4.765
 3039SOL    HW219117   1.687   7.679   4.900
 3040SOL     OW19118   0.902   4.908   3.746
 3040SOL    HW119119   0.916   5.007   3.748
 3040SOL    HW219120   0.857   4.879   3.831
 3041SOL     OW19121   5.776   2.887   5.801
 3041SOL    HW119122   5.782   2.967   5.741
 3041SOL    HW219123   5.688   2.841   5.788
 3042SOL     OW19124   6.324   5.823   5.958
 3042SOL    HW119125   6.323   5.749   5.890
 3042SOL    HW219126   6.272   5.795   6.038
 3043SOL     OW19127   1.090   2.679   5.172
 3043SOL    HW119128   1.085   2.737   5.254
 3043SOL    HW219129   1.031   2.716   5.100
 3044SOL     OW19130   2.742   7.041   6.992
 3044SOL    HW119131   2.839   7.018   6.982
 3044SOL    HW219132   2.685   6.964   6.965
 3045SOL     OW19133   3.192   1.544   3.065
 3045SOL    HW119134   3.262   1.594   3.116
 3045SOL    HW219135   3.189   1.577   2.970
 3046SOL     OW19136   2.812   1.476   1.583
 3046SOL    HW119137   2.854   1.531   1.511
 3046SOL    HW219138   2.718   1.454   1.558
 3047SOL     OW19139   1.707   0.526   4.746
 3047SOL    HW119140   1.741   0.440   4.783
 3047SOL    HW219141   1.764   0.555   4.669
 3048SOL     OW19142   1.861   2.998   5.297
 3048SOL    HW119143   1.821   3.022   5.385
 3048SOL    HW219144   1.840   2.902   5.275
 3049SOL     OW19145   1.692   1.119   2.406
 3049SOL    HW119146   1.628   1.106   2.482
 3049SOL    HW219147   1.643   1.115   2.319
 3050SOL     OW19148   4.608   2.891   3.031
 3050SOL    HW119149   4.592   2.811   3.090
 3050SOL    HW219150   4.685   2.874   2.970
 3051SOL     OW19151   4.292   3.556   0.146
 3051SOL    HW119152   4.271   3.602   0.059
 3051SOL    HW219153   4.343   3.472   0.128
 3052SOL     OW19154   7.318   1.160   8.018
 3052SOL    HW119155   7.291   1.096   7.945
 3052SOL    HW219156   7.279   1.250   8.000
 3053SOL     OW19157   0.642   3.930   0.642
 3053SOL    HW119158   0.693   3.846   0.659
 3053SOL    HW219159   0.703   4.001   0.607
 3054SOL     OW19160   7.689   6.446   7.077
 3054SOL    HW119161   7.673   6.534   7.122
 3054SOL    HW219162   7.607   6.419   7.026
 3055SOL     OW19163   0.520   1.694   0.588
 3055SOL    HW119164   0.590   1.719   0.521
 3055SOL    HW219165   0.447   1.641   0.544
 3056SOL     OW19166   1.753   5.310   3.551
 3056SOL    HW119167   1.774   5.297   3.648
 3056SOL    HW219168   1.709   5.229   3.514
 3057SOL     OW19169   2.576   5.281   3.107
 3057SOL    HW119170   2.524   5.233   3.037
 3057SOL    HW219171   2.671   5.294   3.077
 3058SOL     OW19172   0.934   7.597   0.610
 3058SOL    HW119173   0.927   7.497   0.615
 3058SOL    HW219174   0.918   7.637   0.700
 3059SOL     OW19175   5.945   7.418   0.252
 3059SOL    HW119176   5.920   7.460   0.339
 3059SOL    HW219177   5.897   7.331   0.241
 3060SOL     OW19178   4.614   2.829   7.684
 3060SOL    HW119179   4.695   2.878   7.651
 3060SOL    HW219180   4.634   2.784   7.770
 3061SOL     OW19181   1.103   0.443   3.522
 3061SOL    HW119182   1.156   0.373   3.570
 3061SOL    HW219183   1.133   0.450   3.427
 3062SOL     OW19184   2.173   5.508   1.954
 3062SOL    HW119185   2.091   5.463   1.988
 3062SOL    HW219186   2.193   5.477   1.861
 3063SOL     OW19187   3.710   7.025   7.322
 3063SOL    HW119188   3.790   7.000   7.268
 3063SOL    HW219189   3.685   6.949   7.382
 3064SOL     OW19190   5.672   1.586   6.127
 3064SOL    HW119191   5.736   1.510   6.127
 3064SOL    HW219192   5.677   1.635   6.040
 3065SOL     OW19193   0.503   1.581   0.339
 3065SOL    HW119194   0.450   1.501   0.365
 3065SOL    HW219195   0.458   1.629   0.264
 3066SOL     OW19196   3.548   2.975   1.154
 3066SOL    HW119197   3.451   2.957   1.138
 3066SOL    HW219198   3.559   3.039   1.230
 3067SOL     OW19199   4.911   2.873   6.160
 3067SOL    HW119200   5.001   2.891   6.199
 3067SOL    HW219201   4.920   2.842   6.065
 3068SOL     OW19202   6.014   2.488   5.975
 3068SOL    HW119203   6.023   2.425   5.898
 3068SOL    HW219204   6.104   2.512   6.011
 3069SOL     OW19205   2.077   0.985   2.214
 3069SOL    HW119206   2.083   1.084   2.229
 3069SOL    HW219207   2.098   0.936   2.299
 3070SOL     OW19208   5.534   5.379   3.521
 3070SOL    HW119209   5.616   5.413   3.568
 3070SOL    HW219210   5.560   5.304   3.460
 3071SOL     OW19211   1.399   1.366   6.018
 3071SOL    HW119212   1.318   1.403   6.062
 3071SOL    HW219213   1.378   1.342   5.923
 3072SOL     OW19214   6.740   2.956   0.280
 3072SOL    HW119215   6.686   2.946   0.197
 3072SOL    HW219216   6.699   3.025   0.339
 3073SOL     OW19217   1.738   0.499   6.403
 3073SOL    HW119218   1.807   0.568   6.426
 3073SOL    HW219219   1.656   0.544   6.369
 3074SOL     OW19220   5.777   2.443   7.902
 3074SOL    HW119221   5.697   2.498   7.929
 3074SOL    HW219222   5.762   2.347   7.925
 3075SOL     OW19223   2.817   6.874   4.285
 3075SOL    HW119224   2.769   6.905   4.202
 3075SOL    HW219225   2.908   6.840   4.261
 3076SOL     OW19226   6.040   0.587   7.619
 3076SOL    HW119227   6.003   0.680   7.608
 3076SOL    HW219228   6.130   0.581   7.577
 3077SOL     OW19229   5.487   3.986   3.342
 3077SOL    HW119230   5.449   3.896   3.321
 3077SOL    HW219231   5.509   3.992   3.439
 3078SOL     OW19232   3.706   4.592   6.825
 3078SOL    HW119233   3.697   4.507   6.773
 3078SOL    HW219234   3.617   4.637   6.835
 3079SOL     OW19235   7.495   3.434   4.098
 3079SOL    HW119236   7.421   3.472   4.044
 3079SOL    HW219237   7.458   3.377   4.172
 3080SOL     OW19238   3.923   4.236   4.391
 3080SOL    HW119239   3.850   4.189   4.341
 3080SOL    HW219240   3.892   4.261   4.483
 3081SOL     OW19241   2.601   2.866   6.325
 3081SOL    HW119242   2.565   2.779   6.292
 3081SOL    HW219243   2.567   2.884   6.417
 3082SOL     OW19244   3.727   0.361   4.780
 3082SOL    HW119245   3.756   0.415   4.859
 3082SOL    HW219246   3.742   0.264   4.798
 3083SOL     OW19247   7.149   3.711   5.250
 3083SOL    HW119248   7.162   3.624   5.202
 3083SOL    HW219249   7.068   3.706   5.309
 3084SOL     OW19250   0.602   3.140   5.490
 3084SOL    HW119251   0.556   3.058   5.525
 3084SOL    HW219252   0.697   3.120   5.469
 3085SOL     OW19253   1.350   2.451   0.045
 3085SOL    HW119254   1.413   2.373   0.042
 3085SOL    HW219255   1.271   2.429   0.103
 3086SOL     OW19256   3.319   3.548   1.178
 3086SOL    HW119257   3.360   3.633   1.210
 3086SOL    HW219258   3.271   3.563   1.092
 3087SOL     OW19259   3.294   2.341   6.203
 3087SOL    HW119260   3.209   2.299   6.169
 3087SOL    HW219261   3.362   2.271   6.221
 3088SOL     OW19262   0.294   4.370   0.609
 3088SOL    HW119263   0.197   4.366   0.586
 3088SOL    HW219264   0.328   4.279   0.632
 3089SOL     OW19265   4.604   6.303   5.631
 3089SOL    HW119266   4.596   6.277   5.727
 3089SOL    HW219267   4.577   6.227   5.572
 3090SOL     OW19268   4.769   6.617   5.791
 3090SOL    HW119269   4.693   6.567   5.833
 3090SOL    HW219270   4.853   6.562   5.797
 3091SOL     OW19271   2.411   2.746   5.276
 3091SOL    HW119272   2.323   2.758   5.322
 3091SOL    HW219273   2.397   2.704   5.186
 3092SOL     OW19274   1.052   0.135   6.134
 3092SOL    HW119275   1.078   0.217   6.185
 3092SOL    HW219276   1.131   0.074   6.125
 3093SOL     OW19277   4.802   2.993   0.715
 3093SOL    HW119278   4.883   2.945   0.681
 3093SOL    HW219279   4.779   2.960   0.807
 3094SOL     OW19280   5.240   5.928   2.982
 3094SOL    HW119281   5.315   5.983   2.947
 3094SOL    HW219282   5.159   5.985   2.994
 3095SOL     OW19283   3.033   6.898   4.090
 3095SOL    HW119284   3.099   6.969   4.062
 3095SOL    HW219285   3.081   6.813   4.110
 3096SOL     OW19286   3.990   5.407   2.594
 3096SOL    HW119287   4.039   5.416   2.507
 3096SOL    HW219288   3.920   5.479   2.601
 3097SOL     OW19289   5.784   6.762   7.974
 3097SOL    HW119290   5.708   6.711   7.934
 3097SOL    HW219291   5.750   6.845   8.018
 3098SOL     OW19292   7.898   1.887   1.999
 3098SOL    HW119293   7.825   1.927   2.055
 3098SOL    HW219294   7.923   1.797   2.036
 3099SOL     OW19295   3.010   5.912   7.496
 3099SOL    HW119296   3.000   5.920   7.396
 3099SOL    HW219297   2.929   5.948   7.541
 3100SOL     OW19298   4.255   2.546   6.738
 3100SOL    HW119299   4.290   2.461   6.699
 3100SOL    HW219300   4.226   2.530   6.832
 3101SOL     OW19301   3.804   5.203   5.979
 3101SOL    HW119302   3.740   5.170   6.048
 3101SOL    HW219303   3.782   5.163   5.890
 3102SOL     OW19304   5.709   2.585   5.496
 3102SOL    HW119305   5.732   2.682   5.483
 3102SOL    HW219306   5.768   2.528   5.439
 3103SOL     OW19307   2.928   3.428   2.088
 3103SOL    HW119308   3.012   3.392   2.046
 3103SOL    HW219309   2.885   3.358   2.144
 3104SOL     OW19310   5.342   4.721   5.188
 3104SOL    HW119311   5.424   4.704   5.242
 3104SOL    HW219312   5.367   4.741   5.093
 3105SOL     OW19313   2.471   6.838   6.674
 3105SOL    HW119314   2.472   6.934   6.647
 3105SOL    HW219315   2.564   6.804   6.685
 3106SOL     OW19316   5.310   3.590   7.054
 3106SOL    HW119317   5.261   3.641   6.983
 3106SOL    HW219318   5.363   3.516   7.012
 3107SOL     OW19319   4.266   5.800   2.277
 3107SOL    HW119320   4.195   5.865   2.250
 3107SOL    HW219321   4.308   5.827   2.363
 3108SOL     OW19322   5.988   5.832   6.062
 3108SOL    HW119323   5.924   5.778   6.007
 3108SOL    HW219324   5.938   5.893   6.123
 3109SOL     OW19325   6.480   0.994   6.771
 3109SOL    HW119326   6.512   1.082   6.736
 3109SOL    HW219327   6.450   1.003   6.865
 3110SOL     OW19328   7.515   2.350   0.776
 3110SOL    HW119329   7.612   2.350   0.753
 3110SOL    HW219330   7.477   2.258   0.765
 3111SOL     OW19331   1.618   5.352   6.680
 3111SOL    HW119332   1.575   5.435   6.716
 3111SOL    HW219333   1.631   5.286   6.754
 3112SOL     OW19334   3.851   7.328   2.422
 3112SOL    HW119335   3.949   7.308   2.425
 3112SOL    HW219336   3.808   7.278   2.347
 3113SOL     OW19337   0.620   4.028   5.045
 3113SOL    HW119338   0.544   4.033   4.979
 3113SOL    HW219339   0.670   3.942   5.033
 3114SOL     OW19340   0.148   0.455   6.336
 3114SOL    HW119341   0.058   0.475   6.374
 3114SOL    HW219342   0.138   0.414   6.245
 3115SOL     OW19343   7.445   7.342   6.346
 3115SOL    HW119344   7.375   7.381   6.406
 3115SOL    HW219345   7.436   7.243   6.344
 3116SOL     OW19346   3.078   4.595   1.040
 3116SOL    HW119347   3.012   4.634   1.105
 3116SOL    HW219348   3.125   4.669   0.991
 3117SOL     OW19349   2.249   3.404   0.267
 3117SOL    HW119350   2.327   3.341   0.268
 3117SOL    HW219351   2.189   3.384   0.190
 3118SOL     OW19352   5.922   3.760   4.246
 3118SOL    HW119353   6.001   3.713   4.206
 3118SOL    HW219354   5.919   3.744   4.344
 3119SOL     OW19355   5.974   7.207   4.912
 3119SOL    HW119356   5.992   7.109   4.906
 3119SOL    HW219357   5.921   7.228   4.994
 3120SOL     OW19358   0.488   6.027   6.061
 3120SOL    HW119359   0.561   5.971   6.101
 3120SOL    HW219360   0.522   6.073   5.979
 3121SOL     OW19361   4.903   1.015   6.431
 3121SOL    HW119362   4.965   0.948   6.390
 3121SOL    HW219363   4.888   0.995   6.528
 3122SOL     OW19364   7.711   5.533   0.745
 3122SOL    HW119365   7.806   5.506   0.729
 3122SOL    HW219366   7.651   5.488   0.679
 3123SOL     OW19367   7.821   5.852   1.108
 3123SOL    HW119368   7.894   5.918   1.091
 3123SOL    HW219369   7.747   5.865   1.043
 3124SOL     OW19370   5.409   6.651   3.514
 3124SOL    HW119371   5.425   6.720   3.443
 3124SOL    HW219372   5.419   6.559   3.474
 3125SOL     OW19373   4.714   3.940   6.547
 3125SOL    HW119374   4.667   4.016   6.501
 3125SOL    HW219375   4.664   3.854   6.530
 3126SOL     OW19376   5.817   7.074   5.120
 3126SOL    HW119377   5.830   7.152   5.180
 3126SOL    HW219378   5.724   7.038   5.130
 3127SOL     OW19379   4.046   1.595   7.299
 3127SOL    HW119380   3.955   1.610   7.260
 3127SOL    HW219381   4.051   1.633   7.391
 3128SOL     OW19382   1.001   7.286   5.430
 3128SOL    HW119383   1.095   7.265   5.460
 3128SOL    HW219384   1.003   7.328   5.339
 3129SOL     OW19385   1.439   1.243   6.579
 3129SOL    HW119386   1.516   1.224   6.518
 3129SOL    HW219387   1.455   1.201   6.668
 3130SOL     OW19388   1.731   4.472   7.977
 3130SOL    HW119389   1.787   4.530   7.916
 3130SOL    HW219390   1.640   4.459   7.938
 3131SOL     OW19391   2.544   4.894   7.710
 3131SOL    HW119392   2.492   4.831   7.769
 3131SOL    HW219393   2.622   4.931   7.760
 3132SOL     OW19394   5.746   3.517   0.719
 3132SOL    HW119395   5.662   3.467   0.738
 3132SOL    HW219396   5.809   3.459   0.667
 3133SOL     OW19397   4.287   5.525   2.169
 3133SOL    HW119398   4.191   5.530   2.197
 3133SOL    HW219399   4.340   5.597   2.213
 3134SOL     OW19400   3.010   1.831   0.173
 3134SOL    HW119401   2.969   1.741   0.188
 3134SOL    HW219402   3.090   1.843   0.232
 3135SOL     OW19403   3.094   4.472   2.042
 3135SOL    HW119404   3.116   4.381   2.005
 3135SOL    HW219405   3.056   4.462   2.134
 3136SOL     OW19406   2.255   7.011   3.556
 3136SOL    HW119407   2.283   7.105   3.576
 3136SOL    HW219408   2.189   6.980   3.624
 3137SOL     OW19409   3.636   7.989   5.252
 3137SOL    HW119410   3.568   7.977   5.325
 3137SOL    HW219411   3.634   7.910   5.191
 3138SOL     OW19412   4.069   3.485   7.848
 3138SOL    HW119413   4.135   3.410   7.854
 3138SOL    HW219414   3.991   3.467   7.908
 3139SOL     OW19415   5.142   4.304   6.085
 3139SOL    HW119416   5.169   4.216   6.046
 3139SOL    HW219417   5.130   4.371   6.012
 3140SOL     OW19418   1.613   1.120   1.762
 3140SOL    HW119419   1.580   1.212   1.782
 3140SOL    HW219420   1.565   1.082   1.683
 3141SOL     OW19421   5.005   4.472   4.164
 3141SOL    HW119422   5.008   4.386   4.215
 3141SOL    HW219423   5.041   4.457   4.071
 3142SOL     OW19424   4.266   1.502   4.701
 3142SOL    HW119425   4.362   1.503   4.676
 3142SOL    HW219426   4.255   1.491   4.800
 3143SOL     OW19427   1.899   7.592   1.655
 3143SOL    HW119428   1.937   7.516   1.707
 3143SOL    HW219429   1.946   7.601   1.568
 3144SOL     OW19430   1.063   7.077   0.659
 3144SOL    HW119431   1.047   7.065   0.757
 3144SOL    HW219432   1.100   6.993   0.619
 3145SOL     OW19433   6.050   1.675   3.098
 3145SOL    HW119434   6.038   1.598   3.035
 3145SOL    HW219435   6.147   1.700   3.104
 3146SOL     OW19436   7.071   4.295   5.384
 3146SOL    HW119437   7.139   4.368   5.379
 3146SOL    HW219438   7.005   4.315   5.456
 3147SOL     OW19439   2.767   1.946   4.516
 3147SOL    HW119440   2.736   2.042   4.514
 3147SOL    HW219441   2.791   1.920   4.609
 3148SOL     OW19442   1.756   4.444   1.887
 3148SOL    HW119443   1.677   4.504   1.906
 3148SOL    HW219444   1.784   4.398   1.971
 3149SOL     OW19445   1.835   0.771   6.168
 3149SOL    HW119446   1.915   0.712   6.158
 3149SOL    HW219447   1.784   0.746   6.251
 3150SOL     OW19448   2.108   4.251   6.475
 3150SOL    HW119449   2.164   4.284   6.551
 3150SOL    HW219450   2.037   4.190   6.509
 3151SOL     OW19451   2.357   0.559   2.892
 3151SOL    HW119452   2.395   0.474   2.856
 3151SOL    HW219453   2.312   0.542   2.980
 3152SOL     OW19454   4.513   6.418   1.837
 3152SOL    HW119455   4.541   6.329   1.875
 3152SOL    HW219456   4.555   6.430   1.747
 3153SOL     OW19457   7.338   2.189   6.912
 3153SOL    HW119458   7.414   2.168   6.850
 3153SOL    HW219459   7.367   2.256   6.980
 3154SOL     OW19460   1.855   3.291   5.441
 3154SOL    HW119461   1.774   3.274   5.385
 3154SOL    HW219462   1.835   3.271   5.536
 3155SOL     OW19463   1.119   3.795   0.826
 3155SOL    HW119464   1.211   3.820   0.797
 3155SOL    HW219465   1.121   3.759   0.919
 3156SOL     OW19466   0.451   7.905   4.909
 3156SOL    HW119467   0.533   7.866   4.951
 3156SOL    HW219468   0.473   7.938   4.817
 3157SOL     OW19469   5.794   4.306   7.431
 3157SOL    HW119470   5.842   4.349   7.508
 3157SOL    HW219471   5.715   4.362   7.405
 3158SOL     OW19472   5.481   5.648   3.245
 3158SOL    HW119473   5.565   5.603   3.278
 3158SOL    HW219474   5.499   5.694   3.159
 3159SOL     OW19475   6.397   3.166   1.955
 3159SOL    HW119476   6.373   3.173   2.052
 3159SOL    HW219477   6.484   3.118   1.944
 3160SOL     OW19478   1.958   4.924   2.623
 3160SOL    HW119479   1.921   5.001   2.571
 3160SOL    HW219480   2.008   4.863   2.562
 3161SOL     OW19481   7.445   5.180   6.178
 3161SOL    HW119482   7.412   5.179   6.273
 3161SOL    HW219483   7.451   5.086   6.143
 3162SOL     OW19484   5.743   6.090   4.820
 3162SOL    HW119485   5.687   6.013   4.853
 3162SOL    HW219486   5.772   6.073   4.726
 3163SOL     OW19487   6.871   3.118   7.254
 3163SOL    HW119488   6.775   3.094   7.240
 3163SOL    HW219489   6.883   3.158   7.345
 3164SOL     OW19490   3.944   2.455   3.504
 3164SOL    HW119491   3.942   2.555   3.517
 3164SOL    HW219492   3.854   2.422   3.479
 3165SOL     OW19493   7.104   6.938   4.731
 3165SOL    HW119494   7.119   6.928   4.830
 3165SOL    HW219495   7.173   7.000   4.692
 3166SOL     OW19496   3.841   2.649   0.152
 3166SOL    HW119497   3.921   2.694   0.193
 3166SOL    HW219498   3.841   2.552   0.175
 3167SOL     OW19499   7.769   6.246   6.206
 3167SOL    HW119500   7.709   6.316   6.245
 3167SOL    HW219501   7.737   6.221   6.115
 3168SOL     OW19502   1.952   1.573   5.151
 3168SOL    HW119503   1.980   1.667   5.172
 3168SOL    HW219504   1.918   1.567   5.057
 3169SOL     OW19505   7.281   3.421   2.309
 3169SOL    HW119506   7.224   3.493   2.269
 3169SOL    HW219507   7.307   3.445   2.403
 3170SOL     OW19508   2.711   5.014   1.120
 3170SOL    HW119509   2.790   4.989   1.174
 3170SOL    HW219510   2.702   4.953   1.041
 3171SOL     OW19511   0.649   5.456   4.464
 3171SOL    HW119512   0.608   5.372   4.427
 3171SOL    HW219513   0.748   5.449   4.463
 3172SOL     OW19514   2.767   4.550   0.665
 3172SOL    HW119515   2.833   4.574   0.595
 3172SOL    HW219516   2.776   4.454   0.690
 3173SOL     OW19517   4.164   7.544   4.186
 3173SOL    HW119518   4.161   7.454   4.228
 3173SOL    HW219519   4.186   7.536   4.089
 3174SOL     OW19520   1.534   0.910   6.361
 3174SOL    HW119521   1.517   0.937   6.266
 3174SOL    HW219522   1.553   0.991   6.416
 3175SOL     OW19523   2.656   7.895   4.920
 3175SOL    HW119524   2.687   7.816   4.973
 3175SOL    HW219525   2.691   7.979   4.960
 3176SOL     OW19526   3.589   7.770   3.353
 3176SOL    HW119527   3.606   7.861   3.316
 3176SOL    HW219528   3.658   7.706   3.317
 3177SOL     OW19529   0.500   3.024   4.854
 3177SOL    HW119530   0.441   3.019   4.773
 3177SOL    HW219531   0.508   3.119   4.884
 3178SOL     OW19532   5.677   6.790   5.059
 3178SOL    HW119533   5.613   6.848   5.008
 3178SOL    HW219534   5.679   6.818   5.155
 3179SOL     OW19535   4.621   6.296   2.399
 3179SOL    HW119536   4.528   6.283   2.365
 3179SOL    HW219537   4.619   6.353   2.482
 3180SOL     OW19538   2.849   6.933   4.496
 3180SOL    HW119539   2.860   6.947   4.595
 3180SOL    HW219540   2.809   7.014   4.454
 3181SOL     OW19541   1.949   3.002   3.324
 3181SOL    HW119542   1.970   3.048   3.238
 3181SOL    HW219543   1.947   3.068   3.399
 3182SOL     OW19544   1.628   7.077   5.137
 3182SOL    HW119545   1.651   7.149   5.071
 3182SOL    HW219546   1.701   7.068   5.204
 3183SOL     OW19547   0.100   2.243   4.465
 3183SOL    HW119548   0.015   2.290   4.438
 3183SOL    HW219549   0.149   2.213   4.384
 3184SOL     OW19550   4.687   6.765   5.015
 3184SOL    HW119551   4.768   6.805   4.974
 3184SOL    HW219552   4.630   6.836   5.056
 3185SOL     OW19553   3.806   1.908   6.224
 3185SOL    HW119554   3.781   1.967   6.147
 3185SOL    HW219555   3.821   1.963   6.306
 3186SOL     OW19556   5.910   3.580   6.508
 3186SOL    HW119557   5.974   3.507   6.532
 3186SOL    HW219558   5.936   3.620   6.420
 3187SOL     OW19559   6.818   2.377   6.013
 3187SOL    HW119560   6.744   2.319   6.046
 3187SOL    HW219561   6.847   2.347   5.923
 3188SOL     OW19562   7.097   7.052   6.383
 3188SOL    HW119563   7.054   7.018   6.466
 3188SOL    HW219564   7.162   6.984   6.348
 3189SOL     OW19565   4.143   2.971   0.201
 3189SOL    HW119566   4.223   2.932   0.153
 3189SOL    HW219567   4.059   2.947   0.152
 3190SOL     OW19568   5.983   5.182   2.045
 3190SOL    HW119569   6.041   5.108   2.013
 3190SOL    HW219570   6.009   5.268   1.999
 3191SOL     OW19571   1.100   1.770   6.388
 3191SOL    HW119572   1.086   1.681   6.344
 3191SOL    HW219573   1.068   1.766   6.483
 3192SOL     OW19574   5.301   3.902   6.917
 3192SOL    HW119575   5.299   3.826   6.853
 3192SOL    HW219576   5.352   3.876   6.999
 3193SOL     OW19577   4.390   7.522   0.447
 3193SOL    HW119578   4.400   7.459   0.524
 3193SOL    HW219579   4.427   7.481   0.364
 3194SOL     OW19580   3.611   0.265   6.271
 3194SOL    HW119581   3.535   0.200   6.268
 3194SOL    HW219582   3.622   0.300   6.364
 3195SOL     OW19583   2.132   5.506   5.451
 3195SOL    HW119584   2.133   5.487   5.353
 3195SOL    HW219585   2.125   5.421   5.503
 3196SOL     OW19586   4.509   1.943   4.139
 3196SOL    HW119587   4.557   1.953   4.052
 3196SOL    HW219588   4.568   1.972   4.214
 3197SOL     OW19589   3.276   5.370   4.835
 3197SOL    HW119590   3.335   5.443   4.869
 3197SOL    HW219591   3.212   5.406   4.767
 3198SOL     OW19592   6.061   2.288   1.923
 3198SOL    HW119593   6.125   2.305   1.998
 3198SOL    HW219594   6.103   2.312   1.836
 3199SOL     OW19595   2.103   0.994   3.572
 3199SOL    HW119596   2.190   0.952   3.549
 3199SOL    HW219597   2.066   1.043   3.493
 3200SOL     OW19598   7.267   1.378   2.645
 3200SOL    HW119599   7.198   1.431   2.695
 3200SOL    HW219600   7.240   1.282   2.642
 3201SOL     OW19601   7.473   6.841   3.025
 3201SOL    HW119602   7.466   6.772   3.098
 3201SOL    HW219603   7.482   6.796   2.936
 3202SOL     OW19604   0.241   2.573   7.806
 3202SOL    HW119605   0.157   2.521   7.791
 3202SOL    HW219606   0.226   2.641   7.878
 3203SOL     OW19607   1.927   7.035   7.373
 3203SOL    HW119608   1.974   7.116   7.408
 3203SOL    HW219609   1.891   7.054   7.282
 3204SOL     OW19610   5.153   3.777   3.384
 3204SOL    HW119611   5.125   3.747   3.475
 3204SOL    HW219612   5.118   3.869   3.366
 3205SOL     OW19613   7.693   1.461   3.976
 3205SOL    HW119614   7.736   1.521   4.043
 3205SOL    HW219615   7.639   1.391   4.023
 3206SOL     OW19616   3.562   0.979   3.427
 3206SOL    HW119617   3.641   0.942   3.378
 3206SOL    HW219618   3.582   0.985   3.525
 3207SOL     OW19619   4.368   1.665   6.162
 3207SOL    HW119620   4.353   1.618   6.249
 3207SOL    HW219621   4.288   1.719   6.139
 3208SOL     OW19622   4.669   4.993   0.311
 3208SOL    HW119623   4.600   5.057   0.347
 3208SOL    HW219624   4.645   4.965   0.218
 3209SOL     OW19625   0.814   6.426   4.540
 3209SOL    HW119626   0.845   6.332   4.531
 3209SOL    HW219627   0.771   6.440   4.629
 3210SOL     OW19628   5.542   6.975   7.216
 3210SOL    HW119629   5.499   7.017   7.297
 3210SOL    HW219630   5.636   7.007   7.207
 3211SOL     OW19631   7.331   7.877   5.988
 3211SOL    HW119632   7.235   7.864   5.964
 3211SOL    HW219633   7.339   7.932   6.071
 3212SOL     OW19634   1.518   0.484   5.238
 3212SOL    HW119635   1.472   0.468   5.326
 3212SOL    HW219636   1.487   0.571   5.200
 3213SOL     OW19637   3.927   6.539   1.595
 3213SOL    HW119638   4.020   6.566   1.568
 3213SOL    HW219639   3.873   6.619   1.618
 3214SOL     OW19640   1.955   7.949   6.924
 3214SOL    HW119641   1.866   7.989   6.946
 3214SOL    HW219642   1.983   7.978   6.832
 3215SOL     OW19643   2.144   4.095   5.050
 3215SOL    HW119644   2.244   4.098   5.059
 3215SOL    HW219645   2.119   4.032   4.977
 3216SOL     OW19646   4.093   0.049   5.214
 3216SOL    HW119647   4.170   0.105   5.246
 3216SOL    HW219648   4.051   0.092   5.134
 3217SOL     OW19649   3.221   6.360   7.967
 3217SOL    HW119650   3.317   6.332   7.954
 3217SOL    HW219651   3.208   6.454   7.938
 3218SOL     OW19652   6.492   5.151   0.326
 3218SOL    HW119653   6.581   5.188   0.298
 3218SOL    HW219654   6.497   5.118   0.420
 3219SOL     OW19655   4.063   1.790   0.105
 3219SOL    HW119656   4.075   1.697   0.069
 3219SOL    HW219657   4.031   1.786   0.200
 3220SOL     OW19658   4.110   0.325   1.218
 3220SOL    HW119659   4.159   0.269   1.151
 3220SOL    HW219660   4.012   0.320   1.202
 3221SOL     OW19661   5.025   7.444   0.105
 3221SOL    HW119662   5.103   7.505   0.119
 3221SOL    HW219663   4.949   7.494   0.064
 3222SOL     OW19664   7.098   3.149   5.369
 3222SOL    HW119665   7.175   3.209   5.347
 3222SOL    HW219666   7.016   3.180   5.320
 3223SOL     OW19667   2.509   1.597   7.634
 3223SOL    HW119668   2.454   1.521   7.672
 3223SOL    HW219669   2.542   1.573   7.543
 3224SOL     OW19670   6.865   6.550   4.044
 3224SOL    HW119671   6.832   6.547   3.950
 3224SOL    HW219672   6.788   6.566   4.107
 3225SOL     OW19673   6.277   3.715   7.741
 3225SOL    HW119674   6.225   3.791   7.703
 3225SOL    HW219675   6.310   3.738   7.833
 3226SOL     OW19676   6.754   3.927   3.451
 3226SOL    HW119677   6.718   3.834   3.443
 3226SOL    HW219678   6.782   3.946   3.545
 3227SOL     OW19679   0.162   5.118   3.813
 3227SOL    HW119680   0.089   5.180   3.786
 3227SOL    HW219681   0.183   5.129   3.909
 3228SOL     OW19682   1.644   5.959   0.598
 3228SOL    HW119683   1.553   5.917   0.596
 3228SOL    HW219684   1.652   6.020   0.676
 3229SOL     OW19685   4.735   0.057   6.568
 3229SOL    HW119686   4.654   0.000   6.580
 3229SOL    HW219687   4.813   0.001   6.543
 3230SOL     OW19688   5.355   0.055   6.707
 3230SOL    HW119689   5.444   0.089   6.675
 3230SOL    HW219690   5.284   0.080   6.641
 3231SOL     OW19691   1.104   5.538   2.633
 3231SOL    HW119692   1.027   5.566   2.576
 3231SOL    HW219693   1.102   5.586   2.720
 3232SOL     OW19694   6.961   3.763   6.779
 3232SOL    HW119695   7.050   3.718   6.785
 3232SOL    HW219696   6.973   3.862   6.768
 3233SOL     OW19697   4.596   5.039   3.898
 3233SOL    HW119698   4.537   4.965   3.931
 3233SOL    HW219699   4.630   5.018   3.806
 3234SOL     OW19700   7.553   6.252   0.914
 3234SOL    HW119701   7.579   6.309   0.836
 3234SOL    HW219702   7.560   6.155   0.890
 3235SOL     OW19703   2.439   1.697   7.157
 3235SOL    HW119704   2.453   1.601   7.181
 3235SOL    HW219705   2.483   1.716   7.069
 3236SOL     OW19706   1.078   2.109   4.518
 3236SOL    HW119707   1.046   2.197   4.485
 3236SOL    HW219708   1.090   2.111   4.617
 3237SOL     OW19709   1.580   3.643   4.501
 3237SOL    HW119710   1.602   3.562   4.555
 3237SOL    HW219711   1.521   3.704   4.554
 3238SOL     OW19712   3.837   4.611   7.754
 3238SOL    HW119713   3.761   4.667   7.789
 3238SOL    HW219714   3.812   4.573   7.665
 3239SOL     OW19715   6.013   6.675   4.188
 3239SOL    HW119716   5.952   6.647   4.113
 3239SOL    HW219717   6.107   6.685   4.153
 3240SOL     OW19718   4.670   4.830   2.450
 3240SOL    HW119719   4.725   4.755   2.413
 3240SOL    HW219720   4.636   4.807   2.541
 3241SOL     OW19721   1.636   1.790   3.676
 3241SOL    HW119722   1.667   1.795   3.580
 3241SOL    HW219723   1.649   1.697   3.711
 3242SOL     OW19724   4.914   4.510   7.619
 3242SOL    HW119725   4.964   4.486   7.703
 3242SOL    HW219726   4.943   4.450   7.544
 3243SOL     OW19727   6.465   2.508   2.848
 3243SOL    HW119728   6.450   2.410   2.836
 3243SOL    HW219729   6.556   2.533   2.815
 3244SOL     OW19730   1.441   6.179   3.862
 3244SOL    HW119731   1.455   6.205   3.958
 3244SOL    HW219732   1.445   6.080   3.853
 3245SOL     OW19733   5.470   1.754   3.639
 3245SOL    HW119734   5.552   1.790   3.684
 3245SOL    HW219735   5.495   1.716   3.550
 3246SOL     OW19736   7.657   7.027   3.209
 3246SOL    HW119737   7.706   7.112   3.228
 3246SOL    HW219738   7.712   6.968   3.151
 3247SOL     OW19739   3.976   0.937   0.876
 3247SOL    HW119740   4.036   1.004   0.831
 3247SOL    HW219741   3.991   0.847   0.836
 3248SOL     OW19742   5.852   2.346   0.622
 3248SOL    HW119743   5.874   2.327   0.527
 3248SOL    HW219744   5.817   2.439   0.631
 3249SOL     OW19745   3.133   6.141   7.724
 3249SOL    HW119746   3.119   6.179   7.633
 3249SOL    HW219747   3.110   6.209   7.793
 3250SOL     OW19748   1.609   0.290   4.074
 3250SOL    HW119749   1.510   0.277   4.077
 3250SOL    HW219750   1.649   0.235   4.002
 3251SOL     OW19751   3.390   7.285   2.478
 3251SOL    HW119752   3.324   7.229   2.528
 3251SOL    HW219753   3.455   7.226   2.430
 3252SOL     OW19754   0.766   2.086   0.988
 3252SOL    HW119755   0.719   2.169   0.959
 3252SOL    HW219756   0.839   2.109   1.053
 3253SOL     OW19757   4.453   0.856   1.382
 3253SOL    HW119758   4.411   0.803   1.308
 3253SOL    HW219759   4.548   0.878   1.359
 3254SOL     OW19760   0.850   0.645   2.229
 3254SOL    HW119761   0.946   0.663   2.251
 3254SOL    HW219762   0.844   0.591   2.145
 3255SOL     OW19763   2.086   4.137   0.817
 3255SOL    HW119764   2.045   4.061   0.869
 3255SOL    HW219765   2.131   4.200   0.881
 3256SOL     OW19766   1.187   2.520   1.760
 3256SOL    HW119767   1.184   2.592   1.691
 3256SOL    HW219768   1.267   2.462   1.746
 3257SOL     OW19769   4.829   1.441   4.557
 3257SOL    HW119770   4.866   1.529   4.587
 3257SOL    HW219771   4.803   1.386   4.637
 3258SOL     OW19772   0.911   0.899   2.450
 3258SOL    HW119773   0.911   0.996   2.476
 3258SOL    HW219774   0.878   0.888   2.357
 3259SOL     OW19775   0.259   3.009   4.396
 3259SOL    HW119776   0.272   3.006   4.495
 3259SOL    HW219777   0.328   3.068   4.354
 3260SOL     OW19778   2.320   5.509   7.938
 3260SOL    HW119779   2.405   5.464   7.967
 3260SOL    HW219780   2.330   5.545   7.845
 3261SOL     OW19781   0.021   3.811   0.717
 3261SOL    HW119782  -0.002   3.893   0.665
 3261SOL    HW219783   0.111   3.822   0.760
 3262SOL     OW19784   6.853   3.060   5.430
 3262SOL    HW119785   6.851   3.036   5.333
 3262SOL    HW219786   6.783   3.128   5.450
 3263SOL     OW19787   3.883   3.032   6.938
 3263SOL    HW119788   3.824   3.064   6.864
 3263SOL    HW219789   3.979   3.045   6.912
 3264SOL     OW19790   2.402   5.207   4.983
 3264SOL    HW119791   2.375   5.266   5.058
 3264SOL    HW219792   2.349   5.229   4.901
 3265SOL     OW19793   0.362   4.943   7.591
 3265SOL    HW119794   0.305   5.016   7.628
 3265SOL    HW219795   0.312   4.891   7.522
 3266SOL     OW19796   6.881   7.545   6.231
 3266SOL    HW119797   6.849   7.453   6.253
 3266SOL    HW219798   6.907   7.550   6.135
 3267SOL     OW19799   4.074   5.119   2.354
 3267SOL    HW119800   4.161   5.167   2.344
 3267SOL    HW219801   4.089   5.027   2.389
 3268SOL     OW19802   1.363   6.702   5.078
 3268SOL    HW119803   1.448   6.663   5.115
 3268SOL    HW219804   1.377   6.731   4.984
 3269SOL     OW19805   2.946   5.389   4.299
 3269SOL    HW119806   2.981   5.316   4.359
 3269SOL    HW219807   3.003   5.395   4.217
 3270SOL     OW19808   7.859   1.156   6.455
 3270SOL    HW119809   7.939   1.116   6.499
 3270SOL    HW219810   7.775   1.120   6.496
 3271SOL     OW19811   5.066   0.720   3.678
 3271SOL    HW119812   5.145   0.771   3.712
 3271SOL    HW219813   5.049   0.743   3.583
 3272SOL     OW19814   0.596   6.824   3.207
 3272SOL    HW119815   0.543   6.746   3.174
 3272SOL    HW219816   0.548   6.869   3.282
 3273SOL     OW19817   5.377   2.111   1.314
 3273SOL    HW119818   5.312   2.035   1.320
 3273SOL    HW219819   5.442   2.095   1.239
 3274SOL     OW19820   7.837   3.226   1.671
 3274SOL    HW119821   7.790   3.285   1.737
 3274SOL    HW219822   7.849   3.135   1.710
 3275SOL     OW19823   3.711   2.245   4.908
 3275SOL    HW119824   3.710   2.149   4.936
 3275SOL    HW219825   3.702   2.250   4.808
 3276SOL     OW19826   5.057   4.085   3.114
 3276SOL    HW119827   5.137   4.059   3.061
 3276SOL    HW219828   5.059   4.041   3.203
 3277SOL     OW19829   7.541   4.472   3.485
 3277SOL    HW119830   7.495   4.416   3.554
 3277SOL    HW219831   7.629   4.503   3.520
 3278SOL     OW19832   3.424   0.570   4.516
 3278SOL    HW119833   3.366   0.647   4.487
 3278SOL    HW219834   3.521   0.593   4.500
 3279SOL     OW19835   0.745   1.512   4.550
 3279SOL    HW119836   0.838   1.544   4.569
 3279SOL    HW219837   0.730   1.505   4.452
 3280SOL     OW19838   3.515   2.246   1.043
 3280SOL    HW119839   3.429   2.197   1.057
 3280SOL    HW219840   3.561   2.212   0.961
 3281SOL     OW19841   4.469   1.607   3.015
 3281SOL    HW119842   4.431   1.531   2.962
 3281SOL    HW219843   4.519   1.572   3.094
 3282SOL     OW19844   1.228   3.242   2.802
 3282SOL    HW119845   1.306   3.220   2.861
 3282SOL    HW219846   1.223   3.177   2.726
 3283SOL     OW19847   3.462   7.237   3.173
 3283SOL    HW119848   3.484   7.263   3.079
 3283SOL    HW219849   3.388   7.169   3.174
 3284SOL     OW19850   5.657   3.807   6.279
 3284SOL    HW119851   5.709   3.732   6.319
 3284SOL    HW219852   5.684   3.820   6.183
 3285SOL     OW19853   1.817   4.034   5.874
 3285SOL    HW119854   1.724   4.000   5.858
 3285SOL    HW219855   1.824   4.069   5.967
 3286SOL     OW19856   1.438   0.194   0.406
 3286SOL    HW119857   1.345   0.160   0.395
 3286SOL    HW219858   1.445   0.249   0.489
 3287SOL     OW19859   2.541   0.158   6.746
 3287SOL    HW119860   2.524   0.247   6.704
 3287SOL    HW219861   2.632   0.126   6.724
 3288SOL     OW19862   1.599   5.909   6.140
 3288SOL    HW119863   1.593   5.809   6.137
 3288SOL    HW219864   1.599   5.940   6.235
 3289SOL     OW19865   1.669   2.712   8.015
 3289SOL    HW119866   1.674   2.746   7.921
 3289SOL    HW219867   1.615   2.628   8.018
 3290SOL     OW19868   1.474   2.873   5.532
 3290SOL    HW119869   1.458   2.938   5.457
 3290SOL    HW219870   1.523   2.918   5.607
 3291SOL     OW19871   1.180   4.236   2.644
 3291SOL    HW119872   1.264   4.272   2.686
 3291SOL    HW219873   1.195   4.141   2.615
 3292SOL     OW19874   0.594   2.227   2.026
 3292SOL    HW119875   0.573   2.299   2.092
 3292SOL    HW219876   0.547   2.143   2.052
 3293SOL     OW19877   2.330   1.495   3.586
 3293SOL    HW119878   2.372   1.422   3.533
 3293SOL    HW219879   2.399   1.563   3.611
 3294SOL     OW19880   1.610   3.156   4.248
 3294SOL    HW119881   1.675   3.087   4.217
 3294SOL    HW219882   1.561   3.122   4.329
 3295SOL     OW19883   3.806   7.385   1.752
 3295SOL    HW119884   3.870   7.347   1.819
 3295SOL    HW219885   3.854   7.449   1.692
 3296SOL     OW19886   7.098   6.034   1.291
 3296SOL    HW119887   7.148   5.947   1.289
 3296SOL    HW219888   7.079   6.060   1.386
 3297SOL     OW19889   3.442   6.946   2.916
 3297SOL    HW119890   3.541   6.936   2.903
 3297SOL    HW219891   3.407   6.869   2.970
 3298SOL     OW19892   7.782   6.595   1.170
 3298SOL    HW119893   7.730   6.668   1.215
 3298SOL    HW219894   7.871   6.630   1.140
 3299SOL     OW19895   6.706   4.481   5.611
 3299SOL    HW119896   6.663   4.538   5.681
 3299SOL    HW219897   6.655   4.488   5.525
 3300SOL     OW19898   2.019   1.089   0.613
 3300SOL    HW119899   2.069   1.026   0.553
 3300SOL    HW219900   1.924   1.059   0.623
 3301SOL     OW19901   1.338   2.738   2.075
 3301SOL    HW119902   1.324   2.783   1.987
 3301SOL    HW219903   1.436   2.727   2.092
 3302SOL     OW19904   2.899   1.191   0.825
 3302SOL    HW119905   2.902   1.095   0.854
 3302SOL    HW219906   2.918   1.198   0.727
 3303SOL     OW19907   7.820   0.454   2.053
 3303SOL    HW119908   7.890   0.418   1.991
 3303SOL    HW219909   7.805   0.551   2.035
 3304SOL     OW19910   5.782   7.045   4.854
 3304SOL    HW119911   5.769   7.144   4.840
 3304SOL    HW219912   5.749   6.995   4.774
 3305SOL     OW19913   0.213   4.581   5.893
 3305SOL    HW119914   0.122   4.559   5.858
 3305SOL    HW219915   0.283   4.546   5.831
 3306SOL     OW19916   0.910   7.953   4.952
 3306SOL    HW119917   0.988   7.910   4.998
 3306SOL    HW219918   0.938   7.988   4.863
 3307SOL     OW19919   5.664   6.510   3.828
 3307SOL    HW119920   5.659   6.538   3.732
 3307SOL    HW219921   5.637   6.585   3.888
 3308SOL     OW19922   1.947   5.000   0.448
 3308SOL    HW119923   1.905   4.929   0.506
 3308SOL    HW219924   2.008   4.957   0.382
 3309SOL     OW19925   6.017   1.380   6.680
 3309SOL    HW119926   6.060   1.431   6.606
 3309SOL    HW219927   6.027   1.282   6.664
 3310SOL     OW19928   4.780   1.279   2.859
 3310SOL    HW119929   4.720   1.238   2.791
 3310SOL    HW219930   4.726   1.330   2.926
 3311SOL     OW19931   3.219   5.960   1.172
 3311SOL    HW119932   3.269   5.878   1.144
 3311SOL    HW219933   3.172   5.943   1.259
 3312SOL     OW19934   1.595   1.491   1.522
 3312SOL    HW119935   1.650   1.430   1.579
 3312SOL    HW219936   1.654   1.534   1.454
 3313SOL     OW19937   3.168   1.307   5.543
 3313SOL    HW119938   3.198   1.362   5.621
 3313SOL    HW219939   3.156   1.365   5.462
 3314SOL     OW19940   7.141   7.594   1.210
 3314SOL    HW119941   7.164   7.681   1.165
 3314SOL    HW219942   7.177   7.593   1.303
 3315SOL     OW19943   0.236   1.051   2.061
 3315SOL    HW119944   0.243   0.958   2.023
 3315SOL    HW219945   0.203   1.047   2.155
 3316SOL     OW19946   6.760   2.599   6.963
 3316SOL    HW119947   6.665   2.591   6.994
 3316SOL    HW219948   6.762   2.612   6.864
 3317SOL     OW19949   2.020   7.273   2.184
 3317SOL    HW119950   1.948   7.204   2.184
 3317SOL    HW219951   2.051   7.291   2.091
 3318SOL     OW19952   2.324   4.450   3.596
 3318SOL    HW119953   2.382   4.410   3.668
 3318SOL    HW219954   2.232   4.411   3.601
 3319SOL     OW19955   5.685   7.677   1.962
 3319SOL    HW119956   5.769   7.645   1.918
 3319SOL    HW219957   5.705   7.709   2.055
 3320SOL     OW19958   0.679   3.994   5.272
 3320SOL    HW119959   0.579   3.989   5.272
 3320SOL    HW219960   0.709   4.075   5.323
 3321SOL     OW19961   5.471   5.184   6.423
 3321SOL    HW119962   5.399   5.235   6.377
 3321SOL    HW219963   5.503   5.234   6.504
 3322SOL     OW19964   4.774   7.345   1.644
 3322SOL    HW119965   4.874   7.338   1.643
 3322SOL    HW219966   4.736   7.282   1.711
 3323SOL     OW19967   6.203   0.815   5.137
 3323SOL    HW119968   6.193   0.854   5.046
 3323SOL    HW219969   6.139   0.740   5.150
 3324SOL     OW19970   0.543   0.065   6.758
 3324SOL    HW119971   0.515   0.033   6.668
 3324SOL    HW219972   0.466   0.108   6.805
 3325SOL     OW19973   0.304   3.255   3.671
 3325SOL    HW119974   0.314   3.345   3.630
 3325SOL    HW219975   0.377   3.239   3.738
 3326SOL     OW19976   7.329   2.949   0.706
 3326SOL    HW119977   7.360   2.855   0.686
 3326SOL    HW219978   7.386   3.015   0.657
 3327SOL     OW19979   6.942   4.609   0.081
 3327SOL    HW119980   6.984   4.534   0.029
 3327SOL    HW219981   6.906   4.678   0.018
 3328SOL     OW19982   6.253   5.152   6.691
 3328SOL    HW119983   6.350   5.137   6.708
 3328SOL    HW219984   6.199   5.106   6.761
 3329SOL     OW19985   2.357   6.699   3.225
 3329SOL    HW119986   2.294   6.768   3.191
 3329SOL    HW219987   2.397   6.728   3.312
 3330SOL     OW19988   7.583   7.189   2.065
 3330SOL    HW119989   7.644   7.111   2.048
 3330SOL    HW219990   7.557   7.190   2.162
 3331SOL     OW19991   0.009   3.855   2.802
 3331SOL    HW119992   0.019   3.943   2.849
 3331SOL    HW219993  -0.045   3.867   2.719
 3332SOL     OW19994   7.303   1.091   0.382
 3332SOL    HW119995   7.295   1.183   0.422
 3332SOL    HW219996   7.392   1.082   0.336
 3333SOL     OW19997   2.495   0.011   6.277
 3333SOL    HW119998   2.403  -0.011   6.245
 3333SOL    HW219999   2.550   0.048   6.202
 3334SOL     OW20000   6.779   3.340   1.537
 3334SOL    HW120001   6.728   3.399   1.475
 3334SOL    HW220002   6.716   3.285   1.592
 3335SOL     OW20003   4.140   1.259   5.523
 3335SOL    HW120004   4.206   1.303   5.584
 3335SOL    HW220005   4.187   1.223   5.442
 3336SOL     OW20006   2.583   1.208   2.802
 3336SOL    HW120007   2.502   1.171   2.756
 3336SOL    HW220008   2.560   1.234   2.896
 3337SOL     OW20009   6.375   5.171   6.998
 3337SOL    HW120010   6.276   5.178   6.981
 3337SOL    HW220011   6.415   5.102   6.937
 3338SOL     OW20012   4.387   4.678   0.643
 3338SOL    HW120013   4.415   4.766   0.681
 3338SOL    HW220014   4.359   4.689   0.548
 3339SOL     OW20015   1.640   3.595   1.476
 3339SOL    HW120016   1.659   3.498   1.468
 3339SOL    HW220017   1.552   3.610   1.520
 3340SOL     OW20018   3.628   6.397   6.812
 3340SOL    HW120019   3.636   6.476   6.873
 3340SOL    HW220020   3.675   6.416   6.726
 3341SOL     OW20021   1.430   7.832   1.363
 3341SOL    HW120022   1.479   7.898   1.420
 3341SOL    HW220023   1.332   7.841   1.376
 3342SOL     OW20024   0.277   1.430   0.486
 3342SOL    HW120025   0.287   1.459   0.581
 3342SOL    HW220026   0.235   1.502   0.432
 3343SOL     OW20027   6.412   3.698   0.393
 3343SOL    HW120028   6.502   3.671   0.429
 3343SOL    HW220029   6.399   3.661   0.301
 3344SOL     OW20030   7.259   7.989   5.702
 3344SOL    HW120031   7.337   7.926   5.699
 3344SOL    HW220032   7.193   7.959   5.770
 3345SOL     OW20033   6.855   1.680   5.587
 3345SOL    HW120034   6.857   1.748   5.661
 3345SOL    HW220035   6.778   1.618   5.599
 3346SOL     OW20036   0.698   6.856   4.147
 3346SOL    HW120037   0.670   6.762   4.129
 3346SOL    HW220038   0.705   6.907   4.062
 3347SOL     OW20039   6.274   6.856   0.559
 3347SOL    HW120040   6.248   6.945   0.597
 3347SOL    HW220041   6.215   6.784   0.597
 3348SOL     OW20042   0.276   6.072   6.974
 3348SOL    HW120043   0.335   6.096   6.897
 3348SOL    HW220044   0.326   6.080   7.060
 3349SOL     OW20045   2.997   5.361   2.760
 3349SOL    HW120046   3.026   5.292   2.694
 3349SOL    HW220047   2.909   5.336   2.800
 3350SOL     OW20048   6.009   2.505   1.939
 3350SOL    HW120049   6.098   2.523   1.981
 3350SOL    HW220050   5.937   2.548   1.993
 3351SOL     OW20051   0.381   3.619   0.134
 3351SOL    HW120052   0.289   3.587   0.115
 3351SOL    HW220053   0.403   3.698   0.076
 3352SOL     OW20054   2.964   0.120   2.910
 3352SOL    HW120055   2.997   0.114   2.816
 3352SOL    HW220056   2.966   0.030   2.953
 3353SOL     OW20057   6.973   1.723   4.171
 3353SOL    HW120058   7.042   1.673   4.118
 3353SOL    HW220059   6.882   1.686   4.151
 3354SOL     OW20060   7.135   7.703   2.211
 3354SOL    HW120061   7.120   7.693   2.310
 3354SOL    HW220062   7.211   7.645   2.183
 3355SOL     OW20063   4.912   0.636   2.982
 3355SOL    HW120064   4.926   0.639   3.081
 3355SOL    HW220065   4.861   0.554   2.958
 3356SOL     OW20066   6.697   1.010   1.769
 3356SOL    HW120067   6.620   1.068   1.792
 3356SOL    HW220068   6.749   0.987   1.852
 3357SOL     OW20069   0.807   3.658   3.628
 3357SOL    HW120070   0.716   3.644   3.589
 3357SOL    HW220071   0.799   3.691   3.722
 3358SOL     OW20072   7.367   0.820   2.084
 3358SOL    HW120073   7.381   0.721   2.080
 3358SOL    HW220074   7.454   0.865   2.103
 3359SOL     OW20075   4.081   2.331   5.634
 3359SOL    HW120076   3.991   2.288   5.649
 3359SOL    HW220077   4.117   2.303   5.546
 3360SOL     OW20078   4.492   6.438   3.568
 3360SOL    HW120079   4.577   6.458   3.617
 3360SOL    HW220080   4.500   6.464   3.472
 3361SOL     OW20081   4.620   2.630   6.416
 3361SOL    HW120082   4.642   2.703   6.481
 3361SOL    HW220083   4.626   2.664   6.323
 3362SOL     OW20084   1.533   2.217   1.723
 3362SOL    HW120085   1.605   2.154   1.754
 3362SOL    HW220086   1.573   2.286   1.663
 3363SOL     OW20087   0.525   1.319   0.831
 3363SOL    HW120088   0.621   1.316   0.805
 3363SOL    HW220089   0.517   1.342   0.928
 3364SOL     OW20090   7.787   4.361   3.788
 3364SOL    HW120091   7.736   4.425   3.729
 3364SOL    HW220092   7.832   4.412   3.861
 3365SOL     OW20093   2.319   4.721   2.690
 3365SOL    HW120094   2.264   4.762   2.617
 3365SOL    HW220095   2.399   4.675   2.651
 3366SOL     OW20096   5.658   4.866   3.096
 3366SOL    HW120097   5.745   4.819   3.081
 3366SOL    HW220098   5.622   4.899   3.009
 3367SOL     OW20099   4.945   4.815   5.954
 3367SOL    HW120100   4.964   4.912   5.939
 3367SOL    HW220101   4.919   4.800   6.050
 3368SOL     OW20102   3.726   3.852   1.574
 3368SOL    HW120103   3.769   3.917   1.637
 3368SOL    HW220104   3.718   3.894   1.483
 3369SOL     OW20105   5.788   7.027   7.887
 3369SOL    HW120106   5.708   6.980   7.849
 3369SOL    HW220107   5.768   7.061   7.979
 3370SOL     OW20108   2.842   0.290   7.957
 3370SOL    HW120109   2.901   0.342   8.018
 3370SOL    HW220110   2.826   0.341   7.873
 3371SOL     OW20111   3.811   7.891   0.952
 3371SOL    HW120112   3.782   7.979   0.993
 3371SOL    HW220113   3.779   7.885   0.858
 3372SOL     OW20114   0.428   1.805   2.349
 3372SOL    HW120115   0.368   1.844   2.419
 3372SOL    HW220116   0.494   1.743   2.392
 3373SOL     OW20117   6.295   3.669   1.164
 3373SOL    HW120118   6.305   3.651   1.262
 3373SOL    HW220119   6.267   3.585   1.117
 3374SOL     OW20120   6.465   2.412   1.011
 3374SOL    HW120121   6.508   2.446   1.095
 3374SOL    HW220122   6.516   2.334   0.976
 3375SOL     OW20123   5.303   2.896   1.156
 3375SOL    HW120124   5.260   2.809   1.130
 3375SOL    HW220125   5.389   2.908   1.106
 3376SOL     OW20126   3.520   6.248   6.627
 3376SOL    HW120127   3.514   6.170   6.690
 3376SOL    HW220128   3.430   6.267   6.587
 3377SOL     OW20129   5.646   5.448   2.475
 3377SOL    HW120130   5.551   5.420   2.462
 3377SOL    HW220131   5.707   5.382   2.431
 3378SOL     OW20132   6.947   7.629   1.307
 3378SOL    HW120133   6.977   7.703   1.367
 3378SOL    HW220134   6.866   7.657   1.256
 3379SOL     OW20135   6.557   1.303   4.946
 3379SOL    HW120136   6.505   1.386   4.966
 3379SOL    HW220137   6.589   1.262   5.031
 3380SOL     OW20138   1.523   6.156   0.553
 3380SOL    HW120139   1.559   6.249   0.545
 3380SOL    HW220140   1.433   6.157   0.597
 3381SOL     OW20141   3.692   1.707   2.213
 3381SOL    HW120142   3.783   1.682   2.179
 3381SOL    HW220143   3.632   1.731   2.137
 3382SOL     OW20144   7.594   7.323   7.121
 3382SOL    HW120145   7.576   7.261   7.197
 3382SOL    HW220146   7.685   7.362   7.129
 3383SOL     OW20147   4.418   0.955   0.383
 3383SOL    HW120148   4.335   0.907   0.410
 3383SOL    HW220149   4.438   0.938   0.286
 3384SOL     OW20150   6.814   5.964   0.837
 3384SOL    HW120151   6.813   6.011   0.749
 3384SOL    HW220152   6.895   5.905   0.843
 3385SOL     OW20153   5.323   3.813   5.274
 3385SOL    HW120154   5.283   3.730   5.315
 3385SOL    HW220155   5.389   3.787   5.204
 3386SOL     OW20156   7.737   0.645   0.758
 3386SOL    HW120157   7.773   0.615   0.846
 3386SOL    HW220158   7.770   0.584   0.686
 3387SOL     OW20159   5.184   0.867   7.712
 3387SOL    HW120160   5.177   0.791   7.648
 3387SOL    HW220161   5.128   0.850   7.792
 3388SOL     OW20162   3.208   1.239   2.275
 3388SOL    HW120163   3.215   1.142   2.254
 3388SOL    HW220164   3.231   1.255   2.372
 3389SOL     OW20165   5.924   4.455   1.653
 3389SOL    HW120166   5.896   4.367   1.694
 3389SOL    HW220167   5.955   4.441   1.559
 3390SOL     OW20168   2.340   5.061   6.695
 3390SOL    HW120169   2.434   5.036   6.718
 3390SOL    HW220170   2.310   5.011   6.614
 3391SOL     OW20171   3.625   7.642   0.930
 3391SOL    HW120172   3.577   7.554   0.925
 3391SOL    HW220173   3.573   7.712   0.881
 3392SOL     OW20174   5.968   2.231   4.352
 3392SOL    HW120175   5.882   2.281   4.352
 3392SOL    HW220176   6.027   2.263   4.426
 3393SOL     OW20177   3.071   6.069   3.776
 3393SOL    HW120178   3.114   6.132   3.842
 3393SOL    HW220179   3.110   5.978   3.786
 3394SOL     OW20180   6.388   6.085   0.188
 3394SOL    HW120181   6.386   6.144   0.107
 3394SOL    HW220182   6.362   6.137   0.269
 3395SOL     OW20183   0.169   3.215   2.383
 3395SOL    HW120184   0.247   3.264   2.423
 3395SOL    HW220185   0.153   3.247   2.290
 3396SOL     OW20186   6.917   4.057   3.888
 3396SOL    HW120187   6.985   4.122   3.854
 3396SOL    HW220188   6.867   4.097   3.965
 3397SOL     OW20189   2.383   3.304   5.312
 3397SOL    HW120190   2.432   3.344   5.389
 3397SOL    HW220191   2.293   3.348   5.303
 3398SOL     OW20192   3.492   5.880   4.432
 3398SOL    HW120193   3.436   5.832   4.364
 3398SOL    HW220194   3.475   5.978   4.429
 3399SOL     OW20195   5.538   7.979   0.636
 3399SOL    HW120196   5.521   7.886   0.604
 3399SOL    HW220197   5.507   7.988   0.731
 3400SOL     OW20198   2.511   0.813   5.601
 3400SOL    HW120199   2.557   0.849   5.682
 3400SOL    HW220200   2.544   0.861   5.519
 3401SOL     OW20201   3.565   5.643   0.670
 3401SOL    HW120202   3.508   5.622   0.750
 3401SOL    HW220203   3.518   5.707   0.610
 3402SOL     OW20204   1.804   2.854   7.527
 3402SOL    HW120205   1.872   2.782   7.542
 3402SOL    HW220206   1.713   2.822   7.553
 3403SOL     OW20207   1.171   3.374   5.677
 3403SOL    HW120208   1.163   3.474   5.673
 3403SOL    HW220209   1.210   3.339   5.593
 3404SOL     OW20210   1.808   2.016   0.033
 3404SOL    HW120211   1.812   1.917   0.018
 3404SOL    HW220212   1.870   2.042   0.106
 3405SOL     OW20213   3.750   2.217   0.703
 3405SOL    HW120214   3.656   2.195   0.733
 3405SOL    HW220215   3.775   2.308   0.734
 3406SOL     OW20216   2.047   5.590   3.173
 3406SOL    HW120217   2.134   5.638   3.184
 3406SOL    HW220218   1.997   5.627   3.095
 3407SOL     OW20219   3.120   7.406   0.658
 3407SOL    HW120220   3.122   7.380   0.755
 3407SOL    HW220221   3.113   7.505   0.649
 3408SOL     OW20222   0.974   3.372   4.978
 3408SOL    HW120223   0.897   3.404   5.033
 3408SOL    HW220224   1.018   3.294   5.022
 3409SOL     OW20225   0.600   0.561   2.920
 3409SOL    HW120226   0.541   0.482   2.933
 3409SOL    HW220227   0.612   0.610   3.007
 3410SOL     OW20228   3.176   5.487   6.194
 3410SOL    HW120229   3.166   5.411   6.130
 3410SOL    HW220230   3.147   5.572   6.149
 3411SOL     OW20231   7.131   7.147   4.097
 3411SOL    HW120232   7.157   7.065   4.148
 3411SOL    HW220233   7.196   7.221   4.115
 3412SOL     OW20234   2.044   3.244   0.830
 3412SOL    HW120235   2.059   3.335   0.792
 3412SOL    HW220236   2.083   3.238   0.922
 3413SOL     OW20237   0.534   5.406   1.242
 3413SOL    HW120238   0.522   5.456   1.328
 3413SOL    HW220239   0.542   5.471   1.166
 3414SOL     OW20240   7.645   5.776   4.002
 3414SOL    HW120241   7.547   5.793   3.993
 3414SOL    HW220242   7.682   5.744   3.916
 3415SOL     OW20243   4.910   3.391   0.730
 3415SOL    HW120244   5.009   3.399   0.715
 3415SOL    HW220245   4.863   3.472   0.696
 3416SOL     OW20246   1.222   6.553   5.340
 3416SOL    HW120247   1.214   6.545   5.439
 3416SOL    HW220248   1.238   6.463   5.300
 3417SOL     OW20249   0.437   5.112   5.310
 3417SOL    HW120250   0.522   5.071   5.344
 3417SOL    HW220251   0.453   5.156   5.222
 3418SOL     OW20252   6.081   4.684   5.879
 3418SOL    HW120253   6.090   4.777   5.916
 3418SOL    HW220254   6.068   4.619   5.954
 3419SOL     OW20255   5.845   7.468   2.951
 3419SOL    HW120256   5.852   7.387   3.009
 3419SOL    HW220257   5.928   7.477   2.894
 3420SOL     OW20258   4.551   1.284   4.236
 3420SOL    HW120259   4.629   1.347   4.232
 3420SOL    HW220260   4.544   1.244   4.327
 3421SOL     OW20261   4.074   0.824   2.226
 3421SOL    HW120262   4.172   0.832   2.211
 3421SOL    HW220263   4.056   0.776   2.312
 3422SOL     OW20264   1.070   5.519   3.158
 3422SOL    HW120265   1.017   5.603   3.173
 3422SOL    HW220266   1.163   5.530   3.194
 3423SOL     OW20267   3.540   1.253   1.383
 3423SOL    HW120268   3.464   1.226   1.443
 3423SOL    HW220269   3.528   1.213   1.293
 3424SOL     OW20270   5.584   0.431   5.002
 3424SOL    HW120271   5.626   0.383   5.079
 3424SOL    HW220272   5.493   0.463   5.027
 3425SOL     OW20273   3.049   0.583   7.165
 3425SOL    HW120274   3.124   0.530   7.125
 3425SOL    HW220275   2.974   0.590   7.099
 3426SOL     OW20276   3.624   7.568   5.254
 3426SOL    HW120277   3.546   7.537   5.308
 3426SOL    HW220278   3.600   7.573   5.157
 3427SOL     OW20279   0.375   4.188   5.235
 3427SOL    HW120280   0.472   4.181   5.256
 3427SOL    HW220281   0.353   4.133   5.154
 3428SOL     OW20282   3.923   6.879   3.087
 3428SOL    HW120283   3.978   6.866   3.004
 3428SOL    HW220284   3.967   6.834   3.164
 3429SOL     OW20285   2.376   1.031   1.456
 3429SOL    HW120286   2.338   1.113   1.411
 3429SOL    HW220287   2.402   1.053   1.550
 3430SOL     OW20288   5.707   0.332   4.502
 3430SOL    HW120289   5.766   0.375   4.434
 3430SOL    HW220290   5.659   0.255   4.462
 3431SOL     OW20291   5.487   6.577   5.050
 3431SOL    HW120292   5.498   6.666   5.093
 3431SOL    HW220293   5.434   6.587   4.966
 3432SOL     OW20294   7.903   5.593   5.113
 3432SOL    HW120295   7.846   5.522   5.155
 3432SOL    HW220296   7.940   5.560   5.026
 3433SOL     OW20297   0.499   3.932   6.872
 3433SOL    HW120298   0.414   3.950   6.822
 3433SOL    HW220299   0.494   3.975   6.962
 3434SOL     OW20300   5.749   0.769   5.350
 3434SOL    HW120301   5.762   0.858   5.306
 3434SOL    HW220302   5.780   0.773   5.445
 3435SOL     OW20303   4.964   4.798   4.263
 3435SOL    HW120304   5.037   4.762   4.321
 3435SOL    HW220305   4.936   4.888   4.294
 3436SOL     OW20306   2.952   7.775   2.313
 3436SOL    HW120307   2.869   7.721   2.328
 3436SOL    HW220308   3.016   7.725   2.254
 3437SOL     OW20309   1.344   3.440   4.019
 3437SOL    HW120310   1.291   3.517   4.053
 3437SOL    HW220311   1.420   3.472   3.963
 3438SOL     OW20312   0.847   6.289   1.648
 3438SOL    HW120313   0.797   6.295   1.735
 3438SOL    HW220314   0.811   6.214   1.593
 3439SOL     OW20315   7.292   2.404   1.027
 3439SOL    HW120316   7.373   2.431   1.078
 3439SOL    HW220317   7.304   2.423   0.930
 3440SOL     OW20318   5.890   6.999   7.606
 3440SOL    HW120319   5.897   6.974   7.703
 3440SOL    HW220320   5.852   6.922   7.554
 3441SOL     OW20321   1.569   6.335   7.006
 3441SOL    HW120322   1.630   6.399   7.053
 3441SOL    HW220323   1.552   6.366   6.913
 3442SOL     OW20324   0.851   4.512   5.683
 3442SOL    HW120325   0.863   4.417   5.655
 3442SOL    HW220326   0.844   4.519   5.782
 3443SOL     OW20327   3.543   5.308   5.245
 3443SOL    HW120328   3.633   5.337   5.212
 3443SOL    HW220329   3.520   5.219   5.206
 3444SOL     OW20330   1.888   2.745   4.877
 3444SOL    HW120331   1.851   2.777   4.964
 3444SOL    HW220332   1.841   2.661   4.849
 3445SOL     OW20333   0.564   0.348   5.621
 3445SOL    HW120334   0.654   0.362   5.662
 3445SOL    HW220335   0.511   0.285   5.677
 3446SOL     OW20336   6.663   1.567   7.036
 3446SOL    HW120337   6.756   1.604   7.046
 3446SOL    HW220338   6.622   1.602   6.952
 3447SOL     OW20339   2.756   4.957   3.787
 3447SOL    HW120340   2.770   4.864   3.753
 3447SOL    HW220341   2.661   4.970   3.815
 3448SOL     OW20342   4.921   7.453   3.907
 3448SOL    HW120343   4.961   7.497   3.988
 3448SOL    HW220344   4.979   7.379   3.876
 3449SOL     OW20345   1.855   2.350   6.922
 3449SOL    HW120346   1.830   2.353   6.825
 3449SOL    HW220347   1.792   2.291   6.972
 3450SOL     OW20348   4.029   1.706   7.037
 3450SOL    HW120349   3.976   1.622   7.031
 3450SOL    HW220350   4.096   1.699   7.112
 3451SOL     OW20351   7.546   0.732   2.458
 3451SOL    HW120352   7.554   0.832   2.460
 3451SOL    HW220353   7.598   0.696   2.380
 3452SOL     OW20354   1.774   5.809   2.442
 3452SOL    HW120355   1.860   5.774   2.481
 3452SOL    HW220356   1.697   5.758   2.480
 3453SOL     OW20357   1.101   6.109   3.986
 3453SOL    HW120358   1.024   6.083   4.043
 3453SOL    HW220359   1.077   6.187   3.928
 3454SOL     OW20360   7.312   1.693   1.533
 3454SOL    HW120361   7.219   1.662   1.549
 3454SOL    HW220362   7.320   1.731   1.441
 3455SOL     OW20363   0.645   3.026   3.667
 3455SOL    HW120364   0.587   2.976   3.732
 3455SOL    HW220365   0.601   3.113   3.643
 3456SOL     OW20366   2.832   7.737   3.174
 3456SOL    HW120367   2.879   7.651   3.156
 3456SOL    HW220368   2.736   7.720   3.197
 3457SOL     OW20369   2.708   3.751   4.461
 3457SOL    HW120370   2.688   3.698   4.543
 3457SOL    HW220371   2.639   3.733   4.391
 3458SOL     OW20372   7.180   6.771   4.971
 3458SOL    HW120373   7.251   6.840   4.984
 3458SOL    HW220374   7.099   6.796   5.024
 3459SOL     OW20375   4.608   1.789   1.120
 3459SOL    HW120376   4.571   1.881   1.103
 3459SOL    HW220377   4.577   1.726   1.049
 3460SOL     OW20378   0.897   0.435   3.041
 3460SOL    HW120379   0.857   0.506   2.982
 3460SOL    HW220380   0.906   0.469   3.134
 3461SOL     OW20381   1.191   7.563   6.211
 3461SOL    HW120382   1.155   7.652   6.238
 3461SOL    HW220383   1.271   7.574   6.153
 3462SOL     OW20384   4.364   1.347   1.558
 3462SOL    HW120385   4.463   1.359   1.568
 3462SOL    HW220386   4.332   1.274   1.618
 3463SOL     OW20387   7.397   1.292   5.138
 3463SOL    HW120388   7.316   1.273   5.193
 3463SOL    HW220389   7.474   1.237   5.171
 3464SOL     OW20390   5.370   5.353   7.787
 3464SOL    HW120391   5.291   5.331   7.729
 3464SOL    HW220392   5.344   5.424   7.852
 3465SOL     OW20393   7.412   2.293   7.704
 3465SOL    HW120394   7.398   2.305   7.802
 3465SOL    HW220395   7.355   2.218   7.670
 3466SOL     OW20396   2.049   0.527   3.889
 3466SOL    HW120397   2.074   0.434   3.861
 3466SOL    HW220398   2.067   0.592   3.815
 3467SOL     OW20399   4.163   5.854   3.663
 3467SOL    HW120400   4.123   5.779   3.714
 3467SOL    HW220401   4.239   5.821   3.607
 3468SOL     OW20402   5.945   2.432   2.746
 3468SOL    HW120403   5.999   2.451   2.665
 3468SOL    HW220404   5.919   2.336   2.748
 3469SOL     OW20405   3.849   0.967   7.335
 3469SOL    HW120406   3.854   0.986   7.237
 3469SOL    HW220407   3.940   0.973   7.376
 3470SOL     OW20408   1.901   0.499   4.068
 3470SOL    HW120409   1.841   0.525   4.144
 3470SOL    HW220410   1.847   0.471   3.989
 3471SOL     OW20411   1.946   5.196   0.091
 3471SOL    HW120412   1.952   5.274   0.028
 3471SOL    HW220413   1.912   5.116   0.042
 3472SOL     OW20414   5.392   7.741   5.961
 3472SOL    HW120415   5.467   7.765   5.899
 3472SOL    HW220416   5.423   7.672   6.027
 3473SOL     OW20417   3.440   1.517   5.991
 3473SOL    HW120418   3.341   1.513   5.980
 3473SOL    HW220419   3.485   1.496   5.904
 3474SOL     OW20420   1.353   3.968   6.081
 3474SOL    HW120421   1.411   4.047   6.100
 3474SOL    HW220422   1.364   3.899   6.152
 3475SOL     OW20423   2.185   2.047   3.881
 3475SOL    HW120424   2.221   1.990   3.955
 3475SOL    HW220425   2.256   2.062   3.812
 3476SOL     OW20426   0.246   7.988   2.039
 3476SOL    HW120427   0.160   7.952   2.074
 3476SOL    HW220428   0.317   7.918   2.042
 3477SOL     OW20429   6.793   0.683   6.860
 3477SOL    HW120430   6.718   0.708   6.921
 3477SOL    HW220431   6.878   0.724   6.892
 3478SOL     OW20432   1.911   4.484   2.409
 3478SOL    HW120433   1.826   4.524   2.376
 3478SOL    HW220434   1.972   4.555   2.443
 3479SOL     OW20435   7.846   4.383   7.815
 3479SOL    HW120436   7.937   4.366   7.853
 3479SOL    HW220437   7.846   4.363   7.716
 3480SOL     OW20438   1.505   5.591   2.186
 3480SOL    HW120439   1.586   5.541   2.217
 3480SOL    HW220440   1.443   5.528   2.138
 3481SOL     OW20441   7.302   5.903   3.472
 3481SOL    HW120442   7.348   5.992   3.464
 3481SOL    HW220443   7.305   5.872   3.567
 3482SOL     OW20444   3.602   0.814   4.675
 3482SOL    HW120445   3.596   0.873   4.595
 3482SOL    HW220446   3.589   0.868   4.758
 3483SOL     OW20447   0.676   4.029   3.627
 3483SOL    HW120448   0.706   3.949   3.575
 3483SOL    HW220449   0.620   4.001   3.705
 3484SOL     OW20450   3.764   6.085   1.799
 3484SOL    HW120451   3.781   6.084   1.897
 3484SOL    HW220452   3.803   6.167   1.758
 3485SOL     OW20453   5.022   5.074   3.908
 3485SOL    HW120454   5.091   5.045   3.842
 3485SOL    HW220455   4.943   5.111   3.860
 3486SOL     OW20456   5.349   4.035   2.784
 3486SOL    HW120457   5.350   3.937   2.804
 3486SOL    HW220458   5.393   4.052   2.696
 3487SOL     OW20459   7.020   2.587   0.193
 3487SOL    HW120460   6.974   2.520   0.136
 3487SOL    HW220461   6.954   2.632   0.253
 3488SOL     OW20462   3.601   7.392   4.294
 3488SOL    HW120463   3.521   7.337   4.270
 3488SOL    HW220464   3.645   7.426   4.212
 3489SOL     OW20465   4.025   2.019   3.242
 3489SOL    HW120466   4.013   2.112   3.206
 3489SOL    HW220467   4.062   2.023   3.335
 3490SOL     OW20468   0.979   0.554   5.074
 3490SOL    HW120469   0.962   0.579   5.170
 3490SOL    HW220470   1.066   0.592   5.043
 3491SOL     OW20471  -0.038   6.302   2.815
 3491SOL    HW120472  -0.014   6.385   2.865
 3491SOL    HW220473  -0.045   6.322   2.717
 3492SOL     OW20474   6.602   4.304   2.021
 3492SOL    HW120475   6.599   4.224   1.961
 3492SOL    HW220476   6.509   4.335   2.041
 3493SOL     OW20477   0.080   2.082   1.559
 3493SOL    HW120478   0.061   2.013   1.629
 3493SOL    HW220479   0.041   2.053   1.471
 3494SOL     OW20480   6.371   5.380   1.628
 3494SOL    HW120481   6.426   5.383   1.545
 3494SOL    HW220482   6.357   5.285   1.657
 3495SOL     OW20483   7.578   4.957   7.737
 3495SOL    HW120484   7.560   5.054   7.752
 3495SOL    HW220485   7.602   4.941   7.641
 3496SOL     OW20486   0.948   0.986   7.100
 3496SOL    HW120487   0.867   0.998   7.158
 3496SOL    HW220488   0.983   1.074   7.070
 3497SOL     OW20489   5.660   1.684   0.258
 3497SOL    HW120490   5.674   1.676   0.159
 3497SOL    HW220491   5.632   1.777   0.282
 3498SOL     OW20492   7.839   3.588   0.797
 3498SOL    HW120493   7.754   3.563   0.844
 3498SOL    HW220494   7.857   3.525   0.722
 3499SOL     OW20495   4.641   2.437   7.397
 3499SOL    HW120496   4.700   2.368   7.355
 3499SOL    HW220497   4.653   2.525   7.352
 3500SOL     OW20498   4.277   2.430   5.271
 3500SOL    HW120499   4.279   2.530   5.280
 3500SOL    HW220500   4.370   2.395   5.262
 3501SOL     OW20501   3.419   0.734   6.701
 3501SOL    HW120502   3.327   0.717   6.738
 3501SOL    HW220503   3.426   0.696   6.609
 3502SOL     OW20504   1.886   4.957   4.162
 3502SOL    HW120505   1.847   4.893   4.227
 3502SOL    HW220506   1.854   5.050   4.181
 3503SOL     OW20507   1.276   3.972   6.518
 3503SOL    HW120508   1.233   3.903   6.460
 3503SOL    HW220509   1.218   3.991   6.597
 3504SOL     OW20510   2.467   6.444   7.917
 3504SOL    HW120511   2.417   6.361   7.890
 3504SOL    HW220512   2.468   6.452   8.017
 3505SOL     OW20513   7.497   0.569   0.241
 3505SOL    HW120514   7.564   0.635   0.208
 3505SOL    HW220515   7.523   0.537   0.333
 3506SOL     OW20516   5.069   6.881   4.642
 3506SOL    HW120517   5.079   6.786   4.672
 3506SOL    HW220518   5.035   6.936   4.718
 3507SOL     OW20519   5.434   5.786   5.835
 3507SOL    HW120520   5.522   5.827   5.859
 3507SOL    HW220521   5.427   5.775   5.736
 3508SOL     OW20522   7.392   7.503   2.883
 3508SOL    HW120523   7.301   7.537   2.860
 3508SOL    HW220524   7.421   7.539   2.971
 3509SOL     OW20525   0.593   7.842   1.994
 3509SOL    HW120526   0.672   7.782   1.983
 3509SOL    HW220527   0.610   7.928   1.945
 3510SOL     OW20528   7.749   4.957   2.288
 3510SOL    HW120529   7.835   4.989   2.246
 3510SOL    HW220530   7.729   4.864   2.256
 3511SOL     OW20531   0.867   4.038   1.006
 3511SOL    HW120532   0.896   3.955   0.958
 3511SOL    HW220533   0.830   4.014   1.096
 3512SOL     OW20534   7.758   2.246   1.226
 3512SOL    HW120535   7.708   2.176   1.174
 3512SOL    HW220536   7.729   2.337   1.195
 3513SOL     OW20537   0.294   0.667   7.157
 3513SOL    HW120538   0.227   0.682   7.230
 3513SOL    HW220539   0.255   0.691   7.068
 3514SOL     OW20540   0.823   4.455   2.917
 3514SOL    HW120541   0.745   4.405   2.878
 3514SOL    HW220542   0.833   4.432   3.014
 3515SOL     OW20543   7.066   7.699   6.023
 3515SOL    HW120544   7.085   7.708   5.926
 3515SOL    HW220545   7.151   7.688   6.074
 3516SOL     OW20546   1.411   6.846   7.068
 3516SOL    HW120547   1.441   6.920   7.008
 3516SOL    HW220548   1.479   6.773   7.068
 3517SOL     OW20549   3.406   3.780   7.164
 3517SOL    HW120550   3.471   3.730   7.106
 3517SOL    HW220551   3.408   3.743   7.257
 3518SOL     OW20552   2.714   6.155   7.019
 3518SOL    HW120553   2.810   6.143   6.992
 3518SOL    HW220554   2.698   6.114   7.108
 3519SOL     OW20555   3.376   6.739   5.866
 3519SOL    HW120556   3.472   6.713   5.856
 3519SOL    HW220557   3.331   6.682   5.935
 3520SOL     OW20558   4.981   0.936   4.892
 3520SOL    HW120559   4.969   0.837   4.891
 3520SOL    HW220560   5.013   0.966   4.982
 3521SOL     OW20561   2.524   1.995   3.385
 3521SOL    HW120562   2.609   2.024   3.428
 3521SOL    HW220563   2.515   2.037   3.295
 3522SOL     OW20564   4.325   6.435   1.725
 3522SOL    HW120565   4.242   6.475   1.685
 3522SOL    HW220566   4.321   6.335   1.721
 3523SOL     OW20567   1.725   7.520   3.837
 3523SOL    HW120568   1.641   7.471   3.813
 3523SOL    HW220569   1.711   7.572   3.922
 3524SOL     OW20570   7.298   3.242   7.675
 3524SOL    HW120571   7.274   3.144   7.670
 3524SOL    HW220572   7.252   3.284   7.754
 3525SOL     OW20573   3.233   4.201   5.132
 3525SOL    HW120574   3.287   4.285   5.142
 3525SOL    HW220575   3.223   4.156   5.221
 3526SOL     OW20576   5.878   1.286   3.313
 3526SOL    HW120577   5.908   1.278   3.218
 3526SOL    HW220578   5.870   1.196   3.354
 3527SOL     OW20579   2.084   6.328   5.585
 3527SOL    HW120580   2.042   6.398   5.643
 3527SOL    HW220581   2.037   6.322   5.498
 3528SOL     OW20582   6.057   5.935   3.250
 3528SOL    HW120583   6.125   5.990   3.201
 3528SOL    HW220584   6.072   5.838   3.232
 3529SOL     OW20585   5.791   4.533   7.933
 3529SOL    HW120586   5.789   4.531   7.832
 3529SOL    HW220587   5.886   4.537   7.964
 3530SOL     OW20588   3.086   3.931   0.879
 3530SOL    HW120589   3.040   4.019   0.895
 3530SOL    HW220590   3.184   3.942   0.891
 3531SOL     OW20591   3.203   0.660   1.622
 3531SOL    HW120592   3.231   0.623   1.711
 3531SOL    HW220593   3.269   0.727   1.590
 3532SOL     OW20594   2.861   4.851   7.103
 3532SOL    HW120595   2.952   4.824   7.070
 3532SOL    HW220596   2.848   4.816   7.196
 3533SOL     OW20597   2.387   7.031   0.858
 3533SOL    HW120598   2.355   6.941   0.825
 3533SOL    HW220599   2.442   7.075   0.787
 3534SOL     OW20600   1.395   6.295   2.080
 3534SOL    HW120601   1.366   6.311   1.985
 3534SOL    HW220602   1.427   6.201   2.090
 3535SOL     OW20603   3.678   6.389   1.686
 3535SOL    HW120604   3.704   6.473   1.640
 3535SOL    HW220605   3.731   6.378   1.771
 3536SOL     OW20606   1.191   0.641   1.308
 3536SOL    HW120607   1.197   0.660   1.210
 3536SOL    HW220608   1.141   0.557   1.323
 3537SOL     OW20609   0.033   7.763   4.311
 3537SOL    HW120610  -0.045   7.710   4.277
 3537SOL    HW220611   0.018   7.787   4.407
 3538SOL     OW20612   5.044   4.538   0.881
 3538SOL    HW120613   4.976   4.600   0.920
 3538SOL    HW220614   5.082   4.479   0.953
 3539SOL     OW20615   2.470   4.984   5.414
 3539SOL    HW120616   2.380   5.008   5.451
 3539SOL    HW220617   2.536   5.057   5.436
 3540SOL     OW20618   6.308   2.700   5.612
 3540SOL    HW120619   6.335   2.726   5.520
 3540SOL    HW220620   6.259   2.613   5.611
 3541SOL     OW20621   7.332   1.304   7.419
 3541SOL    HW120622   7.340   1.362   7.501
 3541SOL    HW220623   7.338   1.361   7.337
 3542SOL     OW20624   1.282   5.972   2.244
 3542SOL    HW120625   1.258   6.030   2.322
 3542SOL    HW220626   1.320   5.885   2.277
 3543SOL     OW20627   7.955   3.436   7.388
 3543SOL    HW120628   7.928   3.520   7.340
 3543SOL    HW220629   7.953   3.451   7.486
 3544SOL     OW20630   0.799   3.898   6.720
 3544SOL    HW120631   0.751   3.906   6.632
 3544SOL    HW220632   0.758   3.825   6.774
 3545SOL     OW20633   3.454   7.763   1.075
 3545SOL    HW120634   3.545   7.741   1.110
 3545SOL    HW220635   3.403   7.679   1.059
 3546SOL     OW20636   6.816   6.796   6.357
 3546SOL    HW120637   6.821   6.702   6.324
 3546SOL    HW220638   6.779   6.798   6.449
 3547SOL     OW20639   3.827   2.507   5.987
 3547SOL    HW120640   3.922   2.520   5.959
 3547SOL    HW220641   3.822   2.443   6.063
 3548SOL     OW20642   5.251  -0.011   2.618
 3548SOL    HW120643   5.157   0.025   2.613
 3548SOL    HW220644   5.300   0.009   2.534
 3549SOL     OW20645   4.711   4.586   6.902
 3549SOL    HW120646   4.682   4.491   6.902
 3549SOL    HW220647   4.803   4.593   6.942
 3550SOL     OW20648   0.245   3.771   1.911
 3550SOL    HW120649   0.173   3.834   1.941
 3550SOL    HW220650   0.247   3.691   1.971
 3551SOL     OW20651   6.847   6.252   4.041
 3551SOL    HW120652   6.765   6.249   4.097
 3551SOL    HW220653   6.831   6.307   3.959
 3552SOL     OW20654   7.639   1.911   6.831
 3552SOL    HW120655   7.619   1.978   6.902
 3552SOL    HW220656   7.608   1.945   6.742
 3553SOL     OW20657   1.371   0.434   2.972
 3553SOL    HW120658   1.292   0.459   2.917
 3553SOL    HW220659   1.369   0.336   2.993
 3554SOL     OW20660   0.059   4.093   1.330
 3554SOL    HW120661   0.042   3.995   1.316
 3554SOL    HW220662   0.041   4.117   1.425
 3555SOL     OW20663   0.194   3.460   2.061
 3555SOL    HW120664   0.147   3.420   1.982
 3555SOL    HW220665   0.128   3.510   2.117
 3556SOL     OW20666   1.788   4.720   2.548
 3556SOL    HW120667   1.703   4.757   2.510
 3556SOL    HW220668   1.803   4.756   2.640
 3557SOL     OW20669   1.958   7.916   1.131
 3557SOL    HW120670   1.924   7.842   1.190
 3557SOL    HW220671   1.919   7.906   1.039
 3558SOL     OW20672   2.044   7.715   7.218
 3558SOL    HW120673   2.085   7.632   7.181
 3558SOL    HW220674   2.008   7.771   7.143
 3559SOL     OW20675   3.026   7.430   2.117
 3559SOL    HW120676   2.984   7.375   2.045
 3559SOL    HW220677   3.048   7.372   2.195
 3560SOL     OW20678   7.344   4.891   0.709
 3560SOL    HW120679   7.248   4.883   0.681
 3560SOL    HW220680   7.350   4.948   0.790
 3561SOL     OW20681   6.515   7.444   5.360
 3561SOL    HW120682   6.496   7.539   5.386
 3561SOL    HW220683   6.473   7.425   5.271
 3562SOL     OW20684   7.640   2.133   0.477
 3562SOL    HW120685   7.671   2.224   0.506
 3562SOL    HW220686   7.634   2.073   0.556
 3563SOL     OW20687   0.600   4.624   4.788
 3563SOL    HW120688   0.547   4.564   4.728
 3563SOL    HW220689   0.672   4.669   4.736
 3564SOL     OW20690   2.749   5.016   7.597
 3564SOL    HW120691   2.782   5.100   7.553
 3564SOL    HW220692   2.823   4.975   7.651
 3565SOL     OW20693   6.180   0.174   7.175
 3565SOL    HW120694   6.236   0.239   7.124
 3565SOL    HW220695   6.214   0.167   7.269
 3566SOL     OW20696   1.169   7.949   1.686
 3566SOL    HW120697   1.085   7.989   1.647
 3566SOL    HW220698   1.177   7.975   1.782
 3567SOL     OW20699   1.246   4.418   2.340
 3567SOL    HW120700   1.319   4.441   2.404
 3567SOL    HW220701   1.284   4.395   2.251
 3568SOL     OW20702   3.700   7.380   0.808
 3568SOL    HW120703   3.709   7.461   0.750
 3568SOL    HW220704   3.771   7.380   0.879
 3569SOL     OW20705   3.482   1.469   1.466
 3569SOL    HW120706   3.396   1.435   1.430
 3569SOL    HW220707   3.468   1.505   1.558
 3570SOL     OW20708   2.711   1.516   7.319
 3570SOL    HW120709   2.794   1.526   7.374
 3570SOL    HW220710   2.639   1.473   7.373
 3571SOL     OW20711   5.655   3.132   2.643
 3571SOL    HW120712   5.610   3.136   2.554
 3571SOL    HW220713   5.674   3.225   2.675
 3572SOL     OW20714   0.776   4.041   2.185
 3572SOL    HW120715   0.835   4.065   2.107
 3572SOL    HW220716   0.831   4.034   2.268
 3573SOL     OW20717   5.568   3.794   2.740
 3573SOL    HW120718   5.532   3.876   2.696
 3573SOL    HW220719   5.495   3.728   2.757
 3574SOL     OW20720   7.823   3.843   0.747
 3574SOL    HW120721   7.749   3.789   0.788
 3574SOL    HW220722   7.844   3.808   0.655
 3575SOL     OW20723   3.986   0.491   1.037
 3575SOL    HW120724   4.070   0.499   0.984
 3575SOL    HW220725   3.963   0.580   1.078
 3576SOL     OW20726   5.014   4.198   2.617
 3576SOL    HW120727   4.961   4.272   2.659
 3576SOL    HW220728   5.109   4.227   2.605
 3577SOL     OW20729   4.403   1.414   3.294
 3577SOL    HW120730   4.489   1.456   3.320
 3577SOL    HW220731   4.420   1.325   3.251
 3578SOL     OW20732   7.018   1.315   6.934
 3578SOL    HW120733   7.046   1.331   6.840
 3578SOL    HW220734   6.920   1.332   6.945
 3579SOL     OW20735   3.763   6.440   5.316
 3579SOL    HW120736   3.860   6.430   5.297
 3579SOL    HW220737   3.743   6.532   5.349
 3580SOL     OW20738   1.627   7.563   6.887
 3580SOL    HW120739   1.580   7.476   6.904
 3580SOL    HW220740   1.606   7.628   6.960
 3581SOL     OW20741   5.926   2.364   1.595
 3581SOL    HW120742   5.841   2.330   1.633
 3581SOL    HW220743   5.974   2.421   1.662
 3582SOL     OW20744   0.530   4.313   2.853
 3582SOL    HW120745   0.507   4.255   2.775
 3582SOL    HW220746   0.449   4.327   2.910
 3583SOL     OW20747   2.133   4.018   6.757
 3583SOL    HW120748   2.143   3.921   6.782
 3583SOL    HW220749   2.100   4.025   6.664
 3584SOL     OW20750   6.303  -0.011   6.121
 3584SOL    HW120751   6.398   0.019   6.119
 3584SOL    HW220752   6.255   0.032   6.198
 3585SOL     OW20753   3.129   6.513   1.996
 3585SOL    HW120754   3.164   6.589   1.942
 3585SOL    HW220755   3.200   6.478   2.057
 3586SOL     OW20756   7.325   1.678   4.563
 3586SOL    HW120757   7.398   1.719   4.617
 3586SOL    HW220758   7.319   1.722   4.474
 3587SOL     OW20759   4.037   3.956   5.652
 3587SOL    HW120760   4.122   3.914   5.619
 3587SOL    HW220761   4.046   3.981   5.748
 3588SOL     OW20762   1.370   1.755   3.340
 3588SOL    HW120763   1.325   1.827   3.287
 3588SOL    HW220764   1.327   1.747   3.430
 3589SOL     OW20765   0.955   0.877   7.646
 3589SOL    HW120766   0.954   0.858   7.548
 3589SOL    HW220767   0.864   0.862   7.685
 3590SOL     OW20768   1.601   5.768   3.015
 3590SOL    HW120769   1.521   5.816   3.051
 3590SOL    HW220770   1.582   5.735   2.922
 3591SOL     OW20771   1.345   6.657   5.942
 3591SOL    HW120772   1.262   6.710   5.925
 3591SOL    HW220773   1.348   6.578   5.881
 3592SOL     OW20774   7.272   0.501   3.245
 3592SOL    HW120775   7.257   0.415   3.196
 3592SOL    HW220776   7.231   0.496   3.336
 3593SOL     OW20777   6.766   7.716   2.792
 3593SOL    HW120778   6.726   7.783   2.730
 3593SOL    HW220779   6.805   7.763   2.872
 3594SOL     OW20780   7.716   7.112   6.107
 3594SOL    HW120781   7.687   7.017   6.107
 3594SOL    HW220782   7.710   7.150   6.014
 3595SOL     OW20783   0.101   5.799   3.426
 3595SOL    HW120784   0.028   5.866   3.410
 3595SOL    HW220785   0.125   5.796   3.522
 3596SOL     OW20786   7.169   5.897   1.704
 3596SOL    HW120787   7.240   5.895   1.775
 3596SOL    HW220788   7.206   5.934   1.619
 3597SOL     OW20789   3.611   6.250   4.064
 3597SOL    HW120790   3.525   6.205   4.087
 3597SOL    HW220791   3.664   6.267   4.147
 3598SOL     OW20792   5.641   4.156   6.975
 3598SOL    HW120793   5.652   4.101   7.057
 3598SOL    HW220794   5.612   4.249   7.000
 3599SOL     OW20795   7.129   0.839   0.948
 3599SOL    HW120796   7.163   0.814   0.858
 3599SOL    HW220797   7.137   0.937   0.963
 3600SOL     OW20798   1.370   0.712   4.467
 3600SOL    HW120799   1.393   0.802   4.504
 3600SOL    HW220800   1.332   0.722   4.375
 3601SOL     OW20801   6.399   2.906   6.858
 3601SOL    HW120802   6.422   2.978   6.793
 3601SOL    HW220803   6.341   2.942   6.930
 3602SOL     OW20804   4.979   3.131   3.224
 3602SOL    HW120805   5.059   3.156   3.279
 3602SOL    HW220806   4.982   3.033   3.204
 3603SOL     OW20807   1.022   6.081   7.958
 3603SOL    HW120808   1.085   6.147   7.916
 3603SOL    HW220809   1.073   6.019   8.017
 3604SOL     OW20810   2.593   1.935   6.756
 3604SOL    HW120811   2.673   1.912   6.811
 3604SOL    HW220812   2.603   1.897   6.664
 3605SOL     OW20813   5.806   0.328   4.053
 3605SOL    HW120814   5.898   0.304   4.020
 3605SOL    HW220815   5.766   0.398   3.994
 3606SOL     OW20816   5.006   4.192   4.496
 3606SOL    HW120817   5.083   4.243   4.534
 3606SOL    HW220818   4.987   4.223   4.403
 3607SOL     OW20819   5.401   3.149   6.475
 3607SOL    HW120820   5.438   3.239   6.499
 3607SOL    HW220821   5.345   3.113   6.549
 3608SOL     OW20822   0.294   0.207   7.355
 3608SOL    HW120823   0.260   0.274   7.421
 3608SOL    HW220824   0.217   0.162   7.311
 3609SOL     OW20825   5.630   0.392   1.528
 3609SOL    HW120826   5.633   0.439   1.439
 3609SOL    HW220827   5.611   0.458   1.601
 3610SOL     OW20828   3.851   6.978   4.634
 3610SOL    HW120829   3.803   7.066   4.631
 3610SOL    HW220830   3.883   6.960   4.728
 3611SOL     OW20831   1.375   1.966   3.586
 3611SOL    HW120832   1.431   1.921   3.516
 3611SOL    HW220833   1.376   1.913   3.670
 3612SOL     OW20834   5.520   4.569   0.758
 3612SOL    HW120835   5.509   4.663   0.791
 3612SOL    HW220836   5.465   4.554   0.676
 3613SOL     OW20837   3.125   7.743   6.201
 3613SOL    HW120838   3.111   7.699   6.290
 3613SOL    HW220839   3.222   7.757   6.184
 3614SOL     OW20840   6.302   2.542   4.431
 3614SOL    HW120841   6.231   2.571   4.367
 3614SOL    HW220842   6.391   2.577   4.402
 3615SOL     OW20843   4.859   2.587   6.067
 3615SOL    HW120844   4.860   2.500   6.118
 3615SOL    HW220845   4.777   2.639   6.090
 3616SOL     OW20846   2.050   1.435   1.975
 3616SOL    HW120847   2.018   1.497   1.904
 3616SOL    HW220848   1.976   1.372   2.001
 3617SOL     OW20849   1.305   3.591   5.331
 3617SOL    HW120850   1.395   3.612   5.294
 3617SOL    HW220851   1.244   3.560   5.258
 3618SOL     OW20852   5.495   4.619   1.847
 3618SOL    HW120853   5.546   4.579   1.923
 3618SOL    HW220854   5.557   4.645   1.773
 3619SOL     OW20855   7.876   1.367   5.074
 3619SOL    HW120856   7.952   1.430   5.057
 3619SOL    HW220857   7.791   1.407   5.039
 3620SOL     OW20858   4.106   1.445   0.626
 3620SOL    HW120859   4.116   1.539   0.594
 3620SOL    HW220860   4.092   1.444   0.725
 3621SOL     OW20861   4.389   5.204   6.948
 3621SOL    HW120862   4.292   5.198   6.972
 3621SOL    HW220863   4.442   5.142   7.006
 3622SOL     OW20864   0.439   5.671   3.435
 3622SOL    HW120865   0.345   5.701   3.455
 3622SOL    HW220866   0.442   5.627   3.345
 3623SOL     OW20867   1.598   4.915   3.698
 3623SOL    HW120868   1.580   4.833   3.752
 3623SOL    HW220869   1.628   4.890   3.606
 3624SOL     OW20870   6.916   2.988   8.019
 3624SOL    HW120871   6.859   2.922   7.969
 3624SOL    HW220872   6.924   3.073   7.966
 3625SOL     OW20873   5.856   2.197   1.419
 3625SOL    HW120874   5.930   2.130   1.410
 3625SOL    HW220875   5.875   2.277   1.361
 3626SOL     OW20876   4.035   4.424   2.670
 3626SOL    HW120877   4.132   4.432   2.646
 3626SOL    HW220878   4.025   4.398   2.766
 3627SOL     OW20879   0.417   4.360   4.213
 3627SOL    HW120880   0.409   4.455   4.183
 3627SOL    HW220881   0.460   4.356   4.304
 3628SOL     OW20882   7.219   5.034   3.501
 3628SOL    HW120883   7.286   4.970   3.463
 3628SOL    HW220884   7.220   5.030   3.601
 3629SOL     OW20885   5.066   6.072   6.523
 3629SOL    HW120886   4.967   6.082   6.522
 3629SOL    HW220887   5.092   5.976   6.517
 3630SOL     OW20888   4.927   3.357   1.555
 3630SOL    HW120889   4.958   3.412   1.477
 3630SOL    HW220890   4.942   3.408   1.640
 3631SOL     OW20891   1.556   7.841   6.893
 3631SOL    HW120892   1.518   7.918   6.945
 3631SOL    HW220893   1.483   7.797   6.841
 3632SOL     OW20894   6.187   3.218   2.544
 3632SOL    HW120895   6.249   3.191   2.470
 3632SOL    HW220896   6.223   3.189   2.632
 3633SOL     OW20897   0.168   6.592   5.223
 3633SOL    HW120898   0.198   6.678   5.263
 3633SOL    HW220899   0.112   6.609   5.142
 3634SOL     OW20900   1.305   5.121   3.722
 3634SOL    HW120901   1.382   5.060   3.706
 3634SOL    HW220902   1.253   5.092   3.802
 3635SOL     OW20903   7.185   2.240   6.406
 3635SOL    HW120904   7.122   2.172   6.369
 3635SOL    HW220905   7.163   2.260   6.501
 3636SOL     OW20906   4.566   0.056   7.843
 3636SOL    HW120907   4.622   0.037   7.762
 3636SOL    HW220908   4.472   0.075   7.815
 3637SOL     OW20909   6.419   1.279   6.576
 3637SOL    HW120910   6.439   1.286   6.674
 3637SOL    HW220911   6.333   1.230   6.562
 3638SOL     OW20912   0.513   6.032   4.373
 3638SOL    HW120913   0.570   6.109   4.403
 3638SOL    HW220914   0.537   6.006   4.280
 3639SOL     OW20915   0.569   0.937   6.510
 3639SOL    HW120916   0.613   1.015   6.554
 3639SOL    HW220917   0.547   0.960   6.415
 3640SOL     OW20918   1.515   3.311   5.314
 3640SOL    HW120919   1.569   3.396   5.317
 3640SOL    HW220920   1.534   3.255   5.394
 3641SOL     OW20921   7.929   0.421   6.088
 3641SOL    HW120922   7.955   0.421   5.991
 3641SOL    HW220923   7.848   0.479   6.102
 3642SOL     OW20924   2.772   0.013   2.038
 3642SOL    HW120925   2.686   0.015   1.987
 3642SOL    HW220926   2.759   0.056   2.127
 3643SOL     OW20927   7.297   0.714   7.839
 3643SOL    HW120928   7.358   0.640   7.811
 3643SOL    HW220929   7.343   0.802   7.831
 3644SOL     OW20930   7.932   6.404   7.830
 3644SOL    HW120931   7.839   6.438   7.817
 3644SOL    HW220932   7.935   6.341   7.908
 3645SOL     OW20933   3.261   3.771   3.902
 3645SOL    HW120934   3.201   3.819   3.837
 3645SOL    HW220935   3.356   3.796   3.884
 3646SOL     OW20936   6.557   1.761   5.734
 3646SOL    HW120937   6.620   1.829   5.696
 3646SOL    HW220938   6.606   1.700   5.796
 3647SOL     OW20939   3.595   3.802   5.520
 3647SOL    HW120940   3.629   3.714   5.488
 3647SOL    HW220941   3.640   3.876   5.471
 3648SOL     OW20942   4.502   5.350   1.152
 3648SOL    HW120943   4.566   5.386   1.220
 3648SOL    HW220944   4.533   5.259   1.122
 3649SOL     OW20945   4.018   3.283   5.120
 3649SOL    HW120946   4.048   3.290   5.215
 3649SOL    HW220947   3.921   3.261   5.116
 3650SOL     OW20948   2.056   7.891   7.490
 3650SOL    HW120949   2.131   7.953   7.512
 3650SOL    HW220950   2.054   7.873   7.392
 3651SOL     OW20951   4.265   5.744   2.016
 3651SOL    HW120952   4.184   5.708   2.063
 3651SOL    HW220953   4.271   5.706   1.924
 3652SOL     OW20954   2.315   0.205   6.507
 3652SOL    HW120955   2.327   0.218   6.605
 3652SOL    HW220956   2.307   0.293   6.461
 3653SOL     OW20957   4.353   4.915   0.134
 3653SOL    HW120958   4.434   4.971   0.152
 3653SOL    HW220959   4.285   4.969   0.083
 3654SOL     OW20960   7.604   3.194   3.543
 3654SOL    HW120961   7.599   3.283   3.589
 3654SOL    HW220962   7.568   3.201   3.450
 3655SOL     OW20963   0.390   4.782   5.039
 3655SOL    HW120964   0.474   4.834   5.026
 3655SOL    HW220965   0.367   4.778   5.136
 3656SOL     OW20966   1.241   7.922   0.407
 3656SOL    HW120967   1.296   7.989   0.458
 3656SOL    HW220968   1.145   7.928   0.436
 3657SOL     OW20969   6.678   6.193   0.907
 3657SOL    HW120970   6.620   6.123   0.866
 3657SOL    HW220971   6.724   6.157   0.988
 3658SOL     OW20972   5.138   4.208   7.547
 3658SOL    HW120973   5.102   4.122   7.512
 3658SOL    HW220974   5.101   4.226   7.638
 3659SOL     OW20975   3.643   7.243   1.942
 3659SOL    HW120976   3.739   7.216   1.938
 3659SOL    HW220977   3.599   7.226   1.854
 3660SOL     OW20978   6.849   2.095   2.234
 3660SOL    HW120979   6.903   2.149   2.169
 3660SOL    HW220980   6.867   1.998   2.220
 3661SOL     OW20981   3.293   2.286   3.335
 3661SOL    HW120982   3.248   2.203   3.301
 3661SOL    HW220983   3.358   2.320   3.267
 3662SOL     OW20984   7.042   2.084   7.435
 3662SOL    HW120985   7.059   2.176   7.400
 3662SOL    HW220986   7.035   2.085   7.535
 3663SOL     OW20987   1.974   3.087   6.168
 3663SOL    HW120988   1.943   3.156   6.233
 3663SOL    HW220989   2.071   3.099   6.148
 3664SOL     OW20990   6.497   2.021   3.715
 3664SOL    HW120991   6.496   2.085   3.638
 3664SOL    HW220992   6.469   2.067   3.799
 3665SOL     OW20993   3.341   7.795   1.903
 3665SOL    HW120994   3.258   7.757   1.942
 3665SOL    HW220995   3.329   7.813   1.805
 3666SOL     OW20996   0.328   7.156   2.215
 3666SOL    HW120997   0.356   7.136   2.309
 3666SOL    HW220998   0.310   7.253   2.205
 3667SOL     OW20999   2.463   6.535   1.486
 3667SOL    HW121000   2.370   6.513   1.513
 3667SOL    HW221001   2.475   6.518   1.388
 3668SOL     OW21002   3.999   3.351   4.588
 3668SOL    HW121003   4.006   3.251   4.597
 3668SOL    HW221004   4.055   3.395   4.658
 3669SOL     OW21005   0.646   7.554   2.114
 3669SOL    HW121006   0.559   7.599   2.093
 3669SOL    HW221007   0.630   7.477   2.176
 3670SOL     OW21008   4.818   7.750   3.800
 3670SOL    HW121009   4.855   7.822   3.858
 3670SOL    HW221010   4.754   7.694   3.853
 3671SOL     OW21011   0.872   5.190   0.108
 3671SOL    HW121012   0.950   5.254   0.107
 3671SOL    HW221013   0.864   5.145   0.020
 3672SOL     OW21014   2.060   4.194   6.181
 3672SOL    HW121015   2.073   4.154   6.272
 3672SOL    HW221016   2.022   4.287   6.189
 3673SOL     OW21017   1.587   5.494   0.300
 3673SOL    HW121018   1.518   5.523   0.367
 3673SOL    HW221019   1.545   5.488   0.209
 3674SOL     OW21020   2.365   7.179   1.398
 3674SOL    HW121021   2.378   7.249   1.327
 3674SOL    HW221022   2.283   7.199   1.451
 3675SOL     OW21023   5.131   2.701   0.782
 3675SOL    HW121024   5.103   2.796   0.770
 3675SOL    HW221025   5.083   2.661   0.860
 3676SOL     OW21026   4.761   3.525   6.275
 3676SOL    HW121027   4.823   3.509   6.198
 3676SOL    HW221028   4.788   3.609   6.323
 3677SOL     OW21029   0.458   6.913   1.363
 3677SOL    HW121030   0.553   6.885   1.376
 3677SOL    HW221031   0.454   7.001   1.317
 3678SOL     OW21032   6.504   0.290   1.796
 3678SOL    HW121033   6.604   0.288   1.789
 3678SOL    HW221034   6.475   0.269   1.889
 3679SOL     OW21035   1.958   0.146   3.351
 3679SOL    HW121036   2.042   0.100   3.325
 3679SOL    HW221037   1.933   0.123   3.445
 3680SOL     OW21038   2.819   1.169   4.466
 3680SOL    HW121039   2.889   1.110   4.507
 3680SOL    HW221040   2.860   1.226   4.395
 3681SOL     OW21041   4.652   5.971   4.764
 3681SOL    HW121042   4.743   5.994   4.730
 3681SOL    HW221043   4.650   5.877   4.798
 3682SOL     OW21044   5.818   5.774   3.788
 3682SOL    HW121045   5.845   5.852   3.731
 3682SOL    HW221046   5.728   5.742   3.760
 3683SOL     OW21047   2.618   2.355   7.407
 3683SOL    HW121048   2.649   2.398   7.322
 3683SOL    HW221049   2.612   2.424   7.480
 3684SOL     OW21050   6.549   4.667   3.393
 3684SOL    HW121051   6.528   4.699   3.486
 3684SOL    HW221052   6.494   4.586   3.373
 3685SOL     OW21053   4.964   6.380   0.526
 3685SOL    HW121054   4.910   6.298   0.505
 3685SOL    HW221055   4.972   6.392   0.625
 3686SOL     OW21056   0.098   1.942   1.240
 3686SOL    HW121057   0.126   1.907   1.330
 3686SOL    HW221058   0.123   1.878   1.168
 3687SOL     OW21059   4.082   5.771   2.684
 3687SOL    HW121060   4.023   5.777   2.603
 3687SOL    HW221061   4.072   5.682   2.728
 3688SOL     OW21062   5.915   7.095   5.433
 3688SOL    HW121063   5.975   7.056   5.504
 3688SOL    HW221064   5.967   7.108   5.348
 3689SOL     OW21065   4.820   0.287   6.395
 3689SOL    HW121066   4.874   0.363   6.357
 3689SOL    HW221067   4.787   0.312   6.486
 3690SOL     OW21068   7.153   4.478   4.850
 3690SOL    HW121069   7.206   4.394   4.859
 3690SOL    HW221070   7.144   4.502   4.753
 3691SOL     OW21071   7.300   1.111   1.898
 3691SOL    HW121072   7.337   1.196   1.935
 3691SOL    HW221073   7.347   1.087   1.814
 3692SOL     OW21074   0.839   5.268   6.588
 3692SOL    HW121075   0.934   5.296   6.603
 3692SOL    HW221076   0.777   5.335   6.627
 3693SOL     OW21077   0.011   7.199   3.912
 3693SOL    HW121078   0.041   7.106   3.934
 3693SOL    HW221079   0.089   7.261   3.911
 3694SOL     OW21080   3.512   5.759   3.660
 3694SOL    HW121081   3.574   5.707   3.719
 3694SOL    HW221082   3.424   5.772   3.705
 3695SOL     OW21083   3.036   3.525   1.804
 3695SOL    HW121084   3.081   3.548   1.718
 3695SOL    HW221085   3.101   3.481   1.866
 3696SOL     OW21086   5.697   4.873   6.581
 3696SOL    HW121087   5.715   4.970   6.568
 3696SOL    HW221088   5.764   4.834   6.644
 3697SOL     OW21089   4.370   7.382   5.134
 3697SOL    HW121090   4.296   7.406   5.199
 3697SOL    HW221091   4.361   7.287   5.106
 3698SOL     OW21092   2.583   7.914   6.801
 3698SOL    HW121093   2.579   7.896   6.703
 3698SOL    HW221094   2.649   7.987   6.819
 3699SOL     OW21095   5.507   3.808   1.568
 3699SOL    HW121096   5.427   3.760   1.604
 3699SOL    HW221097   5.530   3.774   1.477
 3700SOL     OW21098   1.993   6.433   0.559
 3700SOL    HW121099   2.035   6.447   0.649
 3700SOL    HW221100   2.056   6.386   0.498
 3701SOL     OW21101   0.886   3.546   0.204
 3701SOL    HW121102   0.854   3.615   0.140
 3701SOL    HW221103   0.980   3.566   0.232
 3702SOL     OW21104   5.954   5.587   7.576
 3702SOL    HW121105   6.028   5.564   7.640
 3702SOL    HW221106   5.876   5.526   7.590
 3703SOL     OW21107   6.071   1.236   6.411
 3703SOL    HW121108   5.994   1.291   6.447
 3703SOL    HW221109   6.158   1.278   6.438
 3704SOL     OW21110   5.008   5.190   6.216
 3704SOL    HW121111   5.102   5.223   6.228
 3704SOL    HW221112   4.976   5.212   6.124
 3705SOL     OW21113   3.695   1.069   7.805
 3705SOL    HW121114   3.785   1.049   7.845
 3705SOL    HW221115   3.669   1.163   7.825
 3706SOL     OW21116   7.819   3.277   3.745
 3706SOL    HW121117   7.724   3.298   3.769
 3706SOL    HW221118   7.824   3.187   3.700
 3707SOL     OW21119   6.685   6.221   0.658
 3707SOL    HW121120   6.771   6.242   0.705
 3707SOL    HW221121   6.616   6.289   0.681
 3708SOL     OW21122   6.819   2.704   0.735
 3708SOL    HW121123   6.813   2.687   0.637
 3708SOL    HW221124   6.820   2.802   0.754
 3709SOL     OW21125   6.942   3.609   7.893
 3709SOL    HW121126   6.997   3.671   7.836
 3709SOL    HW221127   6.903   3.537   7.837
 3710SOL     OW21128   2.223   6.822   7.085
 3710SOL    HW121129   2.301   6.883   7.072
 3710SOL    HW221130   2.177   6.844   7.171
 3711SOL     OW21131   2.817   5.517   7.006
 3711SOL    HW121132   2.883   5.558   7.070
 3711SOL    HW221133   2.729   5.563   7.014
 3712SOL     OW21134   7.182   5.942   5.351
 3712SOL    HW121135   7.187   5.844   5.330
 3712SOL    HW221136   7.267   5.987   5.323
 3713SOL     OW21137   0.204   0.348   0.108
 3713SOL    HW121138   0.149   0.286   0.165
 3713SOL    HW221139   0.219   0.307   0.018
 3714SOL     OW21140   1.759   0.092   5.115
 3714SOL    HW121141   1.789   0.123   5.206
 3714SOL    HW221142   1.767  -0.008   5.110
 3715SOL     OW21143   3.340   1.887   0.105
 3715SOL    HW121144   3.296   1.864   0.018
 3715SOL    HW221145   3.421   1.828   0.118
 3716SOL     OW21146   7.364   5.709   7.924
 3716SOL    HW121147   7.288   5.771   7.945
 3716SOL    HW221148   7.371   5.696   7.826
 3717SOL     OW21149   5.825   3.677   5.942
 3717SOL    HW121150   5.789   3.589   5.910
 3717SOL    HW221151   5.788   3.697   6.033
 3718SOL     OW21152   5.358   5.075   2.352
 3718SOL    HW121153   5.268   5.065   2.396
 3718SOL    HW221154   5.367   5.167   2.316
 3719SOL     OW21155   7.796   0.205   1.804
 3719SOL    HW121156   7.697   0.221   1.813
 3719SOL    HW221157   7.813   0.136   1.733
 3720SOL     OW21158   7.451   3.658   1.390
 3720SOL    HW121159   7.365   3.609   1.403
 3720SOL    HW221160   7.488   3.639   1.299
 3721SOL     OW21161   5.952   7.924   0.554
 3721SOL    HW121162   5.864   7.895   0.516
 3721SOL    HW221163   6.012   7.845   0.566
 3722SOL     OW21164   2.144   3.134   3.472
 3722SOL    HW121165   2.186   3.214   3.428
 3722SOL    HW221166   2.132   3.151   3.569
 3723SOL     OW21167   0.504   2.782   3.854
 3723SOL    HW121168   0.585   2.801   3.909
 3723SOL    HW221169   0.531   2.762   3.759
 3724SOL     OW21170   1.995   5.169   5.392
 3724SOL    HW121171   2.067   5.169   5.462
 3724SOL    HW221172   2.021   5.227   5.315
 3725SOL     OW21173   6.610   3.331   5.849
 3725SOL    HW121174   6.663   3.262   5.801
 3725SOL    HW221175   6.668   3.409   5.873
 3726SOL     OW21176   7.501   5.571   5.914
 3726SOL    HW121177   7.502   5.505   5.988
 3726SOL    HW221178   7.494   5.664   5.950
 3727SOL     OW21179   1.751   7.321   2.534
 3727SOL    HW121180   1.835   7.327   2.589
 3727SOL    HW221181   1.672   7.312   2.595
 3728SOL     OW21182   2.290   1.260   4.612
 3728SOL    HW121183   2.330   1.169   4.626
 3728SOL    HW221184   2.353   1.331   4.642
 3729SOL     OW21185   4.265   7.124   3.896
 3729SOL    HW121186   4.308   7.129   3.806
 3729SOL    HW221187   4.179   7.174   3.896
 3730SOL     OW21188   7.596   4.098   4.367
 3730SOL    HW121189   7.593   4.196   4.349
 3730SOL    HW221190   7.614   4.081   4.463
 3731SOL     OW21191   0.646   3.279   5.314
 3731SOL    HW121192   0.554   3.317   5.322
 3731SOL    HW221193   0.706   3.321   5.381
 3732SOL     OW21194   0.503   2.124   3.807
 3732SOL    HW121195   0.593   2.168   3.807
 3732SOL    HW221196   0.432   2.193   3.795
 3733SOL     OW21197   5.584   7.381   5.048
 3733SOL    HW121198   5.632   7.325   4.980
 3733SOL    HW221199   5.588   7.338   5.137
 3734SOL     OW21200   2.137   7.602   3.415
 3734SOL    HW121201   2.066   7.672   3.403
 3734SOL    HW221202   2.183   7.614   3.502
 3735SOL     OW21203   1.866   6.100   1.569
 3735SOL    HW121204   1.895   6.194   1.589
 3735SOL    HW221205   1.941   6.036   1.590
 3736SOL     OW21206   4.339   7.723   1.665
 3736SOL    HW121207   4.321   7.661   1.742
 3736SOL    HW221208   4.258   7.728   1.606
 3737SOL     OW21209   3.861   7.429   2.096
 3737SOL    HW121210   3.920   7.454   2.019
 3737SOL    HW221211   3.872   7.496   2.170
 3738SOL     OW21212   4.858   3.526   0.146
 3738SOL    HW121213   4.816   3.573   0.068
 3738SOL    HW221214   4.952   3.499   0.124
 3739SOL     OW21215   1.993   7.042   0.142
 3739SOL    HW121216   2.067   7.105   0.166
 3739SOL    HW221217   1.905   7.084   0.163
 3740SOL     OW21218   4.025   5.801   4.780
 3740SOL    HW121219   3.991   5.881   4.831
 3740SOL    HW221220   4.093   5.830   4.713
 3741SOL     OW21221   3.339   4.183   5.731
 3741SOL    HW121222   3.307   4.121   5.803
 3741SOL    HW221223   3.264   4.203   5.668
 3742SOL     OW21224   4.511   7.345   7.786
 3742SOL    HW121225   4.593   7.336   7.729
 3742SOL    HW221226   4.516   7.283   7.864
 3743SOL     OW21227   2.621   5.212   5.007
 3743SOL    HW121228   2.658   5.248   4.921
 3743SOL    HW221229   2.596   5.287   5.068
 3744SOL     OW21230   5.579   4.620   0.438
 3744SOL    HW121231   5.657   4.584   0.386
 3744SOL    HW221232   5.611   4.669   0.519
 3745SOL     OW21233   5.333   1.951   5.573
 3745SOL    HW121234   5.420   1.915   5.540
 3745SOL    HW221235   5.329   1.947   5.673
 3746SOL     OW21236   7.728   1.646   5.933
 3746SOL    HW121237   7.741   1.661   5.835
 3746SOL    HW221238   7.761   1.555   5.959
 3747SOL     OW21239   0.938   1.612   7.731
 3747SOL    HW121240   0.910   1.673   7.805
 3747SOL    HW221241   0.949   1.519   7.765
 3748SOL     OW21242   5.946   1.972   5.900
 3748SOL    HW121243   5.947   1.954   5.998
 3748SOL    HW221244   6.032   1.941   5.859
 3749SOL     OW21245   1.569   0.346   3.829
 3749SOL    HW121246   1.574   0.270   3.764
 3749SOL    HW221247   1.636   0.416   3.806
 3750SOL     OW21248   7.858   0.956   2.625
 3750SOL    HW121249   7.955   0.931   2.623
 3750SOL    HW221250   7.841   1.015   2.704
 3751SOL     OW21251   4.729   5.630   2.468
 3751SOL    HW121252   4.636   5.646   2.502
 3751SOL    HW221253   4.727   5.612   2.369
 3752SOL     OW21254   0.274   3.065   2.198
 3752SOL    HW121255   0.334   3.140   2.227
 3752SOL    HW221256   0.223   3.092   2.116
 3753SOL     OW21257   4.031   1.167   7.513
 3753SOL    HW121258   4.112   1.150   7.458
 3753SOL    HW221259   4.055   1.218   7.596
 3754SOL     OW21260   1.967   7.277   1.502
 3754SOL    HW121261   2.008   7.346   1.561
 3754SOL    HW221262   2.038   7.215   1.468
 3755SOL     OW21263   3.135   4.367   4.612
 3755SOL    HW121264   3.149   4.461   4.640
 3755SOL    HW221265   3.192   4.346   4.532
 3756SOL     OW21266   0.274   7.925   4.720
 3756SOL    HW121267   0.192   7.870   4.703
 3756SOL    HW221268   0.257   7.987   4.796
 3757SOL     OW21269   0.962   3.841   0.644
 3757SOL    HW121270   1.058   3.853   0.620
 3757SOL    HW221271   0.904   3.880   0.572
 3758SOL     OW21272   0.958   0.380   6.576
 3758SOL    HW121273   0.975   0.474   6.605
 3758SOL    HW221274   1.003   0.362   6.488
 3759SOL     OW21275   6.466   0.871   6.588
 3759SOL    HW121276   6.546   0.924   6.558
 3759SOL    HW221277   6.492   0.776   6.601
 3760SOL     OW21278   6.932   1.710   7.941
 3760SOL    HW121279   7.020   1.670   7.970
 3760SOL    HW221280   6.894   1.657   7.865
 3761SOL     OW21281   6.874   3.370   3.341
 3761SOL    HW121282   6.866   3.468   3.357
 3761SOL    HW221283   6.947   3.352   3.277
 3762SOL     OW21284   2.802   4.541   6.433
 3762SOL    HW121285   2.715   4.494   6.416
 3762SOL    HW221286   2.801   4.632   6.391
 3763SOL     OW21287   3.931   0.125   1.270
 3763SOL    HW121288   3.834   0.107   1.288
 3763SOL    HW221289   3.985   0.103   1.351
 3764SOL     OW21290   3.562   5.685   1.012
 3764SOL    HW121291   3.648   5.633   1.008
 3764SOL    HW221292   3.574   5.774   0.969
 3765SOL     OW21293   2.417   7.294   6.967
 3765SOL    HW121294   2.492   7.255   7.021
 3765SOL    HW221295   2.329   7.260   7.000
 3766SOL     OW21296   3.205   5.652   4.092
 3766SOL    HW121297   3.209   5.750   4.112
 3766SOL    HW221298   3.188   5.637   3.995
 3767SOL     OW21299   1.968   7.701   5.463
 3767SOL    HW121300   2.021   7.702   5.548
 3767SOL    HW221301   2.000   7.774   5.403
 3768SOL     OW21302   1.495   5.694   7.698
 3768SOL    HW121303   1.422   5.639   7.741
 3768SOL    HW221304   1.553   5.634   7.642
 3769SOL     OW21305   1.983   0.430   3.326
 3769SOL    HW121306   2.030   0.510   3.289
 3769SOL    HW221307   2.017   0.410   3.418
 3770SOL     OW21308   5.902   4.717   4.198
 3770SOL    HW121309   5.915   4.721   4.297
 3770SOL    HW221310   5.976   4.665   4.155
 3771SOL     OW21311   2.205   7.030   5.545
 3771SOL    HW121312   2.135   7.071   5.602
 3771SOL    HW221313   2.173   6.944   5.506
 3772SOL     OW21314   3.357   7.956   3.381
 3772SOL    HW121315   3.395   7.883   3.438
 3772SOL    HW221316   3.424   7.987   3.314
 3773SOL     OW21317   7.881   6.060   6.156
 3773SOL    HW121318   7.800   6.026   6.203
 3773SOL    HW221319   7.912   5.994   6.087
 3774SOL     OW21320   2.719   7.939   0.620
 3774SOL    HW121321   2.671   7.989   0.547
 3774SOL    HW221322   2.696   7.978   0.709
 3775SOL     OW21323   4.778   1.737   1.343
 3775SOL    HW121324   4.831   1.725   1.427
 3775SOL    HW221325   4.838   1.761   1.267
 3776SOL     OW21326   6.760   2.096   1.023
 3776SOL    HW121327   6.728   2.151   1.100
 3776SOL    HW221328   6.688   2.088   0.954
 3777SOL     OW21329   7.335   4.784   4.364
 3777SOL    HW121330   7.380   4.786   4.453
 3777SOL    HW221331   7.237   4.792   4.375
 3778SOL     OW21332   5.907   3.723   3.623
 3778SOL    HW121333   5.822   3.686   3.585
 3778SOL    HW221334   5.892   3.756   3.716
 3779SOL     OW21335   3.334   0.368   6.973
 3779SOL    HW121336   3.304   0.432   7.044
 3779SOL    HW221337   3.370   0.285   7.015
 3780SOL     OW21338   2.363   1.754   4.956
 3780SOL    HW121339   2.287   1.739   4.892
 3780SOL    HW221340   2.450   1.751   4.908
 3781SOL     OW21341   3.531   6.036   0.131
 3781SOL    HW121342   3.467   6.090   0.187
 3781SOL    HW221343   3.615   6.020   0.183
 3782SOL     OW21344   5.563   7.627   4.320
 3782SOL    HW121345   5.607   7.653   4.233
 3782SOL    HW221346   5.561   7.528   4.328
 3783SOL     OW21347   5.615   5.664   2.638
 3783SOL    HW121348   5.696   5.722   2.635
 3783SOL    HW221349   5.581   5.649   2.545
 3784SOL     OW21350   7.001   6.694   7.564
 3784SOL    HW121351   6.998   6.776   7.508
 3784SOL    HW221352   6.979   6.614   7.509
 3785SOL     OW21353   6.401   0.669   7.438
 3785SOL    HW121354   6.412   0.768   7.451
 3785SOL    HW221355   6.435   0.643   7.347
 3786SOL     OW21356   6.703   0.738   4.428
 3786SOL    HW121357   6.661   0.823   4.460
 3786SOL    HW221358   6.799   0.753   4.406
 3787SOL     OW21359   0.139   3.287   5.224
 3787SOL    HW121360   0.073   3.327   5.161
 3787SOL    HW221361   0.209   3.354   5.247
 3788SOL     OW21362   2.747   3.122   2.652
 3788SOL    HW121363   2.818   3.191   2.666
 3788SOL    HW221364   2.787   3.038   2.616
 3789SOL     OW21365   7.829   0.915   6.559
 3789SOL    HW121366   7.783   0.861   6.488
 3789SOL    HW221367   7.799   0.885   6.649
 3790SOL     OW21368   5.863   1.559   6.352
 3790SOL    HW121369   5.792   1.629   6.350
 3790SOL    HW221370   5.953   1.601   6.362
 3791SOL     OW21371   2.748   5.316   7.670
 3791SOL    HW121372   2.753   5.380   7.747
 3791SOL    HW221373   2.758   5.366   7.584
 3792SOL     OW21374   0.445   0.592   0.563
 3792SOL    HW121375   0.361   0.539   0.555
 3792SOL    HW221376   0.485   0.607   0.473
 3793SOL     OW21377   5.968   1.834   6.361
 3793SOL    HW121378   6.064   1.807   6.373
 3793SOL    HW221379   5.921   1.836   6.449
 3794SOL     OW21380   6.504   7.898   2.482
 3794SOL    HW121381   6.488   7.989   2.521
 3794SOL    HW221382   6.482   7.897   2.385
 3795SOL     OW21383   4.582   7.145   1.809
 3795SOL    HW121384   4.636   7.088   1.872
 3795SOL    HW221385   4.569   7.236   1.847
 3796SOL     OW21386   0.100   2.703   2.237
 3796SOL    HW121387   0.146   2.649   2.307
 3796SOL    HW221388   0.135   2.797   2.238
 3797SOL     OW21389   3.244   3.894   5.528
 3797SOL    HW121390   3.274   3.834   5.453
 3797SOL    HW221391   3.225   3.986   5.493
 3798SOL     OW21392   7.021   4.891   0.860
 3798SOL    HW121393   7.091   4.961   0.870
 3798SOL    HW221394   6.978   4.898   0.770
 3799SOL     OW21395   1.044   4.765   5.714
 3799SOL    HW121396   1.016   4.679   5.670
 3799SOL    HW221397   0.967   4.829   5.716
 3800SOL     OW21398   6.621   5.341   2.019
 3800SOL    HW121399   6.586   5.248   2.003
 3800SOL    HW221400   6.688   5.339   2.094
 3801SOL     OW21401   0.574   4.929   7.196
 3801SOL    HW121402   0.624   4.932   7.283
 3801SOL    HW221403   0.631   4.966   7.123
 3802SOL     OW21404   4.530   6.061   2.369
 3802SOL    HW121405   4.545   5.977   2.422
 3802SOL    HW221406   4.612   6.084   2.317
 3803SOL     OW21407   4.825   7.228   5.256
 3803SOL    HW121408   4.780   7.158   5.201
 3803SOL    HW221409   4.876   7.290   5.197
 3804SOL     OW21410   0.659   7.527   6.121
 3804SOL    HW121411   0.621   7.460   6.056
 3804SOL    HW221412   0.637   7.619   6.090
 3805SOL     OW21413   6.280   4.484   6.601
 3805SOL    HW121414   6.238   4.570   6.631
 3805SOL    HW221415   6.378   4.486   6.620
 3806SOL     OW21416   2.113   5.576   2.507
 3806SOL    HW121417   2.148   5.490   2.469
 3806SOL    HW221418   2.031   5.559   2.561
 3807SOL     OW21419   1.645   2.455   0.632
 3807SOL    HW121420   1.594   2.423   0.712
 3807SOL    HW221421   1.660   2.554   0.638
 3808SOL     OW21422   0.571   2.195   6.749
 3808SOL    HW121423   0.606   2.118   6.695
 3808SOL    HW221424   0.621   2.202   6.836
 3809SOL     OW21425   5.829   5.255   2.299
 3809SOL    HW121426   5.809   5.157   2.303
 3809SOL    HW221427   5.887   5.274   2.220
 3810SOL     OW21428   6.000   3.094   6.792
 3810SOL    HW121429   5.994   3.185   6.832
 3810SOL    HW221430   6.033   3.028   6.860
 3811SOL     OW21431   7.908   7.084   2.834
 3811SOL    HW121432   7.870   7.074   2.926
 3811SOL    HW221433   7.913   6.995   2.789
 3812SOL     OW21434   7.015   5.398   1.997
 3812SOL    HW121435   7.095   5.394   2.057
 3812SOL    HW221436   7.008   5.488   1.955
 3813SOL     OW21437   0.581   3.832   5.482
 3813SOL    HW121438   0.646   3.885   5.537
 3813SOL    HW221439   0.630   3.773   5.419
 3814SOL     OW21440   4.109   5.266   1.371
 3814SOL    HW121441   4.158   5.214   1.301
 3814SOL    HW221442   4.133   5.362   1.365
 3815SOL     OW21443   5.111   4.059   4.751
 3815SOL    HW121444   5.099   3.962   4.771
 3815SOL    HW221445   5.142   4.071   4.657
 3816SOL     OW21446   3.385   0.295   5.098
 3816SOL    HW121447   3.296   0.328   5.065
 3816SOL    HW221448   3.434   0.368   5.144
 3817SOL     OW21449   1.358   5.082   2.183
 3817SOL    HW121450   1.395   5.175   2.173
 3817SOL    HW221451   1.405   5.035   2.257
 3818SOL     OW21452   7.290   1.001   7.441
 3818SOL    HW121453   7.219   1.002   7.511
 3818SOL    HW221454   7.292   1.088   7.392
 3819SOL     OW21455   7.552   1.353   7.145
 3819SOL    HW121456   7.463   1.390   7.119
 3819SOL    HW221457   7.565   1.359   7.244
 3820SOL     OW21458   6.125   5.327   4.174
 3820SOL    HW121459   6.218   5.347   4.142
 3820SOL    HW221460   6.113   5.362   4.267
 3821SOL     OW21461   1.566   4.319   2.704
 3821SOL    HW121462   1.470   4.347   2.706
 3821SOL    HW221463   1.613   4.362   2.627
 3822SOL     OW21464   6.830   0.786   7.645
 3822SOL    HW121465   6.807   0.877   7.612
 3822SOL    HW221466   6.915   0.788   7.698
 3823SOL     OW21467   6.404   2.274   7.350
 3823SOL    HW121468   6.313   2.297   7.314
 3823SOL    HW221469   6.419   2.323   7.436
 3824SOL     OW21470   5.725   0.746   2.258
 3824SOL    HW121471   5.717   0.648   2.243
 3824SOL    HW221472   5.699   0.768   2.352
 3825SOL     OW21473   3.346   3.823   2.944
 3825SOL    HW121474   3.379   3.748   3.003
 3825SOL    HW221475   3.324   3.788   2.854
 3826SOL     OW21476   6.240   3.909   1.551
 3826SOL    HW121477   6.160   3.864   1.512
 3826SOL    HW221478   6.257   3.996   1.506
 3827SOL     OW21479   7.528   6.068   3.203
 3827SOL    HW121480   7.511   5.977   3.166
 3827SOL    HW221481   7.550   6.063   3.300
 3828SOL     OW21482   5.697   6.121   6.739
 3828SOL    HW121483   5.628   6.050   6.758
 3828SOL    HW221484   5.750   6.140   6.821
 3829SOL     OW21485   0.711   6.676   1.632
 3829SOL    HW121486   0.668   6.593   1.597
 3829SOL    HW221487   0.646   6.751   1.632
 3830SOL     OW21488   6.108   6.200   6.161
 3830SOL    HW121489   6.147   6.109   6.172
 3830SOL    HW221490   6.154   6.265   6.221
 3831SOL     OW21491   2.924   0.992   2.621
 3831SOL    HW121492   2.997   1.061   2.613
 3831SOL    HW221493   2.948   0.911   2.568
 3832SOL     OW21494   5.626   5.211   0.537
 3832SOL    HW121495   5.541   5.160   0.553
 3832SOL    HW221496   5.657   5.197   0.443
 3833SOL     OW21497   3.035   3.660   7.186
 3833SOL    HW121498   3.130   3.647   7.158
 3833SOL    HW221499   3.020   3.619   7.276
 3834SOL     OW21500   0.746   5.427   0.581
 3834SOL    HW121501   0.826   5.368   0.596
 3834SOL    HW221502   0.668   5.393   0.632
 3835SOL     OW21503   3.465   3.631   2.709
 3835SOL    HW121504   3.561   3.629   2.735
 3835SOL    HW221505   3.439   3.722   2.678
 3836SOL     OW21506   1.913   3.632   6.967
 3836SOL    HW121507   1.932   3.629   7.065
 3836SOL    HW221508   1.843   3.700   6.947
 3837SOL     OW21509   2.177   6.708   6.846
 3837SOL    HW121510   2.264   6.668   6.818
 3837SOL    HW221511   2.151   6.674   6.936
 3838SOL     OW21512   0.248   0.391   3.369
 3838SOL    HW121513   0.191   0.374   3.450
 3838SOL    HW221514   0.305   0.472   3.383
 3839SOL     OW21515   3.774   1.498   0.876
 3839SOL    HW121516   3.763   1.550   0.792
 3839SOL    HW221517   3.707   1.424   0.881
 3840SOL     OW21518   1.619   1.906   4.690
 3840SOL    HW121519   1.550   1.974   4.716
 3840SOL    HW221520   1.661   1.867   4.772
 3841SOL     OW21521   7.072   2.597   1.022
 3841SOL    HW121522   7.111   2.534   0.955
 3841SOL    HW221523   6.979   2.570   1.045
 3842SOL     OW21524   5.512   1.623   0.446
 3842SOL    HW121525   5.428   1.584   0.409
 3842SOL    HW221526   5.493   1.666   0.534
 3843SOL     OW21527   4.760   7.064   1.157
 3843SOL    HW121528   4.789   7.160   1.148
 3843SOL    HW221529   4.712   7.051   1.244
 3844SOL     OW21530   3.359   2.909   3.488
 3844SOL    HW121531   3.457   2.908   3.466
 3844SOL    HW221532   3.306   2.928   3.405
 3845SOL     OW21533   1.989   3.526   5.396
 3845SOL    HW121534   1.903   3.506   5.442
 3845SOL    HW221535   1.995   3.476   5.309
 3846SOL     OW21536   3.311   4.388   2.575
 3846SOL    HW121537   3.238   4.333   2.615
 3846SOL    HW221538   3.273   4.461   2.518
 3847SOL     OW21539   4.045   7.912   7.614
 3847SOL    HW121540   3.968   7.864   7.570
 3847SOL    HW221541   4.083   7.980   7.552
 3848SOL     OW21542   7.141   0.906   6.499
 3848SOL    HW121543   7.192   0.951   6.572
 3848SOL    HW221544   7.201   0.891   6.420
 3849SOL     OW21545   2.052   5.339   6.956
 3849SOL    HW121546   2.145   5.360   6.987
 3849SOL    HW221547   2.040   5.366   6.860
 3850SOL     OW21548   1.358   7.259   6.011
 3850SOL    HW121549   1.401   7.177   5.974
 3850SOL    HW221550   1.323   7.242   6.103
 3851SOL     OW21551   1.520   6.879   2.300
 3851SOL    HW121552   1.488   6.916   2.387
 3851SOL    HW221553   1.619   6.866   2.301
 3852SOL     OW21554   0.370   4.388   6.697
 3852SOL    HW121555   0.297   4.330   6.662
 3852SOL    HW221556   0.430   4.418   6.623
 3853SOL     OW21557   5.588   6.307   6.078
 3853SOL    HW121558   5.508   6.333   6.024
 3853SOL    HW221559   5.559   6.266   6.164
 3854SOL     OW21560   3.068   2.568   6.034
 3854SOL    HW121561   3.142   2.564   6.101
 3854SOL    HW221562   3.105   2.584   5.942
 3855SOL     OW21563   0.915   6.107   0.613
 3855SOL    HW121564   0.992   6.084   0.673
 3855SOL    HW221565   0.945   6.112   0.518
 3856SOL     OW21566   6.903   3.206   7.751
 3856SOL    HW121567   6.841   3.252   7.686
 3856SOL    HW221568   6.897   3.250   7.840
 3857SOL     OW21569   3.988   6.195   5.294
 3857SOL    HW121570   4.057   6.247   5.243
 3857SOL    HW221571   3.905   6.186   5.240
 3858SOL     OW21572   6.834   3.302   3.075
 3858SOL    HW121573   6.802   3.213   3.106
 3858SOL    HW221574   6.887   3.293   2.991
 3859SOL     OW21575   6.151   0.663   4.789
 3859SOL    HW121576   6.129   0.647   4.886
 3859SOL    HW221577   6.160   0.761   4.773
 3860SOL     OW21578   5.052   7.989   0.269
 3860SOL    HW121579   5.010   7.965   0.181
 3860SOL    HW221580   5.103   7.911   0.305
 3861SOL     OW21581   4.559   0.150   6.811
 3861SOL    HW121582   4.588   0.227   6.869
 3861SOL    HW221583   4.638   0.094   6.786
 3862SOL     OW21584   0.012   0.949   5.241
 3862SOL    HW121585  -0.007   0.967   5.144
 3862SOL    HW221586  -0.045   1.007   5.298
 3863SOL     OW21587   6.049   1.515   5.405
 3863SOL    HW121588   6.085   1.606   5.382
 3863SOL    HW221589   6.061   1.497   5.502
 3864SOL     OW21590   5.413   5.542   2.126
 3864SOL    HW121591   5.368   5.619   2.081
 3864SOL    HW221592   5.409   5.552   2.225
 3865SOL     OW21593   3.221   1.556   1.595
 3865SOL    HW121594   3.143   1.500   1.565
 3865SOL    HW221595   3.224   1.642   1.544
 3866SOL     OW21596   1.573   1.926   2.467
 3866SOL    HW121597   1.608   1.887   2.552
 3866SOL    HW221598   1.557   1.853   2.400
 3867SOL     OW21599   2.959   5.991   0.102
 3867SOL    HW121600   2.953   6.088   0.124
 3867SOL    HW221601   2.893   5.967   0.032
 3868SOL     OW21602   2.124   2.085   1.138
 3868SOL    HW121603   2.135   1.986   1.151
 3868SOL    HW221604   2.213   2.128   1.125
 3869SOL     OW21605   6.657   6.862   4.119
 3869SOL    HW121606   6.661   6.773   4.074
 3869SOL    HW221607   6.638   6.850   4.217
 3870SOL     OW21608   1.039   3.268   0.702
 3870SOL    HW121609   1.096   3.202   0.752
 3870SOL    HW221610   1.006   3.227   0.617
 3871SOL     OW21611   3.834   3.139   5.727
 3871SOL    HW121612   3.745   3.160   5.767
 3871SOL    HW221613   3.822   3.103   5.635
 3872SOL     OW21614   4.339   4.652   5.105
 3872SOL    HW121615   4.434   4.621   5.103
 3872SOL    HW221616   4.327   4.727   5.040
 3873SOL     OW21617   5.190   6.655   1.841
 3873SOL    HW121618   5.194   6.668   1.742
 3873SOL    HW221619   5.260   6.710   1.885
 3874SOL     OW21620   2.664   3.217   3.591
 3874SOL    HW121621   2.586   3.215   3.652
 3874SOL    HW221622   2.635   3.204   3.496
 3875SOL     OW21623   6.425   3.045   6.240
 3875SOL    HW121624   6.417   2.967   6.303
 3875SOL    HW221625   6.413   3.130   6.290
 3876SOL     OW21626   7.034   1.204   5.506
 3876SOL    HW121627   7.072   1.119   5.542
 3876SOL    HW221628   7.068   1.220   5.412
 3877SOL     OW21629   3.127   2.114   7.315
 3877SOL    HW121630   3.193   2.045   7.348
 3877SOL    HW221631   3.132   2.121   7.216
 3878SOL     OW21632   6.580   2.333   5.662
 3878SOL    HW121633   6.502   2.365   5.608
 3878SOL    HW221634   6.656   2.310   5.601
 3879SOL     OW21635   2.841   2.765   2.837
 3879SOL    HW121636   2.898   2.736   2.915
 3879SOL    HW221637   2.857   2.861   2.817
 3880SOL     OW21638   2.583   0.267   7.813
 3880SOL    HW121639   2.568   0.364   7.830
 3880SOL    HW221640   2.634   0.226   7.889
 3881SOL     OW21641   0.874   4.073   7.184
 3881SOL    HW121642   0.799   4.097   7.123
 3881SOL    HW221643   0.839   4.027   7.266
 3882SOL     OW21644   6.550   4.319   2.898
 3882SOL    HW121645   6.479   4.298   2.966
 3882SOL    HW221646   6.532   4.407   2.856
 3883SOL     OW21647   6.509   7.965   3.629
 3883SOL    HW121648   6.468   7.934   3.542
 3883SOL    HW221649   6.585   7.906   3.654
 3884SOL     OW21650   6.369   4.554   6.916
 3884SOL    HW121651   6.271   4.536   6.902
 3884SOL    HW221652   6.419   4.539   6.831
 3885SOL     OW21653   6.218   0.185   2.887
 3885SOL    HW121654   6.226   0.222   2.795
 3885SOL    HW221655   6.243   0.088   2.888
 3886SOL     OW21656   6.789   5.582   2.834
 3886SOL    HW121657   6.745   5.598   2.923
 3886SOL    HW221658   6.855   5.655   2.815
 3887SOL     OW21659   4.806   0.382   5.041
 3887SOL    HW121660   4.885   0.422   5.088
 3887SOL    HW221661   4.722   0.426   5.072
 3888SOL     OW21662   5.749   4.486   0.677
 3888SOL    HW121663   5.786   4.512   0.766
 3888SOL    HW221664   5.776   4.554   0.608
 3889SOL     OW21665   6.827   2.781   7.169
 3889SOL    HW121666   6.796   2.873   7.145
 3889SOL    HW221667   6.853   2.778   7.266
 3890SOL     OW21668   4.223   1.711   1.626
 3890SOL    HW121669   4.317   1.693   1.656
 3890SOL    HW221670   4.222   1.789   1.564
 3891SOL     OW21671   0.188   3.651   7.540
 3891SOL    HW121672   0.230   3.739   7.563
 3891SOL    HW221673   0.158   3.652   7.444
 3892SOL     OW21674   7.390   4.378   7.107
 3892SOL    HW121675   7.344   4.388   7.018
 3892SOL    HW221676   7.422   4.467   7.138
 3893SOL     OW21677   0.497   7.033   0.796
 3893SOL    HW121678   0.500   6.939   0.830
 3893SOL    HW221679   0.521   7.036   0.699
 3894SOL     OW21680   2.448   6.719   6.035
 3894SOL    HW121681   2.404   6.728   5.945
 3894SOL    HW221682   2.500   6.634   6.039
 3895SOL     OW21683   5.800   5.233   0.670
 3895SOL    HW121684   5.890   5.196   0.692
 3895SOL    HW221685   5.807   5.329   0.643
 3896SOL     OW21686   7.227   7.045   5.491
 3896SOL    HW121687   7.153   7.056   5.557
 3896SOL    HW221688   7.296   6.982   5.526
 3897SOL     OW21689   3.014   6.463   5.746
 3897SOL    HW121690   2.969   6.531   5.805
 3897SOL    HW221691   3.036   6.504   5.658
 3898SOL     OW21692   6.875   5.656   2.550
 3898SOL    HW121693   6.830   5.587   2.607
 3898SOL    HW221694   6.831   5.660   2.460
 3899SOL     OW21695   2.012   6.030   0.754
 3899SOL    HW121696   1.920   6.017   0.717
 3899SOL    HW221697   2.008   6.091   0.833
 3900SOL     OW21698   7.179   1.474   5.566
 3900SOL    HW121699   7.195   1.564   5.526
 3900SOL    HW221700   7.233   1.464   5.649
 3901SOL     OW21701   5.606   7.419   7.050
 3901SOL    HW121702   5.596   7.340   7.111
 3901SOL    HW221703   5.569   7.501   7.094
 3902SOL     OW21704   3.168   0.727   4.555
 3902SOL    HW121705   3.216   0.806   4.519
 3902SOL    HW221706   3.212   0.695   4.639
 3903SOL     OW21707   6.573   7.328   1.722
 3903SOL    HW121708   6.480   7.304   1.693
 3903SOL    HW221709   6.608   7.259   1.785
 3904SOL     OW21710   6.724   2.253   7.213
 3904SOL    HW121711   6.729   2.156   7.234
 3904SOL    HW221712   6.668   2.267   7.131
 3905SOL     OW21713   2.443   6.352   0.846
 3905SOL    HW121714   2.500   6.291   0.789
 3905SOL    HW221715   2.472   6.346   0.941
 3906SOL     OW21716   3.820   6.898   7.028
 3906SOL    HW121717   3.729   6.915   7.065
 3906SOL    HW221718   3.888   6.894   7.101
 3907SOL     OW21719   5.123   2.102   4.488
 3907SOL    HW121720   5.044   2.108   4.549
 3907SOL    HW221721   5.179   2.023   4.511
 3908SOL     OW21722   3.879   6.202   6.499
 3908SOL    HW121723   3.917   6.294   6.483
 3908SOL    HW221724   3.782   6.200   6.473
 3909SOL     OW21725   4.858   4.691   3.351
 3909SOL    HW121726   4.892   4.777   3.314
 3909SOL    HW221727   4.934   4.637   3.386
 3910SOL     OW21728   3.352   6.821   7.972
 3910SOL    HW121729   3.435   6.866   8.005
 3910SOL    HW221730   3.325   6.859   7.884
 3911SOL     OW21731   7.197   6.709   0.957
 3911SOL    HW121732   7.113   6.697   1.010
 3911SOL    HW221733   7.179   6.690   0.860
 3912SOL     OW21734   0.187   1.572   2.690
 3912SOL    HW121735   0.117   1.618   2.745
 3912SOL    HW221736   0.152   1.485   2.655
 3913SOL     OW21737   6.826   0.604   5.567
 3913SOL    HW121738   6.922   0.604   5.538
 3913SOL    HW221739   6.810   0.680   5.631
 3914SOL     OW21740   3.078   4.102   4.268
 3914SOL    HW121741   3.162   4.063   4.232
 3914SOL    HW221742   3.076   4.201   4.252
 3915SOL     OW21743   2.293   2.719   6.599
 3915SOL    HW121744   2.377   2.692   6.646
 3915SOL    HW221745   2.314   2.745   6.504
 3916SOL     OW21746   2.399   0.500   3.271
 3916SOL    HW121747   2.308   0.524   3.304
 3916SOL    HW221748   2.411   0.531   3.177
 3917SOL     OW21749   0.180   1.030   2.406
 3917SOL    HW121750   0.180   1.017   2.506
 3917SOL    HW221751   0.086   1.046   2.375
 3918SOL     OW21752   5.964   4.389   3.946
 3918SOL    HW121753   5.909   4.393   3.863
 3918SOL    HW221754   6.005   4.478   3.965
 3919SOL     OW21755   4.320   6.370   3.954
 3919SOL    HW121756   4.254   6.368   3.879
 3919SOL    HW221757   4.280   6.415   4.034
 3920SOL     OW21758   7.295   1.705   2.064
 3920SOL    HW121759   7.202   1.712   2.029
 3920SOL    HW221760   7.340   1.624   2.026
 3921SOL     OW21761   5.159   6.898   6.741
 3921SOL    HW121762   5.074   6.875   6.694
 3921SOL    HW221763   5.145   6.978   6.800
 3922SOL     OW21764   3.470   1.339   7.423
 3922SOL    HW121765   3.517   1.366   7.507
 3922SOL    HW221766   3.508   1.390   7.345
 3923SOL     OW21767   3.025   4.764   5.073
 3923SOL    HW121768   2.951   4.702   5.099
 3923SOL    HW221769   3.023   4.845   5.131
 3924SOL     OW21770   5.491   1.804   7.251
 3924SOL    HW121771   5.404   1.786   7.296
 3924SOL    HW221772   5.548   1.862   7.309
 3925SOL     OW21773   6.642   2.385   4.738
 3925SOL    HW121774   6.618   2.473   4.780
 3925SOL    HW221775   6.560   2.344   4.697
 3926SOL     OW21776   5.372   0.769   2.035
 3926SOL    HW121777   5.296   0.790   2.096
 3926SOL    HW221778   5.341   0.771   1.940
 3927SOL     OW21779   6.057   2.735   7.913
 3927SOL    HW121780   6.104   2.660   7.866
 3927SOL    HW221781   6.024   2.802   7.847
 3928SOL     OW21782   3.841   0.896   1.269
 3928SOL    HW121783   3.778   0.849   1.208
 3928SOL    HW221784   3.925   0.920   1.221
 3929SOL     OW21785   4.623   7.104   3.074
 3929SOL    HW121786   4.591   7.090   3.168
 3929SOL    HW221787   4.711   7.058   3.061
 3930SOL     OW21788   7.043   3.441   5.171
 3930SOL    HW121789   7.066   3.382   5.248
 3930SOL    HW221790   6.958   3.491   5.189
 3931SOL     OW21791   3.175   3.656   7.885
 3931SOL    HW121792   3.194   3.633   7.789
 3931SOL    HW221793   3.092   3.608   7.915
 3932SOL     OW21794   0.329   3.748   6.874
 3932SOL    HW121795   0.362   3.662   6.915
 3932SOL    HW221796   0.273   3.798   6.940
 3933SOL     OW21797   1.058   1.865   0.370
 3933SOL    HW121798   0.984   1.808   0.405
 3933SOL    HW221799   1.076   1.842   0.274
 3934SOL     OW21800   7.434   4.824   3.172
 3934SOL    HW121801   7.409   4.854   3.264
 3934SOL    HW221802   7.522   4.863   3.146
 3935SOL     OW21803   7.866   7.264   1.794
 3935SOL    HW121804   7.770   7.235   1.805
 3935SOL    HW221805   7.870   7.346   1.738
 3936SOL     OW21806   3.494   2.117   4.654
 3936SOL    HW121807   3.533   2.178   4.585
 3936SOL    HW221808   3.421   2.062   4.613
 3937SOL     OW21809   4.042   1.230   0.845
 3937SOL    HW121810   3.971   1.300   0.862
 3937SOL    HW221811   4.057   1.222   0.747
 3938SOL     OW21812   7.421   2.108   2.491
 3938SOL    HW121813   7.370   2.194   2.504
 3938SOL    HW221814   7.364   2.043   2.441
 3939SOL     OW21815   5.754   5.969   1.991
 3939SOL    HW121816   5.754   6.037   2.065
 3939SOL    HW221817   5.776   5.879   2.027
 3940SOL     OW21818   7.342  -0.011   4.379
 3940SOL    HW121819   7.288   0.062   4.421
 3940SOL    HW221820   7.439   0.012   4.382
 3941SOL     OW21821   0.839   5.515   4.237
 3941SOL    HW121822   0.763   5.566   4.278
 3941SOL    HW221823   0.807   5.466   4.156
 3942SOL     OW21824   3.296   7.716   3.827
 3942SOL    HW121825   3.218   7.731   3.889
 3942SOL    HW221826   3.283   7.630   3.777
 3943SOL     OW21827   4.588   7.532   7.399
 3943SOL    HW121828   4.642   7.563   7.477
 3943SOL    HW221829   4.518   7.600   7.377
 3944SOL     OW21830   3.249   4.521   6.848
 3944SOL    HW121831   3.316   4.572   6.793
 3944SOL    HW221832   3.297   4.468   6.918
 3945SOL     OW21833   1.662   7.217   7.662
 3945SOL    HW121834   1.571   7.228   7.622
 3945SOL    HW221835   1.681   7.292   7.725
 3946SOL     OW21836   6.171   6.804   7.165
 3946SOL    HW121837   6.106   6.828   7.236
 3946SOL    HW221838   6.246   6.750   7.204
 3947SOL     OW21839   6.819   3.805   0.842
 3947SOL    HW121840   6.812   3.716   0.887
 3947SOL    HW221841   6.870   3.796   0.756
 3948SOL     OW21842   5.103   5.254   4.556
 3948SOL    HW121843   5.138   5.172   4.509
 3948SOL    HW221844   5.065   5.228   4.644
 3949SOL     OW21845   5.659   7.297   0.696
 3949SOL    HW121846   5.603   7.307   0.777
 3949SOL    HW221847   5.617   7.232   0.632
 3950SOL     OW21848   3.748   5.438   1.025
 3950SOL    HW121849   3.835   5.470   0.988
 3950SOL    HW221850   3.761   5.400   1.116
 3951SOL     OW21851   0.363   4.933   4.090
 3951SOL    HW121852   0.300   4.876   4.037
 3951SOL    HW221853   0.456   4.897   4.082
 3952SOL     OW21854   1.736   2.536   6.903
 3952SOL    HW121855   1.640   2.518   6.878
 3952SOL    HW221856   1.742   2.563   6.999
 3953SOL     OW21857   5.293   5.196   5.405
 3953SOL    HW121858   5.219   5.145   5.361
 3953SOL    HW221859   5.334   5.260   5.340
 3954SOL     OW21860   0.735   1.774   2.174
 3954SOL    HW121861   0.809   1.712   2.149
 3954SOL    HW221862   0.718   1.769   2.272
 3955SOL     OW21863   6.719   1.128   4.730
 3955SOL    HW121864   6.802   1.180   4.748
 3955SOL    HW221865   6.677   1.159   4.644
 3956SOL     OW21866   3.525   3.969   2.897
 3956SOL    HW121867   3.469   4.040   2.941
 3956SOL    HW221868   3.511   3.971   2.798
 3957SOL     OW21869   6.064   7.880   2.822
 3957SOL    HW121870   6.008   7.803   2.788
 3957SOL    HW221871   6.076   7.947   2.749
 3958SOL     OW21872   6.188   2.077   3.921
 3958SOL    HW121873   6.280   2.113   3.903
 3958SOL    HW221874   6.166   2.088   4.018
 3959SOL     OW21875   2.399   3.276   3.553
 3959SOL    HW121876   2.381   3.179   3.573
 3959SOL    HW221877   2.407   3.290   3.455
 3960SOL     OW21878   4.287   6.726   1.904
 3960SOL    HW121879   4.193   6.736   1.937
 3960SOL    HW221880   4.287   6.690   1.811
 3961SOL     OW21881   6.473   7.903   3.884
 3961SOL    HW121882   6.426   7.822   3.848
 3961SOL    HW221883   6.444   7.921   3.978
 3962SOL     OW21884   4.629   3.332   1.462
 3962SOL    HW121885   4.622   3.267   1.387
 3962SOL    HW221886   4.708   3.311   1.519
 3963SOL     OW21887   7.346   1.436   6.118
 3963SOL    HW121888   7.287   1.358   6.094
 3963SOL    HW221889   7.407   1.410   6.192
 3964SOL     OW21890   6.373   3.400   6.125
 3964SOL    HW121891   6.307   3.326   6.143
 3964SOL    HW221892   6.419   3.425   6.210
 3965SOL     OW21893   1.678   1.065   5.044
 3965SOL    HW121894   1.613   1.049   5.118
 3965SOL    HW221895   1.743   1.136   5.070
 3966SOL     OW21896   0.425   2.070   5.862
 3966SOL    HW121897   0.447   2.168   5.862
 3966SOL    HW221898   0.342   2.054   5.809
 3967SOL     OW21899   0.086   7.523   0.684
 3967SOL    HW121900   0.029   7.475   0.618
 3967SOL    HW221901   0.042   7.525   0.774
 3968SOL     OW21902   5.115   2.018   3.726
 3968SOL    HW121903   5.026   1.994   3.765
 3968SOL    HW221904   5.105   2.040   3.629
 3969SOL     OW21905   1.734   2.587   0.336
 3969SOL    HW121906   1.674   2.572   0.414
 3969SOL    HW221907   1.776   2.678   0.342
 3970SOL     OW21908   3.454   7.637   3.161
 3970SOL    HW121909   3.390   7.628   3.084
 3970SOL    HW221910   3.511   7.555   3.167
 3971SOL     OW21911   2.429   4.173   4.095
 3971SOL    HW121912   2.527   4.164   4.078
 3971SOL    HW221913   2.399   4.104   4.160
 3972SOL     OW21914   2.056   7.595   0.342
 3972SOL    HW121915   2.043   7.690   0.370
 3972SOL    HW221916   1.984   7.538   0.380
 3973SOL     OW21917   5.663   5.896   5.557
 3973SOL    HW121918   5.754   5.853   5.563
 3973SOL    HW221919   5.593   5.832   5.589
 3974SOL     OW21920   0.005   7.852   3.232
 3974SOL    HW121921   0.021   7.754   3.218
 3974SOL    HW221922   0.063   7.905   3.170
 3975SOL     OW21923   3.972   6.226   4.502
 3975SOL    HW121924   4.059   6.242   4.549
 3975SOL    HW221925   3.929   6.144   4.538
 3976SOL     OW21926   0.478   7.323   6.548
 3976SOL    HW121927   0.461   7.227   6.526
 3976SOL    HW221928   0.572   7.347   6.525
 3977SOL     OW21929   2.014   4.171   3.205
 3977SOL    HW121930   2.070   4.114   3.264
 3977SOL    HW221931   2.065   4.198   3.123
 3978SOL     OW21932   6.459   5.450   6.618
 3978SOL    HW121933   6.385   5.384   6.625
 3978SOL    HW221934   6.432   5.526   6.560
 3979SOL     OW21935   0.553   4.687   6.121
 3979SOL    HW121936   0.458   4.677   6.091
 3979SOL    HW221937   0.587   4.777   6.093
 3980SOL     OW21938   7.423   3.977   2.526
 3980SOL    HW121939   7.478   3.973   2.443
 3980SOL    HW221940   7.477   4.016   2.600
 3981SOL     OW21941   7.063   6.642   2.906
 3981SOL    HW121942   7.023   6.561   2.948
 3981SOL    HW221943   7.076   6.628   2.808
 3982SOL     OW21944   1.185   6.574   4.630
 3982SOL    HW121945   1.150   6.667   4.640
 3982SOL    HW221946   1.269   6.563   4.682
 3983SOL     OW21947   7.832   1.192   2.098
 3983SOL    HW121948   7.844   1.115   2.036
 3983SOL    HW221949   7.770   1.166   2.173
 3984SOL     OW21950   5.548   7.007   6.993
 3984SOL    HW121951   5.559   6.929   6.932
 3984SOL    HW221952   5.451   7.019   7.017
 3985SOL     OW21953   6.013   3.196   0.290
 3985SOL    HW121954   5.928   3.245   0.268
 3985SOL    HW221955   6.043   3.143   0.211
 3986SOL     OW21956   6.672   4.408   7.315
 3986SOL    HW121957   6.664   4.392   7.414
 3986SOL    HW221958   6.728   4.488   7.297
 3987SOL     OW21959   7.679   1.769   6.460
 3987SOL    HW121960   7.696   1.858   6.417
 3987SOL    HW221961   7.685   1.697   6.391
 3988SOL     OW21962   3.982   7.109   7.263
 3988SOL    HW121963   4.077   7.137   7.252
 3988SOL    HW221964   3.927   7.187   7.293
 3989SOL     OW21965   5.129   3.997   0.164
 3989SOL    HW121966   5.186   4.051   0.226
 3989SOL    HW221967   5.105   3.910   0.207
 3990SOL     OW21968   5.796   3.117   5.388
 3990SOL    HW121969   5.821   3.087   5.297
 3990SOL    HW221970   5.830   3.052   5.456
 3991SOL     OW21971   1.961   3.434   4.234
 3991SOL    HW121972   2.037   3.476   4.185
 3991SOL    HW221973   1.994   3.391   4.317
 3992SOL     OW21974   4.532   6.034   2.766
 3992SOL    HW121975   4.515   5.936   2.764
 3992SOL    HW221976   4.463   6.083   2.713
 3993SOL     OW21977   3.616   4.116   6.222
 3993SOL    HW121978   3.568   4.125   6.309
 3993SOL    HW221979   3.668   4.199   6.202
 3994SOL     OW21980   1.393   4.532   6.992
 3994SOL    HW121981   1.414   4.444   7.034
 3994SOL    HW221982   1.400   4.526   6.892
 3995SOL     OW21983   3.446   5.447   7.428
 3995SOL    HW121984   3.497   5.524   7.388
 3995SOL    HW221985   3.508   5.369   7.442
 3996SOL     OW21986   3.885   1.792   0.974
 3996SOL    HW121987   3.815   1.841   1.026
 3996SOL    HW221988   3.842   1.723   0.916
 3997SOL     OW21989   2.246   5.240   0.422
 3997SOL    HW121990   2.264   5.311   0.354
 3997SOL    HW221991   2.189   5.168   0.382
 3998SOL     OW21992   6.512   0.631   0.397
 3998SOL    HW121993   6.486   0.551   0.343
 3998SOL    HW221994   6.610   0.649   0.385
 3999SOL     OW21995   3.269   5.754   0.945
 3999SOL    HW121996   3.213   5.836   0.934
 3999SOL    HW221997   3.216   5.673   0.917
 4000SOL     OW21998   1.232   7.813   6.602
 4000SOL    HW121999   1.152   7.760   6.575
 4000SOL    HW222000   1.233   7.901   6.554
 4001SOL     OW22001   7.859   6.951   1.108
 4001SOL    HW122002   7.800   7.023   1.070
 4001SOL    HW222003   7.887   6.976   1.201
 4002SOL     OW22004   4.869   4.596   5.984
 4002SOL    HW122005   4.793   4.600   5.920
 4002SOL    HW222006   4.949   4.554   5.941
 4003SOL     OW22007   5.888   6.908   2.003
 4003SOL    HW122008   5.809   6.960   1.971
 4003SOL    HW222009   5.919   6.945   2.091
 4004SOL     OW22010   7.099   0.361   5.344
 4004SOL    HW122011   7.156   0.284   5.316
 4004SOL    HW222012   7.058   0.343   5.433
 4005SOL     OW22013  -0.045   2.940   3.025
 4005SOL    HW122014  -0.042   2.842   3.004
 4005SOL    HW222015   0.021   2.989   2.968
 4006SOL     OW22016   1.855   0.842   0.331
 4006SOL    HW122017   1.884   0.819   0.424
 4006SOL    HW222018   1.904   0.923   0.299
 4007SOL     OW22019   5.305   1.309   0.802
 4007SOL    HW122020   5.281   1.240   0.871
 4007SOL    HW222021   5.291   1.272   0.710
 4008SOL     OW22022   6.885   1.770   6.179
 4008SOL    HW122023   6.946   1.808   6.110
 4008SOL    HW222024   6.889   1.670   6.178
 4009SOL     OW22025   1.644   1.553   7.674
 4009SOL    HW122026   1.712   1.602   7.729
 4009SOL    HW222027   1.593   1.490   7.732
 4010SOL     OW22028   1.161   2.247   4.102
 4010SOL    HW122029   1.237   2.287   4.052
 4010SOL    HW222030   1.177   2.255   4.201
 4011SOL     OW22031   1.770   6.559   7.664
 4011SOL    HW122032   1.723   6.628   7.719
 4011SOL    HW222033   1.810   6.489   7.723
 4012SOL     OW22034   7.117   2.347   2.237
 4012SOL    HW122035   7.073   2.338   2.326
 4012SOL    HW222036   7.085   2.275   2.176
 4013SOL     OW22037   1.371   2.201   5.902
 4013SOL    HW122038   1.432   2.136   5.948
 4013SOL    HW222039   1.424   2.254   5.836
 4014SOL     OW22040   3.768   5.385   5.861
 4014SOL    HW122041   3.841   5.452   5.876
 4014SOL    HW222042   3.694   5.427   5.810
 4015SOL     OW22043   1.045   3.866   2.035
 4015SOL    HW122044   1.107   3.838   1.962
 4015SOL    HW222045   0.955   3.887   1.997
 4016SOL     OW22046   0.288   1.003   3.805
 4016SOL    HW122047   0.346   1.057   3.743
 4016SOL    HW222048   0.240   0.932   3.753
 4017SOL     OW22049   5.690   6.084   2.720
 4017SOL    HW122050   5.719   5.999   2.764
 4017SOL    HW222051   5.605   6.117   2.761
 4018SOL     OW22052   2.801   1.868   0.077
 4018SOL    HW122053   2.710   1.889   0.112
 4018SOL    HW222054   2.833   1.942   0.018
 4019SOL     OW22055   4.967   0.488   5.966
 4019SOL    HW122056   4.968   0.397   5.924
 4019SOL    HW222057   4.891   0.541   5.930
 4020SOL     OW22058   3.068   4.756   4.396
 4020SOL    HW122059   3.017   4.674   4.369
 4020SOL    HW222060   3.105   4.745   4.488
 4021SOL     OW22061   1.645   2.155   0.082
 4021SOL    HW122062   1.660   2.251   0.058
 4021SOL    HW222063   1.577   2.148   0.155
 4022SOL     OW22064   6.493   7.236   7.438
 4022SOL    HW122065   6.550   7.166   7.482
 4022SOL    HW222066   6.518   7.246   7.342
 4023SOL     OW22067   2.440   4.220   7.245
 4023SOL    HW122068   2.502   4.297   7.260
 4023SOL    HW222069   2.384   4.236   7.164
 4024SOL     OW22070   3.117   1.214   0.046
 4024SOL    HW122071   3.179   1.287   0.018
 4024SOL    HW222072   3.158   1.160   0.120
 4025SOL     OW22073   2.758   2.138   0.637
 4025SOL    HW122074   2.721   2.099   0.552
 4025SOL    HW222075   2.689   2.194   0.682
 4026SOL     OW22076   6.482   6.089   3.252
 4026SOL    HW122077   6.555   6.142   3.298
 4026SOL    HW222078   6.481   5.995   3.287
 4027SOL     OW22079   1.906   5.336   1.723
 4027SOL    HW122080   1.908   5.426   1.768
 4027SOL    HW222081   1.833   5.280   1.763
 4028SOL     OW22082   3.166   0.509   0.930
 4028SOL    HW122083   3.228   0.442   0.971
 4028SOL    HW222084   3.191   0.523   0.834
 4029SOL     OW22085   6.199   3.136   6.655
 4029SOL    HW122086   6.168   3.219   6.609
 4029SOL    HW222087   6.294   3.147   6.685
 4030SOL     OW22088   4.412   2.849   7.065
 4030SOL    HW122089   4.459   2.835   7.151
 4030SOL    HW222090   4.360   2.935   7.067
 4031SOL     OW22091   6.825   1.110   7.207
 4031SOL    HW122092   6.765   1.112   7.287
 4031SOL    HW222093   6.913   1.152   7.230
 4032SOL     OW22094   1.674   2.267   3.837
 4032SOL    HW122095   1.623   2.347   3.803
 4032SOL    HW222096   1.613   2.189   3.847
 4033SOL     OW22097   6.458   1.845   7.740
 4033SOL    HW122098   6.454   1.938   7.703
 4033SOL    HW222099   6.496   1.847   7.833
 4034SOL     OW22100   3.769   1.163   7.094
 4034SOL    HW122101   3.692   1.213   7.134
 4034SOL    HW222102   3.750   1.142   6.999
 4035SOL     OW22103   2.589   1.856   4.368
 4035SOL    HW122104   2.507   1.807   4.339
 4035SOL    HW222105   2.657   1.792   4.403
 4036SOL     OW22106   6.650   5.381   1.674
 4036SOL    HW122107   6.597   5.454   1.717
 4036SOL    HW222108   6.644   5.389   1.574
 4037SOL     OW22109   6.791   1.338   7.312
 4037SOL    HW122110   6.882   1.377   7.327
 4037SOL    HW222111   6.754   1.304   7.398
 4038SOL     OW22112   2.863   7.683   2.640
 4038SOL    HW122113   2.862   7.778   2.671
 4038SOL    HW222114   2.831   7.677   2.546
 4039SOL     OW22115   5.969   3.284   0.809
 4039SOL    HW122116   6.009   3.334   0.732
 4039SOL    HW222117   6.029   3.292   0.889
 4040SOL     OW22118   7.842   5.854   2.628
 4040SOL    HW122119   7.902   5.909   2.686
 4040SOL    HW222120   7.746   5.874   2.648
 4041SOL     OW22121   7.537   3.363   2.248
 4041SOL    HW122122   7.453   3.343   2.196
 4041SOL    HW222123   7.514   3.417   2.330
 4042SOL     OW22124   3.261   3.361   0.043
 4042SOL    HW122125   3.225   3.451   0.018
 4042SOL    HW222126   3.360   3.366   0.055
 4043SOL     OW22127   3.215   4.613   3.174
 4043SOL    HW122128   3.251   4.620   3.081
 4043SOL    HW222129   3.125   4.656   3.179
 4044SOL     OW22130   2.597   4.199   6.871
 4044SOL    HW122131   2.575   4.150   6.956
 4044SOL    HW222132   2.651   4.281   6.892
 4045SOL     OW22133   7.087   0.210   4.470
 4045SOL    HW122134   7.059   0.245   4.559
 4045SOL    HW222135   7.085   0.285   4.403
 4046SOL     OW22136  -0.045   1.702   1.163
 4046SOL    HW122137  -0.035   1.691   1.064
 4046SOL    HW222138   0.035   1.665   1.210
 4047SOL     OW22139   1.104   6.190   5.618
 4047SOL    HW122140   1.042   6.258   5.657
 4047SOL    HW222141   1.051   6.113   5.581
 4048SOL     OW22142   6.128   7.004   4.730
 4048SOL    HW122143   6.128   6.907   4.754
 4048SOL    HW222144   6.178   7.018   4.644
 4049SOL     OW22145   7.730   4.903   0.187
 4049SOL    HW122146   7.705   4.867   0.276
 4049SOL    HW222147   7.822   4.873   0.162
 4050SOL     OW22148   7.103   5.005   7.716
 4050SOL    HW122149   7.144   5.067   7.784
 4050SOL    HW222150   7.165   4.928   7.699
 4051SOL     OW22151   3.940   5.127   2.632
 4051SOL    HW122152   3.856   5.173   2.659
 4051SOL    HW222153   3.922   5.063   2.557
 4052SOL     OW22154   6.267   4.756   6.080
 4052SOL    HW122155   6.361   4.760   6.045
 4052SOL    HW222156   6.267   4.730   6.176
 4053SOL     OW22157   2.295   2.927   5.495
 4053SOL    HW122158   2.344   3.001   5.542
 4053SOL    HW222159   2.329   2.838   5.527
 4054SOL     OW22160   7.584   3.830   1.556
 4054SOL    HW122161   7.582   3.821   1.457
 4054SOL    HW222162   7.664   3.783   1.593
 4055SOL     OW22163   6.476   3.255   3.061
 4055SOL    HW122164   6.530   3.337   3.081
 4055SOL    HW222165   6.431   3.264   2.973
 4056SOL     OW22166   5.161   7.764   3.173
 4056SOL    HW122167   5.235   7.803   3.227
 4056SOL    HW222168   5.118   7.689   3.224
 4057SOL     OW22169   4.861   0.247   4.626
 4057SOL    HW122170   4.842   0.310   4.701
 4057SOL    HW222171   4.800   0.267   4.549
 4058SOL     OW22172   1.975   4.944   1.484
 4058SOL    HW122173   2.054   5.000   1.457
 4058SOL    HW222174   1.933   4.903   1.404
 4059SOL     OW22175   1.608   6.013   1.600
 4059SOL    HW122176   1.549   5.941   1.636
 4059SOL    HW222177   1.558   6.066   1.531
 4060SOL     OW22178   4.651   1.993   1.592
 4060SOL    HW122179   4.660   1.981   1.691
 4060SOL    HW222180   4.602   1.916   1.552
 4061SOL     OW22181   3.170   6.887   4.303
 4061SOL    HW122182   3.229   6.964   4.327
 4061SOL    HW222183   3.219   6.801   4.320
 4062SOL     OW22184   5.154   1.403   5.356
 4062SOL    HW122185   5.105   1.394   5.269
 4062SOL    HW222186   5.229   1.469   5.345
 4063SOL     OW22187   0.513   1.148   1.954
 4063SOL    HW122188   0.454   1.131   1.875
 4063SOL    HW222189   0.463   1.129   2.038
 4064SOL     OW22190   4.699   2.539   4.094
 4064SOL    HW122191   4.658   2.447   4.088
 4064SOL    HW222192   4.788   2.533   4.140
 4065SOL     OW22193   6.875   5.288   4.155
 4065SOL    HW122194   6.855   5.190   4.162
 4065SOL    HW222195   6.794   5.342   4.179
 4066SOL     OW22196   3.079   2.591   1.503
 4066SOL    HW122197   3.032   2.660   1.447
 4066SOL    HW222198   3.158   2.556   1.453
 4067SOL     OW22199   1.072   4.585   1.274
 4067SOL    HW122200   1.071   4.519   1.350
 4067SOL    HW222201   1.034   4.672   1.304
 4068SOL     OW22202   1.250   2.501   1.172
 4068SOL    HW122203   1.151   2.497   1.186
 4068SOL    HW222204   1.270   2.509   1.075
 4069SOL     OW22205   4.309   3.998   5.033
 4069SOL    HW122206   4.324   3.904   5.001
 4069SOL    HW222207   4.274   3.998   5.126
 4070SOL     OW22208   6.479   4.537   6.399
 4070SOL    HW122209   6.429   4.623   6.407
 4070SOL    HW222210   6.440   4.481   6.326
 4071SOL     OW22211   1.400   1.780   6.807
 4071SOL    HW122212   1.353   1.711   6.753
 4071SOL    HW222213   1.343   1.807   6.885
 4072SOL     OW22214   5.931   5.896   7.692
 4072SOL    HW122215   5.901   5.812   7.737
 4072SOL    HW222216   5.940   5.970   7.759
 4073SOL     OW22217   6.011   1.408   7.330
 4073SOL    HW122218   5.916   1.380   7.321
 4073SOL    HW222219   6.032   1.479   7.262
 4074SOL     OW22220   2.051   7.830   4.415
 4074SOL    HW122221   2.105   7.914   4.426
 4074SOL    HW222222   2.038   7.786   4.503
 4075SOL     OW22223   0.982   7.771   2.427
 4075SOL    HW122224   0.939   7.714   2.497
 4075SOL    HW222225   0.966   7.732   2.337
 4076SOL     OW22226   4.296   3.730   7.195
 4076SOL    HW122227   4.340   3.654   7.243
 4076SOL    HW222228   4.355   3.811   7.198
 4077SOL     OW22229   5.885   2.688   0.358
 4077SOL    HW122230   5.899   2.642   0.446
 4077SOL    HW222231   5.862   2.621   0.288
 4078SOL     OW22232   3.294   0.181   6.837
 4078SOL    HW122233   3.209   0.147   6.879
 4078SOL    HW222234   3.299   0.150   6.742
 4079SOL     OW22235   0.011   0.876   4.069
 4079SOL    HW122236  -0.045   0.865   4.152
 4079SOL    HW222237   0.096   0.923   4.091
 4080SOL     OW22238  -0.040   0.780   2.258
 4080SOL    HW122239  -0.044   0.867   2.307
 4080SOL    HW222240  -0.002   0.709   2.317
 4081SOL     OW22241   7.618   0.455   5.995
 4081SOL    HW122242   7.662   0.378   6.042
 4081SOL    HW222243   7.688   0.515   5.956
 4082SOL     OW22244   6.078   6.194   6.756
 4082SOL    HW122245   6.045   6.229   6.843
 4082SOL    HW222246   6.168   6.152   6.768
 4083SOL     OW22247   5.784   1.871   4.171
 4083SOL    HW122248   5.708   1.806   4.170
 4083SOL    HW222249   5.759   1.952   4.223
 4084SOL     OW22250   4.570   5.945   3.690
 4084SOL    HW122251   4.520   5.974   3.608
 4084SOL    HW222252   4.596   6.025   3.745
 4085SOL     OW22253   6.323   5.559   7.772
 4085SOL    HW122254   6.327   5.492   7.846
 4085SOL    HW222255   6.401   5.621   7.778
 4086SOL     OW22256   0.041   6.944   2.413
 4086SOL    HW122257  -0.045   6.895   2.402
 4086SOL    HW222258   0.118   6.885   2.389
 4087SOL     OW22259   6.687   2.567   4.540
 4087SOL    HW122260   6.742   2.562   4.456
 4087SOL    HW222261   6.745   2.555   4.620
 4088SOL     OW22262   1.613   6.230   7.304
 4088SOL    HW122263   1.700   6.180   7.295
 4088SOL    HW222264   1.574   6.213   7.394
 4089SOL     OW22265   2.307   3.053   0.678
 4089SOL    HW122266   2.293   3.140   0.725
 4089SOL    HW222267   2.224   3.029   0.627
 4090SOL     OW22268   0.825   7.680   6.988
 4090SOL    HW122269   0.915   7.639   6.973
 4090SOL    HW222270   0.801   7.676   7.085
 4091SOL     OW22271   0.819   3.269   0.423
 4091SOL    HW122272   0.748   3.319   0.473
 4091SOL    HW222273   0.781   3.234   0.337
 4092SOL     OW22274   5.040   0.356   0.247
 4092SOL    HW122275   5.002   0.285   0.189
 4092SOL    HW222276   5.124   0.392   0.208
 4093SOL     OW22277   0.687   7.589   1.424
 4093SOL    HW122278   0.726   7.571   1.334
 4093SOL    HW222279   0.752   7.563   1.495
 4094SOL     OW22280   2.823   2.049   7.215
 4094SOL    HW122281   2.744   1.994   7.186
 4094SOL    HW222282   2.904   1.991   7.222
 4095SOL     OW22283   4.523   5.276   5.176
 4095SOL    HW122284   4.534   5.237   5.085
 4095SOL    HW222285   4.556   5.211   5.245
 4096SOL     OW22286   6.293   7.368   6.887
 4096SOL    HW122287   6.339   7.456   6.898
 4096SOL    HW222288   6.243   7.366   6.800
 4097SOL     OW22289   7.333   3.713   3.277
 4097SOL    HW122290   7.279   3.634   3.248
 4097SOL    HW222291   7.308   3.740   3.370
 4098SOL     OW22292   2.468   0.051   2.353
 4098SOL    HW122293   2.534  -0.011   2.309
 4098SOL    HW222294   2.459   0.027   2.450
 4099SOL     OW22295   5.038   2.809   3.682
 4099SOL    HW122296   4.945   2.813   3.719
 4099SOL    HW222297   5.041   2.750   3.602
 4100SOL     OW22298   0.844   5.467   6.889
 4100SOL    HW122299   0.814   5.386   6.838
 4100SOL    HW222300   0.767   5.529   6.903
 4101SOL     OW22301   2.220   0.856   0.317
 4101SOL    HW122302   2.282   0.792   0.273
 4101SOL    HW222303   2.171   0.811   0.392
 4102SOL     OW22304   0.032   1.926   3.917
 4102SOL    HW122305   0.128   1.901   3.907
 4102SOL    HW222306  -0.027   1.849   3.894
 4103SOL     OW22307   7.886   1.819   6.294
 4103SOL    HW122308   7.942   1.888   6.248
 4103SOL    HW222309   7.903   1.729   6.254
 4104SOL     OW22310   5.685   1.319   3.157
 4104SOL    HW122311   5.608   1.359   3.206
 4104SOL    HW222312   5.744   1.392   3.121
 4105SOL     OW22313   5.608   1.017   6.967
 4105SOL    HW122314   5.675   0.952   7.006
 4105SOL    HW222315   5.647   1.061   6.887
 4106SOL     OW22316   3.791   6.737   4.146
 4106SOL    HW122317   3.770   6.640   4.139
 4106SOL    HW222318   3.831   6.757   4.236
 4107SOL     OW22319   4.811   0.492   0.040
 4107SOL    HW122320   4.881   0.563   0.031
 4107SOL    HW222321   4.828   0.438   0.123
 4108SOL     OW22322   0.906   1.204   0.538
 4108SOL    HW122323   0.933   1.294   0.503
 4108SOL    HW222324   0.831   1.167   0.483
 4109SOL     OW22325   1.159   1.868   7.024
 4109SOL    HW122326   1.213   1.947   6.994
 4109SOL    HW222327   1.203   1.825   7.103
 4110SOL     OW22328   6.928   3.173   6.153
 4110SOL    HW122329   7.002   3.160   6.087
 4110SOL    HW222330   6.855   3.106   6.136
 4111SOL     OW22331   5.588   4.495   3.538
 4111SOL    HW122332   5.642   4.446   3.470
 4111SOL    HW222333   5.491   4.486   3.518
 4112SOL     OW22334   0.895   0.914   5.462
 4112SOL    HW122335   0.887   1.011   5.486
 4112SOL    HW222336   0.991   0.889   5.452
 4113SOL     OW22337   1.426   0.042   4.385
 4113SOL    HW122338   1.339   0.077   4.350
 4113SOL    HW222339   1.502   0.080   4.332
 4114SOL     OW22340   3.151   1.324   6.025
 4114SOL    HW122341   3.245   1.294   6.041
 4114SOL    HW222342   3.129   1.318   5.928
 4115SOL     OW22343   4.505   4.696   7.593
 4115SOL    HW122344   4.537   4.661   7.505
 4115SOL    HW222345   4.407   4.678   7.603
 4116SOL     OW22346   7.598   4.095   6.363
 4116SOL    HW122347   7.507   4.126   6.335
 4116SOL    HW222348   7.640   4.043   6.289
 4117SOL     OW22349   3.907   7.584   7.826
 4117SOL    HW122350   3.863   7.528   7.895
 4117SOL    HW222351   3.880   7.555   7.734
 4118SOL     OW22352   6.024   7.265   3.801
 4118SOL    HW122353   6.060   7.299   3.889
 4118SOL    HW222354   5.925   7.259   3.805
 4119SOL     OW22355   7.158   7.344   2.563
 4119SOL    HW122356   7.081   7.407   2.569
 4119SOL    HW222357   7.142   7.276   2.491
 4120SOL     OW22358   5.189   7.309   7.513
 4120SOL    HW122359   5.155   7.384   7.457
 4120SOL    HW222360   5.212   7.342   7.605
 4121SOL     OW22361   7.893   5.450   7.853
 4121SOL    HW122362   7.948   5.373   7.884
 4121SOL    HW222363   7.935   5.536   7.880
 4122SOL     OW22364   7.518   3.492   6.765
 4122SOL    HW122365   7.432   3.473   6.717
 4122SOL    HW222366   7.505   3.567   6.830
 4123SOL     OW22367   6.197   3.596   6.116
 4123SOL    HW122368   6.217   3.539   6.195
 4123SOL    HW222369   6.224   3.550   6.032
 4124SOL     OW22370   3.459   6.365   3.257
 4124SOL    HW122371   3.496   6.385   3.166
 4124SOL    HW222372   3.484   6.272   3.284
 4125SOL     OW22373   0.029   4.618   5.412
 4125SOL    HW122374   0.104   4.613   5.479
 4125SOL    HW222375   0.065   4.649   5.324
 4126SOL     OW22376   6.516   0.386   6.013
 4126SOL    HW122377   6.583   0.460   6.007
 4126SOL    HW222378   6.497   0.349   5.922
 4127SOL     OW22379   1.972   2.285   0.355
 4127SOL    HW122380   1.918   2.365   0.331
 4127SOL    HW222381   2.017   2.299   0.444
 4128SOL     OW22382   3.581   6.056   1.325
 4128SOL    HW122383   3.491   6.085   1.293
 4128SOL    HW222384   3.639   6.136   1.344
 4129SOL     OW22385   5.247   1.099   4.599
 4129SOL    HW122386   5.333   1.070   4.641
 4129SOL    HW222387   5.223   1.191   4.629
 4130SOL     OW22388   4.223   1.083   5.127
 4130SOL    HW122389   4.209   1.165   5.184
 4130SOL    HW222390   4.308   1.037   5.153
 4131SOL     OW22391   3.416   2.845   3.873
 4131SOL    HW122392   3.489   2.796   3.920
 4131SOL    HW222393   3.333   2.789   3.871
 4132SOL     OW22394   2.633   7.628   5.720
 4132SOL    HW122395   2.582   7.695   5.774
 4132SOL    HW222396   2.584   7.606   5.637
 4133SOL     OW22397   3.561   7.263   0.420
 4133SOL    HW122398   3.657   7.262   0.394
 4133SOL    HW222399   3.551   7.295   0.514
 4134SOL     OW22400   6.642   4.930   2.360
 4134SOL    HW122401   6.715   4.933   2.292
 4134SOL    HW222402   6.672   4.969   2.446
 4135SOL     OW22403   1.695   6.660   6.841
 4135SOL    HW122404   1.689   6.577   6.785
 4135SOL    HW222405   1.669   6.638   6.935
 4136SOL     OW22406   1.984   2.855   0.617
 4136SOL    HW122407   2.083   2.844   0.615
 4136SOL    HW222408   1.954   2.909   0.538
 4137SOL     OW22409   1.947   7.745   2.025
 4137SOL    HW122410   1.988   7.833   2.052
 4137SOL    HW222411   1.977   7.673   2.087
 4138SOL     OW22412   0.618   6.006   2.840
 4138SOL    HW122413   0.524   5.995   2.874
 4138SOL    HW222414   0.626   5.965   2.749
 4139SOL     OW22415   1.569   2.737   7.163
 4139SOL    HW122416   1.660   2.698   7.152
 4139SOL    HW222417   1.542   2.736   7.260
 4140SOL     OW22418   1.424   4.634   0.771
 4140SOL    HW122419   1.387   4.682   0.851
 4140SOL    HW222420   1.523   4.644   0.767
 4141SOL     OW22421   3.987   6.865   4.012
 4141SOL    HW122422   3.957   6.793   3.950
 4141SOL    HW222423   4.081   6.891   3.992
 4142SOL     OW22424   5.785   4.632   1.755
 4142SOL    HW122425   5.877   4.658   1.725
 4142SOL    HW222426   5.786   4.611   1.853
 4143SOL     OW22427   5.403   7.078   1.782
 4143SOL    HW122428   5.425   6.989   1.823
 4143SOL    HW222429   5.443   7.084   1.691
 4144SOL     OW22430   2.320   1.407   5.252
 4144SOL    HW122431   2.255   1.482   5.247
 4144SOL    HW222432   2.273   1.320   5.240
 4145SOL     OW22433   4.475   0.290   3.587
 4145SOL    HW122434   4.545   0.349   3.626
 4145SOL    HW222435   4.459   0.315   3.492
 4146SOL     OW22436   6.614   6.543   3.364
 4146SOL    HW122437   6.617   6.529   3.265
 4146SOL    HW222438   6.617   6.454   3.410
 4147SOL     OW22439   2.339   2.194   5.102
 4147SOL    HW122440   2.350   2.293   5.113
 4147SOL    HW222441   2.288   2.156   5.179
 4148SOL     OW22442   0.314   4.718   5.679
 4148SOL    HW122443   0.222   4.680   5.668
 4148SOL    HW222444   0.326   4.756   5.770
 4149SOL     OW22445   6.548   6.385   4.851
 4149SOL    HW122446   6.549   6.285   4.841
 4149SOL    HW222447   6.453   6.419   4.849
 4150SOL     OW22448   5.061   1.182   3.491
 4150SOL    HW122449   5.134   1.115   3.477
 4150SOL    HW222450   5.018   1.168   3.580
 4151SOL     OW22451   5.181   0.606   4.628
 4151SOL    HW122452   5.216   0.678   4.689
 4151SOL    HW222453   5.160   0.644   4.538
 4152SOL     OW22454   0.459   6.212   0.404
 4152SOL    HW122455   0.406   6.252   0.479
 4152SOL    HW222456   0.435   6.256   0.318
 4153SOL     OW22457   3.601   0.310   7.046
 4153SOL    HW122458   3.573   0.349   6.959
 4153SOL    HW222459   3.701   0.301   7.050
 4154SOL     OW22460   1.925   5.693   1.871
 4154SOL    HW122461   2.009   5.641   1.888
 4154SOL    HW222462   1.943   5.791   1.879
 4155SOL     OW22463   1.716   4.327   7.109
 4155SOL    HW122464   1.707   4.238   7.065
 4155SOL    HW222465   1.757   4.393   7.046
 4156SOL     OW22466   0.335   0.765   7.954
 4156SOL    HW122467   0.341   0.719   7.865
 4156SOL    HW222468   0.329   0.864   7.942
 4157SOL     OW22469   3.901   4.162   2.928
 4157SOL    HW122470   3.975   4.223   2.955
 4157SOL    HW222471   3.905   4.077   2.980
 4158SOL     OW22472   7.917   0.911   3.270
 4158SOL    HW122473   7.894   0.839   3.336
 4158SOL    HW222474   7.956   0.869   3.188
 4159SOL     OW22475   2.066   5.653   6.060
 4159SOL    HW122476   1.975   5.634   6.022
 4159SOL    HW222477   2.135   5.643   5.988
 4160SOL     OW22478   5.909   1.347   7.679
 4160SOL    HW122479   5.983   1.286   7.709
 4160SOL    HW222480   5.878   1.321   7.588
 4161SOL     OW22481   4.914   3.415   2.944
 4161SOL    HW122482   4.912   3.496   3.003
 4161SOL    HW222483   4.827   3.407   2.895
 4162SOL     OW22484   2.123   2.225   3.127
 4162SOL    HW122485   2.035   2.233   3.080
 4162SOL    HW222486   2.115   2.164   3.205
 4163SOL     OW22487   1.464   5.434   1.799
 4163SOL    HW122488   1.508   5.346   1.778
 4163SOL    HW222489   1.475   5.497   1.722
 4164SOL     OW22490   1.129   0.460   0.249
 4164SOL    HW122491   1.221   0.450   0.287
 4164SOL    HW222492   1.134   0.499   0.157
 4165SOL     OW22493   7.897   0.529   3.815
 4165SOL    HW122494   7.953   0.462   3.864
 4165SOL    HW222495   7.897   0.616   3.863
 4166SOL     OW22496   3.046   0.938   6.318
 4166SOL    HW122497   3.025   1.007   6.388
 4166SOL    HW222498   3.069   0.982   6.232
 4167SOL     OW22499   6.373   0.513   4.214
 4167SOL    HW122500   6.467   0.543   4.230
 4167SOL    HW222501   6.346   0.532   4.119
 4168SOL     OW22502   0.858   4.292   1.103
 4168SOL    HW122503   0.923   4.241   1.158
 4168SOL    HW222504   0.889   4.297   1.009
 4169SOL     OW22505   6.623   5.607   2.525
 4169SOL    HW122506   6.569   5.552   2.589
 4169SOL    HW222507   6.600   5.704   2.535
 4170SOL     OW22508   1.132   7.348   5.949
 4170SOL    HW122509   1.204   7.417   5.955
 4170SOL    HW222510   1.165   7.269   5.898
 4171SOL     OW22511   5.421   7.696   2.785
 4171SOL    HW122512   5.453   7.791   2.782
 4171SOL    HW222513   5.344   7.685   2.722
 4172SOL     OW22514   6.950   0.213   5.015
 4172SOL    HW122515   7.044   0.187   5.037
 4172SOL    HW222516   6.941   0.228   4.917
 4173SOL     OW22517   3.859   0.608   7.011
 4173SOL    HW122518   3.800   0.677   6.969
 4173SOL    HW222519   3.840   0.603   7.109
 4174SOL     OW22520   0.154   5.254   5.714
 4174SOL    HW122521   0.168   5.339   5.765
 4174SOL    HW222522   0.204   5.179   5.758
 4175SOL     OW22523  -0.036   6.133   0.437
 4175SOL    HW122524  -0.045   6.033   0.447
 4175SOL    HW222525   0.015   6.155   0.355
 4176SOL     OW22526   4.301   6.642   0.064
 4176SOL    HW122527   4.357   6.559   0.064
 4176SOL    HW222528   4.290   6.677   0.157
 4177SOL     OW22529   5.690   7.707   7.802
 4177SOL    HW122530   5.597   7.669   7.800
 4177SOL    HW222531   5.734   7.692   7.713
 4178SOL     OW22532   6.164   3.456   5.674
 4178SOL    HW122533   6.096   3.478   5.604
 4178SOL    HW222534   6.225   3.384   5.641
 4179SOL     OW22535   7.744   0.262   1.562
 4179SOL    HW122536   7.814   0.302   1.503
 4179SOL    HW222537   7.666   0.231   1.507
 4180SOL     OW22538   5.306   5.180   0.716
 4180SOL    HW122539   5.239   5.112   0.746
 4180SOL    HW222540   5.328   5.167   0.620
 4181SOL     OW22541   0.147   0.180   0.605
 4181SOL    HW122542   0.237   0.151   0.638
 4181SOL    HW222543   0.152   0.204   0.509
 4182SOL     OW22544   3.081   2.094   2.778
 4182SOL    HW122545   3.097   2.190   2.756
 4182SOL    HW222546   3.097   2.037   2.698
 4183SOL     OW22547   5.240   4.080   5.756
 4183SOL    HW122548   5.336   4.104   5.750
 4183SOL    HW222549   5.218   4.007   5.690
 4184SOL     OW22550   4.023   4.989   2.957
 4184SOL    HW122551   4.077   5.049   3.015
 4184SOL    HW222552   3.995   5.037   2.874
 4185SOL     OW22553   7.285   7.735   7.130
 4185SOL    HW122554   7.222   7.806   7.099
 4185SOL    HW222555   7.314   7.755   7.224
 4186SOL     OW22556   3.938   3.649   4.100
 4186SOL    HW122557   3.911   3.684   4.011
 4186SOL    HW222558   3.857   3.616   4.150
 4187SOL     OW22559   4.629   0.172   0.622
 4187SOL    HW122560   4.628   0.121   0.708
 4187SOL    HW222561   4.721   0.210   0.607
 4188SOL     OW22562   4.169   7.797   8.018
 4188SOL    HW122563   4.155   7.698   8.014
 4188SOL    HW222564   4.118   7.842   7.945
 4189SOL     OW22565   4.041   1.330   4.557
 4189SOL    HW122566   4.076   1.305   4.647
 4189SOL    HW222567   3.980   1.409   4.565
 4190SOL     OW22568   3.408   5.765   3.975
 4190SOL    HW122569   3.488   5.754   3.915
 4190SOL    HW222570   3.415   5.702   4.053
 4191SOL     OW22571   0.470   0.498   0.120
 4191SOL    HW122572   0.464   0.399   0.130
 4191SOL    HW222573   0.526   0.522   0.041
 4192SOL     OW22574   7.287   7.941   1.440
 4192SOL    HW122575   7.361   7.990   1.487
 4192SOL    HW222576   7.264   7.988   1.355
 4193SOL     OW22577   1.592   2.379   7.860
 4193SOL    HW122578   1.630   2.408   7.948
 4193SOL    HW222579   1.645   2.419   7.785
 4194SOL     OW22580   4.345   3.677   2.446
 4194SOL    HW122581   4.345   3.773   2.420
 4194SOL    HW222582   4.398   3.665   2.530
 4195SOL     OW22583   4.755   6.226   1.776
 4195SOL    HW122584   4.745   6.319   1.740
 4195SOL    HW222585   4.791   6.230   1.869
 4196SOL     OW22586   6.061   6.986   0.398
 4196SOL    HW122587   6.074   6.888   0.384
 4196SOL    HW222588   6.026   7.004   0.490
 4197SOL     OW22589   5.207   0.004   3.254
 4197SOL    HW122590   5.130   0.015   3.191
 4197SOL    HW222591   5.249   0.093   3.271
 4198SOL     OW22592   5.699   5.983   7.703
 4198SOL    HW122593   5.682   6.065   7.758
 4198SOL    HW222594   5.660   5.903   7.747
 4199SOL     OW22595   7.127   7.661   0.161
 4199SOL    HW122596   7.191   7.591   0.190
 4199SOL    HW222597   7.093   7.640   0.069
 4200SOL     OW22598   0.621   6.448   2.174
 4200SOL    HW122599   0.537   6.455   2.119
 4200SOL    HW222600   0.661   6.358   2.164
 4201SOL     OW22601   7.114   1.710   2.488
 4201SOL    HW122602   7.108   1.612   2.507
 4201SOL    HW222603   7.104   1.761   2.574
 4202SOL     OW22604   7.488   5.371   1.598
 4202SOL    HW122605   7.421   5.345   1.529
 4202SOL    HW222606   7.569   5.411   1.554
 4203SOL     OW22607   4.887   4.377   2.390
 4203SOL    HW122608   4.840   4.456   2.351
 4203SOL    HW222609   4.917   4.398   2.484
 4204SOL     OW22610   1.245   6.058   0.538
 4204SOL    HW122611   1.232   6.152   0.509
 4204SOL    HW222612   1.266   6.000   0.459
 4205SOL     OW22613   4.462   0.212   2.143
 4205SOL    HW122614   4.556   0.183   2.162
 4205SOL    HW222615   4.400   0.174   2.211
 4206SOL     OW22616   1.466   4.654   1.055
 4206SOL    HW122617   1.399   4.712   1.100
 4206SOL    HW222618   1.534   4.622   1.121
 4207SOL     OW22619   3.681   7.470   2.359
 4207SOL    HW122620   3.589   7.455   2.323
 4207SOL    HW222621   3.679   7.478   2.458
 4208SOL     OW22622   3.357   0.815   4.849
 4208SOL    HW122623   3.294   0.737   4.852
 4208SOL    HW222624   3.331   0.877   4.775
 4209SOL     OW22625   1.847   5.428   7.328
 4209SOL    HW122626   1.878   5.423   7.233
 4209SOL    HW222627   1.890   5.356   7.382
 4210SOL     OW22628   1.581   7.141   1.675
 4210SOL    HW122629   1.481   7.132   1.675
 4210SOL    HW222630   1.619   7.096   1.756
 4211SOL     OW22631   3.587   4.452   1.899
 4211SOL    HW122632   3.588   4.370   1.957
 4211SOL    HW222633   3.605   4.533   1.955
 4212SOL     OW22634   6.523   3.040   1.644
 4212SOL    HW122635   6.613   3.037   1.601
 4212SOL    HW222636   6.528   3.002   1.736
 4213SOL     OW22637   5.357   4.111   4.684
 4213SOL    HW122638   5.402   4.151   4.764
 4213SOL    HW222639   5.425   4.075   4.621
 4214SOL     OW22640   0.620   0.762   0.278
 4214SOL    HW122641   0.607   0.851   0.233
 4214SOL    HW222642   0.648   0.776   0.373
 4215SOL     OW22643   2.620   4.128   4.327
 4215SOL    HW122644   2.569   4.214   4.312
 4215SOL    HW222645   2.590   4.059   4.261
 4216SOL     OW22646   2.479   0.735   2.289
 4216SOL    HW122647   2.561   0.682   2.311
 4216SOL    HW222648   2.491   0.783   2.202
 4217SOL     OW22649   5.474   2.603   5.845
 4217SOL    HW122650   5.532   2.522   5.858
 4217SOL    HW222651   5.463   2.622   5.748
 4218SOL     OW22652   1.364   1.886   6.074
 4218SOL    HW122653   1.457   1.918   6.092
 4218SOL    HW222654   1.355   1.861   5.977
 4219SOL     OW22655   3.613   1.372   2.963
 4219SOL    HW122656   3.578   1.282   2.936
 4219SOL    HW222657   3.579   1.396   3.054
 4220SOL     OW22658   7.150   6.329   2.807
 4220SOL    HW122659   7.220   6.314   2.736
 4220SOL    HW222660   7.129   6.242   2.853
 4221SOL     OW22661   7.048   3.521   5.938
 4221SOL    HW122662   7.125   3.581   5.962
 4221SOL    HW222663   6.965   3.552   5.984
 4222SOL     OW22664   1.721   7.354   0.219
 4222SOL    HW122665   1.712   7.268   0.168
 4222SOL    HW222666   1.632   7.398   0.228
 4223SOL     OW22667   4.480   6.642   7.201
 4223SOL    HW122668   4.500   6.618   7.296
 4223SOL    HW222669   4.459   6.560   7.148
 4224SOL     OW22670   4.932   5.135   2.012
 4224SOL    HW122671   4.835   5.108   2.004
 4224SOL    HW222672   4.952   5.161   2.106
 4225SOL     OW22673   0.540   2.876   5.855
 4225SOL    HW122674   0.616   2.815   5.876
 4225SOL    HW222675   0.527   2.882   5.756
 4226SOL     OW22676   7.735   4.163   4.627
 4226SOL    HW122677   7.824   4.128   4.660
 4226SOL    HW222678   7.750   4.239   4.565
 4227SOL     OW22679   7.231   2.956   1.362
 4227SOL    HW122680   7.141   2.988   1.390
 4227SOL    HW222681   7.226   2.914   1.271
 4228SOL     OW22682   5.932   4.977   0.222
 4228SOL    HW122683   5.961   4.995   0.128
 4228SOL    HW222684   5.884   4.889   0.227
 4229SOL     OW22685   4.199   0.943   5.400
 4229SOL    HW122686   4.241   1.025   5.362
 4229SOL    HW222687   4.113   0.924   5.352
 4230SOL     OW22688   6.444   0.762   4.029
 4230SOL    HW122689   6.428   0.737   4.125
 4230SOL    HW222690   6.495   0.689   3.983
 4231SOL     OW22691   6.564   1.578   1.988
 4231SOL    HW122692   6.527   1.647   1.926
 4231SOL    HW222693   6.581   1.619   2.078
 4232SOL     OW22694   4.094   1.471   3.588
 4232SOL    HW122695   4.039   1.430   3.661
 4232SOL    HW222696   4.158   1.537   3.626
 4233SOL     OW22697   1.056   3.802   1.169
 4233SOL    HW122698   1.109   3.866   1.112
 4233SOL    HW222699   0.959   3.807   1.145
 4234SOL     OW22700   5.231   6.374   6.162
 4234SOL    HW122701   5.206   6.288   6.117
 4234SOL    HW222702   5.270   6.355   6.252
 4235SOL     OW22703   4.149   2.173   0.941
 4235SOL    HW122704   4.155   2.258   0.888
 4235SOL    HW222705   4.142   2.194   1.038
 4236SOL     OW22706   3.508   7.040   4.923
 4236SOL    HW122707   3.546   6.992   5.003
 4236SOL    HW222708   3.410   7.025   4.917
 4237SOL     OW22709   4.810   0.423   3.963
 4237SOL    HW122710   4.838   0.415   4.059
 4237SOL    HW222711   4.872   0.485   3.916
 4238SOL     OW22712   2.925   4.170   7.598
 4238SOL    HW122713   2.849   4.235   7.600
 4238SOL    HW222714   2.936   4.127   7.687
 4239SOL     OW22715   5.372   1.823   5.294
 4239SOL    HW122716   5.394   1.770   5.376
 4239SOL    HW222717   5.448   1.883   5.270
 4240SOL     OW22718   5.967   1.607   3.941
 4240SOL    HW122719   5.883   1.612   3.995
 4240SOL    HW222720   5.951   1.639   3.848
 4241SOL     OW22721   3.810   3.602   6.478
 4241SOL    HW122722   3.791   3.648   6.565
 4241SOL    HW222723   3.755   3.643   6.405
 4242SOL     OW22724   2.889   3.951   1.441
 4242SOL    HW122725   2.818   3.939   1.372
 4242SOL    HW222726   2.857   3.917   1.530
 4243SOL     OW22727   5.285   4.117   3.357
 4243SOL    HW122728   5.263   4.054   3.283
 4243SOL    HW222729   5.218   4.108   3.430
 4244SOL     OW22730   0.045   6.218   7.610
 4244SOL    HW122731   0.122   6.281   7.597
 4244SOL    HW222732   0.027   6.168   7.526
 4245SOL     OW22733   0.527   1.908   3.534
 4245SOL    HW122734   0.465   1.963   3.590
 4245SOL    HW222735   0.622   1.928   3.557
 4246SOL     OW22736   3.670   6.709   4.414
 4246SOL    HW122737   3.652   6.664   4.326
 4246SOL    HW222738   3.691   6.806   4.399
 4247SOL     OW22739   4.217   2.864   7.322
 4247SOL    HW122740   4.271   2.804   7.262
 4247SOL    HW222741   4.206   2.823   7.412
 4248SOL     OW22742   4.410   0.678   2.162
 4248SOL    HW122743   4.344   0.636   2.223
 4248SOL    HW222744   4.413   0.627   2.075
 4249SOL     OW22745   3.898   1.288   5.192
 4249SOL    HW122746   3.932   1.349   5.263
 4249SOL    HW222747   3.813   1.325   5.153
 4250SOL     OW22748   6.537   2.245   7.716
 4250SOL    HW122749   6.465   2.312   7.698
 4250SOL    HW222750   6.565   2.202   7.630
 4251SOL     OW22751   5.485   5.039   0.379
 4251SOL    HW122752   5.416   4.976   0.343
 4251SOL    HW222753   5.498   5.115   0.315
 4252SOL     OW22754   0.932   2.428   5.815
 4252SOL    HW122755   0.885   2.351   5.860
 4252SOL    HW222756   0.974   2.396   5.730
 4253SOL     OW22757   6.449   0.203   7.744
 4253SOL    HW122758   6.444   0.287   7.690
 4253SOL    HW222759   6.408   0.217   7.834
 4254SOL     OW22760   5.808   3.452   3.026
 4254SOL    HW122761   5.815   3.541   3.072
 4254SOL    HW222762   5.898   3.407   3.026
 4255SOL     OW22763   5.772   1.362   0.427
 4255SOL    HW122764   5.756   1.302   0.506
 4255SOL    HW222765   5.685   1.391   0.388
 4256SOL     OW22766   4.559   1.598   1.401
 4256SOL    HW122767   4.629   1.559   1.342
 4256SOL    HW222768   4.570   1.563   1.494
 4257SOL     OW22769   1.640   4.800   4.158
 4257SOL    HW122770   1.662   4.773   4.252
 4257SOL    HW222771   1.700   4.752   4.094
 4258SOL     OW22772   6.201   1.360   1.298
 4258SOL    HW122773   6.279   1.399   1.346
 4258SOL    HW222774   6.213   1.261   1.287
 4259SOL     OW22775   5.024   2.734   6.411
 4259SOL    HW122776   5.099   2.768   6.353
 4259SOL    HW222777   5.018   2.788   6.495
 4260SOL     OW22778   7.676   2.008   3.790
 4260SOL    HW122779   7.740   2.074   3.750
 4260SOL    HW222780   7.612   1.976   3.721
 4261SOL     OW22781   7.756   4.809   1.889
 4261SOL    HW122782   7.737   4.884   1.826
 4261SOL    HW222783   7.764   4.843   1.983
 4262SOL     OW22784   2.284   4.845   5.632
 4262SOL    HW122785   2.302   4.868   5.728
 4262SOL    HW222786   2.187   4.822   5.620
 4263SOL     OW22787   3.960   7.764   4.956
 4263SOL    HW122788   3.960   7.669   4.924
 4263SOL    HW222789   3.904   7.772   5.039
 4264SOL     OW22790   1.631   3.483   1.812
 4264SOL    HW122791   1.642   3.501   1.714
 4264SOL    HW222792   1.703   3.422   1.844
 4265SOL     OW22793   2.544   3.493   2.515
 4265SOL    HW122794   2.638   3.522   2.493
 4265SOL    HW222795   2.482   3.571   2.507
 4266SOL     OW22796   3.604   1.757   0.386
 4266SOL    HW122797   3.544   1.808   0.324
 4266SOL    HW222798   3.593   1.789   0.480
 4267SOL     OW22799   5.907   5.569   1.896
 4267SOL    HW122800   5.839   5.639   1.874
 4267SOL    HW222801   5.981   5.572   1.829
 4268SOL     OW22802   0.945   5.603   5.841
 4268SOL    HW122803   0.909   5.519   5.801
 4268SOL    HW222804   0.914   5.613   5.935
 4269SOL     OW22805   7.565   4.331   6.886
 4269SOL    HW122806   7.570   4.407   6.951
 4269SOL    HW222807   7.654   4.317   6.843
 4270SOL     OW22808   2.797   6.420   5.723
 4270SOL    HW122809   2.770   6.513   5.699
 4270SOL    HW222810   2.753   6.355   5.661
 4271SOL     OW22811   0.107   0.033   3.859
 4271SOL    HW122812   0.018   0.002   3.824
 4271SOL    HW222813   0.098   0.124   3.899
 4272SOL     OW22814   0.079   5.301   3.207
 4272SOL    HW122815   0.015   5.250   3.264
 4272SOL    HW222816   0.091   5.394   3.244
 4273SOL     OW22817   7.505   7.397   5.007
 4273SOL    HW122818   7.538   7.473   5.063
 4273SOL    HW222819   7.579   7.363   4.949
 4274SOL     OW22820   6.583   1.920   3.014
 4274SOL    HW122821   6.593   2.019   3.027
 4274SOL    HW222822   6.532   1.901   2.930
 4275SOL     OW22823   4.385   7.745   1.935
 4275SOL    HW122824   4.425   7.837   1.926
 4275SOL    HW222825   4.334   7.739   2.021
 4276SOL     OW22826   4.738   6.567   6.223
 4276SOL    HW122827   4.644   6.579   6.256
 4276SOL    HW222828   4.740   6.506   6.144
 4277SOL     OW22829   4.003   2.590   6.384
 4277SOL    HW122830   4.102   2.598   6.374
 4277SOL    HW222831   3.959   2.673   6.350
 4278SOL     OW22832   0.879   3.970   7.628
 4278SOL    HW122833   0.846   3.917   7.706
 4278SOL    HW222834   0.907   3.910   7.554
 4279SOL     OW22835   6.958   2.341   4.282
 4279SOL    HW122836   6.889   2.346   4.210
 4279SOL    HW222837   6.981   2.246   4.301
 4280SOL     OW22838   3.846   2.329   2.237
 4280SOL    HW122839   3.824   2.399   2.305
 4280SOL    HW222840   3.945   2.327   2.222
 4281SOL     OW22841   6.236   1.501   4.878
 4281SOL    HW122842   6.307   1.431   4.881
 4281SOL    HW222843   6.166   1.476   4.811
 4282SOL     OW22844   3.047   0.437   3.879
 4282SOL    HW122845   3.069   0.358   3.822
 4282SOL    HW222846   2.953   0.431   3.910
 4283SOL     OW22847   3.278   2.183   4.737
 4283SOL    HW122848   3.252   2.097   4.783
 4283SOL    HW222849   3.351   2.228   4.789
 4284SOL     OW22850   7.593   4.275   2.559
 4284SOL    HW122851   7.498   4.286   2.591
 4284SOL    HW222852   7.613   4.179   2.543
 4285SOL     OW22853   2.541   3.204   7.488
 4285SOL    HW122854   2.579   3.152   7.411
 4285SOL    HW222855   2.444   3.223   7.473
 4286SOL     OW22856   5.847   3.351   2.322
 4286SOL    HW122857   5.754   3.314   2.320
 4286SOL    HW222858   5.845   3.446   2.353
 4287SOL     OW22859   1.933   6.203   5.822
 4287SOL    HW122860   1.846   6.164   5.791
 4287SOL    HW222861   1.924   6.234   5.916
 4288SOL     OW22862   0.115   0.636   0.144
 4288SOL    HW122863   0.167   0.696   0.205
 4288SOL    HW222864   0.147   0.647   0.050
 4289SOL     OW22865   5.502   1.245   0.521
 4289SOL    HW122866   5.552   1.207   0.443
 4289SOL    HW222867   5.408   1.211   0.521
 4290SOL     OW22868   5.767   2.699   2.061
 4290SOL    HW122869   5.820   2.774   2.021
 4290SOL    HW222870   5.736   2.637   1.988
 4291SOL     OW22871  -0.045   7.948   4.789
 4291SOL    HW122872   0.002   7.989   4.711
 4291SOL    HW222873   0.016   7.885   4.837
 4292SOL     OW22874   5.366   3.813   1.260
 4292SOL    HW122875   5.446   3.754   1.250
 4292SOL    HW222876   5.300   3.770   1.322
 4293SOL     OW22877   7.399   0.630   4.635
 4293SOL    HW122878   7.348   0.565   4.578
 4293SOL    HW222879   7.445   0.581   4.710
 4294SOL     OW22880   4.896   4.745   3.722
 4294SOL    HW122881   4.917   4.836   3.688
 4294SOL    HW222882   4.851   4.691   3.650
 4295SOL     OW22883   6.891   5.906   6.158
 4295SOL    HW122884   6.920   5.960   6.079
 4295SOL    HW222885   6.889   5.962   6.240
 4296SOL     OW22886   3.859   0.069   4.579
 4296SOL    HW122887   3.833   0.037   4.488
 4296SOL    HW222888   3.790   0.132   4.614
 4297SOL     OW22889   5.562   2.559   1.199
 4297SOL    HW122890   5.534   2.626   1.131
 4297SOL    HW222891   5.624   2.601   1.265
 4298SOL     OW22892   2.866   1.443   4.307
 4298SOL    HW122893   2.874   1.530   4.258
 4298SOL    HW222894   2.952   1.421   4.353
 4299SOL     OW22895   3.591   7.989   7.689
 4299SOL    HW122896   3.498   7.964   7.715
 4299SOL    HW222897   3.603   7.978   7.590
 4300SOL     OW22898   6.961   2.404   7.245
 4300SOL    HW122899   6.923   2.492   7.217
 4300SOL    HW222900   6.897   2.358   7.306
 4301SOL     OW22901   7.732   2.190   1.724
 4301SOL    HW122902   7.762   2.117   1.784
 4301SOL    HW222903   7.763   2.173   1.631
 4302SOL     OW22904   1.184   2.989   0.474
 4302SOL    HW122905   1.110   2.960   0.536
 4302SOL    HW222906   1.253   2.917   0.467
 4303SOL     OW22907   1.598   3.164   5.173
 4303SOL    HW122908   1.630   3.094   5.237
 4303SOL    HW222909   1.567   3.120   5.088
 4304SOL     OW22910   7.763   2.070   6.468
 4304SOL    HW122911   7.836   2.037   6.408
 4304SOL    HW222912   7.767   2.170   6.475
 4305SOL     OW22913   0.614   7.807   3.373
 4305SOL    HW122914   0.521   7.776   3.390
 4305SOL    HW222915   0.653   7.758   3.295
 4306SOL     OW22916   7.532   0.266   4.698
 4306SOL    HW122917   7.623   0.295   4.668
 4306SOL    HW222918   7.527   0.166   4.699
 4307SOL     OW22919   3.652   3.286   6.122
 4307SOL    HW122920   3.707   3.303   6.040
 4307SOL    HW222921   3.555   3.280   6.097
 4308SOL     OW22922   7.240   6.462   0.796
 4308SOL    HW122923   7.221   6.412   0.711
 4308SOL    HW222924   7.206   6.410   0.874
 4309SOL     OW22925   4.422   1.138   2.475
 4309SOL    HW122926   4.340   1.093   2.439
 4309SOL    HW222927   4.404   1.177   2.565
 4310SOL     OW22928   5.873   5.558   0.104
 4310SOL    HW122929   5.907   5.471   0.141
 4310SOL    HW222930   5.926   5.634   0.142
 4311SOL     OW22931   5.289   0.081   1.212
 4311SOL    HW122932   5.332   0.100   1.124
 4311SOL    HW222933   5.197   0.044   1.198
 4312SOL     OW22934   1.025   6.005   7.168
 4312SOL    HW122935   0.965   6.031   7.092
 4312SOL    HW222936   1.036   6.081   7.231
 4313SOL     OW22937   6.697   6.962   6.125
 4313SOL    HW122938   6.649   6.875   6.120
 4313SOL    HW222939   6.768   6.959   6.195
 4314SOL     OW22940   6.757   5.670   1.629
 4314SOL    HW122941   6.707   5.600   1.578
 4314SOL    HW222942   6.698   5.748   1.648
 4315SOL     OW22943   4.101   7.856   1.499
 4315SOL    HW122944   4.162   7.929   1.529
 4315SOL    HW222945   4.037   7.891   1.431
 4316SOL     OW22946   4.829   1.252   7.984
 4316SOL    HW122947   4.867   1.275   7.894
 4316SOL    HW222948   4.872   1.168   8.018
 4317SOL     OW22949   2.036   1.176   7.095
 4317SOL    HW122950   1.995   1.251   7.148
 4317SOL    HW222951   1.973   1.145   7.024
 4318SOL     OW22952   6.628   3.754   6.563
 4318SOL    HW122953   6.687   3.677   6.590
 4318SOL    HW222954   6.668   3.803   6.487
 4319SOL     OW22955   7.926   4.342   3.047
 4319SOL    HW122956   7.912   4.245   3.071
 4319SOL    HW222957   7.955   4.349   2.952
 4320SOL     OW22958   0.580   6.376   4.071
 4320SOL    HW122959   0.622   6.305   4.127
 4320SOL    HW222960   0.650   6.439   4.038
 4321SOL     OW22961   2.541   1.587   2.257
 4321SOL    HW122962   2.474   1.658   2.276
 4321SOL    HW222963   2.584   1.604   2.168
 4322SOL     OW22964   0.408   3.174   5.192
 4322SOL    HW122965   0.467   3.096   5.212
 4322SOL    HW222966   0.319   3.161   5.237
 4323SOL     OW22967   4.345   7.724   2.596
 4323SOL    HW122968   4.350   7.624   2.592
 4323SOL    HW222969   4.275   7.753   2.661
 4324SOL     OW22970   0.022   7.585   6.700
 4324SOL    HW122971  -0.045   7.515   6.726
 4324SOL    HW222972  -0.012   7.638   6.622
 4325SOL     OW22973   4.286   6.507   5.941
 4325SOL    HW122974   4.255   6.449   5.866
 4325SOL    HW222975   4.385   6.503   5.949
 4326SOL     OW22976   2.428   2.317   7.536
 4326SOL    HW122977   2.473   2.332   7.624
 4326SOL    HW222978   2.337   2.278   7.550
 4327SOL     OW22979   4.964   2.388   5.554
 4327SOL    HW122980   4.972   2.293   5.584
 4327SOL    HW222981   5.000   2.397   5.462
 4328SOL     OW22982   1.112   2.242   3.607
 4328SOL    HW122983   1.136   2.308   3.677
 4328SOL    HW222984   1.082   2.289   3.524
 4329SOL     OW22985   1.363   2.308   2.918
 4329SOL    HW122986   1.445   2.365   2.908
 4329SOL    HW222987   1.369   2.254   3.002
 4330SOL     OW22988   3.873   4.445   2.148
 4330SOL    HW122989   3.815   4.368   2.122
 4330SOL    HW222990   3.863   4.464   2.246
 4331SOL     OW22991   4.198   7.926   0.600
 4331SOL    HW122992   4.174   7.843   0.652
 4331SOL    HW222993   4.203   7.904   0.503
 4332SOL     OW22994   0.743   3.509   5.252
 4332SOL    HW122995   0.839   3.501   5.280
 4332SOL    HW222996   0.733   3.483   5.156
 4333SOL     OW22997   7.189   2.713   3.056
 4333SOL    HW122998   7.129   2.689   2.979
 4333SOL    HW222999   7.281   2.733   3.022
 4334SOL     OW23000   2.833   2.324   7.446
 4334SOL    HW123001   2.836   2.300   7.543
 4334SOL    HW223002   2.926   2.322   7.408
 4335SOL     OW23003   2.025   5.034   7.222
 4335SOL    HW123004   2.086   4.964   7.185
 4335SOL    HW223005   1.990   5.005   7.311
 4336SOL     OW23006   0.452   5.566   6.701
 4336SOL    HW123007   0.470   5.663   6.681
 4336SOL    HW223008   0.468   5.511   6.619
 4337SOL     OW23009   4.568   3.116   5.032
 4337SOL    HW123010   4.483   3.083   5.072
 4337SOL    HW223011   4.588   3.067   4.947
 4338SOL     OW23012   1.762   4.459   0.545
 4338SOL    HW123013   1.841   4.414   0.504
 4338SOL    HW223014   1.720   4.400   0.613
 4339SOL     OW23015   4.491   4.607   3.478
 4339SOL    HW123016   4.470   4.560   3.393
 4339SOL    HW223017   4.573   4.568   3.519
 4340SOL     OW23018   5.095   4.428   0.445
 4340SOL    HW123019   5.135   4.520   0.438
 4340SOL    HW223020   5.007   4.425   0.398
 4341SOL     OW23021   4.535   3.555   1.414
 4341SOL    HW123022   4.605   3.626   1.423
 4341SOL    HW223023   4.555   3.497   1.336
 4342SOL     OW23024   2.322   5.772   1.960
 4342SOL    HW123025   2.414   5.808   1.978
 4342SOL    HW223026   2.286   5.813   1.876
 4343SOL     OW23027   2.180   6.310   7.366
 4343SOL    HW123028   2.106   6.249   7.393
 4343SOL    HW223029   2.244   6.322   7.442
 4344SOL     OW23030   0.017   7.015   6.892
 4344SOL    HW123031   0.011   6.932   6.948
 4344SOL    HW223032   0.098   7.011   6.833
 4345SOL     OW23033   2.767   4.132   3.167
 4345SOL    HW123034   2.771   4.223   3.126
 4345SOL    HW223035   2.818   4.131   3.254
 4346SOL     OW23036   2.079   5.914   4.647
 4346SOL    HW123037   2.158   5.860   4.676
 4346SOL    HW223038   2.091   5.945   4.553
 4347SOL     OW23039   7.633   0.889   3.548
 4347SOL    HW123040   7.646   0.977   3.594
 4347SOL    HW223041   7.571   0.899   3.470
 4348SOL     OW23042   0.530  -0.011   6.114
 4348SOL    HW123043   0.451   0.033   6.156
 4348SOL    HW223044   0.528   0.004   6.015
 4349SOL     OW23045   3.797   1.382   1.484
 4349SOL    HW123046   3.785   1.469   1.533
 4349SOL    HW223047   3.746   1.384   1.398
 4350SOL     OW23048   4.874   1.769   5.736
 4350SOL    HW123049   4.938   1.755   5.661
 4350SOL    HW223050   4.781   1.751   5.706
 4351SOL     OW23051   1.205   5.761   6.625
 4351SOL    HW123052   1.124   5.745   6.568
 4351SOL    HW223053   1.178   5.798   6.714
 4352SOL     OW23054   3.961   2.367   0.184
 4352SOL    HW123055   3.931   2.291   0.127
 4352SOL    HW223056   4.056   2.391   0.163
 4353SOL     OW23057   7.312   5.648   7.218
 4353SOL    HW123058   7.304   5.556   7.257
 4353SOL    HW223059   7.346   5.642   7.124
 4354SOL     OW23060   5.766   7.453   4.364
 4354SOL    HW123061   5.821   7.396   4.303
 4354SOL    HW223062   5.754   7.407   4.452
 4355SOL     OW23063   6.140   6.402   2.405
 4355SOL    HW123064   6.200   6.366   2.334
 4355SOL    HW223065   6.194   6.437   2.481
 4356SOL     OW23066   7.842   5.888   6.430
 4356SOL    HW123067   7.939   5.909   6.418
 4356SOL    HW223068   7.830   5.825   6.506
 4357SOL     OW23069   0.797   0.871   5.926
 4357SOL    HW123070   0.888   0.896   5.961
 4357SOL    HW223071   0.790   0.894   5.829
 4358SOL     OW23072   5.260   7.762   0.533
 4358SOL    HW123073   5.306   7.850   0.551
 4358SOL    HW223074   5.328   7.690   0.523
 4359SOL     OW23075   0.965   0.959   1.356
 4359SOL    HW123076   1.043   0.992   1.303
 4359SOL    HW223077   0.904   0.906   1.298
 4360SOL     OW23078   2.163   0.955   1.378
 4360SOL    HW123079   2.073   0.912   1.378
 4360SOL    HW223080   2.184   0.992   1.287
 4361SOL     OW23081   1.441   3.410   3.351
 4361SOL    HW123082   1.453   3.469   3.271
 4361SOL    HW223083   1.499   3.330   3.344
 4362SOL     OW23084   4.173   2.947   2.806
 4362SOL    HW123085   4.137   2.860   2.773
 4362SOL    HW223086   4.131   2.969   2.894
 4363SOL     OW23087   6.789   0.339   3.368
 4363SOL    HW123088   6.785   0.251   3.322
 4363SOL    HW223089   6.756   0.330   3.462
 4364SOL     OW23090   5.038   0.387   4.206
 4364SOL    HW123091   5.098   0.324   4.255
 4364SOL    HW223092   5.046   0.479   4.243
 4365SOL     OW23093   4.431   5.865   7.788
 4365SOL    HW123094   4.343   5.817   7.798
 4365SOL    HW223095   4.478   5.832   7.706
 4366SOL     OW23096   6.414   7.274   5.820
 4366SOL    HW123097   6.432   7.363   5.861
 4366SOL    HW223098   6.340   7.229   5.869
 4367SOL     OW23099   4.130   0.943   0.087
 4367SOL    HW123100   4.085   1.000   0.018
 4367SOL    HW223101   4.229   0.958   0.084
 4368SOL     OW23102   1.613   0.758   6.499
 4368SOL    HW123103   1.538   0.695   6.479
 4368SOL    HW223104   1.622   0.770   6.598
 4369SOL     OW23105   0.970   3.442   4.629
 4369SOL    HW123106   0.880   3.474   4.659
 4369SOL    HW223107   0.959   3.371   4.559
 4370SOL     OW23108   4.731   0.831   2.904
 4370SOL    HW123109   4.658   0.895   2.931
 4370SOL    HW223110   4.727   0.815   2.806
 4371SOL     OW23111   2.478   5.267   1.895
 4371SOL    HW123112   2.442   5.213   1.971
 4371SOL    HW223113   2.489   5.209   1.814
 4372SOL     OW23114   4.168   4.989   6.589
 4372SOL    HW123115   4.204   4.935   6.513
 4372SOL    HW223116   4.171   4.935   6.673
 4373SOL     OW23117   7.111   2.441   1.618
 4373SOL    HW123118   7.133   2.439   1.716
 4373SOL    HW223119   7.101   2.536   1.587
 4374SOL     OW23120   5.410   1.745   6.540
 4374SOL    HW123121   5.396   1.838   6.506
 4374SOL    HW223122   5.444   1.747   6.634
 4375SOL     OW23123   0.370   0.789   3.089
 4375SOL    HW123124   0.386   0.833   3.178
 4375SOL    HW223125   0.450   0.803   3.029
 4376SOL     OW23126   3.249   4.697   1.304
 4376SOL    HW123127   3.175   4.727   1.244
 4376SOL    HW223128   3.240   4.740   1.394
 4377SOL     OW23129   5.782   3.327   6.115
 4377SOL    HW123130   5.693   3.359   6.084
 4377SOL    HW223131   5.794   3.348   6.212
 4378SOL     OW23132   3.367   7.949   4.000
 4378SOL    HW123133   3.457   7.989   4.019
 4378SOL    HW223134   3.339   7.970   3.906
 4379SOL     OW23135   7.366   3.448   1.253
 4379SOL    HW123136   7.302   3.371   1.261
 4379SOL    HW223137   7.323   3.524   1.205
 4380SOL     OW23138   1.751   2.387   7.253
 4380SOL    HW123139   1.738   2.312   7.189
 4380SOL    HW223140   1.732   2.357   7.346
 4381SOL     OW23141   3.403   5.312   0.558
 4381SOL    HW123142   3.363   5.382   0.618
 4381SOL    HW223143   3.348   5.301   0.476
 4382SOL     OW23144   1.398   6.185   4.663
 4382SOL    HW123145   1.322   6.135   4.705
 4382SOL    HW223146   1.411   6.273   4.708
 4383SOL     OW23147   4.593   7.102   2.823
 4383SOL    HW123148   4.682   7.059   2.840
 4383SOL    HW223149   4.587   7.188   2.874
 4384SOL     OW23150   3.425   5.728   4.958
 4384SOL    HW123151   3.430   5.632   4.929
 4384SOL    HW223152   3.457   5.787   4.884
 4385SOL     OW23153   0.508   3.900   0.324
 4385SOL    HW123154   0.541   3.806   0.310
 4385SOL    HW223155   0.486   3.914   0.420
 4386SOL     OW23156   5.836   2.189   3.651
 4386SOL    HW123157   5.849   2.214   3.747
 4386SOL    HW223158   5.740   2.200   3.626
 4387SOL     OW23159   7.462   6.762   0.785
 4387SOL    HW123160   7.447   6.800   0.877
 4387SOL    HW223161   7.445   6.664   0.786
 4388SOL     OW23162   2.678   0.903   2.789
 4388SOL    HW123163   2.619   0.980   2.759
 4388SOL    HW223164   2.693   0.909   2.887
 4389SOL     OW23165   2.343   3.867   1.135
 4389SOL    HW123166   2.397   3.879   1.218
 4389SOL    HW223167   2.391   3.908   1.057
 4390SOL     OW23168   2.216   0.109   1.329
 4390SOL    HW123169   2.287   0.178   1.344
 4390SOL    HW223170   2.235   0.027   1.384
 4391SOL     OW23171   0.039   3.589   3.897
 4391SOL    HW123172   0.005   3.515   3.838
 4391SOL    HW223173  -0.021   3.599   3.976
 4392SOL     OW23174   0.739   0.341   1.728
 4392SOL    HW123175   0.644   0.331   1.699
 4392SOL    HW223176   0.782   0.416   1.679
 4393SOL     OW23177   2.856   3.109   4.975
 4393SOL    HW123178   2.775   3.128   4.920
 4393SOL    HW223179   2.841   3.141   5.069
 4394SOL     OW23180   1.488   2.788   1.207
 4394SOL    HW123181   1.536   2.709   1.247
 4394SOL    HW223182   1.427   2.829   1.276
 4395SOL     OW23183   5.681   4.256   1.749
 4395SOL    HW123184   5.724   4.234   1.661
 4395SOL    HW223185   5.620   4.181   1.776
 4396SOL     OW23186   5.902   7.090   3.529
 4396SOL    HW123187   5.899   7.138   3.617
 4396SOL    HW223188   5.829   7.022   3.524
 4397SOL     OW23189   0.573   6.302   3.124
 4397SOL    HW123190   0.608   6.209   3.129
 4397SOL    HW223191   0.646   6.366   3.101
 4398SOL     OW23192   4.106   3.717   2.673
 4398SOL    HW123193   4.137   3.778   2.600
 4398SOL    HW223194   4.136   3.752   2.762
 4399SOL     OW23195   7.324   1.701   7.718
 4399SOL    HW123196   7.285   1.791   7.696
 4399SOL    HW223197   7.342   1.650   7.634
 4400SOL     OW23198   4.525   4.157   0.678
 4400SOL    HW123199   4.499   4.070   0.721
 4400SOL    HW223200   4.525   4.147   0.579
 4401SOL     OW23201   2.814   7.369   4.385
 4401SOL    HW123202   2.891   7.431   4.366
 4401SOL    HW223203   2.831   7.316   4.467
 4402SOL     OW23204   0.475   5.038   0.925
 4402SOL    HW123205   0.544   4.971   0.897
 4402SOL    HW223206   0.444   5.018   1.018
 4403SOL     OW23207   4.587   6.641   2.579
 4403SOL    HW123208   4.538   6.568   2.627
 4403SOL    HW223209   4.677   6.654   2.621
 4404SOL     OW23210   6.832   4.666   4.831
 4404SOL    HW123211   6.930   4.653   4.841
 4404SOL    HW223212   6.786   4.578   4.825
 4405SOL     OW23213   7.418   7.065   2.503
 4405SOL    HW123214   7.510   7.032   2.483
 4405SOL    HW223215   7.369   6.998   2.558
 4406SOL     OW23216   7.500   4.368   6.319
 4406SOL    HW123217   7.537   4.332   6.406
 4406SOL    HW223218   7.541   4.457   6.299
 4407SOL     OW23219   5.712   7.257   6.623
 4407SOL    HW123220   5.745   7.232   6.714
 4407SOL    HW223221   5.695   7.355   6.618
 4408SOL     OW23222   0.595   1.907   7.622
 4408SOL    HW123223   0.501   1.873   7.618
 4408SOL    HW223224   0.618   1.954   7.537
 4409SOL     OW23225   1.635   3.647   3.625
 4409SOL    HW123226   1.544   3.659   3.586
 4409SOL    HW223227   1.703   3.640   3.552
 4410SOL     OW23228   5.124   6.045   1.072
 4410SOL    HW123229   5.053   6.105   1.109
 4410SOL    HW223230   5.208   6.096   1.058
 4411SOL     OW23231   3.587   1.386   6.513
 4411SOL    HW123232   3.625   1.323   6.581
 4411SOL    HW223233   3.619   1.362   6.422
 4412SOL     OW23234   3.148   6.070   7.035
 4412SOL    HW123235   3.058   6.075   7.078
 4412SOL    HW223236   3.146   6.002   6.961
 4413SOL     OW23237   0.671   3.666   0.522
 4413SOL    HW123238   0.584   3.713   0.505
 4413SOL    HW223239   0.747   3.720   0.486
 4414SOL     OW23240   4.961   2.766   1.855
 4414SOL    HW123241   5.056   2.748   1.884
 4414SOL    HW223242   4.961   2.814   1.767
 4415SOL     OW23243   5.167   7.534   1.935
 4415SOL    HW123244   5.191   7.592   2.013
 4415SOL    HW223245   5.227   7.553   1.858
 4416SOL     OW23246   3.597   7.848   6.319
 4416SOL    HW123247   3.525   7.786   6.289
 4416SOL    HW223248   3.580   7.876   6.414
 4417SOL     OW23249   4.699   3.657   2.316
 4417SOL    HW123250   4.640   3.583   2.349
 4417SOL    HW223251   4.740   3.631   2.228
 4418SOL     OW23252   4.383   1.456   1.775
 4418SOL    HW123253   4.476   1.495   1.775
 4418SOL    HW223254   4.317   1.527   1.800
 4419SOL     OW23255   0.064   0.363   7.083
 4419SOL    HW123256   0.096   0.324   6.997
 4419SOL    HW223257   0.134   0.422   7.123
 4420SOL     OW23258   1.242   7.167   4.734
 4420SOL    HW123259   1.312   7.155   4.663
 4420SOL    HW223260   1.207   7.260   4.732
 4421SOL     OW23261   3.555   3.168   5.054
 4421SOL    HW123262   3.634   3.113   5.029
 4421SOL    HW223263   3.475   3.140   5.001
 4422SOL     OW23264   4.250   3.774   6.035
 4422SOL    HW123265   4.280   3.866   6.061
 4422SOL    HW223266   4.213   3.775   5.942
 4423SOL     OW23267   5.051   5.690   6.271
 4423SOL    HW123268   5.092   5.684   6.179
 4423SOL    HW223269   5.108   5.746   6.330
 4424SOL     OW23270   3.824   7.814   6.714
 4424SOL    HW123271   3.896   7.762   6.762
 4424SOL    HW223272   3.742   7.816   6.771
 4425SOL     OW23273   7.693   7.135   5.077
 4425SOL    HW123274   7.757   7.201   5.117
 4425SOL    HW223275   7.696   7.139   4.977
 4426SOL     OW23276   7.700   0.828   0.893
 4426SOL    HW123277   7.761   0.898   0.932
 4426SOL    HW223278   7.677   0.852   0.798
 4427SOL     OW23279   7.948   3.310   5.983
 4427SOL    HW123280   7.955   3.404   6.016
 4427SOL    HW223281   7.896   3.255   6.049
 4428SOL     OW23282   1.199   5.093   6.270
 4428SOL    HW123283   1.208   4.994   6.286
 4428SOL    HW223284   1.176   5.111   6.175
 4429SOL     OW23285   7.767   1.492   5.448
 4429SOL    HW123286   7.838   1.535   5.393
 4429SOL    HW223287   7.684   1.477   5.393
 4430SOL     OW23288   6.558   7.076   1.675
 4430SOL    HW123289   6.603   7.014   1.740
 4430SOL    HW223290   6.624   7.107   1.606
 4431SOL     OW23291   6.183   3.439   3.863
 4431SOL    HW123292   6.200   3.536   3.841
 4431SOL    HW223293   6.268   3.398   3.897
 4432SOL     OW23294   1.328   0.139   3.241
 4432SOL    HW123295   1.353   0.061   3.298
 4432SOL    HW223296   1.410   0.174   3.195
 4433SOL     OW23297   6.172   2.592   5.331
 4433SOL    HW123298   6.250   2.570   5.390
 4433SOL    HW223299   6.202   2.597   5.235
 4434SOL     OW23300   4.744   6.412   3.118
 4434SOL    HW123301   4.645   6.419   3.130
 4434SOL    HW223302   4.768   6.422   3.022
 4435SOL     OW23303   6.522   5.465   2.828
 4435SOL    HW123304   6.510   5.564   2.820
 4435SOL    HW223305   6.619   5.442   2.830
 4436SOL     OW23306   5.363   0.972   7.883
 4436SOL    HW123307   5.387   1.068   7.863
 4436SOL    HW223308   5.285   0.969   7.944
 4437SOL     OW23309   3.738   6.008   1.501
 4437SOL    HW123310   3.741   5.993   1.600
 4437SOL    HW223311   3.830   6.004   1.463
 4438SOL     OW23312   3.071   7.919   6.321
 4438SOL    HW123313   3.164   7.902   6.354
 4438SOL    HW223314   3.027   7.989   6.377
 4439SOL     OW23315   0.647   6.436   5.246
 4439SOL    HW123316   0.735   6.391   5.264
 4439SOL    HW223317   0.611   6.475   5.330
 4440SOL     OW23318   7.410   0.764   5.030
 4440SOL    HW123319   7.329   0.823   5.035
 4440SOL    HW223320   7.429   0.740   4.935
 4441SOL     OW23321   6.960   2.747   4.973
 4441SOL    HW123322   6.889   2.794   5.024
 4441SOL    HW223323   6.963   2.781   4.879
 4442SOL     OW23324   6.198   1.335   1.585
 4442SOL    HW123325   6.248   1.420   1.563
 4442SOL    HW223326   6.192   1.325   1.684
 4443SOL     OW23327   5.459   7.024   2.086
 4443SOL    HW123328   5.374   7.051   2.040
 4443SOL    HW223329   5.462   7.064   2.177
 4444SOL     OW23330   3.425   2.517   7.375
 4444SOL    HW123331   3.521   2.533   7.399
 4444SOL    HW223332   3.394   2.585   7.309
 4445SOL     OW23333   4.201   0.463   3.567
 4445SOL    HW123334   4.200   0.529   3.643
 4445SOL    HW223335   4.136   0.389   3.586
 4446SOL     OW23336   7.669   4.473   4.336
 4446SOL    HW123337   7.688   4.424   4.251
 4446SOL    HW223338   7.575   4.507   4.336
 4447SOL     OW23339   4.836   2.626   7.509
 4447SOL    HW123340   4.809   2.705   7.563
 4447SOL    HW223341   4.807   2.542   7.554
 4448SOL     OW23342   1.856   3.844   3.731
 4448SOL    HW123343   1.858   3.850   3.831
 4448SOL    HW223344   1.807   3.760   3.703
 4449SOL     OW23345   2.738   1.261   4.152
 4449SOL    HW123346   2.751   1.177   4.206
 4449SOL    HW223347   2.775   1.248   4.060
 4450SOL     OW23348   4.694   5.693   1.848
 4450SOL    HW123349   4.700   5.781   1.800
 4450SOL    HW223350   4.637   5.630   1.795
 4451SOL     OW23351   0.055   0.925   3.151
 4451SOL    HW123352   0.134   0.864   3.163
 4451SOL    HW223353   0.022   0.956   3.239
 4452SOL     OW23354   6.101   1.726   3.360
 4452SOL    HW123355   6.037   1.658   3.324
 4452SOL    HW223356   6.187   1.680   3.386
 4453SOL     OW23357   0.491   1.296   2.199
 4453SOL    HW123358   0.571   1.241   2.221
 4453SOL    HW223359   0.476   1.365   2.270
 4454SOL     OW23360   6.441   1.467   6.401
 4454SOL    HW123361   6.417   1.535   6.332
 4454SOL    HW223362   6.535   1.481   6.431
 4455SOL     OW23363   1.934   4.571   0.320
 4455SOL    HW123364   1.850   4.560   0.267
 4455SOL    HW223365   1.977   4.481   0.335
 4456SOL     OW23366   4.230   0.327   5.123
 4456SOL    HW123367   4.140   0.308   5.162
 4456SOL    HW223368   4.297   0.263   5.160
 4457SOL     OW23369   5.664   2.335   3.949
 4457SOL    HW123370   5.601   2.259   3.934
 4457SOL    HW223371   5.677   2.386   3.865
 4458SOL     OW23372   4.277   4.377   6.619
 4458SOL    HW123373   4.341   4.304   6.595
 4458SOL    HW223374   4.327   4.457   6.652
 4459SOL     OW23375   3.364   0.415   2.447
 4459SOL    HW123376   3.287   0.358   2.420
 4459SOL    HW223377   3.345   0.459   2.534
 4460SOL     OW23378   3.305   6.007   2.390
 4460SOL    HW123379   3.282   6.104   2.396
 4460SOL    HW223380   3.282   5.971   2.300
 4461SOL     OW23381   4.770   0.689   6.189
 4461SOL    HW123382   4.742   0.634   6.110
 4461SOL    HW223383   4.839   0.755   6.161
 4462SOL     OW23384   5.524   7.895   7.679
 4462SOL    HW123385   5.516   7.990   7.710
 4462SOL    HW223386   5.620   7.872   7.663
 4463SOL     OW23387   0.072   0.554   1.329
 4463SOL    HW123388   0.027   0.466   1.341
 4463SOL    HW223389   0.102   0.565   1.235
 4464SOL     OW23390   6.671   4.236   3.814
 4464SOL    HW123391   6.623   4.238   3.727
 4464SOL    HW223392   6.617   4.185   3.882
 4465SOL     OW23393   1.674   1.201   7.985
 4465SOL    HW123394   1.642   1.112   8.018
 4465SOL    HW223395   1.662   1.207   7.886
 4466SOL     OW23396   1.953   4.993   5.647
 4466SOL    HW123397   1.981   4.912   5.697
 4466SOL    HW223398   1.974   4.983   5.550
 4467SOL     OW23399   5.351   2.084   5.314
 4467SOL    HW123400   5.310   2.055   5.227
 4467SOL    HW223401   5.286   2.072   5.389
 4468SOL     OW23402   7.080   1.004   4.373
 4468SOL    HW123403   7.074   0.912   4.334
 4468SOL    HW223404   7.153   1.055   4.328
 4469SOL     OW23405   1.516   3.645   7.669
 4469SOL    HW123406   1.507   3.740   7.699
 4469SOL    HW223407   1.541   3.587   7.746
 4470SOL     OW23408   6.377   4.684   0.846
 4470SOL    HW123409   6.418   4.663   0.757
 4470SOL    HW223410   6.355   4.781   0.853
 4471SOL     OW23411   4.536   0.893   7.494
 4471SOL    HW123412   4.515   0.875   7.398
 4471SOL    HW223413   4.618   0.843   7.521
 4472SOL     OW23414   6.467   5.071   2.862
 4472SOL    HW123415   6.514   4.998   2.814
 4472SOL    HW223416   6.445   5.043   2.956
 4473SOL     OW23417   3.366   6.453   2.296
 4473SOL    HW123418   3.394   6.487   2.386
 4473SOL    HW223419   3.443   6.454   2.233
 4474SOL     OW23420   2.433   7.620   1.204
 4474SOL    HW123421   2.533   7.629   1.212
 4474SOL    HW223422   2.403   7.657   1.116
 4475SOL     OW23423   0.935   5.657   5.552
 4475SOL    HW123424   0.846   5.683   5.592
 4475SOL    HW223425   0.992   5.615   5.621
 4476SOL     OW23426   6.793   1.711   1.955
 4476SOL    HW123427   6.836   1.736   1.868
 4476SOL    HW223428   6.713   1.769   1.970
 4477SOL     OW23429   0.457   5.721   7.622
 4477SOL    HW123430   0.447   5.701   7.525
 4477SOL    HW223431   0.549   5.696   7.653
 4478SOL     OW23432   4.807   2.292   2.569
 4478SOL    HW123433   4.869   2.367   2.594
 4478SOL    HW223434   4.781   2.300   2.473
 4479SOL     OW23435   6.345   6.717   0.389
 4479SOL    HW123436   6.359   6.658   0.469
 4479SOL    HW223437   6.378   6.672   0.307
 4480SOL     OW23438   1.337   2.669   2.820
 4480SOL    HW123439   1.419   2.625   2.785
 4480SOL    HW223440   1.345   2.768   2.812
 4481SOL     OW23441   7.307   7.905   0.901
 4481SOL    HW123442   7.350   7.840   0.837
 4481SOL    HW223443   7.361   7.989   0.904
 4482SOL     OW23444   0.294   3.668   0.586
 4482SOL    HW123445   0.372   3.720   0.623
 4482SOL    HW223446   0.271   3.701   0.495
 4483SOL     OW23447   4.823   4.785   7.399
 4483SOL    HW123448   4.872   4.870   7.417
 4483SOL    HW223449   4.860   4.711   7.456
 4484SOL     OW23450   7.625   1.747   5.558
 4484SOL    HW123451   7.611   1.821   5.491
 4484SOL    HW223452   7.636   1.785   5.649
 4485SOL     OW23453   4.737   2.372   4.545
 4485SOL    HW123454   4.771   2.329   4.462
 4485SOL    HW223455   4.806   2.436   4.581
 4486SOL     OW23456   6.062   3.801   1.874
 4486SOL    HW123457   6.045   3.713   1.918
 4486SOL    HW223458   6.098   3.788   1.782
 4487SOL     OW23459   5.058   3.556   3.387
 4487SOL    HW123460   5.139   3.564   3.330
 4487SOL    HW223461   5.031   3.460   3.394
 4488SOL     OW23462   4.058   2.155   7.610
 4488SOL    HW123463   4.064   2.255   7.614
 4488SOL    HW223464   3.996   2.122   7.681
 4489SOL     OW23465   2.948   3.458   3.323
 4489SOL    HW123466   2.998   3.390   3.377
 4489SOL    HW223467   2.977   3.455   3.228
 4490SOL     OW23468   7.709   5.406   5.362
 4490SOL    HW123469   7.788   5.461   5.389
 4490SOL    HW223470   7.682   5.429   5.268
 4491SOL     OW23471   2.249   1.406   7.007
 4491SOL    HW123472   2.255   1.307   6.991
 4491SOL    HW223473   2.252   1.425   7.105
 4492SOL     OW23474   6.069   4.052   3.967
 4492SOL    HW123475   6.013   4.134   3.977
 4492SOL    HW223476   6.021   3.985   3.910
 4493SOL     OW23477   6.877   2.299   5.120
 4493SOL    HW123478   6.908   2.393   5.131
 4493SOL    HW223479   6.849   2.283   5.025
 4494SOL     OW23480  -0.045   1.825   5.784
 4494SOL    HW123481  -0.001   1.906   5.746
 4494SOL    HW223482   0.025   1.761   5.817
 4495SOL     OW23483   4.037   0.562   3.887
 4495SOL    HW123484   4.137   0.566   3.886
 4495SOL    HW223485   4.004   0.535   3.977
 4496SOL     OW23486   6.391   7.767   1.204
 4496SOL    HW123487   6.326   7.839   1.177
 4496SOL    HW223488   6.348   7.706   1.271
 4497SOL     OW23489   2.145   5.181   6.579
 4497SOL    HW123490   2.120   5.093   6.537
 4497SOL    HW223491   2.083   5.201   6.655
 4498SOL     OW23492   2.176   0.352   4.936
 4498SOL    HW123493   2.118   0.369   5.015
 4498SOL    HW223494   2.130   0.380   4.852
 4499SOL     OW23495   6.621   1.287   4.059
 4499SOL    HW123496   6.706   1.255   4.016
 4499SOL    HW223497   6.615   1.253   4.153
 4500SOL     OW23498   1.683   3.128   7.507
 4500SOL    HW123499   1.782   3.140   7.503
 4500SOL    HW223500   1.660   3.035   7.534
 4501SOL     OW23501   4.282   2.358   6.960
 4501SOL    HW123502   4.195   2.320   6.930
 4501SOL    HW223503   4.275   2.390   7.054
 4502SOL     OW23504   5.964   1.126   0.442
 4502SOL    HW123505   5.880   1.092   0.401
 4502SOL    HW223506   5.943   1.185   0.520
 4503SOL     OW23507   4.345   2.993   0.796
 4503SOL    HW123508   4.294   2.914   0.831
 4503SOL    HW223509   4.381   2.973   0.705
 4504SOL     OW23510   1.713   5.326   1.398
 4504SOL    HW123511   1.773   5.247   1.410
 4504SOL    HW223512   1.618   5.297   1.395
 4505SOL     OW23513   1.384   6.339   6.772
 4505SOL    HW123514   1.380   6.387   6.685
 4505SOL    HW223515   1.309   6.369   6.831
 4506SOL     OW23516   6.980   2.134   1.881
 4506SOL    HW123517   6.881   2.136   1.866
 4506SOL    HW223518   7.008   2.041   1.906
 4507SOL     OW23519   3.083   6.295   1.550
 4507SOL    HW123520   3.113   6.365   1.616
 4507SOL    HW223521   2.986   6.276   1.561
 4508SOL     OW23522   3.553   4.736   7.746
 4508SOL    HW123523   3.486   4.679   7.794
 4508SOL    HW223524   3.562   4.706   7.651
 4509SOL     OW23525   0.641   0.807   6.145
 4509SOL    HW123526   0.690   0.732   6.099
 4509SOL    HW223527   0.610   0.777   6.235
 4510SOL     OW23528   3.459   1.167   3.526
 4510SOL    HW123529   3.386   1.102   3.550
 4510SOL    HW223530   3.438   1.257   3.565
 4511SOL     OW23531   7.903   5.529   4.151
 4511SOL    HW123532   7.945   5.587   4.082
 4511SOL    HW223533   7.955   5.535   4.236
 4512SOL     OW23534   4.585   1.036   5.172
 4512SOL    HW123535   4.511   1.069   5.231
 4512SOL    HW223536   4.564   1.055   5.077
 4513SOL     OW23537   0.218   7.211   2.009
 4513SOL    HW123538   0.149   7.140   2.023
 4513SOL    HW223539   0.181   7.284   1.950
 4514SOL     OW23540   2.265   7.551   0.394
 4514SOL    HW123541   2.337   7.569   0.461
 4514SOL    HW223542   2.291   7.587   0.305
 4515SOL     OW23543   4.533   2.811   5.513
 4515SOL    HW123544   4.588   2.732   5.539
 4515SOL    HW223545   4.444   2.781   5.478
 4516SOL     OW23546   3.946   6.819   3.731
 4516SOL    HW123547   3.966   6.856   3.640
 4516SOL    HW223548   3.989   6.729   3.741
 4517SOL     OW23549   1.614   5.415   6.041
 4517SOL    HW123550   1.666   5.340   6.001
 4517SOL    HW223551   1.586   5.392   6.134
 4518SOL     OW23552   0.453   0.862   3.640
 4518SOL    HW123553   0.508   0.789   3.598
 4518SOL    HW223554   0.442   0.846   3.738
 4519SOL     OW23555   4.670   7.274   5.959
 4519SOL    HW123556   4.723   7.358   5.946
 4519SOL    HW223557   4.688   7.235   6.049
 4520SOL     OW23558   7.876   6.022   4.915
 4520SOL    HW123559   7.911   5.936   4.877
 4520SOL    HW223560   7.902   6.029   5.012
 4521SOL     OW23561   3.555   6.933   3.253
 4521SOL    HW123562   3.465   6.972   3.273
 4521SOL    HW223563   3.544   6.845   3.205
 4522SOL     OW23564   2.871   4.415   0.442
 4522SOL    HW123565   2.838   4.322   0.426
 4522SOL    HW223566   2.970   4.419   0.429
 4523SOL     OW23567   7.058   6.365   4.034
 4523SOL    HW123568   7.137   6.414   4.074
 4523SOL    HW223569   7.040   6.400   3.942
 4524SOL     OW23570   5.917   4.173   6.284
 4524SOL    HW123571   6.009   4.174   6.323
 4524SOL    HW223572   5.887   4.078   6.271
 4525SOL     OW23573   5.997   3.506   5.206
 4525SOL    HW123574   6.032   3.565   5.279
 4525SOL    HW223575   5.913   3.460   5.237
 4526SOL     OW23576   0.530   4.656   6.410
 4526SOL    HW123577   0.452   4.606   6.449
 4526SOL    HW223578   0.583   4.596   6.350
 4527SOL     OW23579   1.611   1.295   1.168
 4527SOL    HW123580   1.671   1.324   1.244
 4527SOL    HW223581   1.662   1.237   1.105
 4528SOL     OW23582   7.614   1.640   2.151
 4528SOL    HW123583   7.539   1.586   2.113
 4528SOL    HW223584   7.602   1.649   2.250
 4529SOL     OW23585   7.188   1.388   2.992
 4529SOL    HW123586   7.103   1.335   2.993
 4529SOL    HW223587   7.220   1.404   3.085
 4530SOL     OW23588   6.743   3.009   6.975
 4530SOL    HW123589   6.654   2.991   7.016
 4530SOL    HW223590   6.742   2.980   6.879
 4531SOL     OW23591   2.095   3.336   4.960
 4531SOL    HW123592   2.024   3.266   4.965
 4531SOL    HW223593   2.185   3.295   4.976
 4532SOL     OW23594   5.464   1.662   0.975
 4532SOL    HW123595   5.424   1.656   0.883
 4532SOL    HW223596   5.402   1.712   1.036
 4533SOL     OW23597   6.861   0.082   2.676
 4533SOL    HW123598   6.910   0.139   2.743
 4533SOL    HW223599   6.778   0.129   2.646
 4534SOL     OW23600   2.062   6.517   2.058
 4534SOL    HW123601   2.042   6.429   2.100
 4534SOL    HW223602   2.158   6.519   2.028
 4535SOL     OW23603   4.263   6.341   2.301
 4535SOL    HW123604   4.347   6.328   2.248
 4535SOL    HW223605   4.189   6.287   2.261
 4536SOL     OW23606   6.156   4.333   3.851
 4536SOL    HW123607   6.201   4.386   3.923
 4536SOL    HW223608   6.187   4.238   3.854
 4537SOL     OW23609   3.571   2.185   1.691
 4537SOL    HW123610   3.641   2.238   1.740
 4537SOL    HW223611   3.498   2.159   1.755
 4538SOL     OW23612   7.711   3.643   6.571
 4538SOL    HW123613   7.646   3.709   6.534
 4538SOL    HW223614   7.739   3.671   6.663
 4539SOL     OW23615   3.583   4.165   3.965
 4539SOL    HW123616   3.590   4.254   4.012
 4539SOL    HW223617   3.596   4.178   3.867
 4540SOL     OW23618   7.490   0.744   4.104
 4540SOL    HW123619   7.500   0.733   4.203
 4540SOL    HW223620   7.555   0.812   4.071
 4541SOL     OW23621   7.346   7.937   5.169
 4541SOL    HW123622   7.408   7.900   5.239
 4541SOL    HW223623   7.397   7.969   5.090
 4542SOL     OW23624   4.646   2.065   2.234
 4542SOL    HW123625   4.599   2.095   2.151
 4542SOL    HW223626   4.632   1.968   2.248
 4543SOL     OW23627   0.605   3.046   3.940
 4543SOL    HW123628   0.702   3.029   3.922
 4543SOL    HW223629   0.594   3.106   4.019
 4544SOL     OW23630   3.887   2.143   6.922
 4544SOL    HW123631   3.798   2.099   6.915
 4544SOL    HW223632   3.899   2.209   6.848
 4545SOL     OW23633   5.335   5.523   6.589
 4545SOL    HW123634   5.324   5.566   6.679
 4545SOL    HW223635   5.277   5.569   6.521
 4546SOL     OW23636   4.202   1.297   3.244
 4546SOL    HW123637   4.162   1.217   3.198
 4546SOL    HW223638   4.198   1.285   3.343
 4547SOL     OW23639   7.625   7.692   5.750
 4547SOL    HW123640   7.543   7.655   5.706
 4547SOL    HW223641   7.632   7.790   5.732
 4548SOL     OW23642   3.795   4.341   3.499
 4548SOL    HW123643   3.840   4.430   3.498
 4548SOL    HW223644   3.725   4.337   3.427
 4549SOL     OW23645   3.901   3.003   3.150
 4549SOL    HW123646   3.967   3.075   3.130
 4549SOL    HW223647   3.808   3.035   3.129
 4550SOL     OW23648   4.427   7.059   3.436
 4550SOL    HW123649   4.340   7.013   3.455
 4550SOL    HW223650   4.503   7.001   3.464
 4551SOL     OW23651   3.650   3.704   2.077
 4551SOL    HW123652   3.716   3.779   2.063
 4551SOL    HW223653   3.567   3.721   2.026
 4552SOL     OW23654   3.058   1.887   4.053
 4552SOL    HW123655   3.096   1.930   4.135
 4552SOL    HW223656   3.130   1.875   3.985
 4553SOL     OW23657   3.631   3.640   4.840
 4553SOL    HW123658   3.720   3.670   4.875
 4553SOL    HW223659   3.613   3.681   4.751
 4554SOL     OW23660   0.173   7.908   7.421
 4554SOL    HW123661   0.111   7.919   7.498
 4554SOL    HW223662   0.170   7.989   7.363
 4555SOL     OW23663   4.765   7.656   3.322
 4555SOL    HW123664   4.827   7.727   3.291
 4555SOL    HW223665   4.785   7.631   3.416
 4556SOL     OW23666   1.590   1.354   0.801
 4556SOL    HW123667   1.616   1.261   0.826
 4556SOL    HW223668   1.649   1.420   0.847
 4557SOL     OW23669   5.685   5.400   0.050
 4557SOL    HW123670   5.664   5.302   0.054
 4557SOL    HW223671   5.605   5.450   0.018
 4558SOL     OW23672   2.600   3.494   4.388
 4558SOL    HW123673   2.672   3.435   4.426
 4558SOL    HW223674   2.554   3.544   4.462
 4559SOL     OW23675   4.613   3.580   0.522
 4559SOL    HW123676   4.670   3.603   0.443
 4559SOL    HW223677   4.596   3.662   0.577
 4560SOL     OW23678   5.484   5.249   2.894
 4560SOL    HW123679   5.409   5.306   2.859
 4560SOL    HW223680   5.546   5.226   2.819
 4561SOL     OW23681   2.487   3.681   4.060
 4561SOL    HW123682   2.428   3.670   3.980
 4561SOL    HW223683   2.481   3.775   4.093
 4562SOL     OW23684   6.014   6.933   6.085
 4562SOL    HW123685   5.942   6.998   6.110
 4562SOL    HW223686   6.066   6.969   6.007
 4563SOL     OW23687   2.184   5.685   3.475
 4563SOL    HW123688   2.229   5.759   3.525
 4563SOL    HW223689   2.220   5.682   3.381
 4564SOL     OW23690   2.065   0.317   7.971
 4564SOL    HW123691   2.058   0.230   8.020
 4564SOL    HW223692   2.012   0.387   8.018
 4565SOL     OW23693   2.487   6.980   3.903
 4565SOL    HW123694   2.470   6.970   4.001
 4565SOL    HW223695   2.421   7.043   3.863
 4566SOL     OW23696   6.678   2.374   3.042
 4566SOL    HW123697   6.753   2.438   3.023
 4566SOL    HW223698   6.625   2.358   2.959
 4567SOL     OW23699   0.591   5.408   4.861
 4567SOL    HW123700   0.539   5.489   4.890
 4567SOL    HW223701   0.552   5.326   4.903
 4568SOL     OW23702   1.317   6.320   0.128
 4568SOL    HW123703   1.239   6.378   0.153
 4568SOL    HW223704   1.288   6.251   0.061
 4569SOL     OW23705   0.605   5.967   7.058
 4569SOL    HW123706   0.522   5.935   7.013
 4569SOL    HW223707   0.685   5.947   7.002
 4570SOL     OW23708   5.611   3.501   2.794
 4570SOL    HW123709   5.689   3.441   2.815
 4570SOL    HW223710   5.634   3.561   2.718
 4571SOL     OW23711   0.418   6.729   0.614
 4571SOL    HW123712   0.476   6.802   0.650
 4571SOL    HW223713   0.462   6.687   0.535
 4572SOL     OW23714   6.544   7.894   3.142
 4572SOL    HW123715   6.613   7.835   3.099
 4572SOL    HW223716   6.570   7.990   3.132
 4573SOL     OW23717   3.898   7.026   5.535
 4573SOL    HW123718   3.901   7.098   5.465
 4573SOL    HW223719   3.988   6.984   5.543
 4574SOL     OW23720   2.406   7.513   6.602
 4574SOL    HW123721   2.415   7.542   6.507
 4574SOL    HW223722   2.493   7.475   6.634
 4575SOL     OW23723   0.229   2.152   0.735
 4575SOL    HW123724   0.188   2.063   0.751
 4575SOL    HW223725   0.309   2.143   0.676
 4576SOL     OW23726   3.201   3.598   2.589
 4576SOL    HW123727   3.275   3.652   2.549
 4576SOL    HW223728   3.218   3.586   2.687
 4577SOL     OW23729   3.365   6.174   7.401
 4577SOL    HW123730   3.271   6.139   7.392
 4577SOL    HW223731   3.416   6.157   7.317
 4578SOL     OW23732   1.395   2.868   7.980
 4578SOL    HW123733   1.417   2.771   7.979
 4578SOL    HW223734   1.465   2.919   7.930
 4579SOL     OW23735   0.467   0.094   3.837
 4579SOL    HW123736   0.480  -0.004   3.851
 4579SOL    HW223737   0.371   0.113   3.817
 4580SOL     OW23738   7.292   1.385   2.169
 4580SOL    HW123739   7.356   1.363   2.243
 4580SOL    HW223740   7.333   1.366   2.081
 4581SOL     OW23741   7.197   6.463   6.245
 4581SOL    HW123742   7.271   6.404   6.213
 4581SOL    HW223743   7.170   6.437   6.338
 4582SOL     OW23744   7.610   5.601   4.747
 4582SOL    HW123745   7.608   5.699   4.767
 4582SOL    HW223746   7.596   5.586   4.650
 4583SOL     OW23747   3.933   3.397   7.267
 4583SOL    HW123748   3.840   3.382   7.236
 4583SOL    HW223749   3.976   3.471   7.213
 4584SOL     OW23750   7.520   3.640   0.312
 4584SOL    HW123751   7.544   3.723   0.362
 4584SOL    HW223752   7.526   3.657   0.214
 4585SOL     OW23753   1.440   2.615   0.306
 4585SOL    HW123754   1.349   2.631   0.266
 4585SOL    HW223755   1.496   2.697   0.296
 4586SOL     OW23756   0.155   2.522   0.556
 4586SOL    HW123757   0.134   2.553   0.463
 4586SOL    HW223758   0.210   2.439   0.552
 4587SOL     OW23759   4.253   7.233   1.247
 4587SOL    HW123760   4.207   7.314   1.212
 4587SOL    HW223761   4.282   7.248   1.342
 4588SOL     OW23762   6.486   7.467   0.771
 4588SOL    HW123763   6.390   7.483   0.750
 4588SOL    HW223764   6.544   7.499   0.696
 4589SOL     OW23765   0.864   4.063   5.990
 4589SOL    HW123766   0.960   4.058   6.018
 4589SOL    HW223767   0.809   4.101   6.065
 4590SOL     OW23768   7.148   5.491   6.012
 4590SOL    HW123769   7.142   5.421   5.940
 4590SOL    HW223770   7.139   5.582   5.971
 4591SOL     OW23771   1.302   6.129   3.287
 4591SOL    HW123772   1.274   6.203   3.349
 4591SOL    HW223773   1.315   6.044   3.338
 4592SOL     OW23774   3.947   3.884   7.584
 4592SOL    HW123775   3.884   3.940   7.530
 4592SOL    HW223776   4.018   3.846   7.524
 4593SOL     OW23777   0.929   4.166   7.938
 4593SOL    HW123778   0.964   4.225   8.011
 4593SOL    HW223779   0.895   4.222   7.862
 4594SOL     OW23780   0.524   3.347   3.516
 4594SOL    HW123781   0.606   3.314   3.469
 4594SOL    HW223782   0.533   3.333   3.614
 4595SOL     OW23783   6.684   5.436   3.526
 4595SOL    HW123784   6.776   5.396   3.519
 4595SOL    HW223785   6.691   5.536   3.525
 4596SOL     OW23786   1.180   3.685   6.063
 4596SOL    HW123787   1.272   3.704   6.029
 4596SOL    HW223788   1.167   3.729   6.152
 4597SOL     OW23789   2.334   7.825   1.563
 4597SOL    HW123790   2.282   7.749   1.602
 4597SOL    HW223791   2.412   7.846   1.622
 4598SOL     OW23792   2.310   7.699   3.942
 4598SOL    HW123793   2.369   7.778   3.958
 4598SOL    HW223794   2.259   7.711   3.857
 4599SOL     OW23795   4.374   2.336   5.534
 4599SOL    HW123796   4.318   2.306   5.457
 4599SOL    HW223797   4.346   2.428   5.562
 4600SOL     OW23798   2.534   0.187   4.817
 4600SOL    HW123799   2.622   0.150   4.847
 4600SOL    HW223800   2.545   0.280   4.782
 4601SOL     OW23801   6.991   4.380   4.489
 4601SOL    HW123802   6.921   4.436   4.444
 4601SOL    HW223803   6.966   4.284   4.483
 4602SOL     OW23804   6.592   5.047   3.775
 4602SOL    HW123805   6.603   5.053   3.875
 4602SOL    HW223806   6.644   4.969   3.741
 4603SOL     OW23807   7.463   4.046   4.671
 4603SOL    HW123808   7.450   3.947   4.663
 4603SOL    HW223809   7.399   4.094   4.611
 4604SOL     OW23810   5.180   2.794   7.901
 4604SOL    HW123811   5.189   2.795   7.802
 4604SOL    HW223812   5.111   2.727   7.929
 4605SOL     OW23813   0.199   7.550   1.381
 4605SOL    HW123814   0.257   7.541   1.300
 4605SOL    HW223815   0.233   7.491   1.454
 4606SOL     OW23816   5.197   2.094   2.437
 4606SOL    HW123817   5.283   2.137   2.465
 4606SOL    HW223818   5.160   2.141   2.356
 4607SOL     OW23819   6.111  -0.009   4.028
 4607SOL    HW123820   6.184  -0.011   3.959
 4607SOL    HW223821   6.078   0.084   4.040
 4608SOL     OW23822   4.319   7.912   5.101
 4608SOL    HW123823   4.288   7.914   5.197
 4608SOL    HW223824   4.303   7.821   5.062
 4609SOL     OW23825   3.836  -0.011   7.923
 4609SOL    HW123826   3.758   0.038   7.882
 4609SOL    HW223827   3.859   0.030   8.012
 4610SOL     OW23828   2.645   3.505   3.723
 4610SOL    HW123829   2.645   3.407   3.742
 4610SOL    HW223830   2.707   3.524   3.646
 4611SOL     OW23831   6.403   1.404   2.443
 4611SOL    HW123832   6.466   1.401   2.366
 4611SOL    HW223833   6.341   1.326   2.441
 4612SOL     OW23834   5.351   5.541   2.499
 4612SOL    HW123835   5.372   5.629   2.457
 4612SOL    HW223836   5.339   5.471   2.429
 4613SOL     OW23837   5.032   4.987   6.333
 4613SOL    HW123838   5.050   4.891   6.354
 4613SOL    HW223839   5.114   5.042   6.352
 4614SOL     OW23840   4.812   7.541   1.456
 4614SOL    HW123841   4.894   7.496   1.491
 4614SOL    HW223842   4.736   7.476   1.455
 4615SOL     OW23843   6.842   7.621   5.552
 4615SOL    HW123844   6.755   7.662   5.577
 4615SOL    HW223845   6.893   7.595   5.634
 4616SOL     OW23846   4.242   4.837   1.695
 4616SOL    HW123847   4.219   4.751   1.739
 4616SOL    HW223848   4.162   4.897   1.693
 4617SOL     OW23849   1.512   1.452   3.491
 4617SOL    HW123850   1.469   1.378   3.543
 4617SOL    HW223851   1.607   1.462   3.518
 4618SOL     OW23852   5.246   0.112   1.510
 4618SOL    HW123853   5.245   0.210   1.488
 4618SOL    HW223854   5.279   0.060   1.432
 4619SOL     OW23855   5.850   4.275   7.922
 4619SOL    HW123856   5.759   4.317   7.912
 4619SOL    HW223857   5.876   4.273   8.019
 4620SOL     OW23858   2.755   1.866   2.513
 4620SOL    HW123859   2.676   1.888   2.571
 4620SOL    HW223860   2.726   1.817   2.432
 4621SOL     OW23861   6.344   3.526   2.280
 4621SOL    HW123862   6.398   3.609   2.296
 4621SOL    HW223863   6.313   3.488   2.367
 4622SOL     OW23864   7.480   1.583   7.933
 4622SOL    HW123865   7.448   1.540   8.018
 4622SOL    HW223866   7.439   1.673   7.923
 4623SOL     OW23867   2.643   4.735   3.565
 4623SOL    HW123868   2.701   4.814   3.544
 4623SOL    HW223869   2.555   4.765   3.602
 4624SOL     OW23870   1.186   1.859   0.790
 4624SOL    HW123871   1.202   1.933   0.724
 4624SOL    HW223872   1.272   1.835   0.835
 4625SOL     OW23873   5.219   6.518   6.678
 4625SOL    HW123874   5.217   6.426   6.717
 4625SOL    HW223875   5.260   6.516   6.587
 4626SOL     OW23876   0.289   0.662   6.342
 4626SOL    HW123877   0.311   0.758   6.355
 4626SOL    HW223878   0.323   0.631   6.253
 4627SOL     OW23879   5.311   6.192   5.227
 4627SOL    HW123880   5.370   6.272   5.237
 4627SOL    HW223881   5.263   6.196   5.139
 4628SOL     OW23882   3.367   5.021   3.015
 4628SOL    HW123883   3.360   4.924   3.039
 4628SOL    HW223884   3.414   5.071   3.088
 4629SOL     OW23885   6.215   2.078   6.871
 4629SOL    HW123886   6.246   2.173   6.879
 4629SOL    HW223887   6.118   2.075   6.846
 4630SOL     OW23888   5.711   6.084   4.427
 4630SOL    HW123889   5.666   6.006   4.472
 4630SOL    HW223890   5.782   6.122   4.487
 4631SOL     OW23891   6.573   3.276   6.163
 4631SOL    HW123892   6.590   3.259   6.066
 4631SOL    HW223893   6.627   3.354   6.194
 4632SOL     OW23894   5.865   0.633   0.359
 4632SOL    HW123895   5.817   0.704   0.307
 4632SOL    HW223896   5.802   0.560   0.384
 4633SOL     OW23897   5.515   4.678   6.576
 4633SOL    HW123898   5.581   4.622   6.525
 4633SOL    HW223899   5.555   4.710   6.661
 4634SOL     OW23900   0.151   1.753   0.586
 4634SOL    HW123901   0.233   1.715   0.545
 4634SOL    HW223902   0.138   1.718   0.679
 4635SOL     OW23903   3.139   6.603   3.050
 4635SOL    HW123904   3.053   6.615   3.101
 4635SOL    HW223905   3.215   6.639   3.103
 4636SOL     OW23906   6.228   3.527   0.909
 4636SOL    HW123907   6.156   3.477   0.861
 4636SOL    HW223908   6.317   3.507   0.868
 4637SOL     OW23909   6.172   0.912   2.281
 4637SOL    HW123910   6.190   0.980   2.352
 4637SOL    HW223911   6.163   0.957   2.192
 4638SOL     OW23912   1.336   2.707   5.188
 4638SOL    HW123913   1.329   2.617   5.147
 4638SOL    HW223914   1.301   2.706   5.282
 4639SOL     OW23915   7.278   6.148   1.097
 4639SOL    HW123916   7.376   6.138   1.081
 4639SOL    HW223917   7.259   6.150   1.195
 4640SOL     OW23918   3.023   4.051   5.926
 4640SOL    HW123919   3.016   3.953   5.908
 4640SOL    HW223920   2.990   4.103   5.848
 4641SOL     OW23921   1.477   5.500   2.898
 4641SOL    HW123922   1.402   5.553   2.859
 4641SOL    HW223923   1.505   5.539   2.986
 4642SOL     OW23924   6.520   3.874   4.823
 4642SOL    HW123925   6.452   3.904   4.756
 4642SOL    HW223926   6.577   3.951   4.851
 4643SOL     OW23927   4.434   4.671   2.938
 4643SOL    HW123928   4.496   4.696   3.014
 4643SOL    HW223929   4.440   4.573   2.920
 4644SOL     OW23930   6.832   4.129   7.598
 4644SOL    HW123931   6.913   4.179   7.570
 4644SOL    HW223932   6.759   4.141   7.531
 4645SOL     OW23933   6.006   0.158   7.877
 4645SOL    HW123934   5.999   0.093   7.953
 4645SOL    HW223935   6.016   0.108   7.791
 4646SOL     OW23936   0.003   7.688   7.591
 4646SOL    HW123937   0.095   7.671   7.555
 4646SOL    HW223938  -0.020   7.618   7.659
 4647SOL     OW23939   0.998   0.831   1.974
 4647SOL    HW123940   1.073   0.802   1.914
 4647SOL    HW223941   0.913   0.839   1.921
 4648SOL     OW23942   0.919   6.301   5.056
 4648SOL    HW123943   1.006   6.285   5.102
 4648SOL    HW223944   0.934   6.316   4.958
 4649SOL     OW23945   3.899   0.334   4.611
 4649SOL    HW123946   3.948   0.328   4.698
 4649SOL    HW223947   3.932   0.413   4.559
 4650SOL     OW23948   4.925   2.074   6.562
 4650SOL    HW123949   4.879   1.992   6.596
 4650SOL    HW223950   4.863   2.152   6.568
 4651SOL     OW23951   2.148   6.981   7.414
 4651SOL    HW123952   2.185   7.018   7.329
 4651SOL    HW223953   2.166   7.044   7.490
 4652SOL     OW23954   1.499   7.854   4.882
 4652SOL    HW123955   1.575   7.918   4.879
 4652SOL    HW223956   1.479   7.820   4.790
 4653SOL     OW23957   5.626   2.159   3.337
 4653SOL    HW123958   5.726   2.165   3.328
 4653SOL    HW223959   5.600   2.163   3.434
 4654SOL     OW23960   7.109   3.235   6.545
 4654SOL    HW123961   7.105   3.179   6.462
 4654SOL    HW223962   7.029   3.218   6.602
 4655SOL     OW23963   7.727   0.490   4.770
 4655SOL    HW123964   7.779   0.404   4.781
 4655SOL    HW223965   7.660   0.498   4.844
 4656SOL     OW23966   2.864   2.462   2.123
 4656SOL    HW123967   2.771   2.479   2.090
 4656SOL    HW223968   2.877   2.507   2.211
 4657SOL     OW23969   5.114   1.219   3.159
 4657SOL    HW123970   5.028   1.196   3.206
 4657SOL    HW223971   5.191   1.194   3.217
 4658SOL     OW23972   6.839   2.815   6.287
 4658SOL    HW123973   6.802   2.873   6.360
 4658SOL    HW223974   6.923   2.854   6.252
 4659SOL     OW23975   5.613   3.886   2.220
 4659SOL    HW123976   5.675   3.863   2.145
 4659SOL    HW223977   5.581   3.980   2.211
 4660SOL     OW23978   4.427   1.969   2.023
 4660SOL    HW123979   4.350   2.033   2.023
 4660SOL    HW223980   4.429   1.917   1.938
 4661SOL     OW23981   5.581   0.058   5.582
 4661SOL    HW123982   5.674   0.090   5.601
 4661SOL    HW223983   5.546   0.005   5.660
 4662SOL     OW23984   3.573   0.293   2.226
 4662SOL    HW123985   3.499   0.234   2.190
 4662SOL    HW223986   3.550   0.324   2.318
 4663SOL     OW23987   7.899   0.418   5.670
 4663SOL    HW123988   7.803   0.424   5.700
 4663SOL    HW223989   7.905   0.362   5.588
 4664SOL     OW23990   2.451   6.254   3.476
 4664SOL    HW123991   2.403   6.209   3.400
 4664SOL    HW223992   2.415   6.346   3.489
 4665SOL     OW23993   3.162   7.841   2.726
 4665SOL    HW123994   3.067   7.852   2.753
 4665SOL    HW223995   3.208   7.777   2.788
 4666SOL     OW23996   4.164   1.535   6.723
 4666SOL    HW123997   4.210   1.624   6.719
 4666SOL    HW223998   4.100   1.534   6.800
 4667SOL     OW23999   0.648   7.740   2.419
 4667SOL    HW124000   0.554   7.721   2.446
 4667SOL    HW224001   0.660   7.723   2.321
 4668SOL     OW24002   3.254   2.161   7.549
 4668SOL    HW124003   3.233   2.068   7.579
 4668SOL    HW224004   3.353   2.173   7.540
 4669SOL     OW24005   2.993   3.402   2.509
 4669SOL    HW124006   3.001   3.439   2.602
 4669SOL    HW224007   2.951   3.311   2.512
 4670SOL     OW24008   1.025   0.531   0.993
 4670SOL    HW124009   1.020   0.439   0.953
 4670SOL    HW224010   0.990   0.529   1.087
 4671SOL     OW24011   0.987   7.847   1.883
 4671SOL    HW124012   1.079   7.809   1.887
 4671SOL    HW224013   0.960   7.882   1.973
 4672SOL     OW24014   6.092   5.603   6.593
 4672SOL    HW124015   6.064   5.512   6.563
 4672SOL    HW224016   6.041   5.630   6.674
 4673SOL     OW24017   7.621   1.088   1.579
 4673SOL    HW124018   7.717   1.068   1.595
 4673SOL    HW224019   7.585   1.146   1.652
 4674SOL     OW24020   6.800   1.696   5.312
 4674SOL    HW124021   6.879   1.734   5.263
 4674SOL    HW224022   6.724   1.683   5.248
 4675SOL     OW24023   4.483   2.445   5.783
 4675SOL    HW124024   4.397   2.496   5.785
 4675SOL    HW224025   4.472   2.361   5.730
 4676SOL     OW24026   0.556   1.399   2.644
 4676SOL    HW124027   0.601   1.318   2.607
 4676SOL    HW224028   0.524   1.381   2.737
 4677SOL     OW24029   0.902   7.137   7.967
 4677SOL    HW124030   0.833   7.132   7.895
 4677SOL    HW224031   0.992   7.113   7.931
 4678SOL     OW24032   7.466   4.877   0.505
 4678SOL    HW124033   7.556   4.835   0.521
 4678SOL    HW224034   7.458   4.902   0.409
 4679SOL     OW24035   2.077   0.339   2.919
 4679SOL    HW124036   2.148   0.293   2.865
 4679SOL    HW224037   2.117   0.412   2.973
 4680SOL     OW24038   4.427   6.789   3.976
 4680SOL    HW124039   4.328   6.782   3.983
 4680SOL    HW224040   4.460   6.862   4.036
 4681SOL     OW24041   5.873   2.533   5.060
 4681SOL    HW124042   5.963   2.490   5.054
 4681SOL    HW224043   5.848   2.575   4.973
 4682SOL     OW24044   3.207   5.336   1.294
 4682SOL    HW124045   3.261   5.326   1.210
 4682SOL    HW224046   3.268   5.337   1.373
 4683SOL     OW24047   6.185   2.963   4.255
 4683SOL    HW124048   6.087   2.941   4.256
 4683SOL    HW224049   6.226   2.932   4.170
 4684SOL     OW24050   2.340   4.996   4.068
 4684SOL    HW124051   2.361   4.935   4.144
 4684SOL    HW224052   2.275   5.066   4.098
 4685SOL     OW24053   6.366   6.907   7.660
 4685SOL    HW124054   6.365   6.813   7.625
 4685SOL    HW224055   6.445   6.956   7.624
 4686SOL     OW24056   1.227   5.058   2.395
 4686SOL    HW124057   1.194   5.008   2.315
 4686SOL    HW224058   1.294   5.004   2.445
 4687SOL     OW24059   4.849   2.240   3.817
 4687SOL    HW124060   4.859   2.181   3.897
 4687SOL    HW224061   4.936   2.285   3.796
 4688SOL     OW24062   6.613   5.684   4.060
 4688SOL    HW124063   6.516   5.666   4.079
 4688SOL    HW224064   6.667   5.602   4.077
 4689SOL     OW24065   0.866   6.517   1.536
 4689SOL    HW124066   0.875   6.508   1.635
 4689SOL    HW224067   0.907   6.438   1.490
 4690SOL     OW24068   7.178   7.197   5.006
 4690SOL    HW124069   7.196   7.100   5.015
 4690SOL    HW224070   7.221   7.233   4.923
 4691SOL     OW24071   4.967   7.636   4.580
 4691SOL    HW124072   4.996   7.723   4.619
 4691SOL    HW224073   4.938   7.650   4.485
 4692SOL     OW24074   3.241   6.843   6.478
 4692SOL    HW124075   3.142   6.827   6.476
 4692SOL    HW224076   3.271   6.862   6.571
 4693SOL     OW24077   6.579   4.087   0.645
 4693SOL    HW124078   6.522   4.062   0.723
 4693SOL    HW224079   6.660   4.030   0.642
 4694SOL     OW24080   1.014   6.729   7.354
 4694SOL    HW124081   1.098   6.730   7.408
 4694SOL    HW224082   0.937   6.761   7.410
 4695SOL     OW24083   7.950   5.156   5.466
 4695SOL    HW124084   7.931   5.068   5.423
 4695SOL    HW224085   7.955   5.145   5.565
 4696SOL     OW24086   5.549   1.234   3.399
 4696SOL    HW124087   5.466   1.270   3.353
 4696SOL    HW224088   5.539   1.136   3.415
 4697SOL     OW24089   1.501   2.447   3.501
 4697SOL    HW124090   1.577   2.419   3.559
 4697SOL    HW224091   1.504   2.546   3.485
 4698SOL     OW24092   2.799   7.635   3.422
 4698SOL    HW124093   2.745   7.704   3.471
 4698SOL    HW224094   2.740   7.578   3.366
 4699SOL     OW24095   4.814   4.386   6.524
 4699SOL    HW124096   4.821   4.485   6.512
 4699SOL    HW224097   4.874   4.357   6.599
 4700SOL     OW24098   6.689   1.476   7.982
 4700SOL    HW124099   6.754   1.543   8.018
 4700SOL    HW224100   6.660   1.503   7.890
 4701SOL     OW24101   5.190   3.721   1.126
 4701SOL    HW124102   5.178   3.628   1.089
 4701SOL    HW224103   5.132   3.785   1.076
 4702SOL     OW24104   4.163   7.244   3.032
 4702SOL    HW124105   4.258   7.273   3.041
 4702SOL    HW224106   4.152   7.152   3.069
 4703SOL     OW24107   3.322   7.452   6.061
 4703SOL    HW124108   3.255   7.385   6.092
 4703SOL    HW224109   3.343   7.437   5.964
 4704SOL     OW24110   0.589   2.306   0.845
 4704SOL    HW124111   0.595   2.355   0.759
 4704SOL    HW224112   0.606   2.368   0.922
 4705SOL     OW24113   3.709   7.880   7.230
 4705SOL    HW124114   3.658   7.964   7.208
 4705SOL    HW224115   3.799   7.904   7.265
 4706SOL     OW24116   1.834   5.435   4.909
 4706SOL    HW124117   1.919   5.435   4.962
 4706SOL    HW224118   1.756   5.438   4.970
 4707SOL     OW24119   5.375   5.727   5.514
 4707SOL    HW124120   5.389   5.826   5.507
 4707SOL    HW224121   5.462   5.680   5.499
 4708SOL     OW24122   2.235   0.289   0.050
 4708SOL    HW124123   2.333   0.284   0.071
 4708SOL    HW224124   2.194   0.199   0.062
 4709SOL     OW24125  -0.018   3.923   7.492
 4709SOL    HW124126  -0.045   3.992   7.558
 4709SOL    HW224127   0.071   3.884   7.517
 4710SOL     OW24128   1.828   4.664   1.179
 4710SOL    HW124129   1.911   4.705   1.216
 4710SOL    HW224130   1.842   4.639   1.083
 4711SOL     OW24131   0.451   5.091   2.806
 4711SOL    HW124132   0.355   5.088   2.832
 4711SOL    HW224133   0.463   5.050   2.715
 4712SOL     OW24134   2.914   1.471   5.454
 4712SOL    HW124135   3.001   1.519   5.437
 4712SOL    HW224136   2.912   1.437   5.548
 4713SOL     OW24137   2.081   4.594   2.888
 4713SOL    HW124138   2.158   4.632   2.939
 4713SOL    HW224139   2.004   4.577   2.949
 4714SOL     OW24140   0.950   5.099   0.487
 4714SOL    HW124141   0.890   5.178   0.503
 4714SOL    HW224142   0.947   5.037   0.565
 4715SOL     OW24143   0.152   5.294   4.052
 4715SOL    HW124144   0.214   5.252   4.118
 4715SOL    HW224145   0.078   5.341   4.099
 4716SOL     OW24146   7.153   5.198   2.810
 4716SOL    HW124147   7.122   5.109   2.844
 4716SOL    HW224148   7.163   5.195   2.710
 4717SOL     OW24149   0.374   7.004   3.796
 4717SOL    HW124150   0.301   6.961   3.849
 4717SOL    HW224151   0.361   6.985   3.699
 4718SOL     OW24152   5.604   5.069   6.290
 4718SOL    HW124153   5.668   5.072   6.367
 4718SOL    HW224154   5.549   4.985   6.295
 4719SOL     OW24155   6.056   5.034   4.930
 4719SOL    HW124156   6.031   5.005   4.838
 4719SOL    HW224157   6.153   5.055   4.935
 4720SOL     OW24158   1.400   1.449   3.238
 4720SOL    HW124159   1.381   1.371   3.178
 4720SOL    HW224160   1.368   1.533   3.195
 4721SOL     OW24161   4.891   0.211   2.691
 4721SOL    HW124162   4.939   0.293   2.723
 4721SOL    HW224163   4.896   0.204   2.592
 4722SOL     OW24164   4.524   1.086   4.652
 4722SOL    HW124165   4.621   1.101   4.670
 4722SOL    HW224166   4.500   1.121   4.561
 4723SOL     OW24167   7.896   3.582   6.130
 4723SOL    HW124168   7.802   3.578   6.165
 4723SOL    HW224169   7.897   3.629   6.042
 4724SOL     OW24170   1.833   5.713   2.199
 4724SOL    HW124171   1.829   5.659   2.115
 4724SOL    HW224172   1.769   5.676   2.266
 4725SOL     OW24173   4.544   3.222   6.892
 4725SOL    HW124174   4.492   3.307   6.904
 4725SOL    HW224175   4.535   3.165   6.974
 4726SOL     OW24176   3.766   3.622   0.154
 4726SOL    HW124177   3.795   3.712   0.121
 4726SOL    HW224178   3.767   3.620   0.254
 4727SOL     OW24179   4.411   3.982   1.656
 4727SOL    HW124180   4.446   4.050   1.591
 4727SOL    HW224181   4.452   3.893   1.639
 4728SOL     OW24182   7.766   2.515   1.620
 4728SOL    HW124183   7.716   2.495   1.705
 4728SOL    HW224184   7.861   2.485   1.628
 4729SOL     OW24185   4.091   1.182   1.091
 4729SOL    HW124186   3.991   1.183   1.093
 4729SOL    HW224187   4.127   1.275   1.095
 4730SOL     OW24188   0.000   6.044   6.583
 4730SOL    HW124189  -0.045   6.103   6.651
 4730SOL    HW224190  -0.044   6.056   6.494
 4731SOL     OW24191   0.221   6.153   2.530
 4731SOL    HW124192   0.305   6.187   2.574
 4731SOL    HW224193   0.214   6.191   2.438
 4732SOL     OW24194   4.456   4.918   5.489
 4732SOL    HW124195   4.451   4.819   5.475
 4732SOL    HW224196   4.416   4.941   5.578
 4733SOL     OW24197   1.929   3.186   4.655
 4733SOL    HW124198   1.970   3.260   4.709
 4733SOL    HW224199   1.932   3.208   4.558
 4734SOL     OW24200   2.795   3.759   0.817
 4734SOL    HW124201   2.703   3.784   0.846
 4734SOL    HW224202   2.793   3.723   0.724
 4735SOL     OW24203   7.838   4.823   7.059
 4735SOL    HW124204   7.826   4.762   6.981
 4735SOL    HW224205   7.749   4.847   7.098
 4736SOL     OW24206   2.085   6.455   4.042
 4736SOL    HW124207   1.990   6.448   4.012
 4736SOL    HW224208   2.090   6.503   4.129
 4737SOL     OW24209   7.650   5.994   7.812
 4737SOL    HW124210   7.565   5.958   7.774
 4737SOL    HW224211   7.634   6.030   7.904
 4738SOL     OW24212   1.733   1.993   1.310
 4738SOL    HW124213   1.690   1.903   1.296
 4738SOL    HW224214   1.686   2.043   1.382
 4739SOL     OW24215   5.698   0.477   7.505
 4739SOL    HW124216   5.619   0.486   7.444
 4739SOL    HW224217   5.682   0.403   7.570
 4740SOL     OW24218   3.016   2.351   6.278
 4740SOL    HW124219   3.086   2.373   6.346
 4740SOL    HW224220   3.014   2.421   6.207
 4741SOL     OW24221   4.501   2.443   6.342
 4741SOL    HW124222   4.597   2.419   6.357
 4741SOL    HW224223   4.476   2.427   6.246
 4742SOL     OW24224   3.881   0.580   6.570
 4742SOL    HW124225   3.781   0.576   6.573
 4742SOL    HW224226   3.915   0.522   6.496
 4743SOL     OW24227   0.176   6.156   0.879
 4743SOL    HW124228   0.245   6.112   0.936
 4743SOL    HW224229   0.094   6.099   0.874
 4744SOL     OW24230   5.282   0.417   5.518
 4744SOL    HW124231   5.210   0.421   5.587
 4744SOL    HW224232   5.242   0.420   5.427
 4745SOL     OW24233   3.131   5.472   2.424
 4745SOL    HW124234   3.224   5.497   2.396
 4745SOL    HW224235   3.130   5.447   2.521
 4746SOL     OW24236   5.007   0.382   1.518
 4746SOL    HW124237   5.080   0.334   1.567
 4746SOL    HW224238   5.039   0.409   1.427
 4747SOL     OW24239   2.239   1.965   0.712
 4747SOL    HW124240   2.182   2.038   0.675
 4747SOL    HW224241   2.270   1.989   0.804
 4748SOL     OW24242   3.748   2.385   2.909
 4748SOL    HW124243   3.757   2.287   2.926
 4748SOL    HW224244   3.769   2.405   2.813
 4749SOL     OW24245   4.901   2.618   3.896
 4749SOL    HW124246   4.923   2.521   3.904
 4749SOL    HW224247   4.914   2.663   3.984
 4750SOL     OW24248   1.854   6.547   7.411
 4750SOL    HW124249   1.898   6.459   7.425
 4750SOL    HW224250   1.758   6.543   7.440
 4751SOL     OW24251   3.754   4.917   6.682
 4751SOL    HW124252   3.774   4.827   6.642
 4751SOL    HW224253   3.827   4.943   6.745
 4752SOL     OW24254   2.660   7.030   0.999
 4752SOL    HW124255   2.721   7.109   1.008
 4752SOL    HW224256   2.673   6.967   1.075
 4753SOL     OW24257   3.075   2.140   5.174
 4753SOL    HW124258   3.100   2.233   5.150
 4753SOL    HW224259   2.983   2.120   5.141
 4754SOL     OW24260   3.953   7.127   2.840
 4754SOL    HW124261   3.903   7.049   2.804
 4754SOL    HW224262   3.984   7.108   2.933
 4755SOL     OW24263   1.421   7.234   6.366
 4755SOL    HW124264   1.393   7.327   6.389
 4755SOL    HW224265   1.504   7.210   6.416
 4756SOL     OW24266   7.636   4.766   1.549
 4756SOL    HW124267   7.623   4.825   1.628
 4756SOL    HW224268   7.640   4.820   1.465
 4757SOL     OW24269   4.245   7.022   1.113
 4757SOL    HW124270   4.148   7.014   1.135
 4757SOL    HW224271   4.263   6.985   1.022
 4758SOL     OW24272   2.169   7.491   1.489
 4758SOL    HW124273   2.181   7.505   1.588
 4758SOL    HW224274   2.238   7.427   1.456
 4759SOL     OW24275   3.968   0.196   6.491
 4759SOL    HW124276   3.937   0.239   6.576
 4759SOL    HW224277   3.956   0.260   6.415
 4760SOL     OW24278   2.095   3.341   1.810
 4760SOL    HW124279   2.185   3.296   1.806
 4760SOL    HW224280   2.072   3.379   1.720
 4761SOL     OW24281   6.316   2.934   3.257
 4761SOL    HW124282   6.244   2.864   3.263
 4761SOL    HW224283   6.329   2.961   3.161
 4762SOL     OW24284   4.254   3.853   3.804
 4762SOL    HW124285   4.287   3.946   3.788
 4762SOL    HW224286   4.291   3.817   3.890
 4763SOL     OW24287   7.563   7.355   1.370
 4763SOL    HW124288   7.659   7.368   1.347
 4763SOL    HW224289   7.540   7.406   1.452
 4764SOL     OW24290   3.049   1.448   5.155
 4764SOL    HW124291   3.125   1.488   5.208
 4764SOL    HW224292   2.967   1.443   5.212
 4765SOL     OW24293   0.205   4.591   1.632
 4765SOL    HW124294   0.153   4.547   1.706
 4765SOL    HW224295   0.272   4.654   1.670
 4766SOL     OW24296   5.736   0.477   5.649
 4766SOL    HW124297   5.812   0.456   5.711
 4766SOL    HW224298   5.761   0.553   5.588
 4767SOL     OW24299   3.305   0.583   2.756
 4767SOL    HW124300   3.211   0.579   2.721
 4767SOL    HW224301   3.309   0.642   2.837
 4768SOL     OW24302   1.660   2.637   5.110
 4768SOL    HW124303   1.679   2.543   5.083
 4768SOL    HW224304   1.565   2.660   5.089
 4769SOL     OW24305   3.019   0.022   7.000
 4769SOL    HW124306   2.968   0.102   6.969
 4769SOL    HW224307   2.995   0.002   7.096
 4770SOL     OW24308   7.413   5.867   4.472
 4770SOL    HW124309   7.465   5.951   4.459
 4770SOL    HW224310   7.346   5.879   4.545
 4771SOL     OW24311   1.324   0.036   4.903
 4771SOL    HW124312   1.283   0.024   4.812
 4771SOL    HW224313   1.346   0.133   4.917
 4772SOL     OW24314   3.868   2.432   6.895
 4772SOL    HW124315   3.795   2.493   6.926
 4772SOL    HW224316   3.866   2.424   6.795
 4773SOL     OW24317   7.862   7.165   3.850
 4773SOL    HW124318   7.909   7.196   3.767
 4773SOL    HW224319   7.799   7.091   3.827
 4774SOL     OW24320   7.862   4.050   3.246
 4774SOL    HW124321   7.862   3.950   3.255
 4774SOL    HW224322   7.955   4.083   3.231
 4775SOL     OW24323   5.287   2.699   3.024
 4775SOL    HW124324   5.346   2.697   2.943
 4775SOL    HW224325   5.224   2.621   3.023
 4776SOL     OW24326   5.322   0.490   3.823
 4776SOL    HW124327   5.406   0.451   3.860
 4776SOL    HW224328   5.320   0.478   3.723
 4777SOL     OW24329   3.731   0.338   5.247
 4777SOL    HW124330   3.647   0.362   5.198
 4777SOL    HW224331   3.752   0.406   5.316
 4778SOL     OW24332   0.028   1.209   1.959
 4778SOL    HW124333   0.102   1.221   2.025
 4778SOL    HW224334   0.066   1.181   1.871
 4779SOL     OW24335   0.489   4.939   4.728
 4779SOL    HW124336   0.481   4.872   4.654
 4779SOL    HW224337   0.430   5.017   4.711
 4780SOL     OW24338   4.111   0.798   1.048
 4780SOL    HW124339   4.154   0.762   0.965
 4780SOL    HW224340   4.124   0.734   1.123
 4781SOL     OW24341   1.996   5.807   3.474
 4781SOL    HW124342   1.915   5.789   3.419
 4781SOL    HW224343   2.062   5.861   3.422
 4782SOL     OW24344   5.250   5.546   5.521
 4782SOL    HW124345   5.336   5.497   5.535
 4782SOL    HW224346   5.191   5.496   5.458
 4783SOL     OW24347   7.766   5.110   6.301
 4783SOL    HW124348   7.812   5.031   6.342
 4783SOL    HW224349   7.821   5.149   6.228
 4784SOL     OW24350   1.912   6.442   3.631
 4784SOL    HW124351   1.849   6.465   3.706
 4784SOL    HW224352   1.939   6.525   3.583
 4785SOL     OW24353   2.867   2.475   4.951
 4785SOL    HW124354   2.952   2.524   4.971
 4785SOL    HW224355   2.799   2.539   4.915
 4786SOL     OW24356   3.577   6.137   2.026
 4786SOL    HW124357   3.568   6.133   1.927
 4786SOL    HW224358   3.628   6.218   2.053
 4787SOL     OW24359   0.658   0.832   4.960
 4787SOL    HW124360   0.595   0.908   4.949
 4787SOL    HW224361   0.609   0.745   4.948
 4788SOL     OW24362   6.613   7.751   4.055
 4788SOL    HW124363   6.669   7.831   4.077
 4788SOL    HW224364   6.647   7.671   4.103
 4789SOL     OW24365   5.371   7.351   5.825
 4789SOL    HW124366   5.397   7.257   5.801
 4789SOL    HW224367   5.438   7.389   5.889
 4790SOL     OW24368   4.495   7.136   7.354
 4790SOL    HW124369   4.584   7.125   7.308
 4790SOL    HW224370   4.500   7.101   7.447
 4791SOL     OW24371   2.558   4.014   5.894
 4791SOL    HW124372   2.508   4.063   5.965
 4791SOL    HW224373   2.542   4.057   5.805
 4792SOL     OW24374   3.222   7.180   5.087
 4792SOL    HW124375   3.258   7.089   5.064
 4792SOL    HW224376   3.294   7.248   5.076
 4793SOL     OW24377   1.356   3.314   1.296
 4793SOL    HW124378   1.410   3.383   1.247
 4793SOL    HW224379   1.403   3.286   1.379
 4794SOL     OW24380   3.759   3.575   1.483
 4794SOL    HW124381   3.794   3.481   1.495
 4794SOL    HW224382   3.810   3.637   1.542
 4795SOL     OW24383   5.890   6.367   5.274
 4795SOL    HW124384   5.982   6.362   5.233
 4795SOL    HW224385   5.890   6.435   5.347
 4796SOL     OW24386   0.601   7.190   0.963
 4796SOL    HW124387   0.603   7.113   1.027
 4796SOL    HW224388   0.651   7.166   0.880
 4797SOL     OW24389   6.289   7.425   3.726
 4797SOL    HW124390   6.370   7.419   3.784
 4797SOL    HW224391   6.223   7.354   3.752
 4798SOL     OW24392   1.518   0.111   7.685
 4798SOL    HW124393   1.439   0.161   7.650
 4798SOL    HW224394   1.537   0.032   7.628
 4799SOL     OW24395   1.381   2.121   7.393
 4799SOL    HW124396   1.420   2.171   7.471
 4799SOL    HW224397   1.311   2.177   7.349
 4800SOL     OW24398   1.548   2.977   4.591
 4800SOL    HW124399   1.583   2.996   4.682
 4800SOL    HW224400   1.471   2.914   4.596
 4801SOL     OW24401   6.468   5.201   3.293
 4801SOL    HW124402   6.566   5.198   3.274
 4801SOL    HW224403   6.451   5.175   3.388
 4802SOL     OW24404   4.986   7.349   7.079
 4802SOL    HW124405   4.917   7.419   7.059
 4802SOL    HW224406   5.052   7.385   7.146
 4803SOL     OW24407   1.105   1.411   7.934
 4803SOL    HW124408   1.165   1.449   7.863
 4803SOL    HW224409   1.150   1.335   7.980
 4804SOL     OW24410   5.044   0.156   5.123
 4804SOL    HW124411   5.126   0.139   5.069
 4804SOL    HW224412   4.990   0.229   5.082
 4805SOL     OW24413   7.624   7.032   2.709
 4805SOL    HW124414   7.612   7.131   2.714
 4805SOL    HW224415   7.535   6.987   2.703
 4806SOL     OW24416   3.392   2.448   7.684
 4806SOL    HW124417   3.469   2.384   7.679
 4806SOL    HW224418   3.325   2.425   7.613
 4807SOL     OW24419   1.466   1.475   1.128
 4807SOL    HW124420   1.406   1.403   1.163
 4807SOL    HW224421   1.504   1.448   1.040
 4808SOL     OW24422   5.719   4.722   7.496
 4808SOL    HW124423   5.736   4.708   7.593
 4808SOL    HW224424   5.797   4.690   7.442
 4809SOL     OW24425   5.806   4.699   5.662
 4809SOL    HW124426   5.864   4.657   5.732
 4809SOL    HW224427   5.794   4.796   5.682
 4810SOL     OW24428   7.701   7.356   2.241
 4810SOL    HW124429   7.627   7.357   2.307
 4810SOL    HW224430   7.713   7.447   2.201
 4811SOL     OW24431   4.483   5.934   1.474
 4811SOL    HW124432   4.519   5.992   1.401
 4811SOL    HW224433   4.434   5.856   1.434
 4812SOL     OW24434   0.812   5.662   7.408
 4812SOL    HW124435   0.716   5.686   7.419
 4812SOL    HW224436   0.823   5.563   7.405
 4813SOL     OW24437   1.100   4.565   2.207
 4813SOL    HW124438   1.077   4.628   2.133
 4813SOL    HW224439   1.141   4.614   2.283
 4814SOL     OW24440   1.858   4.701   5.228
 4814SOL    HW124441   1.810   4.678   5.143
 4814SOL    HW224442   1.923   4.775   5.211
 4815SOL     OW24443   7.365   6.896   3.295
 4815SOL    HW124444   7.326   6.965   3.235
 4815SOL    HW224445   7.464   6.892   3.282
 4816SOL     OW24446   0.183   2.439   0.245
 4816SOL    HW124447   0.231   2.526   0.241
 4816SOL    HW224448   0.093   2.448   0.202
 4817SOL     OW24449   3.016   0.842   3.434
 4817SOL    HW124450   2.932   0.845   3.489
 4817SOL    HW224451   2.993   0.820   3.339
 4818SOL     OW24452   7.085   6.344   3.166
 4818SOL    HW124453   7.182   6.331   3.149
 4818SOL    HW224454   7.053   6.427   3.120
 4819SOL     OW24455   5.519   1.873   3.967
 4819SOL    HW124456   5.509   1.823   4.053
 4819SOL    HW224457   5.527   1.971   3.986
 4820SOL     OW24458   1.874   2.846   2.873
 4820SOL    HW124459   1.778   2.874   2.882
 4820SOL    HW224460   1.912   2.829   2.964
 4821SOL     OW24461   6.749   5.326   0.040
 4821SOL    HW124462   6.774   5.299   0.133
 4821SOL    HW224463   6.754   5.426   0.031
 4822SOL     OW24464   1.608   5.915   0.165
 4822SOL    HW124465   1.560   5.858   0.099
 4822SOL    HW224466   1.546   5.942   0.238
 4823SOL     OW24467   5.383   7.040   3.625
 4823SOL    HW124468   5.347   6.955   3.664
 4823SOL    HW224469   5.417   7.024   3.533
 4824SOL     OW24470   2.746   6.064   6.700
 4824SOL    HW124471   2.723   5.968   6.682
 4824SOL    HW224472   2.718   6.089   6.793
 4825SOL     OW24473   6.816   7.490   3.925
 4825SOL    HW124474   6.723   7.460   3.901
 4825SOL    HW224475   6.840   7.572   3.873
 4826SOL     OW24476   0.917   2.072   3.460
 4826SOL    HW124477   0.899   1.978   3.429
 4826SOL    HW224478   1.015   2.086   3.473
 4827SOL     OW24479   2.823   4.542   4.792
 4827SOL    HW124480   2.859   4.484   4.719
 4827SOL    HW224481   2.732   4.576   4.768
 4828SOL     OW24482   7.055   4.536   7.682
 4828SOL    HW124483   6.974   4.594   7.672
 4828SOL    HW224484   7.070   4.515   7.778
 4829SOL     OW24485   3.640   0.674   2.223
 4829SOL    HW124486   3.689   0.594   2.189
 4829SOL    HW224487   3.617   0.662   2.319
 4830SOL     OW24488   6.507   5.235   5.507
 4830SOL    HW124489   6.598   5.221   5.546
 4830SOL    HW224490   6.492   5.332   5.486
 4831SOL     OW24491   3.791   6.417   2.302
 4831SOL    HW124492   3.840   6.501   2.278
 4831SOL    HW224493   3.823   6.384   2.391
 4832SOL     OW24494   5.270   1.888   3.503
 4832SOL    HW124495   5.355   1.940   3.514
 4832SOL    HW224496   5.271   1.808   3.563
 4833SOL     OW24497   7.855   5.411   3.743
 4833SOL    HW124498   7.939   5.408   3.797
 4833SOL    HW224499   7.871   5.368   3.654
 4834SOL     OW24500   0.275   7.233   3.689
 4834SOL    HW124501   0.196   7.274   3.644
 4834SOL    HW224502   0.246   7.182   3.770
 4835SOL     OW24503   1.995   4.968   1.183
 4835SOL    HW124504   2.078   5.024   1.192
 4835SOL    HW224505   1.975   4.954   1.087
 4836SOL     OW24506   2.303   0.187   5.285
 4836SOL    HW124507   2.250   0.219   5.207
 4836SOL    HW224508   2.256   0.208   5.370
 4837SOL     OW24509   6.520   0.184   0.678
 4837SOL    HW124510   6.586   0.200   0.752
 4837SOL    HW224511   6.476   0.095   0.690
 4838SOL     OW24512   2.372   5.245   7.503
 4838SOL    HW124513   2.339   5.156   7.471
 4838SOL    HW224514   2.309   5.317   7.474
 4839SOL     OW24515   3.980   1.437   2.810
 4839SOL    HW124516   3.984   1.385   2.725
 4839SOL    HW224517   4.072   1.452   2.845
 4840SOL     OW24518   4.635   0.639   3.163
 4840SOL    HW124519   4.708   0.584   3.202
 4840SOL    HW224520   4.661   0.672   3.072
 4841SOL     OW24521   7.144   6.940   2.162
 4841SOL    HW124522   7.185   6.908   2.076
 4841SOL    HW224523   7.121   6.862   2.220
 4842SOL     OW24524   1.847   0.685   1.035
 4842SOL    HW124525   1.905   0.603   1.028
 4842SOL    HW224526   1.873   0.739   1.114
 4843SOL     OW24527   4.132   4.519   5.353
 4843SOL    HW124528   4.219   4.569   5.357
 4843SOL    HW224529   4.148   4.421   5.370
 4844SOL     OW24530   5.748   5.033   2.056
 4844SOL    HW124531   5.804   4.966   2.104
 4844SOL    HW224532   5.800   5.076   1.983
 4845SOL     OW24533   5.876   0.772   2.525
 4845SOL    HW124534   5.804   0.704   2.535
 4845SOL    HW224535   5.850   0.856   2.573
 4846SOL     OW24536   0.699   7.907   0.274
 4846SOL    HW124537   0.650   7.989   0.302
 4846SOL    HW224538   0.639   7.847   0.221
 4847SOL     OW24539   2.041   3.654   0.990
 4847SOL    HW124540   2.037   3.754   0.982
 4847SOL    HW224541   1.950   3.615   0.979
 4848SOL     OW24542   0.422   0.471   5.855
 4848SOL    HW124543   0.521   0.477   5.838
 4848SOL    HW224544   0.391   0.377   5.846
 4849SOL     OW24545   4.758   4.372   6.031
 4849SOL    HW124546   4.853   4.365   6.000
 4849SOL    HW224547   4.749   4.448   6.095
 4850SOL     OW24548   7.703   6.481   2.136
 4850SOL    HW124549   7.742   6.418   2.203
 4850SOL    HW224550   7.713   6.444   2.044
 4851SOL     OW24551   7.507   7.909   7.225
 4851SOL    HW124552   7.421   7.944   7.264
 4851SOL    HW224553   7.582   7.969   7.250
 4852SOL     OW24554   3.678   2.290   0.485
 4852SOL    HW124555   3.664   2.191   0.480
 4852SOL    HW224556   3.624   2.328   0.560
 4853SOL     OW24557  -0.010   2.586   5.446
 4853SOL    HW124558  -0.031   2.512   5.381
 4853SOL    HW224559  -0.013   2.674   5.399
 4854SOL     OW24560   5.859   0.929   7.172
 4854SOL    HW124561   5.792   0.867   7.213
 4854SOL    HW224562   5.877   0.903   7.077
 4855SOL     OW24563   5.711   2.703   5.996
 4855SOL    HW124564   5.612   2.713   6.009
 4855SOL    HW224565   5.730   2.661   5.908
 4856SOL     OW24566   7.685   7.419   4.167
 4856SOL    HW124567   7.733   7.487   4.224
 4856SOL    HW224568   7.664   7.338   4.221
 4857SOL     OW24569   5.062   1.172   6.231
 4857SOL    HW124570   4.985   1.109   6.242
 4857SOL    HW224571   5.057   1.219   6.142
 4858SOL     OW24572   0.571   7.432   1.128
 4858SOL    HW124573   0.530   7.344   1.103
 4858SOL    HW224574   0.586   7.436   1.227
 4859SOL     OW24575   5.044   3.364   0.500
 4859SOL    HW124576   5.028   3.265   0.503
 4859SOL    HW224577   5.097   3.388   0.419
 4860SOL     OW24578   3.555   5.456   6.931
 4860SOL    HW124579   3.593   5.501   6.850
 4860SOL    HW224580   3.455   5.462   6.930
 4861SOL     OW24581   1.569   7.264   3.598
 4861SOL    HW124582   1.532   7.343   3.647
 4861SOL    HW224583   1.658   7.286   3.559
 4862SOL     OW24584   5.773   6.610   0.505
 4862SOL    HW124585   5.871   6.591   0.503
 4862SOL    HW224586   5.757   6.708   0.519
 4863SOL     OW24587   6.610   5.815   1.430
 4863SOL    HW124588   6.569   5.724   1.424
 4863SOL    HW224589   6.560   5.870   1.497
 4864SOL     OW24590   5.079   4.045   1.256
 4864SOL    HW124591   5.152   3.977   1.259
 4864SOL    HW224592   5.049   4.068   1.348
 4865SOL     OW24593   3.699   5.230   1.467
 4865SOL    HW124594   3.776   5.224   1.402
 4865SOL    HW224595   3.657   5.321   1.460
 4866SOL     OW24596   7.046   4.665   5.094
 4866SOL    HW124597   7.034   4.757   5.057
 4866SOL    HW224598   7.087   4.669   5.185
 4867SOL     OW24599   4.591   0.586   0.525
 4867SOL    HW124600   4.650   0.513   0.488
 4867SOL    HW224601   4.561   0.561   0.617
 4868SOL     OW24602   2.088   6.347   6.951
 4868SOL    HW124603   2.162   6.282   6.932
 4868SOL    HW224604   2.006   6.298   6.978
 4869SOL     OW24605   2.406   7.098   6.106
 4869SOL    HW124606   2.473   7.062   6.171
 4869SOL    HW224607   2.452   7.149   6.033
 4870SOL     OW24608   0.140   3.238   4.442
 4870SOL    HW124609   0.169   3.283   4.527
 4870SOL    HW224610   0.190   3.275   4.364
 4871SOL     OW24611   2.385   6.117   6.350
 4871SOL    HW124612   2.354   6.050   6.417
 4871SOL    HW224613   2.440   6.187   6.395
 4872SOL     OW24614   2.435   6.022   3.126
 4872SOL    HW124615   2.343   6.045   3.159
 4872SOL    HW224616   2.429   5.981   3.035
 4873SOL     OW24617   2.519   3.212   0.243
 4873SOL    HW124618   2.510   3.133   0.304
 4873SOL    HW224619   2.550   3.182   0.152
 4874SOL     OW24620   7.861   1.092   2.452
 4874SOL    HW124621   7.797   1.135   2.389
 4874SOL    HW224622   7.955   1.111   2.424
 4875SOL     OW24623   7.432   1.080   6.977
 4875SOL    HW124624   7.435   1.158   7.039
 4875SOL    HW224625   7.358   1.018   7.004
 4876SOL     OW24626   7.074   3.792   0.080
 4876SOL    HW124627   7.029   3.807   0.169
 4876SOL    HW224628   7.054   3.869   0.019
 4877SOL     OW24629   4.538   0.774   5.982
 4877SOL    HW124630   4.630   0.803   6.005
 4877SOL    HW224631   4.480   0.854   5.966
 4878SOL     OW24632   0.690   5.665   5.819
 4878SOL    HW124633   0.625   5.729   5.778
 4878SOL    HW224634   0.710   5.693   5.913
 4879SOL     OW24635   1.702   7.723   4.547
 4879SOL    HW124636   1.608   7.703   4.574
 4879SOL    HW224637   1.713   7.707   4.449
 4880SOL     OW24638   7.245   1.110   6.255
 4880SOL    HW124639   7.312   1.073   6.320
 4880SOL    HW224640   7.289   1.126   6.166
 4881SOL     OW24641   7.594   2.496   4.345
 4881SOL    HW124642   7.643   2.411   4.328
 4881SOL    HW224643   7.549   2.493   4.434
 4882SOL     OW24644   1.715   5.503   3.083
 4882SOL    HW124645   1.660   5.419   3.085
 4882SOL    HW224646   1.681   5.568   3.151
 4883SOL     OW24647   1.900   0.556   2.205
 4883SOL    HW124648   1.985   0.509   2.232
 4883SOL    HW224649   1.923   0.644   2.162
 4884SOL     OW24650   7.300   2.948   2.329
 4884SOL    HW124651   7.398   2.968   2.337
 4884SOL    HW224652   7.285   2.879   2.259
 4885SOL     OW24653   5.813   2.596   3.926
 4885SOL    HW124654   5.903   2.591   3.972
 4885SOL    HW224655   5.823   2.573   3.830
 4886SOL     OW24656   1.485   1.364   3.832
 4886SOL    HW124657   1.433   1.284   3.861
 4886SOL    HW224658   1.576   1.336   3.802
 4887SOL     OW24659   4.383   0.168   3.844
 4887SOL    HW124660   4.350   0.248   3.893
 4887SOL    HW224661   4.319   0.092   3.856
 4888SOL     OW24662   2.977   4.964   0.613
 4888SOL    HW124663   2.907   5.021   0.571
 4888SOL    HW224664   2.993   4.994   0.707
 4889SOL     OW24665   2.213   5.240   3.859
 4889SOL    HW124666   2.254   5.257   3.949
 4889SOL    HW224667   2.153   5.316   3.834
 4890SOL     OW24668   3.483   0.838   3.189
 4890SOL    HW124669   3.397   0.866   3.146
 4890SOL    HW224670   3.471   0.834   3.288
 4891SOL     OW24671   4.797   6.606   2.362
 4891SOL    HW124672   4.707   6.641   2.335
 4891SOL    HW224673   4.820   6.638   2.454
 4892SOL     OW24674   2.898   7.935   1.263
 4892SOL    HW124675   2.835   7.989   1.320
 4892SOL    HW224676   2.908   7.843   1.301
 4893SOL     OW24677   2.333   2.486   3.591
 4893SOL    HW124678   2.237   2.477   3.616
 4893SOL    HW224679   2.343   2.546   3.512
 4894SOL     OW24680   1.099   3.553   4.964
 4894SOL    HW124681   1.102   3.568   4.865
 4894SOL    HW224682   1.175   3.600   5.008
 4895SOL     OW24683   6.540   2.062   0.594
 4895SOL    HW124684   6.632   2.041   0.627
 4895SOL    HW224685   6.476   1.992   0.627
 4896SOL     OW24686   6.480   7.012   1.414
 4896SOL    HW124687   6.434   7.049   1.495
 4896SOL    HW224688   6.570   6.976   1.438
 4897SOL     OW24689   0.781   7.046   7.301
 4897SOL    HW124690   0.840   6.966   7.287
 4897SOL    HW224691   0.735   7.069   7.215
 4898SOL     OW24692   0.319   5.240   0.871
 4898SOL    HW124693   0.323   5.156   0.816
 4898SOL    HW224694   0.290   5.219   0.964
 4899SOL     OW24695   3.908   6.602   3.140
 4899SOL    HW124696   3.861   6.523   3.181
 4899SOL    HW224697   3.937   6.580   3.047
 4900SOL     OW24698   2.078   0.030   2.222
 4900SOL    HW124699   2.134  -0.008   2.148
 4900SOL    HW224700   2.104  -0.011   2.309
 4901SOL     OW24701   3.515   4.508   2.881
 4901SOL    HW124702   3.521   4.431   2.818
 4901SOL    HW224703   3.606   4.547   2.897
 4902SOL     OW24704   1.666   5.597   5.928
 4902SOL    HW124705   1.734   5.558   5.865
 4902SOL    HW224706   1.707   5.670   5.982
 4903SOL     OW24707   5.105   0.027   0.062
 4903SOL    HW124708   5.098  -0.005   0.157
 4903SOL    HW224709   5.186  -0.011   0.018
 4904SOL     OW24710   2.720   3.826   7.591
 4904SOL    HW124711   2.763   3.913   7.567
 4904SOL    HW224712   2.770   3.751   7.548
 4905SOL     OW24713   5.143   2.828   4.664
 4905SOL    HW124714   5.044   2.845   4.667
 4905SOL    HW224715   5.162   2.734   4.690
 4906SOL     OW24716   3.099   5.902   2.452
 4906SOL    HW124717   3.038   5.948   2.387
 4906SOL    HW224718   3.083   5.937   2.544
 4907SOL     OW24719   7.927   1.351   7.411
 4907SOL    HW124720   7.856   1.357   7.482
 4907SOL    HW224721   7.885   1.326   7.324
 4908SOL     OW24722   6.309   7.537   5.803
 4908SOL    HW124723   6.260   7.568   5.884
 4908SOL    HW224724   6.246   7.493   5.739
 4909SOL     OW24725   0.685   3.450   6.134
 4909SOL    HW124726   0.702   3.548   6.124
 4909SOL    HW224727   0.648   3.430   6.224
 4910SOL     OW24728   7.013   3.541   2.987
 4910SOL    HW124729   6.926   3.513   2.946
 4910SOL    HW224730   7.001   3.623   3.042
 4911SOL     OW24731   3.292   6.550   5.668
 4911SOL    HW124732   3.242   6.606   5.602
 4911SOL    HW224733   3.243   6.547   5.756
 4912SOL     OW24734   5.025   1.341   0.681
 4912SOL    HW124735   5.057   1.427   0.640
 4912SOL    HW224736   5.063   1.332   0.774
 4913SOL     OW24737   7.273   5.383   1.697
 4913SOL    HW124738   7.215   5.340   1.628
 4913SOL    HW224739   7.216   5.424   1.768
 4914SOL     OW24740   0.249   5.490   6.572
 4914SOL    HW124741   0.173   5.436   6.535
 4914SOL    HW224742   0.226   5.524   6.663
 4915SOL     OW24743   3.423   0.540   3.201
 4915SOL    HW124744   3.365   0.570   3.124
 4915SOL    HW224745   3.467   0.619   3.243
 4916SOL     OW24746   6.555   5.380   4.145
 4916SOL    HW124747   6.608   5.365   4.061
 4916SOL    HW224748   6.579   5.312   4.213
 4917SOL     OW24749   4.148   2.877   3.153
 4917SOL    HW124750   4.057   2.851   3.118
 4917SOL    HW224751   4.138   2.933   3.235
 4918SOL     OW24752   6.269   0.120   3.598
 4918SOL    HW124753   6.352   0.170   3.625
 4918SOL    HW224754   6.238   0.151   3.508
 4919SOL     OW24755   0.305   2.265   7.244
 4919SOL    HW124756   0.257   2.345   7.282
 4919SOL    HW224757   0.402   2.287   7.230
 4920SOL     OW24758   3.647   7.198   5.212
 4920SOL    HW124759   3.590   7.155   5.283
 4920SOL    HW224760   3.646   7.141   5.129
 4921SOL     OW24761   4.507   1.895   5.969
 4921SOL    HW124762   4.451   1.819   5.936
 4921SOL    HW224763   4.603   1.881   5.945
 4922SOL     OW24764   0.586   5.569   5.588
 4922SOL    HW124765   0.645   5.581   5.509
 4922SOL    HW224766   0.499   5.617   5.574
 4923SOL     OW24767   2.135   5.692   3.788
 4923SOL    HW124768   2.159   5.779   3.745
 4923SOL    HW224769   2.151   5.617   3.724
 4924SOL     OW24770   4.097   6.577   0.415
 4924SOL    HW124771   4.189   6.603   0.386
 4924SOL    HW224772   4.100   6.536   0.506
 4925SOL     OW24773   5.411   1.857   1.524
 4925SOL    HW124774   5.411   1.787   1.452
 4925SOL    HW224775   5.429   1.815   1.613
 4926SOL     OW24776   5.921   0.749   4.867
 4926SOL    HW124777   5.883   0.658   4.848
 4926SOL    HW224778   5.912   0.770   4.964
 4927SOL     OW24779   7.960   3.914   3.602
 4927SOL    HW124780   7.957   3.969   3.519
 4927SOL    HW224781   7.932   3.969   3.681
 4928SOL     OW24782   4.675   5.156   0.620
 4928SOL    HW124783   4.717   5.092   0.555
 4928SOL    HW224784   4.685   5.122   0.713
 4929SOL     OW24785   7.278   0.452   0.436
 4929SOL    HW124786   7.325   0.373   0.474
 4929SOL    HW224787   7.313   0.472   0.344
 4930SOL     OW24788   7.817   7.053   2.309
 4930SOL    HW124789   7.915   7.068   2.301
 4930SOL    HW224790   7.771   7.083   2.225
 4931SOL     OW24791   7.052   2.996   4.974
 4931SOL    HW124792   6.967   3.044   4.950
 4931SOL    HW224793   7.080   3.019   5.067
 4932SOL     OW24794   4.766   7.695   1.046
 4932SOL    HW124795   4.845   7.633   1.051
 4932SOL    HW224796   4.717   7.679   0.960
 4933SOL     OW24797   2.011   2.675   3.662
 4933SOL    HW124798   2.111   2.678   3.669
 4933SOL    HW224799   1.984   2.671   3.566
 4934SOL     OW24800   5.722   0.293   7.149
 4934SOL    HW124801   5.752   0.361   7.217
 4934SOL    HW224802   5.770   0.306   7.063
 4935SOL     OW24803   3.510   0.507   3.428
 4935SOL    HW124804   3.532   0.576   3.498
 4935SOL    HW224805   3.524   0.415   3.465
 4936SOL     OW24806   4.043   7.752   0.853
 4936SOL    HW124807   3.986   7.818   0.802
 4936SOL    HW224808   4.041   7.774   0.950
 4937SOL     OW24809   7.147   0.699   5.320
 4937SOL    HW124810   7.181   0.707   5.226
 4937SOL    HW224811   7.148   0.603   5.349
 4938SOL     OW24812   1.288   0.673   5.399
 4938SOL    HW124813   1.312   0.770   5.394
 4938SOL    HW224814   1.205   0.655   5.346
 4939SOL     OW24815   1.465   4.196   2.528
 4939SOL    HW124816   1.436   4.100   2.529
 4939SOL    HW224817   1.388   4.255   2.505
 4940SOL     OW24818   1.214   7.389   7.765
 4940SOL    HW124819   1.252   7.477   7.791
 4940SOL    HW224820   1.164   7.397   7.678
 4941SOL     OW24821   1.549   3.300   6.901
 4941SOL    HW124822   1.509   3.353   6.975
 4941SOL    HW224823   1.484   3.231   6.869
 4942SOL     OW24824   1.250   6.692   0.721
 4942SOL    HW124825   1.326   6.717   0.661
 4942SOL    HW224826   1.281   6.689   0.816
 4943SOL     OW24827   1.321   6.925   0.776
 4943SOL    HW124828   1.312   6.906   0.874
 4943SOL    HW224829   1.307   7.023   0.760
 4944SOL     OW24830   5.098   1.457   5.960
 4944SOL    HW124831   5.044   1.378   5.992
 4944SOL    HW224832   5.097   1.529   6.029
 4945SOL     OW24833   0.635   0.684   7.027
 4945SOL    HW124834   0.703   0.715   6.960
 4945SOL    HW224835   0.547   0.728   7.010
 4946SOL     OW24836   2.603   7.933   1.013
 4946SOL    HW124837   2.536   7.864   1.040
 4946SOL    HW224838   2.640   7.911   0.923
 4947SOL     OW24839   1.818   7.754   2.761
 4947SOL    HW124840   1.850   7.671   2.716
 4947SOL    HW224841   1.738   7.791   2.714
 4948SOL     OW24842   1.091   6.123   1.674
 4948SOL    HW124843   1.033   6.058   1.723
 4948SOL    HW224844   1.040   6.164   1.598
 4949SOL     OW24845   6.061   7.465   7.538
 4949SOL    HW124846   6.074   7.407   7.457
 4949SOL    HW224847   5.967   7.456   7.571
 4950SOL     OW24848   2.810   3.016   7.563
 4950SOL    HW124849   2.788   3.041   7.658
 4950SOL    HW224850   2.728   3.022   7.506
 4951SOL     OW24851   2.374   4.479   3.133
 4951SOL    HW124852   2.439   4.413   3.093
 4951SOL    HW224853   2.371   4.466   3.233
 4952SOL     OW24854   1.698   2.258   5.774
 4952SOL    HW124855   1.774   2.249   5.839
 4952SOL    HW224856   1.631   2.323   5.809
 4953SOL     OW24857   5.739   6.205   2.912
 4953SOL    HW124858   5.744   6.293   2.959
 4953SOL    HW224859   5.825   6.156   2.922
 4954SOL     OW24860   0.641   7.655   6.362
 4954SOL    HW124861   0.694   7.736   6.341
 4954SOL    HW224862   0.696   7.573   6.349
 4955SOL     OW24863   4.527   5.593   1.395
 4955SOL    HW124864   4.468   5.623   1.319
 4955SOL    HW224865   4.555   5.673   1.449
 4956SOL     OW24866   2.219   7.027   4.219
 4956SOL    HW124867   2.216   6.959   4.292
 4956SOL    HW224868   2.255   7.113   4.255
 4957SOL     OW24869   5.356   0.166   3.727
 4957SOL    HW124870   5.330   0.260   3.751
 4957SOL    HW224871   5.292   0.130   3.660
 4958SOL     OW24872   3.872   1.289   6.042
 4958SOL    HW124873   3.950   1.241   6.082
 4958SOL    HW224874   3.904   1.359   5.978
 4959SOL     OW24875   0.011   4.928   3.827
 4959SOL    HW124876   0.051   4.953   3.915
 4959SOL    HW224877  -0.045   5.002   3.792
 4960SOL     OW24878   6.709   1.232   1.394
 4960SOL    HW124879   6.806   1.216   1.414
 4960SOL    HW224880   6.655   1.152   1.419
 4961SOL     OW24881   3.943   1.395   7.318
 4961SOL    HW124882   4.029   1.384   7.369
 4961SOL    HW224883   3.958   1.376   7.221
 4962SOL     OW24884   7.115   6.717   4.379
 4962SOL    HW124885   7.210   6.743   4.399
 4962SOL    HW224886   7.055   6.749   4.451
 4963SOL     OW24887   6.385   4.140   2.141
 4963SOL    HW124888   6.341   4.183   2.062
 4963SOL    HW224889   6.425   4.210   2.200
 4964SOL     OW24890   2.092   5.309   5.090
 4964SOL    HW124891   2.004   5.261   5.098
 4964SOL    HW224892   2.166   5.250   5.123
 4965SOL     OW24893   6.929   6.697   6.733
 4965SOL    HW124894   6.833   6.717   6.714
 4965SOL    HW224895   6.949   6.712   6.830
 4966SOL     OW24896   2.166   2.047   0.431
 4966SOL    HW124897   2.239   1.989   0.468
 4966SOL    HW224898   2.165   2.135   0.478
 4967SOL     OW24899   2.293   1.003   4.765
 4967SOL    HW124900   2.272   0.915   4.809
 4967SOL    HW224901   2.308   1.073   4.834
 4968SOL     OW24902   7.560   2.764   2.015
 4968SOL    HW124903   7.563   2.857   2.052
 4968SOL    HW224904   7.515   2.764   1.926
 4969SOL     OW24905   3.328   4.040   3.164
 4969SOL    HW124906   3.422   4.076   3.159
 4969SOL    HW224907   3.263   4.109   3.135
 4970SOL     OW24908   3.951   1.119   0.242
 4970SOL    HW124909   4.004   1.061   0.303
 4970SOL    HW224910   4.009   1.156   0.170
 4971SOL     OW24911   1.085   5.519   4.804
 4971SOL    HW124912   1.018   5.591   4.821
 4971SOL    HW224913   1.051   5.457   4.733
 4972SOL     OW24914   4.194   1.615   5.850
 4972SOL    HW124915   4.268   1.613   5.784
 4972SOL    HW224916   4.226   1.652   5.937
 4973SOL     OW24917   3.305   0.824   1.264
 4973SOL    HW124918   3.207   0.846   1.268
 4973SOL    HW224919   3.323   0.741   1.317
 4974SOL     OW24920   4.845   2.097   2.392
 4974SOL    HW124921   4.849   2.036   2.313
 4974SOL    HW224922   4.782   2.059   2.460
 4975SOL     OW24923   2.762   1.918   4.974
 4975SOL    HW124924   2.855   1.939   5.003
 4975SOL    HW224925   2.751   1.939   4.877
 4976SOL     OW24926   1.018   2.406   1.659
 4976SOL    HW124927   1.046   2.333   1.597
 4976SOL    HW224928   0.993   2.368   1.748
 4977SOL     OW24929   0.931   5.266   5.174
 4977SOL    HW124930   0.978   5.206   5.109
 4977SOL    HW224931   0.997   5.327   5.219
 4978SOL     OW24932   0.577   6.690   0.837
 4978SOL    HW124933   0.584   6.610   0.896
 4978SOL    HW224934   0.629   6.676   0.753
 4979SOL     OW24935   3.992   3.563   3.500
 4979SOL    HW124936   4.009   3.598   3.592
 4979SOL    HW224937   3.900   3.588   3.470
 4980SOL     OW24938   7.335   4.506   6.364
 4980SOL    HW124939   7.250   4.483   6.317
 4980SOL    HW224940   7.316   4.524   6.461
 4981SOL     OW24941   7.334   4.557   4.525
 4981SOL    HW124942   7.262   4.587   4.588
 4981SOL    HW224943   7.300   4.559   4.431
 4982SOL     OW24944   6.256   6.519   7.662
 4982SOL    HW124945   6.338   6.565   7.629
 4982SOL    HW224946   6.269   6.490   7.757
 4983SOL     OW24947   5.971   6.201   1.982
 4983SOL    HW124948   6.057   6.221   2.029
 4983SOL    HW224949   5.954   6.269   1.911
 4984SOL     OW24950   1.597   2.412   1.042
 4984SOL    HW124951   1.529   2.385   0.974
 4984SOL    HW224952   1.564   2.392   1.134
 4985SOL     OW24953  -0.017   0.165   6.593
 4985SOL    HW124954  -0.045   0.261   6.602
 4985SOL    HW224955   0.050   0.142   6.663
 4986SOL     OW24956   1.801   0.245   6.522
 4986SOL    HW124957   1.805   0.248   6.622
 4986SOL    HW224958   1.718   0.289   6.490
 4987SOL     OW24959   1.452   1.722   7.498
 4987SOL    HW124960   1.394   1.798   7.528
 4987SOL    HW224961   1.484   1.670   7.578
 4988SOL     OW24962   1.687   6.607   3.248
 4988SOL    HW124963   1.711   6.513   3.223
 4988SOL    HW224964   1.687   6.665   3.166
 4989SOL     OW24965   4.743   7.835   6.152
 4989SOL    HW124966   4.651   7.871   6.136
 4989SOL    HW224967   4.802   7.907   6.189
 4990SOL     OW24968   6.282   2.082   2.030
 4990SOL    HW124969   6.324   2.009   2.085
 4990SOL    HW224970   6.283   2.168   2.081
 4991SOL     OW24971   7.078   6.958   3.956
 4991SOL    HW124972   6.998   6.998   4.000
 4991SOL    HW224973   7.100   6.870   3.998
 4992SOL     OW24974   4.329   1.344   5.243
 4992SOL    HW124975   4.364   1.435   5.224
 4992SOL    HW224976   4.355   1.316   5.335
 4993SOL     OW24977   0.281   4.892   7.022
 4993SOL    HW124978   0.190   4.930   7.039
 4993SOL    HW224979   0.280   4.837   6.939
 4994SOL     OW24980   0.928   6.321   2.087
 4994SOL    HW124981   0.890   6.250   2.146
 4994SOL    HW224982   0.879   6.407   2.100
 4995SOL     OW24983   3.917   1.894   4.858
 4995SOL    HW124984   3.988   1.929   4.797
 4995SOL    HW224985   3.891   1.801   4.830
 4996SOL     OW24986   7.248   6.073   3.945
 4996SOL    HW124987   7.175   6.130   3.984
 4996SOL    HW224988   7.308   6.041   4.017
 4997SOL     OW24989   6.728   1.535   0.188
 4997SOL    HW124990   6.778   1.589   0.120
 4997SOL    HW224991   6.793   1.489   0.249
 4998SOL     OW24992   0.326   1.597   3.175
 4998SOL    HW124993   0.262   1.645   3.114
 4998SOL    HW224994   0.399   1.658   3.203
 4999SOL     OW24995   5.332   5.805   1.544
 4999SOL    HW124996   5.249   5.749   1.538
 4999SOL    HW224997   5.354   5.824   1.639
 5000SOL     OW24998   2.188   6.353   3.511
 5000SOL    HW124999   2.208   6.257   3.487
 5000SOL    HW225000   2.151   6.358   3.604
 5001SOL     OW25001   0.100   1.406   5.852
 5001SOL    HW125002   0.140   1.455   5.930
 5001SOL    HW225003   0.127   1.310   5.856
 5002SOL     OW25004   3.302   0.675   0.497
 5002SOL    HW125005   3.394   0.711   0.481
 5002SOL    HW225006   3.234   0.747   0.483
 5003SOL     OW25007   3.904   6.202   2.516
 5003SOL    HW125008   3.992   6.229   2.477
 5003SOL    HW225009   3.918   6.133   2.587
 5004SOL     OW25010   1.573   1.755   4.329
 5004SOL    HW125011   1.588   1.682   4.396
 5004SOL    HW225012   1.484   1.797   4.344
 5005SOL     OW25013   7.730   3.546   3.766
 5005SOL    HW125014   7.819   3.525   3.808
 5005SOL    HW225015   7.656   3.521   3.828
 5006SOL     OW25016   6.200   5.339   7.562
 5006SOL    HW125017   6.198   5.428   7.608
 5006SOL    HW225018   6.201   5.352   7.463
 5007SOL     OW25019   4.669   0.806   3.843
 5007SOL    HW125020   4.609   0.730   3.815
 5007SOL    HW225021   4.707   0.788   3.933
 5008SOL     OW25022   1.348   7.935   2.453
 5008SOL    HW125023   1.297   7.989   2.386
 5008SOL    HW225024   1.364   7.989   2.536
 5009SOL     OW25025   1.781   7.706   0.018
 5009SOL    HW125026   1.714   7.632   0.021
 5009SOL    HW225027   1.862   7.680   0.071
 5010SOL     OW25028   4.707   6.118   4.959
 5010SOL    HW125029   4.790   6.151   5.002
 5010SOL    HW225030   4.691   6.167   4.874
 5011SOL     OW25031   1.979   3.706   7.759
 5011SOL    HW125032   1.972   3.638   7.686
 5011SOL    HW225033   2.075   3.725   7.779
 5012SOL     OW25034   0.332   3.543   2.249
 5012SOL    HW125035   0.300   3.593   2.329
 5012SOL    HW225036   0.326   3.600   2.168
 5013SOL     OW25037   0.498   4.151   4.123
 5013SOL    HW125038   0.446   4.140   4.208
 5013SOL    HW225039   0.522   4.061   4.085
 5014SOL     OW25040   2.349   4.428   6.265
 5014SOL    HW125041   2.400   4.385   6.191
 5014SOL    HW225042   2.251   4.428   6.243
 5015SOL     OW25043   1.159   5.242   5.437
 5015SOL    HW125044   1.171   5.284   5.347
 5015SOL    HW225045   1.081   5.178   5.435
 5016SOL     OW25046   3.590   1.920   1.216
 5016SOL    HW125047   3.499   1.882   1.199
 5016SOL    HW225048   3.607   1.924   1.314
 5017SOL     OW25049   1.282   6.091   3.067
 5017SOL    HW125050   1.200   6.043   3.097
 5017SOL    HW225051   1.328   6.040   2.995
 5018SOL     OW25052   7.003   3.555   3.605
 5018SOL    HW125053   7.102   3.568   3.597
 5018SOL    HW225054   6.955   3.613   3.539
 5019SOL     OW25055   5.781   1.666   5.418
 5019SOL    HW125056   5.859   1.622   5.463
 5019SOL    HW225057   5.779   1.640   5.321
 5020SOL     OW25058   4.976   2.500   7.081
 5020SOL    HW125059   4.964   2.580   7.022
 5020SOL    HW225060   4.955   2.523   7.175
 5021SOL     OW25061   0.537   4.889   1.171
 5021SOL    HW125062   0.569   4.853   1.259
 5021SOL    HW225063   0.616   4.909   1.112
 5022SOL     OW25064   0.655   0.864   2.158
 5022SOL    HW125065   0.583   0.930   2.183
 5022SOL    HW225066   0.639   0.831   2.065
 5023SOL     OW25067   2.171   4.087   3.528
 5023SOL    HW125068   2.205   4.179   3.546
 5023SOL    HW225069   2.124   4.051   3.609
 5024SOL     OW25070   4.345   3.533   0.530
 5024SOL    HW125071   4.325   3.630   0.519
 5024SOL    HW225072   4.416   3.520   0.599
 5025SOL     OW25073   4.785   2.893   3.929
 5025SOL    HW125074   4.766   2.850   3.841
 5025SOL    HW225075   4.871   2.945   3.923
 5026SOL     OW25076  -0.007   6.870   2.677
 5026SOL    HW125077  -0.045   6.941   2.617
 5026SOL    HW225078   0.032   6.912   2.758
 5027SOL     OW25079   7.665   7.748   2.372
 5027SOL    HW125080   7.572   7.719   2.396
 5027SOL    HW225081   7.726   7.733   2.450
 5028SOL     OW25082   6.721   7.885   1.439
 5028SOL    HW125083   6.766   7.974   1.431
 5028SOL    HW225084   6.763   7.819   1.377
 5029SOL     OW25085   4.369   4.510   1.962
 5029SOL    HW125086   4.375   4.521   1.862
 5029SOL    HW225087   4.440   4.448   1.994
 5030SOL     OW25088   3.312   5.801   3.181
 5030SOL    HW125089   3.399   5.836   3.145
 5030SOL    HW225090   3.270   5.869   3.240
 5031SOL     OW25091   6.334   2.558   1.614
 5031SOL    HW125092   6.328   2.502   1.531
 5031SOL    HW225093   6.248   2.552   1.665
 5032SOL     OW25094   6.122   4.502   4.336
 5032SOL    HW125095   6.028   4.512   4.304
 5032SOL    HW225096   6.144   4.406   4.350
 5033SOL     OW25097   7.042   1.960   6.916
 5033SOL    HW125098   7.003   2.052   6.906
 5033SOL    HW225099   6.971   1.897   6.947
 5034SOL     OW25100   7.766   7.795   5.163
 5034SOL    HW125101   7.763   7.708   5.114
 5034SOL    HW225102   7.745   7.779   5.260
 5035SOL     OW25103   3.012   0.335   2.901
 5035SOL    HW125104   3.059   0.331   2.989
 5035SOL    HW225105   2.913   0.337   2.914
 5036SOL     OW25106   1.833   4.298   1.365
 5036SOL    HW125107   1.830   4.319   1.463
 5036SOL    HW225108   1.771   4.358   1.315
 5037SOL     OW25109   7.871   4.607   0.256
 5037SOL    HW125110   7.793   4.661   0.224
 5037SOL    HW225111   7.900   4.637   0.347
 5038SOL     OW25112   3.563   4.283   4.231
 5038SOL    HW125113   3.513   4.368   4.213
 5038SOL    HW225114   3.506   4.204   4.209
 5039SOL     OW25115   5.194   2.675   3.345
 5039SOL    HW125116   5.129   2.726   3.402
 5039SOL    HW225117   5.198   2.714   3.254
 5040SOL     OW25118   4.533   5.991   7.023
 5040SOL    HW125119   4.501   5.942   7.104
 5040SOL    HW225120   4.577   5.928   6.960
 5041SOL     OW25121   5.295   0.690   2.694
 5041SOL    HW125122   5.340   0.773   2.727
 5041SOL    HW225123   5.223   0.714   2.629
 5042SOL     OW25124   6.352   5.261   0.568
 5042SOL    HW125125   6.391   5.350   0.544
 5042SOL    HW225126   6.263   5.249   0.523
 5043SOL     OW25127   7.103   7.412   2.182
 5043SOL    HW125128   7.072   7.319   2.158
 5043SOL    HW225129   7.073   7.477   2.112
 5044SOL     OW25130   5.000   6.536   2.527
 5044SOL    HW125131   4.935   6.468   2.560
 5044SOL    HW225132   5.027   6.596   2.603
 5045SOL     OW25133   0.058   4.704   7.286
 5045SOL    HW125134   0.047   4.613   7.324
 5045SOL    HW225135   0.089   4.699   7.191
 5046SOL     OW25136   6.314   1.365   1.109
 5046SOL    HW125137   6.388   1.302   1.132
 5046SOL    HW225138   6.333   1.409   1.022
 5047SOL     OW25139   5.789   6.864   2.891
 5047SOL    HW125140   5.865   6.897   2.947
 5047SOL    HW225141   5.822   6.837   2.801
 5048SOL     OW25142   3.876   6.527   6.351
 5048SOL    HW125143   3.941   6.457   6.321
 5048SOL    HW225144   3.792   6.485   6.384
 5049SOL     OW25145   2.330   2.637   4.066
 5049SOL    HW125146   2.236   2.634   4.030
 5049SOL    HW225147   2.332   2.687   4.152
 5050SOL     OW25148   3.756   5.683   6.675
 5050SOL    HW125149   3.679   5.732   6.635
 5050SOL    HW225150   3.814   5.746   6.727
 5051SOL     OW25151   0.759   7.602   4.890
 5051SOL    HW125152   0.713   7.526   4.843
 5051SOL    HW225153   0.858   7.589   4.888
 5052SOL     OW25154   2.860   6.598   6.789
 5052SOL    HW125155   2.892   6.544   6.711
 5052SOL    HW225156   2.894   6.691   6.783
 5053SOL     OW25157  -0.004   2.820   4.084
 5053SOL    HW125158   0.079   2.776   4.049
 5053SOL    HW225159  -0.045   2.876   4.012
 5054SOL     OW25160   5.820   7.692   0.417
 5054SOL    HW125161   5.919   7.683   0.428
 5054SOL    HW225162   5.774   7.607   0.442
 5055SOL     OW25163   5.688   2.337   7.057
 5055SOL    HW125164   5.633   2.339   6.974
 5055SOL    HW225165   5.745   2.419   7.062
 5056SOL     OW25166   4.848   0.929   2.300
 5056SOL    HW125167   4.925   0.866   2.312
 5056SOL    HW225168   4.843   0.991   2.378
 5057SOL     OW25169   0.297   1.212   3.038
 5057SOL    HW125170   0.324   1.149   2.965
 5057SOL    HW225171   0.251   1.292   2.998
 5058SOL     OW25172   6.449   0.904   5.602
 5058SOL    HW125173   6.444   0.897   5.701
 5058SOL    HW225174   6.396   0.831   5.560
 5059SOL     OW25175   6.622   1.817   2.225
 5059SOL    HW125176   6.667   1.805   2.314
 5059SOL    HW225177   6.621   1.914   2.200
 5060SOL     OW25178   3.862   1.042   3.479
 5060SOL    HW125179   3.909   1.124   3.512
 5060SOL    HW225180   3.829   1.056   3.386
 5061SOL     OW25181   6.818   1.736   4.979
 5061SOL    HW125182   6.847   1.649   5.020
 5061SOL    HW225183   6.790   1.799   5.052
 5062SOL     OW25184   5.820   6.505   6.384
 5062SOL    HW125185   5.741   6.518   6.324
 5062SOL    HW225186   5.891   6.453   6.338
 5063SOL     OW25187   0.609   3.227   0.944
 5063SOL    HW125188   0.565   3.252   1.030
 5063SOL    HW225189   0.656   3.307   0.906
 5064SOL     OW25190   6.107   2.839   3.792
 5064SOL    HW125191   6.023   2.806   3.836
 5064SOL    HW225192   6.137   2.773   3.723
 5065SOL     OW25193   1.151   4.010   1.757
 5065SOL    HW125194   1.072   3.996   1.697
 5065SOL    HW225195   1.218   4.068   1.711
 5066SOL     OW25196   5.772   5.266   7.431
 5066SOL    HW125197   5.747   5.231   7.522
 5066SOL    HW225198   5.870   5.254   7.417
 5067SOL     OW25199   6.908   6.248   4.784
 5067SOL    HW125200   6.892   6.319   4.715
 5067SOL    HW225201   6.859   6.164   4.759
 5068SOL     OW25202   6.313   1.905   6.644
 5068SOL    HW125203   6.295   1.894   6.546
 5068SOL    HW225204   6.233   1.941   6.691
 5069SOL     OW25205   3.769   4.125   5.683
 5069SOL    HW125206   3.672   4.133   5.660
 5069SOL    HW225207   3.824   4.128   5.600
 5070SOL     OW25208   4.053   2.722   7.661
 5070SOL    HW125209   4.139   2.767   7.637
 5070SOL    HW225210   4.058   2.686   7.754
 5071SOL     OW25211   0.761   0.453   4.343
 5071SOL    HW125212   0.708   0.537   4.326
 5071SOL    HW225213   0.739   0.385   4.273
 5072SOL     OW25214   1.708   0.221   3.312
 5072SOL    HW125215   1.720   0.308   3.359
 5072SOL    HW225216   1.726   0.145   3.375
 5073SOL     OW25217   1.121   1.320   7.087
 5073SOL    HW125218   1.209   1.348   7.049
 5073SOL    HW225219   1.068   1.270   7.017
 5074SOL     OW25220   3.018   7.440   5.345
 5074SOL    HW125221   3.110   7.437   5.306
 5074SOL    HW225222   3.020   7.403   5.438
 5075SOL     OW25223   6.116   6.542   6.264
 5075SOL    HW125224   6.051   6.617   6.280
 5075SOL    HW225225   6.071   6.468   6.214
 5076SOL     OW25226   7.377   5.306   5.346
 5076SOL    HW125227   7.351   5.307   5.250
 5076SOL    HW225228   7.299   5.331   5.403
 5077SOL     OW25229   0.757   6.092   5.839
 5077SOL    HW125230   0.851   6.122   5.825
 5077SOL    HW225231   0.694   6.167   5.822
 5078SOL     OW25232   5.243   6.684   6.841
 5078SOL    HW125233   5.323   6.724   6.886
 5078SOL    HW225234   5.159   6.725   6.877
 5079SOL     OW25235   7.914   5.822   0.539
 5079SOL    HW125236   7.956   5.791   0.454
 5079SOL    HW225237   7.830   5.873   0.519
 5080SOL     OW25238   2.627   1.989   6.451
 5080SOL    HW125239   2.619   1.928   6.373
 5080SOL    HW225240   2.722   2.017   6.463
 5081SOL     OW25241   3.339   2.622   5.022
 5081SOL    HW125242   3.287   2.708   5.026
 5081SOL    HW225243   3.292   2.552   5.076
 5082SOL     OW25244   6.598   5.089   5.295
 5082SOL    HW125245   6.590   5.186   5.273
 5082SOL    HW225246   6.515   5.056   5.339
 5083SOL     OW25247   4.677   7.962   6.633
 5083SOL    HW125248   4.655   7.908   6.714
 5083SOL    HW225249   4.655   7.911   6.550
 5084SOL     OW25250   3.949   1.918   5.841
 5084SOL    HW125251   3.904   1.909   5.929
 5084SOL    HW225252   3.894   1.977   5.781
 5085SOL     OW25253   0.716   2.170   3.348
 5085SOL    HW125254   0.708   2.075   3.378
 5085SOL    HW225255   0.676   2.181   3.257
 5086SOL     OW25256   6.857   3.646   2.204
 5086SOL    HW125257   6.777   3.606   2.249
 5086SOL    HW225258   6.828   3.712   2.135
 5087SOL     OW25259   4.114   6.532   3.320
 5087SOL    HW125260   4.206   6.538   3.359
 5087SOL    HW225261   4.112   6.572   3.229
 5088SOL     OW25262   2.040   3.059   6.738
 5088SOL    HW125263   2.000   2.992   6.801
 5088SOL    HW225264   2.137   3.040   6.726
 5089SOL     OW25265   4.908   0.797   5.645
 5089SOL    HW125266   4.860   0.721   5.601
 5089SOL    HW225267   4.847   0.843   5.709
 5090SOL     OW25268   5.107   5.510   4.738
 5090SOL    HW125269   5.096   5.469   4.648
 5090SOL    HW225270   5.030   5.484   4.797
 5091SOL     OW25271   5.067   5.116   3.107
 5091SOL    HW125272   4.990   5.106   3.171
 5091SOL    HW225273   5.037   5.097   3.014
 5092SOL     OW25274   0.475   0.346   0.480
 5092SOL    HW125275   0.545   0.387   0.539
 5092SOL    HW225276   0.488   0.247   0.476
 5093SOL     OW25277   5.810   6.440   6.594
 5093SOL    HW125278   5.715   6.455   6.621
 5093SOL    HW225279   5.842   6.352   6.629
 5094SOL     OW25280   5.898   2.267   2.474
 5094SOL    HW125281   5.945   2.181   2.493
 5094SOL    HW225282   5.836   2.289   2.549
 5095SOL     OW25283   7.915   1.824   2.348
 5095SOL    HW125284   7.830   1.849   2.394
 5095SOL    HW225285   7.952   1.903   2.299
 5096SOL     OW25286   4.728   5.128   5.824
 5096SOL    HW125287   4.678   5.186   5.760
 5096SOL    HW225288   4.754   5.181   5.905
 5097SOL     OW25289   1.427   5.102   6.559
 5097SOL    HW125290   1.373   5.082   6.642
 5097SOL    HW225291   1.398   5.043   6.484
 5098SOL     OW25292   1.797   4.044   5.640
 5098SOL    HW125293   1.699   4.062   5.648
 5098SOL    HW225294   1.823   4.045   5.543
 5099SOL     OW25295   7.225   4.162   6.209
 5099SOL    HW125296   7.192   4.175   6.115
 5099SOL    HW225297   7.193   4.237   6.267
 5100SOL     OW25298   4.662   4.009   1.618
 5100SOL    HW125299   4.679   3.947   1.695
 5100SOL    HW225300   4.738   4.073   1.608
 5101SOL     OW25301   6.018   6.621   4.752
 5101SOL    HW125302   6.023   6.713   4.791
 5101SOL    HW225303   6.042   6.553   4.822
 5102SOL     OW25304   3.635   5.964   4.180
 5102SOL    HW125305   3.670   6.048   4.138
 5102SOL    HW225306   3.679   5.950   4.269
 5103SOL     OW25307   2.968   1.854   1.299
 5103SOL    HW125308   3.044   1.859   1.235
 5103SOL    HW225309   2.992   1.793   1.376
 5104SOL     OW25310   3.462   1.521   2.789
 5104SOL    HW125311   3.454   1.609   2.834
 5104SOL    HW225312   3.415   1.451   2.843
 5105SOL     OW25313   1.047   3.473   5.436
 5105SOL    HW125314   0.962   3.520   5.461
 5105SOL    HW225315   1.124   3.536   5.444
 5106SOL     OW25316   1.411   7.255   0.949
 5106SOL    HW125317   1.438   7.166   0.985
 5106SOL    HW225318   1.454   7.271   0.860
 5107SOL     OW25319   3.941   4.162   3.275
 5107SOL    HW125320   4.014   4.217   3.316
 5107SOL    HW225321   3.932   4.183   3.177
 5108SOL     OW25322   7.827   5.767   2.251
 5108SOL    HW125323   7.770   5.693   2.215
 5108SOL    HW225324   7.801   5.788   2.345
 5109SOL     OW25325   1.712   4.783   2.855
 5109SOL    HW125326   1.705   4.713   2.927
 5109SOL    HW225327   1.765   4.860   2.888
 5110SOL     OW25328   5.346   0.327   2.008
 5110SOL    HW125329   5.272   0.388   1.979
 5110SOL    HW225330   5.423   0.334   1.944
 5111SOL     OW25331   3.918   2.112   4.153
 5111SOL    HW125332   3.865   2.198   4.148
 5111SOL    HW225333   3.915   2.066   4.064
 5112SOL     OW25334   5.123   7.344   5.224
 5112SOL    HW125335   5.066   7.399   5.163
 5112SOL    HW225336   5.069   7.312   5.301
 5113SOL     OW25337   4.197   2.099   6.140
 5113SOL    HW125338   4.267   2.040   6.100
 5113SOL    HW225339   4.111   2.049   6.150
 5114SOL     OW25340   4.127   0.125   2.465
 5114SOL    HW125341   4.200   0.078   2.415
 5114SOL    HW225342   4.089   0.065   2.535
 5115SOL     OW25343   1.515   6.647   6.534
 5115SOL    HW125344   1.492   6.738   6.499
 5115SOL    HW225345   1.608   6.647   6.570
 5116SOL     OW25346   6.458   2.162   6.746
 5116SOL    HW125347   6.535   2.097   6.753
 5116SOL    HW225348   6.377   2.115   6.712
 5117SOL     OW25349   0.840   1.969   1.657
 5117SOL    HW125350   0.894   1.963   1.741
 5117SOL    HW225351   0.889   2.024   1.590
 5118SOL     OW25352   7.503   6.391   5.130
 5118SOL    HW125353   7.550   6.426   5.211
 5118SOL    HW225354   7.569   6.356   5.064
 5119SOL     OW25355   6.403   1.399   7.261
 5119SOL    HW125356   6.417   1.302   7.240
 5119SOL    HW225357   6.347   1.442   7.189
 5120SOL     OW25358   2.645   5.825   2.516
 5120SOL    HW125359   2.696   5.766   2.579
 5120SOL    HW225360   2.591   5.891   2.568
 5121SOL     OW25361   7.380   4.758   4.094
 5121SOL    HW125362   7.386   4.691   4.167
 5121SOL    HW225363   7.448   4.737   4.023
 5122SOL     OW25364   5.867   7.410   4.046
 5122SOL    HW125365   5.784   7.441   4.091
 5122SOL    HW225366   5.858   7.420   3.946
 5123SOL     OW25367   5.238   1.537   0.875
 5123SOL    HW125368   5.144   1.538   0.909
 5123SOL    HW225369   5.296   1.484   0.936
 5124SOL     OW25370   1.814   7.129   1.246
 5124SOL    HW125371   1.904   7.147   1.285
 5124SOL    HW225372   1.749   7.111   1.319
 5125SOL     OW25373   1.634  -0.004   5.296
 5125SOL    HW125374   1.622   0.027   5.391
 5125SOL    HW225375   1.567   0.039   5.237
 5126SOL     OW25376   6.732   6.913   6.675
 5126SOL    HW125377   6.644   6.929   6.630
 5126SOL    HW225378   6.719   6.902   6.773
 5127SOL     OW25379   7.333   4.921   6.778
 5127SOL    HW125380   7.297   4.985   6.709
 5127SOL    HW225381   7.407   4.867   6.738
 5128SOL     OW25382   5.240   3.245   3.486
 5128SOL    HW125383   5.238   3.145   3.478
 5128SOL    HW225384   5.178   3.275   3.558
 5129SOL     OW25385   5.913   7.672   4.166
 5129SOL    HW125386   5.898   7.761   4.208
 5129SOL    HW225387   5.878   7.600   4.226
 5130SOL     OW25388   6.056   7.589   3.116
 5130SOL    HW125389   6.116   7.669   3.129
 5130SOL    HW225390   6.099   7.525   3.052
 5131SOL     OW25391   1.968   3.914   7.044
 5131SOL    HW125392   1.999   3.873   6.958
 5131SOL    HW225393   2.047   3.942   7.099
 5132SOL     OW25394  -0.045   5.467   4.231
 5132SOL    HW125395  -0.042   5.455   4.330
 5132SOL    HW225396  -0.004   5.555   4.206
 5133SOL     OW25397   4.995   0.664   2.720
 5133SOL    HW125398   4.997   0.746   2.663
 5133SOL    HW225399   5.073   0.664   2.783
 5134SOL     OW25400   5.163   7.596   7.679
 5134SOL    HW125401   5.136   7.690   7.698
 5134SOL    HW225402   5.112   7.561   7.601
 5135SOL     OW25403   0.013   3.177   4.122
 5135SOL    HW125404   0.037   3.212   4.213
 5135SOL    HW225405   0.088   3.194   4.058
 5136SOL     OW25406   1.155   3.603   2.185
 5136SOL    HW125407   1.187   3.685   2.136
 5136SOL    HW225408   1.195   3.600   2.276
 5137SOL     OW25409   2.758   5.449   1.854
 5137SOL    HW125410   2.747   5.413   1.761
 5137SOL    HW225411   2.678   5.427   1.908
 5138SOL     OW25412   6.508   7.818   1.985
 5138SOL    HW125413   6.552   7.907   1.973
 5138SOL    HW225414   6.567   7.758   2.038
 5139SOL     OW25415   4.767   2.965   7.935
 5139SOL    HW125416   4.790   2.983   7.839
 5139SOL    HW225417   4.744   2.869   7.947
 5140SOL     OW25418   0.376   5.392   6.326
 5140SOL    HW125419   0.458   5.367   6.274
 5140SOL    HW225420   0.373   5.490   6.340
 5141SOL     OW25421   4.045   1.680   4.660
 5141SOL    HW125422   4.083   1.596   4.621
 5141SOL    HW225423   4.063   1.757   4.599
 5142SOL     OW25424   5.723   1.709   5.808
 5142SOL    HW125425   5.823   1.699   5.807
 5142SOL    HW225426   5.689   1.710   5.714
 5143SOL     OW25427   2.806   3.872   0.403
 5143SOL    HW125428   2.856   3.949   0.365
 5143SOL    HW225429   2.840   3.851   0.495
 5144SOL     OW25430   5.777   7.849   7.336
 5144SOL    HW125431   5.867   7.880   7.305
 5144SOL    HW225432   5.718   7.831   7.257
 5145SOL     OW25433   7.041   7.779   2.592
 5145SOL    HW125434   7.023   7.759   2.688
 5145SOL    HW225435   6.958   7.817   2.549
 5146SOL     OW25436   2.767   6.602   3.799
 5146SOL    HW125437   2.777   6.674   3.731
 5146SOL    HW225438   2.736   6.640   3.886
 5147SOL     OW25439   4.612   4.793   5.279
 5147SOL    HW125440   4.588   4.844   5.197
 5147SOL    HW225441   4.711   4.781   5.284
 5148SOL     OW25442   2.291   2.531   5.290
 5148SOL    HW125443   2.294   2.492   5.197
 5148SOL    HW225444   2.382   2.526   5.331
 5149SOL     OW25445   4.537   2.648   0.471
 5149SOL    HW125446   4.562   2.744   0.455
 5149SOL    HW225447   4.519   2.634   0.568
 5150SOL     OW25448   6.149   3.900   4.685
 5150SOL    HW125449   6.075   3.929   4.745
 5150SOL    HW225450   6.136   3.805   4.657
 5151SOL     OW25451   5.722   1.931   1.249
 5151SOL    HW125452   5.729   1.838   1.286
 5151SOL    HW225453   5.765   1.936   1.159
 5152SOL     OW25454   3.116   0.468   6.014
 5152SOL    HW125455   3.060   0.408   5.956
 5152SOL    HW225456   3.068   0.554   6.031
 5153SOL     OW25457   5.587   1.586   4.602
 5153SOL    HW125458   5.616   1.495   4.632
 5153SOL    HW225459   5.595   1.594   4.503
 5154SOL     OW25460   6.009   4.495   1.252
 5154SOL    HW125461   6.025   4.408   1.206
 5154SOL    HW225462   5.971   4.479   1.343
 5155SOL     OW25463   4.806   2.012   7.765
 5155SOL    HW125464   4.785   1.939   7.700
 5155SOL    HW225465   4.847   2.090   7.717
 5156SOL     OW25466   3.856   3.013   2.061
 5156SOL    HW125467   3.942   2.987   2.018
 5156SOL    HW225468   3.851   2.976   2.154
 5157SOL     OW25469   1.617   0.668   0.814
 5157SOL    HW125470   1.569   0.594   0.861
 5157SOL    HW225471   1.686   0.630   0.752
 5158SOL     OW25472   2.054   7.303   5.304
 5158SOL    HW125473   2.002   7.348   5.377
 5158SOL    HW225474   2.130   7.251   5.343
 5159SOL     OW25475   0.304   7.105   4.961
 5159SOL    HW125476   0.284   7.188   5.013
 5159SOL    HW225477   0.281   7.119   4.865
 5160SOL     OW25478   6.668   2.402   3.379
 5160SOL    HW125479   6.759   2.370   3.352
 5160SOL    HW225480   6.644   2.363   3.469
 5161SOL     OW25481   7.560   4.419   2.393
 5161SOL    HW125482   7.548   4.476   2.311
 5161SOL    HW225483   7.547   4.474   2.475
 5162SOL     OW25484   2.768   7.160   2.633
 5162SOL    HW125485   2.754   7.103   2.715
 5162SOL    HW225486   2.863   7.153   2.602
 5163SOL     OW25487   2.843   3.009   7.069
 5163SOL    HW125488   2.857   2.996   7.167
 5163SOL    HW225489   2.877   2.930   7.019
 5164SOL     OW25490   5.878   5.261   0.086
 5164SOL    HW125491   5.947   5.222   0.024
 5164SOL    HW225492   5.860   5.196   0.160
 5165SOL     OW25493   1.476   1.128   4.208
 5165SOL    HW125494   1.485   1.158   4.113
 5165SOL    HW225495   1.564   1.132   4.255
 5166SOL     OW25496   2.149   4.770   5.108
 5166SOL    HW125497   2.243   4.738   5.125
 5166SOL    HW225498   2.141   4.804   5.015
 5167SOL     OW25499   2.907   0.480   2.591
 5167SOL    HW125500   2.983   0.424   2.558
 5167SOL    HW225501   2.867   0.531   2.515
 5168SOL     OW25502   5.690   1.645   1.505
 5168SOL    HW125503   5.599   1.643   1.463
 5168SOL    HW225504   5.684   1.683   1.598
 5169SOL     OW25505   6.121   2.518   7.532
 5169SOL    HW125506   6.075   2.580   7.594
 5169SOL    HW225507   6.143   2.565   7.446
 5170SOL     OW25508   1.947   6.781   5.455
 5170SOL    HW125509   1.894   6.699   5.476
 5170SOL    HW225510   1.976   6.780   5.359
 5171SOL     OW25511   1.081   0.236   4.107
 5171SOL    HW125512   1.118   0.145   4.086
 5171SOL    HW225513   0.990   0.228   4.146
 5172SOL     OW25514   7.270   5.748   0.201
 5172SOL    HW125515   7.239   5.834   0.160
 5172SOL    HW225516   7.330   5.767   0.279
 5173SOL     OW25517   7.307   1.837   0.272
 5173SOL    HW125518   7.237   1.767   0.287
 5173SOL    HW225519   7.355   1.820   0.187
 5174SOL     OW25520   3.262   6.416   3.494
 5174SOL    HW125521   3.263   6.321   3.523
 5174SOL    HW225522   3.306   6.425   3.405
 5175SOL     OW25523   7.955   5.654   5.492
 5175SOL    HW125524   7.910   5.591   5.556
 5175SOL    HW225525   7.929   5.630   5.398
 5176SOL     OW25526   4.341   6.784   5.754
 5176SOL    HW125527   4.286   6.842   5.693
 5176SOL    HW225528   4.383   6.841   5.825
 5177SOL     OW25529   6.301   6.468   3.489
 5177SOL    HW125530   6.384   6.470   3.546
 5177SOL    HW225531   6.255   6.557   3.494
 5178SOL     OW25532   5.425   7.233   7.280
 5178SOL    HW125533   5.335   7.268   7.304
 5178SOL    HW225534   5.496   7.287   7.326
 5179SOL     OW25535   0.783   0.113   2.428
 5179SOL    HW125536   0.742   0.189   2.379
 5179SOL    HW225537   0.841   0.147   2.503
 5180SOL     OW25538   2.008   0.133   5.191
 5180SOL    HW125539   2.022   0.223   5.148
 5180SOL    HW225540   2.088   0.075   5.174
 5181SOL     OW25541   6.405   3.579   6.628
 5181SOL    HW125542   6.472   3.528   6.575
 5181SOL    HW225543   6.452   3.649   6.683
 5182SOL     OW25544   0.687   1.697   7.680
 5182SOL    HW125545   0.721   1.605   7.699
 5182SOL    HW225546   0.624   1.726   7.752
 5183SOL     OW25547   1.796   4.177   6.562
 5183SOL    HW125548   1.858   4.205   6.636
 5183SOL    HW225549   1.761   4.257   6.515
 5184SOL     OW25550   2.966   5.674   6.062
 5184SOL    HW125551   2.916   5.760   6.054
 5184SOL    HW225552   3.030   5.664   5.987
 5185SOL     OW25553   7.278   2.036   0.565
 5185SOL    HW125554   7.229   2.055   0.650
 5185SOL    HW225555   7.224   2.070   0.487
 5186SOL     OW25556   3.248   0.695   1.051
 5186SOL    HW125557   3.337   0.658   1.078
 5186SOL    HW225558   3.254   0.738   0.961
 5187SOL     OW25559   0.260   7.571   5.357
 5187SOL    HW125560   0.168   7.534   5.374
 5187SOL    HW225561   0.322   7.545   5.430
 5188SOL     OW25562   5.631   2.698   6.510
 5188SOL    HW125563   5.700   2.661   6.447
 5188SOL    HW225564   5.594   2.624   6.567
 5189SOL     OW25565   2.575   3.107   6.889
 5189SOL    HW125566   2.494   3.091   6.832
 5189SOL    HW225567   2.607   3.021   6.928
 5190SOL     OW25568   6.542   0.094   1.645
 5190SOL    HW125569   6.449   0.129   1.656
 5190SOL    HW225570   6.583   0.076   1.734
 5191SOL     OW25571   1.613   1.097   0.292
 5191SOL    HW125572   1.658   1.173   0.245
 5191SOL    HW225573   1.564   1.130   0.372
 5192SOL     OW25574   2.613   4.976   7.030
 5192SOL    HW125575   2.524   5.011   7.061
 5192SOL    HW225576   2.608   4.948   6.935
 5193SOL     OW25577   5.911   4.356   4.407
 5193SOL    HW125578   5.842   4.426   4.429
 5193SOL    HW225579   5.977   4.349   4.482
 5194SOL     OW25580   4.745   1.782   1.654
 5194SOL    HW125581   4.838   1.810   1.630
 5194SOL    HW225582   4.743   1.744   1.746
 5195SOL     OW25583   2.184   4.130   4.086
 5195SOL    HW125584   2.193   4.219   4.041
 5195SOL    HW225585   2.104   4.131   4.146
 5196SOL     OW25586   4.161   5.319   0.691
 5196SOL    HW125587   4.190   5.321   0.787
 5196SOL    HW225588   4.229   5.364   0.634
 5197SOL     OW25589   5.726   4.141   2.171
 5197SOL    HW125590   5.703   4.171   2.079
 5197SOL    HW225591   5.819   4.105   2.173
 5198SOL     OW25592   2.681   3.903   4.993
 5198SOL    HW125593   2.653   3.992   4.956
 5198SOL    HW225594   2.744   3.916   5.069
 5199SOL     OW25595   2.888   2.755   5.391
 5199SOL    HW125596   2.910   2.692   5.317
 5199SOL    HW225597   2.959   2.751   5.461
 5200SOL     OW25598   3.707   5.609   0.080
 5200SOL    HW125599   3.660   5.523   0.101
 5200SOL    HW225600   3.804   5.591   0.063
 5201SOL     OW25601   1.009   6.907   7.575
 5201SOL    HW125602   1.061   6.836   7.622
 5201SOL    HW225603   1.054   6.930   7.489
 5202SOL     OW25604   1.151   4.542   6.774
 5202SOL    HW125605   1.132   4.640   6.767
 5202SOL    HW225606   1.182   4.520   6.867
 5203SOL     OW25607   6.965   4.818   5.765
 5203SOL    HW125608   7.002   4.878   5.836
 5203SOL    HW225609   6.999   4.725   5.777
 5204SOL     OW25610   1.554   2.103   1.017
 5204SOL    HW125611   1.621   2.160   1.065
 5204SOL    HW225612   1.463   2.143   1.026
 5205SOL     OW25613   3.308   1.407   0.321
 5205SOL    HW125614   3.353   1.350   0.252
 5205SOL    HW225615   3.273   1.351   0.396
 5206SOL     OW25616   3.401   0.969   6.797
 5206SOL    HW125617   3.422   1.056   6.842
 5206SOL    HW225618   3.448   0.964   6.709
 5207SOL     OW25619   0.192   0.341   6.550
 5207SOL    HW125620   0.120   0.404   6.580
 5207SOL    HW225621   0.156   0.280   6.479
 5208SOL     OW25622   5.833   4.673   3.550
 5208SOL    HW125623   5.746   4.679   3.500
 5208SOL    HW225624   5.881   4.589   3.525
 5209SOL     OW25625   4.128   2.448   7.699
 5209SOL    HW125626   4.184   2.499   7.764
 5209SOL    HW225627   4.031   2.458   7.722
 5210SOL     OW25628   2.828   6.072   2.599
 5210SOL    HW125629   2.730   6.056   2.613
 5210SOL    HW225630   2.878   5.986   2.607
 5211SOL     OW25631   0.813   6.223   7.529
 5211SOL    HW125632   0.809   6.305   7.586
 5211SOL    HW225633   0.893   6.227   7.469
 5212SOL     OW25634   6.843   3.930   5.225
 5212SOL    HW125635   6.800   3.882   5.302
 5212SOL    HW225636   6.887   3.865   5.164
 5213SOL     OW25637   6.181   7.425   0.695
 5213SOL    HW125638   6.082   7.418   0.682
 5213SOL    HW225639   6.223   7.334   0.690
 5214SOL     OW25640   2.934   0.021   6.596
 5214SOL    HW125641   3.000   0.096   6.593
 5214SOL    HW225642   2.924  -0.011   6.691
 5215SOL     OW25643   3.571   1.466   4.881
 5215SOL    HW125644   3.647   1.515   4.839
 5215SOL    HW225645   3.561   1.493   4.977
 5216SOL     OW25646   7.752   3.292   6.326
 5216SOL    HW125647   7.805   3.221   6.372
 5216SOL    HW225648   7.775   3.294   6.228
 5217SOL     OW25649   1.972   6.863   1.191
 5217SOL    HW125650   2.042   6.834   1.256
 5217SOL    HW225651   1.887   6.813   1.206
 5218SOL     OW25652   1.592   6.711   2.621
 5218SOL    HW125653   1.666   6.682   2.681
 5218SOL    HW225654   1.546   6.632   2.581
 5219SOL     OW25655   0.752   2.882   1.474
 5219SOL    HW125656   0.734   2.786   1.452
 5219SOL    HW225657   0.850   2.901   1.471
 5220SOL     OW25658   6.136   1.566   7.541
 5220SOL    HW125659   6.139   1.547   7.442
 5220SOL    HW225660   6.099   1.487   7.589
 5221SOL     OW25661   2.132  -0.011   4.947
 5221SOL    HW125662   2.037  -0.008   4.977
 5221SOL    HW225663   2.138   0.001   4.848
 5222SOL     OW25664   3.551   5.815   7.010
 5222SOL    HW125665   3.560   5.874   7.091
 5222SOL    HW225666   3.474   5.753   7.022
 5223SOL     OW25667   6.916   4.044   4.686
 5223SOL    HW125668   6.933   4.084   4.596
 5223SOL    HW225669   6.941   3.947   4.685
 5224SOL     OW25670   7.337   3.064   2.525
 5224SOL    HW125671   7.417   3.009   2.552
 5224SOL    HW225672   7.342   3.155   2.566
 5225SOL     OW25673   6.416   2.598   3.806
 5225SOL    HW125674   6.456   2.553   3.726
 5225SOL    HW225675   6.321   2.622   3.787
 5226SOL     OW25676   2.216   3.175   1.329
 5226SOL    HW125677   2.230   3.267   1.292
 5226SOL    HW225678   2.266   3.164   1.415
 5227SOL     OW25679   1.864   7.401   5.807
 5227SOL    HW125680   1.827   7.355   5.888
 5227SOL    HW225681   1.791   7.452   5.760
 5228SOL     OW25682   1.792   6.942   3.468
 5228SOL    HW125683   1.713   6.928   3.408
 5228SOL    HW225684   1.868   6.884   3.439
 5229SOL     OW25685   5.367   0.770   6.772
 5229SOL    HW125686   5.312   0.790   6.691
 5229SOL    HW225687   5.440   0.706   6.749
 5230SOL     OW25688   7.652   5.317   5.980
 5230SOL    HW125689   7.627   5.343   5.887
 5230SOL    HW225690   7.570   5.300   6.034
 5231SOL     OW25691   4.871   2.991   3.430
 5231SOL    HW125692   4.911   3.082   3.428
 5231SOL    HW225693   4.876   2.953   3.522
 5232SOL     OW25694   3.131   7.586   2.675
 5232SOL    HW125695   3.214   7.592   2.620
 5232SOL    HW225696   3.148   7.529   2.756
 5233SOL     OW25697   5.668   4.590   4.223
 5233SOL    HW125698   5.758   4.550   4.241
 5233SOL    HW225699   5.674   4.654   4.147
 5234SOL     OW25700   1.714   5.190   3.139
 5234SOL    HW125701   1.616   5.210   3.146
 5234SOL    HW225702   1.729   5.092   3.127
 5235SOL     OW25703   6.341   4.709   0.320
 5235SOL    HW125704   6.367   4.803   0.340
 5235SOL    HW225705   6.243   4.696   0.339
 5236SOL     OW25706   2.221   1.617   4.462
 5236SOL    HW125707   2.267   1.590   4.546
 5236SOL    HW225708   2.251   1.708   4.434
 5237SOL     OW25709   2.691   4.598   0.965
 5237SOL    HW125710   2.762   4.558   0.907
 5237SOL    HW225711   2.664   4.533   1.036
 5238SOL     OW25712   3.851   3.387   3.129
 5238SOL    HW125713   3.780   3.354   3.067
 5238SOL    HW225714   3.813   3.399   3.221
 5239SOL     OW25715   1.760   1.808   5.684
 5239SOL    HW125716   1.817   1.731   5.655
 5239SOL    HW225717   1.719   1.789   5.773
 5240SOL     OW25718   5.596   3.133   4.328
 5240SOL    HW125719   5.504   3.123   4.290
 5240SOL    HW225720   5.664   3.105   4.261
 5241SOL     OW25721   6.927   7.990   0.857
 5241SOL    HW125722   7.016   7.981   0.904
 5241SOL    HW225723   6.929   7.941   0.770
 5242SOL     OW25724   6.550   7.119   7.781
 5242SOL    HW125725   6.462   7.079   7.808
 5242SOL    HW225726   6.609   7.049   7.741
 5243SOL     OW25727   6.174   7.694   5.481
 5243SOL    HW125728   6.172   7.794   5.488
 5243SOL    HW225729   6.082   7.659   5.469
 5244SOL     OW25730   2.819   4.968   6.527
 5244SOL    HW125731   2.910   5.006   6.547
 5244SOL    HW225732   2.809   4.954   6.429
 5245SOL     OW25733   4.607   6.630   6.993
 5245SOL    HW125734   4.615   6.697   6.920
 5245SOL    HW225735   4.691   6.575   6.998
 5246SOL     OW25736   2.451   1.592   3.094
 5246SOL    HW125737   2.523   1.551   3.038
 5246SOL    HW225738   2.394   1.520   3.134
 5247SOL     OW25739   3.908   1.492   5.447
 5247SOL    HW125740   3.916   1.459   5.541
 5247SOL    HW225741   3.991   1.540   5.420
 5248SOL     OW25742   3.926   1.946   7.098
 5248SOL    HW125743   3.922   2.044   7.117
 5248SOL    HW225744   3.839   1.915   7.059
 5249SOL     OW25745   6.567   3.853   0.862
 5249SOL    HW125746   6.497   3.783   0.845
 5249SOL    HW225747   6.616   3.832   0.947
 5250SOL     OW25748   7.380   3.440   1.010
 5250SOL    HW125749   7.421   3.354   1.039
 5250SOL    HW225750   7.451   3.504   0.981
 5251SOL     OW25751   0.172   2.327   5.592
 5251SOL    HW125752   0.255   2.320   5.537
 5251SOL    HW225753   0.194   2.313   5.689
 5252SOL     OW25754   6.232   6.701   3.016
 5252SOL    HW125755   6.159   6.757   3.054
 5252SOL    HW225756   6.308   6.760   2.986
 5253SOL     OW25757   2.528   3.841   7.008
 5253SOL    HW125758   2.584   3.865   6.929
 5253SOL    HW225759   2.500   3.924   7.057
 5254SOL     OW25760   2.587   4.072   2.391
 5254SOL    HW125761   2.662   4.105   2.449
 5254SOL    HW225762   2.503   4.066   2.445
 5255SOL     OW25763   5.416   1.007   6.800
 5255SOL    HW125764   5.492   1.015   6.736
 5255SOL    HW225765   5.329   1.001   6.750
 5256SOL     OW25766   1.389   5.705   6.747
 5256SOL    HW125767   1.341   5.620   6.726
 5256SOL    HW225768   1.422   5.747   6.662
 5257SOL     OW25769   3.684   4.127   2.049
 5257SOL    HW125770   3.597   4.176   2.059
 5257SOL    HW225771   3.749   4.184   2.000
 5258SOL     OW25772   2.160   7.941   7.212
 5258SOL    HW125773   2.236   7.989   7.256
 5258SOL    HW225774   2.158   7.963   7.114
 5259SOL     OW25775   3.873   4.816   5.265
 5259SOL    HW125776   3.803   4.874   5.222
 5259SOL    HW225777   3.938   4.873   5.314
 5260SOL     OW25778   7.691   4.560   0.872
 5260SOL    HW125779   7.660   4.488   0.935
 5260SOL    HW225780   7.712   4.520   0.783
 5261SOL     OW25781   3.343   3.689   1.505
 5261SOL    HW125782   3.398   3.669   1.424
 5261SOL    HW225783   3.346   3.613   1.569
 5262SOL     OW25784   1.760   4.476   6.442
 5262SOL    HW125785   1.734   4.419   6.364
 5262SOL    HW225786   1.692   4.467   6.515
 5263SOL     OW25787   6.406   0.555   1.296
 5263SOL    HW125788   6.485   0.495   1.305
 5263SOL    HW225789   6.325   0.502   1.271
 5264SOL     OW25790   5.519   3.229   7.289
 5264SOL    HW125791   5.444   3.163   7.278
 5264SOL    HW225792   5.583   3.220   7.212
 5265SOL     OW25793   6.076   5.399   5.977
 5265SOL    HW125794   6.073   5.334   6.054
 5265SOL    HW225795   6.012   5.369   5.906
 5266SOL     OW25796   5.767   5.981   6.469
 5266SOL    HW125797   5.728   6.024   6.388
 5266SOL    HW225798   5.768   6.046   6.545
 5267SOL     OW25799   4.032   4.478   0.915
 5267SOL    HW125800   4.011   4.381   0.929
 5267SOL    HW225801   3.996   4.508   0.826
 5268SOL     OW25802   3.639   2.159   0.161
 5268SOL    HW125803   3.600   2.249   0.180
 5268SOL    HW225804   3.720   2.169   0.103
 5269SOL     OW25805   3.214   2.341   2.006
 5269SOL    HW125806   3.291   2.318   2.066
 5269SOL    HW225807   3.185   2.435   2.023
 5270SOL     OW25808   5.808   1.859   2.367
 5270SOL    HW125809   5.773   1.773   2.330
 5270SOL    HW225810   5.770   1.874   2.459
 5271SOL     OW25811   3.375   6.100   1.107
 5271SOL    HW125812   3.446   6.044   1.063
 5271SOL    HW225813   3.391   6.196   1.086
 5272SOL     OW25814   6.775   1.863   3.847
 5272SOL    HW125815   6.779   1.956   3.885
 5272SOL    HW225816   6.691   1.851   3.795
 5273SOL     OW25817   4.518   1.292   2.165
 5273SOL    HW125818   4.572   1.227   2.219
 5273SOL    HW225819   4.565   1.310   2.078
 5274SOL     OW25820   5.064   2.259   2.579
 5274SOL    HW125821   5.101   2.262   2.672
 5274SOL    HW225822   5.134   2.291   2.514
 5275SOL     OW25823   5.545   2.945   2.418
 5275SOL    HW125824   5.516   3.031   2.377
 5275SOL    HW225825   5.549   2.874   2.347
 5276SOL     OW25826   0.932   4.165   5.133
 5276SOL    HW125827   0.924   4.105   5.212
 5276SOL    HW225828   0.898   4.118   5.051
 5277SOL     OW25829   4.446   2.316   7.387
 5277SOL    HW125830   4.399   2.401   7.363
 5277SOL    HW225831   4.499   2.284   7.309
 5278SOL     OW25832   4.326   4.336   0.738
 5278SOL    HW125833   4.336   4.271   0.663
 5278SOL    HW225834   4.334   4.429   0.703
 5279SOL     OW25835   5.405   2.854   3.923
 5279SOL    HW125836   5.395   2.944   3.966
 5279SOL    HW225837   5.411   2.864   3.823
 5280SOL     OW25838   5.298   4.606   0.978
 5280SOL    HW125839   5.245   4.676   1.027
 5280SOL    HW225840   5.259   4.592   0.887
 5281SOL     OW25841   1.426   7.183   1.928
 5281SOL    HW125842   1.342   7.233   1.907
 5281SOL    HW225843   1.424   7.093   1.884
 5282SOL     OW25844   3.205   5.823   0.069
 5282SOL    HW125845   3.263   5.887   0.018
 5282SOL    HW225846   3.229   5.729   0.046
 5283SOL     OW25847   5.026   5.101   5.536
 5283SOL    HW125848   4.978   5.185   5.510
 5283SOL    HW225849   5.086   5.119   5.614
 5284SOL     OW25850   1.405   3.130   7.721
 5284SOL    HW125851   1.353   3.048   7.744
 5284SOL    HW225852   1.367   3.209   7.770
 5285SOL     OW25853   6.216   2.451   7.166
 5285SOL    HW125854   6.130   2.482   7.125
 5285SOL    HW225855   6.228   2.491   7.256
 5286SOL     OW25856   7.795   3.576   5.825
 5286SOL    HW125857   7.892   3.600   5.822
 5286SOL    HW225858   7.760   3.564   5.732
 5287SOL     OW25859   7.327   4.533   5.680
 5287SOL    HW125860   7.294   4.620   5.717
 5287SOL    HW225861   7.261   4.496   5.615
 5288SOL     OW25862   7.325   1.037   4.899
 5288SOL    HW125863   7.286   0.955   4.857
 5288SOL    HW225864   7.347   1.104   4.829
 5289SOL     OW25865   4.058   1.935   0.467
 5289SOL    HW125866   4.144   1.927   0.518
 5289SOL    HW225867   4.073   1.985   0.382
 5290SOL     OW25868   3.969   0.509   4.883
 5290SOL    HW125869   4.017   0.429   4.919
 5290SOL    HW225870   3.998   0.526   4.788
 5291SOL     OW25871   2.181   1.608   0.352
 5291SOL    HW125872   2.109   1.574   0.413
 5291SOL    HW225873   2.154   1.593   0.257
 5292SOL     OW25874   6.411   4.478   5.844
 5292SOL    HW125875   6.340   4.545   5.870
 5292SOL    HW225876   6.392   4.442   5.752
 5293SOL     OW25877   0.894   6.709   7.717
 5293SOL    HW125878   0.860   6.783   7.776
 5293SOL    HW225879   0.981   6.675   7.751
 5294SOL     OW25880   1.592   2.013   5.797
 5294SOL    HW125881   1.600   1.963   5.710
 5294SOL    HW225882   1.594   1.948   5.873
 5295SOL     OW25883   7.053   5.834   1.498
 5295SOL    HW125884   6.994   5.860   1.421
 5295SOL    HW225885   6.997   5.800   1.573
 5296SOL     OW25886   0.700   7.877   7.201
 5296SOL    HW125887   0.740   7.968   7.210
 5296SOL    HW225888   0.751   7.811   7.256
 5297SOL     OW25889   1.811   7.189   4.500
 5297SOL    HW125890   1.865   7.260   4.545
 5297SOL    HW225891   1.849   7.170   4.409
 5298SOL     OW25892   0.002   6.998   4.921
 5298SOL    HW125893   0.005   7.029   4.825
 5298SOL    HW225894   0.076   6.933   4.938
 5299SOL     OW25895   0.020   6.003   4.688
 5299SOL    HW125896  -0.045   5.933   4.717
 5299SOL    HW225897   0.025   6.075   4.758
 5300SOL     OW25898   6.527   7.223   6.109
 5300SOL    HW125899   6.443   7.196   6.155
 5300SOL    HW225900   6.576   7.292   6.164
 5301SOL     OW25901   2.184   1.234   2.865
 5301SOL    HW125902   2.180   1.240   2.765
 5301SOL    HW225903   2.157   1.142   2.894
 5302SOL     OW25904   2.833   4.772   2.887
 5302SOL    HW125905   2.923   4.729   2.885
 5302SOL    HW225906   2.786   4.749   2.973
 5303SOL     OW25907   4.019   1.773   1.908
 5303SOL    HW125908   3.964   1.804   1.985
 5303SOL    HW225909   4.087   1.707   1.939
 5304SOL     OW25910   4.513   1.708   3.814
 5304SOL    HW125911   4.445   1.775   3.783
 5304SOL    HW225912   4.544   1.652   3.737
 5305SOL     OW25913   7.777   1.702   7.082
 5305SOL    HW125914   7.724   1.783   7.059
 5305SOL    HW225915   7.717   1.629   7.114
 5306SOL     OW25916   4.386   5.269   1.722
 5306SOL    HW125917   4.425   5.184   1.687
 5306SOL    HW225918   4.440   5.303   1.799
 5307SOL     OW25919   4.589   2.614   6.725
 5307SOL    HW125920   4.596   2.710   6.698
 5307SOL    HW225921   4.600   2.555   6.646
 5308SOL     OW25922   0.599   6.313   7.403
 5308SOL    HW125923   0.577   6.398   7.450
 5308SOL    HW225924   0.659   6.332   7.325
 5309SOL     OW25925   0.434   1.496   1.879
 5309SOL    HW125926   0.449   1.483   1.977
 5309SOL    HW225927   0.384   1.418   1.841
 5310SOL     OW25928   7.628   2.572   7.665
 5310SOL    HW125929   7.669   2.584   7.574
 5310SOL    HW225930   7.697   2.584   7.736
 5311SOL     OW25931   2.327   6.884   0.305
 5311SOL    HW125932   2.391   6.819   0.346
 5311SOL    HW225933   2.269   6.838   0.238
 5312SOL     OW25934   7.252   0.373   7.711
 5312SOL    HW125935   7.334   0.428   7.729
 5312SOL    HW225936   7.233   0.371   7.613
 5313SOL     OW25937   0.955   2.312   7.073
 5313SOL    HW125938   0.948   2.285   7.169
 5313SOL    HW225939   1.040   2.362   7.057
 5314SOL     OW25940   1.881   6.230   0.144
 5314SOL    HW125941   1.955   6.190   0.090
 5314SOL    HW225942   1.908   6.236   0.239
 5315SOL     OW25943   0.538   1.620   2.195
 5315SOL    HW125944   0.565   1.625   2.099
 5315SOL    HW225945   0.594   1.552   2.243
 5316SOL     OW25946   2.818   2.245   1.970
 5316SOL    HW125947   2.792   2.149   1.983
 5316SOL    HW225948   2.758   2.287   1.901
 5317SOL     OW25949   6.086   3.381   2.401
 5317SOL    HW125950   6.066   3.329   2.318
 5317SOL    HW225951   6.026   3.352   2.475
 5318SOL     OW25952   1.316   1.906   1.992
 5318SOL    HW125953   1.319   1.908   2.092
 5318SOL    HW225954   1.378   1.974   1.955
 5319SOL     OW25955   7.524   4.720   5.776
 5319SOL    HW125956   7.480   4.668   5.849
 5319SOL    HW225957   7.507   4.677   5.687
 5320SOL     OW25958   0.454   1.190   1.248
 5320SOL    HW125959   0.380   1.246   1.286
 5320SOL    HW225960   0.442   1.182   1.149
 5321SOL     OW25961   4.449   4.523   2.238
 5321SOL    HW125962   4.523   4.463   2.269
 5321SOL    HW225963   4.480   4.581   2.164
 5322SOL     OW25964   3.931   4.635   2.851
 5322SOL    HW125965   3.978   4.572   2.913
 5322SOL    HW225966   3.937   4.601   2.757
 5323SOL     OW25967   1.357   2.248   7.858
 5323SOL    HW125968   1.398   2.266   7.769
 5323SOL    HW225969   1.423   2.199   7.916
 5324SOL     OW25970   5.100   5.168   6.741
 5324SOL    HW125971   5.021   5.199   6.689
 5324SOL    HW225972   5.172   5.138   6.678
 5325SOL     OW25973   1.265   7.239   0.751
 5325SOL    HW125974   1.288   7.232   0.654
 5325SOL    HW225975   1.167   7.253   0.762
 5326SOL     OW25976   2.863   0.111   5.848
 5326SOL    HW125977   2.917   0.131   5.929
 5326SOL    HW225978   2.843   0.013   5.844
 5327SOL     OW25979   2.099   5.992   4.224
 5327SOL    HW125980   2.003   5.963   4.223
 5327SOL    HW225981   2.159   5.913   4.210
 5328SOL     OW25982   5.551   5.181   7.749
 5328SOL    HW125983   5.648   5.198   7.731
 5328SOL    HW225984   5.496   5.213   7.672
 5329SOL     OW25985   7.415   6.855   7.710
 5329SOL    HW125986   7.350   6.848   7.635
 5329SOL    HW225987   7.473   6.773   7.713
 5330SOL     OW25988   7.423   6.334   3.326
 5330SOL    HW125989   7.337   6.288   3.304
 5330SOL    HW225990   7.437   6.335   3.425
 5331SOL     OW25991   4.961   0.928   4.147
 5331SOL    HW125992   4.961   0.830   4.169
 5331SOL    HW225993   4.979   0.940   4.049
 5332SOL     OW25994   3.532   5.952   2.711
 5332SOL    HW125995   3.492   5.882   2.771
 5332SOL    HW225996   3.460   6.003   2.664
 5333SOL     OW25997   4.366   7.370   6.869
 5333SOL    HW125998   4.364   7.444   6.802
 5333SOL    HW225999   4.348   7.405   6.961
 5334SOL     OW26000   1.768   3.710   1.222
 5334SOL    HW126001   1.850   3.682   1.271
 5334SOL    HW226002   1.788   3.725   1.126
 5335SOL     OW26003   7.157   4.773   6.570
 5335SOL    HW126004   7.210   4.688   6.566
 5335SOL    HW226005   7.166   4.823   6.483
 5336SOL     OW26006   6.591   2.767   4.375
 5336SOL    HW126007   6.614   2.763   4.472
 5336SOL    HW226008   6.492   2.769   4.363
 5337SOL     OW26009   2.321   1.139   6.692
 5337SOL    HW126010   2.297   1.180   6.604
 5337SOL    HW226011   2.253   1.164   6.761
 5338SOL     OW26012   1.999   2.042   4.378
 5338SOL    HW126013   1.942   2.019   4.457
 5338SOL    HW226014   1.947   2.101   4.316
 5339SOL     OW26015   7.889   6.911   6.597
 5339SOL    HW126016   7.928   7.003   6.599
 5339SOL    HW226017   7.857   6.885   6.688
 5340SOL     OW26018   2.535   1.949   7.824
 5340SOL    HW126019   2.464   1.949   7.895
 5340SOL    HW226020   2.525   2.030   7.767
 5341SOL     OW26021   7.224   2.500   3.840
 5341SOL    HW126022   7.256   2.587   3.879
 5341SOL    HW226023   7.186   2.517   3.749
 5342SOL     OW26024   5.397   5.204   7.186
 5342SOL    HW126025   5.460   5.130   7.207
 5342SOL    HW226026   5.435   5.262   7.114
 5343SOL     OW26027   5.748   6.318   7.256
 5343SOL    HW126028   5.677   6.324   7.326
 5343SOL    HW226029   5.733   6.388   7.186
 5344SOL     OW26030   0.825   6.404   5.557
 5344SOL    HW126031   0.751   6.440   5.499
 5344SOL    HW226032   0.874   6.480   5.600
 5345SOL     OW26033   5.858   1.580   6.697
 5345SOL    HW126034   5.796   1.536   6.762
 5345SOL    HW226035   5.811   1.656   6.651
 5346SOL     OW26036   0.532   3.836   4.192
 5346SOL    HW126037   0.619   3.880   4.171
 5346SOL    HW226038   0.547   3.762   4.258
 5347SOL     OW26039   0.035   5.130   5.974
 5347SOL    HW126040  -0.045   5.091   6.019
 5347SOL    HW226041   0.096   5.058   5.943
 5348SOL     OW26042   1.378   2.591   4.623
 5348SOL    HW126043   1.427   2.623   4.704
 5348SOL    HW226044   1.395   2.494   4.609
 5349SOL     OW26045   7.566   3.184   4.721
 5349SOL    HW126046   7.575   3.097   4.672
 5349SOL    HW226047   7.636   3.248   4.688
 5350SOL     OW26048   0.965   2.164   1.903
 5350SOL    HW126049   1.043   2.226   1.908
 5350SOL    HW226050   0.923   2.170   1.812
 5351SOL     OW26051   5.323   2.504   0.362
 5351SOL    HW126052   5.263   2.465   0.432
 5351SOL    HW226053   5.395   2.439   0.339
 5352SOL     OW26054   3.145   0.536   4.447
 5352SOL    HW126055   3.086   0.513   4.369
 5352SOL    HW226056   3.130   0.471   4.521
 5353SOL     OW26057   0.799   6.264   6.936
 5353SOL    HW126058   0.809   6.345   6.994
 5353SOL    HW226059   0.837   6.184   6.982
 5354SOL     OW26060   1.444   6.032   4.327
 5354SOL    HW126061   1.420   6.109   4.267
 5354SOL    HW226062   1.388   5.953   4.305
 5355SOL     OW26063   7.810   2.010   5.147
 5355SOL    HW126064   7.821   2.094   5.094
 5355SOL    HW226065   7.898   1.982   5.185
 5356SOL     OW26066   7.795   6.506   4.644
 5356SOL    HW126067   7.787   6.592   4.695
 5356SOL    HW226068   7.732   6.507   4.566
 5357SOL     OW26069   1.218   4.945   0.752
 5357SOL    HW126070   1.248   4.968   0.845
 5357SOL    HW226071   1.185   5.026   0.705
 5358SOL     OW26072   7.444   0.186   6.384
 5358SOL    HW126073   7.358   0.136   6.394
 5358SOL    HW226074   7.436   0.255   6.312
 5359SOL     OW26075   2.985   5.615   0.706
 5359SOL    HW126076   2.902   5.668   0.686
 5359SOL    HW226077   3.028   5.649   0.789
 5360SOL     OW26078   7.908   1.574   2.081
 5360SOL    HW126079   7.809   1.559   2.077
 5360SOL    HW226080   7.932   1.614   2.169
 5361SOL     OW26081   7.526   6.821   7.464
 5361SOL    HW126082   7.475   6.902   7.434
 5361SOL    HW226083   7.464   6.744   7.478
 5362SOL     OW26084   2.857   7.915   2.107
 5362SOL    HW126085   2.827   7.949   2.017
 5362SOL    HW226086   2.886   7.820   2.099
 5363SOL     OW26087   4.311   7.460   6.400
 5363SOL    HW126088   4.295   7.409   6.485
 5363SOL    HW226089   4.248   7.428   6.329
 5364SOL     OW26090   2.789   7.735   7.221
 5364SOL    HW126091   2.799   7.668   7.296
 5364SOL    HW226092   2.865   7.800   7.224
 5365SOL     OW26093   2.533   4.810   4.606
 5365SOL    HW126094   2.619   4.766   4.633
 5365SOL    HW226095   2.457   4.772   4.658
 5366SOL     OW26096   1.877   5.745   4.684
 5366SOL    HW126097   1.834   5.676   4.742
 5366SOL    HW226098   1.973   5.722   4.670
 5367SOL     OW26099   1.801   6.337   7.992
 5367SOL    HW126100   1.786   6.427   7.950
 5367SOL    HW226101   1.864   6.284   7.936
 5368SOL     OW26102   7.479   5.416   2.485
 5368SOL    HW126103   7.460   5.319   2.504
 5368SOL    HW226104   7.553   5.423   2.418
 5369SOL     OW26105   1.709   5.863   5.152
 5369SOL    HW126106   1.666   5.779   5.119
 5369SOL    HW226107   1.734   5.853   5.248
 5370SOL     OW26108   6.678   3.112   2.496
 5370SOL    HW126109   6.677   3.017   2.527
 5370SOL    HW226110   6.720   3.119   2.406
 5371SOL     OW26111   4.679   4.032   2.925
 5371SOL    HW126112   4.631   4.120   2.919
 5371SOL    HW226113   4.761   4.041   2.981
 5372SOL     OW26114   4.616   1.514   4.049
 5372SOL    HW126115   4.633   1.519   3.950
 5372SOL    HW226116   4.531   1.465   4.067
 5373SOL     OW26117   6.240   6.834   1.583
 5373SOL    HW126118   6.157   6.786   1.610
 5373SOL    HW226119   6.234   6.862   1.487
 5374SOL     OW26120   2.738   0.212   1.362
 5374SOL    HW126121   2.672   0.227   1.436
 5374SOL    HW226122   2.767   0.116   1.362
 5375SOL     OW26123   5.812   0.894   6.707
 5375SOL    HW126124   5.853   0.863   6.793
 5375SOL    HW226125   5.774   0.986   6.719
 5376SOL     OW26126   0.985   0.852   6.929
 5376SOL    HW126127   1.057   0.919   6.911
 5376SOL    HW226128   0.992   0.776   6.864
 5377SOL     OW26129   4.961   0.111   1.411
 5377SOL    HW126130   4.927   0.027   1.453
 5377SOL    HW226131   4.936   0.113   1.314
 5378SOL     OW26132   0.798   0.184   4.480
 5378SOL    HW126133   0.730   0.170   4.407
 5378SOL    HW226134   0.808   0.281   4.498
 5379SOL     OW26135   6.179   4.194   4.561
 5379SOL    HW126136   6.113   4.120   4.548
 5379SOL    HW226137   6.206   4.232   4.473
 5380SOL     OW26138   2.407   2.175   3.997
 5380SOL    HW126139   2.465   2.094   4.007
 5380SOL    HW226140   2.323   2.162   4.049
 5381SOL     OW26141   0.432   6.341   6.341
 5381SOL    HW126142   0.511   6.302   6.293
 5381SOL    HW226143   0.348   6.299   6.306
 5382SOL     OW26144   7.774   5.610   1.235
 5382SOL    HW126145   7.854   5.560   1.204
 5382SOL    HW226146   7.793   5.655   1.322
 5383SOL     OW26147   7.405   6.704   2.260
 5383SOL    HW126148   7.317   6.725   2.218
 5383SOL    HW226149   7.398   6.711   2.360
 5384SOL     OW26150   7.407   1.005   5.323
 5384SOL    HW126151   7.387   1.005   5.225
 5384SOL    HW226152   7.333   1.049   5.374
 5385SOL     OW26153   5.219   3.449   2.234
 5385SOL    HW126154   5.242   3.357   2.265
 5385SOL    HW226155   5.159   3.494   2.300
 5386SOL     OW26156   3.856   3.595   6.149
 5386SOL    HW126157   3.885   3.649   6.228
 5386SOL    HW226158   3.927   3.597   6.079
 5387SOL     OW26159   3.766   7.711   2.310
 5387SOL    HW126160   3.782   7.793   2.256
 5387SOL    HW226161   3.668   7.690   2.313
 5388SOL     OW26162   4.562   6.264   0.988
 5388SOL    HW126163   4.488   6.196   0.982
 5388SOL    HW226164   4.643   6.222   1.029
 5389SOL     OW26165   4.578   6.309   1.299
 5389SOL    HW126166   4.671   6.336   1.327
 5389SOL    HW226167   4.583   6.224   1.247
 5390SOL     OW26168   2.063   7.852   3.771
 5390SOL    HW126169   2.090   7.894   3.685
 5390SOL    HW226170   2.106   7.898   3.848
 5391SOL     OW26171   0.883   4.851   6.707
 5391SOL    HW126172   0.784   4.841   6.717
 5391SOL    HW226173   0.912   4.941   6.738
 5392SOL     OW26174   0.181   6.988   1.266
 5392SOL    HW126175   0.211   7.053   1.336
 5392SOL    HW226176   0.257   6.929   1.239
 5393SOL     OW26177   6.283   3.519   2.660
 5393SOL    HW126178   6.259   3.574   2.740
 5393SOL    HW226179   6.291   3.423   2.685
 5394SOL     OW26180   0.920   2.008   2.243
 5394SOL    HW126181   0.861   1.954   2.182
 5394SOL    HW226182   0.913   1.973   2.336
 5395SOL     OW26183   2.926   2.423   6.837
 5395SOL    HW126184   2.954   2.518   6.851
 5395SOL    HW226185   2.992   2.376   6.778
 5396SOL     OW26186   1.596   0.205   5.800
 5396SOL    HW126187   1.513   0.257   5.822
 5396SOL    HW226188   1.595   0.179   5.704
 5397SOL     OW26189   4.194   4.949   3.652
 5397SOL    HW126190   4.152   5.032   3.689
 5397SOL    HW226191   4.236   4.896   3.726
 5398SOL     OW26192   0.542   3.855   6.438
 5398SOL    HW126193   0.519   3.953   6.431
 5398SOL    HW226194   0.570   3.833   6.531
 5399SOL     OW26195   7.628   5.137   7.042
 5399SOL    HW126196   7.667   5.201   7.108
 5399SOL    HW226197   7.673   5.048   7.051
 5400SOL     OW26198   5.588   4.340   4.208
 5400SOL    HW126199   5.676   4.344   4.160
 5400SOL    HW226200   5.543   4.253   4.189
 5401SOL     OW26201   2.521   6.868   6.388
 5401SOL    HW126202   2.602   6.816   6.414
 5401SOL    HW226203   2.533   6.964   6.412
 5402SOL     OW26204   0.035   2.128   5.028
 5402SOL    HW126205   0.019   2.194   5.102
 5402SOL    HW226206   0.041   2.036   5.065
 5403SOL     OW26207   6.639   3.211   4.660
 5403SOL    HW126208   6.620   3.121   4.701
 5403SOL    HW226209   6.733   3.237   4.678
 5404SOL     OW26210   7.579   6.962   5.409
 5404SOL    HW126211   7.532   6.875   5.422
 5404SOL    HW226212   7.607   6.973   5.314
 5405SOL     OW26213   4.166   5.399   4.294
 5405SOL    HW126214   4.221   5.321   4.324
 5405SOL    HW226215   4.225   5.475   4.268
 5406SOL     OW26216   0.157   4.250   4.603
 5406SOL    HW126217   0.079   4.310   4.622
 5406SOL    HW226218   0.242   4.297   4.628
 5407SOL     OW26219   3.212   5.562   5.761
 5407SOL    HW126220   3.198   5.470   5.725
 5407SOL    HW226221   3.179   5.567   5.855
 5408SOL     OW26222   6.518   0.830   0.498
 5408SOL    HW126223   6.439   0.783   0.538
 5408SOL    HW226224   6.487   0.909   0.445
 5409SOL     OW26225   1.437   5.708   4.138
 5409SOL    HW126226   1.356   5.654   4.113
 5409SOL    HW226227   1.431   5.736   4.233
 5410SOL     OW26228   0.493   1.748   6.899
 5410SOL    HW126229   0.455   1.682   6.964
 5410SOL    HW226230   0.518   1.701   6.814
 5411SOL     OW26231   5.756   7.858   3.661
 5411SOL    HW126232   5.845   7.896   3.690
 5411SOL    HW226233   5.721   7.796   3.731
 5412SOL     OW26234   4.837   3.241   7.449
 5412SOL    HW126235   4.750   3.255   7.498
 5412SOL    HW226236   4.911   3.225   7.514
 5413SOL     OW26237   6.063   6.487   3.279
 5413SOL    HW126238   6.052   6.414   3.212
 5413SOL    HW226239   5.984   6.488   3.341
 5414SOL     OW26240   6.232   3.474   4.137
 5414SOL    HW126241   6.271   3.530   4.210
 5414SOL    HW226242   6.168   3.528   4.083
 5415SOL     OW26243   0.024   6.414   0.909
 5415SOL    HW126244   0.028   6.319   0.878
 5415SOL    HW226245   0.008   6.475   0.830
 5416SOL     OW26246   0.290   6.123   6.068
 5416SOL    HW126247   0.304   6.107   6.166
 5416SOL    HW226248   0.346   6.200   6.038
 5417SOL     OW26249   1.918   2.455   6.366
 5417SOL    HW126250   1.976   2.416   6.438
 5417SOL    HW226251   1.972   2.469   6.283
 5418SOL     OW26252   2.264   5.543   7.016
 5418SOL    HW126253   2.321   5.597   6.954
 5418SOL    HW226254   2.175   5.587   7.027
 5419SOL     OW26255   1.667   4.477   0.915
 5419SOL    HW126256   1.576   4.448   0.887
 5419SOL    HW226257   1.663   4.571   0.950
 5420SOL     OW26258   7.381   2.818   1.449
 5420SOL    HW126259   7.396   2.799   1.351
 5420SOL    HW226260   7.450   2.882   1.482
 5421SOL     OW26261   4.251   5.369   2.744
 5421SOL    HW126262   4.199   5.322   2.672
 5421SOL    HW226263   4.341   5.396   2.709
 5422SOL     OW26264   3.604   0.395   1.884
 5422SOL    HW126265   3.658   0.320   1.923
 5422SOL    HW226266   3.641   0.420   1.794
 5423SOL     OW26267   3.817   1.595   2.419
 5423SOL    HW126268   3.810   1.693   2.398
 5423SOL    HW226269   3.882   1.552   2.356
 5424SOL     OW26270   1.529   6.666   2.354
 5424SOL    HW126271   1.440   6.635   2.389
 5424SOL    HW226272   1.543   6.632   2.261
 5425SOL     OW26273   2.679   2.452   0.100
 5425SOL    HW126274   2.748   2.451   0.173
 5425SOL    HW226275   2.606   2.517   0.123
 5426SOL     OW26276   3.386   4.941   7.682
 5426SOL    HW126277   3.350   4.891   7.760
 5426SOL    HW226278   3.369   5.039   7.693
 5427SOL     OW26279   2.444   7.841   2.908
 5427SOL    HW126280   2.400   7.891   2.833
 5427SOL    HW226281   2.433   7.890   2.994
 5428SOL     OW26282   0.958   1.849   2.585
 5428SOL    HW126283   0.947   1.757   2.622
 5428SOL    HW226284   0.998   1.844   2.493
 5429SOL     OW26285   1.387   7.550   2.865
 5429SOL    HW126286   1.289   7.543   2.884
 5429SOL    HW226287   1.438   7.490   2.926
 5430SOL     OW26288   6.314   2.261   1.714
 5430SOL    HW126289   6.327   2.309   1.801
 5430SOL    HW226290   6.357   2.313   1.640
 5431SOL     OW26291   4.104   7.413   1.792
 5431SOL    HW126292   4.135   7.457   1.707
 5431SOL    HW226293   4.083   7.317   1.774
 5432SOL     OW26294   6.131   5.649   5.186
 5432SOL    HW126295   6.166   5.742   5.194
 5432SOL    HW226296   6.180   5.589   5.250
 5433SOL     OW26297   1.715   2.015   1.885
 5433SOL    HW126298   1.809   2.048   1.870
 5433SOL    HW226299   1.697   1.937   1.826
 5434SOL     OW26300   1.427   2.698   3.090
 5434SOL    HW126301   1.398   2.794   3.084
 5434SOL    HW226302   1.470   2.670   3.004
 5435SOL     OW26303   0.316   1.376   5.389
 5435SOL    HW126304   0.294   1.454   5.331
 5435SOL    HW226305   0.351   1.301   5.333
 5436SOL     OW26306   4.644   6.519   7.937
 5436SOL    HW126307   4.552   6.494   7.966
 5436SOL    HW226308   4.641   6.598   7.876
 5437SOL     OW26309   1.577   3.649   4.182
 5437SOL    HW126310   1.549   3.592   4.259
 5437SOL    HW226311   1.666   3.691   4.201
 5438SOL     OW26312   0.369   2.529   5.590
 5438SOL    HW126313   0.279   2.542   5.548
 5438SOL    HW226314   0.367   2.561   5.685
 5439SOL     OW26315   3.103   1.874   4.576
 5439SOL    HW126316   3.157   1.932   4.514
 5439SOL    HW226317   3.006   1.895   4.566
 5440SOL     OW26318   2.815   3.250   2.342
 5440SOL    HW126319   2.766   3.196   2.410
 5440SOL    HW226320   2.904   3.209   2.323
 5441SOL     OW26321   4.938   3.137   6.131
 5441SOL    HW126322   4.857   3.157   6.186
 5441SOL    HW226323   5.019   3.135   6.188
 5442SOL     OW26324   3.932   1.123   5.472
 5442SOL    HW126325   3.938   1.219   5.445
 5442SOL    HW226326   3.984   1.108   5.557
 5443SOL     OW26327   3.257   7.651   1.291
 5443SOL    HW126328   3.348   7.661   1.330
 5443SOL    HW226329   3.250   7.567   1.238
 5444SOL     OW26330   7.562   3.890   2.257
 5444SOL    HW126331   7.618   3.840   2.323
 5444SOL    HW226332   7.531   3.830   2.184
 5445SOL     OW26333   5.612   1.155   1.410
 5445SOL    HW126334   5.658   1.074   1.375
 5445SOL    HW226335   5.515   1.152   1.388
 5446SOL     OW26336   3.562   2.450   4.063
 5446SOL    HW126337   3.640   2.483   4.009
 5446SOL    HW226338   3.582   2.460   4.161
 5447SOL     OW26339   2.805   0.524   1.179
 5447SOL    HW126340   2.841   0.432   1.166
 5447SOL    HW226341   2.789   0.542   1.276
 5448SOL     OW26342   4.806   1.803   2.202
 5448SOL    HW126343   4.854   1.739   2.141
 5448SOL    HW226344   4.755   1.752   2.271
 5449SOL     OW26345   0.374   6.609   4.892
 5449SOL    HW126346   0.353   6.512   4.881
 5449SOL    HW226347   0.411   6.646   4.807
 5450SOL     OW26348   4.155   6.233   0.787
 5450SOL    HW126349   4.114   6.226   0.877
 5450SOL    HW226350   4.215   6.313   0.782
 5451SOL     OW26351   7.014   4.242   1.123
 5451SOL    HW126352   7.073   4.311   1.079
 5451SOL    HW226353   7.042   4.151   1.094
 5452SOL     OW26354   4.048   0.823   2.553
 5452SOL    HW126355   4.074   0.865   2.641
 5452SOL    HW226356   3.994   0.887   2.499
 5453SOL     OW26357   7.186   4.945   3.166
 5453SOL    HW126358   7.216   4.850   3.159
 5453SOL    HW226359   7.201   4.978   3.259
 5454SOL     OW26360   5.016   2.917   1.075
 5454SOL    HW126361   4.982   2.979   1.004
 5454SOL    HW226362   4.944   2.899   1.142
 5455SOL     OW26363   6.482   3.045   3.975
 5455SOL    HW126364   6.455   3.023   4.069
 5455SOL    HW226365   6.439   3.131   3.946
 5456SOL     OW26366   2.927   6.176   7.381
 5456SOL    HW126367   2.996   6.187   7.310
 5456SOL    HW226368   2.970   6.172   7.471
 5457SOL     OW26369   6.790   2.764   0.425
 5457SOL    HW126370   6.888   2.742   0.432
 5457SOL    HW226371   6.750   2.716   0.347
 5458SOL     OW26372   6.209   4.222   1.156
 5458SOL    HW126373   6.281   4.178   1.101
 5458SOL    HW226374   6.228   4.209   1.253
 5459SOL     OW26375   0.549   0.266   2.207
 5459SOL    HW126376   0.567   0.174   2.242
 5459SOL    HW226377   0.581   0.274   2.113
 5460SOL     OW26378   5.346   3.919   3.573
 5460SOL    HW126379   5.393   3.990   3.625
 5460SOL    HW226380   5.247   3.924   3.589
 5461SOL     OW26381   0.025   2.680   0.772
 5461SOL    HW126382   0.026   2.768   0.725
 5461SOL    HW226383   0.031   2.695   0.871
 5462SOL     OW26384   1.779   6.158   0.428
 5462SOL    HW126385   1.685   6.135   0.405
 5462SOL    HW226386   1.787   6.178   0.525
 5463SOL     OW26387   5.452   6.801   1.123
 5463SOL    HW126388   5.418   6.744   1.049
 5463SOL    HW226389   5.552   6.803   1.123
 5464SOL     OW26390   7.531   6.000   2.835
 5464SOL    HW126391   7.589   6.076   2.862
 5464SOL    HW226392   7.570   5.914   2.867
 5465SOL     OW26393   3.918   6.354   2.133
 5465SOL    HW126394   4.010   6.374   2.166
 5465SOL    HW226395   3.905   6.393   2.042
 5466SOL     OW26396   0.891   4.465   1.236
 5466SOL    HW126397   0.831   4.515   1.174
 5466SOL    HW226398   0.837   4.425   1.311
 5467SOL     OW26399   7.029   2.897   0.659
 5467SOL    HW126400   6.987   2.820   0.612
 5467SOL    HW226401   7.126   2.904   0.634
 5468SOL     OW26402   5.190   1.127   7.751
 5468SOL    HW126403   5.140   1.087   7.828
 5468SOL    HW226404   5.154   1.093   7.665
 5469SOL     OW26405   4.307   3.107   6.870
 5469SOL    HW126406   4.250   3.028   6.890
 5469SOL    HW226407   4.344   3.101   6.778
 5470SOL     OW26408   0.346   3.944   0.782
 5470SOL    HW126409   0.303   4.030   0.752
 5470SOL    HW226410   0.305   3.914   0.868
 5471SOL     OW26411   1.604   2.040   4.035
 5471SOL    HW126412   1.689   2.013   3.990
 5471SOL    HW226413   1.586   1.982   4.114
 5472SOL     OW26414   3.381   6.554   7.543
 5472SOL    HW126415   3.472   6.573   7.506
 5472SOL    HW226416   3.388   6.517   7.635
 5473SOL     OW26417   4.711   3.701   3.337
 5473SOL    HW126418   4.789   3.741   3.386
 5473SOL    HW226419   4.626   3.729   3.382
 5474SOL     OW26420   3.507   2.614   1.083
 5474SOL    HW126421   3.547   2.664   1.160
 5474SOL    HW226422   3.512   2.516   1.100
 5475SOL     OW26423   5.812   7.418   5.839
 5475SOL    HW126424   5.840   7.335   5.887
 5475SOL    HW226425   5.833   7.408   5.741
 5476SOL     OW26426   3.407   7.989   4.452
 5476SOL    HW126427   3.506   7.985   4.444
 5476SOL    HW226428   3.365   7.988   4.361
 5477SOL     OW26429   0.544   6.224   7.901
 5477SOL    HW126430   0.573   6.318   7.885
 5477SOL    HW226431   0.451   6.222   7.937
 5478SOL     OW26432   4.620   6.183   4.162
 5478SOL    HW126433   4.662   6.222   4.080
 5478SOL    HW226434   4.570   6.100   4.138
 5479SOL     OW26435   6.032   3.884   5.152
 5479SOL    HW126436   6.044   3.898   5.054
 5479SOL    HW226437   5.982   3.799   5.169
 5480SOL     OW26438   1.897   7.138   3.887
 5480SOL    HW126439   1.807   7.166   3.856
 5480SOL    HW226440   1.909   7.160   3.984
 5481SOL     OW26441   5.591   2.650   2.999
 5481SOL    HW126442   5.670   2.621   3.052
 5481SOL    HW226443   5.525   2.575   2.992
 5482SOL     OW26444   1.404   6.415   7.523
 5482SOL    HW126445   1.498   6.393   7.495
 5482SOL    HW226446   1.355   6.331   7.547
 5483SOL     OW26447   4.151   7.809   0.185
 5483SOL    HW126448   4.180   7.755   0.264
 5483SOL    HW226449   4.180   7.765   0.101
 5484SOL     OW26450   5.991   0.724   1.304
 5484SOL    HW126451   5.952   0.759   1.390
 5484SOL    HW226452   5.976   0.790   1.231
 5485SOL     OW26453   5.285   2.234   1.553
 5485SOL    HW126454   5.196   2.208   1.514
 5485SOL    HW226455   5.341   2.153   1.567
 5486SOL     OW26456   4.915   7.208   5.919
 5486SOL    HW126457   4.851   7.132   5.912
 5486SOL    HW226458   4.985   7.200   5.848
 5487SOL     OW26459   0.134   1.916   6.502
 5487SOL    HW126460   0.205   1.943   6.567
 5487SOL    HW226461   0.051   1.888   6.551
 5488SOL     OW26462   4.521   3.994   0.224
 5488SOL    HW126463   4.425   3.976   0.248
 5488SOL    HW226464   4.568   4.034   0.303
 5489SOL     OW26465   4.506   7.455   1.535
 5489SOL    HW126466   4.548   7.369   1.505
 5489SOL    HW226467   4.568   7.504   1.595
 5490SOL     OW26468   7.137   2.821   1.086
 5490SOL    HW126469   7.071   2.847   1.015
 5490SOL    HW226470   7.211   2.769   1.046
 5491SOL     OW26471   5.419   3.583   0.739
 5491SOL    HW126472   5.351   3.656   0.731
 5491SOL    HW226473   5.429   3.537   0.651
 5492SOL     OW26474   2.363   7.862   5.814
 5492SOL    HW126475   2.425   7.928   5.771
 5492SOL    HW226476   2.390   7.845   5.908
 5493SOL     OW26477   2.501   1.579   2.798
 5493SOL    HW126478   2.574   1.634   2.840
 5493SOL    HW226479   2.495   1.599   2.701
 5494SOL     OW26480   3.570   5.737   1.269
 5494SOL    HW126481   3.542   5.832   1.283
 5494SOL    HW226482   3.621   5.704   1.349
 5495SOL     OW26483   2.635   7.872   1.338
 5495SOL    HW126484   2.579   7.882   1.420
 5495SOL    HW226485   2.577   7.878   1.257
 5496SOL     OW26486   7.464   7.209   6.755
 5496SOL    HW126487   7.448   7.110   6.753
 5496SOL    HW226488   7.560   7.229   6.734
 5497SOL     OW26489   5.853   7.501   0.687
 5497SOL    HW126490   5.817   7.450   0.609
 5497SOL    HW226491   5.817   7.595   0.686
 5498SOL     OW26492   4.122   0.187   4.881
 5498SOL    HW126493   4.190   0.248   4.922
 5498SOL    HW226494   4.110   0.208   4.784
 5499SOL     OW26495   6.306   6.755   5.504
 5499SOL    HW126496   6.226   6.747   5.444
 5499SOL    HW226497   6.276   6.774   5.597
 5500SOL     OW26498   0.216   6.397   1.071
 5500SOL    HW126499   0.265   6.383   0.985
 5500SOL    HW226500   0.254   6.338   1.143
 5501SOL     OW26501   4.591   2.244   1.681
 5501SOL    HW126502   4.596   2.181   1.758
 5501SOL    HW226503   4.563   2.195   1.599
 5502SOL     OW26504   2.998   6.699   7.994
 5502SOL    HW126505   3.091   6.671   8.018
 5502SOL    HW226506   2.997   6.739   7.902
 5503SOL     OW26507   0.685   1.410   0.392
 5503SOL    HW126508   0.751   1.340   0.365
 5503SOL    HW226509   0.609   1.368   0.440
 5504SOL     OW26510   1.041   6.317   6.260
 5504SOL    HW126511   0.993   6.386   6.314
 5504SOL    HW226512   1.077   6.246   6.321
 5505SOL     OW26513   5.771   5.611   5.488
 5505SOL    HW126514   5.834   5.642   5.559
 5505SOL    HW226515   5.680   5.648   5.504
 5506SOL     OW26516   3.660   1.034   1.197
 5506SOL    HW126517   3.576   0.999   1.238
 5506SOL    HW226518   3.713   1.084   1.265
 5507SOL     OW26519   3.957   0.313   1.803
 5507SOL    HW126520   3.974   0.248   1.876
 5507SOL    HW226521   3.936   0.403   1.841
 5508SOL     OW26522   6.747   3.761   6.840
 5508SOL    HW126523   6.706   3.828   6.778
 5508SOL    HW226524   6.730   3.668   6.806
 5509SOL     OW26525   1.590   4.506   4.868
 5509SOL    HW126526   1.524   4.431   4.872
 5509SOL    HW226527   1.550   4.584   4.820
 5510SOL     OW26528   6.010   4.778   2.843
 5510SOL    HW126529   6.008   4.790   2.744
 5510SOL    HW226530   5.919   4.794   2.882
 5511SOL     OW26531   7.794   6.576   6.381
 5511SOL    HW126532   7.750   6.525   6.307
 5511SOL    HW226533   7.800   6.519   6.463
 5512SOL     OW26534   6.818   7.609   5.942
 5512SOL    HW126535   6.728   7.599   5.985
 5512SOL    HW226536   6.812   7.671   5.864
 5513SOL     OW26537   7.520   5.914   7.309
 5513SOL    HW126538   7.427   5.915   7.271
 5513SOL    HW226539   7.519   5.944   7.404
 5514SOL     OW26540   3.125   6.091   1.023
 5514SOL    HW126541   3.137   6.178   1.070
 5514SOL    HW226542   3.100   6.107   0.927
 5515SOL     OW26543   2.169   5.883   7.432
 5515SOL    HW126544   2.267   5.880   7.449
 5515SOL    HW226545   2.150   5.931   7.347
 5516SOL     OW26546   1.368   3.570   3.763
 5516SOL    HW126547   1.388   3.668   3.775
 5516SOL    HW226548   1.276   3.558   3.728
 5517SOL     OW26549   3.286   7.152   6.450
 5517SOL    HW126550   3.359   7.151   6.518
 5517SOL    HW226551   3.249   7.060   6.439
 5518SOL     OW26552   2.106   2.691   5.677
 5518SOL    HW126553   2.079   2.596   5.667
 5518SOL    HW226554   2.074   2.727   5.765
 5519SOL     OW26555  -0.003   3.939   5.398
 5519SOL    HW126556  -0.042   4.029   5.418
 5519SOL    HW226557   0.078   3.948   5.340
 5520SOL     OW26558   3.621   3.955   0.991
 5520SOL    HW126559   3.659   3.885   1.052
 5520SOL    HW226560   3.565   4.019   1.042
 5521SOL     OW26561   3.523   6.306   4.908
 5521SOL    HW126562   3.453   6.278   4.842
 5521SOL    HW226563   3.608   6.325   4.861
 5522SOL     OW26564   4.963   0.944   1.047
 5522SOL    HW126565   5.023   0.866   1.065
 5522SOL    HW226566   4.965   0.966   0.949
 5523SOL     OW26567   2.055   4.503   1.342
 5523SOL    HW126568   1.996   4.432   1.303
 5523SOL    HW226569   2.023   4.526   1.434
 5524SOL     OW26570   3.931   5.966   4.040
 5524SOL    HW126571   3.851   6.022   4.016
 5524SOL    HW226572   3.957   5.984   4.134
 5525SOL     OW26573   7.736   4.868   4.814
 5525SOL    HW126574   7.760   4.951   4.763
 5525SOL    HW226575   7.698   4.800   4.752
 5526SOL     OW26576   1.985   4.158   5.444
 5526SOL    HW126577   1.958   4.135   5.350
 5526SOL    HW226578   2.057   4.096   5.475
 5527SOL     OW26579   6.884   6.524   1.102
 5527SOL    HW126580   6.859   6.428   1.096
 5527SOL    HW226581   6.983   6.534   1.090
 5528SOL     OW26582   5.159   1.465   3.063
 5528SOL    HW126583   5.112   1.524   3.129
 5528SOL    HW226584   5.098   1.442   2.988
 5529SOL     OW26585   4.898   1.221   1.721
 5529SOL    HW126586   4.973   1.163   1.754
 5529SOL    HW226587   4.872   1.192   1.629
 5530SOL     OW26588   5.456   2.400   2.722
 5530SOL    HW126589   5.381   2.466   2.716
 5530SOL    HW226590   5.437   2.334   2.794
 5531SOL     OW26591   4.170   1.488   7.105
 5531SOL    HW126592   4.154   1.390   7.122
 5531SOL    HW226593   4.228   1.525   7.178
 5532SOL     OW26594   2.951   4.375   4.464
 5532SOL    HW126595   3.021   4.436   4.427
 5532SOL    HW226596   2.988   4.282   4.472
 5533SOL     OW26597   4.110   6.137   0.161
 5533SOL    HW126598   4.124   6.051   0.113
 5533SOL    HW226599   4.141   6.128   0.256
 5534SOL     OW26600   1.019   6.555   0.477
 5534SOL    HW126601   1.041   6.653   0.477
 5534SOL    HW226602   1.014   6.521   0.383
 5535SOL     OW26603   1.494   1.266   2.595
 5535SOL    HW126604   1.453   1.175   2.597
 5535SOL    HW226605   1.443   1.328   2.653
 5536SOL     OW26606   4.511   4.833   7.765
 5536SOL    HW126607   4.596   4.801   7.805
 5536SOL    HW226608   4.436   4.825   7.831
 5537SOL     OW26609   3.111   3.256   5.327
 5537SOL    HW126610   3.196   3.232   5.280
 5537SOL    HW226611   3.110   3.216   5.418
 5538SOL     OW26612   6.360   7.728   2.191
 5538SOL    HW126613   6.422   7.655   2.223
 5538SOL    HW226614   6.409   7.814   2.182
 5539SOL     OW26615   4.347   4.754   3.854
 5539SOL    HW126616   4.386   4.796   3.936
 5539SOL    HW226617   4.407   4.680   3.822
 5540SOL     OW26618   4.650   0.942   5.360
 5540SOL    HW126619   4.674   0.848   5.334
 5540SOL    HW226620   4.594   0.940   5.442
 5541SOL     OW26621   5.491   0.862   7.088
 5541SOL    HW126622   5.408   0.906   7.122
 5541SOL    HW226623   5.470   0.802   7.011
 5542SOL     OW26624   3.003   0.295   4.557
 5542SOL    HW126625   2.984   0.244   4.474
 5542SOL    HW226626   2.992   0.237   4.638
 5543SOL     OW26627   5.441   0.839   2.330
 5543SOL    HW126628   5.474   0.927   2.297
 5543SOL    HW226629   5.462   0.829   2.427
 5544SOL     OW26630   5.494   6.104   5.929
 5544SOL    HW126631   5.409   6.078   5.976
 5544SOL    HW226632   5.496   6.063   5.838
 5545SOL     OW26633   5.221   0.849   2.946
 5545SOL    HW126634   5.208   0.756   2.978
 5545SOL    HW226635   5.213   0.913   3.022
 5546SOL     OW26636   2.611   0.035   5.350
 5546SOL    HW126637   2.543  -0.011   5.293
 5546SOL    HW226638   2.613   0.133   5.329
 5547SOL     OW26639   2.075   1.303   4.571
 5547SOL    HW126640   2.078   1.282   4.669
 5547SOL    HW226641   2.045   1.398   4.558
 5548SOL     OW26642   7.303   4.195   2.377
 5548SOL    HW126643   7.368   4.152   2.314
 5548SOL    HW226644   7.338   4.283   2.408
 5549SOL     OW26645   3.800   3.306   6.592
 5549SOL    HW126646   3.792   3.228   6.529
 5549SOL    HW226647   3.873   3.367   6.561
 5550SOL     OW26648   6.177   6.291   3.527
 5550SOL    HW126649   6.100   6.286   3.591
 5550SOL    HW226650   6.261   6.264   3.573
 5551SOL     OW26651   5.052   7.928   1.517
 5551SOL    HW126652   4.989   7.856   1.547
 5551SOL    HW226653   5.008   7.987   1.450
 5552SOL     OW26654   5.575   6.342   3.517
 5552SOL    HW126655   5.582   6.435   3.554
 5552SOL    HW226656   5.533   6.344   3.426
 5553SOL     OW26657   3.618   4.577   6.529
 5553SOL    HW126658   3.553   4.516   6.483
 5553SOL    HW226659   3.580   4.608   6.616
 5554SOL     OW26660   5.532   7.135   1.356
 5554SOL    HW126661   5.534   7.144   1.256
 5554SOL    HW226662   5.585   7.209   1.398
 5555SOL     OW26663   5.735   1.923   5.857
 5555SOL    HW126664   5.762   1.971   5.774
 5555SOL    HW226665   5.728   1.987   5.933
 5556SOL     OW26666   1.048   4.496   3.583
 5556SOL    HW126667   0.974   4.458   3.639
 5556SOL    HW226668   1.039   4.463   3.488
 5557SOL     OW26669   6.971   6.922   2.958
 5557SOL    HW126670   6.931   7.013   2.969
 5557SOL    HW226671   6.959   6.869   3.042
 5558SOL     OW26672   0.556   3.623   5.149
 5558SOL    HW126673   0.557   3.658   5.243
 5558SOL    HW226674   0.609   3.683   5.090
 5559SOL     OW26675   2.471   5.854   0.343
 5559SOL    HW126676   2.407   5.779   0.329
 5559SOL    HW226677   2.486   5.903   0.256
 5560SOL     OW26678   6.664   2.606   3.298
 5560SOL    HW126679   6.681   2.699   3.332
 5560SOL    HW226680   6.568   2.598   3.269
 5561SOL     OW26681   1.825   5.128   0.918
 5561SOL    HW126682   1.921   5.153   0.931
 5561SOL    HW226683   1.779   5.198   0.865
 5562SOL     OW26684   5.519   7.830   7.469
 5562SOL    HW126685   5.453   7.769   7.514
 5562SOL    HW226686   5.537   7.798   7.376
 5563SOL     OW26687   6.211   7.591   6.761
 5563SOL    HW126688   6.123   7.560   6.796
 5563SOL    HW226689   6.247   7.664   6.819
 5564SOL     OW26690   5.799   1.987   7.521
 5564SOL    HW126691   5.874   2.026   7.574
 5564SOL    HW226692   5.798   2.027   7.429
 5565SOL     OW26693   4.448   5.677   5.991
 5565SOL    HW126694   4.383   5.737   6.038
 5565SOL    HW226695   4.540   5.717   5.994
 5566SOL     OW26696   3.741   6.601   5.810
 5566SOL    HW126697   3.825   6.593   5.863
 5566SOL    HW226698   3.723   6.515   5.761
 5567SOL     OW26699   5.348   1.044   0.943
 5567SOL    HW126700   5.258   1.006   0.922
 5567SOL    HW226701   5.410   0.971   0.973
 5568SOL     OW26702   4.288   0.404   7.960
 5568SOL    HW126703   4.256   0.314   7.989
 5568SOL    HW226704   4.218   0.473   7.979
 5569SOL     OW26705   6.392   6.421   2.808
 5569SOL    HW126706   6.320   6.375   2.860
 5569SOL    HW226707   6.396   6.386   2.715
 5570SOL     OW26708   6.434   5.249   4.414
 5570SOL    HW126709   6.479   5.173   4.366
 5570SOL    HW226710   6.492   5.281   4.489
 5571SOL     OW26711   1.705   3.852   7.718
 5571SOL    HW126712   1.763   3.929   7.745
 5571SOL    HW226713   1.761   3.773   7.695
 5572SOL     OW26714   4.114   1.769   6.267
 5572SOL    HW126715   4.107   1.864   6.300
 5572SOL    HW226716   4.142   1.709   6.342
 5573SOL     OW26717   1.631   2.917   4.394
 5573SOL    HW126718   1.613   2.827   4.355
 5573SOL    HW226719   1.729   2.929   4.409
 5574SOL     OW26720   4.036   6.924   2.002
 5574SOL    HW126721   4.001   6.839   1.961
 5574SOL    HW226722   3.960   6.975   2.043
 5575SOL     OW26723   1.602   2.411   6.283
 5575SOL    HW126724   1.514   2.363   6.280
 5575SOL    HW226725   1.638   2.412   6.376
 5576SOL     OW26726   3.504   4.374   3.152
 5576SOL    HW126727   3.429   4.358   3.216
 5576SOL    HW226728   3.478   4.342   3.061
 5577SOL     OW26729   7.476   6.967   3.590
 5577SOL    HW126730   7.550   7.033   3.603
 5577SOL    HW226731   7.463   6.949   3.493
 5578SOL     OW26732   5.156   5.946   0.658
 5578SOL    HW126733   5.173   6.041   0.633
 5578SOL    HW226734   5.058   5.931   0.673
 5579SOL     OW26735   3.634   2.142   6.691
 5579SOL    HW126736   3.588   2.231   6.683
 5579SOL    HW226737   3.731   2.155   6.712
 5580SOL     OW26738   1.851   2.314   5.410
 5580SOL    HW126739   1.773   2.376   5.413
 5580SOL    HW226740   1.842   2.252   5.332
 5581SOL     OW26741   4.464   4.935   1.654
 5581SOL    HW126742   4.410   4.988   1.589
 5581SOL    HW226743   4.532   4.993   1.698
 5582SOL     OW26744   2.590   7.603   6.047
 5582SOL    HW126745   2.527   7.531   6.015
 5582SOL    HW226746   2.538   7.685   6.069
 5583SOL     OW26747   5.536   1.845   1.167
 5583SOL    HW126748   5.595   1.778   1.121
 5583SOL    HW226749   5.501   1.807   1.252
 5584SOL     OW26750   6.180   7.370   4.870
 5584SOL    HW126751   6.083   7.392   4.858
 5584SOL    HW226752   6.208   7.301   4.804
 5585SOL     OW26753   0.223   0.780   2.217
 5585SOL    HW126754   0.291   0.853   2.211
 5585SOL    HW226755   0.207   0.741   2.126
 5586SOL     OW26756   6.082   6.603   0.213
 5586SOL    HW126757   6.105   6.688   0.261
 5586SOL    HW226758   6.118   6.524   0.261
 5587SOL     OW26759   2.696   4.723   3.246
 5587SOL    HW126760   2.781   4.758   3.287
 5587SOL    HW226761   2.630   4.797   3.236
 5588SOL     OW26762   5.702   1.458   0.984
 5588SOL    HW126763   5.654   1.445   1.072
 5588SOL    HW226764   5.671   1.543   0.942
 5589SOL     OW26765   4.185   7.989   1.786
 5589SOL    HW126766   4.108   7.925   1.777
 5589SOL    HW226767   4.262   7.957   1.731
 5590SOL     OW26768   7.102   3.673   4.309
 5590SOL    HW126769   7.024   3.729   4.280
 5590SOL    HW226770   7.130   3.699   4.402
 5591SOL     OW26771   4.274   4.322   7.710
 5591SOL    HW126772   4.329   4.250   7.667
 5591SOL    HW226773   4.277   4.313   7.809
 5592SOL     OW26774   5.105   0.949   5.837
 5592SOL    HW126775   5.010   0.956   5.806
 5592SOL    HW226776   5.114   0.991   5.927
 5593SOL     OW26777   4.744   1.062   0.731
 5593SOL    HW126778   4.660   1.032   0.685
 5593SOL    HW226779   4.724   1.086   0.826
 5594SOL     OW26780   2.899   0.468   7.344
 5594SOL    HW126781   2.877   0.556   7.300
 5594SOL    HW226782   2.995   0.445   7.328
 5595SOL     OW26783   7.528   3.632   3.126
 5595SOL    HW126784   7.514   3.731   3.129
 5595SOL    HW226785   7.555   3.604   3.034
 5596SOL     OW26786   4.808   4.437   1.794
 5596SOL    HW126787   4.888   4.435   1.854
 5596SOL    HW226788   4.831   4.479   1.707
 5597SOL     OW26789   5.364   4.710   7.802
 5597SOL    HW126790   5.305   4.688   7.880
 5597SOL    HW226791   5.366   4.809   7.789
 5598SOL     OW26792   5.257   5.366   4.950
 5598SOL    HW126793   5.229   5.455   4.914
 5598SOL    HW226794   5.300   5.377   5.040
 5599SOL     OW26795   7.723   7.200   4.684
 5599SOL    HW126796   7.646   7.202   4.621
 5599SOL    HW226797   7.729   7.286   4.734
 5600SOL     OW26798   1.390   4.359   1.727
 5600SOL    HW126799   1.427   4.445   1.764
 5600SOL    HW226800   1.309   4.332   1.779
 5601SOL     OW26801   4.230   2.236   4.623
 5601SOL    HW126802   4.325   2.266   4.631
 5601SOL    HW226803   4.170   2.316   4.620
 5602SOL     OW26804   2.298   0.323   7.127
 5602SOL    HW126805   2.236   0.256   7.167
 5602SOL    HW226806   2.247   0.398   7.085
 5603SOL     OW26807   5.698   5.573   3.037
 5603SOL    HW126808   5.728   5.656   3.084
 5603SOL    HW226809   5.751   5.495   3.070
 5604SOL     OW26810   6.167   5.747   7.813
 5604SOL    HW126811   6.077   5.703   7.814
 5604SOL    HW226812   6.158   5.843   7.789
 5605SOL     OW26813   1.375   2.023   4.336
 5605SOL    HW126814   1.284   2.061   4.350
 5605SOL    HW226815   1.388   2.000   4.239
 5606SOL     OW26816   6.986   6.258   7.079
 5606SOL    HW126817   7.027   6.338   7.124
 5606SOL    HW226818   6.949   6.284   6.990
 5607SOL     OW26819   5.461   2.971   0.761
 5607SOL    HW126820   5.364   2.984   0.738
 5607SOL    HW226821   5.475   2.983   0.859
 5608SOL     OW26822   0.751   0.103   7.066
 5608SOL    HW126823   0.829   0.157   7.097
 5608SOL    HW226824   0.700   0.153   6.997
 5609SOL     OW26825   2.021   2.522   7.959
 5609SOL    HW126826   2.005   2.465   7.879
 5609SOL    HW226827   2.089   2.478   8.019
 5610SOL     OW26828   7.516   0.505   2.080
 5610SOL    HW126829   7.601   0.468   2.043
 5610SOL    HW226830   7.499   0.467   2.171
 5611SOL     OW26831   2.906   3.633   4.681
 5611SOL    HW126832   2.855   3.572   4.619
 5611SOL    HW226833   2.891   3.604   4.775
 5612SOL     OW26834   1.252   5.996   5.104
 5612SOL    HW126835   1.175   5.953   5.056
 5612SOL    HW226836   1.332   5.937   5.099
 5613SOL     OW26837   1.168   4.249   0.769
 5613SOL    HW126838   1.236   4.291   0.709
 5613SOL    HW226839   1.203   4.243   0.863
 5614SOL     OW26840   6.357   1.130   4.048
 5614SOL    HW126841   6.262   1.112   4.073
 5614SOL    HW226842   6.375   1.098   3.955
 5615SOL     OW26843   4.267   0.401   5.883
 5615SOL    HW126844   4.284   0.414   5.981
 5615SOL    HW226845   4.174   0.367   5.870
 5616SOL     OW26846   4.446   4.594   2.478
 5616SOL    HW126847   4.534   4.546   2.476
 5616SOL    HW226848   4.443   4.664   2.407
 5617SOL     OW26849   1.346   1.600   7.871
 5617SOL    HW126850   1.393   1.519   7.836
 5617SOL    HW226851   1.317   1.584   7.966
 5618SOL     OW26852   7.328   7.519   2.389
 5618SOL    HW126853   7.234   7.525   2.421
 5618SOL    HW226854   7.386   7.581   2.442
 5619SOL     OW26855   2.469   4.665   2.267
 5619SOL    HW126856   2.474   4.572   2.230
 5619SOL    HW226857   2.414   4.664   2.351
 5620SOL     OW26858   4.954   6.834   7.120
 5620SOL    HW126859   4.958   6.928   7.084
 5620SOL    HW226860   4.878   6.785   7.079
 5621SOL     OW26861   2.623   3.420   5.710
 5621SOL    HW126862   2.627   3.510   5.753
 5621SOL    HW226863   2.586   3.428   5.618
 5622SOL     OW26864   4.516   5.325   4.466
 5622SOL    HW126865   4.466   5.247   4.503
 5622SOL    HW226866   4.546   5.306   4.373
 5623SOL     OW26867   2.895   1.474   6.929
 5623SOL    HW126868   2.824   1.445   6.865
 5623SOL    HW226869   2.861   1.550   6.985
 5624SOL     OW26870   7.671   3.722   3.978
 5624SOL    HW126871   7.759   3.681   3.951
 5624SOL    HW226872   7.662   3.812   3.935
 5625SOL     OW26873   5.665   5.165   1.834
 5625SOL    HW126874   5.625   5.216   1.911
 5625SOL    HW226875   5.596   5.104   1.794
 5626SOL     OW26876   4.713   1.195   7.429
 5626SOL    HW126877   4.691   1.241   7.515
 5626SOL    HW226878   4.751   1.260   7.363
 5627SOL     OW26879   0.972   0.213   5.644
 5627SOL    HW126880   0.942   0.307   5.661
 5627SOL    HW226881   1.072   0.208   5.648
 5628SOL     OW26882   3.249   1.879   0.381
 5628SOL    HW126883   3.257   1.923   0.471
 5628SOL    HW226884   3.327   1.903   0.324
 5629SOL     OW26885   4.256   5.791   6.624
 5629SOL    HW126886   4.239   5.889   6.624
 5629SOL    HW226887   4.288   5.762   6.534
 5630SOL     OW26888   2.734   5.681   0.116
 5630SOL    HW126889   2.717   5.585   0.138
 5630SOL    HW226890   2.752   5.690   0.018
 5631SOL     OW26891   7.349   3.094   7.321
 5631SOL    HW126892   7.269   3.090   7.381
 5631SOL    HW226893   7.323   3.073   7.227
 5632SOL     OW26894   5.591   1.217   7.186
 5632SOL    HW126895   5.671   1.276   7.175
 5632SOL    HW226896   5.570   1.206   7.283
 5633SOL     OW26897   7.518   4.101   5.187
 5633SOL    HW126898   7.486   4.129   5.278
 5633SOL    HW226899   7.564   4.178   5.143
 5634SOL     OW26900   7.827   4.392   2.327
 5634SOL    HW126901   7.780   4.463   2.274
 5634SOL    HW226902   7.841   4.423   2.421
 5635SOL     OW26903   5.856   0.002   4.120
 5635SOL    HW126904   5.765  -0.007   4.161
 5635SOL    HW226905   5.921   0.038   4.186
 5636SOL     OW26906   3.854   1.524   3.433
 5636SOL    HW126907   3.787   1.528   3.360
 5636SOL    HW226908   3.834   1.593   3.502
 5637SOL     OW26909   0.693   2.375   6.255
 5637SOL    HW126910   0.627   2.299   6.265
 5637SOL    HW226911   0.721   2.407   6.346
 5638SOL     OW26912   3.182   0.380   1.271
 5638SOL    HW126913   3.248   0.443   1.312
 5638SOL    HW226914   3.143   0.420   1.188
 5639SOL     OW26915   2.025   1.241   0.185
 5639SOL    HW126916   2.066   1.307   0.122
 5639SOL    HW226917   2.067   1.249   0.275
 5640SOL     OW26918   3.996   3.107   4.947
 5640SOL    HW126919   3.924   3.168   4.912
 5640SOL    HW226920   3.956   3.019   4.974
 5641SOL     OW26921   7.118   7.830   7.441
 5641SOL    HW126922   7.201   7.781   7.416
 5641SOL    HW226923   7.112   7.837   7.541
 5642SOL     OW26924   0.605   4.172   1.120
 5642SOL    HW126925   0.648   4.223   1.194
 5642SOL    HW226926   0.670   4.157   1.046
 5643SOL     OW26927   3.703   1.119   0.756
 5643SOL    HW126928   3.659   1.122   0.846
 5643SOL    HW226929   3.793   1.076   0.765
 5644SOL     OW26930   3.581   1.196   6.054
 5644SOL    HW126931   3.487   1.229   6.059
 5644SOL    HW226932   3.611   1.166   6.144
 5645SOL     OW26933   1.781   5.601   7.685
 5645SOL    HW126934   1.735   5.512   7.692
 5645SOL    HW226935   1.742   5.665   7.751
 5646SOL     OW26936   1.525   4.519   4.279
 5646SOL    HW126937   1.607   4.560   4.237
 5646SOL    HW226938   1.540   4.505   4.376
 5647SOL     OW26939   4.108   3.410   5.626
 5647SOL    HW126940   4.113   3.396   5.725
 5647SOL    HW226941   4.124   3.506   5.604
 5648SOL     OW26942   1.329   0.567   5.870
 5648SOL    HW126943   1.367   0.477   5.848
 5648SOL    HW226944   1.335   0.583   5.968
 5649SOL     OW26945   2.997   3.635   5.762
 5649SOL    HW126946   2.989   3.720   5.709
 5649SOL    HW226947   2.970   3.651   5.857
 5650SOL     OW26948   2.626   7.257   7.263
 5650SOL    HW126949   2.714   7.269   7.215
 5650SOL    HW226950   2.641   7.213   7.351
 5651SOL     OW26951   0.671   0.027   3.743
 5651SOL    HW126952   0.737   0.100   3.728
 5651SOL    HW226953   0.637  -0.006   3.655
 5652SOL     OW26954   0.322   2.816   2.028
 5652SOL    HW126955   0.257   2.748   2.061
 5652SOL    HW226956   0.397   2.825   2.093
 5653SOL     OW26957   7.709   4.954   6.856
 5653SOL    HW126958   7.638   4.886   6.871
 5653SOL    HW226959   7.728   4.962   6.758
 5654SOL     OW26960   1.505   6.399   2.541
 5654SOL    HW126961   1.557   6.443   2.468
 5654SOL    HW226962   1.548   6.311   2.564
 5655SOL     OW26963   5.824   3.630   5.438
 5655SOL    HW126964   5.897   3.696   5.420
 5655SOL    HW226965   5.854   3.562   5.505
 5656SOL     OW26966   7.231   4.017   3.746
 5656SOL    HW126967   7.143   3.983   3.782
 5656SOL    HW226968   7.246   3.982   3.654
 5657SOL     OW26969   1.211   5.359   5.912
 5657SOL    HW126970   1.195   5.423   5.987
 5657SOL    HW226971   1.275   5.287   5.941
 5658SOL     OW26972   0.986   6.110   2.403
 5658SOL    HW126973   1.074   6.087   2.445
 5658SOL    HW226974   0.995   6.190   2.344
 5659SOL     OW26975   1.780   1.838   1.648
 5659SOL    HW126976   1.814   1.751   1.611
 5659SOL    HW226977   1.777   1.907   1.576
 5660SOL     OW26978   4.315   3.288   2.027
 5660SOL    HW126979   4.223   3.301   1.989
 5660SOL    HW226980   4.320   3.326   2.119
 5661SOL     OW26981   7.607   7.379   0.148
 5661SOL    HW126982   7.677   7.379   0.076
 5661SOL    HW226983   7.640   7.328   0.227
 5662SOL     OW26984   6.565   3.637   6.302
 5662SOL    HW126985   6.654   3.682   6.289
 5662SOL    HW226986   6.538   3.640   6.398
 5663SOL     OW26987   6.746   1.356   0.637
 5663SOL    HW126988   6.647   1.343   0.637
 5663SOL    HW226989   6.786   1.313   0.556
 5664SOL     OW26990   4.157   6.912   0.343
 5664SOL    HW126991   4.087   6.950   0.283
 5664SOL    HW226992   4.160   6.964   0.429
 5665SOL     OW26993   0.869   2.804   4.418
 5665SOL    HW126994   0.872   2.707   4.393
 5665SOL    HW226995   0.926   2.820   4.499
 5666SOL     OW26996   4.117   6.071   2.654
 5666SOL    HW126997   4.205   6.115   2.677
 5666SOL    HW226998   4.066   6.053   2.738
 5667SOL     OW26999   7.543   0.323   3.654
 5667SOL    HW127000   7.506   0.277   3.735
 5667SOL    HW227001   7.479   0.315   3.578
 5668SOL     OW27002   5.343   5.043   4.548
 5668SOL    HW127003   5.422   5.101   4.568
 5668SOL    HW227004   5.351   4.955   4.594
 5669SOL     OW27005   6.297   6.226   3.022
 5669SOL    HW127006   6.293   6.314   3.069
 5669SOL    HW227007   6.336   6.157   3.082
 5670SOL     OW27008   7.099   3.494   0.885
 5670SOL    HW127009   7.157   3.572   0.908
 5670SOL    HW227010   7.121   3.417   0.945
 5671SOL     OW27011   2.068   1.635   3.923
 5671SOL    HW127012   2.069   1.535   3.918
 5671SOL    HW227013   2.008   1.673   3.853
 5672SOL     OW27014   5.756   7.248   2.440
 5672SOL    HW127015   5.832   7.201   2.394
 5672SOL    HW227016   5.722   7.322   2.383
 5673SOL     OW27017   7.553   3.129   2.701
 5673SOL    HW127018   7.649   3.155   2.717
 5673SOL    HW227019   7.492   3.192   2.750
 5674SOL     OW27020   1.277   3.212   7.012
 5674SOL    HW127021   1.246   3.301   6.978
 5674SOL    HW227022   1.330   3.224   7.096
 5675SOL     OW27023   6.268   3.280   0.819
 5675SOL    HW127024   6.205   3.208   0.789
 5675SOL    HW227025   6.267   3.287   0.918
 5676SOL     OW27026   0.985   3.682   3.496
 5676SOL    HW127027   0.931   3.675   3.412
 5676SOL    HW227028   1.082   3.676   3.476
 5677SOL     OW27029   3.887   3.938   1.843
 5677SOL    HW127030   3.987   3.930   1.850
 5677SOL    HW227031   3.843   3.887   1.917
 5678SOL     OW27032   5.467   6.197   6.792
 5678SOL    HW127033   5.452   6.241   6.703
 5678SOL    HW227034   5.453   6.263   6.866
 5679SOL     OW27035   3.989   1.285   1.653
 5679SOL    HW127036   3.898   1.295   1.693
 5679SOL    HW227037   3.982   1.258   1.557
 5680SOL     OW27038   4.196   5.996   0.822
 5680SOL    HW127039   4.253   5.943   0.885
 5680SOL    HW227040   4.104   5.959   0.819
 5681SOL     OW27041   5.677   1.107   0.665
 5681SOL    HW127042   5.631   1.148   0.744
 5681SOL    HW227043   5.776   1.115   0.676
 5682SOL     OW27044   2.868   2.154   4.883
 5682SOL    HW127045   2.861   2.213   4.803
 5682SOL    HW227046   2.958   2.165   4.927
 5683SOL     OW27047   4.877   3.921   5.761
 5683SOL    HW127048   4.818   3.998   5.787
 5683SOL    HW227049   4.864   3.900   5.665
 5684SOL     OW27050   3.558   2.473   0.805
 5684SOL    HW127051   3.600   2.429   0.884
 5684SOL    HW227052   3.506   2.406   0.752
 5685SOL     OW27053   6.005   0.846   4.236
 5685SOL    HW127054   5.915   0.810   4.263
 5685SOL    HW227055   6.010   0.944   4.253
 5686SOL     OW27056   6.334   2.858   1.123
 5686SOL    HW127057   6.285   2.799   1.058
 5686SOL    HW227058   6.405   2.805   1.169
 5687SOL     OW27059   4.018   1.806   5.665
 5687SOL    HW127060   4.027   1.719   5.615
 5687SOL    HW227061   4.040   1.882   5.605
 5688SOL     OW27062   3.736   7.223   5.984
 5688SOL    HW127063   3.825   7.250   6.020
 5688SOL    HW227064   3.724   7.259   5.891
 5689SOL     OW27065   0.717   6.019   6.493
 5689SOL    HW127066   0.625   5.997   6.527
 5689SOL    HW227067   0.722   6.002   6.394
 5690SOL     OW27068   4.964   3.862   1.950
 5690SOL    HW127069   5.002   3.939   2.001
 5690SOL    HW227070   4.962   3.883   1.852
 5691SOL     OW27071   2.830   2.750   6.838
 5691SOL    HW127072   2.910   2.765   6.780
 5691SOL    HW227073   2.856   2.702   6.921
 5692SOL     OW27074   7.535   7.703   4.253
 5692SOL    HW127075   7.600   7.660   4.316
 5692SOL    HW227076   7.528   7.649   4.168
 5693SOL     OW27077   1.575   1.682   4.947
 5693SOL    HW127078   1.631   1.762   4.968
 5693SOL    HW227079   1.587   1.612   5.017
 5694SOL     OW27080   2.376   4.757   3.844
 5694SOL    HW127081   2.341   4.670   3.879
 5694SOL    HW227082   2.301   4.822   3.832
 5695SOL     OW27083   7.457   4.216   3.823
 5695SOL    HW127084   7.402   4.182   3.747
 5695SOL    HW227085   7.541   4.257   3.789
 5696SOL     OW27086   0.526   1.348   3.424
 5696SOL    HW127087   0.470   1.428   3.446
 5696SOL    HW227088   0.476   1.287   3.363
 5697SOL     OW27089   1.824   5.471   4.588
 5697SOL    HW127090   1.920   5.490   4.568
 5697SOL    HW227091   1.769   5.477   4.505
 5698SOL     OW27092   1.496   7.678   3.024
 5698SOL    HW127093   1.590   7.650   3.003
 5698SOL    HW227094   1.496   7.755   3.087
 5699SOL     OW27095   3.433   0.906   5.818
 5699SOL    HW127096   3.444   0.908   5.718
 5699SOL    HW227097   3.522   0.901   5.862
 5700SOL     OW27098   4.599   1.777   3.086
 5700SOL    HW127099   4.533   1.829   3.031
 5700SOL    HW227100   4.650   1.839   3.145
 5701SOL     OW27101   2.144   6.193   2.003
 5701SOL    HW127102   2.139   6.201   2.103
 5701SOL    HW227103   2.238   6.181   1.975
 5702SOL     OW27104   4.895   2.778   4.987
 5702SOL    HW127105   4.985   2.801   5.026
 5702SOL    HW227106   4.886   2.819   4.896
 5703SOL     OW27107   2.567   1.846   5.543
 5703SOL    HW127108   2.626   1.773   5.509
 5703SOL    HW227109   2.513   1.884   5.468
 5704SOL     OW27110   2.545   3.875   3.719
 5704SOL    HW127111   2.629   3.862   3.773
 5704SOL    HW227112   2.569   3.899   3.625
 5705SOL     OW27113   5.830   5.075   1.605
 5705SOL    HW127114   5.801   5.013   1.678
 5705SOL    HW227115   5.793   5.166   1.621
 5706SOL     OW27116   3.337   2.941   6.710
 5706SOL    HW127117   3.426   2.958   6.754
 5706SOL    HW227118   3.335   2.982   6.619
 5707SOL     OW27119   4.900   2.143   3.255
 5707SOL    HW127120   4.966   2.068   3.257
 5707SOL    HW227121   4.807   2.107   3.248
 5708SOL     OW27122   3.289   7.597   6.379
 5708SOL    HW127123   3.293   7.506   6.421
 5708SOL    HW227124   3.339   7.596   6.292
 5709SOL     OW27125   3.086   4.214   3.432
 5709SOL    HW127126   3.161   4.186   3.492
 5709SOL    HW227127   3.035   4.289   3.473
 5710SOL     OW27128   5.638   0.819   3.935
 5710SOL    HW127129   5.638   0.726   3.897
 5710SOL    HW227130   5.615   0.816   4.032
 5711SOL     OW27131   7.452   3.257   6.054
 5711SOL    HW127132   7.551   3.272   6.049
 5711SOL    HW227133   7.430   3.199   6.132
 5712SOL     OW27134   5.484   6.069   7.260
 5712SOL    HW127135   5.394   6.027   7.250
 5712SOL    HW227136   5.475   6.165   7.287
 5713SOL     OW27137   5.428   6.837   1.472
 5713SOL    HW127138   5.369   6.761   1.445
 5713SOL    HW227139   5.396   6.875   1.559
 5714SOL     OW27140   4.541   3.642   5.092
 5714SOL    HW127141   4.531   3.636   4.993
 5714SOL    HW227142   4.472   3.585   5.137
 5715SOL     OW27143   0.667   1.871   1.941
 5715SOL    HW127144   0.585   1.871   1.883
 5715SOL    HW227145   0.651   1.927   2.022
 5716SOL     OW27146   0.908   1.852   3.962
 5716SOL    HW127147   0.822   1.802   3.960
 5716SOL    HW227148   0.985   1.788   3.969
 5717SOL     OW27149   4.622   0.929   6.319
 5717SOL    HW127150   4.715   0.962   6.305
 5717SOL    HW227151   4.607   0.846   6.266
 5718SOL     OW27152   0.487   5.180   3.412
 5718SOL    HW127153   0.485   5.246   3.487
 5718SOL    HW227154   0.430   5.212   3.337
 5719SOL     OW27155   5.782   3.956   4.309
 5719SOL    HW127156   5.769   3.932   4.212
 5719SOL    HW227157   5.723   4.032   4.334
 5720SOL     OW27158   7.765   6.357   3.605
 5720SOL    HW127159   7.678   6.404   3.586
 5720SOL    HW227160   7.821   6.413   3.666
 5721SOL     OW27161   1.911   2.502   4.290
 5721SOL    HW127162   1.835   2.567   4.281
 5721SOL    HW227163   1.893   2.420   4.237
 5722SOL     OW27164   5.755   0.973   5.025
 5722SOL    HW127165   5.781   0.954   4.930
 5722SOL    HW227166   5.827   1.025   5.071
 5723SOL     OW27167   4.224   3.423   5.305
 5723SOL    HW127168   4.280   3.340   5.316
 5723SOL    HW227169   4.149   3.422   5.370
 5724SOL     OW27170   3.748   3.770   7.681
 5724SOL    HW127171   3.797   3.685   7.702
 5724SOL    HW227172   3.735   3.778   7.582
 5725SOL     OW27173   2.089   4.123   2.126
 5725SOL    HW127174   2.124   4.064   2.054
 5725SOL    HW227175   1.992   4.140   2.112
 5726SOL     OW27176   5.844   5.019   6.943
 5726SOL    HW127177   5.797   5.093   6.992
 5726SOL    HW227178   5.793   4.995   6.861
 5727SOL     OW27179   0.096   4.191   0.826
 5727SOL    HW127180   0.071   4.284   0.799
 5727SOL    HW227181   0.157   4.193   0.905
 5728SOL     OW27182   1.348   5.246   6.152
 5728SOL    HW127183   1.424   5.223   6.090
 5728SOL    HW227184   1.381   5.249   6.246
 5729SOL     OW27185   4.014   0.876   7.070
 5729SOL    HW127186   3.956   0.795   7.081
 5729SOL    HW227187   4.047   0.906   7.159
 5730SOL     OW27188   1.641   7.212   4.059
 5730SOL    HW127189   1.722   7.169   4.099
 5730SOL    HW227190   1.669   7.286   3.997
 5731SOL     OW27191   3.402   3.965   5.664
 5731SOL    HW127192   3.496   3.966   5.629
 5731SOL    HW227193   3.401   3.928   5.757
 5732SOL     OW27194   3.779   4.712   7.079
 5732SOL    HW127195   3.717   4.735   7.004
 5732SOL    HW227196   3.733   4.655   7.147
 5733SOL     OW27197   6.923   0.059   0.884
 5733SOL    HW127198   7.022   0.063   0.876
 5733SOL    HW227199   6.886  -0.011   0.823
 5734SOL     OW27200   3.753   4.544   7.993
 5734SOL    HW127201   3.710   4.479   7.930
 5734SOL    HW227202   3.687   4.615   8.018
 5735SOL     OW27203   4.063   2.277   4.093
 5735SOL    HW127204   4.138   2.304   4.153
 5735SOL    HW227205   4.094   2.207   4.029
 5736SOL     OW27206   5.192   5.999   1.402
 5736SOL    HW127207   5.154   6.081   1.360
 5736SOL    HW227208   5.250   6.024   1.480
 5737SOL     OW27209   3.740   4.892   7.614
 5737SOL    HW127210   3.652   4.920   7.653
 5737SOL    HW227211   3.728   4.813   7.554
 5738SOL     OW27212   7.658   7.228   4.011
 5738SOL    HW127213   7.727   7.291   3.975
 5738SOL    HW227214   7.568   7.271   4.011
 5739SOL     OW27215   4.943   4.986   7.167
 5739SOL    HW127216   4.974   5.078   7.189
 5739SOL    HW227217   4.912   4.981   7.072
 5740SOL     OW27218   3.716   4.895   4.931
 5740SOL    HW127219   3.664   4.981   4.930
 5740SOL    HW227220   3.764   4.884   4.845
 5741SOL     OW27221   5.319   2.262   4.192
 5741SOL    HW127222   5.360   2.217   4.113
 5741SOL    HW227223   5.275   2.347   4.165
 5742SOL     OW27224   4.451   2.284   1.111
 5742SOL    HW127225   4.460   2.382   1.131
 5742SOL    HW227226   4.355   2.259   1.108
 5743SOL     OW27227   0.564   5.620   6.386
 5743SOL    HW127228   0.582   5.529   6.425
 5743SOL    HW227229   0.506   5.672   6.448
 5744SOL     OW27230   5.352   3.309   0.715
 5744SOL    HW127231   5.262   3.316   0.673
 5744SOL    HW227232   5.348   3.343   0.809
 5745SOL     OW27233   6.716   4.888   4.793
 5745SOL    HW127234   6.628   4.917   4.756
 5745SOL    HW227235   6.774   4.852   4.721
 5746SOL     OW27236   3.148   4.199   6.665
 5746SOL    HW127237   3.093   4.122   6.697
 5746SOL    HW227238   3.187   4.179   6.575
 5747SOL     OW27239   5.602   7.855   1.853
 5747SOL    HW127240   5.523   7.865   1.913
 5747SOL    HW227241   5.621   7.942   1.807
 5748SOL     OW27242   2.803   0.911   5.505
 5748SOL    HW127243   2.805   0.874   5.412
 5748SOL    HW227244   2.763   0.844   5.567
 5749SOL     OW27245   1.133   3.091   2.389
 5749SOL    HW127246   1.165   3.184   2.371
 5749SOL    HW227247   1.045   3.076   2.343
 5750SOL     OW27248   2.427   3.428   3.770
 5750SOL    HW127249   2.402   3.496   3.700
 5750SOL    HW227250   2.435   3.473   3.859
 5751SOL     OW27251   6.177   7.544   4.531
 5751SOL    HW127252   6.215   7.452   4.525
 5751SOL    HW227253   6.100   7.553   4.468
 5752SOL     OW27254   2.998   3.287   5.020
 5752SOL    HW127255   3.017   3.383   5.042
 5752SOL    HW227256   3.050   3.227   5.080
 5753SOL     OW27257   0.512   1.928   3.947
 5753SOL    HW127258   0.488   2.009   4.000
 5753SOL    HW227259   0.608   1.904   3.961
 5754SOL     OW27260   6.779   3.830   2.918
 5754SOL    HW127261   6.816   3.904   2.861
 5754SOL    HW227262   6.683   3.848   2.939
 5755SOL     OW27263   2.708   6.250   3.938
 5755SOL    HW127264   2.659   6.329   3.901
 5755SOL    HW227265   2.740   6.269   4.030
 5756SOL     OW27266   5.129   5.230   7.063
 5756SOL    HW127267   5.056   5.183   7.013
 5756SOL    HW227268   5.110   5.328   7.067
 5757SOL     OW27269   7.931   5.083   5.027
 5757SOL    HW127270   7.955   4.986   5.025
 5757SOL    HW227271   7.874   5.103   5.106
 5758SOL     OW27272   6.630   4.063   4.064
 5758SOL    HW127273   6.658   4.116   4.145
 5758SOL    HW227274   6.531   4.053   4.063
 5759SOL     OW27275   3.754   4.077   4.506
 5759SOL    HW127276   3.843   4.056   4.546
 5759SOL    HW227277   3.726   4.004   4.443
 5760SOL     OW27278   4.060   7.565   6.562
 5760SOL    HW127279   4.157   7.554   6.585
 5760SOL    HW227280   4.039   7.514   6.478
 5761SOL     OW27281   3.387   6.020   4.084
 5761SOL    HW127282   3.422   5.983   3.998
 5761SOL    HW227283   3.379   5.947   4.152
 5762SOL     OW27284   4.332   5.210   7.246
 5762SOL    HW127285   4.272   5.185   7.322
 5762SOL    HW227286   4.392   5.285   7.273
 5763SOL     OW27287   0.708   0.473   6.350
 5763SOL    HW127288   0.766   0.477   6.431
 5763SOL    HW227289   0.739   0.542   6.283
 5764SOL     OW27290   1.896   4.518   2.767
 5764SOL    HW127291   1.812   4.478   2.729
 5764SOL    HW227292   1.930   4.589   2.706
 5765SOL     OW27293   6.824   3.890   4.380
 5765SOL    HW127294   6.855   3.910   4.287
 5765SOL    HW227295   6.830   3.972   4.438
 5766SOL     OW27296   3.131   0.789   6.983
 5766SOL    HW127297   3.159   0.754   7.072
 5766SOL    HW227298   3.211   0.817   6.931
 5767SOL     OW27299   7.572   1.937   1.189
 5767SOL    HW127300   7.657   1.904   1.149
 5767SOL    HW227301   7.591   2.009   1.256
 5768SOL     OW27302   6.823   7.601   3.584
 5768SOL    HW127303   6.781   7.520   3.625
 5768SOL    HW227304   6.881   7.647   3.650
 5769SOL     OW27305   7.439   3.729   2.526
 5769SOL    HW127306   7.472   3.695   2.438
 5769SOL    HW227307   7.513   3.728   2.593
 5770SOL     OW27308   7.600   5.571   7.367
 5770SOL    HW127309   7.551   5.629   7.302
 5770SOL    HW227310   7.641   5.493   7.319
 5771SOL     OW27311   7.082   3.846   3.121
 5771SOL    HW127312   7.135   3.764   3.144
 5771SOL    HW227313   7.020   3.869   3.197
 5772SOL     OW27314   3.521   7.989   0.977
 5772SOL    HW127315   3.579   7.968   0.897
 5772SOL    HW227316   3.564   7.955   1.060
 5773SOL     OW27317   6.712   5.247   7.033
 5773SOL    HW127318   6.618   5.235   7.002
 5773SOL    HW227319   6.713   5.292   7.123
 5774SOL     OW27320   2.188   7.481   5.352
 5774SOL    HW127321   2.267   7.440   5.306
 5774SOL    HW227322   2.183   7.451   5.447
 5775SOL     OW27323   6.166   0.756   6.913
 5775SOL    HW127324   6.151   0.658   6.919
 5775SOL    HW227325   6.123   0.802   6.991
 5776SOL     OW27326   6.617   4.620   0.505
 5776SOL    HW127327   6.643   4.669   0.422
 5776SOL    HW227328   6.692   4.623   0.571
 5777SOL     OW27329   4.895   6.277   1.208
 5777SOL    HW127330   4.867   6.370   1.234
 5777SOL    HW227331   4.832   6.240   1.140
 5778SOL     OW27332   3.550   3.405   4.829
 5778SOL    HW127333   3.601   3.440   4.751
 5778SOL    HW227334   3.610   3.352   4.889
 5779SOL     OW27335   7.798   0.622   1.116
 5779SOL    HW127336   7.760   0.709   1.083
 5779SOL    HW227337   7.730   0.574   1.172
 5780SOL     OW27338   7.787   6.291   6.625
 5780SOL    HW127339   7.728   6.371   6.610
 5780SOL    HW227340   7.848   6.307   6.702
 5781SOL     OW27341   6.191   0.339   5.673
 5781SOL    HW127342   6.214   0.379   5.584
 5781SOL    HW227343   6.273   0.301   5.715
 5782SOL     OW27344   0.349   3.982   5.947
 5782SOL    HW127345   0.280   3.918   5.981
 5782SOL    HW227346   0.373   3.960   5.853
 5783SOL     OW27347   7.204   7.000   3.765
 5783SOL    HW127348   7.119   7.053   3.762
 5783SOL    HW227349   7.200   6.925   3.699
 5784SOL     OW27350   6.919   4.284   4.211
 5784SOL    HW127351   6.874   4.369   4.239
 5784SOL    HW227352   7.000   4.269   4.267
 5785SOL     OW27353   6.709   5.005   4.234
 5785SOL    HW127354   6.765   4.968   4.308
 5785SOL    HW227355   6.756   4.994   4.147
 5786SOL     OW27356   1.656   6.979   4.342
 5786SOL    HW127357   1.563   6.958   4.311
 5786SOL    HW227358   1.699   7.043   4.278
 5787SOL     OW27359   7.817   6.025   6.998
 5787SOL    HW127360   7.769   5.941   7.022
 5787SOL    HW227361   7.756   6.103   7.008
 5788SOL     OW27362   3.271   6.902   5.544
 5788SOL    HW127363   3.205   6.968   5.507
 5788SOL    HW227364   3.223   6.829   5.593
 5789SOL     OW27365   1.250   2.997   1.829
 5789SOL    HW127366   1.253   3.032   1.736
 5789SOL    HW227367   1.156   2.973   1.854
 5790SOL     OW27368   0.606   5.642   1.463
 5790SOL    HW127369   0.668   5.564   1.472
 5790SOL    HW227370   0.659   5.727   1.469
 5791SOL     OW27371   1.288   4.087   5.829
 5791SOL    HW127372   1.299   4.136   5.916
 5791SOL    HW227373   1.323   3.994   5.837
 5792SOL     OW27374   2.268   2.018   4.650
 5792SOL    HW127375   2.257   2.025   4.750
 5792SOL    HW227376   2.314   2.100   4.615
 5793SOL     OW27377   5.851   4.038   7.593
 5793SOL    HW127378   5.902   3.982   7.527
 5793SOL    HW227379   5.838   4.130   7.555
 5794SOL     OW27380   3.669   1.740   7.045
 5794SOL    HW127381   3.639   1.825   7.001
 5794SOL    HW227382   3.693   1.758   7.141
 5795SOL     OW27383   1.465   4.856   0.742
 5795SOL    HW127384   1.459   4.948   0.781
 5795SOL    HW227385   1.431   4.857   0.648
 5796SOL     OW27386   3.289   0.536   3.672
 5796SOL    HW127387   3.223   0.465   3.695
 5796SOL    HW227388   3.364   0.497   3.619
 5797SOL     OW27389   5.348   0.774   3.616
 5797SOL    HW127390   5.288   0.770   3.536
 5797SOL    HW227391   5.400   0.689   3.624
 5798SOL     OW27392   5.635   6.207   3.281
 5798SOL    HW127393   5.694   6.154   3.343
 5798SOL    HW227394   5.603   6.148   3.206
 5799SOL     OW27395   0.720   6.686   3.551
 5799SOL    HW127396   0.639   6.641   3.515
 5799SOL    HW227397   0.701   6.722   3.643
 5800SOL     OW27398   5.940   4.335   5.797
 5800SOL    HW127399   6.014   4.316   5.732
 5800SOL    HW227400   5.978   4.345   5.889
 5801SOL     OW27401   6.228   4.800   2.820
 5801SOL    HW127402   6.297   4.863   2.783
 5801SOL    HW227403   6.253   4.771   2.912
 5802SOL     OW27404   5.265   7.440   4.137
 5802SOL    HW127405   5.201   7.377   4.094
 5802SOL    HW227406   5.307   7.498   4.067
 5803SOL     OW27407   2.276   4.996   0.825
 5803SOL    HW127408   2.359   4.965   0.872
 5803SOL    HW227409   2.232   5.069   0.878
 5804SOL     OW27410   2.092   6.714   3.276
 5804SOL    HW127411   2.072   6.802   3.232
 5804SOL    HW227412   2.058   6.715   3.370
 5805SOL     OW27413   6.705   0.129   7.373
 5805SOL    HW127414   6.634   0.140   7.444
 5805SOL    HW227415   6.744   0.038   7.379
 5806SOL     OW27416   1.606   6.775   2.895
 5806SOL    HW127417   1.528   6.761   2.833
 5806SOL    HW227418   1.573   6.801   2.986
 5807SOL     OW27419   0.217   3.926   0.502
 5807SOL    HW127420   0.219   4.014   0.549
 5807SOL    HW227421   0.141   3.924   0.437
 5808SOL     OW27422   6.802   2.804   5.513
 5808SOL    HW127423   6.732   2.750   5.466
 5808SOL    HW227424   6.766   2.839   5.600
 5809SOL     OW27425   5.889   6.307   2.448
 5809SOL    HW127426   5.939   6.346   2.526
 5809SOL    HW227427   5.953   6.286   2.374
 5810SOL     OW27428   3.941   3.866   6.031
 5810SOL    HW127429   3.932   3.839   6.127
 5810SOL    HW227430   3.895   3.799   5.973
 5811SOL     OW27431   1.350   7.376   5.796
 5811SOL    HW127432   1.411   7.425   5.733
 5811SOL    HW227433   1.360   7.277   5.783
 5812SOL     OW27434   7.406   6.611   0.432
 5812SOL    HW127435   7.420   6.706   0.404
 5812SOL    HW227436   7.440   6.598   0.525
 5813SOL     OW27437   7.122   7.834   1.538
 5813SOL    HW127438   7.045   7.873   1.488
 5813SOL    HW227439   7.125   7.735   1.526
 5814SOL     OW27440   2.024   2.835   0.311
 5814SOL    HW127441   2.120   2.808   0.304
 5814SOL    HW227442   1.974   2.770   0.368
 5815SOL     OW27443   5.072   1.979   6.228
 5815SOL    HW127444   5.020   1.908   6.179
 5815SOL    HW227445   5.069   1.962   6.326
 5816SOL     OW27446   0.264   1.232   2.370
 5816SOL    HW127447   0.302   1.320   2.399
 5816SOL    HW227448   0.241   1.235   2.273
 5817SOL     OW27449   1.356   1.619   3.625
 5817SOL    HW127450   1.290   1.576   3.563
 5817SOL    HW227451   1.314   1.637   3.714
 5818SOL     OW27452   5.089   4.612   7.321
 5818SOL    HW127453   5.046   4.701   7.338
 5818SOL    HW227454   5.142   4.584   7.401
 5819SOL     OW27455   6.071   1.722   1.586
 5819SOL    HW127456   6.001   1.659   1.619
 5819SOL    HW227457   6.035   1.815   1.581
 5820SOL     OW27458   1.855   7.059   0.635
 5820SOL    HW127459   1.820   6.992   0.569
 5820SOL    HW227460   1.791   7.136   0.643
 5821SOL     OW27461   1.117  -0.005   3.189
 5821SOL    HW127462   1.083   0.053   3.263
 5821SOL    HW227463   1.144   0.051   3.111
 5822SOL     OW27464   3.111   6.159   3.457
 5822SOL    HW127465   3.088   6.190   3.549
 5822SOL    HW227466   3.052   6.205   3.390
 5823SOL     OW27467   2.694   4.987   3.101
 5823SOL    HW127468   2.768   4.922   3.120
 5823SOL    HW227469   2.727   5.081   3.110
 5824SOL     OW27470   3.918   5.931   5.295
 5824SOL    HW127471   3.827   5.916   5.257
 5824SOL    HW227472   3.944   5.855   5.355
 5825SOL     OW27473   4.620   6.260   4.422
 5825SOL    HW127474   4.552   6.275   4.494
 5825SOL    HW227475   4.638   6.162   4.411
 5826SOL     OW27476   7.016   0.358   6.264
 5826SOL    HW127477   6.977   0.342   6.173
 5826SOL    HW227478   6.948   0.402   6.322
 5827SOL     OW27479   5.486   5.471   3.798
 5827SOL    HW127480   5.506   5.382   3.837
 5827SOL    HW227481   5.448   5.460   3.706
 5828SOL     OW27482   4.444   3.058   2.081
 5828SOL    HW127483   4.497   3.083   2.000
 5828SOL    HW227484   4.442   3.134   2.146
 5829SOL     OW27485   2.460   7.319   1.890
 5829SOL    HW127486   2.421   7.308   1.981
 5829SOL    HW227487   2.549   7.273   1.885
 5830SOL     OW27488   4.216   4.427   3.984
 5830SOL    HW127489   4.245   4.510   3.936
 5830SOL    HW227490   4.136   4.388   3.938
 5831SOL     OW27491   6.665   1.919   4.807
 5831SOL    HW127492   6.638   1.910   4.903
 5831SOL    HW227493   6.764   1.931   4.800
 5832SOL     OW27494   1.793   1.900   7.122
 5832SOL    HW127495   1.865   1.874   7.187
 5832SOL    HW227496   1.784   1.829   7.052
 5833SOL     OW27497   7.837   3.683   3.166
 5833SOL    HW127498   7.745   3.692   3.129
 5833SOL    HW227499   7.841   3.722   3.258
 5834SOL     OW27500   0.613   4.404   5.426
 5834SOL    HW127501   0.562   4.420   5.342
 5834SOL    HW227502   0.695   4.350   5.407
 5835SOL     OW27503   2.948   7.348   3.874
 5835SOL    HW127504   2.882   7.282   3.910
 5835SOL    HW227505   2.979   7.319   3.784
 5836SOL     OW27506   1.366   3.599   6.214
 5836SOL    HW127507   1.278   3.565   6.248
 5836SOL    HW227508   1.413   3.528   6.164
 5837SOL     OW27509   4.234   7.884   4.632
 5837SOL    HW127510   4.193   7.974   4.643
 5837SOL    HW227511   4.162   7.814   4.631
 5838SOL     OW27512   5.906   1.966   7.962
 5838SOL    HW127513   5.829   1.975   7.899
 5838SOL    HW227514   5.986   2.015   7.927
 5839SOL     OW27515   7.219   5.387   1.182
 5839SOL    HW127516   7.311   5.426   1.186
 5839SOL    HW227517   7.225   5.288   1.168
 5840SOL     OW27518   4.206   5.356   1.095
 5840SOL    HW127519   4.282   5.320   1.148
 5840SOL    HW227520   4.231   5.363   0.999
 5841SOL     OW27521   1.402   4.764   3.222
 5841SOL    HW127522   1.488   4.715   3.239
 5841SOL    HW227523   1.398   4.793   3.127
 5842SOL     OW27524   6.854   4.437   7.521
 5842SOL    HW127525   6.917   4.462   7.447
 5842SOL    HW227526   6.906   4.398   7.598
 5843SOL     OW27527   1.765   3.963   2.682
 5843SOL    HW127528   1.865   3.957   2.672
 5843SOL    HW227529   1.726   4.011   2.604
 5844SOL     OW27530   5.174   5.752   3.097
 5844SOL    HW127531   5.144   5.748   3.192
 5844SOL    HW227532   5.232   5.673   3.076
 5845SOL     OW27533   4.709   2.747   2.394
 5845SOL    HW127534   4.719   2.717   2.299
 5845SOL    HW227535   4.616   2.779   2.411
 5846SOL     OW27536   0.724   7.343   5.553
 5846SOL    HW127537   0.635   7.340   5.508
 5846SOL    HW227538   0.722   7.409   5.628
 5847SOL     OW27539   1.976   3.022   2.074
 5847SOL    HW127540   2.052   2.993   2.133
 5847SOL    HW227541   1.962   2.954   2.002
 5848SOL     OW27542   4.299   7.580   7.346
 5848SOL    HW127543   4.215   7.569   7.398
 5848SOL    HW227544   4.310   7.505   7.281
 5849SOL     OW27545   7.246   5.880   2.951
 5849SOL    HW127546   7.318   5.821   2.915
 5849SOL    HW227547   7.243   5.874   3.051
 5850SOL     OW27548   4.098   4.723   2.293
 5850SOL    HW127549   4.054   4.786   2.228
 5850SOL    HW227550   4.129   4.773   2.374
 5851SOL     OW27551   5.619   2.182   2.747
 5851SOL    HW127552   5.707   2.141   2.722
 5851SOL    HW227553   5.625   2.223   2.838
 5852SOL     OW27554   2.509   2.156   2.779
 5852SOL    HW127555   2.425   2.175   2.727
 5852SOL    HW227556   2.586   2.143   2.717
 5853SOL     OW27557   0.938   2.714   1.725
 5853SOL    HW127558   0.951   2.693   1.628
 5853SOL    HW227559   0.991   2.651   1.781
 5854SOL     OW27560   0.073   4.953   1.873
 5854SOL    HW127561   0.132   4.889   1.823
 5854SOL    HW227562  -0.022   4.944   1.841
 5855SOL     OW27563   3.564   4.166   5.253
 5855SOL    HW127564   3.473   4.148   5.217
 5855SOL    HW227565   3.632   4.158   5.179
 5856SOL     OW27566   4.926   0.161   6.225
 5856SOL    HW127567   5.008   0.116   6.260
 5856SOL    HW227568   4.950   0.249   6.184
 5857SOL     OW27569   4.853   1.026   7.403
 5857SOL    HW127570   4.917   1.047   7.329
 5857SOL    HW227571   4.822   0.931   7.396
 5858SOL     OW27572   2.738   1.346   2.167
 5858SOL    HW127573   2.729   1.437   2.127
 5858SOL    HW227574   2.806   1.348   2.241
 5859SOL     OW27575   2.255   4.337   7.960
 5859SOL    HW127576   2.253   4.433   7.933
 5859SOL    HW227577   2.335   4.320   8.018
 5860SOL     OW27578   5.270   4.198   1.169
 5860SOL    HW127579   5.357   4.151   1.185
 5860SOL    HW227580   5.273   4.247   1.082
 5861SOL     OW27581   7.513   4.698   3.379
 5861SOL    HW127582   7.454   4.622   3.350
 5861SOL    HW227583   7.486   4.729   3.470
 5862SOL     OW27584   1.456   1.747   1.072
 5862SOL    HW127585   1.394   1.690   1.127
 5862SOL    HW227586   1.419   1.839   1.063
 5863SOL     OW27587   4.496   4.981   5.835
 5863SOL    HW127588   4.512   5.035   5.752
 5863SOL    HW227589   4.436   4.904   5.814
 5864SOL     OW27590   5.217   6.056   7.096
 5864SOL    HW127591   5.157   5.980   7.123
 5864SOL    HW227592   5.174   6.110   7.024
 5865SOL     OW27593   1.105   7.508   5.676
 5865SOL    HW127594   1.144   7.427   5.720
 5865SOL    HW227595   1.088   7.580   5.744
 5866SOL     OW27596   0.643   6.577   6.408
 5866SOL    HW127597   0.543   6.574   6.410
 5866SOL    HW227598   0.673   6.649   6.345
 5867SOL     OW27599   5.814   1.787   1.811
 5867SOL    HW127600   5.779   1.695   1.829
 5867SOL    HW227601   5.856   1.790   1.720
 5868SOL     OW27602   6.763   6.783   2.651
 5868SOL    HW127603   6.850   6.755   2.610
 5868SOL    HW227604   6.759   6.753   2.746
 5869SOL     OW27605   7.003   6.261   1.030
 5869SOL    HW127606   7.055   6.183   1.067
 5869SOL    HW227607   7.035   6.283   0.939
 5870SOL     OW27608   3.192   4.014   6.174
 5870SOL    HW127609   3.254   3.948   6.216
 5870SOL    HW227610   3.212   4.023   6.076
 5871SOL     OW27611   0.269   1.026   4.717
 5871SOL    HW127612   0.271   0.956   4.645
 5871SOL    HW227613   0.194   1.090   4.701
 5872SOL     OW27614   6.279   3.435   3.033
 5872SOL    HW127615   6.266   3.436   2.934
 5872SOL    HW227616   6.365   3.480   3.057
 5873SOL     OW27617   2.961   4.730   4.164
 5873SOL    HW127618   2.893   4.788   4.118
 5873SOL    HW227619   3.027   4.695   4.099
 5874SOL     OW27620   5.437   6.215   7.994
 5874SOL    HW127621   5.428   6.198   7.896
 5874SOL    HW227622   5.393   6.302   8.018
 5875SOL     OW27623   4.508   2.662   4.881
 5875SOL    HW127624   4.432   2.604   4.852
 5875SOL    HW227625   4.559   2.694   4.801
 5876SOL     OW27626   4.517   2.637   6.994
 5876SOL    HW127627   4.480   2.675   6.909
 5876SOL    HW227628   4.447   2.582   7.039
 5877SOL     OW27629   3.142   0.220   0.743
 5877SOL    HW127630   3.074   0.147   0.739
 5877SOL    HW227631   3.099   0.309   0.728
 5878SOL     OW27632   6.934   7.567   4.454
 5878SOL    HW127633   6.861   7.631   4.432
 5878SOL    HW227634   7.005   7.571   4.384
 5879SOL     OW27635   5.229   1.546   7.853
 5879SOL    HW127636   5.227   1.557   7.754
 5879SOL    HW227637   5.141   1.572   7.893
 5880SOL     OW27638   7.462   0.317   0.275
 5880SOL    HW127639   7.562   0.313   0.269
 5880SOL    HW227640   7.427   0.241   0.330
 5881SOL     OW27641   4.926   6.431   6.719
 5881SOL    HW127642   4.837   6.473   6.742
 5881SOL    HW227643   4.921   6.388   6.630
 5882SOL     OW27644   0.934   6.794   1.129
 5882SOL    HW127645   1.015   6.851   1.112
 5882SOL    HW227646   0.938   6.755   1.221
 5883SOL     OW27647   7.724   6.796   2.412
 5883SOL    HW127648   7.764   6.884   2.439
 5883SOL    HW227649   7.627   6.795   2.432
 5884SOL     OW27650   0.357   4.105   0.403
 5884SOL    HW127651   0.359   4.062   0.313
 5884SOL    HW227652   0.443   4.152   0.421
 5885SOL     OW27653   6.118   4.231   2.378
 5885SOL    HW127654   6.019   4.224   2.366
 5885SOL    HW227655   6.139   4.249   2.474
 5886SOL     OW27656   5.597   4.392   3.261
 5886SOL    HW127657   5.536   4.313   3.264
 5886SOL    HW227658   5.692   4.363   3.261
 5887SOL     OW27659   5.571   2.899   1.431
 5887SOL    HW127660   5.590   2.804   1.458
 5887SOL    HW227661   5.531   2.949   1.507
 5888SOL     OW27662   7.738   3.382   6.570
 5888SOL    HW127663   7.739   3.441   6.489
 5888SOL    HW227664   7.734   3.439   6.653
 5889SOL     OW27665   0.306   3.679   5.030
 5889SOL    HW127666   0.402   3.680   5.000
 5889SOL    HW227667   0.280   3.587   5.058
 5890SOL     OW27668   6.855   3.052   1.402
 5890SOL    HW127669   6.800   3.115   1.347
 5890SOL    HW227670   6.926   3.011   1.346
 5891SOL     OW27671   6.146   5.295   0.122
 5891SOL    HW127672   6.098   5.376   0.087
 5891SOL    HW227673   6.165   5.233   0.047
 5892SOL     OW27674   3.940   5.788   7.105
 5892SOL    HW127675   3.883   5.716   7.067
 5892SOL    HW227676   3.906   5.815   7.195
 5893SOL     OW27677   6.133   6.562   1.997
 5893SOL    HW127678   6.088   6.627   2.058
 5893SOL    HW227679   6.088   6.473   2.003
 5894SOL     OW27680   7.359   5.881   1.406
 5894SOL    HW127681   7.326   5.970   1.438
 5894SOL    HW227682   7.359   5.879   1.307
 5895SOL     OW27683   5.338   1.943   3.778
 5895SOL    HW127684   5.364   1.852   3.812
 5895SOL    HW227685   5.295   1.995   3.851
 5896SOL     OW27686   3.061   6.925   0.622
 5896SOL    HW127687   3.031   6.946   0.715
 5896SOL    HW227688   3.155   6.957   0.609
 5897SOL     OW27689   4.331   7.750   4.152
 5897SOL    HW127690   4.284   7.754   4.240
 5897SOL    HW227691   4.324   7.839   4.106
 5898SOL     OW27692   1.002   6.440   1.016
 5898SOL    HW127693   1.092   6.415   1.054
 5898SOL    HW227694   1.014   6.490   0.930
 5899SOL     OW27695   7.282   4.647   3.485
 5899SOL    HW127696   7.238   4.558   3.475
 5899SOL    HW227697   7.258   4.706   3.409
 5900SOL     OW27698   5.393   6.898   5.011
 5900SOL    HW127699   5.382   6.812   4.961
 5900SOL    HW227700   5.364   6.887   5.106
 5901SOL     OW27701   7.377   0.227   3.008
 5901SOL    HW127702   7.380   0.143   2.954
 5901SOL    HW227703   7.469   0.261   3.025
 5902SOL     OW27704   5.518   3.328   4.025
 5902SOL    HW127705   5.490   3.244   3.979
 5902SOL    HW227706   5.606   3.359   3.989
 5903SOL     OW27707   6.270   6.688   4.326
 5903SOL    HW127708   6.184   6.724   4.363
 5903SOL    HW227709   6.345   6.706   4.389
 5904SOL     OW27710   1.778   3.686   7.284
 5904SOL    HW127711   1.840   3.680   7.363
 5904SOL    HW227712   1.818   3.745   7.213
 5905SOL     OW27713   7.253   0.773   5.530
 5905SOL    HW127714   7.253   0.772   5.631
 5905SOL    HW227715   7.302   0.693   5.495
 5906SOL     OW27716   5.642   1.829   0.574
 5906SOL    HW127717   5.655   1.904   0.640
 5906SOL    HW227718   5.668   1.859   0.483
 5907SOL     OW27719   4.322   3.850   3.219
 5907SOL    HW127720   4.402   3.816   3.169
 5907SOL    HW227721   4.245   3.788   3.207
 5908SOL     OW27722   3.180   2.644   0.119
 5908SOL    HW127723   3.104   2.627   0.055
 5908SOL    HW227724   3.201   2.741   0.122
 5909SOL     OW27725   7.302   1.007   5.903
 5909SOL    HW127726   7.328   0.922   5.859
 5909SOL    HW227727   7.265   0.989   5.995
 5910SOL     OW27728   3.788   4.272   2.774
 5910SOL    HW127729   3.744   4.359   2.797
 5910SOL    HW227730   3.748   4.234   2.691
 5911SOL     OW27731   4.050   2.478   2.100
 5911SOL    HW127732   4.141   2.496   2.138
 5911SOL    HW227733   4.043   2.517   2.009
 5912SOL     OW27734   2.189   3.688   0.119
 5912SOL    HW127735   2.215   3.600   0.159
 5912SOL    HW227736   2.159   3.676   0.024
 5913SOL     OW27737   6.397   1.146   1.620
 5913SOL    HW127738   6.444   1.216   1.566
 5913SOL    HW227739   6.400   1.170   1.717
 5914SOL     OW27740   2.218   4.137   2.620
 5914SOL    HW127741   2.159   4.069   2.578
 5914SOL    HW227742   2.187   4.157   2.713
 5915SOL     OW27743   0.767   1.153   4.936
 5915SOL    HW127744   0.833   1.217   4.895
 5915SOL    HW227745   0.790   1.137   5.031
 5916SOL     OW27746   0.182   3.615   3.080
 5916SOL    HW127747   0.089   3.596   3.048
 5916SOL    HW227748   0.180   3.651   3.173
 5917SOL     OW27749   1.799   2.300   4.423
 5917SOL    HW127750   1.798   2.397   4.447
 5917SOL    HW227751   1.884   2.258   4.456
 5918SOL     OW27752   5.895   4.497   2.499
 5918SOL    HW127753   5.958   4.429   2.460
 5918SOL    HW227754   5.805   4.456   2.513
 5919SOL     OW27755   5.095   6.614   0.388
 5919SOL    HW127756   5.189   6.590   0.367
 5919SOL    HW227757   5.068   6.578   0.477
 5920SOL     OW27758   2.146   1.078   5.732
 5920SOL    HW127759   2.174   1.072   5.635
 5920SOL    HW227760   2.226   1.095   5.789
 5921SOL     OW27761   3.887   7.314   7.837
 5921SOL    HW127762   3.889   7.280   7.743
 5921SOL    HW227763   3.874   7.238   7.901
 5922SOL     OW27764   0.244   1.869   6.060
 5922SOL    HW127765   0.185   1.947   6.081
 5922SOL    HW227766   0.211   1.821   5.979
 5923SOL     OW27767   0.466   6.373   5.868
 5923SOL    HW127768   0.418   6.395   5.953
 5923SOL    HW227769   0.546   6.316   5.887
 5924SOL     OW27770   1.431   2.670   6.871
 5924SOL    HW127771   1.452   2.763   6.841
 5924SOL    HW227772   1.453   2.660   6.968
 5925SOL     OW27773   3.332   6.897   2.478
 5925SOL    HW127774   3.340   6.854   2.388
 5925SOL    HW227775   3.308   6.993   2.468
 5926SOL     OW27776   5.336   0.059   5.553
 5926SOL    HW127777   5.363   0.027   5.462
 5926SOL    HW227778   5.237   0.052   5.564
 5927SOL     OW27779   1.536   1.981   2.215
 5927SOL    HW127780   1.548   2.052   2.284
 5927SOL    HW227781   1.505   2.020   2.129
 5928SOL     OW27782   1.925   4.792   7.757
 5928SOL    HW127783   1.885   4.861   7.818
 5928SOL    HW227784   1.984   4.731   7.808
 5929SOL     OW27785   7.495   0.588   0.825
 5929SOL    HW127786   7.500   0.610   0.728
 5929SOL    HW227787   7.571   0.528   0.851
 5930SOL     OW27788   4.452   6.963   1.699
 5930SOL    HW127789   4.397   6.892   1.655
 5930SOL    HW227790   4.396   7.013   1.765
 5931SOL     OW27791   6.270   5.290   5.210
 5931SOL    HW127792   6.266   5.226   5.287
 5931SOL    HW227793   6.318   5.248   5.133
 5932SOL     OW27794   6.285   5.504   5.529
 5932SOL    HW127795   6.188   5.530   5.528
 5932SOL    HW227796   6.304   5.441   5.454
 5933SOL     OW27797   6.437   4.558   0.188
 5933SOL    HW127798   6.379   4.482   0.216
 5933SOL    HW227799   6.473   4.542   0.096
 5934SOL     OW27800   7.533   1.096   0.112
 5934SOL    HW127801   7.471   1.168   0.145
 5934SOL    HW227802   7.552   1.031   0.185
 5935SOL     OW27803   6.228   2.080   0.524
 5935SOL    HW127804   6.143   2.121   0.489
 5935SOL    HW227805   6.251   2.121   0.612
 5936SOL     OW27806   3.682   0.707   3.747
 5936SOL    HW127807   3.613   0.650   3.793
 5936SOL    HW227808   3.757   0.650   3.713
 5937SOL     OW27809   6.891   6.157   2.458
 5937SOL    HW127810   6.820   6.088   2.448
 5937SOL    HW227811   6.981   6.116   2.445
 5938SOL     OW27812   1.245   2.295   0.915
 5938SOL    HW127813   1.199   2.378   0.884
 5938SOL    HW227814   1.320   2.318   0.977
 5939SOL     OW27815   4.336   7.143   4.616
 5939SOL    HW127816   4.354   7.053   4.657
 5939SOL    HW227817   4.287   7.201   4.681
 5940SOL     OW27818   2.744   1.324   3.176
 5940SOL    HW127819   2.756   1.392   3.103
 5940SOL    HW227820   2.738   1.369   3.265
 5941SOL     OW27821   5.977   4.075   5.495
 5941SOL    HW127822   6.041   4.041   5.564
 5941SOL    HW227823   6.028   4.111   5.417
 5942SOL     OW27824   4.256   3.689   5.284
 5942SOL    HW127825   4.272   3.684   5.186
 5942SOL    HW227826   4.335   3.733   5.329
 5943SOL     OW27827   0.425   5.478   7.318
 5943SOL    HW127828   0.499   5.421   7.354
 5943SOL    HW227829   0.435   5.488   7.219
 5944SOL     OW27830   6.004   4.184   1.548
 5944SOL    HW127831   6.060   4.251   1.596
 5944SOL    HW227832   5.920   4.228   1.515
 5945SOL     OW27833   1.638   5.071   5.455
 5945SOL    HW127834   1.682   5.025   5.377
 5945SOL    HW227835   1.565   5.013   5.492
 5946SOL     OW27836   2.547   7.613   0.186
 5946SOL    HW127837   2.485   7.666   0.244
 5946SOL    HW227838   2.508   7.524   0.167
 5947SOL     OW27839   4.906   4.744   5.687
 5947SOL    HW127840   4.928   4.840   5.701
 5947SOL    HW227841   4.973   4.686   5.733
 5948SOL     OW27842   0.238   1.881   6.776
 5948SOL    HW127843   0.237   1.792   6.821
 5948SOL    HW227844   0.331   1.906   6.750
 5949SOL     OW27845   4.765   0.046   7.588
 5949SOL    HW127846   4.862   0.029   7.604
 5949SOL    HW227847   4.745   0.039   7.490
 5950SOL     OW27848   7.916   2.265   3.608
 5950SOL    HW127849   7.882   2.196   3.544
 5950SOL    HW227850   7.875   2.252   3.698
 5951SOL     OW27851   3.534   3.465   4.404
 5951SOL    HW127852   3.442   3.478   4.368
 5951SOL    HW227853   3.543   3.505   4.495
 5952SOL     OW27854   7.391   0.176   1.153
 5952SOL    HW127855   7.295   0.201   1.165
 5952SOL    HW227856   7.410   0.154   1.058
 5953SOL     OW27857   0.733   2.182   6.527
 5953SOL    HW127858   0.805   2.245   6.555
 5953SOL    HW227859   0.650   2.232   6.503
 5954SOL     OW27860   7.955   1.902   3.731
 5954SOL    HW127861   7.955   1.997   3.761
 5954SOL    HW227862   7.875   1.885   3.673
 5955SOL     OW27863   6.537   0.989   3.624
 5955SOL    HW127864   6.472   0.958   3.694
 5955SOL    HW227865   6.568   1.082   3.645
 5956SOL     OW27866   0.535   5.545   4.157
 5956SOL    HW127867   0.602   5.511   4.091
 5956SOL    HW227868   0.567   5.629   4.199
 5957SOL     OW27869   2.102   6.091   1.356
 5957SOL    HW127870   2.077   6.129   1.445
 5957SOL    HW227871   2.197   6.113   1.334
 5958SOL     OW27872   4.095   2.473   1.031
 5958SOL    HW127873   4.170   2.412   1.056
 5958SOL    HW227874   4.126   2.568   1.034
 5959SOL     OW27875   3.724   0.542   4.596
 5959SOL    HW127876   3.720   0.466   4.531
 5959SOL    HW227877   3.786   0.613   4.562
 5960SOL     OW27878   1.790   2.564   7.391
 5960SOL    HW127879   1.741   2.630   7.448
 5960SOL    HW227880   1.798   2.598   7.298
 5961SOL     OW27881   7.845   3.050   7.282
 5961SOL    HW127882   7.901   3.122   7.322
 5961SOL    HW227883   7.819   3.075   7.188
 5962SOL     OW27884   6.200   3.773   0.127
 5962SOL    HW127885   6.254   3.848   0.091
 5962SOL    HW227886   6.213   3.765   0.226
 5963SOL     OW27887   7.287   4.398   7.568
 5963SOL    HW127888   7.313   4.303   7.548
 5963SOL    HW227889   7.255   4.405   7.663
 5964SOL     OW27890   6.036   2.664   7.206
 5964SOL    HW127891   6.003   2.601   7.277
 5964SOL    HW227892   6.119   2.710   7.237
 5965SOL     OW27893   4.989   1.290   5.508
 5965SOL    HW127894   5.052   1.359   5.545
 5965SOL    HW227895   4.957   1.320   5.418
 5966SOL     OW27896   0.359   7.635   1.990
 5966SOL    HW127897   0.315   7.563   1.935
 5966SOL    HW227898   0.289   7.690   2.036
 5967SOL     OW27899   7.166  -0.005   5.516
 5967SOL    HW127900   7.255   0.001   5.561
 5967SOL    HW227901   7.134   0.086   5.492
 5968SOL     OW27902   7.189   5.819   4.802
 5968SOL    HW127903   7.108   5.875   4.818
 5968SOL    HW227904   7.183   5.776   4.712
 5969SOL     OW27905   6.884   2.009   4.122
 5969SOL    HW127906   6.928   1.970   4.203
 5969SOL    HW227907   6.789   2.033   4.143
 5970SOL     OW27908   3.410   5.574   6.630
 5970SOL    HW127909   3.480   5.516   6.587
 5970SOL    HW227910   3.429   5.584   6.728
 5971SOL     OW27911   4.589   1.698   3.380
 5971SOL    HW127912   4.569   1.692   3.478
 5971SOL    HW227913   4.688   1.698   3.365
 5972SOL     OW27914   0.245   6.819   7.716
 5972SOL    HW127915   0.224   6.754   7.789
 5972SOL    HW227916   0.335   6.798   7.676
 5973SOL     OW27917   5.286   7.684   5.457
 5973SOL    HW127918   5.347   7.763   5.463
 5973SOL    HW227919   5.317   7.611   5.518
 5974SOL     OW27920   5.211   0.932   2.606
 5974SOL    HW127921   5.142   0.946   2.535
 5974SOL    HW227922   5.302   0.950   2.569
 5975SOL     OW27923   3.947   7.272   6.689
 5975SOL    HW127924   3.897   7.347   6.731
 5975SOL    HW227925   4.044   7.280   6.712
 5976SOL     OW27926   7.334   6.938   0.268
 5976SOL    HW127927   7.257   6.999   0.283
 5976SOL    HW227928   7.397   6.944   0.346
 5977SOL     OW27929   3.139   0.884   2.763
 5977SOL    HW127930   3.099   0.972   2.788
 5977SOL    HW227931   3.171   0.836   2.845
 5978SOL     OW27932   3.391   7.327   2.719
 5978SOL    HW127933   3.489   7.307   2.715
 5978SOL    HW227934   3.373   7.404   2.780
 5979SOL     OW27935   1.213   1.423   1.537
 5979SOL    HW127936   1.256   1.486   1.472
 5979SOL    HW227937   1.257   1.430   1.626
 5980SOL     OW27938   3.508   1.973   6.135
 5980SOL    HW127939   3.479   1.877   6.144
 5980SOL    HW227940   3.578   1.981   6.065
 5981SOL     OW27941   3.798   2.563   6.247
 5981SOL    HW127942   3.821   2.636   6.182
 5981SOL    HW227943   3.730   2.597   6.312
 5982SOL     OW27944   7.244   4.824   3.673
 5982SOL    HW127945   7.333   4.786   3.647
 5982SOL    HW227946   7.171   4.774   3.627
 5983SOL     OW27947   7.625   5.852   5.790
 5983SOL    HW127948   7.532   5.841   5.826
 5983SOL    HW227949   7.633   5.805   5.702
 5984SOL     OW27950   1.582   3.595   6.977
 5984SOL    HW127951   1.577   3.634   6.885
 5984SOL    HW227952   1.675   3.566   6.997
 5985SOL     OW27953   1.968   2.914   3.604
 5985SOL    HW127954   1.941   2.880   3.514
 5985SOL    HW227955   1.903   2.983   3.635
 5986SOL     OW27956   7.028   3.230   4.574
 5986SOL    HW127957   7.084   3.177   4.510
 5986SOL    HW227958   7.087   3.281   4.637
 5987SOL     OW27959   6.808   3.002   5.925
 5987SOL    HW127960   6.883   2.973   5.865
 5987SOL    HW227961   6.780   3.095   5.902
 5988SOL     OW27962   2.007   1.994   5.349
 5988SOL    HW127963   1.963   1.920   5.400
 5988SOL    HW227964   2.085   1.958   5.298
 5989SOL     OW27965   4.779   4.177   0.527
 5989SOL    HW127966   4.877   4.187   0.506
 5989SOL    HW227967   4.768   4.130   0.615
 5990SOL     OW27968   0.529   2.473   7.405
 5990SOL    HW127969   0.524   2.570   7.425
 5990SOL    HW227970   0.437   2.437   7.387
 5991SOL     OW27971   0.851   1.150   0.812
 5991SOL    HW127972   0.807   1.126   0.899
 5991SOL    HW227973   0.782   1.177   0.745
 5992SOL     OW27974   5.348   0.842   0.068
 5992SOL    HW127975   5.255   0.828   0.034
 5992SOL    HW227976   5.405   0.763   0.045
 5993SOL     OW27977   7.465   1.303   7.846
 5993SOL    HW127978   7.458   1.398   7.815
 5993SOL    HW227979   7.486   1.300   7.943
 5994SOL     OW27980   3.166   4.607   5.869
 5994SOL    HW127981   3.074   4.646   5.858
 5994SOL    HW227982   3.169   4.516   5.828
 5995SOL     OW27983   0.890   6.529   6.630
 5995SOL    HW127984   0.943   6.591   6.572
 5995SOL    HW227985   0.877   6.570   6.720
 5996SOL     OW27986   7.473   1.737   5.927
 5996SOL    HW127987   7.473   1.639   5.945
 5996SOL    HW227988   7.547   1.760   5.864
 5997SOL     OW27989   3.762   5.777   6.054
 5997SOL    HW127990   3.833   5.845   6.074
 5997SOL    HW227991   3.675   5.806   6.094
 5998SOL     OW27992   6.518  -0.011   5.123
 5998SOL    HW127993   6.433   0.015   5.078
 5998SOL    HW227994   6.577   0.068   5.135
 5999SOL     OW27995   7.607   2.573   0.458
 5999SOL    HW127996   7.533   2.619   0.408
 5999SOL    HW227997   7.689   2.629   0.456
 6000SOL     OW27998   5.442   3.768   6.299
 6000SOL    HW127999   5.359   3.808   6.260
 6000SOL    HW228000   5.426   3.671   6.321
 6001SOL     OW28001   4.439   5.008   7.180
 6001SOL    HW128002   4.494   5.047   7.253
 6001SOL    HW228003   4.345   4.992   7.213
 6002SOL     OW28004   6.558   0.399   5.556
 6002SOL    HW128005   6.516   0.311   5.579
 6002SOL    HW228006   6.589   0.399   5.462
 6003SOL     OW28007   6.765   0.885   6.777
 6003SOL    HW128008   6.817   0.934   6.847
 6003SOL    HW228009   6.692   0.943   6.741
 6004SOL     OW28010   1.639   7.886   0.477
 6004SOL    HW128011   1.712   7.828   0.514
 6004SOL    HW228012   1.663   7.916   0.385
 6005SOL     OW28013   1.931   1.781   7.621
 6005SOL    HW128014   1.934   1.714   7.547
 6005SOL    HW228015   1.945   1.873   7.585
 6006SOL     OW28016   3.995   3.625   3.275
 6006SOL    HW128017   3.962   3.561   3.206
 6006SOL    HW228018   4.042   3.702   3.231
 6007SOL     OW28019   4.978   7.947   7.289
 6007SOL    HW128020   4.934   7.863   7.258
 6007SOL    HW228021   4.944   7.971   7.381
 6008SOL     OW28022   3.434   6.863   4.309
 6008SOL    HW128023   3.474   6.837   4.396
 6008SOL    HW228024   3.506   6.880   4.242
 6009SOL     OW28025   7.662   0.088   1.192
 6009SOL    HW128026   7.619   0.149   1.126
 6009SOL    HW228027   7.760   0.110   1.200
 6010SOL     OW28028   1.921   6.258   4.231
 6010SOL    HW128029   1.915   6.288   4.327
 6010SOL    HW228030   1.999   6.197   4.219
 6011SOL     OW28031   6.959   7.302   3.996
 6011SOL    HW128032   6.961   7.215   3.947
 6011SOL    HW228033   7.052   7.340   4.000
 6012SOL     OW28034   2.582   3.890   7.749
 6012SOL    HW128035   2.651   3.846   7.806
 6012SOL    HW228036   2.525   3.821   7.704
 6013SOL     OW28037   6.253   3.228   6.956
 6013SOL    HW128038   6.174   3.288   6.971
 6013SOL    HW228039   6.223   3.135   6.937
 6014SOL     OW28040   7.272   5.029   1.599
 6014SOL    HW128041   7.216   4.962   1.649
 6014SOL    HW228042   7.292   4.995   1.508
 6015SOL     OW28043   3.111   3.796   6.131
 6015SOL    HW128044   3.194   3.767   6.083
 6015SOL    HW228045   3.091   3.735   6.207
 6016SOL     OW28046   0.196   0.997   5.813
 6016SOL    HW128047   0.157   1.078   5.770
 6016SOL    HW228048   0.253   1.024   5.891
 6017SOL     OW28049   3.934   2.757   4.330
 6017SOL    HW128050   3.917   2.845   4.376
 6017SOL    HW228051   4.026   2.756   4.291
 6018SOL     OW28052   6.223   4.357   7.109
 6018SOL    HW128053   6.187   4.448   7.130
 6018SOL    HW228054   6.162   4.310   7.046
 6019SOL     OW28055   0.144   1.639   6.375
 6019SOL    HW128056   0.217   1.570   6.368
 6019SOL    HW228057   0.128   1.680   6.286
 6020SOL     OW28058   7.383   4.802   1.604
 6020SOL    HW128059   7.429   4.722   1.643
 6020SOL    HW228060   7.346   4.779   1.514
 6021SOL     OW28061  -0.009   0.359   1.544
 6021SOL    HW128062   0.065   0.421   1.571
 6021SOL    HW228063   0.003   0.271   1.589
 6022SOL     OW28064   2.868   2.760   6.338
 6022SOL    HW128065   2.789   2.727   6.391
 6022SOL    HW228066   2.900   2.688   6.277
 6023SOL     OW28067   5.216   4.797   5.765
 6023SOL    HW128068   5.298   4.854   5.770
 6023SOL    HW228069   5.237   4.704   5.795
 6024SOL     OW28070   7.200   6.497   5.093
 6024SOL    HW128071   7.272   6.433   5.118
 6024SOL    HW228072   7.236   6.567   5.031
 6025SOL     OW28073   5.999   0.281   1.324
 6025SOL    HW128074   5.902   0.296   1.345
 6025SOL    HW228075   6.044   0.369   1.306
 6026SOL     OW28076   7.792   6.225   0.746
 6026SOL    HW128077   7.756   6.309   0.705
 6026SOL    HW228078   7.890   6.233   0.761
 6027SOL     OW28079   2.135   4.328   4.814
 6027SOL    HW128080   2.224   4.322   4.860
 6027SOL    HW228081   2.148   4.354   4.718
 6028SOL     OW28082   0.023   1.950   4.136
 6028SOL    HW128083   0.098   2.015   4.128
 6028SOL    HW228084   0.014   1.919   4.231
 6029SOL     OW28085   3.371   2.684   3.237
 6029SOL    HW128086   3.383   2.774   3.195
 6029SOL    HW228087   3.407   2.686   3.331
 6030SOL     OW28088   5.095   4.529   6.859
 6030SOL    HW128089   5.142   4.534   6.947
 6030SOL    HW228090   5.026   4.602   6.853
 6031SOL     OW28091   2.515   2.233   6.020
 6031SOL    HW128092   2.532   2.140   6.053
 6031SOL    HW228093   2.591   2.262   5.961
 6032SOL     OW28094   1.393   4.541   2.053
 6032SOL    HW128095   1.337   4.512   1.975
 6032SOL    HW228096   1.333   4.578   2.125
 6033SOL     OW28097   3.103   4.417   5.306
 6033SOL    HW128098   3.132   4.328   5.344
 6033SOL    HW228099   3.131   4.424   5.211
 6034SOL     OW28100   2.846   4.479   7.633
 6034SOL    HW128101   2.936   4.436   7.621
 6034SOL    HW228102   2.856   4.578   7.636
 6035SOL     OW28103   7.285   1.518   4.296
 6035SOL    HW128104   7.282   1.525   4.197
 6035SOL    HW228105   7.196   1.542   4.335
 6036SOL     OW28106   4.177   7.420   0.745
 6036SOL    HW128107   4.084   7.397   0.715
 6036SOL    HW228108   4.210   7.351   0.809
 6037SOL     OW28109   3.067   4.376   7.361
 6037SOL    HW128110   3.138   4.340   7.300
 6037SOL    HW228111   3.032   4.303   7.419
 6038SOL     OW28112   4.655   6.277   6.248
 6038SOL    HW128113   4.599   6.360   6.258
 6038SOL    HW228114   4.721   6.288   6.174
 6039SOL     OW28115   4.599   2.555   5.944
 6039SOL    HW128116   4.614   2.484   6.013
 6039SOL    HW228117   4.527   2.617   5.974
 6040SOL     OW28118   0.030   7.963   6.438
 6040SOL    HW128119   0.094   7.989   6.366
 6040SOL    HW228120  -0.045   7.909   6.400
 6041SOL     OW28121   4.548   3.835   3.564
 6041SOL    HW128122   4.572   3.930   3.546
 6041SOL    HW228123   4.511   3.826   3.657
 6042SOL     OW28124   4.710   6.108   7.471
 6042SOL    HW128125   4.716   6.039   7.398
 6042SOL    HW228126   4.769   6.186   7.449
 6043SOL     OW28127   4.299   5.078   0.516
 6043SOL    HW128128   4.256   5.162   0.551
 6043SOL    HW228129   4.266   5.059   0.424
 6044SOL     OW28130   6.172   2.180   7.164
 6044SOL    HW128131   6.121   2.256   7.206
 6044SOL    HW228132   6.139   2.165   7.071
 6045SOL     OW28133   1.699   7.491   7.536
 6045SOL    HW128134   1.696   7.573   7.479
 6045SOL    HW228135   1.661   7.511   7.626
 6046SOL     OW28136   6.723   5.083   2.710
 6046SOL    HW128137   6.674   5.010   2.663
 6046SOL    HW228138   6.665   5.164   2.715
 6047SOL     OW28139   1.861   1.899   3.269
 6047SOL    HW128140   1.898   1.992   3.265
 6047SOL    HW228141   1.771   1.896   3.226
 6048SOL     OW28142   3.270   2.153   5.598
 6048SOL    HW128143   3.308   2.118   5.513
 6048SOL    HW228144   3.262   2.079   5.665
 6049SOL     OW28145   6.192   0.633   6.497
 6049SOL    HW128146   6.257   0.705   6.523
 6049SOL    HW228147   6.235   0.543   6.508
 6050SOL     OW28148   7.537   5.400   1.018
 6050SOL    HW128149   7.464   5.340   1.048
 6050SOL    HW228150   7.567   5.376   0.926
 6051SOL     OW28151   0.090   2.449   1.214
 6051SOL    HW128152   0.038   2.369   1.185
 6051SOL    HW228153   0.029   2.518   1.254
 6052SOL     OW28154   7.390   6.483   2.232
 6052SOL    HW128155   7.439   6.397   2.245
 6052SOL    HW228156   7.313   6.489   2.296
 6053SOL     OW28157   7.592   3.707   4.797
 6053SOL    HW128158   7.594   3.798   4.837
 6053SOL    HW228159   7.607   3.713   4.698
 6054SOL     OW28160   0.559   4.457   7.950
 6054SOL    HW128161   0.650   4.496   7.938
 6054SOL    HW228162   0.508   4.509   8.018
 6055SOL     OW28163   3.334   4.810   6.621
 6055SOL    HW128164   3.431   4.787   6.609
 6055SOL    HW228165   3.282   4.728   6.641
 6056SOL     OW28166   5.754   1.767   7.676
 6056SOL    HW128167   5.796   1.722   7.755
 6056SOL    HW228168   5.822   1.785   7.606
 6057SOL     OW28169   4.399   5.703   3.793
 6057SOL    HW128170   4.373   5.799   3.806
 6057SOL    HW228171   4.358   5.667   3.710
 6058SOL     OW28172   4.011   7.494   7.488
 6058SOL    HW128173   3.992   7.592   7.497
 6058SOL    HW228174   4.082   7.467   7.552
 6059SOL     OW28175   2.713   1.505   0.717
 6059SOL    HW128176   2.784   1.568   0.685
 6059SOL    HW228177   2.755   1.423   0.756
 6060SOL     OW28178   6.950   2.080   5.229
 6060SOL    HW128179   7.011   2.159   5.224
 6060SOL    HW228180   7.003   1.996   5.230
 6061SOL     OW28181   3.583   5.407   2.910
 6061SOL    HW128182   3.522   5.367   2.841
 6061SOL    HW228183   3.599   5.341   2.983
 6062SOL     OW28184   3.078   3.536   6.839
 6062SOL    HW128185   3.079   3.441   6.871
 6062SOL    HW228186   3.017   3.545   6.760
 6063SOL     OW28187   6.597   5.187   7.968
 6063SOL    HW128188   6.601   5.101   8.018
 6063SOL    HW228189   6.643   5.178   7.880
 6064SOL     OW28190   7.304   3.309   0.850
 6064SOL    HW128191   7.336   3.244   0.781
 6064SOL    HW228192   7.295   3.400   0.810
 6065SOL     OW28193   0.426   3.517   4.480
 6065SOL    HW128194   0.510   3.569   4.491
 6065SOL    HW228195   0.402   3.512   4.383
 6066SOL     OW28196   1.162   4.260   6.986
 6066SOL    HW128197   1.228   4.334   6.976
 6066SOL    HW228198   1.078   4.294   7.027
 6067SOL     OW28199   0.081   6.663   2.205
 6067SOL    HW128200   0.098   6.577   2.254
 6067SOL    HW228201   0.155   6.682   2.142
 6068SOL     OW28202   5.990   6.135   0.922
 6068SOL    HW128203   6.001   6.041   0.956
 6068SOL    HW228204   5.974   6.135   0.824
 6069SOL     OW28205   4.030   4.424   6.936
 6069SOL    HW128206   4.130   4.420   6.927
 6069SOL    HW228207   4.002   4.517   6.960
 6070SOL     OW28208   7.372   0.853   3.813
 6070SOL    HW128209   7.450   0.901   3.854
 6070SOL    HW228210   7.370   0.759   3.844
 6071SOL     OW28211   7.557   3.947   3.675
 6071SOL    HW128212   7.552   4.047   3.665
 6071SOL    HW228213   7.465   3.909   3.680
 6072SOL     OW28214   0.367   0.074   2.795
 6072SOL    HW128215   0.419  -0.011   2.795
 6072SOL    HW228216   0.375   0.119   2.706
 6073SOL     OW28217   0.344   6.508   6.224
 6073SOL    HW128218   0.425   6.567   6.221
 6073SOL    HW228219   0.286   6.526   6.145
 6074SOL     OW28220   1.903   2.137   6.301
 6074SOL    HW128221   1.934   2.226   6.334
 6074SOL    HW228222   1.874   2.144   6.205
 6075SOL     OW28223   1.973   5.683   4.925
 6075SOL    HW128224   2.041   5.643   4.863
 6075SOL    HW228225   1.979   5.640   5.015
 6076SOL     OW28226   2.293   6.814   4.960
 6076SOL    HW128227   2.195   6.835   4.968
 6076SOL    HW228228   2.308   6.753   4.882
 6077SOL     OW28229   2.938   5.431   6.401
 6077SOL    HW128230   2.965   5.480   6.319
 6077SOL    HW228231   3.019   5.408   6.456
 6078SOL     OW28232   6.135   7.093   1.343
 6078SOL    HW128233   6.226   7.054   1.359
 6078SOL    HW228234   6.068   7.050   1.404
 6079SOL     OW28235   1.944   7.534   7.468
 6079SOL    HW128236   1.993   7.615   7.501
 6079SOL    HW228237   1.918   7.475   7.544
 6080SOL     OW28238   7.635   4.234   6.576
 6080SOL    HW128239   7.578   4.176   6.635
 6080SOL    HW228240   7.704   4.281   6.632
 6081SOL     OW28241   4.922   6.104   3.648
 6081SOL    HW128242   4.845   6.099   3.584
 6081SOL    HW228243   4.991   6.168   3.613
 6082SOL     OW28244   3.992   2.120   6.361
 6082SOL    HW128245   4.079   2.070   6.370
 6082SOL    HW228246   3.937   2.108   6.443
 6083SOL     OW28247   5.271   3.439   7.830
 6083SOL    HW128248   5.272   3.364   7.896
 6083SOL    HW228249   5.288   3.404   7.738
 6084SOL     OW28250   2.589   6.222   4.183
 6084SOL    HW128251   2.516   6.170   4.228
 6084SOL    HW228252   2.641   6.273   4.252
 6085SOL     OW28253   1.649   0.574   6.699
 6085SOL    HW128254   1.672   0.641   6.769
 6085SOL    HW228255   1.725   0.509   6.688
 6086SOL     OW28256   7.689   7.537   6.171
 6086SOL    HW128257   7.687   7.633   6.200
 6086SOL    HW228258   7.667   7.530   6.074
 6087SOL     OW28259   7.678   2.100   7.833
 6087SOL    HW128260   7.648   2.011   7.868
 6087SOL    HW228261   7.694   2.094   7.734
 6088SOL     OW28262   7.392   5.788   1.109
 6088SOL    HW128263   7.434   5.713   1.159
 6088SOL    HW228264   7.463   5.841   1.062
 6089SOL     OW28265   3.066   4.635   5.436
 6089SOL    HW128266   3.023   4.549   5.463
 6089SOL    HW228267   3.050   4.652   5.338
 6090SOL     OW28268   1.459   5.748   5.393
 6090SOL    HW128269   1.360   5.754   5.405
 6090SOL    HW228270   1.499   5.840   5.395
 6091SOL     OW28271   6.594   7.415   5.068
 6091SOL    HW128272   6.683   7.384   5.104
 6091SOL    HW228273   6.605   7.501   5.019
 6092SOL     OW28274   5.041   3.219   2.392
 6092SOL    HW128275   5.047   3.311   2.429
 6092SOL    HW228276   4.998   3.221   2.302
 6093SOL     OW28277   0.324   1.795   3.916
 6093SOL    HW128278   0.345   1.842   3.831
 6093SOL    HW228279   0.399   1.734   3.941
 6094SOL     OW28280   2.618   7.194   2.339
 6094SOL    HW128281   2.617   7.110   2.393
 6094SOL    HW228282   2.694   7.252   2.368
 6095SOL     OW28283   7.936   0.392   7.040
 6095SOL    HW128284   7.950   0.449   7.121
 6095SOL    HW228285   7.901   0.447   6.964
 6096SOL     OW28286   7.265   4.653   0.710
 6096SOL    HW128287   7.169   4.658   0.680
 6096SOL    HW228288   7.273   4.680   0.805
 6097SOL     OW28289   1.663   6.569   0.649
 6097SOL    HW128290   1.664   6.669   0.657
 6097SOL    HW228291   1.655   6.528   0.739
 6098SOL     OW28292   4.459   1.296   2.795
 6098SOL    HW128293   4.513   1.367   2.841
 6098SOL    HW228294   4.410   1.335   2.718
 6099SOL     OW28295   2.012   2.304   3.339
 6099SOL    HW128296   1.957   2.221   3.352
 6099SOL    HW228297   2.090   2.304   3.402
 6100SOL     OW28298   4.360   6.561   3.848
 6100SOL    HW128299   4.273   6.587   3.889
 6100SOL    HW228300   4.346   6.536   3.752
 6101SOL     OW28301   3.655   6.417   3.490
 6101SOL    HW128302   3.582   6.485   3.484
 6101SOL    HW228303   3.696   6.403   3.400
 6102SOL     OW28304   3.863   7.058   0.264
 6102SOL    HW128305   3.944   7.117   0.262
 6102SOL    HW228306   3.800   7.089   0.334
 6103SOL     OW28307   6.180   3.244   4.748
 6103SOL    HW128308   6.256   3.187   4.716
 6103SOL    HW228309   6.136   3.200   4.826
 6104SOL     OW28310   7.256   6.586   0.114
 6104SOL    HW128311   7.183   6.517   0.121
 6104SOL    HW228312   7.281   6.598   0.018
 6105SOL     OW28313   5.019   4.394   4.724
 6105SOL    HW128314   5.044   4.490   4.733
 6105SOL    HW228315   4.955   4.382   4.648
 6106SOL     OW28316   4.397   6.250   4.899
 6106SOL    HW128317   4.463   6.184   4.936
 6106SOL    HW228318   4.425   6.277   4.807
 6107SOL     OW28319   5.969   2.552   3.665
 6107SOL    HW128320   6.066   2.576   3.657
 6107SOL    HW228321   5.958   2.453   3.662
 6108SOL     OW28322   0.728   4.764   2.709
 6108SOL    HW128323   0.774   4.842   2.752
 6108SOL    HW228324   0.791   4.686   2.704
 6109SOL     OW28325   3.857   1.045   4.594
 6109SOL    HW128326   3.957   1.048   4.580
 6109SOL    HW228327   3.811   1.017   4.510
 6110SOL     OW28328   2.854   1.317   2.578
 6110SOL    HW128329   2.765   1.337   2.537
 6110SOL    HW228330   2.847   1.239   2.640
 6111SOL     OW28331   1.743   3.975   6.910
 6111SOL    HW128332   1.660   3.956   6.857
 6111SOL    HW228333   1.759   3.902   6.976
 6112SOL     OW28334   4.178   3.265   4.376
 6112SOL    HW128335   4.108   3.307   4.318
 6112SOL    HW228336   4.179   3.308   4.466
 6113SOL     OW28337   1.861   1.262   2.561
 6113SOL    HW128338   1.802   1.186   2.590
 6113SOL    HW228339   1.934   1.229   2.502
 6114SOL     OW28340   5.605   4.097   6.746
 6114SOL    HW128341   5.547   4.179   6.752
 6114SOL    HW228342   5.572   4.028   6.810
 6115SOL     OW28343   4.723   0.358   3.141
 6115SOL    HW128344   4.716   0.265   3.106
 6115SOL    HW228345   4.817   0.375   3.173
 6116SOL     OW28346   3.219   6.836   1.842
 6116SOL    HW128347   3.176   6.762   1.790
 6116SOL    HW228348   3.163   6.861   1.921
 6117SOL     OW28349   6.697   0.323   5.250
 6117SOL    HW128350   6.781   0.373   5.227
 6117SOL    HW228351   6.673   0.262   5.174
 6118SOL     OW28352   3.501   2.681   6.301
 6118SOL    HW128353   3.513   2.583   6.282
 6118SOL    HW228354   3.551   2.706   6.384
 6119SOL     OW28355   3.573   4.125   1.503
 6119SOL    HW128356   3.498   4.189   1.485
 6119SOL    HW228357   3.536   4.036   1.529
 6120SOL     OW28358   0.073   6.753   3.948
 6120SOL    HW128359   0.079   6.850   3.929
 6120SOL    HW228360   0.068   6.701   3.863
 6121SOL     OW28361   1.558   4.579   7.250
 6121SOL    HW128362   1.535   4.656   7.310
 6121SOL    HW228363   1.656   4.580   7.230
 6122SOL     OW28364   2.093   5.214   5.749
 6122SOL    HW128365   2.141   5.243   5.832
 6122SOL    HW228366   2.095   5.286   5.681
 6123SOL     OW28367   1.799   6.958   3.966
 6123SOL    HW128368   1.836   6.867   3.987
 6123SOL    HW228369   1.707   6.967   4.005
 6124SOL     OW28370   4.803   7.904   1.239
 6124SOL    HW128371   4.831   7.931   1.332
 6124SOL    HW228372   4.794   7.805   1.234
 6125SOL     OW28373   4.294   2.838   2.993
 6125SOL    HW128374   4.394   2.842   2.999
 6125SOL    HW228375   4.266   2.753   2.949
 6126SOL     OW28376   4.574   4.828   4.554
 6126SOL    HW128377   4.477   4.808   4.537
 6126SOL    HW228378   4.622   4.843   4.467
 6127SOL     OW28379   1.054   4.031   0.826
 6127SOL    HW128380   1.147   4.031   0.788
 6127SOL    HW228381   0.988   4.042   0.752
 6128SOL     OW28382   7.381  -0.008   1.273
 6128SOL    HW128383   7.289  -0.011   1.235
 6128SOL    HW228384   7.380   0.032   1.365
 6129SOL     OW28385   4.380   1.660   6.503
 6129SOL    HW128386   4.350   1.736   6.560
 6129SOL    HW228387   4.472   1.630   6.530
 6130SOL     OW28388   4.842   5.665   3.850
 6130SOL    HW128389   4.919   5.657   3.787
 6130SOL    HW228390   4.764   5.612   3.817
 6131SOL     OW28391   3.412   4.524   7.611
 6131SOL    HW128392   3.421   4.489   7.704
 6131SOL    HW228393   3.435   4.453   7.545
 6132SOL     OW28394   5.347   4.351   1.767
 6132SOL    HW128395   5.409   4.382   1.838
 6132SOL    HW228396   5.386   4.273   1.718
 6133SOL     OW28397   3.927   0.447   2.342
 6133SOL    HW128398   3.907   0.542   2.319
 6133SOL    HW228399   3.859   0.412   2.406
 6134SOL     OW28400   3.412   2.204   7.799
 6134SOL    HW128401   3.498   2.159   7.824
 6134SOL    HW228402   3.345   2.135   7.772
 6135SOL     OW28403   7.385   0.055   6.688
 6135SOL    HW128404   7.444  -0.012   6.734
 6135SOL    HW228405   7.419   0.073   6.596
 6136SOL     OW28406   3.544   6.560   7.982
 6136SOL    HW128407   3.616   6.619   8.018
 6136SOL    HW228408   3.464   6.615   7.958
 6137SOL     OW28409   0.574   1.039   3.433
 6137SOL    HW128410   0.586   0.990   3.520
 6137SOL    HW228411   0.478   1.038   3.406
 6138SOL     OW28412   0.708   2.759   4.900
 6138SOL    HW128413   0.694   2.666   4.865
 6138SOL    HW228414   0.628   2.815   4.881
 6139SOL     OW28415   6.608   3.174   6.874
 6139SOL    HW128416   6.541   3.181   6.949
 6139SOL    HW228417   6.634   3.265   6.842
 6140SOL     OW28418   3.185   2.628   6.384
 6140SOL    HW128419   3.227   2.543   6.351
 6140SOL    HW228420   3.185   2.696   6.311
 6141SOL     OW28421   4.816   0.709   3.580
 6141SOL    HW128422   4.749   0.739   3.512
 6141SOL    HW228423   4.780   0.723   3.672
 6142SOL     OW28424   1.291   7.613   5.522
 6142SOL    HW128425   1.210   7.660   5.557
 6142SOL    HW228426   1.272   7.575   5.432
 6143SOL     OW28427   6.440   2.499   2.620
 6143SOL    HW128428   6.495   2.572   2.580
 6143SOL    HW228429   6.358   2.484   2.565
 6144SOL     OW28430   3.987   6.410   6.656
 6144SOL    HW128431   3.888   6.408   6.671
 6144SOL    HW228432   4.028   6.486   6.706
 6145SOL     OW28433   4.203   5.775   1.561
 6145SOL    HW128434   4.191   5.694   1.503
 6145SOL    HW228435   4.115   5.801   1.601
 6146SOL     OW28436   4.564   7.140   6.989
 6146SOL    HW128437   4.559   7.127   7.088
 6146SOL    HW228438   4.653   7.111   6.955
 6147SOL     OW28439   6.544   3.091   5.256
 6147SOL    HW128440   6.470   3.049   5.309
 6147SOL    HW228441   6.516   3.101   5.160
 6148SOL     OW28442   5.078   1.320   7.850
 6148SOL    HW128443   5.139   1.357   7.781
 6148SOL    HW228444   5.130   1.283   7.927
 6149SOL     OW28445   1.259   2.419   3.532
 6149SOL    HW128446   1.188   2.483   3.505
 6149SOL    HW228447   1.308   2.454   3.613
 6150SOL     OW28448   7.689   2.770   6.192
 6150SOL    HW128449   7.607   2.726   6.231
 6150SOL    HW228450   7.664   2.822   6.111
 6151SOL     OW28451   7.305   7.256   3.866
 6151SOL    HW128452   7.333   7.287   3.957
 6151SOL    HW228453   7.279   7.334   3.809
 6152SOL     OW28454   3.722   5.278   6.400
 6152SOL    HW128455   3.672   5.357   6.363
 6152SOL    HW228456   3.764   5.302   6.487
 6153SOL     OW28457   7.720   0.119   4.490
 6153SOL    HW128458   7.744   0.216   4.502
 6153SOL    HW228459   7.621   0.109   4.485
 6154SOL     OW28460   3.889   5.930   4.465
 6154SOL    HW128461   3.950   5.956   4.389
 6154SOL    HW228462   3.940   5.879   4.534
 6155SOL     OW28463   5.044   1.980   5.903
 6155SOL    HW128464   5.132   1.943   5.875
 6155SOL    HW228465   4.996   1.915   5.961
 6156SOL     OW28466   2.089   5.137   0.604
 6156SOL    HW128467   2.141   5.096   0.679
 6156SOL    HW228468   2.023   5.203   0.640
 6157SOL     OW28469   6.092   7.672   0.675
 6157SOL    HW128470   6.036   7.647   0.753
 6157SOL    HW228471   6.063   7.620   0.594
 6158SOL     OW28472   0.112   2.389   7.498
 6158SOL    HW128473   0.162   2.468   7.462
 6158SOL    HW228474   0.075   2.335   7.423
 6159SOL     OW28475   3.411   5.459   3.859
 6159SOL    HW128476   3.422   5.432   3.955
 6159SOL    HW228477   3.481   5.526   3.834
 6160SOL     OW28478   7.664   0.030   3.473
 6160SOL    HW128479   7.753   0.061   3.437
 6160SOL    HW228480   7.668   0.024   3.573
 6161SOL     OW28481   5.187   4.424   0.682
 6161SOL    HW128482   5.243   4.506   0.685
 6161SOL    HW228483   5.092   4.448   0.665
 6162SOL     OW28484   3.287   1.479   3.459
 6162SOL    HW128485   3.211   1.417   3.480
 6162SOL    HW228486   3.323   1.459   3.367
 6163SOL     OW28487   4.488   3.467   2.459
 6163SOL    HW128488   4.400   3.442   2.498
 6163SOL    HW228489   4.529   3.388   2.413
 6164SOL     OW28490   0.580   1.396   3.832
 6164SOL    HW128491   0.676   1.407   3.860
 6164SOL    HW228492   0.575   1.369   3.736
 6165SOL     OW28493   2.356   1.380   2.291
 6165SOL    HW128494   2.371   1.314   2.217
 6165SOL    HW228495   2.337   1.331   2.377
 6166SOL     OW28496   6.640   1.548   1.537
 6166SOL    HW128497   6.713   1.481   1.523
 6166SOL    HW228498   6.598   1.571   1.449
 6167SOL     OW28499   6.262   7.535   6.333
 6167SOL    HW128500   6.325   7.461   6.357
 6167SOL    HW228501   6.275   7.561   6.237
 6168SOL     OW28502   2.132   3.395   1.103
 6168SOL    HW128503   2.049   3.443   1.074
 6168SOL    HW228504   2.207   3.416   1.041
 6169SOL     OW28505   6.177   3.343   5.181
 6169SOL    HW128506   6.192   3.244   5.183
 6169SOL    HW228507   6.167   3.378   5.274
 6170SOL     OW28508   1.863   1.756   1.907
 6170SOL    HW128509   1.786   1.789   1.962
 6170SOL    HW228510   1.888   1.824   1.839
 6171SOL     OW28511   6.911   2.359   1.658
 6171SOL    HW128512   6.928   2.267   1.694
 6171SOL    HW228513   6.856   2.412   1.722
 6172SOL     OW28514   0.242   1.987   0.254
 6172SOL    HW128515   0.189   1.984   0.170
 6172SOL    HW228516   0.313   1.916   0.251
 6173SOL     OW28517   3.498   0.616   0.869
 6173SOL    HW128518   3.594   0.646   0.869
 6173SOL    HW228519   3.439   0.694   0.849
 6174SOL     OW28520   1.452   1.238   0.600
 6174SOL    HW128521   1.541   1.194   0.589
 6174SOL    HW228522   1.418   1.223   0.693
 6175SOL     OW28523   6.542   3.982   1.522
 6175SOL    HW128524   6.495   4.071   1.522
 6175SOL    HW228525   6.506   3.925   1.595
 6176SOL     OW28526   7.651   6.629   7.706
 6176SOL    HW128527   7.633   6.625   7.804
 6176SOL    HW228528   7.689   6.718   7.682
 6177SOL     OW28529   0.575   5.454   3.314
 6177SOL    HW128530   0.637   5.398   3.259
 6177SOL    HW228531   0.603   5.451   3.410
 6178SOL     OW28532   4.997   7.227   6.316
 6178SOL    HW128533   4.966   7.188   6.229
 6178SOL    HW228534   4.993   7.326   6.312
 6179SOL     OW28535   6.819   4.728   5.122
 6179SOL    HW128536   6.800   4.825   5.109
 6179SOL    HW228537   6.841   4.710   5.218
 6180SOL     OW28538   6.197   0.449   6.999
 6180SOL    HW128539   6.107   0.475   7.036
 6180SOL    HW228540   6.191   0.442   6.899
 6181SOL     OW28541   6.053   0.448   4.949
 6181SOL    HW128542   5.958   0.431   4.923
 6181SOL    HW228543   6.057   0.489   5.040
 6182SOL     OW28544   0.620   6.755   6.684
 6182SOL    HW128545   0.558   6.818   6.639
 6182SOL    HW228546   0.652   6.794   6.771
 6183SOL     OW28547   7.111   0.431   0.116
 6183SOL    HW128548   7.202   0.440   0.158
 6183SOL    HW228549   7.119   0.436   0.017
 6184SOL     OW28550   7.570   1.246   6.145
 6184SOL    HW128551   7.508   1.171   6.172
 6184SOL    HW228552   7.590   1.240   6.047
 6185SOL     OW28553   0.178   1.238   5.605
 6185SOL    HW128554   0.081   1.223   5.582
 6185SOL    HW228555   0.235   1.223   5.525
 6186SOL     OW28556   2.933   0.672   7.524
 6186SOL    HW128557   2.836   0.662   7.503
 6186SOL    HW228558   2.977   0.730   7.456
 6187SOL     OW28559   5.010   2.495   1.003
 6187SOL    HW128560   5.041   2.415   0.951
 6187SOL    HW228561   5.088   2.541   1.045
 6188SOL     OW28562   2.334   4.799   5.359
 6188SOL    HW128563   2.358   4.853   5.278
 6188SOL    HW228564   2.239   4.770   5.355
 6189SOL     OW28565   6.914   0.082   7.043
 6189SOL    HW128566   6.885   0.120   6.955
 6189SOL    HW228567   6.971   0.001   7.029
 6190SOL     OW28568   5.344   0.359   0.582
 6190SOL    HW128569   5.345   0.327   0.677
 6190SOL    HW228570   5.437   0.363   0.547
 6191SOL     OW28571   6.697   2.522   7.216
 6191SOL    HW128572   6.705   2.464   7.297
 6191SOL    HW228573   6.614   2.578   7.222
 6192SOL     OW28574   4.881   5.802   2.490
 6192SOL    HW128575   4.933   5.720   2.515
 6192SOL    HW228576   4.942   5.871   2.452
 6193SOL     OW28577   4.337   4.230   2.626
 6193SOL    HW128578   4.322   4.323   2.662
 6193SOL    HW228579   4.320   4.163   2.698
 6194SOL     OW28580   1.648   1.694   2.142
 6194SOL    HW128581   1.592   1.772   2.171
 6194SOL    HW228582   1.612   1.657   2.057
 6195SOL     OW28583   2.722   5.273   6.457
 6195SOL    HW128584   2.769   5.206   6.398
 6195SOL    HW228585   2.625   5.251   6.463
 6196SOL     OW28586   4.235   7.686   7.809
 6196SOL    HW128587   4.287   7.612   7.852
 6196SOL    HW228588   4.140   7.659   7.797
 6197SOL     OW28589   4.852   2.127   4.703
 6197SOL    HW128590   4.792   2.047   4.696
 6197SOL    HW228591   4.801   2.209   4.679
 6198SOL     OW28592   5.196   1.701   5.788
 6198SOL    HW128593   5.280   1.752   5.809
 6198SOL    HW228594   5.202   1.610   5.829
 6199SOL     OW28595   2.411   7.896   3.650
 6199SOL    HW128596   2.414   7.944   3.737
 6199SOL    HW228597   2.362   7.950   3.582
 6200SOL     OW28598   0.887   5.617   6.280
 6200SOL    HW128599   0.876   5.522   6.251
 6200SOL    HW228600   0.902   5.676   6.201
 6201SOL     OW28601   4.776   4.308   6.296
 6201SOL    HW128602   4.694   4.293   6.241
 6201SOL    HW228603   4.793   4.406   6.306
 6202SOL     OW28604   6.462   3.302   5.088
 6202SOL    HW128605   6.367   3.292   5.058
 6202SOL    HW228606   6.468   3.370   5.161
 6203SOL     OW28607   4.445   3.861   5.765
 6203SOL    HW128608   4.434   3.896   5.672
 6203SOL    HW228609   4.527   3.901   5.806
 6204SOL     OW28610   6.022   6.672   7.965
 6204SOL    HW128611   6.024   6.770   7.946
 6204SOL    HW228612   5.972   6.624   7.893
 6205SOL     OW28613   6.814   3.711   1.501
 6205SOL    HW128614   6.750   3.641   1.469
 6205SOL    HW228615   6.803   3.723   1.600
 6206SOL     OW28616   0.231   2.405   4.626
 6206SOL    HW128617   0.307   2.363   4.677
 6206SOL    HW228618   0.265   2.440   4.539
 6207SOL     OW28619   2.554   5.713   6.484
 6207SOL    HW128620   2.551   5.701   6.384
 6207SOL    HW228621   2.592   5.803   6.505
 6208SOL     OW28622   7.901   5.983   2.363
 6208SOL    HW128623   7.859   6.010   2.450
 6208SOL    HW228624   7.955   6.059   2.326
 6209SOL     OW28625   7.300   5.227   4.664
 6209SOL    HW128626   7.244   5.310   4.657
 6209SOL    HW228627   7.295   5.190   4.756
 6210SOL     OW28628   1.252   0.345   4.385
 6210SOL    HW128629   1.269   0.435   4.345
 6210SOL    HW228630   1.192   0.354   4.465
 6211SOL     OW28631   7.842   0.416   6.612
 6211SOL    HW128632   7.750   0.414   6.651
 6211SOL    HW228633   7.880   0.324   6.607
 6212SOL     OW28634   2.556   5.277   1.495
 6212SOL    HW128635   2.615   5.196   1.498
 6212SOL    HW228636   2.606   5.354   1.455
 6213SOL     OW28637   5.502   7.299   4.295
 6213SOL    HW128638   5.436   7.358   4.249
 6213SOL    HW228639   5.507   7.324   4.392
 6214SOL     OW28640   2.899   2.457   4.665
 6214SOL    HW128641   2.804   2.450   4.697
 6214SOL    HW228642   2.950   2.519   4.725
 6215SOL     OW28643   6.271   7.063   7.058
 6215SOL    HW128644   6.294   6.967   7.041
 6215SOL    HW228645   6.299   7.089   7.150
 6216SOL     OW28646   2.295   3.053   2.240
 6216SOL    HW128647   2.367   2.984   2.253
 6216SOL    HW228648   2.210   3.022   2.284
 6217SOL     OW28649   5.697   6.926   0.708
 6217SOL    HW128650   5.748   6.851   0.750
 6217SOL    HW228651   5.645   6.892   0.629
 6218SOL     OW28652   7.725   0.800   2.773
 6218SOL    HW128653   7.800   0.839   2.828
 6218SOL    HW228654   7.724   0.701   2.782
 6219SOL     OW28655   2.457   1.866   4.634
 6219SOL    HW128656   2.416   1.796   4.693
 6219SOL    HW228657   2.428   1.852   4.540
 6220SOL     OW28658   0.649   1.979   2.934
 6220SOL    HW128659   0.573   1.988   2.999
 6220SOL    HW228660   0.620   2.008   2.843
 6221SOL     OW28661   5.505   6.458   5.276
 6221SOL    HW128662   5.430   6.457   5.341
 6221SOL    HW228663   5.562   6.539   5.290
 6222SOL     OW28664   3.364   4.764   4.300
 6222SOL    HW128665   3.323   4.673   4.296
 6222SOL    HW228666   3.320   4.817   4.373
 6223SOL     OW28667   4.247   4.939   5.369
 6223SOL    HW128668   4.257   4.863   5.304
 6223SOL    HW228669   4.289   5.022   5.331
 6224SOL     OW28670   5.245   4.247   2.182
 6224SOL    HW128671   5.316   4.314   2.164
 6224SOL    HW228672   5.181   4.244   2.106
 6225SOL     OW28673   5.501   0.258   2.910
 6225SOL    HW128674   5.538   0.344   2.944
 6225SOL    HW228675   5.442   0.274   2.832
 6226SOL     OW28676   1.696   7.540   6.068
 6226SOL    HW128677   1.652   7.571   6.152
 6226SOL    HW228678   1.631   7.544   5.992
 6227SOL     OW28679   5.036   5.288   4.958
 6227SOL    HW128680   4.939   5.279   4.983
 6227SOL    HW228681   5.048   5.267   4.861
 6228SOL     OW28682   0.939   6.380   0.658
 6228SOL    HW128683   1.005   6.306   0.647
 6228SOL    HW228684   0.897   6.376   0.749
 6229SOL     OW28685   0.276   2.109   7.396
 6229SOL    HW128686   0.370   2.079   7.378
 6229SOL    HW228687   0.262   2.121   7.494
 6230SOL     OW28688   7.403   2.007   3.303
 6230SOL    HW128689   7.312   2.000   3.346
 6230SOL    HW228690   7.455   1.923   3.320
 6231SOL     OW28691   1.847   0.339   0.948
 6231SOL    HW128692   1.927   0.386   0.987
 6231SOL    HW228693   1.826   0.377   0.858
 6232SOL     OW28694   7.951   2.724   5.227
 6232SOL    HW128695   7.912   2.647   5.279
 6232SOL    HW228696   7.955   2.701   5.130
 6233SOL     OW28697   6.548   3.673   4.219
 6233SOL    HW128698   6.456   3.661   4.257
 6233SOL    HW228699   6.554   3.626   4.130
 6234SOL     OW28700   6.585   2.694   7.422
 6234SOL    HW128701   6.666   2.752   7.429
 6234SOL    HW228702   6.554   2.668   7.514
 6235SOL     OW28703   1.080   2.042   4.195
 6235SOL    HW128704   1.106   1.950   4.167
 6235SOL    HW228705   1.031   2.039   4.282
 6236SOL     OW28706   4.736   5.071   7.187
 6236SOL    HW128707   4.704   4.979   7.166
 6236SOL    HW228708   4.766   5.076   7.282
 6237SOL     OW28709   7.228   2.388   7.932
 6237SOL    HW128710   7.305   2.365   7.993
 6237SOL    HW228711   7.201   2.483   7.947
 6238SOL     OW28712   2.697   0.565   4.873
 6238SOL    HW128713   2.628   0.604   4.811
 6238SOL    HW228714   2.705   0.622   4.955
 6239SOL     OW28715   3.232   1.521   7.355
 6239SOL    HW128716   3.208   1.571   7.272
 6239SOL    HW228717   3.258   1.427   7.333
 6240SOL     OW28718   2.084   3.299   7.787
 6240SOL    HW128719   2.157   3.318   7.852
 6240SOL    HW228720   2.063   3.201   7.786
 6241SOL     OW28721   4.560   6.149   0.147
 6241SOL    HW128722   4.627   6.182   0.213
 6241SOL    HW228723   4.595   6.067   0.101
 6242SOL     OW28724   7.278   2.110   0.173
 6242SOL    HW128725   7.340   2.052   0.120
 6242SOL    HW228726   7.204   2.143   0.115
 6243SOL     OW28727   0.480   1.448   7.944
 6243SOL    HW128728   0.423   1.366   7.949
 6243SOL    HW228729   0.423   1.530   7.951
 6244SOL     OW28730   4.681   4.095   3.791
 6244SOL    HW128731   4.777   4.104   3.763
 6244SOL    HW228732   4.626   4.064   3.713
 6245SOL     OW28733   7.150   6.745   2.630
 6245SOL    HW128734   7.136   6.652   2.597
 6245SOL    HW228735   7.063   6.787   2.655
 6246SOL     OW28736  -0.036   1.445   1.125
 6246SOL    HW128737  -0.045   1.351   1.158
 6246SOL    HW228738   0.019   1.446   1.041
 6247SOL     OW28739   1.530   7.123   7.910
 6247SOL    HW128740   1.584   7.089   7.833
 6247SOL    HW228741   1.528   7.055   7.984
 6248SOL     OW28742   2.558   0.658   2.803
 6248SOL    HW128743   2.499   0.700   2.734
 6248SOL    HW228744   2.576   0.723   2.877
 6249SOL     OW28745   5.783   6.601   1.729
 6249SOL    HW128746   5.875   6.566   1.750
 6249SOL    HW228747   5.726   6.599   1.811
 6250SOL     OW28748   4.513   5.085   7.849
 6250SOL    HW128749   4.421   5.094   7.810
 6250SOL    HW228750   4.582   5.089   7.776
 6251SOL     OW28751   7.571   5.705   0.427
 6251SOL    HW128752   7.531   5.788   0.466
 6251SOL    HW228753   7.520   5.678   0.346
 6252SOL     OW28754   6.873   3.476   4.175
 6252SOL    HW128755   6.955   3.444   4.223
 6252SOL    HW228756   6.846   3.411   4.105
 6253SOL     OW28757   2.101   1.028   6.671
 6253SOL    HW128758   2.038   0.967   6.622
 6253SOL    HW228759   2.076   1.034   6.767
 6254SOL     OW28760   5.091   0.944   3.211
 6254SOL    HW128761   5.045   0.855   3.207
 6254SOL    HW228762   5.076   0.986   3.301
 6255SOL     OW28763   7.207   2.369   0.348
 6255SOL    HW128764   7.145   2.410   0.281
 6255SOL    HW228765   7.198   2.417   0.436
 6256SOL     OW28766   3.456   6.516   0.062
 6256SOL    HW128767   3.460   6.616   0.067
 6256SOL    HW228768   3.396   6.480   0.134
 6257SOL     OW28769   4.286   6.968   4.982
 6257SOL    HW128770   4.301   7.065   4.963
 6257SOL    HW228771   4.373   6.919   4.977
 6258SOL     OW28772   2.510   4.573   7.232
 6258SOL    HW128773   2.471   4.624   7.155
 6258SOL    HW228774   2.442   4.509   7.268
 6259SOL     OW28775   7.465   3.322   3.890
 6259SOL    HW128776   7.562   3.341   3.910
 6259SOL    HW228777   7.427   3.261   3.959
 6260SOL     OW28778   7.259   5.990   5.632
 6260SOL    HW128779   7.250   5.906   5.685
 6260SOL    HW228780   7.294   5.970   5.541
 6261SOL     OW28781   7.253   2.512   2.448
 6261SOL    HW128782   7.305   2.500   2.532
 6261SOL    HW228783   7.307   2.561   2.380
 6262SOL     OW28784   4.759   4.119   7.152
 6262SOL    HW128785   4.676   4.110   7.207
 6262SOL    HW228786   4.736   4.115   7.054
 6263SOL     OW28787   7.431   0.768   2.670
 6263SOL    HW128788   7.382   0.846   2.709
 6263SOL    HW228789   7.530   0.785   2.673
 6264SOL     OW28790   6.360   3.569   7.573
 6264SOL    HW128791   6.447   3.525   7.595
 6264SOL    HW228792   6.286   3.524   7.621
 6265SOL     OW28793   6.998   1.639   3.098
 6265SOL    HW128794   6.997   1.539   3.096
 6265SOL    HW228795   7.067   1.674   3.034
 6266SOL     OW28796   0.305   2.898   4.897
 6266SOL    HW128797   0.379   2.833   4.884
 6266SOL    HW228798   0.228   2.874   4.839
 6267SOL     OW28799   4.113   2.058   4.998
 6267SOL    HW128800   4.106   2.094   4.905
 6267SOL    HW228801   4.205   2.025   5.015
 6268SOL     OW28802   1.923   5.012   2.016
 6268SOL    HW128803   1.912   5.001   1.917
 6268SOL    HW228804   2.002   5.071   2.035
 6269SOL     OW28805   5.413   0.286   7.569
 6269SOL    HW128806   5.447   0.282   7.663
 6269SOL    HW228807   5.482   0.327   7.509
 6270SOL     OW28808   6.490   3.194   4.863
 6270SOL    HW128809   6.469   3.264   4.795
 6270SOL    HW228810   6.571   3.221   4.915
 6271SOL     OW28811   1.219   3.026   0.982
 6271SOL    HW128812   1.152   3.072   0.923
 6271SOL    HW228813   1.186   2.936   1.006
 6272SOL     OW28814   6.060   2.279   3.921
 6272SOL    HW128815   5.973   2.256   3.966
 6272SOL    HW228816   6.064   2.236   3.831
 6273SOL     OW28817   6.958   6.939   0.719
 6273SOL    HW128818   7.009   6.859   0.754
 6273SOL    HW228819   6.991   6.962   0.627
 6274SOL     OW28820   6.790   5.618   1.048
 6274SOL    HW128821   6.843   5.618   1.133
 6274SOL    HW228822   6.723   5.692   1.050
 6275SOL     OW28823   1.088   4.475   7.254
 6275SOL    HW128824   1.058   4.536   7.180
 6275SOL    HW228825   1.186   4.485   7.269
 6276SOL     OW28826   4.966   5.137   0.609
 6276SOL    HW128827   4.954   5.230   0.574
 6276SOL    HW228828   4.992   5.076   0.534
 6277SOL     OW28829   0.379   7.069   6.396
 6277SOL    HW128830   0.292   7.087   6.350
 6277SOL    HW228831   0.383   6.974   6.425
 6278SOL     OW28832   7.865   0.730   5.436
 6278SOL    HW128833   7.953   0.701   5.397
 6278SOL    HW228834   7.850   0.685   5.524
 6279SOL     OW28835   7.279   0.564   3.557
 6279SOL    HW128836   7.354   0.498   3.553
 6279SOL    HW228837   7.303   0.640   3.617
 6280SOL     OW28838   5.263   7.471   3.421
 6280SOL    HW128839   5.269   7.376   3.451
 6280SOL    HW228840   5.300   7.481   3.329
 6281SOL     OW28841   7.901   1.606   1.610
 6281SOL    HW128842   7.813   1.575   1.648
 6281SOL    HW228843   7.890   1.628   1.514
 6282SOL     OW28844   2.896   4.405   5.083
 6282SOL    HW128845   2.895   4.490   5.135
 6282SOL    HW228846   2.873   4.422   4.987
 6283SOL     OW28847   2.602   4.848   1.302
 6283SOL    HW128848   2.507   4.838   1.334
 6283SOL    HW228849   2.613   4.804   1.213
 6284SOL     OW28850   5.155   5.086   0.100
 6284SOL    HW128851   5.132   5.033   0.018
 6284SOL    HW228852   5.143   5.031   0.181
 6285SOL     OW28853   2.196   0.411   1.467
 6285SOL    HW128854   2.294   0.402   1.489
 6285SOL    HW228855   2.143   0.349   1.525
 6286SOL     OW28856   7.754   0.906   2.406
 6286SOL    HW128857   7.794   0.828   2.455
 6286SOL    HW228858   7.797   0.916   2.317
 6287SOL     OW28859   7.850   1.214   4.034
 6287SOL    HW128860   7.845   1.296   3.976
 6287SOL    HW228861   7.848   1.241   4.131
 6288SOL     OW28862   0.914   1.994   0.592
 6288SOL    HW128863   0.856   1.984   0.673
 6288SOL    HW228864   0.866   2.051   0.525
 6289SOL     OW28865   1.037   4.130   2.316
 6289SOL    HW128866   1.077   4.038   2.320
 6289SOL    HW228867   1.052   4.177   2.403
 6290SOL     OW28868   6.398   2.126   7.863
 6290SOL    HW128869   6.409   2.219   7.898
 6290SOL    HW228870   6.354   2.129   7.773
 6291SOL     OW28871   1.929   5.759   2.840
 6291SOL    HW128872   1.885   5.821   2.776
 6291SOL    HW228873   1.962   5.678   2.792
 6292SOL     OW28874   0.571   5.691   7.982
 6292SOL    HW128875   0.521   5.769   8.018
 6292SOL    HW228876   0.540   5.670   7.889
 6293SOL     OW28877   6.449   2.146   6.056
 6293SOL    HW128878   6.419   2.228   6.105
 6293SOL    HW228879   6.547   2.134   6.066
 6294SOL     OW28880   7.682   6.113   3.478
 6294SOL    HW128881   7.743   6.182   3.438
 6294SOL    HW228882   7.697   6.107   3.576
 6295SOL     OW28883   7.579   3.200   2.494
 6295SOL    HW128884   7.530   3.276   2.538
 6295SOL    HW228885   7.564   3.202   2.395
 6296SOL     OW28886   2.770   3.409   3.132
 6296SOL    HW128887   2.682   3.441   3.169
 6296SOL    HW228888   2.756   3.372   3.041
 6297SOL     OW28889   4.129   7.932   2.097
 6297SOL    HW128890   4.209   7.887   2.137
 6297SOL    HW228891   4.148   7.957   2.002
 6298SOL     OW28892   7.095   3.499   4.838
 6298SOL    HW128893   7.063   3.561   4.910
 6298SOL    HW228894   7.080   3.541   4.748
 6299SOL     OW28895   1.146   7.486   7.109
 6299SOL    HW128896   1.193   7.562   7.154
 6299SOL    HW228897   1.110   7.423   7.178
 6300SOL     OW28898   6.018   4.709   3.308
 6300SOL    HW128899   6.016   4.609   3.310
 6300SOL    HW228900   6.106   4.741   3.273
 6301SOL     OW28901   7.698   6.536   0.468
 6301SOL    HW128902   7.668   6.529   0.563
 6301SOL    HW228903   7.784   6.587   0.463
 6302SOL     OW28904   7.344   3.778   0.830
 6302SOL    HW128905   7.286   3.856   0.853
 6302SOL    HW228906   7.289   3.706   0.786
 6303SOL     OW28907   2.334   0.694   2.071
 6303SOL    HW128908   2.409   0.640   2.032
 6303SOL    HW228909   2.298   0.649   2.153
 6304SOL     OW28910   6.409   1.795   4.412
 6304SOL    HW128911   6.372   1.887   4.422
 6304SOL    HW228912   6.497   1.788   4.461
 6305SOL     OW28913   4.329   2.170   0.307
 6305SOL    HW128914   4.429   2.167   0.298
 6305SOL    HW228915   4.294   2.079   0.328
 6306SOL     OW28916   1.352   3.122   8.008
 6306SOL    HW128917   1.290   3.064   7.955
 6306SOL    HW228918   1.313   3.214   8.018
 6307SOL     OW28919   6.305   4.862   3.635
 6307SOL    HW128920   6.389   4.860   3.689
 6307SOL    HW228921   6.292   4.953   3.594
 6308SOL     OW28922   0.079   5.459   7.667
 6308SOL    HW128923  -0.013   5.421   7.651
 6308SOL    HW228924   0.106   5.445   7.762
 6309SOL     OW28925   3.313   1.096   7.724
 6309SOL    HW128926   3.399   1.045   7.723
 6309SOL    HW228927   3.303   1.148   7.639
 6310SOL     OW28928   3.730   7.155   2.713
 6310SOL    HW128929   3.773   7.107   2.636
 6310SOL    HW228930   3.631   7.139   2.711
 6311SOL     OW28931   0.026   3.792   2.176
 6311SOL    HW128932   0.099   3.803   2.243
 6311SOL    HW228933  -0.043   3.728   2.211
 6312SOL     OW28934   4.465   5.134   1.953
 6312SOL    HW128935   4.486   5.039   1.976
 6312SOL    HW228936   4.394   5.169   2.014
 6313SOL     OW28937   2.645   3.766   1.435
 6313SOL    HW128938   2.738   3.737   1.414
 6313SOL    HW228939   2.646   3.855   1.480
 6314SOL     OW28940   1.219   6.745   7.194
 6314SOL    HW128941   1.175   6.708   7.113
 6314SOL    HW228942   1.310   6.704   7.206
 6315SOL     OW28943   2.318   4.031   0.220
 6315SOL    HW128944   2.268   4.042   0.134
 6315SOL    HW228945   2.296   4.105   0.283
 6316SOL     OW28946   0.986   6.797   2.768
 6316SOL    HW128947   1.080   6.771   2.792
 6316SOL    HW228948   0.976   6.802   2.669
 6317SOL     OW28949   3.123   4.575   7.557
 6317SOL    HW128950   3.148   4.560   7.462
 6317SOL    HW228951   3.121   4.673   7.577
 6318SOL     OW28952   4.897   7.626   7.230
 6318SOL    HW128953   4.841   7.604   7.310
 6318SOL    HW228954   4.841   7.621   7.147
 6319SOL     OW28955   3.481   7.763   4.571
 6319SOL    HW128956   3.434   7.832   4.626
 6319SOL    HW228957   3.497   7.681   4.625
 6320SOL     OW28958   4.682   5.877   7.615
 6320SOL    HW128959   4.710   5.809   7.547
 6320SOL    HW228960   4.749   5.951   7.620
 6321SOL     OW28961   2.355   0.812   4.140
 6321SOL    HW128962   2.282   0.877   4.116
 6321SOL    HW228963   2.360   0.801   4.239
 6322SOL     OW28964   1.725   3.608   4.912
 6322SOL    HW128965   1.778   3.693   4.919
 6322SOL    HW228966   1.634   3.629   4.876
 6323SOL     OW28967   5.640   2.104   7.247
 6323SOL    HW128968   5.670   2.017   7.208
 6323SOL    HW228969   5.602   2.089   7.338
 6324SOL     OW28970   1.329   7.117   7.288
 6324SOL    HW128971   1.260   7.163   7.344
 6324SOL    HW228972   1.410   7.096   7.343
 6325SOL     OW28973   1.849   1.970   2.285
 6325SOL    HW128974   1.801   1.942   2.202
 6325SOL    HW228975   1.931   1.914   2.298
 6326SOL     OW28976   6.667   3.113   0.916
 6326SOL    HW128977   6.650   3.051   0.839
 6326SOL    HW228978   6.653   3.208   0.887
 6327SOL     OW28979   3.460   2.802   1.476
 6327SOL    HW128980   3.545   2.759   1.448
 6327SOL    HW228981   3.476   2.899   1.497
 6328SOL     OW28982   0.351   5.130   0.567
 6328SOL    HW128983   0.414   5.157   0.494
 6328SOL    HW228984   0.260   5.164   0.548
 6329SOL     OW28985   6.501   0.200   2.945
 6329SOL    HW128986   6.427   0.182   3.010
 6329SOL    HW228987   6.525   0.297   2.946
 6330SOL     OW28988   1.865   1.277   4.387
 6330SOL    HW128989   1.783   1.305   4.436
 6330SOL    HW228990   1.901   1.193   4.426
 6331SOL     OW28991   5.141   5.622   7.472
 6331SOL    HW128992   5.057   5.660   7.510
 6331SOL    HW228993   5.130   5.604   7.375
 6332SOL     OW28994   0.982   7.113   4.234
 6332SOL    HW128995   1.061   7.162   4.194
 6332SOL    HW228996   0.993   7.107   4.333
 6333SOL     OW28997   7.671   2.808   5.067
 6333SOL    HW128998   7.674   2.884   5.001
 6333SOL    HW228999   7.760   2.799   5.112
 6334SOL     OW29000   7.955   5.000   3.576
 6334SOL    HW129001   7.954   5.068   3.650
 6334SOL    HW229002   7.955   4.908   3.615
 6335SOL     OW29003   6.864   1.250   6.746
 6335SOL    HW129004   6.829   1.343   6.745
 6335SOL    HW229005   6.855   1.209   6.655
 6336SOL     OW29006   6.025   4.406   6.206
 6336SOL    HW129007   6.049   4.319   6.162
 6336SOL    HW229008   5.974   4.389   6.290
 6337SOL     OW29009   4.795   2.062   0.686
 6337SOL    HW129010   4.857   1.984   0.694
 6337SOL    HW229011   4.732   2.064   0.764
 6338SOL     OW29012   3.392   2.826   1.725
 6338SOL    HW129013   3.334   2.886   1.669
 6338SOL    HW229014   3.398   2.736   1.684
 6339SOL     OW29015   5.290   5.865   0.368
 6339SOL    HW129016   5.377   5.902   0.402
 6339SOL    HW229017   5.278   5.889   0.271
 6340SOL     OW29018   7.045   7.911   7.831
 6340SOL    HW129019   6.982   7.988   7.848
 6340SOL    HW229020   7.000   7.842   7.774
 6341SOL     OW29021   6.330   3.080   7.302
 6341SOL    HW129022   6.236   3.064   7.269
 6341SOL    HW229023   6.327   3.127   7.390
 6342SOL     OW29024   3.839   0.785   2.107
 6342SOL    HW129025   3.867   0.863   2.163
 6342SOL    HW229026   3.878   0.701   2.145
 6343SOL     OW29027   3.085   1.292   0.885
 6343SOL    HW129028   3.177   1.268   0.853
 6343SOL    HW229029   3.076   1.269   0.982
 6344SOL     OW29030   5.038   0.806   6.041
 6344SOL    HW129031   5.045   0.709   6.068
 6344SOL    HW229032   4.968   0.816   5.971
 6345SOL     OW29033   5.693   5.760   1.714
 6345SOL    HW129034   5.688   5.662   1.693
 6345SOL    HW229035   5.691   5.813   1.629
 6346SOL     OW29036   5.656   2.081   3.083
 6346SOL    HW129037   5.572   2.083   3.138
 6346SOL    HW229038   5.638   2.038   2.995
 6347SOL     OW29039   6.318   2.502   4.688
 6347SOL    HW129040   6.281   2.594   4.697
 6347SOL    HW229041   6.384   2.483   4.761
 6348SOL     OW29042   4.170   5.755   5.609
 6348SOL    HW129043   4.197   5.824   5.542
 6348SOL    HW229044   4.110   5.688   5.566
 6349SOL     OW29045   3.515   1.654   5.322
 6349SOL    HW129046   3.536   1.747   5.289
 6349SOL    HW229047   3.596   1.614   5.364
 6350SOL     OW29048   7.386   5.198   3.438
 6350SOL    HW129049   7.477   5.207   3.398
 6350SOL    HW229050   7.393   5.169   3.534
 6351SOL     OW29051   0.140   6.448   7.390
 6351SOL    HW129052   0.182   6.538   7.408
 6351SOL    HW229053   0.060   6.459   7.332
 6352SOL     OW29054   4.544   6.236   6.800
 6352SOL    HW129055   4.560   6.317   6.856
 6352SOL    HW229056   4.609   6.235   6.723
 6353SOL     OW29057   5.246   6.323   0.672
 6353SOL    HW129058   5.342   6.302   0.687
 6353SOL    HW229059   5.225   6.327   0.575
 6354SOL     OW29060   3.626   2.755   0.861
 6354SOL    HW129061   3.570   2.816   0.805
 6354SOL    HW229062   3.646   2.798   0.949
 6355SOL     OW29063   6.077   7.540   2.200
 6355SOL    HW129064   5.986   7.559   2.237
 6355SOL    HW229065   6.069   7.503   2.107
 6356SOL     OW29066   7.416   3.192   1.506
 6356SOL    HW129067   7.508   3.206   1.542
 6356SOL    HW229068   7.407   3.236   1.416
 6357SOL     OW29069   1.793   0.883   1.737
 6357SOL    HW129070   1.808   0.784   1.740
 6357SOL    HW229071   1.751   0.914   1.822
 6358SOL     OW29072   6.263   5.529   0.517
 6358SOL    HW129073   6.186   5.466   0.516
 6358SOL    HW229074   6.250   5.599   0.587
 6359SOL     OW29075   2.312   6.658   4.145
 6359SOL    HW129076   2.277   6.699   4.230
 6359SOL    HW229077   2.365   6.576   4.166
 6360SOL     OW29078   6.798   5.540   6.993
 6360SOL    HW129079   6.794   5.443   6.968
 6360SOL    HW229080   6.706   5.577   7.002
 6361SOL     OW29081   0.384   3.887   5.278
 6361SOL    HW129082   0.288   3.915   5.286
 6361SOL    HW229083   0.395   3.793   5.309
 6362SOL     OW29084   4.943   4.950   6.829
 6362SOL    HW129085   4.907   5.042   6.844
 6362SOL    HW229086   5.037   4.944   6.861
 6363SOL     OW29087   2.524   3.731   7.248
 6363SOL    HW129088   2.603   3.774   7.204
 6363SOL    HW229089   2.450   3.798   7.257
 6364SOL     OW29090   4.633   2.115   5.820
 6364SOL    HW129091   4.599   2.157   5.736
 6364SOL    HW229092   4.569   2.130   5.895
 6365SOL     OW29093   5.186   5.318   5.687
 6365SOL    HW129094   5.252   5.391   5.709
 6365SOL    HW229095   5.158   5.325   5.592
 6366SOL     OW29096   0.507   0.532   5.280
 6366SOL    HW129097   0.509   0.570   5.373
 6366SOL    HW229098   0.509   0.432   5.284
 6367SOL     OW29099   2.602   5.981   4.088
 6367SOL    HW129100   2.530   5.945   4.149
 6367SOL    HW229101   2.686   5.929   4.100
 6368SOL     OW29102   3.419   4.657   7.013
 6368SOL    HW129103   3.379   4.748   7.023
 6368SOL    HW229104   3.445   4.622   7.103
 6369SOL     OW29105   6.187   4.287   0.361
 6369SOL    HW129106   6.272   4.320   0.319
 6369SOL    HW229107   6.189   4.304   0.460
 6370SOL     OW29108   6.626   2.895   2.339
 6370SOL    HW129109   6.701   2.856   2.287
 6370SOL    HW229110   6.605   2.837   2.418
 6371SOL     OW29111   1.136   6.488   6.652
 6371SOL    HW129112   1.079   6.450   6.725
 6371SOL    HW229113   1.216   6.534   6.691
 6372SOL     OW29114   3.962   2.683   7.987
 6372SOL    HW129115   3.892   2.748   8.018
 6372SOL    HW229116   3.924   2.623   7.917
 6373SOL     OW29117   6.639   4.594   0.928
 6373SOL    HW129118   6.689   4.563   1.009
 6373SOL    HW229119   6.582   4.673   0.951
 6374SOL     OW29120   4.473   6.885   0.459
 6374SOL    HW129121   4.403   6.917   0.396
 6374SOL    HW229122   4.496   6.958   0.524
 6375SOL     OW29123   5.478   5.800   7.300
 6375SOL    HW129124   5.393   5.789   7.353
 6375SOL    HW229125   5.457   5.800   7.202
 6376SOL     OW29126   1.574   6.228   3.451
 6376SOL    HW129127   1.540   6.273   3.368
 6376SOL    HW229128   1.635   6.289   3.500
 6377SOL     OW29129   5.662   0.112   2.259
 6377SOL    HW129130   5.650   0.039   2.326
 6377SOL    HW229131   5.644   0.078   2.167
 6378SOL     OW29132   5.607   5.793   7.972
 6378SOL    HW129133   5.570   5.700   7.982
 6378SOL    HW229134   5.699   5.788   7.933
 6379SOL     OW29135   6.545   6.266   6.054
 6379SOL    HW129136   6.551   6.343   5.990
 6379SOL    HW229137   6.582   6.183   6.012
 6380SOL     OW29138   6.206   5.015   5.289
 6380SOL    HW129139   6.111   5.003   5.260
 6380SOL    HW229140   6.209   5.038   5.386
 6381SOL     OW29141   4.016   5.529   0.816
 6381SOL    HW129142   4.019   5.584   0.900
 6381SOL    HW229143   4.026   5.589   0.736
 6382SOL     OW29144   6.374   5.491   2.054
 6382SOL    HW129145   6.469   5.502   2.025
 6382SOL    HW229146   6.349   5.563   2.119
 6383SOL     OW29147   7.382   3.831   5.613
 6383SOL    HW129148   7.417   3.922   5.638
 6383SOL    HW229149   7.283   3.835   5.602
 6384SOL     OW29150   0.221   4.356   3.019
 6384SOL    HW129151   0.281   4.280   3.044
 6384SOL    HW229152   0.235   4.382   2.924
 6385SOL     OW29153   3.630   7.933   2.494
 6385SOL    HW129154   3.548   7.989   2.486
 6385SOL    HW229155   3.668   7.914   2.403
 6386SOL     OW29156   0.757   1.936   6.580
 6386SOL    HW129157   0.664   1.913   6.553
 6386SOL    HW229158   0.760   1.963   6.676
 6387SOL     OW29159   4.070   0.601   0.751
 6387SOL    HW129160   4.070   0.517   0.697
 6387SOL    HW229161   3.980   0.644   0.747
 6388SOL     OW29162   4.037   3.846   5.013
 6388SOL    HW129163   4.085   3.789   5.079
 6388SOL    HW229164   4.083   3.934   5.004
 6389SOL     OW29165   2.197   2.766   6.021
 6389SOL    HW129166   2.161   2.673   6.016
 6389SOL    HW229167   2.195   2.809   5.931
 6390SOL     OW29168   2.945   6.406   3.653
 6390SOL    HW129169   2.886   6.376   3.728
 6390SOL    HW229170   2.905   6.487   3.609
 6391SOL     OW29171   5.982   0.029   3.039
 6391SOL    HW129172   6.047   0.015   2.965
 6391SOL    HW229173   5.991   0.121   3.076
 6392SOL     OW29174   1.363   7.408   3.505
 6392SOL    HW129175   1.317   7.367   3.583
 6392SOL    HW229176   1.404   7.496   3.531
 6393SOL     OW29177   6.687  -0.012   0.628
 6393SOL    HW129178   6.737   0.064   0.668
 6393SOL    HW229179   6.657   0.012   0.536
 6394SOL     OW29180   4.863   6.319   6.339
 6394SOL    HW129181   4.956   6.328   6.305
 6394SOL    HW229182   4.864   6.288   6.435
 6395SOL     OW29183   0.605   5.328   0.431
 6395SOL    HW129184   0.520   5.314   0.379
 6395SOL    HW229185   0.680   5.281   0.387
 6396SOL     OW29186   7.497   6.703   4.516
 6396SOL    HW129187   7.407   6.684   4.477
 6396SOL    HW229188   7.548   6.766   4.457
 6397SOL     OW29189   0.614   3.792   7.675
 6397SOL    HW129190   0.686   3.769   7.740
 6397SOL    HW229191   0.650   3.856   7.607
 6398SOL     OW29192   6.537   5.205   4.779
 6398SOL    HW129193   6.471   5.197   4.705
 6398SOL    HW229194   6.548   5.116   4.824
 6399SOL     OW29195   7.007  -0.011   5.241
 6399SOL    HW129196   7.102   0.018   5.253
 6399SOL    HW229197   6.956   0.059   5.192
 6400SOL     OW29198   7.168   2.759   0.260
 6400SOL    HW129199   7.255   2.746   0.214
 6400SOL    HW229200   7.160   2.696   0.337
 6401SOL     OW29201   1.339   0.220   7.155
 6401SOL    HW129202   1.288   0.193   7.073
 6401SOL    HW229203   1.277   0.239   7.230
 6402SOL     OW29204   6.691   5.353   0.505
 6402SOL    HW129205   6.667   5.397   0.418
 6402SOL    HW229206   6.712   5.257   0.490
 6403SOL     OW29207   7.465   0.940   4.584
 6403SOL    HW129208   7.519   1.002   4.641
 6403SOL    HW229209   7.408   0.993   4.521
 6404SOL     OW29210   4.466   3.549   5.803
 6404SOL    HW129211   4.522   3.582   5.728
 6404SOL    HW229212   4.369   3.557   5.779
 6405SOL     OW29213   1.120   7.649   1.523
 6405SOL    HW129214   1.188   7.576   1.527
 6405SOL    HW229215   1.060   7.636   1.445
 6406SOL     OW29216   1.664   3.670   6.329
 6406SOL    HW129217   1.644   3.640   6.423
 6406SOL    HW229218   1.704   3.761   6.331
 6407SOL     OW29219   0.876   4.834   5.343
 6407SOL    HW129220   0.952   4.848   5.407
 6407SOL    HW229221   0.869   4.738   5.318
 6408SOL     OW29222   0.434   1.096   2.406
 6408SOL    HW129223   0.443   1.058   2.314
 6408SOL    HW229224   0.401   1.026   2.469
 6409SOL     OW29225   3.616   4.726   5.127
 6409SOL    HW129226   3.621   4.663   5.049
 6409SOL    HW229227   3.677   4.696   5.200
 6410SOL     OW29228   0.620   1.795   5.929
 6410SOL    HW129229   0.667   1.882   5.915
 6410SOL    HW229230   0.558   1.776   5.853
 6411SOL     OW29231   4.577   4.133   5.048
 6411SOL    HW129232   4.531   4.129   4.960
 6411SOL    HW229233   4.510   4.124   5.122
 6412SOL     OW29234   3.192   6.880   5.156
 6412SOL    HW129235   3.252   6.869   5.076
 6412SOL    HW229236   3.209   6.805   5.221
 6413SOL     OW29237   2.031   2.281   5.083
 6413SOL    HW129238   2.129   2.273   5.067
 6413SOL    HW229239   2.008   2.373   5.115
 6414SOL     OW29240   6.438   4.309   0.752
 6414SOL    HW129241   6.493   4.323   0.835
 6414SOL    HW229242   6.499   4.302   0.672
 6415SOL     OW29243   4.501   2.056   0.062
 6415SOL    HW129244   4.505   2.151   0.092
 6415SOL    HW229245   4.531   1.996   0.137
 6416SOL     OW29246   7.221   6.800   0.492
 6416SOL    HW129247   7.122   6.798   0.507
 6416SOL    HW229248   7.269   6.778   0.576
 6417SOL     OW29249   2.013   1.038   7.509
 6417SOL    HW129250   2.095   1.001   7.464
 6417SOL    HW229251   1.982   0.976   7.581
 6418SOL     OW29252   5.606   4.717   6.322
 6418SOL    HW129253   5.676   4.727   6.252
 6418SOL    HW229254   5.609   4.794   6.385
 6419SOL     OW29255   3.594   5.797   7.423
 6419SOL    HW129256   3.510   5.821   7.375
 6419SOL    HW229257   3.608   5.858   7.501
 6420SOL     OW29258   0.718   0.702   2.456
 6420SOL    HW129259   0.697   0.731   2.362
 6420SOL    HW229260   0.662   0.753   2.521
 6421SOL     OW29261   3.144   7.259   4.483
 6421SOL    HW129262   3.083   7.335   4.462
 6421SOL    HW229263   3.090   7.179   4.509
 6422SOL     OW29264   4.637   5.837   5.367
 6422SOL    HW129265   4.617   5.923   5.320
 6422SOL    HW229266   4.591   5.761   5.320
 6423SOL     OW29267   3.558   6.053   6.509
 6423SOL    HW129268   3.646   6.050   6.557
 6423SOL    HW229269   3.571   6.092   6.417
 6424SOL     OW29270   4.520   5.722   0.217
 6424SOL    HW129271   4.597   5.760   0.270
 6424SOL    HW229272   4.522   5.759   0.124
 6425SOL     OW29273   0.474   6.532   3.313
 6425SOL    HW129274   0.424   6.468   3.254
 6425SOL    HW229275   0.497   6.487   3.399
 6426SOL     OW29276   4.114   2.790   6.970
 6426SOL    HW129277   4.107   2.887   6.995
 6426SOL    HW229278   4.105   2.733   7.052
 6427SOL     OW29279   2.461   7.056   0.335
 6427SOL    HW129280   2.551   7.087   0.304
 6427SOL    HW229281   2.436   7.103   0.420
 6428SOL     OW29282   1.644   5.548   2.693
 6428SOL    HW129283   1.633   5.640   2.655
 6428SOL    HW229284   1.683   5.555   2.785
 6429SOL     OW29285   7.298   0.809   3.288
 6429SOL    HW129286   7.358   0.729   3.278
 6429SOL    HW229287   7.254   0.829   3.200
 6430SOL     OW29288   4.419   7.576   3.674
 6430SOL    HW129289   4.501   7.586   3.617
 6430SOL    HW229290   4.437   7.514   3.750
 6431SOL     OW29291   2.018   1.840   2.040
 6431SOL    HW129292   2.025   1.772   2.113
 6431SOL    HW229293   2.097   1.901   2.041
 6432SOL     OW29294   5.062   4.043   7.310
 6432SOL    HW129295   5.090   3.947   7.308
 6432SOL    HW229296   5.033   4.073   7.219
 6433SOL     OW29297   4.068   2.442   7.411
 6433SOL    HW129298   4.114   2.363   7.371
 6433SOL    HW229299   4.125   2.483   7.482
 6434SOL     OW29300   7.366   2.831   5.559
 6434SOL    HW129301   7.447   2.775   5.540
 6434SOL    HW229302   7.345   2.830   5.656
 6435SOL     OW29303   1.284   0.967   1.641
 6435SOL    HW129304   1.212   0.903   1.668
 6435SOL    HW229305   1.296   1.037   1.712
 6436SOL     OW29306   1.605   2.265   5.575
 6436SOL    HW129307   1.642   2.216   5.497
 6436SOL    HW229308   1.537   2.332   5.544
 6437SOL     OW29309   5.541   3.496   6.658
 6437SOL    HW129310   5.493   3.584   6.660
 6437SOL    HW229311   5.610   3.496   6.586
 6438SOL     OW29312   5.965   5.198   3.621
 6438SOL    HW129313   5.927   5.276   3.670
 6438SOL    HW229314   5.905   5.173   3.545
 6439SOL     OW29315   0.053   1.704   1.596
 6439SOL    HW129316   0.062   1.695   1.497
 6439SOL    HW229317   0.040   1.614   1.637
 6440SOL     OW29318   6.056   7.624   3.828
 6440SOL    HW129319   6.085   7.713   3.863
 6440SOL    HW229320   6.018   7.569   3.903
 6441SOL     OW29321   7.499   7.386   7.460
 6441SOL    HW129322   7.474   7.326   7.384
 6441SOL    HW229323   7.444   7.364   7.540
 6442SOL     OW29324   6.313   0.378   2.114
 6442SOL    HW129325   6.297   0.293   2.164
 6442SOL    HW229326   6.411   0.394   2.102
 6443SOL     OW29327   7.027   4.313   7.852
 6443SOL    HW129328   6.959   4.275   7.789
 6443SOL    HW229329   7.115   4.269   7.837
 6444SOL     OW29330   0.419   0.478   4.705
 6444SOL    HW129331   0.360   0.529   4.642
 6444SOL    HW229332   0.366   0.410   4.754
 6445SOL     OW29333   1.579   4.949   2.591
 6445SOL    HW129334   1.511   5.022   2.605
 6445SOL    HW229335   1.642   4.945   2.669
 6446SOL     OW29336   3.663   6.786   7.231
 6446SOL    HW129337   3.692   6.720   7.161
 6446SOL    HW229338   3.612   6.739   7.302
 6447SOL     OW29339   5.051   2.029   1.306
 6447SOL    HW129340   5.075   2.111   1.358
 6447SOL    HW229341   5.087   2.036   1.213
 6448SOL     OW29342   0.467  -0.010   5.197
 6448SOL    HW129343   0.489   0.063   5.262
 6448SOL    HW229344   0.430   0.029   5.113
 6449SOL     OW29345   1.400   3.156   2.046
 6449SOL    HW129346   1.310   3.164   2.089
 6449SOL    HW229347   1.391   3.129   1.950
 6450SOL     OW29348   1.875   5.930   1.329
 6450SOL    HW129349   1.950   5.873   1.363
 6450SOL    HW229350   1.817   5.960   1.405
 6451SOL     OW29351   6.998   3.227   7.532
 6451SOL    HW129352   6.986   3.306   7.471
 6451SOL    HW229353   7.065   3.249   7.603
 6452SOL     OW29354   0.164   3.108   0.347
 6452SOL    HW129355   0.080   3.153   0.380
 6452SOL    HW229356   0.142   3.045   0.273
 6453SOL     OW29357   2.424   6.090   6.756
 6453SOL    HW129358   2.338   6.040   6.768
 6453SOL    HW229359   2.409   6.171   6.699
 6454SOL     OW29360   4.973   2.025   5.596
 6454SOL    HW129361   5.032   1.996   5.671
 6454SOL    HW229362   4.950   1.946   5.539
 6455SOL     OW29363   1.645   2.167   6.066
 6455SOL    HW129364   1.593   2.225   6.128
 6455SOL    HW229365   1.612   2.073   6.072
 6456SOL     OW29366   0.517   7.715   0.931
 6456SOL    HW129367   0.586   7.644   0.942
 6456SOL    HW229368   0.449   7.686   0.863
 6457SOL     OW29369   0.036   7.126   1.699
 6457SOL    HW129370   0.126   7.111   1.658
 6457SOL    HW229371   0.044   7.126   1.799
 6458SOL     OW29372   1.104   0.060   1.064
 6458SOL    HW129373   1.017   0.079   1.111
 6458SOL    HW229374   1.089   0.053   0.966
 6459SOL     OW29375   3.391   3.168   5.487
 6459SOL    HW129376   3.392   3.182   5.388
 6459SOL    HW229377   3.361   3.251   5.534
 6460SOL     OW29378   3.473   7.612   7.467
 6460SOL    HW129379   3.572   7.627   7.465
 6460SOL    HW229380   3.450   7.529   7.415
 6461SOL     OW29381   0.994   1.022   0.271
 6461SOL    HW129382   1.058   0.953   0.302
 6461SOL    HW229383   1.036   1.079   0.201
 6462SOL     OW29384   3.276   1.834   4.312
 6462SOL    HW129385   3.205   1.774   4.275
 6462SOL    HW229386   3.362   1.818   4.264
 6463SOL     OW29387   1.655   0.092   4.883
 6463SOL    HW129388   1.588   0.062   4.815
 6463SOL    HW229389   1.609   0.135   4.961
 6464SOL     OW29390   3.231   3.398   2.501
 6464SOL    HW129391   3.249   3.371   2.596
 6464SOL    HW229392   3.284   3.342   2.438
 6465SOL     OW29393   1.809   7.101   3.214
 6465SOL    HW129394   1.711   7.119   3.217
 6465SOL    HW229395   1.847   7.137   3.128
 6466SOL     OW29396   3.856   0.814   5.544
 6466SOL    HW129397   3.889   0.899   5.502
 6466SOL    HW229398   3.848   0.742   5.475
 6467SOL     OW29399   2.677   6.335   6.524
 6467SOL    HW129400   2.636   6.385   6.600
 6467SOL    HW229401   2.617   6.338   6.444
 6468SOL     OW29402   0.375   4.544   7.832
 6468SOL    HW129403   0.362   4.472   7.763
 6468SOL    HW229404   0.432   4.617   7.795
 6469SOL     OW29405   4.161   3.697   2.326
 6469SOL    HW129406   4.160   3.793   2.297
 6469SOL    HW229407   4.098   3.685   2.403
 6470SOL     OW29408   2.392   4.087   0.728
 6470SOL    HW129409   2.327   4.155   0.762
 6470SOL    HW229410   2.473   4.132   0.692
 6471SOL     OW29411   5.589   4.309   3.891
 6471SOL    HW129412   5.650   4.369   3.943
 6471SOL    HW229413   5.538   4.363   3.824
 6472SOL     OW29414   3.344   4.532   1.738
 6472SOL    HW129415   3.391   4.466   1.796
 6472SOL    HW229416   3.249   4.542   1.767
 6473SOL     OW29417   7.842   3.249   7.644
 6473SOL    HW129418   7.884   3.335   7.674
 6473SOL    HW229419   7.743   3.253   7.657
 6474SOL     OW29420   2.276   6.538   5.968
 6474SOL    HW129421   2.203   6.595   5.929
 6474SOL    HW229422   2.289   6.559   6.065
 6475SOL     OW29423   4.066   3.496   7.412
 6475SOL    HW129424   3.985   3.519   7.466
 6475SOL    HW229425   4.121   3.578   7.396
 6476SOL     OW29426   6.613   3.068   0.615
 6476SOL    HW129427   6.650   2.980   0.586
 6476SOL    HW229428   6.662   3.142   0.569
 6477SOL     OW29429   1.929   7.477   4.366
 6477SOL    HW129430   1.888   7.461   4.456
 6477SOL    HW229431   1.922   7.395   4.310
 6478SOL     OW29432   0.924   7.830   0.267
 6478SOL    HW129433   1.009   7.800   0.310
 6478SOL    HW229434   0.860   7.754   0.259
 6479SOL     OW29435   0.584   0.760   2.776
 6479SOL    HW129436   0.503   0.809   2.744
 6479SOL    HW229437   0.602   0.783   2.872
 6480SOL     OW29438   1.901   2.744   1.392
 6480SOL    HW129439   1.997   2.724   1.407
 6480SOL    HW229440   1.850   2.660   1.376
 6481SOL     OW29441   3.033   0.005   1.184
 6481SOL    HW129442   2.937  -0.011   1.164
 6481SOL    HW229443   3.043   0.055   1.270
 6482SOL     OW29444   7.567   6.152   3.999
 6482SOL    HW129445   7.516   6.232   4.030
 6482SOL    HW229446   7.510   6.095   3.940
 6483SOL     OW29447   7.184   4.054   3.044
 6483SOL    HW129448   7.165   3.987   2.971
 6483SOL    HW229449   7.193   4.145   3.005
 6484SOL     OW29450   5.181   4.530   0.127
 6484SOL    HW129451   5.170   4.614   0.074
 6484SOL    HW229452   5.190   4.552   0.224
 6485SOL     OW29453   3.143   6.509   4.248
 6485SOL    HW129454   3.056   6.507   4.200
 6485SOL    HW229455   3.137   6.569   4.328
 6486SOL     OW29456   0.198   5.199   7.696
 6486SOL    HW129457   0.245   5.260   7.761
 6486SOL    HW229458   0.165   5.251   7.618
 6487SOL     OW29459   1.466   1.497   0.687
 6487SOL    HW129460   1.540   1.474   0.623
 6487SOL    HW229461   1.383   1.518   0.637
 6488SOL     OW29462   1.740   1.907   6.290
 6488SOL    HW129463   1.693   1.991   6.262
 6488SOL    HW229464   1.815   1.887   6.227
 6489SOL     OW29465   6.635   3.963   2.001
 6489SOL    HW129466   6.696   4.017   1.944
 6489SOL    HW229467   6.561   3.925   1.945
 6490SOL     OW29468   3.823   4.705   1.649
 6490SOL    HW129469   3.785   4.617   1.676
 6490SOL    HW229470   3.848   4.703   1.552
 6491SOL     OW29471   0.911   4.515   7.798
 6491SOL    HW129472   0.880   4.605   7.829
 6491SOL    HW229473   0.836   4.450   7.800
 6492SOL     OW29474   3.377   1.274   2.632
 6492SOL    HW129475   3.312   1.350   2.629
 6492SOL    HW229476   3.415   1.265   2.724
 6493SOL     OW29477   1.875   1.392   1.015
 6493SOL    HW129478   1.965   1.381   0.972
 6493SOL    HW229479   1.809   1.332   0.970
 6494SOL     OW29480   0.602   7.425   0.518
 6494SOL    HW129481   0.614   7.356   0.590
 6494SOL    HW229482   0.620   7.384   0.429
 6495SOL     OW29483   4.141   3.545   1.081
 6495SOL    HW129484   4.198   3.463   1.085
 6495SOL    HW229485   4.198   3.627   1.084
 6496SOL     OW29486   4.317   2.256   5.848
 6496SOL    HW129487   4.371   2.179   5.812
 6496SOL    HW229488   4.264   2.227   5.927
 6497SOL     OW29489   3.065   7.989   7.082
 6497SOL    HW129490   3.150   7.942   7.057
 6497SOL    HW229491   3.045   7.975   7.179
 6498SOL     OW29492   5.825   5.727   4.913
 6498SOL    HW129493   5.925   5.715   4.917
 6498SOL    HW229494   5.800   5.819   4.944
 6499SOL     OW29495   5.213   3.569   4.570
 6499SOL    HW129496   5.252   3.518   4.494
 6499SOL    HW229497   5.129   3.525   4.602
 6500SOL     OW29498   5.381   0.939   3.794
 6500SOL    HW129499   5.381   1.029   3.837
 6500SOL    HW229500   5.453   0.882   3.834
 6501SOL     OW29501   4.532   0.054   3.579
 6501SOL    HW129502   4.591  -0.004   3.524
 6501SOL    HW229503   4.436   0.033   3.560
 6502SOL     OW29504   6.044   1.793   6.144
 6502SOL    HW129505   6.031   1.702   6.182
 6502SOL    HW229506   6.082   1.787   6.052
 6503SOL     OW29507   4.246   7.218   2.366
 6503SOL    HW129508   4.207   7.279   2.435
 6503SOL    HW229509   4.327   7.260   2.325
 6504SOL     OW29510   1.982   7.213   5.109
 6504SOL    HW129511   2.047   7.147   5.147
 6504SOL    HW229512   2.011   7.240   5.017
 6505SOL     OW29513   1.213   4.570   5.384
 6505SOL    HW129514   1.185   4.631   5.458
 6505SOL    HW229515   1.144   4.571   5.312
 6506SOL     OW29516   4.628   5.385   3.657
 6506SOL    HW129517   4.692   5.460   3.675
 6506SOL    HW229518   4.660   5.301   3.702
 6507SOL     OW29519   6.059   5.790   1.990
 6507SOL    HW129520   6.072   5.695   2.017
 6507SOL    HW229521   5.969   5.802   1.948
 6508SOL     OW29522   2.348   3.103   2.698
 6508SOL    HW129523   2.378   3.198   2.684
 6508SOL    HW229524   2.368   3.074   2.791
 6509SOL     OW29525   5.979   3.567   6.105
 6509SOL    HW129526   5.985   3.597   6.200
 6509SOL    HW229527   5.895   3.514   6.091
 6510SOL     OW29528   2.842   3.820   7.087
 6510SOL    HW129529   2.879   3.851   7.174
 6510SOL    HW229530   2.912   3.771   7.035
 6511SOL     OW29531   3.442   6.805   7.517
 6511SOL    HW129532   3.511   6.792   7.589
 6511SOL    HW229533   3.483   6.853   7.439
 6512SOL     OW29534   5.502   1.459   6.185
 6512SOL    HW129535   5.452   1.374   6.203
 6512SOL    HW229536   5.480   1.527   6.256
 6513SOL     OW29537   0.947   5.723   4.076
 6513SOL    HW129538   0.893   5.777   4.012
 6513SOL    HW229539   0.999   5.653   4.027
 6514SOL     OW29540   1.929   4.401   0.974
 6514SOL    HW129541   2.024   4.404   0.944
 6514SOL    HW229542   1.924   4.369   1.069
 6515SOL     OW29543   6.096   7.043   7.361
 6515SOL    HW129544   6.175   6.983   7.377
 6515SOL    HW229545   6.126   7.127   7.317
 6516SOL     OW29546   2.719   5.883   1.069
 6516SOL    HW129547   2.670   5.962   1.107
 6516SOL    HW229548   2.704   5.877   0.971
 6517SOL     OW29549   6.915   2.107   7.903
 6517SOL    HW129550   6.895   2.010   7.917
 6517SOL    HW229551   6.947   2.122   7.809
 6518SOL     OW29552   6.206   6.980   5.627
 6518SOL    HW129553   6.281   7.005   5.687
 6518SOL    HW229554   6.189   7.053   5.561
 6519SOL     OW29555   1.508   6.499   0.388
 6519SOL    HW129556   1.564   6.497   0.305
 6519SOL    HW229557   1.546   6.564   0.454
 6520SOL     OW29558   6.762   5.203   2.963
 6520SOL    HW129559   6.839   5.263   2.987
 6520SOL    HW229560   6.686   5.257   2.929
 6521SOL     OW29561   0.864   6.704   5.464
 6521SOL    HW129562   0.849   6.618   5.415
 6521SOL    HW229563   0.839   6.694   5.560
 6522SOL     OW29564   4.496   4.466   0.901
 6522SOL    HW129565   4.542   4.454   0.989
 6522SOL    HW229566   4.469   4.562   0.890
 6523SOL     OW29567   1.967   2.876   5.523
 6523SOL    HW129568   2.037   2.807   5.503
 6523SOL    HW229569   2.002   2.967   5.503
 6524SOL     OW29570   7.871   0.236   3.639
 6524SOL    HW129571   7.955   0.197   3.677
 6524SOL    HW229572   7.870   0.227   3.540
 6525SOL     OW29573   0.874   6.567   1.316
 6525SOL    HW129574   0.962   6.532   1.284
 6525SOL    HW229575   0.801   6.537   1.254
 6526SOL     OW29576   0.684   2.692   3.549
 6526SOL    HW129577   0.779   2.696   3.517
 6526SOL    HW229578   0.680   2.645   3.637
 6527SOL     OW29579   5.144   1.741   5.525
 6527SOL    HW129580   5.193   1.710   5.444
 6527SOL    HW229581   5.123   1.663   5.584
 6528SOL     OW29582   4.310   0.981   1.097
 6528SOL    HW129583   4.284   0.924   1.175
 6528SOL    HW229584   4.229   1.006   1.044
 6529SOL     OW29585   0.764   3.650   4.934
 6529SOL    HW129586   0.763   3.750   4.943
 6529SOL    HW229587   0.736   3.624   4.842
 6530SOL     OW29588   6.189   3.921   2.651
 6530SOL    HW129589   6.258   3.857   2.686
 6530SOL    HW229590   6.194   3.925   2.551
 6531SOL     OW29591   7.248   7.205   6.709
 6531SOL    HW129592   7.181   7.235   6.640
 6531SOL    HW229593   7.217   7.233   6.800
 6532SOL     OW29594   0.490   0.322   6.405
 6532SOL    HW129595   0.417   0.319   6.336
 6532SOL    HW229596   0.511   0.417   6.428
 6533SOL     OW29597   2.149   5.182   7.710
 6533SOL    HW129598   2.214   5.115   7.747
 6533SOL    HW229599   2.174   5.206   7.616
 6534SOL     OW29600   2.155   2.163   4.277
 6534SOL    HW129601   2.152   2.096   4.203
 6534SOL    HW229602   2.152   2.255   4.239
 6535SOL     OW29603   6.389   2.540   1.966
 6535SOL    HW129604   6.328   2.619   1.967
 6535SOL    HW229605   6.437   2.533   2.054
 6536SOL     OW29606   4.827   2.790   4.379
 6536SOL    HW129607   4.754   2.847   4.417
 6536SOL    HW229608   4.877   2.841   4.310
 6537SOL     OW29609   7.467   2.325   6.688
 6537SOL    HW129610   7.561   2.306   6.715
 6537SOL    HW229611   7.462   2.410   6.636
 6538SOL     OW29612   6.887   5.467   6.188
 6538SOL    HW129613   6.822   5.434   6.120
 6538SOL    HW229614   6.962   5.402   6.198
 6539SOL     OW29615   0.077   0.636   3.344
 6539SOL    HW129616  -0.003   0.626   3.285
 6539SOL    HW229617   0.052   0.623   3.439
 6540SOL     OW29618   1.354   2.218   1.312
 6540SOL    HW129619   1.373   2.316   1.303
 6540SOL    HW229620   1.381   2.170   1.228
 6541SOL     OW29621   4.399   7.957   2.224
 6541SOL    HW129622   4.486   7.911   2.207
 6541SOL    HW229623   4.395   7.989   2.318
 6542SOL     OW29624   5.903   0.931   7.555
 6542SOL    HW129625   5.926   0.988   7.476
 6542SOL    HW229626   5.841   0.982   7.615
 6543SOL     OW29627   3.590   7.401   7.867
 6543SOL    HW129628   3.634   7.314   7.887
 6543SOL    HW229629   3.527   7.426   7.941
 6544SOL     OW29630   2.214   0.911   2.044
 6544SOL    HW129631   2.264   0.898   1.958
 6544SOL    HW229632   2.129   0.858   2.042
 6545SOL     OW29633   3.680   0.675   3.278
 6545SOL    HW129634   3.653   0.723   3.362
 6545SOL    HW229635   3.682   0.576   3.295
 6546SOL     OW29636   3.395   1.533   5.523
 6546SOL    HW129637   3.479   1.479   5.513
 6546SOL    HW229638   3.355   1.516   5.613
 6547SOL     OW29639   6.660   6.055   7.321
 6547SOL    HW129640   6.575   6.079   7.368
 6547SOL    HW229641   6.662   6.097   7.230
 6548SOL     OW29642   6.282   1.974   7.971
 6548SOL    HW129643   6.194   1.962   8.018
 6548SOL    HW229644   6.286   1.917   7.890
 6549SOL     OW29645   5.783   3.546   6.722
 6549SOL    HW129646   5.815   3.457   6.690
 6549SOL    HW229647   5.859   3.611   6.721
 6550SOL     OW29648   7.607   0.621   4.564
 6550SOL    HW129649   7.681   0.667   4.614
 6550SOL    HW229650   7.600   0.658   4.471
 6551SOL     OW29651   3.653   2.921   2.831
 6551SOL    HW129652   3.588   2.922   2.755
 6551SOL    HW229653   3.654   3.011   2.876
 6552SOL     OW29654   3.842   7.801   3.494
 6552SOL    HW129655   3.907   7.867   3.458
 6552SOL    HW229656   3.882   7.751   3.571
 6553SOL     OW29657   5.896   3.570   7.497
 6553SOL    HW129658   5.853   3.591   7.410
 6553SOL    HW229659   5.984   3.524   7.482
 6554SOL     OW29660   7.035   5.676   0.141
 6554SOL    HW129661   7.012   5.579   0.125
 6554SOL    HW229662   7.083   5.713   0.062
 6555SOL     OW29663   5.398   0.229   4.449
 6555SOL    HW129664   5.439   0.162   4.511
 6555SOL    HW229665   5.459   0.244   4.371
 6556SOL     OW29666   1.074   5.482   0.174
 6556SOL    HW129667   1.075   5.394   0.221
 6556SOL    HW229668   0.988   5.493   0.123
 6557SOL     OW29669   6.788   6.551   2.995
 6557SOL    HW129670   6.817   6.484   2.926
 6557SOL    HW229671   6.822   6.525   3.085
 6558SOL     OW29672   2.815   6.057   4.297
 6558SOL    HW129673   2.792   5.974   4.348
 6558SOL    HW229674   2.849   6.033   4.206
 6559SOL     OW29675   4.701   1.642   0.202
 6559SOL    HW129676   4.779   1.698   0.176
 6559SOL    HW229677   4.623   1.700   0.226
 6560SOL     OW29678   1.350   4.286   2.891
 6560SOL    HW129679   1.363   4.385   2.895
 6560SOL    HW229680   1.370   4.245   2.980
 6561SOL     OW29681   4.294   1.463   7.827
 6561SOL    HW129682   4.250   1.374   7.815
 6561SOL    HW229683   4.231   1.536   7.801
 6562SOL     OW29684   7.054   7.065   0.174
 6562SOL    HW129685   7.092   6.980   0.138
 6562SOL    HW229686   7.017   7.050   0.266
 6563SOL     OW29687   4.024   5.916   5.067
 6563SOL    HW129688   4.026   5.819   5.090
 6563SOL    HW229689   4.117   5.951   5.056
 6564SOL     OW29690   5.979   3.165   3.363
 6564SOL    HW129691   6.035   3.089   3.395
 6564SOL    HW229692   5.996   3.183   3.267
 6565SOL     OW29693   6.017   5.969   7.478
 6565SOL    HW129694   6.082   5.899   7.508
 6565SOL    HW229695   5.926   5.930   7.471
 6566SOL     OW29696   1.832   4.987   3.886
 6566SOL    HW129697   1.788   4.946   3.965
 6566SOL    HW229698   1.912   5.039   3.914
 6567SOL     OW29699   5.173   6.872   3.352
 6567SOL    HW129700   5.216   6.851   3.264
 6567SOL    HW229701   5.109   6.799   3.376
 6568SOL     OW29702   1.185   4.278   7.432
 6568SOL    HW129703   1.208   4.181   7.437
 6568SOL    HW229704   1.257   4.332   7.475
 6569SOL     OW29705   4.485   4.693   6.793
 6569SOL    HW129706   4.563   4.745   6.829
 6569SOL    HW229707   4.466   4.721   6.699
 6570SOL     OW29708   4.447   7.917   0.643
 6570SOL    HW129709   4.462   7.990   0.576
 6570SOL    HW229710   4.530   7.903   0.697
 6571SOL     OW29711   4.793   6.078   3.970
 6571SOL    HW129712   4.764   6.144   3.901
 6571SOL    HW229713   4.760   5.987   3.946
 6572SOL     OW29714   2.422   4.832   6.141
 6572SOL    HW129715   2.477   4.818   6.224
 6572SOL    HW229716   2.412   4.929   6.123
 6573SOL     OW29717   0.922   1.529   2.694
 6573SOL    HW129718   1.015   1.559   2.715
 6573SOL    HW229719   0.856   1.578   2.751
 6574SOL     OW29720   7.203   7.091   0.477
 6574SOL    HW129721   7.251   7.173   0.445
 6574SOL    HW229722   7.248   7.054   0.558
 6575SOL     OW29723   5.412   2.322   5.821
 6575SOL    HW129724   5.474   2.290   5.892
 6575SOL    HW229725   5.443   2.292   5.731
 6576SOL     OW29726   2.408   2.771   2.959
 6576SOL    HW129727   2.491   2.716   2.943
 6576SOL    HW229728   2.327   2.713   2.951
 6577SOL     OW29729   2.259   3.871   7.641
 6577SOL    HW129730   2.265   3.904   7.547
 6577SOL    HW229731   2.171   3.898   7.681
 6578SOL     OW29732   6.985   1.482   2.030
 6578SOL    HW129733   6.893   1.477   2.069
 6578SOL    HW229734   6.982   1.462   1.932
 6579SOL     OW29735   5.880   4.953   5.932
 6579SOL    HW129736   5.952   4.954   6.002
 6579SOL    HW229737   5.876   5.042   5.886
 6580SOL     OW29738   5.245   6.988   7.495
 6580SOL    HW129739   5.332   6.942   7.515
 6580SOL    HW229740   5.215   7.040   7.575
 6581SOL     OW29741   1.081   5.864   1.098
 6581SOL    HW129742   1.108   5.904   1.187
 6581SOL    HW229743   0.988   5.891   1.076
 6582SOL     OW29744   2.466   3.708   2.716
 6582SOL    HW129745   2.513   3.746   2.636
 6582SOL    HW229746   2.486   3.762   2.797
 6583SOL     OW29747   0.848   5.340   1.601
 6583SOL    HW129748   0.831   5.401   1.678
 6583SOL    HW229749   0.809   5.379   1.517
 6584SOL     OW29750   7.627   0.912   5.333
 6584SOL    HW129751   7.599   0.904   5.237
 6584SOL    HW229752   7.692   0.840   5.356
 6585SOL     OW29753   4.202   7.625   6.205
 6585SOL    HW129754   4.153   7.698   6.158
 6585SOL    HW229755   4.204   7.643   6.304
 6586SOL     OW29756   2.209   6.756   5.692
 6586SOL    HW129757   2.261   6.767   5.608
 6586SOL    HW229758   2.271   6.743   5.770
 6587SOL     OW29759   7.752   5.538   4.915
 6587SOL    HW129760   7.714   5.622   4.956
 6587SOL    HW229761   7.715   5.458   4.962
 6588SOL     OW29762   4.584   7.046   5.105
 6588SOL    HW129763   4.498   7.093   5.119
 6588SOL    HW229764   4.618   7.009   5.191
 6589SOL     OW29765   4.496   7.620   4.714
 6589SOL    HW129766   4.593   7.611   4.735
 6589SOL    HW229767   4.441   7.580   4.787
 6590SOL     OW29768   2.605   3.700   1.880
 6590SOL    HW129769   2.529   3.674   1.940
 6590SOL    HW229770   2.653   3.617   1.849
 6591SOL     OW29771   4.995   6.403   2.860
 6591SOL    HW129772   4.994   6.400   2.760
 6591SOL    HW229773   4.937   6.478   2.893
 6592SOL     OW29774   2.606   2.467   3.300
 6592SOL    HW129775   2.687   2.496   3.249
 6592SOL    HW229776   2.574   2.542   3.358
 6593SOL     OW29777   4.717   2.125   4.263
 6593SOL    HW129778   4.808   2.097   4.230
 6593SOL    HW229779   4.703   2.092   4.356
 6594SOL     OW29780   3.643   4.030   6.677
 6594SOL    HW129781   3.641   4.111   6.619
 6594SOL    HW229782   3.714   4.039   6.747
 6595SOL     OW29783   5.428   5.812   6.686
 6595SOL    HW129784   5.378   5.891   6.650
 6595SOL    HW229785   5.472   5.835   6.772
 6596SOL     OW29786   4.426   0.620   6.093
 6596SOL    HW129787   4.334   0.646   6.126
 6596SOL    HW229788   4.420   0.586   5.999
 6597SOL     OW29789   0.843   1.043   1.830
 6597SOL    HW129790   0.758   1.035   1.778
 6597SOL    HW229791   0.856   1.138   1.859
 6598SOL     OW29792   3.350   7.853   0.705
 6598SOL    HW129793   3.432   7.872   0.758
 6598SOL    HW229794   3.373   7.848   0.607
 6599SOL     OW29795   3.325   7.875   5.216
 6599SOL    HW129796   3.301   7.778   5.217
 6599SOL    HW229797   3.244   7.930   5.197
 6600SOL     OW29798   1.223   7.043   6.229
 6600SOL    HW129799   1.251   7.126   6.276
 6600SOL    HW229800   1.160   6.991   6.285
 6601SOL     OW29801   2.848   7.409   7.084
 6601SOL    HW129802   2.827   7.499   7.046
 6601SOL    HW229803   2.937   7.377   7.052
 6602SOL     OW29804   0.188   0.389   2.010
 6602SOL    HW129805   0.123   0.459   1.982
 6602SOL    HW229806   0.207   0.327   1.934
 6603SOL     OW29807   6.830   5.721   7.927
 6603SOL    HW129808   6.898   5.651   7.905
 6603SOL    HW229809   6.793   5.705   8.018
 6604SOL     OW29810   5.890   1.332   3.937
 6604SOL    HW129811   5.855   1.239   3.945
 6604SOL    HW229812   5.925   1.348   3.845
 6605SOL     OW29813   2.571   2.205   5.640
 6605SOL    HW129814   2.566   2.144   5.561
 6605SOL    HW229815   2.504   2.178   5.709
 6606SOL     OW29816   3.149   5.424   3.503
 6606SOL    HW129817   3.236   5.451   3.461
 6606SOL    HW229818   3.103   5.505   3.538
 6607SOL     OW29819   0.035   0.015   1.661
 6607SOL    HW129820  -0.039   0.044   1.600
 6607SOL    HW229821   0.102   0.088   1.671
 6608SOL     OW29822   3.128   7.939   1.998
 6608SOL    HW129823   3.173   7.989   1.924
 6608SOL    HW229824   3.137   7.989   2.084
 6609SOL     OW29825   3.458   2.095   3.788
 6609SOL    HW129826   3.535   2.048   3.745
 6609SOL    HW229827   3.437   2.179   3.738
 6610SOL     OW29828   2.687   0.292   6.543
 6610SOL    HW129829   2.741   0.333   6.469
 6610SOL    HW229830   2.740   0.293   6.628
 6611SOL     OW29831   2.807   1.448   1.277
 6611SOL    HW129832   2.894   1.427   1.322
 6611SOL    HW229833   2.793   1.547   1.274
 6612SOL     OW29834   3.502   1.624   0.113
 6612SOL    HW129835   3.429   1.562   0.140
 6612SOL    HW229836   3.537   1.599   0.022
 6613SOL     OW29837   3.455   7.393   0.837
 6613SOL    HW129838   3.456   7.430   0.744
 6613SOL    HW229839   3.369   7.345   0.854
 6614SOL     OW29840   3.691   1.047   5.156
 6614SOL    HW129841   3.602   1.037   5.112
 6614SOL    HW229842   3.681   1.094   5.244
 6615SOL     OW29843   6.178   1.587   1.809
 6615SOL    HW129844   6.237   1.507   1.800
 6615SOL    HW229845   6.121   1.578   1.890
 6616SOL     OW29846   6.734   6.361   7.328
 6616SOL    HW129847   6.707   6.275   7.372
 6616SOL    HW229848   6.684   6.371   7.241
 6617SOL     OW29849   3.645   5.896   3.042
 6617SOL    HW129850   3.573   5.954   3.081
 6617SOL    HW229851   3.623   5.875   2.947
 6618SOL     OW29852   4.965   4.961   1.024
 6618SOL    HW129853   5.002   4.873   0.995
 6618SOL    HW229854   5.023   5.035   0.990
 6619SOL     OW29855   6.765   1.837   1.482
 6619SOL    HW129856   6.796   1.860   1.390
 6619SOL    HW229857   6.752   1.739   1.490
 6620SOL     OW29858   3.747   7.929   7.009
 6620SOL    HW129859   3.821   7.989   7.038
 6620SOL    HW229860   3.783   7.839   6.986
 6621SOL     OW29861   2.129   6.061   1.115
 6621SOL    HW129862   2.208   6.006   1.142
 6621SOL    HW229863   2.062   6.003   1.069
 6622SOL     OW29864   5.925   1.739   1.305
 6622SOL    HW129865   5.900   1.650   1.342
 6622SOL    HW229866   5.949   1.802   1.379
 6623SOL     OW29867   5.232   5.717   1.924
 6623SOL    HW129868   5.324   5.710   1.885
 6623SOL    HW229869   5.192   5.626   1.932
 6624SOL     OW29870   4.777   1.001   3.252
 6624SOL    HW129871   4.851   0.959   3.200
 6624SOL    HW229872   4.813   1.075   3.308
 6625SOL     OW29873   2.276   3.380   0.666
 6625SOL    HW129874   2.219   3.448   0.620
 6625SOL    HW229875   2.355   3.357   0.608
 6626SOL     OW29876   2.163   5.025   5.129
 6626SOL    HW129877   2.070   4.988   5.126
 6626SOL    HW229878   2.199   5.020   5.223
 6627SOL     OW29879   6.102   2.989   5.248
 6627SOL    HW129880   6.101   3.045   5.165
 6627SOL    HW229881   6.115   3.047   5.329
 6628SOL     OW29882   4.147   3.749   1.566
 6628SOL    HW129883   4.244   3.766   1.582
 6628SOL    HW229884   4.092   3.793   1.638
 6629SOL     OW29885   6.577   1.180   0.959
 6629SOL    HW129886   6.602   1.096   0.911
 6629SOL    HW229887   6.589   1.168   1.057
 6630SOL     OW29888   6.288   1.653   3.589
 6630SOL    HW129889   6.304   1.747   3.620
 6630SOL    HW229890   6.369   1.598   3.605
 6631SOL     OW29891   1.465   4.128   0.057
 6631SOL    HW129892   1.375   4.105   0.018
 6631SOL    HW229893   1.454   4.165   0.149
 6632SOL     OW29894   6.767   0.556   2.769
 6632SOL    HW129895   6.738   0.593   2.680
 6632SOL    HW229896   6.698   0.575   2.838
 6633SOL     OW29897   5.795   7.118   2.725
 6633SOL    HW129898   5.825   7.189   2.789
 6633SOL    HW229899   5.807   7.149   2.631
 6634SOL     OW29900   4.853   3.336   3.607
 6634SOL    HW129901   4.907   3.412   3.570
 6634SOL    HW229902   4.787   3.305   3.538
 6635SOL     OW29903   1.270   1.347   3.700
 6635SOL    HW129904   1.220   1.375   3.618
 6635SOL    HW229905   1.280   1.425   3.762
 6636SOL     OW29906   3.904   5.047   5.538
 6636SOL    HW129907   3.804   5.048   5.529
 6636SOL    HW229908   3.933   5.112   5.608
 6637SOL     OW29909   5.725   4.974   3.471
 6637SOL    HW129910   5.669   5.050   3.438
 6637SOL    HW229911   5.668   4.894   3.487
 6638SOL     OW29912   6.422   4.849   6.930
 6638SOL    HW129913   6.325   4.875   6.927
 6638SOL    HW229914   6.474   4.902   6.863
 6639SOL     OW29915   0.888   0.808   5.089
 6639SOL    HW129916   0.842   0.730   5.046
 6639SOL    HW229917   0.874   0.805   5.188
 6640SOL     OW29918   2.941   4.780   6.816
 6640SOL    HW129919   2.929   4.705   6.881
 6640SOL    HW229920   3.012   4.842   6.848
 6641SOL     OW29921   7.105   3.813   3.643
 6641SOL    HW129922   7.044   3.877   3.596
 6641SOL    HW229923   7.053   3.761   3.710
 6642SOL     OW29924   5.409   2.428   4.798
 6642SOL    HW129925   5.383   2.331   4.800
 6642SOL    HW229926   5.445   2.456   4.887
 6643SOL     OW29927   1.623   6.213   6.279
 6643SOL    HW129928   1.701   6.266   6.313
 6643SOL    HW229929   1.601   6.241   6.185
 6644SOL     OW29930   2.182   7.743   6.035
 6644SOL    HW129931   2.182   7.835   5.997
 6644SOL    HW229932   2.273   7.703   6.029
 6645SOL     OW29933   3.245   4.050   1.457
 6645SOL    HW129934   3.286   3.968   1.497
 6645SOL    HW229935   3.229   4.118   1.528
 6646SOL     OW29936   5.011   7.782   4.297
 6646SOL    HW129937   5.033   7.871   4.338
 6646SOL    HW229938   4.973   7.796   4.205
 6647SOL     OW29939   4.122   7.501   0.183
 6647SOL    HW129940   4.118   7.531   0.278
 6647SOL    HW229941   4.040   7.532   0.134
 6648SOL     OW29942   3.759   1.156   2.155
 6648SOL    HW129943   3.766   1.162   2.255
 6648SOL    HW229944   3.842   1.191   2.113
 6649SOL     OW29945   4.892   1.874   4.602
 6649SOL    HW129946   4.982   1.832   4.613
 6649SOL    HW229947   4.866   1.876   4.506
 6650SOL     OW29948   5.082   0.373   3.844
 6650SOL    HW129949   5.089   0.466   3.881
 6650SOL    HW229950   5.113   0.370   3.750
 6651SOL     OW29951   1.131   0.329   1.923
 6651SOL    HW129952   1.134   0.253   1.857
 6651SOL    HW229953   1.190   0.309   2.001
 6652SOL     OW29954   3.249   1.934   0.756
 6652SOL    HW129955   3.307   1.897   0.683
 6652SOL    HW229956   3.154   1.912   0.738
 6653SOL     OW29957   1.181   1.255   2.948
 6653SOL    HW129958   1.125   1.191   2.894
 6653SOL    HW229959   1.139   1.271   3.037
 6654SOL     OW29960   2.894   4.721   5.684
 6654SOL    HW129961   2.940   4.782   5.749
 6654SOL    HW229962   2.860   4.773   5.606
 6655SOL     OW29963   2.120   7.094   2.480
 6655SOL    HW129964   2.104   7.008   2.432
 6655SOL    HW229965   2.113   7.171   2.416
 6656SOL     OW29966   1.490   7.661   3.827
 6656SOL    HW129967   1.495   7.696   3.921
 6656SOL    HW229968   1.410   7.697   3.781
 6657SOL     OW29969   0.070   2.488   3.803
 6657SOL    HW129970  -0.005   2.448   3.750
 6657SOL    HW229971   0.036   2.564   3.859
 6658SOL     OW29972   3.291   5.715   0.713
 6658SOL    HW129973   3.295   5.673   0.622
 6658SOL    HW229974   3.295   5.814   0.705
 6659SOL     OW29975   2.969   1.819   5.789
 6659SOL    HW129976   2.945   1.722   5.787
 6659SOL    HW229977   2.924   1.868   5.715
 6660SOL     OW29978   0.055   7.007   4.169
 6660SOL    HW129979   0.138   6.970   4.127
 6660SOL    HW229980  -0.024   6.983   4.114
 6661SOL     OW29981   1.177   7.862   7.208
 6661SOL    HW129982   1.079   7.854   7.226
 6661SOL    HW229983   1.197   7.953   7.172
 6662SOL     OW29984   1.750   6.592   1.824
 6662SOL    HW129985   1.674   6.656   1.811
 6662SOL    HW229986   1.780   6.594   1.920
 6663SOL     OW29987   0.679   2.985   1.109
 6663SOL    HW129988   0.677   3.082   1.133
 6663SOL    HW229989   0.624   2.970   1.026
 6664SOL     OW29990   4.953   5.692   1.360
 6664SOL    HW129991   5.030   5.709   1.422
 6664SOL    HW229992   4.965   5.744   1.276
 6665SOL     OW29993   2.814   4.102   0.746
 6665SOL    HW129994   2.807   4.065   0.839
 6665SOL    HW229995   2.908   4.089   0.712
 6666SOL     OW29996   0.073   1.820   2.330
 6666SOL    HW129997   0.106   1.741   2.277
 6666SOL    HW229998   0.011   1.788   2.402
 6667SOL     OW29999   5.175   2.300   5.235
 6667SOL    HW130000   5.161   2.235   5.309
 6667SOL    HW230001   5.192   2.251   5.149
 6668SOL     OW30002   3.770   7.690   6.024
 6668SOL    HW130003   3.769   7.779   6.070
 6668SOL    HW230004   3.857   7.677   5.977
 6669SOL     OW30005   5.072   1.290   4.756
 6669SOL    HW130006   5.002   1.354   4.726
 6669SOL    HW230007   5.037   1.196   4.751
 6670SOL     OW30008   3.248   1.287   4.356
 6670SOL    HW130009   3.207   1.222   4.420
 6670SOL    HW230010   3.190   1.298   4.276
 6671SOL     OW30011   6.120   3.810   5.340
 6671SOL    HW130012   6.109   3.764   5.428
 6671SOL    HW230013   6.175   3.893   5.351
 6672SOL     OW30014   7.893   0.218   6.371
 6672SOL    HW130015   7.955   0.171   6.308
 6672SOL    HW230016   7.881   0.164   6.454
 6673SOL     OW30017   1.452   6.015   2.483
 6673SOL    HW130018   1.496   6.072   2.414
 6673SOL    HW230019   1.452   5.919   2.453
 6674SOL     OW30020   7.946   4.108   4.046
 6674SOL    HW130021   7.955   4.074   3.952
 6674SOL    HW230022   7.942   4.208   4.046
 6675SOL     OW30023   6.149   1.568   6.864
 6675SOL    HW130024   6.051   1.558   6.842
 6675SOL    HW230025   6.178   1.661   6.845
 6676SOL     OW30026   6.381   6.243   2.311
 6676SOL    HW130027   6.432   6.297   2.378
 6676SOL    HW230028   6.444   6.202   2.245
 6677SOL     OW30029   1.674   1.449   1.894
 6677SOL    HW130030   1.718   1.390   1.962
 6677SOL    HW230031   1.728   1.531   1.880
 6678SOL     OW30032   1.477   1.852   1.652
 6678SOL    HW130033   1.403   1.792   1.681
 6678SOL    HW230034   1.563   1.801   1.647
 6679SOL     OW30035   0.596   0.552   3.778
 6679SOL    HW130036   0.661   0.622   3.749
 6679SOL    HW230037   0.503   0.588   3.772
 6680SOL     OW30038   7.393   7.187   0.241
 6680SOL    HW130039   7.422   7.279   0.211
 6680SOL    HW230040   7.454   7.154   0.313
 6681SOL     OW30041   2.744   6.788   7.152
 6681SOL    HW130042   2.654   6.830   7.166
 6681SOL    HW230043   2.761   6.777   7.054
 6682SOL     OW30044   5.181   7.700   5.906
 6682SOL    HW130045   5.083   7.685   5.912
 6682SOL    HW230046   5.217   7.655   5.824
 6683SOL     OW30047   4.377   7.922   7.820
 6683SOL    HW130048   4.404   7.877   7.734
 6683SOL    HW230049   4.446   7.989   7.847
 6684SOL     OW30050   3.719   0.054   5.129
 6684SOL    HW130051   3.776   0.061   5.212
 6684SOL    HW230052   3.629   0.091   5.147
 6685SOL     OW30053   6.771   3.489   5.622
 6685SOL    HW130054   6.857   3.453   5.660
 6685SOL    HW230055   6.724   3.418   5.570
 6686SOL     OW30056   1.309   6.196   2.621
 6686SOL    HW130057   1.394   6.190   2.674
 6686SOL    HW230058   1.330   6.212   2.525
 6687SOL     OW30059   1.011   4.218   1.952
 6687SOL    HW130060   1.060   4.170   1.878
 6687SOL    HW230061   0.914   4.195   1.948
 6688SOL     OW30062   5.376   7.714   4.444
 6688SOL    HW130063   5.411   7.777   4.375
 6688SOL    HW230064   5.338   7.633   4.399
 6689SOL     OW30065   7.271   3.750   6.846
 6689SOL    HW130066   7.366   3.771   6.869
 6689SOL    HW230067   7.220   3.726   6.928
 6690SOL     OW30068   4.687   7.528   2.870
 6690SOL    HW130069   4.757   7.576   2.924
 6690SOL    HW230070   4.679   7.569   2.779
 6691SOL     OW30071   4.707   2.485   0.140
 6691SOL    HW130072   4.657   2.571   0.150
 6691SOL    HW230073   4.766   2.489   0.059
 6692SOL     OW30074   2.120   0.713   1.295
 6692SOL    HW130075   2.124   0.616   1.271
 6692SOL    HW230076   2.158   0.769   1.222
 6693SOL     OW30077   0.546   3.724   7.019
 6693SOL    HW130078   0.542   3.783   7.099
 6693SOL    HW230079   0.611   3.760   6.953
 6694SOL     OW30080   3.275   7.002   6.970
 6694SOL    HW130081   3.257   7.023   7.067
 6694SOL    HW230082   3.347   6.933   6.964
 6695SOL     OW30083   0.781   4.924   4.411
 6695SOL    HW130084   0.769   4.826   4.423
 6695SOL    HW230085   0.801   4.945   4.315
 6696SOL     OW30086   5.558   7.840   2.377
 6696SOL    HW130087   5.625   7.899   2.333
 6696SOL    HW230088   5.539   7.872   2.469
 6697SOL     OW30089   6.344   7.179   5.465
 6697SOL    HW130090   6.306   7.247   5.529
 6697SOL    HW230091   6.316   7.201   5.372
 6698SOL     OW30092   7.678   7.716   5.460
 6698SOL    HW130093   7.702   7.807   5.495
 6698SOL    HW230094   7.680   7.650   5.534
 6699SOL     OW30095   5.376   1.928   0.618
 6699SOL    HW130096   5.353   1.834   0.643
 6699SOL    HW230097   5.440   1.928   0.542
 6700SOL     OW30098   0.481   2.866   0.596
 6700SOL    HW130099   0.506   2.885   0.691
 6700SOL    HW230100   0.504   2.944   0.538
 6701SOL     OW30101   0.149   4.966   2.503
 6701SOL    HW130102   0.179   4.888   2.448
 6701SOL    HW230103   0.051   4.962   2.519
 6702SOL     OW30104   5.592   1.707   6.811
 6702SOL    HW130105   5.623   1.628   6.864
 6702SOL    HW230106   5.549   1.774   6.871
 6703SOL     OW30107   1.592   0.026   3.965
 6703SOL    HW130108   1.504   0.057   4.002
 6703SOL    HW230109   1.579  -0.011   3.873
 6704SOL     OW30110   5.998   3.003   0.692
 6704SOL    HW130111   5.927   3.058   0.647
 6704SOL    HW230112   6.005   3.027   0.788
 6705SOL     OW30113   6.630   2.970   3.691
 6705SOL    HW130114   6.571   2.940   3.616
 6705SOL    HW230115   6.584   3.042   3.743
 6706SOL     OW30116   1.284   0.395   1.717
 6706SOL    HW130117   1.317   0.363   1.806
 6706SOL    HW230118   1.188   0.419   1.723
 6707SOL     OW30119   1.549   3.691   6.108
 6707SOL    HW130120   1.536   3.764   6.176
 6707SOL    HW230121   1.506   3.717   6.022
 6708SOL     OW30122   0.474   6.307   1.209
 6708SOL    HW130123   0.543   6.363   1.254
 6708SOL    HW230124   0.472   6.327   1.111
 6709SOL     OW30125   3.619   2.069   6.473
 6709SOL    HW130126   3.528   2.102   6.498
 6709SOL    HW230127   3.620   2.041   6.377
 6710SOL     OW30128   2.999   1.297   6.192
 6710SOL    HW130129   2.954   1.270   6.107
 6710SOL    HW230130   3.065   1.227   6.219
 6711SOL     OW30131   3.565   1.034   2.390
 6711SOL    HW130132   3.593   0.938   2.387
 6711SOL    HW230133   3.545   1.066   2.298
 6712SOL     OW30134   7.957   4.917   3.989
 6712SOL    HW130135   7.901   4.844   3.948
 6712SOL    HW230136   7.922   4.939   4.080
 6713SOL     OW30137   4.042   1.401   2.351
 6713SOL    HW130138   4.079   1.389   2.443
 6713SOL    HW230139   4.109   1.372   2.283
 6714SOL     OW30140   0.821   5.951   4.745
 6714SOL    HW130141   0.742   5.915   4.795
 6714SOL    HW230142   0.790   6.003   4.665
 6715SOL     OW30143   0.303   6.000   4.143
 6715SOL    HW130144   0.268   5.927   4.085
 6715SOL    HW230145   0.395   6.027   4.114
 6716SOL     OW30146   1.688   7.279   6.648
 6716SOL    HW130147   1.742   7.211   6.698
 6716SOL    HW230148   1.711   7.276   6.551
 6717SOL     OW30149   7.107   1.694   4.941
 6717SOL    HW130150   7.133   1.738   5.027
 6717SOL    HW230151   7.054   1.758   4.885
 6718SOL     OW30152   1.083   5.570   3.397
 6718SOL    HW130153   1.047   5.655   3.436
 6718SOL    HW230154   1.146   5.527   3.462
 6719SOL     OW30155   4.437   7.372   7.159
 6719SOL    HW130156   4.489   7.457   7.151
 6719SOL    HW230157   4.488   7.305   7.212
 6720SOL     OW30158   0.282   7.867   0.836
 6720SOL    HW130159   0.292   7.829   0.928
 6720SOL    HW230160   0.363   7.921   0.813
 6721SOL     OW30161   7.812   6.149   3.983
 6721SOL    HW130162   7.898   6.100   3.971
 6721SOL    HW230163   7.804   6.183   4.076
 6722SOL     OW30164   0.695   6.378   3.767
 6722SOL    HW130165   0.734   6.440   3.835
 6722SOL    HW230166   0.696   6.421   3.676
 6723SOL     OW30167   0.264   5.354   4.609
 6723SOL    HW130168   0.322   5.316   4.536
 6723SOL    HW230169   0.230   5.281   4.668
 6724SOL     OW30170   4.310   5.761   3.337
 6724SOL    HW130171   4.237   5.808   3.388
 6724SOL    HW230172   4.398   5.803   3.358
 6725SOL     OW30173   2.073   2.299   6.718
 6725SOL    HW130174   2.069   2.220   6.779
 6725SOL    HW230175   2.017   2.282   6.637
 6726SOL     OW30176   6.025   3.033   1.526
 6726SOL    HW130177   6.037   3.019   1.427
 6726SOL    HW230178   5.930   3.057   1.546
 6727SOL     OW30179   0.938   7.289   5.731
 6727SOL    HW130180   0.910   7.270   5.825
 6727SOL    HW230181   0.925   7.385   5.710
 6728SOL     OW30182   0.382   2.977   1.094
 6728SOL    HW130183   0.452   3.011   1.157
 6728SOL    HW230184   0.399   3.011   1.002
 6729SOL     OW30185   3.308   5.133   1.943
 6729SOL    HW130186   3.329   5.046   1.988
 6729SOL    HW230187   3.230   5.177   1.988
 6730SOL     OW30188   0.706   6.929   4.470
 6730SOL    HW130189   0.698   7.001   4.539
 6730SOL    HW230190   0.616   6.912   4.428
 6731SOL     OW30191   2.282   7.398   7.605
 6731SOL    HW130192   2.353   7.431   7.668
 6731SOL    HW230193   2.287   7.448   7.519
 6732SOL     OW30194   7.063   1.807   1.094
 6732SOL    HW130195   7.025   1.741   1.158
 6732SOL    HW230196   7.120   1.760   1.026
 6733SOL     OW30197   5.862   5.035   0.422
 6733SOL    HW130198   5.851   5.102   0.496
 6733SOL    HW230199   5.779   4.981   0.413
 6734SOL     OW30200   6.008   6.628   3.511
 6734SOL    HW130201   6.077   6.656   3.577
 6734SOL    HW230202   5.921   6.609   3.557
 6735SOL     OW30203   1.067   3.121   2.096
 6735SOL    HW130204   1.112   3.032   2.109
 6735SOL    HW230205   1.103   3.188   2.160
 6736SOL     OW30206   2.564   6.900   0.073
 6736SOL    HW130207   2.507   6.978   0.048
 6736SOL    HW230208   2.607   6.916   0.161
 6737SOL     OW30209   2.233   0.696   5.915
 6737SOL    HW130210   2.153   0.658   5.963
 6737SOL    HW230211   2.308   0.710   5.979
 6738SOL     OW30212   2.804   4.431   1.763
 6738SOL    HW130213   2.866   4.485   1.820
 6738SOL    HW230214   2.815   4.457   1.667
 6739SOL     OW30215   5.764   1.519   7.082
 6739SOL    HW130216   5.810   1.445   7.130
 6739SOL    HW230217   5.740   1.490   6.989
 6740SOL     OW30218   7.955   6.958   0.308
 6740SOL    HW130219   7.935   6.986   0.214
 6740SOL    HW230220   7.927   7.029   0.372
 6741SOL     OW30221   2.584   4.124   4.609
 6741SOL    HW130222   2.667   4.174   4.635
 6741SOL    HW230223   2.600   4.025   4.615
 6742SOL     OW30224   3.735   4.424   6.332
 6742SOL    HW130225   3.794   4.358   6.287
 6742SOL    HW230226   3.741   4.413   6.431
 6743SOL     OW30227   2.034   2.445   3.748
 6743SOL    HW130228   2.056   2.399   3.834
 6743SOL    HW230229   1.941   2.482   3.751
 6744SOL     OW30230   3.090   1.572   3.771
 6744SOL    HW130231   3.108   1.585   3.869
 6744SOL    HW230232   3.068   1.660   3.729
 6745SOL     OW30233   0.346   5.983   3.651
 6745SOL    HW130234   0.388   6.074   3.648
 6745SOL    HW230235   0.307   5.960   3.562
 6746SOL     OW30236   4.807   3.726   7.150
 6746SOL    HW130237   4.884   3.786   7.171
 6746SOL    HW230238   4.840   3.632   7.141
 6747SOL     OW30239   6.821   3.142   5.669
 6747SOL    HW130240   6.783   3.051   5.657
 6747SOL    HW230241   6.912   3.137   5.710
 6748SOL     OW30242   6.427   5.014   2.348
 6748SOL    HW130243   6.382   4.998   2.436
 6748SOL    HW230244   6.360   5.013   2.274
 6749SOL     OW30245   7.238   4.788   4.698
 6749SOL    HW130246   7.151   4.778   4.746
 6749SOL    HW230247   7.237   4.872   4.644
 6750SOL     OW30248   3.452   0.483   6.484
 6750SOL    HW130249   3.506   0.412   6.529
 6750SOL    HW230250   3.494   0.507   6.396
 6751SOL     OW30251   2.977   0.508   5.368
 6751SOL    HW130252   2.905   0.459   5.318
 6751SOL    HW230253   2.939   0.549   5.451
 6752SOL     OW30254   4.588   2.137   6.478
 6752SOL    HW130255   4.589   2.204   6.404
 6752SOL    HW230256   4.495   2.127   6.514
 6753SOL     OW30257   2.095   3.995   5.867
 6753SOL    HW130258   2.165   4.025   5.802
 6753SOL    HW230259   2.133   3.928   5.930
 6754SOL     OW30260   4.840   2.713   1.031
 6754SOL    HW130261   4.907   2.746   0.964
 6754SOL    HW230262   4.774   2.785   1.052
 6755SOL     OW30263   6.960   7.476   0.632
 6755SOL    HW130264   7.029   7.546   0.651
 6755SOL    HW230265   6.947   7.467   0.533
 6756SOL     OW30266   6.797   2.427   7.901
 6756SOL    HW130267   6.856   2.361   7.854
 6756SOL    HW230268   6.766   2.389   7.988
 6757SOL     OW30269   1.542   4.542   5.200
 6757SOL    HW130270   1.468   4.595   5.241
 6757SOL    HW230271   1.505   4.473   5.138
 6758SOL     OW30272   2.201   0.514   0.702
 6758SOL    HW130273   2.123   0.468   0.746
 6758SOL    HW230274   2.214   0.477   0.610
 6759SOL     OW30275   3.824   5.190   0.836
 6759SOL    HW130276   3.840   5.152   0.927
 6759SOL    HW230277   3.772   5.275   0.843
 6760SOL     OW30278   5.031   0.895   2.825
 6760SOL    HW130279   5.059   0.979   2.872
 6760SOL    HW230280   4.932   0.895   2.812
 6761SOL     OW30281   3.890   4.127   5.385
 6761SOL    HW130282   3.970   4.098   5.438
 6761SOL    HW230283   3.919   4.180   5.306
 6762SOL     OW30284   6.468   4.786   2.140
 6762SOL    HW130285   6.441   4.694   2.113
 6762SOL    HW230286   6.443   4.803   2.235
 6763SOL     OW30287   2.426   6.443   5.722
 6763SOL    HW130288   2.481   6.482   5.648
 6763SOL    HW230289   2.409   6.513   5.792
 6764SOL     OW30290   7.204   5.282   2.392
 6764SOL    HW130291   7.167   5.236   2.473
 6764SOL    HW230292   7.297   5.249   2.374
 6765SOL     OW30293   4.627   3.051   6.679
 6765SOL    HW130294   4.568   2.995   6.621
 6765SOL    HW230295   4.598   3.044   6.774
 6766SOL     OW30296   7.837   0.171   3.004
 6766SOL    HW130297   7.811   0.120   2.923
 6766SOL    HW230298   7.775   0.149   3.080
 6767SOL     OW30299   6.945   4.882   4.140
 6767SOL    HW130300   7.025   4.931   4.174
 6767SOL    HW230301   6.917   4.813   4.206
 6768SOL     OW30302   4.583   0.461   7.369
 6768SOL    HW130303   4.641   0.441   7.290
 6768SOL    HW230304   4.491   0.425   7.352
 6769SOL     OW30305   1.202   4.126   2.856
 6769SOL    HW130306   1.187   4.121   2.955
 6769SOL    HW230307   1.276   4.065   2.829
 6770SOL     OW30308   5.283   5.695   3.863
 6770SOL    HW130309   5.279   5.704   3.764
 6770SOL    HW230310   5.298   5.599   3.888
 6771SOL     OW30311   4.737   7.219   1.463
 6771SOL    HW130312   4.690   7.157   1.526
 6771SOL    HW230313   4.686   7.225   1.377
 6772SOL     OW30314   7.900   5.893   3.782
 6772SOL    HW130315   7.955   5.918   3.862
 6772SOL    HW230316   7.814   5.946   3.782
 6773SOL     OW30317   7.225   2.524   6.792
 6773SOL    HW130318   7.322   2.515   6.769
 6773SOL    HW230319   7.209   2.492   6.886
 6774SOL     OW30320   2.065   3.275   5.258
 6774SOL    HW130321   1.966   3.266   5.251
 6774SOL    HW230322   2.108   3.238   5.175
 6775SOL     OW30323   3.014   7.264   1.111
 6775SOL    HW130324   2.965   7.337   1.159
 6775SOL    HW230325   3.009   7.279   1.012
 6776SOL     OW30326   5.771   4.734   0.922
 6776SOL    HW130327   5.730   4.733   0.830
 6776SOL    HW230328   5.789   4.827   0.951
 6777SOL     OW30329   3.645   7.314   4.611
 6777SOL    HW130330   3.690   7.281   4.528
 6777SOL    HW230331   3.584   7.390   4.588
 6778SOL     OW30332   0.365   4.474   3.529
 6778SOL    HW130333   0.329   4.414   3.457
 6778SOL    HW230334   0.348   4.569   3.505
 6779SOL     OW30335   2.292   2.978   0.920
 6779SOL    HW130336   2.242   2.891   0.927
 6779SOL    HW230337   2.376   2.965   0.867
 6780SOL     OW30338   0.215   2.246   1.500
 6780SOL    HW130339   0.157   2.292   1.434
 6780SOL    HW230340   0.286   2.308   1.534
 6781SOL     OW30341   5.392   1.366   3.162
 6781SOL    HW130342   5.418   1.402   3.072
 6781SOL    HW230343   5.323   1.424   3.204
 6782SOL     OW30344   1.463   4.105   7.553
 6782SOL    HW130345   1.561   4.115   7.570
 6782SOL    HW230346   1.425   4.193   7.525
 6783SOL     OW30347   6.355   0.946   4.270
 6783SOL    HW130348   6.357   0.850   4.299
 6783SOL    HW230349   6.385   0.953   4.174
 6784SOL     OW30350   6.047   0.961   4.796
 6784SOL    HW130351   6.118   1.030   4.782
 6784SOL    HW230352   6.055   0.922   4.888
 6785SOL     OW30353   3.588   2.944   7.246
 6785SOL    HW130354   3.563   3.024   7.302
 6785SOL    HW230355   3.639   2.972   7.166
 6786SOL     OW30356   7.642   4.786   5.044
 6786SOL    HW130357   7.711   4.782   5.117
 6786SOL    HW230358   7.627   4.880   5.016
 6787SOL     OW30359   6.431   4.434   3.132
 6787SOL    HW130360   6.464   4.522   3.164
 6787SOL    HW230361   6.448   4.364   3.202
 6788SOL     OW30362   0.116   4.084   4.868
 6788SOL    HW130363   0.177   4.144   4.921
 6788SOL    HW230364   0.156   4.066   4.778
 6789SOL     OW30365   7.100   1.062   0.762
 6789SOL    HW130366   7.098   0.983   0.701
 6789SOL    HW230367   7.020   1.061   0.823
 6790SOL     OW30368   7.181   5.599   1.136
 6790SOL    HW130369   7.193   5.694   1.108
 6790SOL    HW230370   7.088   5.585   1.170
 6791SOL     OW30371   4.125   2.022   3.815
 6791SOL    HW130372   4.130   1.927   3.783
 6791SOL    HW230373   4.081   2.025   3.905
 6792SOL     OW30374   2.059   1.246   1.423
 6792SOL    HW130375   2.152   1.240   1.389
 6792SOL    HW230376   2.055   1.210   1.516
 6793SOL     OW30377   3.331   0.893   1.771
 6793SOL    HW130378   3.245   0.939   1.746
 6793SOL    HW230379   3.352   0.910   1.867
 6794SOL     OW30380   7.436   4.717   5.236
 6794SOL    HW130381   7.370   4.678   5.172
 6794SOL    HW230382   7.509   4.652   5.254
 6795SOL     OW30383   7.445   1.627   0.018
 6795SOL    HW130384   7.395   1.590   0.097
 6795SOL    HW230385   7.522   1.682   0.049
 6796SOL     OW30386   3.408   2.588   6.527
 6796SOL    HW130387   3.476   2.524   6.491
 6796SOL    HW230388   3.431   2.614   6.620
 6797SOL     OW30389   7.022   6.040   4.980
 6797SOL    HW130390   7.002   6.127   5.024
 6797SOL    HW230391   6.975   6.034   4.892
 6798SOL     OW30392   5.840   2.157   2.293
 6798SOL    HW130393   5.848   2.125   2.198
 6798SOL    HW230394   5.810   2.082   2.351
 6799SOL     OW30395   3.083   2.230   2.269
 6799SOL    HW130396   3.103   2.305   2.333
 6799SOL    HW230397   2.996   2.247   2.223
 6800SOL     OW30398   5.034   2.464   2.738
 6800SOL    HW130399   5.134   2.468   2.742
 6800SOL    HW230400   4.999   2.533   2.673
 6801SOL     OW30401   2.043   7.389   1.189
 6801SOL    HW130402   1.956   7.341   1.179
 6801SOL    HW230403   2.119   7.330   1.161
 6802SOL     OW30404   6.015   3.592   7.745
 6802SOL    HW130405   5.983   3.499   7.726
 6802SOL    HW230406   6.048   3.635   7.661
 6803SOL     OW30407   2.968   7.213   7.917
 6803SOL    HW130408   3.048   7.272   7.924
 6803SOL    HW230409   2.996   7.121   7.890
 6804SOL     OW30410   6.690   1.640   2.654
 6804SOL    HW130411   6.669   1.621   2.750
 6804SOL    HW230412   6.606   1.655   2.603
 6805SOL     OW30413   6.389   2.459   0.055
 6805SOL    HW130414   6.429   2.372   0.026
 6805SOL    HW230415   6.357   2.452   0.150
 6806SOL     OW30416   1.502   4.095   6.378
 6806SOL    HW130417   1.443   4.103   6.458
 6806SOL    HW230418   1.464   4.028   6.314
 6807SOL     OW30419   4.734   1.597   5.879
 6807SOL    HW130420   4.686   1.684   5.893
 6807SOL    HW230421   4.695   1.548   5.801
 6808SOL     OW30422   6.863   1.852   2.944
 6808SOL    HW130423   6.774   1.882   2.909
 6808SOL    HW230424   6.879   1.889   3.035
 6809SOL     OW30425   6.817   2.173   3.193
 6809SOL    HW130426   6.726   2.212   3.184
 6809SOL    HW230427   6.817   2.077   3.164
 6810SOL     OW30428   5.919   3.785   1.077
 6810SOL    HW130429   5.899   3.696   1.119
 6810SOL    HW230430   6.011   3.815   1.103
 6811SOL     OW30431   5.226   3.153   0.940
 6811SOL    HW130432   5.264   3.078   0.996
 6811SOL    HW230433   5.258   3.145   0.846
 6812SOL     OW30434   1.316   6.573   3.487
 6812SOL    HW130435   1.388   6.591   3.554
 6812SOL    HW230436   1.356   6.532   3.405
 6813SOL     OW30437   3.199   7.015   3.169
 6813SOL    HW130438   3.217   6.924   3.206
 6813SOL    HW230439   3.248   7.027   3.083
 6814SOL     OW30440   4.422   4.475   6.979
 6814SOL    HW130441   4.481   4.555   6.964
 6814SOL    HW230442   4.358   4.465   6.903
 6815SOL     OW30443   5.894   4.214   3.159
 6815SOL    HW130444   5.801   4.218   3.122
 6815SOL    HW230445   5.911   4.294   3.218
 6816SOL     OW30446   4.590   7.543   5.051
 6816SOL    HW130447   4.640   7.545   4.965
 6816SOL    HW230448   4.590   7.633   5.094
 6817SOL     OW30449   1.103   1.460   4.194
 6817SOL    HW130450   1.143   1.525   4.129
 6817SOL    HW230451   1.023   1.416   4.154
 6818SOL     OW30452   2.060   4.930   7.613
 6818SOL    HW130453   2.078   4.944   7.711
 6818SOL    HW230454   2.081   5.014   7.563
 6819SOL     OW30455   7.713   7.523   5.263
 6819SOL    HW130456   7.636   7.460   5.261
 6819SOL    HW230457   7.789   7.487   5.209
 6820SOL     OW30458   7.369   5.967   0.827
 6820SOL    HW130459   7.314   6.040   0.787
 6820SOL    HW230460   7.405   5.996   0.916
 6821SOL     OW30461   5.234   4.149   4.381
 6821SOL    HW130462   5.213   4.243   4.357
 6821SOL    HW230463   5.270   4.144   4.474
 6822SOL     OW30464   2.636   4.104   0.535
 6822SOL    HW130465   2.718   4.158   0.512
 6822SOL    HW230466   2.663   4.020   0.582
 6823SOL     OW30467   4.501   6.408   4.074
 6823SOL    HW130468   4.466   6.339   4.137
 6823SOL    HW230469   4.595   6.431   4.096
 6824SOL     OW30470   5.019   2.246   5.794
 6824SOL    HW130471   5.116   2.218   5.794
 6824SOL    HW230472   4.985   2.250   5.888
 6825SOL     OW30473   5.029   3.148   3.795
 6825SOL    HW130474   5.003   3.237   3.757
 6825SOL    HW230475   4.980   3.131   3.880
 6826SOL     OW30476   0.211   5.988   6.563
 6826SOL    HW130477   0.294   5.960   6.514
 6826SOL    HW230478   0.219   5.963   6.659
 6827SOL     OW30479   2.906   5.391   7.338
 6827SOL    HW130480   2.837   5.444   7.387
 6827SOL    HW230481   2.997   5.427   7.358
 6828SOL     OW30482   5.107   3.269   2.094
 6828SOL    HW130483   5.138   3.322   2.014
 6828SOL    HW230484   5.072   3.180   2.064
 6829SOL     OW30485   6.832   4.925   1.837
 6829SOL    HW130486   6.889   4.856   1.792
 6829SOL    HW230487   6.840   4.916   1.936
 6830SOL     OW30488   7.955   7.787   6.486
 6830SOL    HW130489   7.926   7.876   6.519
 6830SOL    HW230490   7.918   7.770   6.395
 6831SOL     OW30491   3.899   5.206   4.182
 6831SOL    HW130492   3.934   5.116   4.207
 6831SOL    HW230493   3.958   5.246   4.111
 6832SOL     OW30494   7.478   2.231   7.178
 6832SOL    HW130495   7.569   2.273   7.188
 6832SOL    HW230496   7.465   2.160   7.247
 6833SOL     OW30497   0.666   1.545   5.880
 6833SOL    HW130498   0.761   1.578   5.878
 6833SOL    HW230499   0.619   1.572   5.797
 6834SOL     OW30500   0.013   4.090   5.815
 6834SOL    HW130501  -0.045   4.008   5.805
 6834SOL    HW230502   0.100   4.065   5.857
 6835SOL     OW30503   6.642   6.448   2.152
 6835SOL    HW130504   6.557   6.500   2.162
 6835SOL    HW230505   6.721   6.509   2.163
 6836SOL     OW30506   6.024   3.018   5.658
 6836SOL    HW130507   5.987   3.099   5.613
 6836SOL    HW230508   6.112   2.994   5.618
 6837SOL     OW30509   5.278   5.257   6.836
 6837SOL    HW130510   5.331   5.316   6.896
 6837SOL    HW230511   5.287   5.162   6.866
 6838SOL     OW30512   6.614   5.508   1.232
 6838SOL    HW130513   6.547   5.477   1.300
 6838SOL    HW230514   6.591   5.600   1.202
 6839SOL     OW30515   2.851   0.544   3.503
 6839SOL    HW130516   2.821   0.573   3.412
 6839SOL    HW230517   2.939   0.496   3.496
 6840SOL     OW30518   6.552   6.987   5.484
 6840SOL    HW130519   6.627   7.025   5.430
 6840SOL    HW230520   6.465   6.997   5.435
 6841SOL     OW30521   4.767   5.847   7.170
 6841SOL    HW130522   4.754   5.939   7.206
 6841SOL    HW230523   4.686   5.819   7.117
 6842SOL     OW30524   1.211   3.946   1.315
 6842SOL    HW130525   1.148   3.894   1.372
 6842SOL    HW230526   1.303   3.907   1.321
 6843SOL     OW30527   6.365   7.753   6.544
 6843SOL    HW130528   6.281   7.791   6.506
 6843SOL    HW230529   6.394   7.806   6.623
 6844SOL     OW30530   3.212   5.373   7.191
 6844SOL    HW130531   3.192   5.464   7.154
 6844SOL    HW230532   3.253   5.381   7.281
 6845SOL     OW30533   3.468   1.058   7.126
 6845SOL    HW130534   3.533   1.084   7.054
 6845SOL    HW230535   3.510   1.073   7.216
 6846SOL     OW30536   6.932   4.580   1.550
 6846SOL    HW130537   6.979   4.647   1.608
 6846SOL    HW230538   6.920   4.616   1.458
 6847SOL     OW30539   1.748   2.185   4.652
 6847SOL    HW130540   1.751   2.285   4.661
 6847SOL    HW230541   1.705   2.160   4.566
 6848SOL     OW30542   2.498   5.949   6.264
 6848SOL    HW130543   2.559   5.955   6.343
 6848SOL    HW230544   2.487   5.854   6.235
 6849SOL     OW30545   4.926   3.721   1.685
 6849SOL    HW130546   4.937   3.628   1.651
 6849SOL    HW230547   5.009   3.775   1.667
 6850SOL     OW30548   6.342   2.639   0.765
 6850SOL    HW130549   6.428   2.614   0.808
 6850SOL    HW230550   6.358   2.672   0.672
 6851SOL     OW30551   7.135   0.794   3.435
 6851SOL    HW130552   7.130   0.739   3.518
 6851SOL    HW230553   7.085   0.749   3.361
 6852SOL     OW30554   2.711   1.456   3.465
 6852SOL    HW130555   2.643   1.398   3.508
 6852SOL    HW230556   2.754   1.516   3.533
 6853SOL     OW30557   0.938   7.078   2.687
 6853SOL    HW130558   0.947   7.032   2.776
 6853SOL    HW230559   0.935   7.011   2.614
 6854SOL     OW30560   6.512   3.274   4.475
 6854SOL    HW130561   6.453   3.355   4.480
 6854SOL    HW230562   6.565   3.275   4.390
 6855SOL     OW30563   6.439   3.261   2.694
 6855SOL    HW130564   6.482   3.328   2.633
 6855SOL    HW230565   6.510   3.205   2.738
 6856SOL     OW30566   6.903   6.325   7.501
 6856SOL    HW130567   6.887   6.303   7.598
 6856SOL    HW230568   7.000   6.315   7.479
 6857SOL     OW30569   2.920   1.561   1.053
 6857SOL    HW130570   2.977   1.588   0.975
 6857SOL    HW230571   2.952   1.473   1.090
 6858SOL     OW30572   7.516   6.775   6.936
 6858SOL    HW130573   7.416   6.779   6.938
 6858SOL    HW230574   7.554   6.845   6.997
 6859SOL     OW30575   3.839   4.402   7.081
 6859SOL    HW130576   3.913   4.339   7.102
 6859SOL    HW230577   3.781   4.415   7.162
 6860SOL     OW30578   5.615   3.802   4.303
 6860SOL    HW130579   5.522   3.772   4.323
 6860SOL    HW230580   5.668   3.727   4.263
 6861SOL     OW30581   2.894   2.953   0.700
 6861SOL    HW130582   2.821   2.898   0.659
 6861SOL    HW230583   2.867   2.984   0.791
 6862SOL     OW30584   5.656   3.258   4.810
 6862SOL    HW130585   5.667   3.297   4.902
 6862SOL    HW230586   5.738   3.275   4.756
 6863SOL     OW30587   4.768   6.560   6.484
 6863SOL    HW130588   4.732   6.482   6.433
 6863SOL    HW230589   4.725   6.563   6.575
 6864SOL     OW30590   7.463   5.903   7.960
 6864SOL    HW130591   7.399   5.956   8.016
 6864SOL    HW230592   7.535   5.864   8.018
 6865SOL     OW30593   4.873   0.376   0.389
 6865SOL    HW130594   4.812   0.449   0.355
 6865SOL    HW230595   4.840   0.344   0.478
 6866SOL     OW30596   6.972   7.941   5.834
 6866SOL    HW130597   7.022   7.989   5.906
 6866SOL    HW230598   6.932   7.857   5.871
 6867SOL     OW30599   5.544   7.573   2.925
 6867SOL    HW130600   5.558   7.662   2.967
 6867SOL    HW230601   5.631   7.524   2.917
 6868SOL     OW30602   7.267   2.262   4.437
 6868SOL    HW130603   7.301   2.305   4.353
 6868SOL    HW230604   7.252   2.165   4.422
 6869SOL     OW30605   0.881   2.784   0.613
 6869SOL    HW130606   0.851   2.717   0.544
 6869SOL    HW230607   0.835   2.871   0.598
 6870SOL     OW30608   0.154   3.350   5.831
 6870SOL    HW130609   0.117   3.437   5.864
 6870SOL    HW230610   0.104   3.321   5.750
 6871SOL     OW30611   3.160   5.195   6.309
 6871SOL    HW130612   3.070   5.233   6.328
 6871SOL    HW230613   3.179   5.199   6.211
 6872SOL     OW30614   5.438   3.124   5.545
 6872SOL    HW130615   5.493   3.043   5.567
 6872SOL    HW230616   5.436   3.137   5.446
 6873SOL     OW30617   4.340   6.005   4.627
 6873SOL    HW130618   4.362   6.102   4.636
 6873SOL    HW230619   4.346   5.976   4.532
 6874SOL     OW30620   1.259   2.077   0.885
 6874SOL    HW130621   1.231   2.065   0.980
 6874SOL    HW230622   1.349   2.038   0.870
 6875SOL     OW30623   5.238   2.851   5.834
 6875SOL    HW130624   5.210   2.947   5.826
 6875SOL    HW230625   5.238   2.823   5.930
 6876SOL     OW30626   4.021   3.716   5.481
 6876SOL    HW130627   3.935   3.744   5.439
 6876SOL    HW230628   4.079   3.671   5.413
 6877SOL     OW30629   3.623   6.679   2.382
 6877SOL    HW130630   3.717   6.680   2.416
 6877SOL    HW230631   3.592   6.585   2.371
 6878SOL     OW30632   7.283   6.254   6.548
 6878SOL    HW130633   7.185   6.233   6.542
 6878SOL    HW230634   7.320   6.270   6.457
 6879SOL     OW30635   0.457   2.741   1.556
 6879SOL    HW130636   0.427   2.651   1.589
 6879SOL    HW230637   0.486   2.736   1.461
 6880SOL     OW30638   4.413   4.222   5.587
 6880SOL    HW130639   4.335   4.170   5.553
 6880SOL    HW230640   4.394   4.255   5.679
 6881SOL     OW30641   2.734   3.421   7.951
 6881SOL    HW130642   2.780   3.507   7.929
 6881SOL    HW230643   2.661   3.438   8.018
 6882SOL     OW30644   4.532   7.313   6.396
 6882SOL    HW130645   4.447   7.265   6.416
 6882SOL    HW230646   4.527   7.408   6.427
 6883SOL     OW30647   6.481   1.165   7.412
 6883SOL    HW130648   6.564   1.198   7.366
 6883SOL    HW230649   6.505   1.131   7.503
 6884SOL     OW30650   6.668   1.563   0.639
 6884SOL    HW130651   6.607   1.637   0.667
 6884SOL    HW230652   6.750   1.601   0.597
 6885SOL     OW30653   0.356   2.152   4.573
 6885SOL    HW130654   0.343   2.209   4.491
 6885SOL    HW230655   0.281   2.087   4.581
 6886SOL     OW30656   4.470   3.096   7.253
 6886SOL    HW130657   4.375   3.088   7.224
 6886SOL    HW230658   4.531   3.077   7.176
 6887SOL     OW30659   5.884   3.750   5.636
 6887SOL    HW130660   5.977   3.785   5.626
 6887SOL    HW230661   5.840   3.792   5.716
 6888SOL     OW30662   0.221   4.574   6.566
 6888SOL    HW130663   0.168   4.559   6.649
 6888SOL    HW230664   0.163   4.563   6.485
 6889SOL     OW30665   1.052   1.584   2.387
 6889SOL    HW130666   0.971   1.586   2.446
 6889SOL    HW230667   1.115   1.657   2.413
 6890SOL     OW30668   1.392   0.789   7.177
 6890SOL    HW130669   1.468   0.843   7.213
 6890SOL    HW230670   1.405   0.771   7.080
 6891SOL     OW30671   5.921   7.218   1.584
 6891SOL    HW130672   5.849   7.160   1.546
 6891SOL    HW230673   5.897   7.248   1.676
 6892SOL     OW30674   5.349   5.034   5.035
 6892SOL    HW130675   5.349   4.985   5.122
 6892SOL    HW230676   5.258   5.034   4.995
 6893SOL     OW30677   1.284   5.683   2.372
 6893SOL    HW130678   1.196   5.637   2.379
 6893SOL    HW230679   1.339   5.665   2.454
 6894SOL     OW30680   3.544   3.433   6.837
 6894SOL    HW130681   3.572   3.339   6.856
 6894SOL    HW230682   3.519   3.442   6.741
 6895SOL     OW30683   2.897   7.954   1.015
 6895SOL    HW130684   2.873   7.857   1.005
 6895SOL    HW230685   2.934   7.989   0.929
 6896SOL     OW30686   0.701   5.339   0.060
 6896SOL    HW130687   0.786   5.371   0.018
 6896SOL    HW230688   0.670   5.404   0.130
 6897SOL     OW30689   1.372   2.085   5.601
 6897SOL    HW130690   1.396   2.178   5.631
 6897SOL    HW230691   1.391   2.020   5.674
 6898SOL     OW30692   1.414   1.903   7.292
 6898SOL    HW130693   1.508   1.910   7.259
 6898SOL    HW230694   1.389   1.808   7.306
 6899SOL     OW30695   3.280   7.744   5.540
 6899SOL    HW130696   3.214   7.820   5.542
 6899SOL    HW230697   3.294   7.715   5.445
 6900SOL     OW30698   2.239   3.680   5.282
 6900SOL    HW130699   2.182   3.598   5.279
 6900SOL    HW230700   2.262   3.709   5.189
 6901SOL     OW30701   6.992   6.364   2.086
 6901SOL    HW130702   6.991   6.269   2.117
 6901SOL    HW230703   6.920   6.415   2.133
 6902SOL     OW30704   0.395   7.753   0.047
 6902SOL    HW130705   0.336   7.705   0.112
 6902SOL    HW230706   0.486   7.767   0.086
 6903SOL     OW30707   0.442   4.189   0.812
 6903SOL    HW130708   0.381   4.202   0.890
 6903SOL    HW230709   0.537   4.208   0.839
 6904SOL     OW30710   5.714   4.612   2.074
 6904SOL    HW130711   5.729   4.518   2.044
 6904SOL    HW230712   5.801   4.655   2.097
 6905SOL     OW30713   2.565   6.558   4.060
 6905SOL    HW130714   2.505   6.523   3.988
 6905SOL    HW230715   2.597   6.483   4.118
 6906SOL     OW30716   1.920   1.171   7.800
 6906SOL    HW130717   1.879   1.234   7.865
 6906SOL    HW230718   1.871   1.175   7.713
 6907SOL     OW30719   6.066   4.427   5.443
 6907SOL    HW130720   5.997   4.446   5.373
 6907SOL    HW230721   6.025   4.376   5.518
 6908SOL     OW30722   7.413   6.420   1.957
 6908SOL    HW130723   7.407   6.484   1.881
 6908SOL    HW230724   7.471   6.457   2.029
 6909SOL     OW30725   7.407   4.034   4.104
 6909SOL    HW130726   7.340   4.092   4.057
 6909SOL    HW230727   7.454   4.087   4.175
 6910SOL     OW30728   0.962   7.668   0.913
 6910SOL    HW130729   0.995   7.755   0.879
 6910SOL    HW230730   0.997   7.652   1.006
 6911SOL     OW30731   6.649   4.191   5.713
 6911SOL    HW130732   6.662   4.291   5.712
 6911SOL    HW230733   6.644   4.158   5.807
 6912SOL     OW30734   2.066   6.830   4.141
 6912SOL    HW130735   2.160   6.838   4.106
 6912SOL    HW230736   2.067   6.789   4.232
 6913SOL     OW30737   2.541   2.250   6.976
 6913SOL    HW130738   2.493   2.181   6.922
 6913SOL    HW230739   2.602   2.207   7.041
 6914SOL     OW30740   0.397   2.074   6.113
 6914SOL    HW130741   0.454   2.117   6.183
 6914SOL    HW230742   0.446   1.999   6.069
 6915SOL     OW30743   4.184   3.012   5.015
 6915SOL    HW130744   4.264   2.958   5.040
 6915SOL    HW230745   4.202   3.109   5.029
 6916SOL     OW30746   6.618   5.860   3.392
 6916SOL    HW130747   6.698   5.872   3.334
 6916SOL    HW230748   6.629   5.912   3.477
 6917SOL     OW30749   3.271   6.100   4.326
 6917SOL    HW130750   3.315   6.166   4.387
 6917SOL    HW230751   3.272   6.135   4.232
 6918SOL     OW30752   7.860   1.705   0.218
 6918SOL    HW130753   7.955   1.710   0.249
 6918SOL    HW230754   7.853   1.740   0.125
 6919SOL     OW30755   5.897   1.658   1.036
 6919SOL    HW130756   5.836   1.683   1.112
 6919SOL    HW230757   5.852   1.678   0.949
 6920SOL     OW30758   7.194   7.555   6.359
 6920SOL    HW130759   7.207   7.530   6.455
 6920SOL    HW230760   7.218   7.651   6.345
 6921SOL     OW30761   7.729   3.555   2.698
 6921SOL    HW130762   7.658   3.504   2.648
 6921SOL    HW230763   7.699   3.572   2.792
 6922SOL     OW30764   4.151   1.567   5.228
 6922SOL    HW130765   4.173   1.638   5.161
 6922SOL    HW230766   4.214   1.573   5.306
 6923SOL     OW30767   7.713   0.788   3.053
 6923SOL    HW130768   7.644   0.740   2.999
 6923SOL    HW230769   7.686   0.790   3.149
 6924SOL     OW30770   1.637   7.757   2.333
 6924SOL    HW130771   1.616   7.680   2.272
 6924SOL    HW230772   1.614   7.734   2.427
 6925SOL     OW30773   5.880   3.122   5.862
 6925SOL    HW130774   5.948   3.049   5.862
 6925SOL    HW230775   5.911   3.197   5.804
 6926SOL     OW30776   6.086   0.959   6.602
 6926SOL    HW130777   6.115   0.982   6.694
 6926SOL    HW230778   6.163   0.966   6.539
 6927SOL     OW30779   3.875   2.518   0.492
 6927SOL    HW130780   3.904   2.561   0.407
 6927SOL    HW230781   3.854   2.421   0.476
 6928SOL     OW30782   0.491   2.423   5.006
 6928SOL    HW130783   0.394   2.447   5.009
 6928SOL    HW230784   0.501   2.324   4.993
 6929SOL     OW30785   4.828   1.588   3.567
 6929SOL    HW130786   4.787   1.498   3.578
 6929SOL    HW230787   4.765   1.658   3.600
 6930SOL     OW30788   7.955   3.104   3.195
 6930SOL    HW130789   7.907   3.019   3.174
 6930SOL    HW230790   7.952   3.122   3.294
 6931SOL     OW30791   1.731   7.269   7.396
 6931SOL    HW130792   1.719   7.184   7.345
 6931SOL    HW230793   1.823   7.274   7.433
 6932SOL     OW30794   5.530   2.318   3.665
 6932SOL    HW130795   5.470   2.380   3.716
 6932SOL    HW230796   5.490   2.298   3.576
 6933SOL     OW30797   0.870   3.502   0.439
 6933SOL    HW130798   0.782   3.522   0.397
 6933SOL    HW230799   0.873   3.541   0.531
 6934SOL     OW30800   2.903   4.296   2.040
 6934SOL    HW130801   2.874   4.338   2.126
 6934SOL    HW230802   2.841   4.322   1.967
 6935SOL     OW30803   6.045   7.351   5.519
 6935SOL    HW130804   5.949   7.361   5.495
 6935SOL    HW230805   6.083   7.440   5.544
 6936SOL     OW30806   0.974   1.073   4.405
 6936SOL    HW130807   1.012   0.985   4.435
 6936SOL    HW230808   1.009   1.095   4.314
 6937SOL     OW30809   7.808   3.303   5.082
 6937SOL    HW130810   7.765   3.215   5.064
 6937SOL    HW230811   7.825   3.351   4.995
 6938SOL     OW30812   0.361   4.539   5.429
 6938SOL    HW130813   0.311   4.601   5.368
 6938SOL    HW230814   0.379   4.585   5.516
 6939SOL     OW30815   2.600   4.268   3.627
 6939SOL    HW130816   2.538   4.195   3.657
 6939SOL    HW230817   2.675   4.228   3.573
 6940SOL     OW30818   6.958   4.238   0.409
 6940SOL    HW130819   6.883   4.296   0.441
 6940SOL    HW230820   6.998   4.277   0.326
 6941SOL     OW30821   0.685   4.049   1.325
 6941SOL    HW130822   0.705   3.959   1.285
 6941SOL    HW230823   0.768   4.087   1.365
 6942SOL     OW30824   6.854   0.447   4.840
 6942SOL    HW130825   6.758   0.442   4.812
 6942SOL    HW230826   6.859   0.462   4.939
 6943SOL     OW30827   2.369   5.346   1.613
 6943SOL    HW130828   2.290   5.398   1.648
 6943SOL    HW230829   2.340   5.286   1.538
 6944SOL     OW30830   6.963   0.112   5.643
 6944SOL    HW130831   6.933   0.145   5.733
 6944SOL    HW230832   6.902   0.040   5.612
 6945SOL     OW30833   6.229   3.158   3.155
 6945SOL    HW130834   6.154   3.094   3.141
 6945SOL    HW230835   6.222   3.200   3.246
 6946SOL     OW30836   6.142   4.194   4.798
 6946SOL    HW130837   6.193   4.114   4.766
 6946SOL    HW230838   6.096   4.174   4.884
 6947SOL     OW30839   0.663   3.870   4.742
 6947SOL    HW130840   0.595   3.801   4.767
 6947SOL    HW230841   0.636   3.959   4.779
 6948SOL     OW30842   5.101   3.037   6.368
 6948SOL    HW130843   5.176   2.974   6.349
 6948SOL    HW230844   5.043   2.999   6.441
 6949SOL     OW30845   7.026   3.051   3.396
 6949SOL    HW130846   6.997   3.048   3.300
 6949SOL    HW230847   7.078   3.134   3.413
 6950SOL     OW30848   0.623   2.646   0.586
 6950SOL    HW130849   0.632   2.723   0.524
 6950SOL    HW230850   0.678   2.663   0.669
 6951SOL     OW30851   3.724   2.611   5.618
 6951SOL    HW130852   3.642   2.588   5.565
 6951SOL    HW230853   3.726   2.557   5.702
 6952SOL     OW30854   5.534   0.549   1.812
 6952SOL    HW130855   5.478   0.474   1.775
 6952SOL    HW230856   5.503   0.571   1.905
 6953SOL     OW30857   5.122   2.709   1.526
 6953SOL    HW130858   5.186   2.769   1.479
 6953SOL    HW230859   5.171   2.649   1.590
 6954SOL     OW30860   4.865   4.834   2.715
 6954SOL    HW130861   4.900   4.880   2.634
 6954SOL    HW230862   4.809   4.897   2.769
 6955SOL     OW30863   6.957   3.589   6.290
 6955SOL    HW130864   6.993   3.601   6.197
 6955SOL    HW230865   6.875   3.533   6.288
 6956SOL     OW30866   6.152   3.291   7.733
 6956SOL    HW130867   6.069   3.258   7.688
 6956SOL    HW230868   6.195   3.217   7.784
 6957SOL     OW30869   3.287   5.151   7.318
 6957SOL    HW130870   3.273   5.111   7.227
 6957SOL    HW230871   3.316   5.080   7.382
 6958SOL     OW30872   7.854   2.687   5.523
 6958SOL    HW130873   7.773   2.691   5.464
 6958SOL    HW230874   7.851   2.762   5.589
 6959SOL     OW30875   7.049   5.633   1.407
 6959SOL    HW130876   7.069   5.540   1.436
 6959SOL    HW230877   7.130   5.675   1.366
 6960SOL     OW30878   3.069   3.343   0.821
 6960SOL    HW130879   3.036   3.430   0.784
 6960SOL    HW230880   3.110   3.358   0.911
 6961SOL     OW30881   6.642   3.523   7.302
 6961SOL    HW130882   6.740   3.514   7.286
 6961SOL    HW230883   6.624   3.539   7.399
 6962SOL     OW30884   0.206   3.427   6.301
 6962SOL    HW130885   0.118   3.473   6.304
 6962SOL    HW230886   0.197   3.333   6.334
 6963SOL     OW30887   4.170   1.096   4.610
 6963SOL    HW130888   4.210   1.017   4.657
 6963SOL    HW230889   4.241   1.165   4.593
 6964SOL     OW30890   5.451   2.069   4.358
 6964SOL    HW130891   5.366   2.078   4.307
 6964SOL    HW230892   5.529   2.078   4.296
 6965SOL     OW30893   5.427   2.971   5.858
 6965SOL    HW130894   5.505   2.963   5.797
 6965SOL    HW230895   5.447   2.930   5.947
 6966SOL     OW30896   4.693   2.614   1.208
 6966SOL    HW130897   4.662   2.519   1.198
 6966SOL    HW230898   4.631   2.664   1.268
 6967SOL     OW30899   1.222   1.162   4.351
 6967SOL    HW130900   1.226   1.261   4.365
 6967SOL    HW230901   1.263   1.138   4.263
 6968SOL     OW30902   6.988   1.395   2.331
 6968SOL    HW130903   6.907   1.428   2.283
 6968SOL    HW230904   6.998   1.444   2.418
 6969SOL     OW30905   5.661  -0.011   2.911
 6969SOL    HW130906   5.709   0.069   2.949
 6969SOL    HW230907   5.586   0.019   2.853
 6970SOL     OW30908   1.589   0.966   6.033
 6970SOL    HW130909   1.491   0.962   6.049
 6970SOL    HW230910   1.608   0.980   5.936
 6971SOL     OW30911   1.723   7.538   0.432
 6971SOL    HW130912   1.657   7.464   0.445
 6971SOL    HW230913   1.768   7.529   0.343
 6972SOL     OW30914   5.626   3.170   3.822
 6972SOL    HW130915   5.713   3.126   3.798
 6972SOL    HW230916   5.582   3.205   3.739
 6973SOL     OW30917   3.936   0.370   3.737
 6973SOL    HW130918   3.965   0.460   3.705
 6973SOL    HW230919   3.976   0.351   3.827
 6974SOL     OW30920   5.139   6.593   3.304
 6974SOL    HW130921   5.227   6.548   3.320
 6974SOL    HW230922   5.134   6.624   3.209
 6975SOL     OW30923   6.499   6.747   7.786
 6975SOL    HW130924   6.527   6.668   7.731
 6975SOL    HW230925   6.542   6.741   7.877
 6976SOL     OW30926   2.367   3.646   5.476
 6976SOL    HW130927   2.444   3.706   5.494
 6976SOL    HW230928   2.281   3.692   5.498
 6977SOL     OW30929   6.678   7.572   1.335
 6977SOL    HW130930   6.702   7.502   1.268
 6977SOL    HW230931   6.595   7.619   1.307
 6978SOL     OW30932   1.717   6.654   1.547
 6978SOL    HW130933   1.723   6.687   1.452
 6978SOL    HW230934   1.654   6.712   1.599
 6979SOL     OW30935   3.853   5.386   6.747
 6979SOL    HW130936   3.863   5.455   6.675
 6979SOL    HW230937   3.847   5.295   6.706
 6980SOL     OW30938   6.350   3.753   2.903
 6980SOL    HW130939   6.376   3.700   2.983
 6980SOL    HW230940   6.347   3.851   2.926
 6981SOL     OW30941   4.091   7.201   5.506
 6981SOL    HW130942   4.143   7.284   5.486
 6981SOL    HW230943   4.101   7.177   5.603
 6982SOL     OW30944   0.321   0.054   7.585
 6982SOL    HW130945   0.292   0.147   7.610
 6982SOL    HW230946   0.281   0.029   7.497
 6983SOL     OW30947  -0.028   0.319   6.067
 6983SOL    HW130948  -0.031   0.412   6.104
 6983SOL    HW230949   0.061   0.278   6.083
 6984SOL     OW30950   1.498   4.830   7.019
 6984SOL    HW130951   1.545   4.795   6.938
 6984SOL    HW230952   1.408   4.787   7.028
 6985SOL     OW30953   5.619   4.170   5.173
 6985SOL    HW130954   5.543   4.198   5.114
 6985SOL    HW230955   5.595   4.085   5.221
 6986SOL     OW30956   2.666   5.731   0.731
 6986SOL    HW130957   2.692   5.826   0.749
 6986SOL    HW230958   2.590   5.729   0.667
 6987SOL     OW30959   7.042   0.690   1.666
 6987SOL    HW130960   7.107   0.678   1.741
 6987SOL    HW230961   7.045   0.783   1.632
 6988SOL     OW30962   2.478   2.911   5.056
 6988SOL    HW130963   2.479   2.969   5.138
 6988SOL    HW230964   2.449   2.964   4.976
 6989SOL     OW30965   2.601   7.047   1.438
 6989SOL    HW130966   2.687   7.023   1.484
 6989SOL    HW230967   2.620   7.098   1.355
 6990SOL     OW30968   5.486   5.398   1.931
 6990SOL    HW130969   5.443   5.339   1.999
 6990SOL    HW230970   5.577   5.425   1.961
 6991SOL     OW30971   0.806   2.726   1.175
 6991SOL    HW130972   0.832   2.822   1.188
 6991SOL    HW230973   0.787   2.684   1.264
 6992SOL     OW30974   5.800   6.599   2.929
 6992SOL    HW130975   5.815   6.525   2.995
 6992SOL    HW230976   5.884   6.615   2.877
 6993SOL     OW30977   1.030   0.352   5.146
 6993SOL    HW130978   0.984   0.293   5.080
 6993SOL    HW230979   0.978   0.355   5.232
 6994SOL     OW30980   6.906   3.676   7.192
 6994SOL    HW130981   6.884   3.683   7.289
 6994SOL    HW230982   6.987   3.618   7.179
 6995SOL     OW30983   6.078   3.381   6.779
 6995SOL    HW130984   6.146   3.413   6.713
 6995SOL    HW230985   6.009   3.452   6.794
 6996SOL     OW30986   2.086   3.912   7.923
 6996SOL    HW130987   1.990   3.904   7.897
 6996SOL    HW230988   2.098   3.882   8.018
 6997SOL     OW30989   0.625   7.766   0.709
 6997SOL    HW130990   0.598   7.848   0.659
 6997SOL    HW230991   0.597   7.685   0.659
 6998SOL     OW30992   5.870   4.707   2.426
 6998SOL    HW130993   5.908   4.782   2.481
 6998SOL    HW230994   5.783   4.735   2.385
 6999SOL     OW30995   2.022   5.124   3.382
 6999SOL    HW130996   2.046   5.213   3.423
 6999SOL    HW230997   1.984   5.138   3.291
 7000SOL     OW30998   6.230   0.123   4.692
 7000SOL    HW130999   6.233   0.214   4.650
 7000SOL    HW231000   6.267   0.128   4.785
 7001SOL     OW31001   7.731  -0.003   6.254
 7001SOL    HW131002   7.798   0.003   6.328
 7001SOL    HW231003   7.779  -0.011   6.166
 7002SOL     OW31004   5.588   6.893   2.979
 7002SOL    HW131005   5.495   6.898   2.942
 7002SOL    HW231006   5.592   6.936   3.069
 7003SOL     OW31007   2.216   1.110   7.317
 7003SOL    HW131008   2.206   1.059   7.231
 7003SOL    HW231009   2.211   1.208   7.299
 7004SOL     OW31010   0.109   5.203   1.569
 7004SOL    HW131011   0.199   5.172   1.538
 7004SOL    HW231012   0.090   5.168   1.661
 7005SOL     OW31013   1.692   7.703   5.748
 7005SOL    HW131014   1.631   7.637   5.793
 7005SOL    HW231015   1.747   7.657   5.679
 7006SOL     OW31016   6.643   0.841   3.292
 7006SOL    HW131017   6.669   0.784   3.213
 7006SOL    HW231018   6.564   0.801   3.338
 7007SOL     OW31019   6.569   6.835   0.272
 7007SOL    HW131020   6.489   6.890   0.249
 7007SOL    HW231021   6.574   6.755   0.211
 7008SOL     OW31022   3.459   0.644   7.781
 7008SOL    HW131023   3.405   0.720   7.818
 7008SOL    HW231024   3.556   0.659   7.799
 7009SOL     OW31025   6.512   1.037   2.842
 7009SOL    HW131026   6.600   1.054   2.887
 7009SOL    HW231027   6.514   1.075   2.749
 7010SOL     OW31028   1.468   3.917   3.566
 7010SOL    HW131029   1.489   3.901   3.663
 7010SOL    HW231030   1.386   3.866   3.540
 7011SOL     OW31031   1.655   3.283   4.479
 7011SOL    HW131032   1.735   3.226   4.459
 7011SOL    HW231033   1.631   3.337   4.398
 7012SOL     OW31034   7.529   0.882   5.551
 7012SOL    HW131035   7.507   0.979   5.539
 7012SOL    HW231036   7.476   0.827   5.486
 7013SOL     OW31037   7.055   3.944   1.857
 7013SOL    HW131038   7.063   3.844   1.856
 7013SOL    HW231039   7.001   3.974   1.936
 7014SOL     OW31040   6.667   0.727   3.845
 7014SOL    HW131041   6.708   0.722   3.936
 7014SOL    HW231042   6.632   0.820   3.829
 7015SOL     OW31043   5.763   1.854   5.531
 7015SOL    HW131044   5.698   1.921   5.569
 7015SOL    HW231045   5.833   1.833   5.599
 7016SOL     OW31046   7.248   2.471   1.908
 7016SOL    HW131047   7.216   2.392   1.960
 7016SOL    HW231048   7.348   2.476   1.910
 7017SOL     OW31049   2.926   5.900   7.114
 7017SOL    HW131050   2.837   5.944   7.130
 7017SOL    HW231051   2.945   5.896   7.016
 7018SOL     OW31052   2.655   3.609   0.998
 7018SOL    HW131053   2.570   3.560   0.977
 7018SOL    HW231054   2.728   3.579   0.937
 7019SOL     OW31055   0.611   6.859   2.520
 7019SOL    HW131056   0.534   6.922   2.524
 7019SOL    HW231057   0.666   6.867   2.603
 7020SOL     OW31058   0.023   4.364   5.832
 7020SOL    HW131059  -0.046   4.299   5.863
 7020SOL    HW231060   0.023   4.370   5.732
 7021SOL     OW31061   1.815   4.043   3.479
 7021SOL    HW131062   1.872   4.005   3.551
 7021SOL    HW231063   1.863   4.117   3.431
 7022SOL     OW31064   1.483   3.665   7.302
 7022SOL    HW131065   1.453   3.670   7.398
 7022SOL    HW231066   1.562   3.605   7.295
 7023SOL     OW31067   0.540   2.270   4.336
 7023SOL    HW131068   0.636   2.278   4.364
 7023SOL    HW231069   0.530   2.299   4.240
 7024SOL     OW31070  -0.010   0.367   7.306
 7024SOL    HW131071   0.028   0.430   7.375
 7024SOL    HW231072   0.028   0.276   7.319
 7025SOL     OW31073   5.800   7.807   5.948
 7025SOL    HW131074   5.859   7.819   5.868
 7025SOL    HW231075   5.710   7.774   5.920
 7026SOL     OW31076   6.859   6.959   3.685
 7026SOL    HW131077   6.955   6.932   3.685
 7026SOL    HW231078   6.800   6.878   3.688
 7027SOL     OW31079   0.419   7.028   6.098
 7027SOL    HW131080   0.457   7.121   6.098
 7027SOL    HW231081   0.329   7.029   6.140
 7028SOL     OW31082   6.418   6.073   4.749
 7028SOL    HW131083   6.427   6.163   4.704
 7028SOL    HW231084   6.478   6.069   4.829
 7029SOL     OW31085   1.056   4.130   0.409
 7029SOL    HW131086   1.143   4.098   0.448
 7029SOL    HW231087   1.074   4.184   0.327
 7030SOL     OW31088   3.133   2.942   6.225
 7030SOL    HW131089   3.090   2.892   6.150
 7030SOL    HW231090   3.225   2.907   6.240
 7031SOL     OW31091   1.446   7.624   1.850
 7031SOL    HW131092   1.542   7.598   1.863
 7031SOL    HW231093   1.417   7.600   1.758
 7032SOL     OW31094   3.133   4.914   1.594
 7032SOL    HW131095   3.100   4.908   1.500
 7032SOL    HW231096   3.232   4.930   1.594
 7033SOL     OW31097   5.206   3.559   5.055
 7033SOL    HW131098   5.199   3.575   5.154
 7033SOL    HW231099   5.150   3.626   5.006
 7034SOL     OW31100   7.579   1.800   4.383
 7034SOL    HW131101   7.551   1.714   4.341
 7034SOL    HW231102   7.543   1.806   4.476
 7035SOL     OW31103   3.186   6.422   1.056
 7035SOL    HW131104   3.157   6.374   0.973
 7035SOL    HW231105   3.253   6.367   1.105
 7036SOL     OW31106   1.581   1.621   7.011
 7036SOL    HW131107   1.504   1.659   6.959
 7036SOL    HW231108   1.665   1.628   6.958
 7037SOL     OW31109   4.115   7.034   3.734
 7037SOL    HW131110   4.041   7.102   3.739
 7037SOL    HW231111   4.137   7.015   3.638
 7038SOL     OW31112   1.175   1.950   2.353
 7038SOL    HW131113   1.237   1.873   2.336
 7038SOL    HW231114   1.174   1.970   2.451
 7039SOL     OW31115   2.755   3.296   0.898
 7039SOL    HW131116   2.725   3.372   0.839
 7039SOL    HW231117   2.771   3.330   0.990
 7040SOL     OW31118   4.498   3.863   0.646
 7040SOL    HW131119   4.580   3.892   0.596
 7040SOL    HW231120   4.521   3.844   0.741
 7041SOL     OW31121   6.520   5.453   5.238
 7041SOL    HW131122   6.584   5.409   5.301
 7041SOL    HW231123   6.426   5.442   5.271
 7042SOL     OW31124   1.751   1.997   4.308
 7042SOL    HW131125   1.722   2.091   4.327
 7042SOL    HW231126   1.783   1.990   4.214
 7043SOL     OW31127   1.500   2.558   5.373
 7043SOL    HW131128   1.501   2.657   5.358
 7043SOL    HW231129   1.519   2.538   5.469
 7044SOL     OW31130   1.189   3.874   7.629
 7044SOL    HW131131   1.158   3.809   7.698
 7044SOL    HW231132   1.148   3.964   7.647
 7045SOL     OW31133   5.474   4.302   6.176
 7045SOL    HW131134   5.383   4.291   6.136
 7045SOL    HW231135   5.467   4.341   6.268
 7046SOL     OW31136   1.274   2.451   4.920
 7046SOL    HW131137   1.352   2.486   4.971
 7046SOL    HW231138   1.305   2.407   4.835
 7047SOL     OW31139   4.969   3.427   6.581
 7047SOL    HW131140   4.954   3.488   6.659
 7047SOL    HW231141   4.886   3.374   6.563
 7048SOL     OW31142   7.505   0.229   5.328
 7048SOL    HW131143   7.584   0.204   5.272
 7048SOL    HW231144   7.491   0.161   5.400
 7049SOL     OW31145   7.033   5.622   5.372
 7049SOL    HW131146   7.026   5.651   5.468
 7049SOL    HW231147   6.943   5.626   5.329
 7050SOL     OW31148   3.728   0.750   0.605
 7050SOL    HW131149   3.656   0.804   0.648
 7050SOL    HW231150   3.707   0.733   0.509
 7051SOL     OW31151   3.032   3.156   7.015
 7051SOL    HW131152   3.052   3.089   7.086
 7051SOL    HW231153   3.110   3.166   6.954
 7052SOL     OW31154   1.414   5.347   3.181
 7052SOL    HW131155   1.488   5.402   3.221
 7052SOL    HW231156   1.408   5.363   3.083
 7053SOL     OW31157   4.090   2.361   0.507
 7053SOL    HW131158   4.047   2.364   0.597
 7053SOL    HW231159   4.037   2.304   0.445
 7054SOL     OW31160   1.930   5.105   3.623
 7054SOL    HW131161   1.884   5.065   3.544
 7054SOL    HW231162   1.938   5.038   3.696
 7055SOL     OW31163   1.196   1.683   1.617
 7055SOL    HW131164   1.207   1.696   1.716
 7055SOL    HW231165   1.155   1.765   1.576
 7056SOL     OW31166   3.373   4.335   4.381
 7056SOL    HW131167   3.327   4.288   4.306
 7056SOL    HW231168   3.339   4.429   4.388
 7057SOL     OW31169   7.480   1.404   6.558
 7057SOL    HW131170   7.505   1.311   6.531
 7057SOL    HW231171   7.559   1.464   6.552
 7058SOL     OW31172   5.099   6.756   3.782
 7058SOL    HW131173   5.088   6.842   3.831
 7058SOL    HW231174   5.065   6.766   3.688
 7059SOL     OW31175   6.517   4.595   3.994
 7059SOL    HW131176   6.568   4.525   3.945
 7059SOL    HW231177   6.546   4.598   4.089
 7060SOL     OW31178   3.875   6.268   3.451
 7060SOL    HW131179   3.965   6.226   3.446
 7060SOL    HW231180   3.808   6.214   3.401
 7061SOL     OW31181   3.047   0.632   1.206
 7061SOL    HW131182   3.023   0.716   1.157
 7061SOL    HW231183   3.141   0.638   1.240
 7062SOL     OW31184   4.479   1.623   4.967
 7062SOL    HW131185   4.460   1.552   5.035
 7062SOL    HW231186   4.577   1.632   4.953
 7063SOL     OW31187   3.980   5.869   2.345
 7063SOL    HW131188   3.992   5.774   2.371
 7063SOL    HW231189   4.042   5.927   2.398
 7064SOL     OW31190   2.015   2.794   7.833
 7064SOL    HW131191   1.954   2.872   7.821
 7064SOL    HW231192   2.010   2.733   7.753
 7065SOL     OW31193   2.500   7.829   5.203
 7065SOL    HW131194   2.587   7.789   5.233
 7065SOL    HW231195   2.518   7.902   5.137
 7066SOL     OW31196   3.976   5.357   4.577
 7066SOL    HW131197   4.067   5.327   4.604
 7066SOL    HW231198   3.974   5.381   4.480
 7067SOL     OW31199   0.689   1.341   4.707
 7067SOL    HW131200   0.610   1.360   4.764
 7067SOL    HW231201   0.660   1.319   4.614
 7068SOL     OW31202   5.644   0.808   6.489
 7068SOL    HW131203   5.586   0.727   6.502
 7068SOL    HW231204   5.642   0.865   6.571
 7069SOL     OW31205   3.459   4.055   3.443
 7069SOL    HW131206   3.512   4.077   3.361
 7069SOL    HW231207   3.389   4.125   3.458
 7070SOL     OW31208   2.633   0.419   6.890
 7070SOL    HW131209   2.629   0.323   6.920
 7070SOL    HW231210   2.622   0.424   6.791
 7071SOL     OW31211   0.527   1.515   4.368
 7071SOL    HW131212   0.443   1.461   4.354
 7071SOL    HW231213   0.585   1.509   4.287
 7072SOL     OW31214   6.310   0.315   0.630
 7072SOL    HW131215   6.256   0.399   0.641
 7072SOL    HW231216   6.256   0.236   0.658
 7073SOL     OW31217   7.665   2.990   1.606
 7073SOL    HW131218   7.671   2.916   1.539
 7073SOL    HW231219   7.665   2.953   1.699
 7074SOL     OW31220   7.455   2.948   3.272
 7074SOL    HW131221   7.410   2.869   3.314
 7074SOL    HW231222   7.433   3.032   3.322
 7075SOL     OW31223   0.964   4.018   3.413
 7075SOL    HW131224   0.942   4.024   3.510
 7075SOL    HW231225   0.882   3.993   3.360
 7076SOL     OW31226   5.599   2.665   3.735
 7076SOL    HW131227   5.535   2.589   3.744
 7076SOL    HW231228   5.585   2.731   3.809
 7077SOL     OW31229   3.488   6.454   4.601
 7077SOL    HW131230   3.429   6.398   4.659
 7077SOL    HW231231   3.574   6.406   4.582
 7078SOL     OW31232   2.981   5.864   2.961
 7078SOL    HW131233   2.949   5.801   2.890
 7078SOL    HW231234   2.934   5.845   3.047
 7079SOL     OW31235   1.363   5.476   4.919
 7079SOL    HW131236   1.351   5.378   4.900
 7079SOL    HW231237   1.346   5.495   5.015
 7080SOL     OW31238   0.455   6.937   1.613
 7080SOL    HW131239   0.385   7.001   1.582
 7080SOL    HW231240   0.485   6.962   1.705
 7081SOL     OW31241   5.086   7.564   0.864
 7081SOL    HW131242   5.025   7.491   0.833
 7081SOL    HW231243   5.064   7.589   0.958
 7082SOL     OW31244   0.789   1.260   6.450
 7082SOL    HW131245   0.784   1.284   6.548
 7082SOL    HW231246   0.735   1.325   6.396
 7083SOL     OW31247   4.584   0.885   5.694
 7083SOL    HW131248   4.562   0.934   5.779
 7083SOL    HW231249   4.503   0.883   5.634
 7084SOL     OW31250   0.924   1.924   3.673
 7084SOL    HW131251   1.016   1.940   3.638
 7084SOL    HW231252   0.925   1.852   3.743
 7085SOL     OW31253   6.032   2.729   5.049
 7085SOL    HW131254   6.028   2.707   4.952
 7085SOL    HW231255   5.940   2.751   5.083
 7086SOL     OW31256   3.841   6.653   1.402
 7086SOL    HW131257   3.830   6.704   1.317
 7086SOL    HW231258   3.874   6.560   1.383
 7087SOL     OW31259   2.771   1.469   2.893
 7087SOL    HW131260   2.725   1.380   2.886
 7087SOL    HW231261   2.870   1.457   2.887
 7088SOL     OW31262   4.853   2.093   5.968
 7088SOL    HW131263   4.789   2.059   6.037
 7088SOL    HW231264   4.834   2.049   5.880
 7089SOL     OW31265   0.240   7.887   2.501
 7089SOL    HW131266   0.165   7.823   2.485
 7089SOL    HW231267   0.275   7.876   2.594
 7090SOL     OW31268   6.829   6.646   4.584
 7090SOL    HW131269   6.903   6.588   4.550
 7090SOL    HW231270   6.799   6.614   4.674
 7091SOL     OW31271   3.566   7.663   6.516
 7091SOL    HW131272   3.505   7.730   6.560
 7091SOL    HW231273   3.579   7.584   6.576
 7092SOL     OW31274   1.984   4.693   6.080
 7092SOL    HW131275   1.926   4.750   6.138
 7092SOL    HW231276   1.968   4.714   5.984
 7093SOL     OW31277   2.545   5.499   7.186
 7093SOL    HW131278   2.526   5.536   7.094
 7093SOL    HW231279   2.639   5.465   7.189
 7094SOL     OW31280   2.773   6.955   2.507
 7094SOL    HW131281   2.834   6.884   2.541
 7094SOL    HW231282   2.773   6.956   2.407
 7095SOL     OW31283   2.794   4.801   5.219
 7095SOL    HW131284   2.727   4.767   5.153
 7095SOL    HW231285   2.750   4.815   5.308
 7096SOL     OW31286   7.314   3.147   5.710
 7096SOL    HW131287   7.250   3.070   5.716
 7096SOL    HW231288   7.300   3.197   5.625
 7097SOL     OW31289   5.992   7.269   0.533
 7097SOL    HW131290   6.075   7.265   0.477
 7097SOL    HW231291   5.912   7.284   0.475
 7098SOL     OW31292   2.921   0.371   0.570
 7098SOL    HW131293   2.911   0.283   0.617
 7098SOL    HW231294   2.985   0.362   0.494
 7099SOL     OW31295   6.575   2.980   4.427
 7099SOL    HW131296   6.484   2.991   4.388
 7099SOL    HW231297   6.573   2.998   4.525
 7100SOL     OW31298   3.630   6.111   7.940
 7100SOL    HW131299   3.725   6.085   7.955
 7100SOL    HW231300   3.574   6.084   8.018
 7101SOL     OW31301   3.372   5.177   4.617
 7101SOL    HW131302   3.361   5.268   4.659
 7101SOL    HW231303   3.338   5.179   4.523
 7102SOL     OW31304   2.022   0.956   2.940
 7102SOL    HW131305   2.004   0.865   2.978
 7102SOL    HW231306   2.063   0.947   2.849
 7103SOL     OW31307   1.352   0.624   0.841
 7103SOL    HW131308   1.353   0.723   0.828
 7103SOL    HW231309   1.285   0.600   0.911
 7104SOL     OW31310   5.701   6.320   5.839
 7104SOL    HW131311   5.749   6.327   5.926
 7104SOL    HW231312   5.654   6.232   5.832
 7105SOL     OW31313   6.961   4.343   4.704
 7105SOL    HW131314   6.893   4.270   4.712
 7105SOL    HW231315   6.931   4.424   4.754
 7106SOL     OW31316   0.936   0.595   7.074
 7106SOL    HW131317   0.896   0.685   7.091
 7106SOL    HW231318   0.995   0.598   6.994
 7107SOL     OW31319   3.794   3.809   7.120
 7107SOL    HW131320   3.859   3.864   7.067
 7107SOL    HW231321   3.701   3.821   7.084
 7108SOL     OW31322   4.202   7.872   4.849
 7108SOL    HW131323   4.112   7.909   4.873
 7108SOL    HW231324   4.274   7.935   4.877
 7109SOL     OW31325   6.874   5.444   0.303
 7109SOL    HW131326   6.895   5.512   0.374
 7109SOL    HW231327   6.960   5.407   0.267
 7110SOL     OW31328   2.494   7.115   4.432
 7110SOL    HW131329   2.550   7.050   4.483
 7110SOL    HW231330   2.548   7.156   4.358
 7111SOL     OW31331   6.538   3.428   2.344
 7111SOL    HW131332   6.590   3.503   2.304
 7111SOL    HW231333   6.521   3.446   2.441
 7112SOL     OW31334   0.467   1.961   0.766
 7112SOL    HW131335   0.563   1.976   0.744
 7112SOL    HW231336   0.452   1.963   0.864
 7113SOL     OW31337   5.298   5.122   3.470
 7113SOL    HW131338   5.369   5.191   3.456
 7113SOL    HW231339   5.334   5.046   3.524
 7114SOL     OW31340   5.030   0.720   3.953
 7114SOL    HW131341   5.029   0.639   4.011
 7114SOL    HW231342   4.966   0.709   3.877
 7115SOL     OW31343   5.654   6.167   5.405
 7115SOL    HW131344   5.595   6.116   5.467
 7115SOL    HW231345   5.741   6.119   5.393
 7116SOL     OW31346   3.157   1.258   4.884
 7116SOL    HW131347   3.176   1.164   4.914
 7116SOL    HW231348   3.149   1.261   4.785
 7117SOL     OW31349   6.235   4.132   3.147
 7117SOL    HW131350   6.165   4.199   3.172
 7117SOL    HW231351   6.220   4.100   3.053
 7118SOL     OW31352   1.690   7.063   5.835
 7118SOL    HW131353   1.736   7.027   5.754
 7118SOL    HW231354   1.717   7.158   5.851
 7119SOL     OW31355   7.022   1.849   0.279
 7119SOL    HW131356   6.937   1.886   0.242
 7119SOL    HW231357   7.069   1.920   0.332
 7120SOL     OW31358   4.746   7.048   0.441
 7120SOL    HW131359   4.772   7.003   0.526
 7120SOL    HW231360   4.656   7.090   0.450
 7121SOL     OW31361   7.753   6.158   6.435
 7121SOL    HW131362   7.844   6.146   6.396
 7121SOL    HW231363   7.738   6.091   6.508
 7122SOL     OW31364   5.430   1.798   0.047
 7122SOL    HW131365   5.441   1.798   0.147
 7122SOL    HW231366   5.383   1.715   0.018
 7123SOL     OW31367   7.821   2.909   3.725
 7123SOL    HW131368   7.851   2.937   3.817
 7123SOL    HW231369   7.894   2.860   3.679
 7124SOL     OW31370   0.854   7.960   7.905
 7124SOL    HW131371   0.754   7.960   7.904
 7124SOL    HW231372   0.887   7.947   7.998
 7125SOL     OW31373   0.757   1.688   2.482
 7125SOL    HW131374   0.727   1.753   2.553
 7125SOL    HW231375   0.679   1.635   2.450
 7126SOL     OW31376   2.428   4.003   6.789
 7126SOL    HW131377   2.422   3.903   6.785
 7126SOL    HW231378   2.408   4.042   6.699
 7127SOL     OW31379   4.043   3.836   3.030
 7127SOL    HW131380   3.950   3.862   3.002
 7127SOL    HW231381   4.068   3.885   3.113
 7128SOL     OW31382   6.339   4.564   3.709
 7128SOL    HW131383   6.372   4.643   3.657
 7128SOL    HW231384   6.392   4.552   3.792
 7129SOL     OW31385   7.699   4.112   3.957
 7129SOL    HW131386   7.662   4.025   3.989
 7129SOL    HW231387   7.743   4.099   3.868
 7130SOL     OW31388   4.301   3.480   2.288
 7130SOL    HW131389   4.284   3.548   2.216
 7130SOL    HW231390   4.235   3.492   2.362
 7131SOL     OW31391   1.416   3.536   2.663
 7131SOL    HW131392   1.378   3.615   2.617
 7131SOL    HW231393   1.343   3.480   2.702
 7132SOL     OW31394   2.564   4.791   5.553
 7132SOL    HW131395   2.622   4.808   5.633
 7132SOL    HW231396   2.619   4.753   5.478
 7133SOL     OW31397   0.566   5.961   0.458
 7133SOL    HW131398   0.612   6.042   0.495
 7133SOL    HW231399   0.508   5.988   0.381
 7134SOL     OW31400   2.095   2.584   3.374
 7134SOL    HW131401   2.162   2.512   3.391
 7134SOL    HW231402   2.003   2.547   3.373
 7135SOL     OW31403   6.176   3.753   3.330
 7135SOL    HW131404   6.144   3.664   3.361
 7135SOL    HW231405   6.273   3.748   3.307
 7136SOL     OW31406   6.862   4.956   6.227
 7136SOL    HW131407   6.943   4.938   6.171
 7136SOL    HW231408   6.880   4.930   6.322
 7137SOL     OW31409   1.552   6.949   0.658
 7137SOL    HW131410   1.519   7.038   0.691
 7137SOL    HW231411   1.516   6.932   0.566
 7138SOL     OW31412   6.609   5.565   2.247
 7138SOL    HW131413   6.536   5.539   2.310
 7138SOL    HW231414   6.693   5.514   2.268
 7139SOL     OW31415   3.533   2.788   4.614
 7139SOL    HW131416   3.440   2.759   4.594
 7139SOL    HW231417   3.536   2.833   4.703
 7140SOL     OW31418   6.499   4.762   6.605
 7140SOL    HW131419   6.578   4.719   6.647
 7140SOL    HW231420   6.416   4.710   6.626
 7141SOL     OW31421   2.020   7.108   4.581
 7141SOL    HW131422   2.044   7.115   4.678
 7141SOL    HW231423   1.966   7.025   4.565
 7142SOL     OW31424   1.295   2.027   1.483
 7142SOL    HW131425   1.313   1.946   1.540
 7142SOL    HW231426   1.333   2.014   1.391
 7143SOL     OW31427   3.420   4.570   0.993
 7143SOL    HW131428   3.395   4.649   0.938
 7143SOL    HW231429   3.449   4.600   1.084
 7144SOL     OW31430   4.112   5.001   2.000
 7144SOL    HW131431   4.039   4.984   1.934
 7144SOL    HW231432   4.082   4.974   2.091
 7145SOL     OW31433   0.800   5.788   4.978
 7145SOL    HW131434   0.708   5.819   5.001
 7145SOL    HW231435   0.797   5.727   4.899
 7146SOL     OW31436   4.681   4.747   0.237
 7146SOL    HW131437   4.605   4.732   0.301
 7146SOL    HW231438   4.676   4.681   0.162
 7147SOL     OW31439   4.677   5.736   3.617
 7147SOL    HW131440   4.730   5.785   3.686
 7147SOL    HW231441   4.651   5.799   3.543
 7148SOL     OW31442   1.240   4.221   1.308
 7148SOL    HW131443   1.196   4.258   1.226
 7148SOL    HW231444   1.178   4.160   1.356
 7149SOL     OW31445   3.739   5.837   1.170
 7149SOL    HW131446   3.683   5.903   1.121
 7149SOL    HW231447   3.819   5.812   1.114
 7150SOL     OW31448   4.427   2.544   3.452
 7150SOL    HW131449   4.422   2.526   3.550
 7150SOL    HW231450   4.379   2.473   3.401
 7151SOL     OW31451   6.595   0.785   0.779
 7151SOL    HW131452   6.632   0.846   0.709
 7151SOL    HW231453   6.495   0.785   0.774
 7152SOL     OW31454   6.954   7.912   1.175
 7152SOL    HW131455   6.872   7.937   1.226
 7152SOL    HW231456   6.986   7.989   1.121
 7153SOL     OW31457   3.611   3.560   4.105
 7153SOL    HW131458   3.537   3.492   4.101
 7153SOL    HW231459   3.603   3.615   4.188
 7154SOL     OW31460   3.497   5.796   0.114
 7154SOL    HW131461   3.482   5.767   0.019
 7154SOL    HW231462   3.594   5.789   0.136
 7155SOL     OW31463   0.955   4.778   0.906
 7155SOL    HW131464   0.904   4.857   0.939
 7155SOL    HW231465   1.015   4.744   0.979
 7156SOL     OW31466   7.108   4.381   7.103
 7156SOL    HW131467   7.173   4.442   7.147
 7156SOL    HW231468   7.018   4.424   7.099
 7157SOL     OW31469   5.112   6.415   0.161
 7157SOL    HW131470   5.109   6.515   0.154
 7157SOL    HW231471   5.090   6.374   0.073
 7158SOL     OW31472   5.232   7.911   3.639
 7158SOL    HW131473   5.314   7.856   3.626
 7158SOL    HW231474   5.205   7.911   3.735
 7159SOL     OW31475   0.975   3.604   7.705
 7159SOL    HW131476   0.944   3.695   7.735
 7159SOL    HW231477   1.063   3.582   7.746
 7160SOL     OW31478   2.994   7.537   3.448
 7160SOL    HW131479   2.986   7.451   3.397
 7160SOL    HW231480   3.090   7.565   3.452
 7161SOL     OW31481   0.023   3.142   0.755
 7161SOL    HW131482  -0.045   3.193   0.809
 7161SOL    HW231483  -0.023   3.075   0.697
 7162SOL     OW31484   1.221   0.686   0.259
 7162SOL    HW131485   1.177   0.741   0.330
 7162SOL    HW231486   1.185   0.713   0.169
 7163SOL     OW31487   4.832   6.303   6.886
 7163SOL    HW131488   4.914   6.247   6.894
 7163SOL    HW231489   4.766   6.278   6.957
 7164SOL     OW31490   6.076  -0.012   0.409
 7164SOL    HW131491   6.048   0.025   0.320
 7164SOL    HW231492   6.078   0.062   0.476
 7165SOL     OW31493   0.272   0.830   2.836
 7165SOL    HW131494   0.245   0.910   2.890
 7165SOL    HW231495   0.275   0.749   2.895
 7166SOL     OW31496   3.568   7.739   5.398
 7166SOL    HW131497   3.663   7.762   5.381
 7166SOL    HW231498   3.512   7.763   5.319
 7167SOL     OW31499   3.925   5.429   3.313
 7167SOL    HW131500   3.917   5.401   3.217
 7167SOL    HW231501   3.981   5.363   3.363
 7168SOL     OW31502   1.855   5.152   7.596
 7168SOL    HW131503   1.903   5.220   7.652
 7168SOL    HW231504   1.814   5.197   7.516
 7169SOL     OW31505   2.854   4.810   4.919
 7169SOL    HW131506   2.767   4.776   4.884
 7169SOL    HW231507   2.839   4.872   4.996
 7170SOL     OW31508   3.112   6.753   3.570
 7170SOL    HW131509   3.038   6.808   3.532
 7170SOL    HW231510   3.135   6.785   3.662
 7171SOL     OW31511   1.731   4.186   2.849
 7171SOL    HW131512   1.667   4.108   2.847
 7171SOL    HW231513   1.753   4.214   2.755
 7172SOL     OW31514  -0.046   1.466   6.423
 7172SOL    HW131515   0.018   1.461   6.346
 7172SOL    HW231516  -0.030   1.549   6.476
 7173SOL     OW31517   5.317   6.254   5.791
 7173SOL    HW131518   5.327   6.354   5.788
 7173SOL    HW231519   5.275   6.227   5.877
 7174SOL     OW31520   7.202   7.899   2.735
 7174SOL    HW131521   7.286   7.924   2.783
 7174SOL    HW231522   7.189   7.959   2.656
 7175SOL     OW31523   3.455   0.778   4.051
 7175SOL    HW131524   3.378   0.714   4.049
 7175SOL    HW231525   3.505   0.774   3.964
 7176SOL     OW31526   2.819   2.827   1.616
 7176SOL    HW131527   2.837   2.835   1.518
 7176SOL    HW231528   2.728   2.788   1.631
 7177SOL     OW31529   4.782   1.754   0.888
 7177SOL    HW131530   4.694   1.779   0.847
 7177SOL    HW231531   4.847   1.729   0.816
 7178SOL     OW31532   0.341   6.600   6.866
 7178SOL    HW131533   0.284   6.665   6.814
 7178SOL    HW231534   0.372   6.526   6.807
 7179SOL     OW31535   2.528   6.257   5.663
 7179SOL    HW131536   2.440   6.210   5.664
 7179SOL    HW231537   2.587   6.219   5.592
 7180SOL     OW31538   0.594   0.949   2.597
 7180SOL    HW131539   0.528   1.005   2.647
 7180SOL    HW231540   0.636   1.004   2.524
 7181SOL     OW31541   0.236   4.600   7.558
 7181SOL    HW131542   0.333   4.612   7.579
 7181SOL    HW231543   0.218   4.635   7.466
 7182SOL     OW31544   0.690   2.636   4.495
 7182SOL    HW131545   0.641   2.572   4.554
 7182SOL    HW231546   0.711   2.720   4.546
 7183SOL     OW31547   4.407   0.968   4.433
 7183SOL    HW131548   4.492   0.923   4.405
 7183SOL    HW231549   4.381   0.937   4.524
 7184SOL     OW31550   5.018   2.528   2.383
 7184SOL    HW131551   5.013   2.453   2.316
 7184SOL    HW231552   4.958   2.603   2.356
 7185SOL     OW31553   4.635   2.933   4.675
 7185SOL    HW131554   4.632   2.939   4.576
 7185SOL    HW231555   4.544   2.947   4.714
 7186SOL     OW31556   4.002   0.756   3.582
 7186SOL    HW131557   4.036   0.675   3.631
 7186SOL    HW231558   4.025   0.748   3.485
 7187SOL     OW31559   7.243   1.274   6.402
 7187SOL    HW131560   7.333   1.288   6.360
 7187SOL    HW231561   7.204   1.362   6.430
 7188SOL     OW31562   7.872   6.782   5.173
 7188SOL    HW131563   7.873   6.682   5.164
 7188SOL    HW231564   7.831   6.808   5.260
 7189SOL     OW31565   2.916   0.762   4.369
 7189SOL    HW131566   2.868   0.809   4.295
 7189SOL    HW231567   2.993   0.710   4.332
 7190SOL     OW31568   7.877   4.996   2.692
 7190SOL    HW131569   7.789   4.995   2.644
 7190SOL    HW231570   7.920   5.085   2.683
 7191SOL     OW31571   7.490   6.242   2.399
 7191SOL    HW131572   7.534   6.227   2.488
 7191SOL    HW231573   7.393   6.262   2.413
 7192SOL     OW31574   1.999   7.563   0.806
 7192SOL    HW131575   2.083   7.563   0.751
 7192SOL    HW231576   2.018   7.526   0.897
 7193SOL     OW31577   2.018   2.138   2.495
 7193SOL    HW131578   2.038   2.048   2.455
 7193SOL    HW231579   2.034   2.136   2.594
 7194SOL     OW31580   2.574   0.312   2.303
 7194SOL    HW131581   2.619   0.295   2.391
 7194SOL    HW231582   2.487   0.263   2.299
 7195SOL     OW31583   2.985   7.130   2.362
 7195SOL    HW131584   2.886   7.141   2.369
 7195SOL    HW231585   3.029   7.164   2.446
 7196SOL     OW31586   1.340   7.492   7.003
 7196SOL    HW131587   1.388   7.578   6.986
 7196SOL    HW231588   1.368   7.424   6.936
 7197SOL     OW31589   5.702   6.489   5.459
 7197SOL    HW131590   5.690   6.475   5.558
 7197SOL    HW231591   5.715   6.587   5.441
 7198SOL     OW31592   4.972   2.337   6.834
 7198SOL    HW131593   5.012   2.417   6.880
 7198SOL    HW231594   4.959   2.263   6.899
 7199SOL     OW31595   0.316   2.871   1.412
 7199SOL    HW131596   0.273   2.786   1.441
 7199SOL    HW231597   0.363   2.858   1.325
 7200SOL     OW31598   7.851   2.848   0.509
 7200SOL    HW131599   7.944   2.856   0.546
 7200SOL    HW231600   7.847   2.885   0.417
 7201SOL     OW31601   5.519   3.230   6.734
 7201SOL    HW131602   5.594   3.295   6.741
 7201SOL    HW231603   5.432   3.278   6.724
 7202SOL     OW31604   7.539   0.932   4.949
 7202SOL    HW131605   7.616   0.956   5.007
 7202SOL    HW231606   7.545   0.981   4.862
 7203SOL     OW31607   3.291   4.557   2.717
 7203SOL    HW131608   3.225   4.614   2.669
 7203SOL    HW231609   3.270   4.554   2.814
 7204SOL     OW31610   6.244   0.005   3.237
 7204SOL    HW131611   6.187   0.073   3.190
 7204SOL    HW231612   6.341   0.023   3.219
 7205SOL     OW31613   1.883   5.710   0.944
 7205SOL    HW131614   1.916   5.636   1.002
 7205SOL    HW231615   1.851   5.787   1.000
 7206SOL     OW31616   5.778   0.564   1.101
 7206SOL    HW131617   5.846   0.514   1.048
 7206SOL    HW231618   5.777   0.531   1.196
 7207SOL     OW31619   7.163   3.876   7.270
 7207SOL    HW131620   7.119   3.845   7.186
 7207SOL    HW231621   7.244   3.932   7.247
 7208SOL     OW31622   7.543   5.849   2.186
 7208SOL    HW131623   7.479   5.876   2.258
 7208SOL    HW231624   7.528   5.754   2.160
 7209SOL     OW31625   2.983   7.143   0.114
 7209SOL    HW131626   3.017   7.060   0.159
 7209SOL    HW231627   3.002   7.139   0.016
 7210SOL     OW31628   3.008   2.080   4.685
 7210SOL    HW131629   3.086   2.108   4.629
 7210SOL    HW231630   3.041   2.036   4.769
 7211SOL     OW31631   5.512   5.080   3.107
 7211SOL    HW131632   5.442   5.148   3.084
 7211SOL    HW231633   5.582   5.122   3.165
 7212SOL     OW31634   1.980   0.704   0.703
 7212SOL    HW131635   2.079   0.721   0.696
 7212SOL    HW231636   1.960   0.657   0.788
 7213SOL     OW31637   4.021   0.454   1.556
 7213SOL    HW131638   4.063   0.418   1.640
 7213SOL    HW231639   3.939   0.402   1.534
 7214SOL     OW31640   6.039   1.159   7.887
 7214SOL    HW131641   5.961   1.107   7.923
 7214SOL    HW231642   6.082   1.108   7.812
 7215SOL     OW31643   4.241   2.838   6.522
 7215SOL    HW131644   4.188   2.787   6.589
 7215SOL    HW231645   4.180   2.888   6.461
 7216SOL     OW31646   5.704   3.118   7.709
 7216SOL    HW131647   5.786   3.131   7.653
 7216SOL    HW231648   5.668   3.026   7.697
 7217SOL     OW31649   1.320   1.765   2.609
 7217SOL    HW131650   1.235   1.789   2.562
 7217SOL    HW231651   1.363   1.847   2.645
 7218SOL     OW31652   5.379   4.485   6.689
 7218SOL    HW131653   5.285   4.449   6.689
 7218SOL    HW231654   5.412   4.493   6.783
 7219SOL     OW31655   1.605   3.858   2.916
 7219SOL    HW131656   1.520   3.899   2.950
 7219SOL    HW231657   1.616   3.877   2.818
 7220SOL     OW31658   4.862   6.298   0.218
 7220SOL    HW131659   4.910   6.347   0.291
 7220SOL    HW231660   4.879   6.342   0.130
 7221SOL     OW31661   6.501   3.575   6.071
 7221SOL    HW131662   6.448   3.577   5.986
 7221SOL    HW231663   6.571   3.646   6.070
 7222SOL     OW31664   2.323   3.914   2.445
 7222SOL    HW131665   2.402   3.877   2.495
 7222SOL    HW231666   2.351   3.937   2.351
 7223SOL     OW31667   6.709   4.345   0.987
 7223SOL    HW131668   6.668   4.290   1.061
 7223SOL    HW231669   6.773   4.289   0.934
 7224SOL     OW31670   6.702   2.800   2.042
 7224SOL    HW131671   6.655   2.883   2.073
 7224SOL    HW231672   6.787   2.788   2.095
 7225SOL     OW31673   3.105   7.376   5.689
 7225SOL    HW131674   3.060   7.465   5.701
 7225SOL    HW231675   3.186   7.387   5.633
 7226SOL     OW31676   4.446   2.210   3.577
 7226SOL    HW131677   4.463   2.133   3.516
 7226SOL    HW231678   4.506   2.287   3.552
 7227SOL     OW31679   2.932   4.621   3.487
 7227SOL    HW131680   3.018   4.588   3.528
 7227SOL    HW231681   2.949   4.706   3.436
 7228SOL     OW31682   3.600   5.960   4.871
 7228SOL    HW131683   3.511   6.000   4.893
 7228SOL    HW231684   3.632   5.905   4.948
 7229SOL     OW31685   4.214   0.455   6.273
 7229SOL    HW131686   4.171   0.438   6.185
 7229SOL    HW231687   4.216   0.553   6.292
 7230SOL     OW31688   6.954   0.742   4.104
 7230SOL    HW131689   7.019   0.689   4.158
 7230SOL    HW231690   6.943   0.700   4.014
 7231SOL     OW31691   0.936   0.391   6.891
 7231SOL    HW131692   0.889   0.470   6.850
 7231SOL    HW231693   0.880   0.309   6.880
 7232SOL     OW31694   1.824   5.153   5.026
 7232SOL    HW131695   1.862   5.081   5.084
 7232SOL    HW231696   1.873   5.155   4.939
 7233SOL     OW31697   3.119   7.414   2.963
 7233SOL    HW131698   3.205   7.386   2.922
 7233SOL    HW231699   3.114   7.382   3.058
 7234SOL     OW31700   5.299   5.096   6.095
 7234SOL    HW131701   5.230   5.055   6.155
 7234SOL    HW231702   5.266   5.184   6.062
 7235SOL     OW31703   6.093   0.324   6.279
 7235SOL    HW131704   6.110   0.416   6.244
 7235SOL    HW231705   6.010   0.287   6.237
 7236SOL     OW31706   7.917   1.967   6.877
 7236SOL    HW131707   7.949   2.045   6.931
 7236SOL    HW231708   7.869   1.901   6.935
 7237SOL     OW31709   3.786   4.177   1.488
 7237SOL    HW131710   3.831   4.129   1.565
 7237SOL    HW231711   3.853   4.196   1.417
 7238SOL     OW31712   0.237   7.195   5.884
 7238SOL    HW131713   0.264   7.289   5.863
 7238SOL    HW231714   0.288   7.131   5.827
 7239SOL     OW31715   4.403   5.714   4.089
 7239SOL    HW131716   4.307   5.717   4.117
 7239SOL    HW231717   4.413   5.656   4.008
 7240SOL     OW31718   0.063   6.364   6.480
 7240SOL    HW131719  -0.030   6.343   6.508
 7240SOL    HW231720   0.114   6.279   6.464
 7241SOL     OW31721   0.463   5.413   0.966
 7241SOL    HW131722   0.443   5.422   0.869
 7241SOL    HW231723   0.539   5.348   0.979
 7242SOL     OW31724   5.922   2.025   4.056
 7242SOL    HW131725   5.967   1.936   4.066
 7242SOL    HW231726   5.839   2.016   4.002
 7243SOL     OW31727   3.358   4.939   3.766
 7243SOL    HW131728   3.357   5.027   3.813
 7243SOL    HW231729   3.451   4.903   3.764
 7244SOL     OW31730   6.417   3.833   3.971
 7244SOL    HW131731   6.347   3.764   3.951
 7244SOL    HW231732   6.403   3.869   4.064
 7245SOL     OW31733   7.414   5.002   7.278
 7245SOL    HW131734   7.418   5.032   7.183
 7245SOL    HW231735   7.390   5.079   7.337
 7246SOL     OW31736   6.269   3.103   1.272
 7246SOL    HW131737   6.345   3.054   1.230
 7246SOL    HW231738   6.257   3.192   1.228
 7247SOL     OW31739   5.440   4.520   7.565
 7247SOL    HW131740   5.401   4.597   7.615
 7247SOL    HW231741   5.403   4.518   7.472
 7248SOL     OW31742   6.247   5.372   3.320
 7248SOL    HW131743   6.258   5.276   3.290
 7248SOL    HW231744   6.202   5.374   3.409
 7249SOL     OW31745   7.857   0.321   0.785
 7249SOL    HW131746   7.769   0.364   0.765
 7249SOL    HW231747   7.868   0.310   0.884
 7250SOL     OW31748   4.376   7.215   4.404
 7250SOL    HW131749   4.382   7.154   4.325
 7250SOL    HW231750   4.463   7.216   4.453
 7251SOL     OW31751   3.836   1.287   3.175
 7251SOL    HW131752   3.759   1.283   3.111
 7251SOL    HW231753   3.817   1.233   3.256
 7252SOL     OW31754   1.536   6.713   7.629
 7252SOL    HW131755   1.491   6.631   7.667
 7252SOL    HW231756   1.573   6.693   7.539
 7253SOL     OW31757   3.327   2.384   5.988
 7253SOL    HW131758   3.307   2.403   5.891
 7253SOL    HW231759   3.415   2.337   5.996
 7254SOL     OW31760   7.772   5.300   2.080
 7254SOL    HW131761   7.862   5.330   2.113
 7254SOL    HW231762   7.727   5.246   2.151
 7255SOL     OW31763   5.853   6.682   5.757
 7255SOL    HW131764   5.858   6.776   5.791
 7255SOL    HW231765   5.816   6.681   5.664
 7256SOL     OW31766   4.866   5.985   0.577
 7256SOL    HW131767   4.906   6.074   0.600
 7256SOL    HW231768   4.798   5.959   0.645
 7257SOL     OW31769   3.001   2.190   5.408
 7257SOL    HW131770   3.035   2.281   5.431
 7257SOL    HW231771   2.977   2.141   5.492
 7258SOL     OW31772   4.467   4.523   4.690
 7258SOL    HW131773   4.496   4.430   4.667
 7258SOL    HW231774   4.431   4.526   4.783
 7259SOL     OW31775   2.292   2.574   1.738
 7259SOL    HW131776   2.352   2.548   1.813
 7259SOL    HW231777   2.221   2.636   1.771
 7260SOL     OW31778   3.748   3.484   0.712
 7260SOL    HW131779   3.712   3.459   0.622
 7260SOL    HW231780   3.727   3.580   0.732
 7261SOL     OW31781   4.352   6.327   3.309
 7261SOL    HW131782   4.438   6.293   3.349
 7261SOL    HW231783   4.371   6.378   3.225
 7262SOL     OW31784   4.313   2.612   2.376
 7262SOL    HW131785   4.260   2.613   2.291
 7262SOL    HW231786   4.375   2.690   2.379
 7263SOL     OW31787   5.086   4.588   6.117
 7263SOL    HW131788   5.080   4.684   6.145
 7263SOL    HW231789   5.182   4.560   6.112
 7264SOL     OW31790   1.851   7.165   4.842
 7264SOL    HW131791   1.825   7.136   4.750
 7264SOL    HW231792   1.911   7.097   4.883
 7265SOL     OW31793   3.945   1.194   2.621
 7265SOL    HW131794   3.940   1.246   2.536
 7265SOL    HW231795   3.934   1.096   2.602
 7266SOL     OW31796   2.556   7.658   0.569
 7266SOL    HW131797   2.476   7.639   0.626
 7266SOL    HW231798   2.553   7.599   0.487
 7267SOL     OW31799   4.521   3.792   2.912
 7267SOL    HW131800   4.545   3.865   2.976
 7267SOL    HW231801   4.600   3.767   2.857
 7268SOL     OW31802   3.045   6.875   6.265
 7268SOL    HW131803   3.038   6.778   6.289
 7268SOL    HW231804   3.090   6.886   6.176
 7269SOL     OW31805   5.960   4.339   0.086
 7269SOL    HW131806   5.966   4.385   0.174
 7269SOL    HW231807   6.051   4.322   0.049
 7270SOL     OW31808   7.861   2.523   3.526
 7270SOL    HW131809   7.919   2.583   3.581
 7270SOL    HW231810   7.813   2.458   3.586
 7271SOL     OW31811   0.797   7.823   6.818
 7271SOL    HW131812   0.848   7.878   6.885
 7271SOL    HW231813   0.796   7.870   6.730
 7272SOL     OW31814   3.299   5.276   7.647
 7272SOL    HW131815   3.370   5.337   7.613
 7272SOL    HW231816   3.320   5.248   7.740
 7273SOL     OW31817   1.484   0.132   7.396
 7273SOL    HW131818   1.502   0.205   7.330
 7273SOL    HW231819   1.569   0.083   7.416
 7274SOL     OW31820   6.899   2.983   6.532
 7274SOL    HW131821   6.916   3.069   6.483
 7274SOL    HW231822   6.811   2.989   6.580
 7275SOL     OW31823   1.476   5.222   5.483
 7275SOL    HW131824   1.384   5.254   5.462
 7275SOL    HW231825   1.497   5.239   5.579
 7276SOL     OW31826   5.551   7.040   0.923
 7276SOL    HW131827   5.527   7.133   0.894
 7276SOL    HW231828   5.552   7.034   1.022
 7277SOL     OW31829   5.928   4.300   0.456
 7277SOL    HW131830   5.983   4.226   0.417
 7277SOL    HW231831   5.894   4.359   0.383
 7278SOL     OW31832   7.919   7.403   4.348
 7278SOL    HW131833   7.913   7.499   4.376
 7278SOL    HW231834   7.954   7.348   4.423
 7279SOL     OW31835   4.956   6.982   2.285
 7279SOL    HW131836   4.970   6.891   2.248
 7279SOL    HW231837   4.942   7.048   2.211
 7280SOL     OW31838   7.165   1.986   7.843
 7280SOL    HW131839   7.122   2.031   7.922
 7280SOL    HW231840   7.191   1.892   7.867
 7281SOL     OW31841   0.063   3.373   0.076
 7281SOL    HW131842  -0.026   3.402   0.040
 7281SOL    HW231843   0.136   3.409   0.018
 7282SOL     OW31844   2.881   0.154   0.112
 7282SOL    HW131845   2.936   0.106   0.043
 7282SOL    HW231846   2.936   0.225   0.157
 7283SOL     OW31847   1.667   5.478   1.868
 7283SOL    HW131848   1.729   5.410   1.907
 7283SOL    HW231849   1.614   5.522   1.941
 7284SOL     OW31850   7.573   0.482   1.577
 7284SOL    HW131851   7.531   0.565   1.541
 7284SOL    HW231852   7.608   0.499   1.670
 7285SOL     OW31853   6.019   7.145   3.137
 7285SOL    HW131854   5.941   7.118   3.082
 7285SOL    HW231855   6.025   7.090   3.220
 7286SOL     OW31856   2.409   0.209   4.625
 7286SOL    HW131857   2.337   0.279   4.632
 7286SOL    HW231858   2.376   0.132   4.570
 7287SOL     OW31859   6.623   5.735   7.781
 7287SOL    HW131860   6.700   5.795   7.765
 7287SOL    HW231861   6.648   5.641   7.758
 7288SOL     OW31862   2.732   5.668   6.719
 7288SOL    HW131863   2.652   5.724   6.702
 7288SOL    HW231864   2.717   5.610   6.800
 7289SOL     OW31865   3.732   5.471   7.112
 7289SOL    HW131866   3.636   5.454   7.136
 7289SOL    HW231867   3.791   5.422   7.175
 7290SOL     OW31868   2.252   4.281   3.227
 7290SOL    HW131869   2.247   4.285   3.327
 7290SOL    HW231870   2.284   4.191   3.199
 7291SOL     OW31871   5.501   3.061   2.938
 7291SOL    HW131872   5.596   3.071   2.969
 7291SOL    HW231873   5.491   3.097   2.845
 7292SOL     OW31874   5.858   4.890   5.284
 7292SOL    HW131875   5.762   4.902   5.311
 7292SOL    HW231876   5.866   4.819   5.215
 7293SOL     OW31877   2.576   2.031   7.553
 7293SOL    HW131878   2.645   1.966   7.585
 7293SOL    HW231879   2.602   2.066   7.463
 7294SOL     OW31880   5.437   1.165   6.128
 7294SOL    HW131881   5.528   1.155   6.088
 7294SOL    HW231882   5.440   1.147   6.226
 7295SOL     OW31883   2.070   0.061   0.756
 7295SOL    HW131884   2.135  -0.011   0.732
 7295SOL    HW231885   2.015   0.032   0.834
 7296SOL     OW31886   6.168   0.313   7.502
 7296SOL    HW131887   6.109   0.362   7.567
 7296SOL    HW231888   6.113   0.251   7.447
 7297SOL     OW31889   2.509   2.080   7.195
 7297SOL    HW131890   2.571   2.134   7.252
 7297SOL    HW231891   2.424   2.130   7.179
 7298SOL     OW31892   2.124   5.812   0.975
 7298SOL    HW131893   2.162   5.733   0.928
 7298SOL    HW231894   2.072   5.783   1.055
 7299SOL     OW31895   3.950   6.365   1.757
 7299SOL    HW131896   4.038   6.402   1.726
 7299SOL    HW231897   3.961   6.316   1.843
 7300SOL     OW31898   0.245   6.290   1.997
 7300SOL    HW131899   0.325   6.275   2.055
 7300SOL    HW231900   0.237   6.387   1.975
 7301SOL     OW31901   1.831   0.682   3.769
 7301SOL    HW131902   1.815   0.592   3.808
 7301SOL    HW231903   1.812   0.753   3.838
 7302SOL     OW31904   1.622   4.709   1.964
 7302SOL    HW131905   1.670   4.730   2.050
 7302SOL    HW231906   1.684   4.725   1.886
 7303SOL     OW31907   0.954   2.995   4.148
 7303SOL    HW131908   1.045   2.999   4.106
 7303SOL    HW231909   0.947   2.916   4.208
 7304SOL     OW31910   3.747   3.292   1.606
 7304SOL    HW131911   3.745   3.200   1.567
 7304SOL    HW231912   3.715   3.289   1.701
 7305SOL     OW31913   4.739   6.860   5.843
 7305SOL    HW131914   4.740   6.839   5.941
 7305SOL    HW231915   4.735   6.958   5.829
 7306SOL     OW31916   3.586   0.658   2.923
 7306SOL    HW131917   3.493   0.643   2.957
 7306SOL    HW231918   3.601   0.603   2.841
 7307SOL     OW31919   1.575   1.865   5.162
 7307SOL    HW131920   1.669   1.900   5.157
 7307SOL    HW231921   1.567   1.799   5.236
 7308SOL     OW31922   2.748   6.274   1.116
 7308SOL    HW131923   2.739   6.364   1.159
 7308SOL    HW231924   2.661   6.246   1.076
 7309SOL     OW31925   7.445   5.382   3.558
 7309SOL    HW131926   7.465   5.477   3.532
 7309SOL    HW231927   7.470   5.367   3.653
 7310SOL     OW31928   3.642   6.616   6.562
 7310SOL    HW131929   3.729   6.569   6.577
 7310SOL    HW231930   3.629   6.634   6.464
 7311SOL     OW31931   3.406   4.211   0.217
 7311SOL    HW131932   3.402   4.307   0.247
 7311SOL    HW231933   3.379   4.205   0.121
 7312SOL     OW31934   0.773   0.731   1.684
 7312SOL    HW131935   0.757   0.767   1.776
 7312SOL    HW231936   0.729   0.642   1.674
 7313SOL     OW31937   1.646   3.636   2.724
 7313SOL    HW131938   1.745   3.624   2.729
 7313SOL    HW231939   1.620   3.663   2.631
 7314SOL     OW31940   2.278   6.090   5.752
 7314SOL    HW131941   2.358   6.060   5.805
 7314SOL    HW231942   2.195   6.079   5.808
 7315SOL     OW31943   3.300   5.894   3.508
 7315SOL    HW131944   3.377   5.914   3.446
 7315SOL    HW231945   3.310   5.946   3.592
 7316SOL     OW31946   1.655   6.176   6.707
 7316SOL    HW131947   1.662   6.076   6.704
 7316SOL    HW231948   1.567   6.203   6.747
 7317SOL     OW31949   1.575   7.349   4.565
 7317SOL    HW131950   1.476   7.343   4.559
 7317SOL    HW231951   1.615   7.258   4.573
 7318SOL     OW31952   5.070   3.355   1.000
 7318SOL    HW131953   4.983   3.357   1.050
 7318SOL    HW231954   5.070   3.422   0.927
 7319SOL     OW31955   7.405   7.516   5.934
 7319SOL    HW131956   7.502   7.537   5.924
 7319SOL    HW231957   7.351   7.599   5.931
 7320SOL     OW31958   1.661   6.830   0.410
 7320SOL    HW131959   1.702   6.762   0.349
 7320SOL    HW231960   1.699   6.821   0.502
 7321SOL     OW31961   2.785   1.541   6.540
 7321SOL    HW131962   2.761   1.542   6.442
 7321SOL    HW231963   2.704   1.560   6.595
 7322SOL     OW31964   2.977   6.968   5.342
 7322SOL    HW131965   2.927   7.043   5.297
 7322SOL    HW231966   2.998   6.993   5.436
 7323SOL     OW31967   0.996   1.731   0.618
 7323SOL    HW131968   0.966   1.637   0.602
 7323SOL    HW231969   1.095   1.737   0.602
 7324SOL     OW31970   0.838   4.488   5.289
 7324SOL    HW131971   0.907   4.486   5.361
 7324SOL    HW231972   0.834   4.399   5.243
 7325SOL     OW31973   2.447   1.810   7.678
 7325SOL    HW131974   2.451   1.853   7.588
 7325SOL    HW231975   2.353   1.812   7.712
 7326SOL     OW31976   4.656   7.060   7.985
 7326SOL    HW131977   4.567   7.090   8.019
 7326SOL    HW231978   4.649   7.035   7.888
 7327SOL     OW31979   5.070   3.049   1.672
 7327SOL    HW131980   5.031   2.969   1.627
 7327SOL    HW231981   5.002   3.094   1.728
 7328SOL     OW31982   6.194   7.273   6.167
 7328SOL    HW131983   6.095   7.262   6.154
 7328SOL    HW231984   6.242   7.251   6.083
 7329SOL     OW31985   0.435   6.841   7.926
 7329SOL    HW131986   0.503   6.900   7.882
 7329SOL    HW231987   0.466   6.816   8.018
 7330SOL     OW31988   3.056   7.316   2.603
 7330SOL    HW131989   2.995   7.350   2.674
 7330SOL    HW231990   3.047   7.371   2.520
 7331SOL     OW31991   5.201   1.617   5.138
 7331SOL    HW131992   5.136   1.545   5.112
 7331SOL    HW231993   5.180   1.650   5.230
 7332SOL     OW31994   4.672   6.126   0.579
 7332SOL    HW131995   4.598   6.183   0.542
 7332SOL    HW231996   4.696   6.157   0.671
 7333SOL     OW31997   4.051   5.215   3.609
 7333SOL    HW131998   3.993   5.139   3.579
 7333SOL    HW231999   4.018   5.251   3.696
 7334SOL     OW32000   1.741   0.991   3.945
 7334SOL    HW132001   1.702   1.032   3.862
 7334SOL    HW232002   1.702   0.900   3.959
 7335SOL     OW32003   0.271   6.583   3.479
 7335SOL    HW132004   0.190   6.551   3.529
 7335SOL    HW232005   0.267   6.551   3.384
 7336SOL     OW32006   0.448   6.598   5.123
 7336SOL    HW132007   0.436   6.697   5.125
 7336SOL    HW232008   0.444   6.561   5.216
 7337SOL     OW32009   6.550   1.545   0.370
 7337SOL    HW132010   6.631   1.604   0.380
 7337SOL    HW232011   6.577   1.449   0.377
 7338SOL     OW32012   6.813   0.959   6.559
 7338SOL    HW132013   6.881   0.992   6.624
 7338SOL    HW232014   6.850   0.882   6.507
 7339SOL     OW32015   1.559   6.525   3.689
 7339SOL    HW132016   1.551   6.426   3.700
 7339SOL    HW232017   1.652   6.549   3.660
 7340SOL     OW32018   6.469   7.931   1.653
 7340SOL    HW132019   6.522   7.989   1.716
 7340SOL    HW232020   6.515   7.926   1.565
 7341SOL     OW32021   7.796   7.416   7.396
 7341SOL    HW132022   7.714   7.359   7.404
 7341SOL    HW232023   7.828   7.443   7.487
 7342SOL     OW32024   0.844   4.231   3.461
 7342SOL    HW132025   0.753   4.208   3.494
 7342SOL    HW232026   0.869   4.324   3.490
 7343SOL     OW32027   4.503   6.312   0.391
 7343SOL    HW132028   4.557   6.382   0.438
 7343SOL    HW232029   4.490   6.337   0.295
 7344SOL     OW32030   7.023   4.661   3.279
 7344SOL    HW132031   7.097   4.598   3.304
 7344SOL    HW232032   7.049   4.712   3.196
 7345SOL     OW32033   5.154   5.224   5.131
 7345SOL    HW132034   5.247   5.193   5.147
 7345SOL    HW232035   5.090   5.172   5.188
 7346SOL     OW32036   7.566   3.764   6.024
 7346SOL    HW132037   7.518   3.699   5.965
 7346SOL    HW232038   7.664   3.760   6.005
 7347SOL     OW32039   4.356   7.375   6.144
 7347SOL    HW132040   4.418   7.429   6.087
 7347SOL    HW232041   4.344   7.284   6.104
 7348SOL     OW32042   7.835   7.320   6.197
 7348SOL    HW132043   7.888   7.395   6.158
 7348SOL    HW232044   7.741   7.323   6.166
 7349SOL     OW32045   3.652   6.296   3.852
 7349SOL    HW132046   3.739   6.249   3.867
 7349SOL    HW232047   3.669   6.381   3.801
 7350SOL     OW32048   4.200   0.145   1.717
 7350SOL    HW132049   4.277   0.137   1.654
 7350SOL    HW232050   4.166   0.239   1.717
 7351SOL     OW32051   7.041   2.523   1.982
 7351SOL    HW132052   7.014   2.471   2.063
 7351SOL    HW232053   6.960   2.563   1.938
 7352SOL     OW32054   4.512   2.101   0.952
 7352SOL    HW132055   4.570   2.182   0.955
 7352SOL    HW232056   4.481   2.077   1.044
 7353SOL     OW32057   2.696   1.880   0.722
 7353SOL    HW132058   2.796   1.872   0.727
 7353SOL    HW232059   2.654   1.832   0.799
 7354SOL     OW32060   4.110   7.251   1.541
 7354SOL    HW132061   4.167   7.328   1.511
 7354SOL    HW232062   4.159   7.195   1.607
 7355SOL     OW32063   4.671   0.957   4.909
 7355SOL    HW132064   4.759   0.918   4.937
 7355SOL    HW232065   4.683   1.052   4.881
 7356SOL     OW32066   6.915   3.273   0.894
 7356SOL    HW132067   6.948   3.288   0.988
 7356SOL    HW232068   6.960   3.193   0.855
 7357SOL     OW32069   2.985   4.865   4.660
 7357SOL    HW132070   3.019   4.958   4.673
 7357SOL    HW232071   2.990   4.815   4.746
 7358SOL     OW32072   4.617   0.142   4.874
 7358SOL    HW132073   4.620   0.062   4.814
 7358SOL    HW232074   4.625   0.226   4.819
 7359SOL     OW32075   5.458   7.848   6.585
 7359SOL    HW132076   5.526   7.776   6.570
 7359SOL    HW232077   5.400   7.824   6.663
 7360SOL     OW32078   1.761   2.606   6.590
 7360SOL    HW132079   1.756   2.572   6.684
 7360SOL    HW232080   1.835   2.559   6.541
 7361SOL     OW32081   7.487   7.139   1.854
 7361SOL    HW132082   7.398   7.156   1.896
 7361SOL    HW232083   7.515   7.220   1.802
 7362SOL     OW32084   5.190   6.216   2.828
 7362SOL    HW132085   5.193   6.306   2.871
 7362SOL    HW232086   5.132   6.218   2.747
 7363SOL     OW32087   0.006   4.318   2.740
 7363SOL    HW132088   0.038   4.239   2.793
 7363SOL    HW232089   0.007   4.296   2.643
 7364SOL     OW32090   2.183   6.830   1.805
 7364SOL    HW132091   2.114   6.884   1.854
 7364SOL    HW232092   2.169   6.838   1.706
 7365SOL     OW32093   6.830   6.334   0.426
 7365SOL    HW132094   6.812   6.241   0.394
 7365SOL    HW232095   6.768   6.356   0.501
 7366SOL     OW32096   7.914   0.629   2.344
 7366SOL    HW132097   7.955   0.580   2.267
 7366SOL    HW232098   7.955   0.719   2.352
 7367SOL     OW32099   4.538   7.669   7.653
 7367SOL    HW132100   4.533   7.755   7.603
 7367SOL    HW232101   4.503   7.681   7.746
 7368SOL     OW32102   2.802   3.866   4.628
 7368SOL    HW132103   2.741   3.882   4.706
 7368SOL    HW232104   2.873   3.936   4.626
 7369SOL     OW32105   5.230   6.136   2.530
 7369SOL    HW132106   5.305   6.184   2.577
 7369SOL    HW232107   5.181   6.198   2.471
 7370SOL     OW32108   2.574   6.442   5.962
 7370SOL    HW132109   2.650   6.417   6.022
 7370SOL    HW232110   2.605   6.506   5.892
 7371SOL     OW32111   0.053   0.864   6.646
 7371SOL    HW132112  -0.042   0.895   6.649
 7371SOL    HW232113   0.098   0.884   6.733
 7372SOL     OW32114   3.641   5.203   6.839
 7372SOL    HW132115   3.638   5.285   6.781
 7372SOL    HW232116   3.726   5.153   6.823
 7373SOL     OW32117   3.605   0.104   6.843
 7373SOL    HW132118   3.596   0.115   6.942
 7373SOL    HW232119   3.598   0.008   6.819
 7374SOL     OW32120   6.839   7.361   2.981
 7374SOL    HW132121   6.857   7.347   2.883
 7374SOL    HW232122   6.760   7.308   3.009
 7375SOL     OW32123   3.639   7.444   1.248
 7375SOL    HW132124   3.571   7.402   1.188
 7375SOL    HW232125   3.659   7.537   1.218
 7376SOL     OW32126   0.959   3.683   4.608
 7376SOL    HW132127   1.043   3.735   4.626
 7376SOL    HW232128   0.896   3.693   4.685
 7377SOL     OW32129   4.719   1.165   3.620
 7377SOL    HW132130   4.720   1.195   3.524
 7377SOL    HW232131   4.642   1.205   3.668
 7378SOL     OW32132   3.210   0.479   3.373
 7378SOL    HW132133   3.284   0.531   3.417
 7378SOL    HW232134   3.232   0.462   3.278
 7379SOL     OW32135   7.427   3.475   6.030
 7379SOL    HW132136   7.358   3.451   5.962
 7379SOL    HW232137   7.392   3.458   6.122
 7380SOL     OW32138   6.193   0.715   2.051
 7380SOL    HW132139   6.158   0.698   2.143
 7380SOL    HW232140   6.183   0.812   2.028
 7381SOL     OW32141   2.742   4.545   2.241
 7381SOL    HW132142   2.709   4.456   2.211
 7381SOL    HW232143   2.724   4.558   2.338
 7382SOL     OW32144   6.687   1.650   6.612
 7382SOL    HW132145   6.779   1.670   6.645
 7382SOL    HW232146   6.671   1.696   6.525
 7383SOL     OW32147   1.874   6.938   1.834
 7383SOL    HW132148   1.873   6.954   1.933
 7383SOL    HW232149   1.931   7.008   1.789
 7384SOL     OW32150   5.671   5.603   0.887
 7384SOL    HW132151   5.765   5.604   0.922
 7384SOL    HW232152   5.661   5.670   0.814
 7385SOL     OW32153   6.174   1.381   7.952
 7385SOL    HW132154   6.101   1.336   8.003
 7385SOL    HW232155   6.230   1.313   7.905
 7386SOL     OW32156   2.294   6.025   4.599
 7386SOL    HW132157   2.234   6.068   4.666
 7386SOL    HW232158   2.376   6.081   4.585
 7387SOL     OW32159   7.599   1.217   2.469
 7387SOL    HW132160   7.508   1.209   2.509
 7387SOL    HW232161   7.666   1.237   2.541
 7388SOL     OW32162   2.071   3.169   4.353
 7388SOL    HW132163   1.979   3.129   4.358
 7388SOL    HW232164   2.118   3.157   4.440
 7389SOL     OW32165   3.731   2.157   3.673
 7389SOL    HW132166   3.693   2.196   3.589
 7389SOL    HW232167   3.764   2.065   3.656
 7390SOL     OW32168   3.873   1.878   7.796
 7390SOL    HW132169   3.916   1.790   7.776
 7390SOL    HW232170   3.909   1.916   7.881
 7391SOL     OW32171   1.422   3.355   5.818
 7391SOL    HW132172   1.396   3.273   5.767
 7391SOL    HW232173   1.371   3.360   5.903
 7392SOL     OW32174   1.228   0.781   7.488
 7392SOL    HW132175   1.232   0.854   7.557
 7392SOL    HW232176   1.299   0.794   7.420
 7393SOL     OW32177   1.345   5.699   3.582
 7393SOL    HW132178   1.348   5.611   3.629
 7393SOL    HW232179   1.391   5.692   3.493
 7394SOL     OW32180   3.842   6.154   4.261
 7394SOL    HW132181   3.941   6.159   4.267
 7394SOL    HW232182   3.802   6.141   4.351
 7395SOL     OW32183   6.561   7.649   3.867
 7395SOL    HW132184   6.485   7.602   3.911
 7395SOL    HW232185   6.551   7.644   3.768
 7396SOL     OW32186   0.291   1.127   7.406
 7396SOL    HW132187   0.220   1.059   7.387
 7396SOL    HW232188   0.271   1.174   7.491
 7397SOL     OW32189   2.106   5.999   6.123
 7397SOL    HW132190   2.194   5.956   6.146
 7397SOL    HW232191   2.035   5.928   6.117
 7398SOL     OW32192   1.522   6.672   6.169
 7398SOL    HW132193   1.430   6.688   6.204
 7398SOL    HW232194   1.517   6.632   6.077
 7399SOL     OW32195   6.845   4.712   5.974
 7399SOL    HW132196   6.846   4.613   5.960
 7399SOL    HW232197   6.794   4.757   5.901
 7400SOL     OW32198   1.260   7.758   2.549
 7400SOL    HW132199   1.198   7.733   2.475
 7400SOL    HW232200   1.238   7.704   2.631
 7401SOL     OW32201   0.989   0.829   3.843
 7401SOL    HW132202   1.076   0.878   3.838
 7401SOL    HW232203   0.971   0.783   3.756
 7402SOL     OW32204   6.890   0.977   6.293
 7402SOL    HW132205   6.801   1.022   6.304
 7402SOL    HW232206   6.891   0.926   6.207
 7403SOL     OW32207   3.742   6.642   4.668
 7403SOL    HW132208   3.837   6.615   4.648
 7403SOL    HW232209   3.722   6.730   4.626
 7404SOL     OW32210   7.561   0.945   1.102
 7404SOL    HW132211   7.573   0.850   1.071
 7404SOL    HW232212   7.560   0.948   1.202
 7405SOL     OW32213   1.085   5.476   0.466
 7405SOL    HW132214   1.021   5.408   0.502
 7405SOL    HW232215   1.168   5.477   0.521
 7406SOL     OW32216   1.232   4.535   3.916
 7406SOL    HW132217   1.293   4.461   3.946
 7406SOL    HW232218   1.158   4.546   3.981
 7407SOL     OW32219   0.415   1.346   7.072
 7407SOL    HW132220   0.374   1.269   7.123
 7407SOL    HW232221   0.343   1.400   7.029
 7408SOL     OW32222   2.770   2.984   1.789
 7408SOL    HW132223   2.789   3.036   1.705
 7408SOL    HW232224   2.677   2.949   1.787
 7409SOL     OW32225   4.111   0.805   4.888
 7409SOL    HW132226   4.192   0.751   4.911
 7409SOL    HW232227   4.125   0.852   4.801
 7410SOL     OW32228   0.432   5.002   1.748
 7410SOL    HW132229   0.518   5.033   1.787
 7410SOL    HW232230   0.357   5.061   1.779
 7411SOL     OW32231   2.312   0.516   6.870
 7411SOL    HW132232   2.354   0.427   6.892
 7411SOL    HW232233   2.357   0.555   6.790
 7412SOL     OW32234   3.670   0.938   6.962
 7412SOL    HW132235   3.758   0.893   6.974
 7412SOL    HW232236   3.654   0.957   6.865
 7413SOL     OW32237   4.386   4.397   0.351
 7413SOL    HW132238   4.413   4.345   0.431
 7413SOL    HW232239   4.406   4.345   0.268
 7414SOL     OW32240   3.101   5.211   3.482
 7414SOL    HW132241   3.192   5.170   3.476
 7414SOL    HW232242   3.061   5.192   3.572
 7415SOL     OW32243   1.461   7.258   6.668
 7415SOL    HW132244   1.457   7.344   6.720
 7415SOL    HW232245   1.389   7.256   6.599
 7416SOL     OW32246   6.158   6.011   4.686
 7416SOL    HW132247   6.101   5.930   4.697
 7416SOL    HW232248   6.140   6.053   4.597
 7417SOL     OW32249   6.374   6.594   6.955
 7417SOL    HW132250   6.286   6.593   6.908
 7417SOL    HW232251   6.364   6.630   7.047
 7418SOL     OW32252   6.550   0.132   7.978
 7418SOL    HW132253   6.640   0.155   8.018
 7418SOL    HW232254   6.517   0.047   8.018
 7419SOL     OW32255   7.368   1.077   3.150
 7419SOL    HW132256   7.395   1.173   3.166
 7419SOL    HW232257   7.324   1.068   3.061
 7420SOL     OW32258   6.217   4.703   3.991
 7420SOL    HW132259   6.213   4.745   4.082
 7420SOL    HW232260   6.250   4.769   3.924
 7421SOL     OW32261   2.281   5.592   0.805
 7421SOL    HW132262   2.336   5.676   0.803
 7421SOL    HW232263   2.320   5.524   0.742
 7422SOL     OW32264   6.676   0.441   0.339
 7422SOL    HW132265   6.676   0.474   0.245
 7422SOL    HW232266   6.762   0.467   0.384
 7423SOL     OW32267   6.863   4.491   5.207
 7423SOL    HW132268   6.867   4.401   5.251
 7423SOL    HW232269   6.776   4.502   5.159
 7424SOL     OW32270   4.497   5.837   6.320
 7424SOL    HW132271   4.462   5.762   6.377
 7424SOL    HW232272   4.462   5.827   6.227
 7425SOL     OW32273   3.945   6.070   6.877
 7425SOL    HW132274   4.013   6.015   6.829
 7425SOL    HW232275   3.963   6.167   6.863
 7426SOL     OW32276   5.521   4.560   5.885
 7426SOL    HW132277   5.426   4.570   5.855
 7426SOL    HW232278   5.574   4.511   5.816
 7427SOL     OW32279   5.950   7.465   1.666
 7427SOL    HW132280   6.030   7.459   1.726
 7427SOL    HW232281   5.930   7.560   1.645
 7428SOL     OW32282   5.871   6.150   6.278
 7428SOL    HW132283   5.943   6.082   6.266
 7428SOL    HW232284   5.910   6.242   6.277
 7429SOL     OW32285   1.354   1.491   6.871
 7429SOL    HW132286   1.287   1.424   6.841
 7429SOL    HW232287   1.309   1.564   6.922
 7430SOL     OW32288   2.295   7.788   0.217
 7430SOL    HW132289   2.277   7.853   0.291
 7430SOL    HW232290   2.239   7.811   0.137
 7431SOL     OW32291  -0.011   6.737   7.658
 7431SOL    HW132292  -0.044   6.824   7.695
 7431SOL    HW232293  -0.044   6.724   7.565
 7432SOL     OW32294   1.704   0.638   3.539
 7432SOL    HW132295   1.793   0.598   3.562
 7432SOL    HW232296   1.661   0.586   3.466
 7433SOL     OW32297   3.138   6.589   0.836
 7433SOL    HW132298   3.118   6.681   0.803
 7433SOL    HW232299   3.194   6.594   0.919
 7434SOL     OW32300   2.556   7.470   6.978
 7434SOL    HW132301   2.614   7.543   7.014
 7434SOL    HW232302   2.524   7.494   6.887
 7435SOL     OW32303   3.273   4.652   7.302
 7435SOL    HW132304   3.264   4.700   7.214
 7435SOL    HW232305   3.369   4.639   7.324
 7436SOL     OW32306   3.935   0.050   7.324
 7436SOL    HW132307   3.872  -0.011   7.371
 7436SOL    HW232308   3.964   0.010   7.237
 7437SOL     OW32309   2.987   7.155   0.661
 7437SOL    HW132310   2.964   7.228   0.725
 7437SOL    HW232311   3.082   7.164   0.631
 7438SOL     OW32312   4.768   1.478   1.541
 7438SOL    HW132313   4.781   1.381   1.562
 7438SOL    HW232314   4.815   1.501   1.456
 7439SOL     OW32315   2.540   2.480   6.042
 7439SOL    HW132316   2.630   2.502   6.079
 7439SOL    HW232317   2.485   2.433   6.112
 7440SOL     OW32318   2.576   2.617   2.766
 7440SOL    HW132319   2.528   2.533   2.739
 7440SOL    HW232320   2.673   2.609   2.747
 7441SOL     OW32321   0.639   4.984   5.804
 7441SOL    HW132322   0.640   5.016   5.709
 7441SOL    HW232323   0.563   4.921   5.818
 7442SOL     OW32324   5.915   3.856   7.770
 7442SOL    HW132325   5.944   3.828   7.679
 7442SOL    HW232326   5.992   3.851   7.834
 7443SOL     OW32327   4.287   2.032   4.705
 7443SOL    HW132328   4.233   1.977   4.769
 7443SOL    HW232329   4.354   2.086   4.755
 7444SOL     OW32330   0.224   5.601   3.164
 7444SOL    HW132331   0.131   5.604   3.129
 7444SOL    HW232332   0.225   5.618   3.263
 7445SOL     OW32333   3.931   1.818   6.685
 7445SOL    HW132334   3.880   1.885   6.630
 7445SOL    HW232335   3.975   1.751   6.626
 7446SOL     OW32336   3.757   0.891   5.826
 7446SOL    HW132337   3.843   0.924   5.865
 7446SOL    HW232338   3.759   0.898   5.727
 7447SOL     OW32339   3.251   3.182   2.015
 7447SOL    HW132340   3.268   3.254   2.082
 7447SOL    HW232341   3.226   3.222   1.927
 7448SOL     OW32342   1.586   2.951   7.114
 7448SOL    HW132343   1.489   2.935   7.095
 7448SOL    HW232344   1.595   3.009   7.195
 7449SOL     OW32345   7.725   6.622   1.804
 7449SOL    HW132346   7.750   6.532   1.767
 7449SOL    HW232347   7.687   6.612   1.896
 7450SOL     OW32348   1.288   6.310   4.888
 7450SOL    HW132349   1.212   6.255   4.853
 7450SOL    HW232350   1.265   6.347   4.978
 7451SOL     OW32351   7.011   3.316   1.877
 7451SOL    HW132352   6.929   3.341   1.825
 7451SOL    HW232353   6.999   3.342   1.973
 7452SOL     OW32354   6.794   4.536   1.296
 7452SOL    HW132355   6.715   4.561   1.352
 7452SOL    HW232356   6.765   4.504   1.207
 7453SOL     OW32357   6.209   2.473   6.246
 7453SOL    HW132358   6.120   2.516   6.252
 7453SOL    HW232359   6.210   2.406   6.172
 7454SOL     OW32360   7.382   3.780   2.892
 7454SOL    HW132361   7.477   3.749   2.885
 7454SOL    HW232362   7.347   3.764   2.984
 7455SOL     OW32363   0.291   5.611   1.302
 7455SOL    HW132364   0.202   5.651   1.325
 7455SOL    HW232365   0.289   5.576   1.208
 7456SOL     OW32366   7.888   0.054   4.302
 7456SOL    HW132367   7.845   0.102   4.226
 7456SOL    HW232368   7.955  -0.011   4.268
 7457SOL     OW32369   3.761   4.727   6.266
 7457SOL    HW132370   3.729   4.735   6.172
 7457SOL    HW232371   3.724   4.643   6.307
 7458SOL     OW32372   0.664   0.377   3.108
 7458SOL    HW132373   0.656   0.285   3.070
 7458SOL    HW232374   0.575   0.407   3.143
 7459SOL     OW32375   3.018   4.839   3.118
 7459SOL    HW132376   2.972   4.885   3.194
 7459SOL    HW232377   3.013   4.895   3.036
 7460SOL     OW32378   2.028   7.269   2.851
 7460SOL    HW132379   1.959   7.250   2.922
 7460SOL    HW232380   2.055   7.183   2.806
 7461SOL     OW32381   3.462   5.209   3.739
 7461SOL    HW132382   3.400   5.269   3.689
 7461SOL    HW232383   3.485   5.251   3.827
 7462SOL     OW32384   1.570   3.634   7.969
 7462SOL    HW132385   1.667   3.652   7.990
 7462SOL    HW232386   1.555   3.536   7.962
 7463SOL     OW32387   4.118   4.022   7.613
 7463SOL    HW132388   4.138   3.952   7.683
 7463SOL    HW232389   4.202   4.067   7.585
 7464SOL     OW32390   7.255   2.334   5.761
 7464SOL    HW132391   7.162   2.326   5.726
 7464SOL    HW232392   7.255   2.371   5.853
 7465SOL     OW32393   2.965   5.943   0.994
 7465SOL    HW132394   2.993   5.871   0.930
 7465SOL    HW232395   2.899   6.004   0.950
 7466SOL     OW32396   3.702   1.403   0.448
 7466SOL    HW132397   3.727   1.499   0.460
 7466SOL    HW232398   3.655   1.390   0.360
 7467SOL     OW32399   5.889   2.157   5.131
 7467SOL    HW132400   5.984   2.130   5.114
 7467SOL    HW232401   5.867   2.148   5.228
 7468SOL     OW32402   1.386   7.118   4.458
 7468SOL    HW132403   1.474   7.161   4.435
 7468SOL    HW232404   1.401   7.028   4.498
 7469SOL     OW32405   6.594   2.066   2.366
 7469SOL    HW132406   6.544   2.142   2.324
 7469SOL    HW232407   6.687   2.094   2.388
 7470SOL     OW32408   3.923   1.753   6.402
 7470SOL    HW132409   3.906   1.675   6.342
 7470SOL    HW232410   3.836   1.788   6.438
 7471SOL     OW32411   1.994   5.839   3.034
 7471SOL    HW132412   2.030   5.932   3.042
 7471SOL    HW232413   1.895   5.839   3.046
 7472SOL     OW32414   2.204   3.851   3.348
 7472SOL    HW132415   2.157   3.913   3.285
 7472SOL    HW232416   2.174   3.868   3.442
 7473SOL     OW32417   2.854   3.318   5.527
 7473SOL    HW132418   2.837   3.295   5.431
 7473SOL    HW232419   2.945   3.357   5.537
 7474SOL     OW32420   2.882   2.582   7.210
 7474SOL    HW132421   2.845   2.492   7.189
 7474SOL    HW232422   2.979   2.576   7.233
 7475SOL     OW32423   1.263   4.933   3.514
 7475SOL    HW132424   1.331   4.891   3.575
 7475SOL    HW232425   1.251   4.878   3.432
 7476SOL     OW32426   1.177   6.428   1.663
 7476SOL    HW132427   1.173   6.396   1.757
 7476SOL    HW232428   1.265   6.405   1.622
 7477SOL     OW32429   1.200   5.292   7.769
 7477SOL    HW132430   1.286   5.273   7.720
 7477SOL    HW232431   1.188   5.227   7.844
 7478SOL     OW32432   6.845   4.488   4.056
 7478SOL    HW132433   6.774   4.424   4.027
 7478SOL    HW232434   6.806   4.579   4.069
 7479SOL     OW32435   3.071   5.649   2.258
 7479SOL    HW132436   3.142   5.647   2.187
 7479SOL    HW232437   3.032   5.741   2.264
 7480SOL     OW32438   7.623   4.493   5.055
 7480SOL    HW132439   7.695   4.423   5.043
 7480SOL    HW232440   7.658   4.568   5.111
 7481SOL     OW32441   5.000   7.710   5.180
 7481SOL    HW132442   5.084   7.757   5.153
 7481SOL    HW232443   4.922   7.747   5.129
 7482SOL     OW32444   5.025   2.992   1.325
 7482SOL    HW132445   4.955   3.045   1.374
 7482SOL    HW232446   5.065   3.048   1.252
 7483SOL     OW32447   4.951   2.210   5.248
 7483SOL    HW132448   4.922   2.140   5.182
 7483SOL    HW232449   4.944   2.174   5.341
 7484SOL     OW32450   2.335   0.925   6.830
 7484SOL    HW132451   2.259   0.974   6.874
 7484SOL    HW232452   2.421   0.973   6.849
 7485SOL     OW32453   6.371   2.435   4.193
 7485SOL    HW132454   6.434   2.393   4.128
 7485SOL    HW232455   6.380   2.393   4.283
 7486SOL     OW32456   7.047   3.987   6.396
 7486SOL    HW132457   7.106   3.912   6.423
 7486SOL    HW232458   7.102   4.067   6.373
 7487SOL     OW32459   4.664   0.399   0.747
 7487SOL    HW132460   4.745   0.446   0.780
 7487SOL    HW232461   4.609   0.368   0.824
 7488SOL     OW32462   4.700   2.607   1.740
 7488SOL    HW132463   4.740   2.676   1.800
 7488SOL    HW232464   4.667   2.650   1.656
 7489SOL     OW32465   2.037   6.479   6.687
 7489SOL    HW132466   1.996   6.439   6.769
 7489SOL    HW232467   2.104   6.548   6.713
 7490SOL     OW32468   6.996   6.117   0.690
 7490SOL    HW132469   6.980   6.208   0.650
 7490SOL    HW232470   6.996   6.124   0.790
 7491SOL     OW32471   7.270   6.303   3.753
 7491SOL    HW132472   7.199   6.237   3.778
 7491SOL    HW232473   7.257   6.333   3.659
 7492SOL     OW32474   6.357   1.613   2.061
 7492SOL    HW132475   6.331   1.542   1.996
 7492SOL    HW232476   6.338   1.703   2.023
 7493SOL     OW32477   2.537   6.917   5.476
 7493SOL    HW132478   2.583   6.832   5.452
 7493SOL    HW232479   2.454   6.897   5.528
 7494SOL     OW32480   6.399   3.225   5.850
 7494SOL    HW132481   6.471   3.165   5.887
 7494SOL    HW232482   6.424   3.255   5.758
 7495SOL     OW32483   6.303   7.170   3.401
 7495SOL    HW132484   6.327   7.127   3.314
 7495SOL    HW232485   6.224   7.123   3.442
 7496SOL     OW32486   1.159   1.724   6.140
 7496SOL    HW132487   1.222   1.774   6.198
 7496SOL    HW232488   1.180   1.741   6.043
 7497SOL     OW32489   7.275   6.691   7.968
 7497SOL    HW132490   7.348   6.645   8.018
 7497SOL    HW232491   7.302   6.785   7.947
 7498SOL     OW32492   0.283   1.804   5.516
 7498SOL    HW132493   0.277   1.899   5.548
 7498SOL    HW232494   0.310   1.745   5.592
 7499SOL     OW32495   7.023   6.801   6.522
 7499SOL    HW132496   7.122   6.811   6.532
 7499SOL    HW232497   7.002   6.730   6.455
 7500SOL     OW32498   4.095   4.845   7.412
 7500SOL    HW132499   4.084   4.769   7.476
 7500SOL    HW232500   4.100   4.809   7.318
 7501SOL     OW32501   7.262   1.433   0.191
 7501SOL    HW132502   7.205   1.513   0.175
 7501SOL    HW232503   7.210   1.349   0.176
 7502SOL     OW32504   7.701   7.392   3.571
 7502SOL    HW132505   7.800   7.405   3.563
 7502SOL    HW232506   7.677   7.297   3.552
 7503SOL     OW32507   5.525   4.150   5.902
 7503SOL    HW132508   5.453   4.220   5.894
 7503SOL    HW232509   5.598   4.169   5.837
 7504SOL     OW32510   7.021   0.808   5.522
 7504SOL    HW132511   7.000   0.877   5.591
 7504SOL    HW232512   7.007   0.845   5.430
 7505SOL     OW32513   4.235   6.349   0.459
 7505SOL    HW132514   4.236   6.288   0.379
 7505SOL    HW232515   4.204   6.299   0.540
 7506SOL     OW32516   4.977   7.403   6.079
 7506SOL    HW132517   4.880   7.385   6.099
 7506SOL    HW232518   5.011   7.476   6.137
 7507SOL     OW32519   0.637   5.931   1.268
 7507SOL    HW132520   0.655   5.957   1.363
 7507SOL    HW232521   0.573   5.854   1.265
 7508SOL     OW32522   4.282   1.978   0.858
 7508SOL    HW132523   4.209   1.911   0.844
 7508SOL    HW232524   4.341   1.949   0.933
 7509SOL     OW32525   4.434   6.125   1.577
 7509SOL    HW132526   4.519   6.167   1.544
 7509SOL    HW232527   4.448   6.087   1.669
 7510SOL     OW32528   1.282   0.848   6.099
 7510SOL    HW132529   1.325   0.821   6.013
 7510SOL    HW232530   1.320   0.795   6.175
 7511SOL     OW32531   7.515   7.195   3.365
 7511SOL    HW132532   7.460   7.126   3.316
 7511SOL    HW232533   7.496   7.190   3.463
 7512SOL     OW32534   1.004   7.000   2.404
 7512SOL    HW132535   0.988   7.098   2.417
 7512SOL    HW232536   0.919   6.953   2.382
 7513SOL     OW32537   1.246   0.982   2.617
 7513SOL    HW132538   1.211   0.889   2.612
 7513SOL    HW232539   1.185   1.039   2.672
 7514SOL     OW32540   1.043   3.633   4.345
 7514SOL    HW132541   0.959   3.681   4.370
 7514SOL    HW232542   1.105   3.630   4.424
 7515SOL     OW32543   7.906   0.858   5.136
 7515SOL    HW132544   7.820   0.900   5.107
 7515SOL    HW232545   7.935   0.896   5.224
 7516SOL     OW32546   0.036   2.995   1.842
 7516SOL    HW132547   0.103   2.963   1.774
 7516SOL    HW232548   0.054   2.953   1.930
 7517SOL     OW32549   0.709   3.075   5.815
 7517SOL    HW132550   0.638   3.137   5.849
 7517SOL    HW232551   0.681   3.036   5.727
 7518SOL     OW32552   6.173   2.412   4.828
 7518SOL    HW132553   6.143   2.386   4.920
 7518SOL    HW232554   6.116   2.486   4.792
 7519SOL     OW32555   1.883   3.766   2.238
 7519SOL    HW132556   1.885   3.863   2.261
 7519SOL    HW232557   1.914   3.753   2.143
 7520SOL     OW32558   0.671   4.172   7.923
 7520SOL    HW132559   0.660   4.072   7.920
 7520SOL    HW232560   0.672   4.203   8.018
 7521SOL     OW32561   1.172   7.705   3.533
 7521SOL    HW132562   1.164   7.793   3.486
 7521SOL    HW232563   1.261   7.698   3.577
 7522SOL     OW32564   2.609   6.658   3.466
 7522SOL    HW132565   2.629   6.721   3.391
 7522SOL    HW232566   2.576   6.571   3.429
 7523SOL     OW32567   4.741   5.917   1.356
 7523SOL    HW132568   4.773   5.957   1.442
 7523SOL    HW232569   4.773   5.823   1.349
 7524SOL     OW32570   4.596   3.783   1.150
 7524SOL    HW132571   4.631   3.873   1.128
 7524SOL    HW232572   4.662   3.732   1.206
 7525SOL     OW32573   3.194   2.349   4.902
 7525SOL    HW132574   3.112   2.355   4.959
 7525SOL    HW232575   3.186   2.411   4.825
 7526SOL     OW32576   6.887   3.065   3.995
 7526SOL    HW132577   6.880   2.966   4.005
 7526SOL    HW232578   6.829   3.110   4.063
 7527SOL     OW32579   7.391   5.636   3.723
 7527SOL    HW132580   7.446   5.559   3.757
 7527SOL    HW232581   7.385   5.707   3.793
 7528SOL     OW32582   7.126   5.915   2.717
 7528SOL    HW132583   7.082   5.863   2.791
 7528SOL    HW232584   7.092   5.884   2.628
 7529SOL     OW32585   2.676   7.199   0.138
 7529SOL    HW132586   2.712   7.106   0.129
 7529SOL    HW232587   2.696   7.234   0.230
 7530SOL     OW32588   5.317   2.430   2.344
 7530SOL    HW132589   5.249   2.429   2.270
 7530SOL    HW232590   5.379   2.352   2.335
 7531SOL     OW32591   1.320   5.483   3.935
 7531SOL    HW132592   1.373   5.450   3.857
 7531SOL    HW232593   1.331   5.421   4.013
 7532SOL     OW32594   3.884   4.678   3.082
 7532SOL    HW132595   3.921   4.654   3.172
 7532SOL    HW232596   3.787   4.652   3.077
 7533SOL     OW32597   5.953   5.913   4.512
 7533SOL    HW132598   5.922   5.980   4.580
 7533SOL    HW232599   5.874   5.866   4.472
 7534SOL     OW32600   0.715   5.636   2.391
 7534SOL    HW132601   0.804   5.591   2.380
 7534SOL    HW232602   0.682   5.624   2.484
 7535SOL     OW32603  -0.045   7.196   0.482
 7535SOL    HW132604   0.018   7.179   0.406
 7535SOL    HW232605  -0.008   7.269   0.540
 7536SOL     OW32606   4.398   7.483   0.774
 7536SOL    HW132607   4.339   7.541   0.831
 7536SOL    HW232608   4.481   7.459   0.824
 7537SOL     OW32609   7.284   7.699   2.682
 7537SOL    HW132610   7.362   7.724   2.624
 7537SOL    HW232611   7.249   7.609   2.656
 7538SOL     OW32612   1.870   0.423   5.774
 7538SOL    HW132613   1.804   0.490   5.811
 7538SOL    HW232614   1.842   0.396   5.682
 7539SOL     OW32615   7.770   4.757   3.254
 7539SOL    HW132616   7.868   4.771   3.244
 7539SOL    HW232617   7.724   4.844   3.266
 7540SOL     OW32618   7.176   2.628   0.768
 7540SOL    HW132619   7.251   2.649   0.830
 7540SOL    HW232620   7.128   2.713   0.742
 7541SOL     OW32621   5.108   6.352   5.316
 7541SOL    HW132622   5.148   6.269   5.355
 7541SOL    HW232623   5.143   6.367   5.224
 7542SOL     OW32624   6.808   2.696   6.592
 7542SOL    HW132625   6.795   2.618   6.530
 7542SOL    HW232626   6.759   2.776   6.556
 7543SOL     OW32627   7.639   7.903   1.071
 7543SOL    HW132628   7.572   7.974   1.097
 7543SOL    HW232629   7.614   7.864   0.983
 7544SOL     OW32630   0.925   7.598   6.519
 7544SOL    HW132631   0.913   7.684   6.469
 7544SOL    HW232632   0.987   7.612   6.596
 7545SOL     OW32633   7.447   7.557   6.209
 7545SOL    HW132634   7.366   7.582   6.155
 7545SOL    HW232635   7.429   7.574   6.306
 7546SOL     OW32636   6.122   4.779   4.765
 7546SOL    HW132637   6.195   4.711   4.765
 7546SOL    HW232638   6.154   4.863   4.722
 7547SOL     OW32639   3.367   4.538   0.018
 7547SOL    HW132640   3.311   4.621   0.030
 7547SOL    HW232641   3.317   4.458   0.052
 7548SOL     OW32642   2.681   4.836   2.541
 7548SOL    HW132643   2.624   4.790   2.610
 7548SOL    HW232644   2.737   4.770   2.492
 7549SOL     OW32645   2.342   4.103   6.280
 7549SOL    HW132646   2.286   4.042   6.223
 7549SOL    HW232647   2.284   4.166   6.331
 7550SOL     OW32648   6.028   0.115   1.549
 7550SOL    HW132649   6.023   0.102   1.450
 7550SOL    HW232650   6.121   0.141   1.575
 7551SOL     OW32651   7.687   6.894   0.615
 7551SOL    HW132652   7.741   6.959   0.668
 7551SOL    HW232653   7.665   6.932   0.525
 7552SOL     OW32654   4.307   0.681   7.309
 7552SOL    HW132655   4.359   0.716   7.388
 7552SOL    HW232656   4.329   0.584   7.294
 7553SOL     OW32657   5.202   7.599   1.600
 7553SOL    HW132658   5.212   7.654   1.517
 7553SOL    HW232659   5.106   7.589   1.624
 7554SOL     OW32660   3.481   5.369   1.211
 7554SOL    HW132661   3.471   5.312   1.293
 7554SOL    HW232662   3.565   5.422   1.217
 7555SOL     OW32663   1.356   5.640   1.452
 7555SOL    HW132664   1.270   5.607   1.411
 7555SOL    HW232665   1.350   5.737   1.471
 7556SOL     OW32666   6.611   7.122   2.323
 7556SOL    HW132667   6.569   7.042   2.279
 7556SOL    HW232668   6.576   7.133   2.416
 7557SOL     OW32669   3.030   2.959   6.707
 7557SOL    HW132670   3.023   3.044   6.758
 7557SOL    HW232671   3.087   2.894   6.758
 7558SOL     OW32672   0.655   5.029   0.315
 7558SOL    HW132673   0.603   5.068   0.391
 7558SOL    HW232674   0.626   5.071   0.229
 7559SOL     OW32675   4.591   1.339   2.408
 7559SOL    HW132676   4.686   1.316   2.386
 7559SOL    HW232677   4.580   1.349   2.507
 7560SOL     OW32678   5.220   7.125   5.119
 7560SOL    HW132679   5.241   7.110   5.022
 7560SOL    HW232680   5.305   7.122   5.172
 7561SOL     OW32681   2.554   6.856   3.141
 7561SOL    HW132682   2.479   6.829   3.081
 7561SOL    HW232683   2.574   6.953   3.129
 7562SOL     OW32684   0.334   3.696   0.869
 7562SOL    HW132685   0.388   3.622   0.830
 7562SOL    HW232686   0.304   3.671   0.961
 7563SOL     OW32687   4.261   4.987   5.008
 7563SOL    HW132688   4.322   4.929   4.953
 7563SOL    HW232689   4.253   4.950   5.100
 7564SOL     OW32690   5.167   0.243   2.638
 7564SOL    HW132691   5.168   0.266   2.541
 7564SOL    HW232692   5.199   0.322   2.691
 7565SOL     OW32693   0.452   4.747   2.869
 7565SOL    HW132694   0.519   4.692   2.818
 7565SOL    HW232695   0.470   4.739   2.967
 7566SOL     OW32696   3.058   6.933   4.966
 7566SOL    HW132697   2.975   6.981   4.993
 7566SOL    HW232698   3.088   6.964   4.876
 7567SOL     OW32699   2.309   6.881   6.253
 7567SOL    HW132700   2.326   6.949   6.325
 7567SOL    HW232701   2.394   6.860   6.206
 7568SOL     OW32702   2.515   7.748   7.627
 7568SOL    HW132703   2.538   7.786   7.538
 7568SOL    HW232704   2.472   7.659   7.617
 7569SOL     OW32705   6.355   4.744   1.572
 7569SOL    HW132706   6.428   4.805   1.605
 7569SOL    HW232707   6.343   4.756   1.474
 7570SOL     OW32708   0.935   1.547   1.525
 7570SOL    HW132709   1.034   1.561   1.533
 7570SOL    HW232710   0.904   1.579   1.436
 7571SOL     OW32711   5.545   7.143   8.006
 7571SOL    HW132712   5.613   7.215   8.019
 7571SOL    HW232713   5.545   7.113   7.910
 7572SOL     OW32714   2.563   4.918   6.515
 7572SOL    HW132715   2.487   4.977   6.488
 7572SOL    HW232716   2.535   4.854   6.586
 7573SOL     OW32717   6.722   3.274   5.223
 7573SOL    HW132718   6.675   3.259   5.310
 7573SOL    HW232719   6.719   3.191   5.168
 7574SOL     OW32720   3.981   1.193   4.140
 7574SOL    HW132721   4.024   1.283   4.136
 7574SOL    HW232722   3.969   1.164   4.234
 7575SOL     OW32723   6.939   3.980   6.167
 7575SOL    HW132724   6.889   3.948   6.248
 7575SOL    HW232725   6.901   3.937   6.085
 7576SOL     OW32726   4.521   4.831   3.569
 7576SOL    HW132727   4.599   4.795   3.517
 7576SOL    HW232728   4.516   4.784   3.657
 7577SOL     OW32729   6.570   7.513   7.866
 7577SOL    HW132730   6.659   7.558   7.863
 7577SOL    HW232731   6.576   7.428   7.918
 7578SOL     OW32732   0.680   7.111   6.355
 7578SOL    HW132733   0.602   7.067   6.397
 7578SOL    HW232734   0.665   7.122   6.256
 7579SOL     OW32735   7.170   1.189   7.083
 7579SOL    HW132736   7.137   1.142   7.001
 7579SOL    HW232737   7.146   1.137   7.164
 7580SOL     OW32738   7.492   4.718   0.743
 7580SOL    HW132739   7.559   4.659   0.699
 7580SOL    HW232740   7.515   4.729   0.840
 7581SOL     OW32741   3.736   5.745   4.324
 7581SOL    HW132742   3.807   5.699   4.378
 7581SOL    HW232743   3.646   5.723   4.361
 7582SOL     OW32744   1.728   3.906   6.653
 7582SOL    HW132745   1.786   3.985   6.674
 7582SOL    HW232746   1.730   3.887   6.555
 7583SOL     OW32747   7.149   5.941   3.753
 7583SOL    HW132748   7.204   6.021   3.728
 7583SOL    HW232749   7.094   5.911   3.675
 7584SOL     OW32750   1.195   6.547   6.927
 7584SOL    HW132751   1.141   6.515   7.005
 7584SOL    HW232752   1.168   6.640   6.903
 7585SOL     OW32753   1.782   7.819   7.075
 7585SOL    HW132754   1.722   7.752   7.119
 7585SOL    HW232755   1.838   7.775   7.005
 7586SOL     OW32756   5.856   1.654   4.893
 7586SOL    HW132757   5.932   1.668   4.958
 7586SOL    HW232758   5.816   1.564   4.906
 7587SOL     OW32759   1.288   5.989   6.283
 7587SOL    HW132760   1.386   6.003   6.292
 7587SOL    HW232761   1.241   6.078   6.282
 7588SOL     OW32762   0.907   3.584   3.135
 7588SOL    HW132763   0.889   3.673   3.177
 7588SOL    HW232764   0.973   3.533   3.190
 7589SOL     OW32765   3.751   3.865   5.716
 7589SOL    HW132766   3.763   3.766   5.717
 7589SOL    HW232767   3.822   3.908   5.660
 7590SOL     OW32768   5.714   2.746   0.921
 7590SOL    HW132769   5.657   2.769   0.999
 7590SOL    HW232770   5.807   2.780   0.935
 7591SOL     OW32771   4.135   5.759   1.045
 7591SOL    HW132772   4.180   5.845   1.069
 7591SOL    HW232773   4.041   5.778   1.014
 7592SOL     OW32774   0.041   6.440   6.112
 7592SOL    HW132775   0.059   6.485   6.200
 7592SOL    HW232776   0.007   6.506   6.046
 7593SOL     OW32777   0.270  -0.011   6.624
 7593SOL    HW132778   0.256   0.069   6.682
 7593SOL    HW232779   0.254   0.013   6.528
 7594SOL     OW32780   6.884   2.418   6.577
 7594SOL    HW132781   6.980   2.395   6.564
 7594SOL    HW232782   6.862   2.418   6.675
 7595SOL     OW32783   6.559   2.694   4.673
 7595SOL    HW132784   6.469   2.688   4.630
 7595SOL    HW232785   6.550   2.733   4.765
 7596SOL     OW32786   5.590   0.765   4.806
 7596SOL    HW132787   5.509   0.758   4.747
 7596SOL    HW232788   5.568   0.815   4.889
 7597SOL     OW32789   2.373   2.914   0.440
 7597SOL    HW132790   2.418   2.918   0.529
 7597SOL    HW232791   2.440   2.924   0.367
 7598SOL     OW32792   2.247   7.043   4.839
 7598SOL    HW132793   2.292   7.067   4.753
 7598SOL    HW232794   2.161   6.994   4.819
 7599SOL     OW32795   1.921   2.678   0.838
 7599SOL    HW132796   1.955   2.770   0.817
 7599SOL    HW232797   1.997   2.614   0.846
 7600SOL     OW32798   6.114   0.656   7.268
 7600SOL    HW132799   6.138   0.753   7.272
 7600SOL    HW232800   6.106   0.619   7.361
 7601SOL     OW32801   1.745   3.477   6.530
 7601SOL    HW132802   1.720   3.497   6.625
 7601SOL    HW232803   1.835   3.515   6.510
 7602SOL     OW32804   1.047   1.368   5.628
 7602SOL    HW132805   0.994   1.295   5.672
 7602SOL    HW232806   1.009   1.389   5.539
 7603SOL     OW32807   6.486   2.362   6.985
 7603SOL    HW132808   6.567   2.320   6.943
 7603SOL    HW232809   6.513   2.414   7.067
 7604SOL     OW32810   7.376   1.987   5.956
 7604SOL    HW132811   7.470   2.022   5.960
 7604SOL    HW232812   7.352   1.962   5.863
 7605SOL     OW32813   6.149   3.753   2.150
 7605SOL    HW132814   6.123   3.657   2.162
 7605SOL    HW232815   6.201   3.764   2.065
 7606SOL     OW32816   1.537   7.800   5.972
 7606SOL    HW132817   1.489   7.822   5.887
 7606SOL    HW232818   1.476   7.810   6.050
 7607SOL     OW32819   4.568   1.409   3.633
 7607SOL    HW132820   4.629   1.421   3.711
 7607SOL    HW232821   4.476   1.388   3.666
 7608SOL     OW32822   1.621   5.513   3.436
 7608SOL    HW132823   1.523   5.518   3.419
 7608SOL    HW232824   1.663   5.602   3.421
 7609SOL     OW32825   1.910   5.894   0.144
 7609SOL    HW132826   1.907   5.801   0.109
 7609SOL    HW232827   1.866   5.899   0.233
 7610SOL     OW32828   5.045   4.112   2.217
 7610SOL    HW132829   4.986   4.032   2.233
 7610SOL    HW232830   5.025   4.183   2.284
 7611SOL     OW32831   1.697   1.935   5.437
 7611SOL    HW132832   1.600   1.912   5.428
 7611SOL    HW232833   1.713   2.028   5.406
 7612SOL     OW32834   6.724   5.870   2.370
 7612SOL    HW132835   6.819   5.872   2.403
 7612SOL    HW232836   6.665   5.920   2.433
 7613SOL     OW32837   2.581   0.021   4.601
 7613SOL    HW132838   2.668  -0.011   4.561
 7613SOL    HW232839   2.576  -0.007   4.697
 7614SOL     OW32840   6.201   3.708   5.747
 7614SOL    HW132841   6.285   3.657   5.764
 7614SOL    HW232842   6.185   3.716   5.649
 7615SOL     OW32843   3.187   3.248   7.789
 7615SOL    HW132844   3.204   3.184   7.864
 7615SOL    HW232845   3.272   3.292   7.761
 7616SOL     OW32846   3.750   6.159   2.727
 7616SOL    HW132847   3.777   6.232   2.790
 7616SOL    HW232848   3.689   6.196   2.657
 7617SOL     OW32849   6.363   2.664   7.269
 7617SOL    HW132850   6.326   2.748   7.309
 7617SOL    HW232851   6.401   2.605   7.340
 7618SOL     OW32852   2.109   6.554   4.498
 7618SOL    HW132853   2.179   6.504   4.550
 7618SOL    HW232854   2.142   6.571   4.405
 7619SOL     OW32855   6.435   3.787   6.207
 7619SOL    HW132856   6.371   3.716   6.179
 7619SOL    HW232857   6.404   3.828   6.293
 7620SOL     OW32858   2.892   5.366   6.139
 7620SOL    HW132859   2.816   5.431   6.133
 7620SOL    HW232860   2.875   5.300   6.212
 7621SOL     OW32861   4.954   2.900   2.415
 7621SOL    HW132862   4.871   2.893   2.360
 7621SOL    HW232863   4.933   2.883   2.511
 7622SOL     OW32864   5.085   1.791   1.099
 7622SOL    HW132865   5.039   1.751   1.179
 7622SOL    HW232866   5.182   1.769   1.101
 7623SOL     OW32867   3.550   6.909   6.715
 7623SOL    HW132868   3.503   6.991   6.751
 7623SOL    HW232869   3.517   6.888   6.624
 7624SOL     OW32870   7.547   1.588   1.026
 7624SOL    HW132871   7.472   1.563   1.087
 7624SOL    HW232872   7.511   1.605   0.934
 7625SOL     OW32873   4.035   2.676   7.349
 7625SOL    HW132874   3.965   2.612   7.317
 7625SOL    HW232875   4.014   2.706   7.442
 7626SOL     OW32876   7.460   4.076   6.940
 7626SOL    HW132877   7.449   3.988   6.988
 7626SOL    HW232878   7.507   4.061   6.853
 7627SOL     OW32879   4.428   2.308   6.618
 7627SOL    HW132880   4.383   2.345   6.536
 7627SOL    HW232881   4.520   2.346   6.626
 7628SOL     OW32882   7.332   6.278   5.650
 7628SOL    HW132883   7.245   6.299   5.695
 7628SOL    HW232884   7.358   6.183   5.670
 7629SOL     OW32885   5.432   4.135   2.260
 7629SOL    HW132886   5.496   4.197   2.215
 7629SOL    HW232887   5.468   4.109   2.350
 7630SOL     OW32888   4.599   1.506   0.952
 7630SOL    HW132889   4.699   1.507   0.947
 7630SOL    HW232890   4.561   1.461   0.872
 7631SOL     OW32891   4.915   4.149   6.236
 7631SOL    HW132892   4.955   4.098   6.312
 7631SOL    HW232893   4.987   4.172   6.170
 7632SOL     OW32894   1.453   7.576   7.657
 7632SOL    HW132895   1.430   7.654   7.715
 7632SOL    HW232896   1.457   7.493   7.713
 7633SOL     OW32897   6.922   1.307   0.273
 7633SOL    HW132898   6.991   1.379   0.278
 7633SOL    HW232899   6.949   1.239   0.206
 7634SOL     OW32900   2.340   7.250   4.512
 7634SOL    HW132901   2.250   7.239   4.554
 7634SOL    HW232902   2.363   7.347   4.504
 7635SOL     OW32903   7.284   5.400   3.327
 7635SOL    HW132904   7.291   5.314   3.277
 7635SOL    HW232905   7.265   5.383   3.423
 7636SOL     OW32906   3.769   4.064   7.055
 7636SOL    HW132907   3.787   4.161   7.071
 7636SOL    HW232908   3.677   4.041   7.085
 7637SOL     OW32909   2.561   3.301   2.292
 7637SOL    HW132910   2.621   3.354   2.351
 7637SOL    HW232911   2.566   3.204   2.317
 7638SOL     OW32912   1.591   3.906   7.453
 7638SOL    HW132913   1.674   3.858   7.423
 7638SOL    HW232914   1.534   3.843   7.507
 7639SOL     OW32915   3.399   0.330   0.724
 7639SOL    HW132916   3.465   0.255   0.727
 7639SOL    HW232917   3.351   0.329   0.636
 7640SOL     OW32918   5.782   0.086   4.392
 7640SOL    HW132919   5.811   0.160   4.333
 7640SOL    HW232920   5.848   0.074   4.467
 7641SOL     OW32921   4.879   4.642   5.187
 7641SOL    HW132922   4.881   4.734   5.148
 7641SOL    HW232923   4.930   4.579   5.128
 7642SOL     OW32924   7.477   4.291   4.098
 7642SOL    HW132925   7.554   4.301   4.035
 7642SOL    HW232926   7.497   4.340   4.183
 7643SOL     OW32927   3.011   3.975   5.591
 7643SOL    HW132928   2.960   3.943   5.672
 7643SOL    HW232929   2.950   3.977   5.512
 7644SOL     OW32930   1.803   2.066   0.983
 7644SOL    HW132931   1.893   2.055   1.026
 7644SOL    HW232932   1.745   1.986   1.003
 7645SOL     OW32933   3.934   1.693   5.035
 7645SOL    HW132934   3.910   1.784   5.069
 7645SOL    HW232935   3.858   1.630   5.048
 7646SOL     OW32936   6.111   5.752   0.513
 7646SOL    HW132937   6.183   5.779   0.448
 7646SOL    HW232938   6.038   5.703   0.465
 7647SOL     OW32939   0.329   7.349   2.439
 7647SOL    HW132940   0.308   7.427   2.380
 7647SOL    HW232941   0.279   7.358   2.525
 7648SOL     OW32942   5.065   2.762   2.103
 7648SOL    HW132943   5.147   2.738   2.156
 7648SOL    HW232944   5.067   2.859   2.081
 7649SOL     OW32945   4.901   3.052   2.975
 7649SOL    HW132946   4.891   2.952   2.976
 7649SOL    HW232947   4.936   3.082   2.886
 7650SOL     OW32948   5.547   6.099   1.683
 7650SOL    HW132949   5.573   6.147   1.599
 7650SOL    HW232950   5.463   6.047   1.667
 7651SOL     OW32951   6.702   0.107   4.948
 7651SOL    HW132952   6.727   0.202   4.969
 7651SOL    HW232953   6.631   0.106   4.877
 7652SOL     OW32954   7.878   1.879   6.628
 7652SOL    HW132955   7.955   1.840   6.678
 7652SOL    HW232956   7.792   1.846   6.666
 7653SOL     OW32957   3.312   1.163   5.780
 7653SOL    HW132958   3.237   1.160   5.714
 7653SOL    HW232959   3.313   1.252   5.826
 7654SOL     OW32960   7.306   5.072   2.596
 7654SOL    HW132961   7.394   5.025   2.604
 7654SOL    HW232962   7.256   5.037   2.517
 7655SOL     OW32963   6.826   2.897   1.636
 7655SOL    HW132964   6.811   2.984   1.682
 7655SOL    HW232965   6.786   2.899   1.544
 7656SOL     OW32966   1.347   3.728   5.721
 7656SOL    HW132967   1.407   3.783   5.779
 7656SOL    HW232968   1.266   3.700   5.773
 7657SOL     OW32969   6.834   4.062   0.892
 7657SOL    HW132970   6.846   3.989   0.959
 7657SOL    HW232971   6.815   4.023   0.802
 7658SOL     OW32972   5.702   0.518   0.701
 7658SOL    HW132973   5.734   0.431   0.737
 7658SOL    HW232974   5.632   0.504   0.631
 7659SOL     OW32975   6.291   4.531   6.083
 7659SOL    HW132976   6.391   4.527   6.083
 7659SOL    HW232977   6.254   4.460   6.142
 7660SOL     OW32978   2.368   4.694   7.424
 7660SOL    HW132979   2.462   4.729   7.419
 7660SOL    HW232980   2.368   4.599   7.455
 7661SOL     OW32981   3.834   3.818   0.930
 7661SOL    HW132982   3.892   3.770   0.865
 7661SOL    HW232983   3.883   3.897   0.968
 7662SOL     OW32984   6.212   1.234   0.575
 7662SOL    HW132985   6.295   1.188   0.607
 7662SOL    HW232986   6.231   1.284   0.490
 7663SOL     OW32987   4.441   3.684   2.143
 7663SOL    HW132988   4.476   3.648   2.055
 7663SOL    HW232989   4.518   3.710   2.202
 7664SOL     OW32990   6.006   5.346   1.429
 7664SOL    HW132991   5.963   5.429   1.465
 7664SOL    HW232992   6.091   5.328   1.477
 7665SOL     OW32993   2.222   4.791   1.442
 7665SOL    HW132994   2.300   4.841   1.480
 7665SOL    HW232995   2.202   4.824   1.350
 7666SOL     OW32996   3.692   5.070   3.860
 7666SOL    HW132997   3.779   5.031   3.828
 7666SOL    HW232998   3.677   5.044   3.956
 7667SOL     OW32999   0.023   3.924   6.226
 7667SOL    HW133000   0.075   3.867   6.163
 7667SOL    HW233001   0.023   3.884   6.317
 7668SOL     OW33002   3.883   4.225   2.478
 7668SOL    HW133003   3.797   4.275   2.475
 7668SOL    HW233004   3.950   4.274   2.534
 7669SOL     OW33005   1.883   3.148   6.969
 7669SOL    HW133006   1.853   3.138   6.874
 7669SOL    HW233007   1.936   3.068   6.997
 7670SOL     OW33008   0.567   1.751   4.786
 7670SOL    HW133009   0.640   1.682   4.791
 7670SOL    HW233010   0.479   1.706   4.773
 7671SOL     OW33011   1.363   6.406   4.527
 7671SOL    HW133012   1.459   6.378   4.521
 7671SOL    HW233013   1.303   6.326   4.522
 7672SOL     OW33014   5.573   5.005   1.600
 7672SOL    HW133015   5.525   4.940   1.540
 7672SOL    HW233016   5.543   5.098   1.579
 7673SOL     OW33017   3.470   3.127   3.491
 7673SOL    HW133018   3.462   3.163   3.397
 7673SOL    HW233019   3.458   3.201   3.557
 7674SOL     OW33020   2.989   3.004   7.956
 7674SOL    HW133021   3.059   2.932   7.963
 7674SOL    HW233022   3.013   3.067   7.882
 7675SOL     OW33023   4.193   2.842   3.949
 7675SOL    HW133024   4.241   2.823   4.034
 7675SOL    HW233025   4.095   2.829   3.961
 7676SOL     OW33026   3.755   0.507   7.329
 7676SOL    HW133027   3.838   0.564   7.332
 7676SOL    HW233028   3.686   0.544   7.391
 7677SOL     OW33029   3.660   2.002   7.634
 7677SOL    HW133030   3.650   2.032   7.729
 7677SOL    HW233031   3.711   2.070   7.581
 7678SOL     OW33032   7.068   0.090   7.902
 7678SOL    HW133033   7.011   0.032   7.843
 7678SOL    HW233034   7.012   0.159   7.947
 7679SOL     OW33035   2.258   1.673   7.542
 7679SOL    HW133036   2.219   1.598   7.488
 7679SOL    HW233037   2.191   1.706   7.608
 7680SOL     OW33038   5.710   3.243   0.627
 7680SOL    HW133039   5.774   3.201   0.563
 7680SOL    HW233040   5.753   3.252   0.717
 7681SOL     OW33041   2.846   6.601   3.299
 7681SOL    HW133042   2.838   6.615   3.200
 7681SOL    HW233043   2.876   6.685   3.343
 7682SOL     OW33044   5.372   2.671   6.737
 7682SOL    HW133045   5.302   2.601   6.719
 7682SOL    HW233046   5.407   2.706   6.650
 7683SOL     OW33047   3.782   3.748   2.604
 7683SOL    HW133048   3.876   3.725   2.578
 7683SOL    HW233049   3.762   3.711   2.695
 7684SOL     OW33050   6.260   1.069   3.029
 7684SOL    HW133051   6.274   1.005   3.105
 7684SOL    HW233052   6.317   1.042   2.951
 7685SOL     OW33053   4.910   2.277   6.308
 7685SOL    HW133054   4.981   2.238   6.249
 7685SOL    HW233055   4.831   2.303   6.253
 7686SOL     OW33056   5.431   4.360   6.515
 7686SOL    HW133057   5.354   4.415   6.480
 7686SOL    HW233058   5.429   4.269   6.473
 7687SOL     OW33059   1.662   3.972   6.079
 7687SOL    HW133060   1.667   3.879   6.042
 7687SOL    HW233061   1.623   3.970   6.172
 7688SOL     OW33062   1.697   7.088   0.847
 7688SOL    HW133063   1.644   7.163   0.887
 7688SOL    HW233064   1.658   7.000   0.874
 7689SOL     OW33065   7.163   0.036   5.859
 7689SOL    HW133066   7.196   0.087   5.939
 7689SOL    HW233067   7.224   0.051   5.782
 7690SOL     OW33068   2.766   0.010   6.215
 7690SOL    HW133069   2.787   0.089   6.273
 7690SOL    HW233070   2.765   0.037   6.119
 7691SOL     OW33071   7.839   0.856   0.202
 7691SOL    HW133072   7.901   0.899   0.136
 7691SOL    HW233073   7.832   0.758   0.183
 7692SOL     OW33074   1.371   2.667   0.954
 7692SOL    HW133075   1.282   2.660   0.911
 7692SOL    HW233076   1.371   2.738   1.024
 7693SOL     OW33077   5.261   4.299   5.152
 7693SOL    HW133078   5.299   4.255   5.069
 7693SOL    HW233079   5.276   4.397   5.147
 7694SOL     OW33080   2.699   1.972   2.865
 7694SOL    HW133081   2.601   1.953   2.869
 7694SOL    HW233082   2.732   1.959   2.771
 7695SOL     OW33083   0.422   0.361   7.265
 7695SOL    HW133084   0.432   0.441   7.325
 7695SOL    HW233085   0.354   0.379   7.194
 7696SOL     OW33086   4.286   0.609   4.081
 7696SOL    HW133087   4.221   0.533   4.088
 7696SOL    HW233088   4.295   0.654   4.170
 7697SOL     OW33089   4.727   0.219   5.284
 7697SOL    HW133090   4.637   0.203   5.325
 7697SOL    HW233091   4.727   0.185   5.190
 7698SOL     OW33092   3.462   0.918   0.039
 7698SOL    HW133093   3.480   0.852   0.112
 7698SOL    HW233094   3.365   0.921   0.018
 7699SOL     OW33095   3.668   1.578   3.788
 7699SOL    HW133096   3.657   1.494   3.840
 7699SOL    HW233097   3.579   1.612   3.758
 7700SOL     OW33098   0.004   5.862   4.966
 7700SOL    HW133099   0.055   5.930   5.018
 7700SOL    HW233100   0.057   5.834   4.885
 7701SOL     OW33101   7.802   0.773   4.287
 7701SOL    HW133102   7.756   0.786   4.374
 7701SOL    HW233103   7.754   0.704   4.232
 7702SOL     OW33104   5.094   1.841   5.161
 7702SOL    HW133105   5.040   1.924   5.179
 7702SOL    HW233106   5.191   1.861   5.169
 7703SOL     OW33107   2.504   7.622   3.757
 7703SOL    HW133108   2.506   7.722   3.751
 7703SOL    HW233109   2.581   7.589   3.811
 7704SOL     OW33110   7.801   2.251   4.277
 7704SOL    HW133111   7.807   2.270   4.179
 7704SOL    HW233112   7.885   2.279   4.322
 7705SOL     OW33113   2.498   7.051   6.889
 7705SOL    HW133114   2.405   7.088   6.886
 7705SOL    HW233115   2.562   7.116   6.847
 7706SOL     OW33116   5.398   4.100   3.115
 7706SOL    HW133117   5.435   4.010   3.091
 7706SOL    HW233118   5.351   4.140   3.036
 7707SOL     OW33119   4.767   1.745   6.584
 7707SOL    HW133120   4.683   1.704   6.547
 7707SOL    HW233121   4.845   1.719   6.528
 7708SOL     OW33122   4.018   1.390   4.961
 7708SOL    HW133123   4.005   1.299   5.000
 7708SOL    HW233124   4.058   1.383   4.870
 7709SOL     OW33125   3.141   3.172   2.478
 7709SOL    HW133126   3.062   3.114   2.457
 7709SOL    HW233127   3.158   3.171   2.577
 7710SOL     OW33128   7.434   2.057   6.645
 7710SOL    HW133129   7.508   2.053   6.578
 7710SOL    HW233130   7.353   2.011   6.608
 7711SOL     OW33131   1.772   6.824   7.875
 7711SOL    HW133132   1.830   6.747   7.901
 7711SOL    HW233133   1.827   6.908   7.871
 7712SOL     OW33134   4.974   0.052   4.295
 7712SOL    HW133135   5.052   0.115   4.303
 7712SOL    HW233136   4.944   0.024   4.386
 7713SOL     OW33137   2.298   3.229   6.170
 7713SOL    HW133138   2.288   3.132   6.147
 7713SOL    HW233139   2.303   3.240   6.269
 7714SOL     OW33140   4.991   3.793   7.430
 7714SOL    HW133141   5.042   3.847   7.498
 7714SOL    HW233142   4.903   3.765   7.468
 7715SOL     OW33143   0.044   5.743   7.180
 7715SOL    HW133144   0.038   5.816   7.249
 7715SOL    HW233145  -0.045   5.730   7.137
 7716SOL     OW33146   7.732   3.939   2.596
 7716SOL    HW133147   7.820   3.982   2.576
 7716SOL    HW233148   7.736   3.841   2.576
 7717SOL     OW33149   0.030   3.728   5.546
 7717SOL    HW133150  -0.020   3.698   5.464
 7717SOL    HW233151   0.116   3.770   5.520
 7718SOL     OW33152   6.425   6.131   6.199
 7718SOL    HW133153   6.364   6.202   6.164
 7718SOL    HW233154   6.429   6.135   6.299
 7719SOL     OW33155   6.880   7.001   1.607
 7719SOL    HW133156   6.874   7.100   1.592
 7719SOL    HW233157   6.831   6.975   1.689
 7720SOL     OW33158   1.969   7.174   3.658
 7720SOL    HW133159   1.939   7.079   3.667
 7720SOL    HW233160   1.892   7.236   3.665
 7721SOL     OW33161   3.293   4.134   4.466
 7721SOL    HW133162   3.371   4.072   4.470
 7721SOL    HW233163   3.209   4.082   4.446
 7722SOL     OW33164   3.779   4.789   1.959
 7722SOL    HW133165   3.831   4.854   2.014
 7722SOL    HW233166   3.834   4.709   1.939
 7723SOL     OW33167   1.794   3.243   3.561
 7723SOL    HW133168   1.879   3.191   3.570
 7723SOL    HW233169   1.767   3.280   3.650
 7724SOL     OW33170   0.235   4.973   4.994
 7724SOL    HW133171   0.327   5.007   4.973
 7724SOL    HW233172   0.228   4.954   5.092
 7725SOL     OW33173   5.177   0.195   4.696
 7725SOL    HW133174   5.209   0.270   4.755
 7725SOL    HW233175   5.084   0.215   4.665
 7726SOL     OW33176   3.173   4.249   0.229
 7726SOL    HW133177   3.191   4.337   0.185
 7726SOL    HW233178   3.130   4.264   0.318
 7727SOL     OW33179   1.858   2.391   7.618
 7727SOL    HW133180   1.785   2.444   7.575
 7727SOL    HW233181   1.868   2.416   7.714
 7728SOL     OW33182   5.237   2.538   6.519
 7728SOL    HW133183   5.215   2.611   6.454
 7728SOL    HW233184   5.295   2.469   6.474
 7729SOL     OW33185   4.111   1.106   2.156
 7729SOL    HW133186   4.155   1.053   2.229
 7729SOL    HW233187   4.023   1.066   2.132
 7730SOL     OW33188   3.949   0.346   0.097
 7730SOL    HW133189   3.981   0.292   0.019
 7730SOL    HW233190   3.957   0.294   0.181
 7731SOL     OW33191   0.803   7.755   5.257
 7731SOL    HW133192   0.748   7.790   5.182
 7731SOL    HW233193   0.782   7.804   5.341
 7732SOL     OW33194   4.649   3.512   3.646
 7732SOL    HW133195   4.709   3.551   3.716
 7732SOL    HW233196   4.620   3.583   3.582
 7733SOL     OW33197   4.684   6.771   7.358
 7733SOL    HW133198   4.627   6.840   7.315
 7733SOL    HW233199   4.776   6.773   7.320
 7734SOL     OW33200   0.729   2.172   5.899
 7734SOL    HW133201   0.662   2.240   5.931
 7734SOL    HW233202   0.717   2.156   5.801
 7735SOL     OW33203   3.904   7.643   6.291
 7735SOL    HW133204   3.949   7.689   6.367
 7735SOL    HW233205   3.939   7.677   6.204
 7736SOL     OW33206   3.207   1.664   6.983
 7736SOL    HW133207   3.299   1.627   6.976
 7736SOL    HW233208   3.183   1.679   7.079
 7737SOL     OW33209   2.051   7.372   3.117
 7737SOL    HW133210   2.001   7.316   3.183
 7737SOL    HW233211   1.986   7.420   3.058
 7738SOL     OW33212   0.232   3.147   7.501
 7738SOL    HW133213   0.204   3.237   7.537
 7738SOL    HW233214   0.204   3.139   7.406
 7739SOL     OW33215   4.399   2.681   4.094
 7739SOL    HW133216   4.491   2.714   4.074
 7739SOL    HW233217   4.401   2.623   4.176
 7740SOL     OW33218   2.682   3.527   1.598
 7740SOL    HW133219   2.693   3.627   1.603
 7740SOL    HW233220   2.772   3.483   1.600
 7741SOL     OW33221   3.639   3.545   1.758
 7741SOL    HW133222   3.733   3.531   1.725
 7741SOL    HW233223   3.619   3.642   1.763
 7742SOL     OW33224   1.817   1.258   1.395
 7742SOL    HW133225   1.856   1.337   1.442
 7742SOL    HW233226   1.868   1.241   1.311
 7743SOL     OW33227   1.827   6.981   2.185
 7743SOL    HW133228   1.779   7.065   2.158
 7743SOL    HW233229   1.793   6.904   2.132
 7744SOL     OW33230   5.037   1.829   2.343
 7744SOL    HW133231   4.947   1.841   2.385
 7744SOL    HW233232   5.039   1.874   2.254
 7745SOL     OW33233   0.890   3.232   4.193
 7745SOL    HW133234   0.804   3.192   4.161
 7745SOL    HW233235   0.953   3.245   4.116
 7746SOL     OW33236   5.530   4.258   3.585
 7746SOL    HW133237   5.497   4.254   3.490
 7746SOL    HW233238   5.453   4.261   3.648
 7747SOL     OW33239   5.052   2.247   6.629
 7747SOL    HW133240   5.032   2.345   6.622
 7747SOL    HW233241   5.101   2.217   6.547
 7748SOL     OW33242   1.667   1.454   6.038
 7748SOL    HW133243   1.658   1.362   5.998
 7748SOL    HW233244   1.632   1.455   6.131
 7749SOL     OW33245   0.702   7.594   5.816
 7749SOL    HW133246   0.639   7.517   5.800
 7749SOL    HW233247   0.749   7.583   5.904
 7750SOL     OW33248   5.157   4.511   1.657
 7750SOL    HW133249   5.120   4.598   1.690
 7750SOL    HW233250   5.194   4.522   1.565
 7751SOL     OW33251   4.433   7.719   6.331
 7751SOL    HW133252   4.455   7.707   6.428
 7751SOL    HW233253   4.398   7.811   6.315
 7752SOL     OW33254   6.824   6.766   6.043
 7752SOL    HW133255   6.904   6.761   6.103
 7752SOL    HW233256   6.831   6.696   5.972
 7753SOL     OW33257   2.150   0.726   1.615
 7753SOL    HW133258   2.137   0.812   1.666
 7753SOL    HW233259   2.134   0.648   1.675
 7754SOL     OW33260   5.447   4.673   3.628
 7754SOL    HW133261   5.454   4.642   3.722
 7754SOL    HW233262   5.517   4.742   3.609
 7755SOL     OW33263   6.010   3.743   7.390
 7755SOL    HW133264   5.938   3.812   7.392
 7755SOL    HW233265   6.030   3.717   7.296
 7756SOL     OW33266   4.363   1.727   7.262
 7756SOL    HW133267   4.384   1.729   7.360
 7756SOL    HW233268   4.427   1.666   7.216
 7757SOL     OW33269   4.829   1.524   5.051
 7757SOL    HW133270   4.860   1.429   5.049
 7757SOL    HW233271   4.892   1.580   5.105
 7758SOL     OW33272   7.068   2.985   5.563
 7758SOL    HW133273   7.119   2.957   5.481
 7758SOL    HW233274   7.079   3.083   5.578
 7759SOL     OW33275   6.963   3.990   1.348
 7759SOL    HW133276   7.048   4.029   1.385
 7759SOL    HW233277   6.946   4.027   1.257
 7760SOL     OW33278   3.946   5.098   7.932
 7760SOL    HW133279   3.875   5.027   7.932
 7760SOL    HW233280   3.943   5.149   8.018
 7761SOL     OW33281   4.681   7.762   2.042
 7761SOL    HW133282   4.586   7.769   2.072
 7761SOL    HW233283   4.717   7.852   2.019
 7762SOL     OW33284   3.356   5.630   7.224
 7762SOL    HW133285   3.375   5.728   7.228
 7762SOL    HW233286   3.288   5.605   7.293
 7763SOL     OW33287   0.390   6.203   5.603
 7763SOL    HW133288   0.417   6.297   5.581
 7763SOL    HW233289   0.290   6.197   5.608
 7764SOL     OW33290   4.853   3.744   6.504
 7764SOL    HW133291   4.912   3.823   6.487
 7764SOL    HW233292   4.904   3.673   6.552
 7765SOL     OW33293   0.917   2.311   2.068
 7765SOL    HW133294   0.890   2.330   2.162
 7765SOL    HW233295   0.837   2.315   2.008
 7766SOL     OW33296   7.063   4.071   7.293
 7766SOL    HW133297   6.965   4.060   7.304
 7766SOL    HW233298   7.104   4.106   7.377
 7767SOL     OW33299   2.819   4.008   4.350
 7767SOL    HW133300   2.761   3.934   4.316
 7767SOL    HW233301   2.786   4.038   4.440
 7768SOL     OW33302   0.485   6.307   1.725
 7768SOL    HW133303   0.426   6.383   1.699
 7768SOL    HW233304   0.430   6.229   1.753
 7769SOL     OW33305   1.804   0.138   1.556
 7769SOL    HW133306   1.840   0.122   1.648
 7769SOL    HW233307   1.718   0.088   1.544
 7770SOL     OW33308   0.152   6.620   4.484
 7770SOL    HW133309   0.244   6.625   4.524
 7770SOL    HW233310   0.149   6.548   4.415
 7771SOL     OW33311   7.089   4.353   5.052
 7771SOL    HW133312   7.028   4.432   5.061
 7771SOL    HW233313   7.160   4.356   5.122
 7772SOL     OW33314   6.713   4.073   2.432
 7772SOL    HW133315   6.760   4.066   2.344
 7772SOL    HW233316   6.647   3.998   2.442
 7773SOL     OW33317   5.946   6.306   1.564
 7773SOL    HW133318   5.847   6.301   1.577
 7773SOL    HW233319   5.970   6.270   1.474
 7774SOL     OW33320   2.049   2.161   2.059
 7774SOL    HW133321   2.090   2.127   2.144
 7774SOL    HW233322   1.949   2.154   2.065
 7775SOL     OW33323   3.327   3.109   1.678
 7775SOL    HW133324   3.418   3.093   1.718
 7775SOL    HW233325   3.337   3.140   1.584
 7776SOL     OW33326   6.746   1.342   2.160
 7776SOL    HW133327   6.663   1.389   2.192
 7776SOL    HW233328   6.721   1.275   2.090
 7777SOL     OW33329   2.285   0.690   5.461
 7777SOL    HW133330   2.231   0.734   5.533
 7777SOL    HW233331   2.234   0.688   5.375
 7778SOL     OW33332   0.336   5.514   3.702
 7778SOL    HW133333   0.434   5.505   3.682
 7778SOL    HW233334   0.283   5.517   3.618
 7779SOL     OW33335   4.575   4.700   4.120
 7779SOL    HW133336   4.561   4.716   4.218
 7779SOL    HW233337   4.560   4.786   4.070
 7780SOL     OW33338   3.687   4.779   5.755
 7780SOL    HW133339   3.716   4.848   5.689
 7780SOL    HW233340   3.733   4.794   5.842
 7781SOL     OW33341   5.042   5.556   3.330
 7781SOL    HW133342   4.998   5.583   3.415
 7781SOL    HW233343   4.995   5.597   3.252
 7782SOL     OW33344   0.076   1.914   4.655
 7782SOL    HW133345  -0.014   1.914   4.613
 7782SOL    HW233346   0.074   1.963   4.742
 7783SOL     OW33347   6.501   7.090   2.764
 7783SOL    HW133348   6.474   7.008   2.713
 7783SOL    HW233349   6.593   7.118   2.738
 7784SOL     OW33350   3.651   1.099   0.519
 7784SOL    HW133351   3.637   1.195   0.494
 7784SOL    HW233352   3.563   1.056   0.539
 7785SOL     OW33353   0.576   3.604   2.415
 7785SOL    HW133354   0.582   3.520   2.469
 7785SOL    HW233355   0.624   3.591   2.328
 7786SOL     OW33356   3.914   5.193   0.235
 7786SOL    HW133357   3.836   5.166   0.178
 7786SOL    HW233358   3.916   5.140   0.319
 7787SOL     OW33359   4.312   1.054   0.776
 7787SOL    HW133360   4.341   0.982   0.713
 7787SOL    HW233361   4.363   1.047   0.862
 7788SOL     OW33362   5.885   1.358   4.776
 7788SOL    HW133363   5.967   1.383   4.828
 7788SOL    HW233364   5.884   1.406   4.689
 7789SOL     OW33365   5.900   7.744   0.111
 7789SOL    HW133366   5.937   7.658   0.075
 7789SOL    HW233367   5.871   7.731   0.206
 7790SOL     OW33368   3.359   0.500   6.682
 7790SOL    HW133369   3.260   0.514   6.686
 7790SOL    HW233370   3.389   0.450   6.764
 7791SOL     OW33371   6.196   3.488   1.718
 7791SOL    HW133372   6.212   3.573   1.669
 7791SOL    HW233373   6.144   3.424   1.661
 7792SOL     OW33374   4.949   5.382   0.758
 7792SOL    HW133375   4.864   5.328   0.763
 7792SOL    HW233376   5.028   5.321   0.760
 7793SOL     OW33377   0.722   2.270   2.526
 7793SOL    HW133378   0.684   2.349   2.477
 7793SOL    HW233379   0.779   2.302   2.601
 7794SOL     OW33380   0.939   7.635   5.402
 7794SOL    HW133381   0.987   7.655   5.487
 7794SOL    HW233382   0.960   7.542   5.371
 7795SOL     OW33383   1.813   1.343   0.635
 7795SOL    HW133384   1.846   1.337   0.730
 7795SOL    HW233385   1.793   1.251   0.601
 7796SOL     OW33386   5.509   2.111   6.323
 7796SOL    HW133387   5.544   2.092   6.415
 7796SOL    HW233388   5.497   2.210   6.311
 7797SOL     OW33389   6.700   3.733   0.615
 7797SOL    HW133390   6.733   3.799   0.548
 7797SOL    HW233391   6.621   3.770   0.663
 7798SOL     OW33392   4.413   7.735   5.319
 7798SOL    HW133393   4.441   7.644   5.348
 7798SOL    HW233394   4.452   7.757   5.230
 7799SOL     OW33395   4.064   3.194   0.132
 7799SOL    HW133396   4.031   3.142   0.054
 7799SOL    HW233397   4.011   3.171   0.214
 7800SOL     OW33398   3.381   4.207   2.026
 7800SOL    HW133399   3.308   4.274   2.010
 7800SOL    HW233400   3.413   4.170   1.938
 7801SOL     OW33401   0.319   1.611   4.457
 7801SOL    HW133402   0.293   1.694   4.507
 7801SOL    HW233403   0.278   1.611   4.366
 7802SOL     OW33404   2.469   0.273   0.557
 7802SOL    HW133405   2.446   0.368   0.579
 7802SOL    HW233406   2.518   0.268   0.470
 7803SOL     OW33407   2.300   6.204   6.020
 7803SOL    HW133408   2.333   6.241   5.933
 7803SOL    HW233409   2.280   6.107   6.009
 7804SOL     OW33410   3.548   7.568   6.799
 7804SOL    HW133411   3.545   7.468   6.794
 7804SOL    HW233412   3.464   7.608   6.762
 7805SOL     OW33413   2.765   6.692   0.187
 7805SOL    HW133414   2.817   6.664   0.267
 7805SOL    HW233415   2.682   6.637   0.179
 7806SOL     OW33416   0.095   4.552   3.103
 7806SOL    HW133417   0.145   4.630   3.065
 7806SOL    HW233418   0.053   4.499   3.029
 7807SOL     OW33419   7.494   6.542   4.759
 7807SOL    HW133420   7.569   6.550   4.826
 7807SOL    HW233421   7.408   6.569   4.801
 7808SOL     OW33422   3.214   0.984   7.384
 7808SOL    HW133423   3.259   1.013   7.469
 7808SOL    HW233424   3.119   0.960   7.402
 7809SOL     OW33425   5.338   2.200   3.008
 7809SOL    HW133426   5.262   2.257   3.041
 7809SOL    HW233427   5.365   2.135   3.078
 7810SOL     OW33428   6.058   4.588   4.960
 7810SOL    HW133429   6.122   4.516   4.934
 7810SOL    HW233430   5.999   4.613   4.883
 7811SOL     OW33431   3.293   5.881   7.093
 7811SOL    HW133432   3.202   5.840   7.100
 7811SOL    HW233433   3.305   5.950   7.165
 7812SOL     OW33434   2.495   4.049   5.514
 7812SOL    HW133435   2.567   4.051   5.583
 7812SOL    HW233436   2.419   3.992   5.545
 7813SOL     OW33437   1.505   4.045   0.676
 7813SOL    HW133438   1.570   4.118   0.653
 7813SOL    HW233439   1.544   3.987   0.747
 7814SOL     OW33440   2.592   3.955   0.981
 7814SOL    HW133441   2.686   3.945   1.015
 7814SOL    HW233442   2.593   3.992   0.888
 7815SOL     OW33443   6.785   5.696   6.650
 7815SOL    HW133444   6.725   5.663   6.576
 7815SOL    HW233445   6.866   5.638   6.657
 7816SOL     OW33446   5.637   3.514   4.810
 7816SOL    HW133447   5.549   3.485   4.773
 7816SOL    HW233448   5.693   3.553   4.736
 7817SOL     OW33449   4.982   2.689   1.196
 7817SOL    HW133450   5.077   2.717   1.211
 7817SOL    HW233451   4.966   2.601   1.240
 7818SOL     OW33452   1.638   6.374   6.550
 7818SOL    HW133453   1.657   6.415   6.639
 7818SOL    HW233454   1.539   6.374   6.533
 7819SOL     OW33455   2.548   6.726   4.322
 7819SOL    HW133456   2.527   6.764   4.232
 7819SOL    HW233457   2.491   6.646   4.339
 7820SOL     OW33458   1.075   5.443   7.941
 7820SOL    HW133459   1.073   5.532   7.987
 7820SOL    HW233460   0.982   5.413   7.919
 7821SOL     OW33461   4.470   2.893   4.343
 7821SOL    HW133462   4.545   2.956   4.327
 7821SOL    HW233463   4.505   2.805   4.375
 7822SOL     OW33464   2.602   3.403   6.051
 7822SOL    HW133465   2.568   3.418   6.144
 7822SOL    HW233466   2.691   3.358   6.054
 7823SOL     OW33467   7.560   4.921   6.337
 7823SOL    HW133468   7.567   5.021   6.332
 7823SOL    HW233469   7.651   4.881   6.342
 7824SOL     OW33470   6.070   0.806   5.536
 7824SOL    HW133471   5.975   0.792   5.564
 7824SOL    HW233472   6.083   0.772   5.443
 7825SOL     OW33473   4.873   1.554   3.292
 7825SOL    HW133474   4.951   1.493   3.276
 7825SOL    HW233475   4.811   1.513   3.359
 7826SOL     OW33476   7.842   7.601   2.010
 7826SOL    HW133477   7.917   7.556   2.060
 7826SOL    HW233478   7.872   7.625   1.918
 7827SOL     OW33479   3.888   2.400   7.975
 7827SOL    HW133480   3.802   2.428   8.018
 7827SOL    HW233481   3.882   2.411   7.876
 7828SOL     OW33482   4.015   4.714   4.838
 7828SOL    HW133483   3.935   4.750   4.887
 7828SOL    HW233484   4.078   4.673   4.903
 7829SOL     OW33485   0.135   1.868   2.585
 7829SOL    HW133486   0.129   1.826   2.676
 7829SOL    HW233487   0.055   1.925   2.569
 7830SOL     OW33488   6.354   6.269   4.997
 7830SOL    HW133489   6.313   6.244   4.910
 7830SOL    HW233490   6.357   6.190   5.058
 7831SOL     OW33491   6.230   0.870   0.148
 7831SOL    HW133492   6.197   0.959   0.116
 7831SOL    HW233493   6.170   0.797   0.115
 7832SOL     OW33494   4.674   1.062   6.076
 7832SOL    HW133495   4.587   1.013   6.082
 7832SOL    HW233496   4.723   1.033   5.994
 7833SOL     OW33497   2.733   0.402   0.360
 7833SOL    HW133498   2.831   0.415   0.345
 7833SOL    HW233499   2.704   0.313   0.325
 7834SOL     OW33500   3.136   3.217   3.304
 7834SOL    HW133501   3.224   3.184   3.339
 7834SOL    HW233502   3.062   3.178   3.358
 7835SOL     OW33503   5.622   6.733   1.441
 7835SOL    HW133504   5.644   6.795   1.365
 7835SOL    HW233505   5.687   6.747   1.515
 7836SOL     OW33506   6.716   4.520   3.690
 7836SOL    HW133507   6.681   4.614   3.695
 7836SOL    HW233508   6.700   4.473   3.776
 7837SOL     OW33509   3.071   3.100   2.117
 7837SOL    HW133510   3.099   3.088   2.212
 7837SOL    HW233511   3.013   3.181   2.108
 7838SOL     OW33512   0.846   6.534   4.070
 7838SOL    HW133513   0.837   6.621   4.022
 7838SOL    HW233514   0.804   6.541   4.161
 7839SOL     OW33515   7.302   6.459   2.948
 7839SOL    HW133516   7.350   6.535   2.904
 7839SOL    HW233517   7.335   6.447   3.042
 7840SOL     OW33518   5.610   0.397   3.721
 7840SOL    HW133519   5.645   0.410   3.628
 7840SOL    HW233520   5.684   0.412   3.787
 7841SOL     OW33521   2.400   3.941   1.499
 7841SOL    HW133522   2.386   3.842   1.511
 7841SOL    HW233523   2.452   3.978   1.576
 7842SOL     OW33524   7.155   4.458   3.083
 7842SOL    HW133525   7.111   4.427   3.167
 7842SOL    HW233526   7.143   4.557   3.072
 7843SOL     OW33527   2.644   7.943   3.936
 7843SOL    HW133528   2.658   7.865   3.998
 7843SOL    HW233529   2.558   7.989   3.959
 7844SOL     OW33530   6.263   5.915   6.342
 7844SOL    HW133531   6.244   5.888   6.436
 7844SOL    HW233532   6.362   5.928   6.330
 7845SOL     OW33533   7.106   2.074   2.973
 7845SOL    HW133534   7.136   2.147   3.035
 7845SOL    HW233535   7.008   2.060   2.982
 7846SOL     OW33536   1.744   1.458   2.695
 7846SOL    HW133537   1.698   1.433   2.610
 7846SOL    HW233538   1.687   1.435   2.773
 7847SOL     OW33539   7.891   2.137   2.050
 7847SOL    HW133540   7.947   2.193   1.988
 7847SOL    HW233541   7.855   2.193   2.124
 7848SOL     OW33542   3.256   6.520   2.847
 7848SOL    HW133543   3.253   6.518   2.747
 7848SOL    HW233544   3.341   6.477   2.879
 7849SOL     OW33545   7.505   2.484   7.191
 7849SOL    HW133546   7.578   2.521   7.248
 7849SOL    HW233547   7.417   2.495   7.236
 7850SOL     OW33548   0.022   0.751   6.949
 7850SOL    HW133549  -0.021   0.806   7.022
 7850SOL    HW233550   0.113   0.786   6.929
 7851SOL     OW33551   0.073   0.830   3.532
 7851SOL    HW133552   0.081   0.926   3.560
 7851SOL    HW233553   0.162   0.784   3.542
 7852SOL     OW33554   5.657   7.392   1.628
 7852SOL    HW133555   5.686   7.296   1.635
 7852SOL    HW233556   5.730   7.451   1.663
 7853SOL     OW33557   3.872   0.899   3.686
 7853SOL    HW133558   3.784   0.935   3.655
 7853SOL    HW233559   3.881   0.910   3.785
 7854SOL     OW33560   4.323   7.465   2.406
 7854SOL    HW133561   4.269   7.548   2.398
 7854SOL    HW233562   4.417   7.488   2.433
 7855SOL     OW33563   6.442   2.699   7.066
 7855SOL    HW133564   6.519   2.758   7.092
 7855SOL    HW233565   6.415   2.718   6.972
 7856SOL     OW33566   1.084   1.730   3.640
 7856SOL    HW133567   1.098   1.700   3.734
 7856SOL    HW233568   1.170   1.758   3.599
 7857SOL     OW33569   6.642   2.424   7.628
 7857SOL    HW133570   6.723   2.383   7.669
 7857SOL    HW233571   6.667   2.483   7.552
 7858SOL     OW33572   1.036   7.981   0.806
 7858SOL    HW133573   1.047   7.923   0.725
 7858SOL    HW233574   1.108   7.962   0.872
 7859SOL     OW33575   0.509   4.651   7.142
 7859SOL    HW133576   0.504   4.592   7.061
 7859SOL    HW233577   0.560   4.604   7.215
 7860SOL     OW33578   4.148   1.145   0.561
 7860SOL    HW133579   4.118   1.057   0.597
 7860SOL    HW233580   4.111   1.159   0.469
 7861SOL     OW33581   2.145   2.467   4.331
 7861SOL    HW133582   2.109   2.549   4.374
 7861SOL    HW233583   2.140   2.475   4.231
 7862SOL     OW33584   6.747   4.263   4.510
 7862SOL    HW133585   6.658   4.229   4.542
 7862SOL    HW233586   6.758   4.243   4.413
 7863SOL     OW33587   4.455   4.109   3.148
 7863SOL    HW133588   4.456   4.019   3.105
 7863SOL    HW233589   4.517   4.171   3.100
 7864SOL     OW33590   1.278   7.654   0.951
 7864SOL    HW133591   1.276   7.677   0.854
 7864SOL    HW233592   1.339   7.576   0.967
 7865SOL     OW33593   0.772   1.453   1.058
 7865SOL    HW133594   0.677   1.455   1.029
 7865SOL    HW233595   0.809   1.546   1.060
 7866SOL     OW33596   6.937   7.709   2.020
 7866SOL    HW133597   6.843   7.687   2.046
 7866SOL    HW233598   6.946   7.705   1.920
 7867SOL     OW33599   0.044   1.437   5.230
 7867SOL    HW133600   0.045   1.361   5.295
 7867SOL    HW233601   0.129   1.437   5.178
 7868SOL     OW33602   1.881   6.124   3.476
 7868SOL    HW133603   1.868   6.196   3.407
 7868SOL    HW233604   1.911   6.040   3.432
 7869SOL     OW33605   1.693   1.563   3.229
 7869SOL    HW133606   1.595   1.551   3.241
 7869SOL    HW233607   1.742   1.523   3.307
 7870SOL     OW33608   2.356   0.050   6.795
 7870SOL    HW133609   2.422   0.011   6.859
 7870SOL    HW233610   2.369   0.009   6.704
 7871SOL     OW33611   7.762   3.567   1.776
 7871SOL    HW133612   7.858   3.570   1.804
 7871SOL    HW233613   7.710   3.508   1.838
 7872SOL     OW33614   2.590   7.389   5.320
 7872SOL    HW133615   2.505   7.358   5.361
 7872SOL    HW233616   2.590   7.368   5.222
 7873SOL     OW33617   2.449   0.325   2.630
 7873SOL    HW133618   2.393   0.406   2.647
 7873SOL    HW233619   2.526   0.324   2.695
 7874SOL     OW33620   6.225   3.892   7.367
 7874SOL    HW133621   6.153   3.900   7.298
 7874SOL    HW233622   6.314   3.913   7.326
 7875SOL     OW33623   3.182   4.749   7.777
 7875SOL    HW133624   3.191   4.784   7.871
 7875SOL    HW233625   3.251   4.680   7.760
 7876SOL     OW33626   6.443   0.842   5.220
 7876SOL    HW133627   6.396   0.922   5.182
 7876SOL    HW233628   6.441   0.845   5.320
 7877SOL     OW33629   3.517   0.430   3.961
 7877SOL    HW133630   3.422   0.441   3.991
 7877SOL    HW233631   3.578   0.423   4.041
 7878SOL     OW33632   2.952   4.679   1.764
 7878SOL    HW133633   2.975   4.776   1.748
 7878SOL    HW233634   3.035   4.625   1.772
 7879SOL     OW33635   1.650   1.666   6.670
 7879SOL    HW133636   1.562   1.714   6.669
 7879SOL    HW233637   1.724   1.729   6.648
 7880SOL     OW33638   2.184   7.105   2.116
 7880SOL    HW133639   2.136   7.048   2.182
 7880SOL    HW233640   2.236   7.047   2.053
 7881SOL     OW33641   6.167   4.244   0.777
 7881SOL    HW133642   6.097   4.291   0.830
 7881SOL    HW233643   6.135   4.231   0.683
 7882SOL     OW33644   2.366   2.312   4.698
 7882SOL    HW133645   2.269   2.293   4.712
 7882SOL    HW233646   2.421   2.258   4.762
 7883SOL     OW33647   5.492   0.945   0.550
 7883SOL    HW133648   5.550   0.906   0.622
 7883SOL    HW233649   5.549   0.983   0.477
 7884SOL     OW33650   1.416   4.904   5.350
 7884SOL    HW133651   1.356   4.863   5.281
 7884SOL    HW233652   1.499   4.849   5.360
 7885SOL     OW33653   0.724   2.458   7.924
 7885SOL    HW133654   0.817   2.476   7.892
 7885SOL    HW233655   0.703   2.514   8.004
 7886SOL     OW33656   2.894   2.352   3.563
 7886SOL    HW133657   2.830   2.376   3.490
 7886SOL    HW233658   2.987   2.348   3.527
 7887SOL     OW33659   4.720   6.843   3.111
 7887SOL    HW133660   4.661   6.772   3.074
 7887SOL    HW233661   4.690   6.869   3.203
 7888SOL     OW33662   7.479   6.087   5.159
 7888SOL    HW133663   7.387   6.078   5.120
 7888SOL    HW233664   7.489   6.177   5.201
 7889SOL     OW33665   6.757   6.881   5.535
 7889SOL    HW133666   6.805   6.848   5.454
 7889SOL    HW233667   6.805   6.959   5.574
 7890SOL     OW33668   5.777   4.745   5.967
 7890SOL    HW133669   5.747   4.664   6.017
 7890SOL    HW233670   5.872   4.734   5.938
 7891SOL     OW33671   5.826   6.813   6.469
 7891SOL    HW133672   5.728   6.815   6.446
 7891SOL    HW233673   5.878   6.772   6.394
 7892SOL     OW33674   6.807   6.806   2.317
 7892SOL    HW133675   6.765   6.728   2.271
 7892SOL    HW233676   6.767   6.819   2.408
 7893SOL     OW33677   3.229   2.301   7.369
 7893SOL    HW133678   3.145   2.306   7.423
 7893SOL    HW233679   3.250   2.391   7.330
 7894SOL     OW33680   5.146   4.775   0.449
 7894SOL    HW133681   5.167   4.867   0.482
 7894SOL    HW233682   5.174   4.765   0.354
 7895SOL     OW33683   5.946   0.893   0.239
 7895SOL    HW133684   6.039   0.917   0.264
 7895SOL    HW233685   5.943   0.865   0.143
 7896SOL     OW33686   5.890   5.270   6.479
 7896SOL    HW133687   5.840   5.214   6.413
 7896SOL    HW233688   5.986   5.275   6.454
 7897SOL     OW33689   4.331   2.952   1.891
 7897SOL    HW133690   4.334   3.041   1.846
 7897SOL    HW233691   4.398   2.890   1.850
 7898SOL     OW33692   7.608   5.476   3.888
 7898SOL    HW133693   7.652   5.405   3.942
 7898SOL    HW233694   7.668   5.504   3.813
 7899SOL     OW33695   4.700   0.266   1.127
 7899SOL    HW133696   4.698   0.314   1.039
 7899SOL    HW233697   4.649   0.181   1.120
 7900SOL     OW33698   3.493   2.086   4.911
 7900SOL    HW133699   3.541   1.998   4.907
 7900SOL    HW233700   3.400   2.073   4.944
 7901SOL     OW33701   5.040   6.505   1.599
 7901SOL    HW133702   5.086   6.587   1.566
 7901SOL    HW233703   4.945   6.504   1.568
 7902SOL     OW33704   1.333   6.315   2.290
 7902SOL    HW133705   1.383   6.402   2.279
 7902SOL    HW233706   1.397   6.243   2.317
 7903SOL     OW33707   1.427   1.717   4.144
 7903SOL    HW133708   1.435   1.681   4.051
 7903SOL    HW233709   1.343   1.771   4.153
 7904SOL     OW33710   3.720   4.198   3.048
 7904SOL    HW133711   3.688   4.104   3.034
 7904SOL    HW233712   3.675   4.237   3.128
 7905SOL     OW33713   0.714   5.839   3.425
 7905SOL    HW133714   0.756   5.927   3.449
 7905SOL    HW233715   0.757   5.802   3.343
 7906SOL     OW33716   4.050   5.296   7.286
 7906SOL    HW133717   3.995   5.364   7.236
 7906SOL    HW233718   4.035   5.305   7.384
 7907SOL     OW33719   6.221   3.371   7.200
 7907SOL    HW133720   6.272   3.423   7.130
 7907SOL    HW233721   6.266   3.283   7.216
 7908SOL     OW33722   2.454   7.362   4.942
 7908SOL    HW133723   2.415   7.448   4.908
 7908SOL    HW233724   2.521   7.381   5.014
 7909SOL     OW33725   7.141   6.940   2.457
 7909SOL    HW133726   7.072   6.989   2.403
 7909SOL    HW233727   7.136   6.968   2.553
 7910SOL     OW33728   1.529   5.565   6.479
 7910SOL    HW133729   1.535   5.476   6.434
 7910SOL    HW233730   1.465   5.560   6.555
 7911SOL     OW33731   5.565   6.263   4.744
 7911SOL    HW133732   5.593   6.249   4.839
 7911SOL    HW233733   5.506   6.343   4.737
 7912SOL     OW33734   5.413   1.351   7.345
 7912SOL    HW133735   5.376   1.360   7.253
 7912SOL    HW233736   5.340   1.330   7.410
 7913SOL     OW33737   4.663   1.038   3.865
 7913SOL    HW133738   4.575   1.082   3.847
 7913SOL    HW233739   4.707   1.013   3.778
 7914SOL     OW33740   3.069   0.913   4.289
 7914SOL    HW133741   3.164   0.888   4.309
 7914SOL    HW233742   3.061   0.943   4.194
 7915SOL     OW33743   7.385   7.007   5.971
 7915SOL    HW133744   7.317   7.030   6.041
 7915SOL    HW233745   7.353   7.038   5.882
 7916SOL     OW33746   4.991   1.180   4.528
 7916SOL    HW133747   5.021   1.147   4.439
 7916SOL    HW233748   4.908   1.132   4.557
 7917SOL     OW33749   4.391   6.836   3.226
 7917SOL    HW133750   4.360   6.931   3.233
 7917SOL    HW233751   4.466   6.829   3.161
 7918SOL     OW33752   3.131   2.370   1.756
 7918SOL    HW133753   3.210   2.313   1.778
 7918SOL    HW233754   3.161   2.456   1.714
 7919SOL     OW33755   1.518   0.061   3.041
 7919SOL    HW133756   1.449  -0.011   3.047
 7919SOL    HW233757   1.582   0.041   2.967
 7920SOL     OW33758   6.409   6.019   5.841
 7920SOL    HW133759   6.314   5.996   5.819
 7920SOL    HW233760   6.413   6.099   5.901
 7921SOL     OW33761   6.474   7.437   4.357
 7921SOL    HW133762   6.436   7.493   4.284
 7921SOL    HW233763   6.455   7.341   4.339
 7922SOL     OW33764   0.380   7.591   6.150
 7922SOL    HW133765   0.420   7.607   6.060
 7922SOL    HW233766   0.442   7.624   6.221
 7923SOL     OW33767   5.819   2.953   1.070
 7923SOL    HW133768   5.765   2.901   1.138
 7923SOL    HW233769   5.916   2.933   1.082
 7924SOL     OW33770   1.842   5.861   0.449
 7924SOL    HW133771   1.746   5.861   0.418
 7924SOL    HW233772   1.847   5.892   0.543
 7925SOL     OW33773   0.162   0.470   0.388
 7925SOL    HW133774   0.238   0.406   0.398
 7925SOL    HW233775   0.102   0.441   0.314
 7926SOL     OW33776   2.037   5.398   6.079
 7926SOL    HW133777   2.030   5.309   6.125
 7926SOL    HW233778   2.116   5.400   6.018
 7927SOL     OW33779  -0.045   2.619   6.916
 7927SOL    HW133780  -0.043   2.706   6.867
 7927SOL    HW233781  -0.039   2.635   7.014
 7928SOL     OW33782   2.517   4.952   2.208
 7928SOL    HW133783   2.543   5.019   2.278
 7928SOL    HW233784   2.432   4.906   2.235
 7929SOL     OW33785   1.897   3.820   0.226
 7929SOL    HW133786   1.811   3.857   0.261
 7929SOL    HW233787   1.973   3.853   0.282
 7930SOL     OW33788   5.883   0.346   3.073
 7930SOL    HW133789   5.793   0.370   3.108
 7930SOL    HW233790   5.874   0.311   2.979
 7931SOL     OW33791   5.513   2.448   4.138
 7931SOL    HW133792   5.493   2.470   4.043
 7931SOL    HW233793   5.536   2.351   4.147
 7932SOL     OW33794   2.907   7.101   5.740
 7932SOL    HW133795   2.909   7.201   5.747
 7932SOL    HW233796   2.937   7.073   5.648
 7933SOL     OW33797   7.440   3.817   6.667
 7933SOL    HW133798   7.483   3.727   6.680
 7933SOL    HW233799   7.509   3.888   6.678
 7934SOL     OW33800   7.234   6.798   5.288
 7934SOL    HW133801   7.148   6.849   5.285
 7934SOL    HW233802   7.304   6.850   5.336
 7935SOL     OW33803   5.470   2.131   3.792
 7935SOL    HW133804   5.410   2.197   3.837
 7935SOL    HW233805   5.442   2.118   3.697
 7936SOL     OW33806   7.434   7.852   5.517
 7936SOL    HW133807   7.511   7.882   5.573
 7936SOL    HW233808   7.467   7.812   5.431
 7937SOL     OW33809   4.614   6.489   2.207
 7937SOL    HW133810   4.632   6.559   2.137
 7937SOL    HW233811   4.567   6.411   2.165
 7938SOL     OW33812   0.458   0.678   1.077
 7938SOL    HW133813   0.375   0.705   1.127
 7938SOL    HW233814   0.433   0.627   0.996
 7939SOL     OW33815   7.205   2.960   3.159
 7939SOL    HW133816   7.217   3.046   3.109
 7939SOL    HW233817   7.201   2.978   3.257
 7940SOL     OW33818   6.181   4.750   5.207
 7940SOL    HW133819   6.276   4.780   5.206
 7940SOL    HW233820   6.171   4.664   5.157
 7941SOL     OW33821   3.541   0.613   1.417
 7941SOL    HW133822   3.553   0.697   1.363
 7941SOL    HW233823   3.513   0.637   1.510
 7942SOL     OW33824   1.061   5.891   4.826
 7942SOL    HW133825   1.148   5.843   4.818
 7942SOL    HW233826   1.006   5.850   4.899
 7943SOL     OW33827   0.812   4.873   0.087
 7943SOL    HW133828   0.772   4.963   0.104
 7943SOL    HW233829   0.751   4.802   0.123
 7944SOL     OW33830   5.098   1.955   2.622
 7944SOL    HW133831   5.048   2.038   2.598
 7944SOL    HW233832   5.107   1.897   2.541
 7945SOL     OW33833   2.008   1.302   3.353
 7945SOL    HW133834   1.993   1.310   3.452
 7945SOL    HW233835   1.924   1.270   3.308
 7946SOL     OW33836   4.143   5.607   3.473
 7946SOL    HW133837   4.140   5.514   3.510
 7946SOL    HW233838   4.065   5.659   3.505
 7947SOL     OW33839   4.511   6.014   6.635
 7947SOL    HW133840   4.569   5.980   6.561
 7947SOL    HW233841   4.531   5.964   6.719
 7948SOL     OW33842   4.162   1.698   4.950
 7948SOL    HW133843   4.202   1.783   4.982
 7948SOL    HW233844   4.155   1.699   4.850
 7949SOL     OW33845   1.631   7.501   5.575
 7949SOL    HW133846   1.574   7.422   5.553
 7949SOL    HW233847   1.590   7.584   5.537
 7950SOL     OW33848   6.400   2.778   2.679
 7950SOL    HW133849   6.499   2.780   2.693
 7950SOL    HW233850   6.378   2.794   2.583
 7951SOL     OW33851   0.708   1.061   6.885
 7951SOL    HW133852   0.662   1.122   6.821
 7951SOL    HW233853   0.708   1.101   6.976
 7952SOL     OW33854   3.894   7.081   6.209
 7952SOL    HW133855   3.887   7.060   6.111
 7952SOL    HW233856   3.933   7.004   6.258
 7953SOL     OW33857   3.334   1.331   1.976
 7953SOL    HW133858   3.294   1.355   1.887
 7953SOL    HW233859   3.289   1.250   2.014
 7954SOL     OW33860   1.497   1.214   4.530
 7954SOL    HW133861   1.577   1.275   4.530
 7954SOL    HW233862   1.443   1.229   4.447
 7955SOL     OW33863   1.734   7.388   0.834
 7955SOL    HW133864   1.796   7.309   0.823
 7955SOL    HW233865   1.643   7.365   0.800
 7956SOL     OW33866   3.268   1.299   3.011
 7956SOL    HW133867   3.358   1.340   3.024
 7956SOL    HW233868   3.217   1.352   2.943
 7957SOL     OW33869   3.105   2.624   2.235
 7957SOL    HW133870   3.078   2.720   2.238
 7957SOL    HW233871   3.080   2.584   2.147
 7958SOL     OW33872   1.264   4.826   6.680
 7958SOL    HW133873   1.328   4.781   6.742
 7958SOL    HW233874   1.314   4.873   6.608
 7959SOL     OW33875   2.741   1.362   5.050
 7959SOL    HW133876   2.833   1.351   5.011
 7959SOL    HW233877   2.744   1.346   5.148
 7960SOL     OW33878   4.491   5.405   0.310
 7960SOL    HW133879   4.419   5.381   0.374
 7960SOL    HW233880   4.452   5.451   0.230
 7961SOL     OW33881   4.735   7.273   7.118
 7961SOL    HW133882   4.764   7.220   7.198
 7961SOL    HW233883   4.693   7.359   7.147
 7962SOL     OW33884   4.579   3.628   7.840
 7962SOL    HW133885   4.527   3.707   7.806
 7962SOL    HW233886   4.613   3.647   7.932
 7963SOL     OW33887   6.330   4.150   0.531
 7963SOL    HW133888   6.344   4.056   0.499
 7963SOL    HW233889   6.340   4.154   0.630
 7964SOL     OW33890   1.014   2.787   3.612
 7964SOL    HW133891   0.930   2.778   3.666
 7964SOL    HW233892   1.091   2.747   3.662
 7965SOL     OW33893   5.934   3.845   6.460
 7965SOL    HW133894   5.900   3.888   6.543
 7965SOL    HW233895   5.892   3.887   6.379
 7966SOL     OW33896   3.277   2.655   6.772
 7966SOL    HW133897   3.263   2.741   6.820
 7966SOL    HW233898   3.223   2.654   6.687
 7967SOL     OW33899   5.468   5.676   5.123
 7967SOL    HW133900   5.441   5.769   5.098
 7967SOL    HW233901   5.514   5.675   5.211
 7968SOL     OW33902   7.320   4.195   0.265
 7968SOL    HW133903   7.224   4.198   0.295
 7968SOL    HW233904   7.380   4.184   0.345
 7969SOL     OW33905   1.968   1.250   2.826
 7969SOL    HW133906   1.877   1.226   2.793
 7969SOL    HW233907   1.979   1.350   2.827
 7970SOL     OW33908   6.918   2.857   3.059
 7970SOL    HW133909   6.871   2.771   3.080
 7970SOL    HW233910   6.881   2.932   3.113
 7971SOL     OW33911   1.267   6.776   7.555
 7971SOL    HW133912   1.304   6.810   7.641
 7971SOL    HW233913   1.340   6.734   7.502
 7972SOL     OW33914   1.921   0.933   2.035
 7972SOL    HW133915   1.840   0.880   2.061
 7972SOL    HW233916   1.939   0.921   1.937
 7973SOL     OW33917   2.464   0.830   1.445
 7973SOL    HW133918   2.542   0.821   1.383
 7973SOL    HW233919   2.452   0.745   1.496
 7974SOL     OW33920   5.501   0.679   2.192
 7974SOL    HW133921   5.540   0.630   2.113
 7974SOL    HW233922   5.446   0.616   2.247
 7975SOL     OW33923   7.435   2.970   4.021
 7975SOL    HW133924   7.335   2.963   4.027
 7975SOL    HW233925   7.473   2.884   3.989
 7976SOL     OW33926   5.680   1.814   2.980
 7976SOL    HW133927   5.651   1.718   2.975
 7976SOL    HW233928   5.770   1.824   2.938
 7977SOL     OW33929   2.910   1.727   0.600
 7977SOL    HW133930   2.999   1.704   0.640
 7977SOL    HW233931   2.923   1.774   0.513
 7978SOL     OW33932   2.767   1.793   1.001
 7978SOL    HW133933   2.711   1.809   1.083
 7978SOL    HW233934   2.838   1.863   0.994
 7979SOL     OW33935   0.246   7.948   5.773
 7979SOL    HW133936   0.280   7.857   5.798
 7979SOL    HW233937   0.307   7.989   5.705
 7980SOL     OW33938   1.805   1.514   0.124
 7980SOL    HW133939   1.718   1.520   0.174
 7980SOL    HW233940   1.880   1.499   0.188
 7981SOL     OW33941   7.487   0.186   0.781
 7981SOL    HW133942   7.573   0.228   0.809
 7981SOL    HW233943   7.486   0.089   0.805
 7982SOL     OW33944   0.009   1.977   0.448
 7982SOL    HW133945   0.096   1.932   0.469
 7982SOL    HW233946   0.025   2.074   0.429
 7983SOL     OW33947   3.496   7.646   0.634
 7983SOL    HW133948   3.567   7.710   0.661
 7983SOL    HW233949   3.422   7.645   0.701
 7984SOL     OW33950   6.897   2.032   1.588
 7984SOL    HW133951   6.930   2.084   1.509
 7984SOL    HW233952   6.824   2.084   1.634
 7985SOL     OW33953   1.699   1.129   7.084
 7985SOL    HW133954   1.729   1.129   7.179
 7985SOL    HW233955   1.653   1.215   7.063
 7986SOL     OW33956   4.622   0.989   7.686
 7986SOL    HW133957   4.609   1.076   7.637
 7986SOL    HW233958   4.686   1.002   7.762
 7987SOL     OW33959   4.346   4.181   6.189
 7987SOL    HW133960   4.264   4.177   6.132
 7987SOL    HW233961   4.393   4.093   6.188
 7988SOL     OW33962   3.501   4.863   7.246
 7988SOL    HW133963   3.550   4.790   7.198
 7988SOL    HW233964   3.566   4.929   7.283
 7989SOL     OW33965   1.020   2.967   0.114
 7989SOL    HW133966   0.976   3.056   0.104
 7989SOL    HW233967   1.119   2.977   0.116
 7990SOL     OW33968   7.459   0.980   6.518
 7990SOL    HW133969   7.532   0.913   6.503
 7990SOL    HW233970   7.410   0.959   6.603
 7991SOL     OW33971   6.391   1.735   7.141
 7991SOL    HW133972   6.402   1.640   7.112
 7991SOL    HW233973   6.481   1.777   7.154
 7992SOL     OW33974   6.904   1.589   2.838
 7992SOL    HW133975   6.825   1.571   2.897
 7992SOL    HW233976   6.961   1.507   2.832
 7993SOL     OW33977   6.118   4.486   2.321
 7993SOL    HW133978   6.216   4.496   2.340
 7993SOL    HW233979   6.085   4.567   2.273
 7994SOL     OW33980   2.620   5.958   3.832
 7994SOL    HW133981   2.605   6.051   3.867
 7994SOL    HW233982   2.535   5.923   3.792
 7995SOL     OW33983   0.114   0.031   1.193
 7995SOL    HW133984   0.193  -0.011   1.239
 7995SOL    HW233985   0.139   0.058   1.100
 7996SOL     OW33986   1.569   2.253   2.141
 7996SOL    HW133987   1.485   2.236   2.089
 7996SOL    HW233988   1.546   2.297   2.228
 7997SOL     OW33989   2.105   6.124   2.489
 7997SOL    HW133990   2.061   6.207   2.525
 7997SOL    HW233991   2.064   6.100   2.401
 7998SOL     OW33992   1.448   6.746   3.234
 7998SOL    HW133993   1.405   6.664   3.197
 7998SOL    HW233994   1.422   6.760   3.329
 7999SOL     OW33995   0.022   5.964   3.759
 7999SOL    HW133996   0.118   5.950   3.733
 7999SOL    HW233997   0.016   5.988   3.856
 8000SOL     OW33998   6.757   1.863   7.232
 8000SOL    HW133999   6.826   1.816   7.177
 8000SOL    HW234000   6.694   1.796   7.273
 8001SOL     OW34001   7.074   5.548   3.636
 8001SOL    HW134002   7.027   5.470   3.679
 8001SOL    HW234003   7.127   5.517   3.558
 8002SOL     OW34004   4.606   5.746   1.148
 8002SOL    HW134005   4.564   5.817   1.205
 8002SOL    HW234006   4.536   5.683   1.114
 8003SOL     OW34007   0.960   2.489   0.816
 8003SOL    HW134008   0.870   2.518   0.782
 8003SOL    HW234009   0.974   2.522   0.909
 8004SOL     OW34010   7.476   2.253   3.869
 8004SOL    HW134011   7.407   2.180   3.863
 8004SOL    HW234012   7.564   2.219   3.836
 8005SOL     OW34013   1.289   0.011   5.505
 8005SOL    HW134014   1.218   0.060   5.555
 8005SOL    HW234015   1.311   0.058   5.420
 8006SOL     OW34016   3.656   6.952   2.521
 8006SOL    HW134017   3.599   6.870   2.528
 8006SOL    HW234018   3.689   6.963   2.427
 8007SOL     OW34019   3.349   5.960   1.406
 8007SOL    HW134020   3.292   6.042   1.414
 8007SOL    HW234021   3.419   5.960   1.477
 8008SOL     OW34022   5.779   7.263   6.936
 8008SOL    HW134023   5.862   7.300   6.895
 8008SOL    HW234024   5.799   7.180   6.987
 8009SOL     OW34025   4.864   1.056   0.481
 8009SOL    HW134026   4.900   1.054   0.388
 8009SOL    HW234027   4.920   1.116   0.538
 8010SOL     OW34028   3.464   1.733   3.216
 8010SOL    HW134029   3.494   1.828   3.223
 8010SOL    HW234030   3.445   1.696   3.307
 8011SOL     OW34031   2.970   5.082   2.495
 8011SOL    HW134032   2.875   5.111   2.505
 8011SOL    HW234033   3.022   5.106   2.577
 8012SOL     OW34034   5.888   7.947   6.340
 8012SOL    HW134035   5.861   7.881   6.270
 8012SOL    HW234036   5.975   7.989   6.316
 8013SOL     OW34037   7.140   1.904   1.489
 8013SOL    HW134038   7.047   1.887   1.520
 8013SOL    HW234039   7.167   1.998   1.512
 8014SOL     OW34040   0.861   3.038   1.743
 8014SOL    HW134041   0.774   3.076   1.775
 8014SOL    HW234042   0.845   2.961   1.683
 8015SOL     OW34043   7.149   0.885   6.852
 8015SOL    HW134044   7.103   0.802   6.883
 8015SOL    HW234045   7.217   0.863   6.782
 8016SOL     OW34046   4.279   7.031   4.096
 8016SOL    HW134047   4.230   7.114   4.122
 8016SOL    HW234048   4.311   6.983   4.177
 8017SOL     OW34049   5.206   1.192   7.205
 8017SOL    HW134050   5.297   1.150   7.196
 8017SOL    HW234051   5.184   1.205   7.302
 8018SOL     OW34052   7.464   5.474   0.283
 8018SOL    HW134053   7.376   5.516   0.307
 8018SOL    HW234054   7.451   5.403   0.214
 8019SOL     OW34055   1.160   6.797   3.559
 8019SOL    HW134056   1.157   6.725   3.489
 8019SOL    HW234057   1.121   6.881   3.522
 8020SOL     OW34058   4.569   5.639   2.812
 8020SOL    HW134059   4.497   5.705   2.794
 8020SOL    HW234060   4.531   5.546   2.814
 8021SOL     OW34061   6.910   1.463   6.105
 8021SOL    HW134062   6.972   1.427   6.036
 8021SOL    HW234063   6.829   1.404   6.113
 8022SOL     OW34064   4.145   1.516   5.574
 8022SOL    HW134065   4.127   1.490   5.669
 8022SOL    HW234066   4.216   1.586   5.572
 8023SOL     OW34067   3.503   4.750   2.685
 8023SOL    HW134068   3.486   4.659   2.725
 8023SOL    HW234069   3.541   4.740   2.593
 8024SOL     OW34070   6.253   5.969   4.950
 8024SOL    HW134071   6.251   5.919   5.037
 8024SOL    HW234072   6.229   5.908   4.875
 8025SOL     OW34073   3.613   3.767   0.538
 8025SOL    HW134074   3.590   3.699   0.607
 8025SOL    HW234075   3.701   3.746   0.496
 8026SOL     OW34076   0.311   5.366   3.006
 8026SOL    HW134077   0.375   5.331   3.075
 8026SOL    HW234078   0.227   5.395   3.050
 8027SOL     OW34079   1.976   1.935   4.658
 8027SOL    HW134080   1.907   1.874   4.696
 8027SOL    HW234081   2.048   1.952   4.726
 8028SOL     OW34082   3.170   6.724   3.301
 8028SOL    HW134083   3.076   6.748   3.277
 8028SOL    HW234084   3.170   6.654   3.373
 8029SOL     OW34085   0.873   7.939   1.618
 8029SOL    HW134086   0.888   7.853   1.667
 8029SOL    HW234087   0.906   7.930   1.524
 8030SOL     OW34088   0.653   1.905   0.933
 8030SOL    HW134089   0.618   1.842   1.002
 8030SOL    HW234090   0.714   1.857   0.869
 8031SOL     OW34091   6.291   7.913   2.977
 8031SOL    HW134092   6.287   7.820   2.942
 8031SOL    HW234093   6.258   7.916   3.071
 8032SOL     OW34094   7.256   2.967   0.178
 8032SOL    HW134095   7.291   3.061   0.185
 8032SOL    HW234096   7.157   2.969   0.165
 8033SOL     OW34097   5.650   0.605   2.949
 8033SOL    HW134098   5.611   0.540   3.014
 8033SOL    HW234099   5.620   0.582   2.856
 8034SOL     OW34100   6.867   2.988   1.071
 8034SOL    HW134101   6.867   3.070   1.014
 8034SOL    HW234102   6.815   3.005   1.155
 8035SOL     OW34103   3.662   1.222   1.580
 8035SOL    HW134104   3.596   1.150   1.602
 8035SOL    HW234105   3.670   1.285   1.657
 8036SOL     OW34106   3.602   4.948   5.438
 8036SOL    HW134107   3.521   4.919   5.386
 8036SOL    HW234108   3.663   4.870   5.452
 8037SOL     OW34109   4.541   2.740   3.828
 8037SOL    HW134110   4.537   2.687   3.744
 8037SOL    HW234111   4.610   2.702   3.889
 8038SOL     OW34112   4.256   3.163   5.598
 8038SOL    HW134113   4.192   3.161   5.675
 8038SOL    HW234114   4.316   3.242   5.605
 8039SOL     OW34115   4.569   1.037   0.126
 8039SOL    HW134116   4.603   1.119   0.082
 8039SOL    HW234117   4.628   1.011   0.202
 8040SOL     OW34118   6.479   6.034   2.481
 8040SOL    HW134119   6.500   6.130   2.503
 8040SOL    HW234120   6.430   6.029   2.394
 8041SOL     OW34121   1.382   6.555   3.817
 8041SOL    HW134122   1.293   6.574   3.776
 8041SOL    HW234123   1.378   6.569   3.916
 8042SOL     OW34124   6.155   2.461   1.329
 8042SOL    HW134125   6.077   2.438   1.387
 8042SOL    HW234126   6.197   2.546   1.360
 8043SOL     OW34127   4.100   0.161   5.896
 8043SOL    HW134128   4.112   0.072   5.852
 8043SOL    HW234129   4.019   0.207   5.859
 8044SOL     OW34130   4.836   3.711   2.781
 8044SOL    HW134131   4.884   3.780   2.726
 8044SOL    HW234132   4.818   3.746   2.872
 8045SOL     OW34133   0.113   3.413   1.531
 8045SOL    HW134134   0.043   3.342   1.524
 8045SOL    HW234135   0.162   3.403   1.617
 8046SOL     OW34136   7.344   7.032   2.297
 8046SOL    HW134137   7.385   6.944   2.322
 8046SOL    HW234138   7.363   7.052   2.201
 8047SOL     OW34139   0.143   5.462   6.228
 8047SOL    HW134140   0.082   5.450   6.307
 8047SOL    HW234141   0.114   5.540   6.174
 8048SOL     OW34142   7.290   0.437   3.799
 8048SOL    HW134143   7.282   0.375   3.721
 8048SOL    HW234144   7.244   0.398   3.878
 8049SOL     OW34145   7.674   7.252   6.498
 8049SOL    HW134146   7.576   7.241   6.515
 8049SOL    HW234147   7.690   7.269   6.400
 8050SOL     OW34148   2.805   3.636   7.318
 8050SOL    HW134149   2.767   3.600   7.232
 8050SOL    HW234150   2.778   3.732   7.329
 8051SOL     OW34151   6.468   2.062   7.277
 8051SOL    HW134152   6.380   2.061   7.230
 8051SOL    HW234153   6.542   2.042   7.213
 8052SOL     OW34154   5.763   1.920   1.569
 8052SOL    HW134155   5.700   1.905   1.493
 8052SOL    HW234156   5.733   1.999   1.623
 8053SOL     OW34157   6.872   3.287   5.038
 8053SOL    HW134158   6.832   3.216   4.981
 8053SOL    HW234159   6.859   3.377   4.995
 8054SOL     OW34160   1.855   2.828   3.923
 8054SOL    HW134161   1.882   2.897   3.856
 8054SOL    HW234162   1.815   2.748   3.877
 8055SOL     OW34163   3.790   0.514   3.083
 8055SOL    HW134164   3.807   0.611   3.101
 8055SOL    HW234165   3.836   0.458   3.152
 8056SOL     OW34166   4.074   0.644   5.947
 8056SOL    HW134167   4.083   0.567   5.883
 8056SOL    HW234168   4.096   0.613   6.039
 8057SOL     OW34169   6.284   7.782   7.434
 8057SOL    HW134170   6.228   7.708   7.398
 8057SOL    HW234171   6.254   7.807   7.526
 8058SOL     OW34172   4.514   4.075   7.053
 8058SOL    HW134173   4.517   4.021   6.968
 8058SOL    HW234174   4.483   4.168   7.033
 8059SOL     OW34175   5.443   5.112   7.945
 8059SOL    HW134176   5.541   5.120   7.966
 8059SOL    HW234177   5.399   5.202   7.953
 8060SOL     OW34178   1.845   1.031   3.515
 8060SOL    HW134179   1.763   1.048   3.460
 8060SOL    HW234180   1.831   1.064   3.608
 8061SOL     OW34181   7.215   4.504   0.467
 8061SOL    HW134182   7.264   4.584   0.431
 8061SOL    HW234183   7.248   4.483   0.560
 8062SOL     OW34184   6.009   4.724   7.765
 8062SOL    HW134185   6.004   4.824   7.767
 8062SOL    HW234186   6.103   4.694   7.778
 8063SOL     OW34187  -0.045   3.143   0.088
 8063SOL    HW134188   0.038   3.155   0.034
 8063SOL    HW234189  -0.025   3.158   0.185
 8064SOL     OW34190   4.786   5.090   0.982
 8064SOL    HW134191   4.814   5.142   0.901
 8064SOL    HW234192   4.726   5.147   1.039
 8065SOL     OW34193   1.121   0.817   1.422
 8065SOL    HW134194   1.220   0.834   1.431
 8065SOL    HW234195   1.077   0.829   1.511
 8066SOL     OW34196   0.753   7.897   0.952
 8066SOL    HW134197   0.779   7.989   0.981
 8066SOL    HW234198   0.718   7.899   0.858
 8067SOL     OW34199   3.908   6.799   6.806
 8067SOL    HW134200   3.813   6.791   6.835
 8067SOL    HW234201   3.952   6.875   6.853
 8068SOL     OW34202   6.876   7.902   3.451
 8068SOL    HW134203   6.934   7.845   3.510
 8068SOL    HW234204   6.925   7.924   3.366
 8069SOL     OW34205   4.624   3.860   1.399
 8069SOL    HW134206   4.692   3.923   1.361
 8069SOL    HW234207   4.652   3.831   1.490
 8070SOL     OW34208   0.876   0.419   2.278
 8070SOL    HW134209   0.785   0.407   2.319
 8070SOL    HW234210   0.890   0.352   2.205
 8071SOL     OW34211   6.505   7.005   6.366
 8071SOL    HW134212   6.600   6.976   6.359
 8071SOL    HW234213   6.464   6.966   6.449
 8072SOL     OW34214   6.113   4.588   8.006
 8072SOL    HW134215   6.093   4.685   8.018
 8072SOL    HW234216   6.210   4.576   7.983
 8073SOL     OW34217   4.988   6.645   6.556
 8073SOL    HW134218   5.037   6.558   6.547
 8073SOL    HW234219   4.965   6.680   6.466
 8074SOL     OW34220   7.675   7.836   7.916
 8074SOL    HW134221   7.662   7.814   7.819
 8074SOL    HW234222   7.594   7.885   7.950
 8075SOL     OW34223   1.149   3.223   7.644
 8075SOL    HW134224   1.215   3.157   7.608
 8075SOL    HW234225   1.180   3.317   7.625
 8076SOL     OW34226   2.860   3.442   3.914
 8076SOL    HW134227   2.950   3.475   3.942
 8076SOL    HW234228   2.842   3.466   3.818
 8077SOL     OW34229   3.330   0.107   7.917
 8077SOL    HW134230   3.389   0.187   7.910
 8077SOL    HW234231   3.324   0.061   7.829
 8078SOL     OW34232   2.498   6.098   1.375
 8078SOL    HW134233   2.483   6.187   1.417
 8078SOL    HW234234   2.418   6.039   1.389
 8079SOL     OW34235   6.784   5.274   3.249
 8079SOL    HW134236   6.879   5.262   3.220
 8079SOL    HW234237   6.729   5.308   3.173
 8080SOL     OW34238   2.814   2.238   2.824
 8080SOL    HW134239   2.765   2.293   2.892
 8080SOL    HW234240   2.855   2.298   2.755
 8081SOL     OW34241   2.305   0.080   4.368
 8081SOL    HW134242   2.280   0.177   4.373
 8081SOL    HW234243   2.256   0.036   4.293
 8082SOL     OW34244   0.632   4.070   5.861
 8082SOL    HW134245   0.679   4.154   5.886
 8082SOL    HW234246   0.568   4.087   5.786
 8083SOL     OW34247   1.976   6.958   6.685
 8083SOL    HW134248   1.957   6.860   6.673
 8083SOL    HW234249   1.947   7.008   6.603
 8084SOL     OW34250   3.793   5.632   4.658
 8084SOL    HW134251   3.829   5.556   4.713
 8084SOL    HW234252   3.764   5.598   4.569
 8085SOL     OW34253   0.390   4.937   5.662
 8085SOL    HW134254   0.441   5.008   5.614
 8085SOL    HW234255   0.293   4.941   5.637
 8086SOL     OW34256   4.690   1.517   2.046
 8086SOL    HW134257   4.725   1.466   1.967
 8086SOL    HW234258   4.717   1.471   2.131
 8087SOL     OW34259   4.610   3.241   1.088
 8087SOL    HW134260   4.684   3.234   1.020
 8087SOL    HW234261   4.594   3.338   1.110
 8088SOL     OW34262   4.312   3.855   6.743
 8088SOL    HW134263   4.285   3.943   6.781
 8088SOL    HW234264   4.272   3.843   6.652
 8089SOL     OW34265   2.282   0.691   7.032
 8089SOL    HW134266   2.269   0.761   6.962
 8089SOL    HW234267   2.376   0.695   7.066
 8090SOL     OW34268   3.391   1.633   1.270
 8090SOL    HW134269   3.459   1.695   1.308
 8090SOL    HW234270   3.307   1.683   1.250
 8091SOL     OW34271   6.815   6.383   1.760
 8091SOL    HW134272   6.793   6.385   1.662
 8091SOL    HW234273   6.778   6.301   1.802
 8092SOL     OW34274   0.886   6.389   5.954
 8092SOL    HW134275   0.909   6.460   6.021
 8092SOL    HW234276   0.793   6.404   5.920
 8093SOL     OW34277   2.473   2.298   3.045
 8093SOL    HW134278   2.523   2.267   3.126
 8093SOL    HW234279   2.537   2.341   2.980
 8094SOL     OW34280   6.067   2.753   6.313
 8094SOL    HW134281   6.094   2.818   6.384
 8094SOL    HW234282   5.981   2.709   6.339
 8095SOL     OW34283   2.998   1.817   6.457
 8095SOL    HW134284   3.064   1.813   6.532
 8095SOL    HW234285   2.907   1.792   6.490
 8096SOL     OW34286   3.864   1.667   5.292
 8096SOL    HW134287   3.788   1.611   5.256
 8096SOL    HW234288   3.837   1.709   5.378
 8097SOL     OW34289   6.201   5.167   0.915
 8097SOL    HW134290   6.134   5.191   0.985
 8097SOL    HW234291   6.233   5.249   0.869
 8098SOL     OW34292   3.140   5.615   4.343
 8098SOL    HW134293   3.221   5.666   4.315
 8098SOL    HW234294   3.064   5.636   4.282
 8099SOL     OW34295   7.373   1.720   3.343
 8099SOL    HW134296   7.412   1.637   3.303
 8099SOL    HW234297   7.374   1.713   3.443
 8100SOL     OW34298   7.949   4.538   2.675
 8100SOL    HW134299   7.930   4.632   2.647
 8100SOL    HW234300   7.955   4.533   2.775
 8101SOL     OW34301   4.638   2.137   3.962
 8101SOL    HW134302   4.662   2.071   3.890
 8101SOL    HW234303   4.701   2.126   4.040
 8102SOL     OW34304   2.404   1.708   6.083
 8102SOL    HW134305   2.461   1.627   6.094
 8102SOL    HW234306   2.363   1.734   6.171
 8103SOL     OW34307   3.550   1.157   3.189
 8103SOL    HW134308   3.599   1.140   3.275
 8103SOL    HW234309   3.512   1.071   3.155
 8104SOL     OW34310   1.995   6.909   0.415
 8104SOL    HW134311   1.945   6.939   0.333
 8104SOL    HW234312   1.948   6.832   0.457
 8105SOL     OW34313   5.183   7.023   3.533
 8105SOL    HW134314   5.110   7.072   3.486
 8105SOL    HW234315   5.151   6.933   3.562
 8106SOL     OW34316   0.384   6.253   6.557
 8106SOL    HW134317   0.446   6.177   6.535
 8106SOL    HW234318   0.337   6.234   6.644
 8107SOL     OW34319   7.838   0.960   7.896
 8107SOL    HW134320   7.741   0.937   7.888
 8107SOL    HW234321   7.875   0.923   7.981
 8108SOL     OW34322   6.774   1.354   2.850
 8108SOL    HW134323   6.843   1.290   2.816
 8108SOL    HW234324   6.746   1.328   2.942
 8109SOL     OW34325   4.353   7.667   1.390
 8109SOL    HW134326   4.259   7.632   1.394
 8109SOL    HW234327   4.400   7.628   1.311
 8110SOL     OW34328   7.026   0.483   3.949
 8110SOL    HW134329   6.960   0.464   4.021
 8110SOL    HW234330   7.105   0.531   3.986
 8111SOL     OW34331   1.523   0.318   1.666
 8111SOL    HW134332   1.623   0.320   1.674
 8111SOL    HW234333   1.490   0.224   1.677
 8112SOL     OW34334   1.913   7.746   2.295
 8112SOL    HW134335   1.888   7.834   2.254
 8112SOL    HW234336   1.922   7.756   2.394
 8113SOL     OW34337   1.359   0.934   2.865
 8113SOL    HW134338   1.435   0.880   2.828
 8113SOL    HW234339   1.274   0.905   2.822
 8114SOL     OW34340   4.307   3.963   5.464
 8114SOL    HW134341   4.221   4.010   5.447
 8114SOL    HW234342   4.355   3.946   5.377
 8115SOL     OW34343   1.690   1.313   4.129
 8115SOL    HW134344   1.725   1.404   4.104
 8115SOL    HW234345   1.722   1.288   4.220
 8116SOL     OW34346   1.774   2.521   4.627
 8116SOL    HW134347   1.723   2.599   4.664
 8116SOL    HW234348   1.872   2.539   4.629
 8117SOL     OW34349   1.121   6.908   1.628
 8117SOL    HW134350   1.214   6.895   1.593
 8117SOL    HW234351   1.115   6.875   1.722
 8118SOL     OW34352   0.187   0.908   1.541
 8118SOL    HW134353   0.123   0.844   1.584
 8118SOL    HW234354   0.220   0.974   1.608
 8119SOL     OW34355   1.589   2.859   2.757
 8119SOL    HW134356   1.586   2.782   2.820
 8119SOL    HW234357   1.506   2.913   2.764
 8120SOL     OW34358   3.429   0.852   7.464
 8120SOL    HW134359   3.351   0.819   7.517
 8120SOL    HW234360   3.403   0.866   7.369
 8121SOL     OW34361   0.578   0.130   6.345
 8121SOL    HW134362   0.599   0.103   6.439
 8121SOL    HW234363   0.663   0.139   6.293
 8122SOL     OW34364   1.950  -0.011   2.799
 8122SOL    HW134365   1.929  -0.011   2.897
 8122SOL    HW234366   2.048   0.004   2.786
 8123SOL     OW34367   3.374   1.254   1.049
 8123SOL    HW134368   3.277   1.240   1.070
 8123SOL    HW234369   3.419   1.166   1.034
 8124SOL     OW34370   5.327   1.074   2.046
 8124SOL    HW134371   5.340   0.986   2.000
 8124SOL    HW234372   5.319   1.060   2.144
 8125SOL     OW34373   1.879   1.000   2.310
 8125SOL    HW134374   1.869   1.095   2.279
 8125SOL    HW234375   1.896   0.997   2.408
 8126SOL     OW34376   2.734   7.705   4.584
 8126SOL    HW134377   2.719   7.646   4.664
 8126SOL    HW234378   2.816   7.760   4.597
 8127SOL     OW34379   6.400   6.151   4.001
 8127SOL    HW134380   6.378   6.242   3.966
 8127SOL    HW234381   6.431   6.157   4.095
 8128SOL     OW34382   0.761   7.930   1.211
 8128SOL    HW134383   0.687   7.883   1.162
 8128SOL    HW234384   0.741   7.932   1.309
 8129SOL     OW34385   2.642   2.690   7.909
 8129SOL    HW134386   2.623   2.774   7.960
 8129SOL    HW234387   2.629   2.705   7.811
 8130SOL     OW34388   0.223   2.797   3.047
 8130SOL    HW134389   0.304   2.744   3.022
 8130SOL    HW234390   0.189   2.847   2.967
 8131SOL     OW34391   7.217   7.405   4.265
 8131SOL    HW134392   7.149   7.422   4.193
 8131SOL    HW234393   7.196   7.320   4.312
 8132SOL     OW34394   5.881   4.192   6.017
 8132SOL    HW134395   5.875   4.096   6.044
 8132SOL    HW234396   5.798   4.241   6.044
 8133SOL     OW34397   4.430   6.181   3.668
 8133SOL    HW134398   4.420   6.198   3.570
 8133SOL    HW234399   4.419   6.266   3.718
 8134SOL     OW34400   5.779   4.332   3.676
 8134SOL    HW134401   5.787   4.422   3.633
 8134SOL    HW234402   5.758   4.262   3.608
 8135SOL     OW34403   0.988   6.879   6.365
 8135SOL    HW134404   0.949   6.913   6.279
 8135SOL    HW234405   0.923   6.818   6.410
 8136SOL     OW34406   7.254   4.544   6.726
 8136SOL    HW134407   7.194   4.519   6.802
 8136SOL    HW234408   7.318   4.470   6.707
 8137SOL     OW34409   1.396   5.809   2.699
 8137SOL    HW134410   1.347   5.739   2.752
 8137SOL    HW234411   1.454   5.766   2.631
 8138SOL     OW34412   5.405   0.878   7.645
 8138SOL    HW134413   5.397   0.864   7.546
 8138SOL    HW234414   5.414   0.976   7.665
 8139SOL     OW34415   7.525   3.020   3.738
 8139SOL    HW134416   7.613   3.066   3.724
 8139SOL    HW234417   7.540   2.922   3.753
 8140SOL     OW34418   6.550   7.789   5.490
 8140SOL    HW134419   6.575   7.874   5.536
 8140SOL    HW234420   6.529   7.808   5.394
 8141SOL     OW34421   1.080   1.870   5.009
 8141SOL    HW134422   1.153   1.840   5.070
 8141SOL    HW234423   1.104   1.849   4.914
 8142SOL     OW34424   3.346   2.062   1.516
 8142SOL    HW134425   3.388   2.147   1.482
 8142SOL    HW234426   3.381   2.042   1.608
 8143SOL     OW34427   7.823   2.940   7.012
 8143SOL    HW134428   7.759   2.864   7.024
 8143SOL    HW234429   7.887   2.920   6.938
 8144SOL     OW34430   1.153   3.758   3.192
 8144SOL    HW134431   1.081   3.788   3.255
 8144SOL    HW234432   1.117   3.688   3.130
 8145SOL     OW34433   2.320   3.754   3.697
 8145SOL    HW134434   2.406   3.713   3.667
 8145SOL    HW234435   2.337   3.822   3.768
 8146SOL     OW34436   0.038   3.480   0.854
 8146SOL    HW134437   0.113   3.543   0.877
 8146SOL    HW234438   0.025   3.478   0.755
 8147SOL     OW34439   7.853   0.246   0.504
 8147SOL    HW134440   7.863   0.341   0.474
 8147SOL    HW234441   7.821   0.189   0.429
 8148SOL     OW34442   5.745   3.714   1.929
 8148SOL    HW134443   5.833   3.745   1.964
 8148SOL    HW234444   5.730   3.748   1.837
 8149SOL     OW34445   7.811   3.697   7.459
 8149SOL    HW134446   7.905   3.716   7.488
 8149SOL    HW234447   7.774   3.620   7.510
 8150SOL     OW34448   1.609   5.897   6.934
 8150SOL    HW134449   1.691   5.939   6.896
 8150SOL    HW234450   1.629   5.859   7.025
 8151SOL     OW34451   6.152   1.651   0.962
 8151SOL    HW134452   6.210   1.695   1.031
 8151SOL    HW234453   6.162   1.552   0.969
 8152SOL     OW34454   0.468   2.907   4.160
 8152SOL    HW134455   0.484   2.980   4.226
 8152SOL    HW234456   0.413   2.834   4.201
 8153SOL     OW34457   6.514   4.075   4.482
 8153SOL    HW134458   6.460   4.157   4.462
 8153SOL    HW234459   6.569   4.050   4.403
 8154SOL     OW34460   1.956   6.501   3.226
 8154SOL    HW134461   1.916   6.593   3.223
 8154SOL    HW234462   2.055   6.507   3.212
 8155SOL     OW34463   2.229   2.853   4.009
 8155SOL    HW134464   2.148   2.857   3.952
 8155SOL    HW234465   2.208   2.885   4.102
 8156SOL     OW34466   3.521   6.149   2.403
 8156SOL    HW134467   3.465   6.221   2.361
 8156SOL    HW234468   3.514   6.065   2.349
 8157SOL     OW34469   5.852   0.251   5.784
 8157SOL    HW134470   5.774   0.191   5.803
 8157SOL    HW234471   5.887   0.233   5.693
 8158SOL     OW34472   7.835   5.209   1.699
 8158SOL    HW134473   7.876   5.280   1.757
 8158SOL    HW234474   7.842   5.235   1.602
 8159SOL     OW34475   6.076   5.578   3.879
 8159SOL    HW134476   6.130   5.654   3.915
 8159SOL    HW234477   5.996   5.613   3.830
 8160SOL     OW34478   0.934   3.544   6.252
 8160SOL    HW134479   0.977   3.458   6.226
 8160SOL    HW234480   0.893   3.536   6.343
 8161SOL     OW34481   3.806   5.856   0.226
 8161SOL    HW134482   3.874   5.862   0.300
 8161SOL    HW234483   3.851   5.842   0.138
 8162SOL     OW34484   0.343   5.047   7.362
 8162SOL    HW134485   0.396   5.107   7.421
 8162SOL    HW234486   0.260   5.093   7.331
 8163SOL     OW34487   6.419   5.362   0.091
 8163SOL    HW134488   6.482   5.285   0.099
 8163SOL    HW234489   6.353   5.344   0.018
 8164SOL     OW34490   2.328   1.504   1.566
 8164SOL    HW134491   2.350   1.423   1.620
 8164SOL    HW234492   2.366   1.494   1.474
 8165SOL     OW34493   0.370   5.811   0.715
 8165SOL    HW134494   0.419   5.896   0.734
 8165SOL    HW234495   0.374   5.751   0.795
 8166SOL     OW34496   3.223   2.049   5.934
 8166SOL    HW134497   3.198   2.123   5.871
 8166SOL    HW234498   3.234   2.085   6.026
 8167SOL     OW34499   5.882   5.018   5.517
 8167SOL    HW134500   5.805   4.955   5.522
 8167SOL    HW234501   5.922   5.031   5.608
 8168SOL     OW34502   4.266   4.071   7.937
 8168SOL    HW134503   4.345   4.130   7.953
 8168SOL    HW234504   4.259   4.049   7.840
 8169SOL     OW34505   2.117   4.297   5.337
 8169SOL    HW134506   2.149   4.272   5.245
 8169SOL    HW234507   2.192   4.291   5.402
 8170SOL     OW34508   0.565   1.028   3.010
 8170SOL    HW134509   0.639   1.003   3.072
 8170SOL    HW234510   0.477   1.020   3.057
 8171SOL     OW34511   4.879   3.567   1.320
 8171SOL    HW134512   4.885   3.534   1.226
 8171SOL    HW234513   4.970   3.597   1.352
 8172SOL     OW34514   3.993   6.167   1.593
 8172SOL    HW134515   4.018   6.256   1.555
 8172SOL    HW234516   4.013   6.165   1.691
 8173SOL     OW34517   1.830   3.428   4.579
 8173SOL    HW134518   1.814   3.438   4.677
 8173SOL    HW234519   1.927   3.433   4.559
 8174SOL     OW34520   3.866   4.042   5.111
 8174SOL    HW134521   3.952   4.021   5.158
 8174SOL    HW234522   3.848   3.973   5.041
 8175SOL     OW34523   7.487   6.178   0.456
 8175SOL    HW134524   7.493   6.080   0.476
 8175SOL    HW234525   7.393   6.210   0.469
 8176SOL     OW34526   2.234   0.665   2.366
 8176SOL    HW134527   2.177   0.732   2.318
 8176SOL    HW234528   2.274   0.706   2.448
 8177SOL     OW34529   5.390   5.742   6.302
 8177SOL    HW134530   5.351   5.653   6.328
 8177SOL    HW234531   5.488   5.743   6.322
 8178SOL     OW34532   7.413   6.556   1.492
 8178SOL    HW134533   7.465   6.632   1.452
 8178SOL    HW234534   7.441   6.543   1.587
 8179SOL     OW34535   2.725   5.566   6.402
 8179SOL    HW134536   2.811   5.618   6.396
 8179SOL    HW234537   2.724   5.494   6.332
 8180SOL     OW34538   4.031   3.151   5.824
 8180SOL    HW134539   4.025   3.055   5.797
 8180SOL    HW234540   4.102   3.163   5.894
 8181SOL     OW34541   6.090   5.008   3.268
 8181SOL    HW134542   6.163   5.048   3.324
 8181SOL    HW234543   6.036   4.944   3.323
 8182SOL     OW34544   2.724   6.856   0.388
 8182SOL    HW134545   2.757   6.927   0.325
 8182SOL    HW234546   2.663   6.896   0.456
 8183SOL     OW34547   4.168   7.601   2.821
 8183SOL    HW134548   4.142   7.560   2.909
 8183SOL    HW234549   4.188   7.530   2.754
 8184SOL     OW34550   0.962   3.988   5.418
 8184SOL    HW134551   1.047   4.023   5.457
 8184SOL    HW234552   0.937   3.901   5.462
 8185SOL     OW34553   5.691   4.950   7.919
 8185SOL    HW134554   5.676   4.941   8.018
 8185SOL    HW234555   5.785   4.923   7.896
 8186SOL     OW34556   2.858   4.677   4.526
 8186SOL    HW134557   2.873   4.580   4.507
 8186SOL    HW234558   2.853   4.692   4.625
 8187SOL     OW34559   6.548   0.376   3.522
 8187SOL    HW134560   6.552   0.444   3.449
 8187SOL    HW234561   6.465   0.322   3.513
 8188SOL     OW34562   5.309   7.937   7.502
 8188SOL    HW134563   5.292   7.989   7.586
 8188SOL    HW234564   5.370   7.989   7.442
 8189SOL     OW34565   2.262   0.690   3.505
 8189SOL    HW134566   2.286   0.593   3.512
 8189SOL    HW234567   2.284   0.724   3.414
 8190SOL     OW34568   5.468   0.072   4.983
 8190SOL    HW134569   5.529   0.075   4.904
 8190SOL    HW234570   5.479   0.155   5.038
 8191SOL     OW34571   6.996   6.170   4.255
 8191SOL    HW134572   7.040   6.255   4.223
 8191SOL    HW234573   7.013   6.097   4.189
 8192SOL     OW34574   6.455   1.668   5.516
 8192SOL    HW134575   6.540   1.615   5.516
 8192SOL    HW234576   6.405   1.652   5.601
 8193SOL     OW34577   7.281   6.026   2.532
 8193SOL    HW134578   7.304   5.934   2.500
 8193SOL    HW234579   7.342   6.052   2.607
 8194SOL     OW34580   4.243   0.801   3.754
 8194SOL    HW134581   4.272   0.722   3.809
 8194SOL    HW234582   4.265   0.786   3.658
 8195SOL     OW34583   7.842   4.689   4.885
 8195SOL    HW134584   7.920   4.657   4.940
 8195SOL    HW234585   7.775   4.616   4.876
 8196SOL     OW34586   6.893   3.233   2.331
 8196SOL    HW134587   6.975   3.259   2.281
 8196SOL    HW234588   6.915   3.219   2.428
 8197SOL     OW34589   0.118   7.031   4.627
 8197SOL    HW134590   0.057   6.952   4.624
 8197SOL    HW234591   0.191   7.016   4.692
 8198SOL     OW34592   2.004   6.278   1.014
 8198SOL    HW134593   1.906   6.280   1.034
 8198SOL    HW234594   2.046   6.365   1.039
 8199SOL     OW34595   4.750   4.687   3.979
 8199SOL    HW134596   4.843   4.673   4.011
 8199SOL    HW234597   4.749   4.705   3.880
 8200SOL     OW34598   4.713   4.651   3.165
 8200SOL    HW134599   4.736   4.704   3.084
 8200SOL    HW234600   4.629   4.686   3.206
 8201SOL     OW34601   1.209   7.289   1.604
 8201SOL    HW134602   1.200   7.198   1.564
 8201SOL    HW234603   1.144   7.300   1.680
 8202SOL     OW34604   1.828   0.080   4.524
 8202SOL    HW134605   1.771   0.019   4.470
 8202SOL    HW234606   1.817   0.174   4.493
 8203SOL     OW34607   0.934   3.205   5.331
 8203SOL    HW134608   0.918   3.283   5.271
 8203SOL    HW234609   0.970   3.236   5.419
 8204SOL     OW34610   4.181   4.004   4.746
 8204SOL    HW134611   4.212   3.923   4.796
 8204SOL    HW234612   4.088   4.027   4.772
 8205SOL     OW34613   1.844   0.644   1.546
 8205SOL    HW134614   1.813   0.564   1.597
 8205SOL    HW234615   1.933   0.674   1.581
 8206SOL     OW34616   4.453   0.249   1.325
 8206SOL    HW134617   4.361   0.274   1.293
 8206SOL    HW234618   4.456   0.151   1.344
 8207SOL     OW34619   5.059   5.110   5.834
 8207SOL    HW134620   4.972   5.145   5.800
 8207SOL    HW234621   5.079   5.148   5.924
 8208SOL     OW34622   1.317   6.314   7.112
 8208SOL    HW134623   1.321   6.392   7.050
 8208SOL    HW234624   1.369   6.334   7.195
 8209SOL     OW34625   6.167   5.961   0.616
 8209SOL    HW134626   6.227   6.002   0.685
 8209SOL    HW234627   6.092   6.023   0.595
 8210SOL     OW34628   2.858   5.782   0.475
 8210SOL    HW134629   2.776   5.770   0.532
 8210SOL    HW234630   2.933   5.819   0.530
 8211SOL     OW34631   4.688   2.992   1.438
 8211SOL    HW134632   4.593   3.019   1.453
 8211SOL    HW234633   4.748   3.071   1.444
 8212SOL     OW34634   4.439   0.817   3.925
 8212SOL    HW134635   4.457   0.915   3.929
 8212SOL    HW234636   4.369   0.792   3.993
 8213SOL     OW34637   1.971   5.339   1.499
 8213SOL    HW134638   1.907   5.413   1.516
 8213SOL    HW234639   2.051   5.348   1.558
 8214SOL     OW34640   0.239   2.922   5.799
 8214SOL    HW134641   0.323   2.966   5.766
 8214SOL    HW234642   0.252   2.890   5.893
 8215SOL     OW34643   0.395   0.810   6.634
 8215SOL    HW134644   0.369   0.854   6.548
 8215SOL    HW234645   0.389   0.875   6.709
 8216SOL     OW34646   4.078   5.898   7.626
 8216SOL    HW134647   4.125   5.924   7.541
 8216SOL    HW234648   4.114   5.951   7.702
 8217SOL     OW34649   3.693   5.721   3.167
 8217SOL    HW134650   3.675   5.678   3.079
 8217SOL    HW234651   3.759   5.666   3.218
 8218SOL     OW34652   2.415   2.298   0.484
 8218SOL    HW134653   2.393   2.395   0.481
 8218SOL    HW234654   2.398   2.261   0.575
 8219SOL     OW34655   7.279   1.366   4.897
 8219SOL    HW134656   7.339   1.446   4.903
 8219SOL    HW234657   7.197   1.389   4.845
 8220SOL     OW34658   4.750   5.871   4.319
 8220SOL    HW134659   4.745   5.833   4.412
 8220SOL    HW234660   4.744   5.797   4.252
 8221SOL     OW34661   3.760   1.614   6.560
 8221SOL    HW134662   3.797   1.615   6.653
 8221SOL    HW234663   3.669   1.655   6.560
 8222SOL     OW34664   5.305   6.668   0.601
 8222SOL    HW134665   5.355   6.629   0.524
 8222SOL    HW234666   5.354   6.747   0.638
 8223SOL     OW34667   3.358   3.710   0.582
 8223SOL    HW134668   3.261   3.728   0.568
 8223SOL    HW234669   3.384   3.731   0.676
 8224SOL     OW34670   2.225   0.585   4.041
 8224SOL    HW134671   2.236   0.494   3.999
 8224SOL    HW234672   2.203   0.576   4.138
 8225SOL     OW34673   2.422   2.149   1.699
 8225SOL    HW134674   2.372   2.170   1.783
 8225SOL    HW234675   2.358   2.141   1.622
 8226SOL     OW34676   4.414   2.870   7.766
 8226SOL    HW134677   4.387   2.860   7.863
 8226SOL    HW234678   4.350   2.820   7.708
 8227SOL     OW34679   2.065   4.914   3.038
 8227SOL    HW134680   1.988   4.956   2.991
 8227SOL    HW234681   2.099   4.976   3.109
 8228SOL     OW34682   1.099   1.982   1.841
 8228SOL    HW134683   1.117   1.925   1.760
 8228SOL    HW234684   1.167   2.056   1.845
 8229SOL     OW34685   7.837   6.079   3.198
 8229SOL    HW134686   7.798   5.987   3.204
 8229SOL    HW234687   7.892   6.087   3.114
 8230SOL     OW34688   2.140   4.540   5.163
 8230SOL    HW134689   2.081   4.460   5.152
 8230SOL    HW234690   2.190   4.535   5.249
 8231SOL     OW34691   3.977   3.020   2.728
 8231SOL    HW134692   3.934   3.100   2.772
 8231SOL    HW234693   3.906   2.956   2.699
 8232SOL     OW34694   1.796   6.279   0.751
 8232SOL    HW134695   1.774   6.351   0.685
 8232SOL    HW234696   1.881   6.233   0.724
 8233SOL     OW34697   5.378   4.191   0.100
 8233SOL    HW134698   5.429   4.131   0.038
 8233SOL    HW234699   5.280   4.185   0.079
 8234SOL     OW34700   3.436   7.059   3.944
 8234SOL    HW134701   3.499   7.077   4.020
 8234SOL    HW234702   3.486   7.019   3.867
 8235SOL     OW34703   7.585   2.121   4.154
 8235SOL    HW134704   7.603   2.212   4.117
 8235SOL    HW234705   7.644   2.103   4.233
 8236SOL     OW34706   5.085   4.568   4.511
 8236SOL    HW134707   4.986   4.556   4.513
 8236SOL    HW234708   5.117   4.576   4.417
 8237SOL     OW34709   6.026   4.854   1.620
 8237SOL    HW134710   5.996   4.770   1.574
 8237SOL    HW234711   6.007   4.933   1.562
 8238SOL     OW34712   6.125   6.859   2.715
 8238SOL    HW134713   6.189   6.848   2.791
 8238SOL    HW234714   6.033   6.874   2.750
 8239SOL     OW34715   1.693   5.238   0.079
 8239SOL    HW134716   1.595   5.231   0.100
 8239SOL    HW234717   1.709   5.316   0.018
 8240SOL     OW34718   4.627   3.314   6.488
 8240SOL    HW134719   4.554   3.255   6.452
 8240SOL    HW234720   4.605   3.344   6.580
 8241SOL     OW34721   4.224   6.064   1.631
 8241SOL    HW134722   4.207   6.117   1.548
 8241SOL    HW234723   4.228   6.125   1.710
 8242SOL     OW34724   7.260   3.552   2.697
 8242SOL    HW134725   7.273   3.539   2.599
 8242SOL    HW234726   7.305   3.636   2.727
 8243SOL     OW34727   0.510   7.704   6.902
 8243SOL    HW134728   0.471   7.678   6.991
 8243SOL    HW234729   0.596   7.656   6.887
 8244SOL     OW34730   3.017   5.552   4.910
 8244SOL    HW134731   2.942   5.503   4.953
 8244SOL    HW234732   3.030   5.519   4.816
 8245SOL     OW34733   0.619   4.431   2.666
 8245SOL    HW134734   0.638   4.529   2.676
 8245SOL    HW234735   0.529   4.417   2.627
 8246SOL     OW34736   6.189   4.587   1.832
 8246SOL    HW134737   6.168   4.626   1.743
 8246SOL    HW234738   6.121   4.517   1.855
 8247SOL     OW34739   6.048   1.494   5.086
 8247SOL    HW134740   6.027   1.543   5.171
 8247SOL    HW234741   6.147   1.481   5.078
 8248SOL     OW34742   6.455   6.965   5.886
 8248SOL    HW134743   6.540   6.926   5.851
 8248SOL    HW234744   6.438   6.931   5.979
 8249SOL     OW34745   4.297   7.608   5.010
 8249SOL    HW134746   4.214   7.587   5.063
 8249SOL    HW234747   4.333   7.524   4.970
 8250SOL     OW34748   0.005   6.830   1.026
 8250SOL    HW134749   0.101   6.841   1.053
 8250SOL    HW234750  -0.045   6.782   1.098
 8251SOL     OW34751   7.351   5.498   6.903
 8251SOL    HW134752   7.280   5.471   6.837
 8251SOL    HW234753   7.409   5.569   6.863
 8252SOL     OW34754   6.241   5.099   0.204
 8252SOL    HW134755   6.324   5.146   0.173
 8252SOL    HW234756   6.257   5.061   0.295
 8253SOL     OW34757   0.696   2.466   2.228
 8253SOL    HW134758   0.778   2.492   2.279
 8253SOL    HW234759   0.717   2.462   2.130
 8254SOL     OW34760   6.699   7.666   1.858
 8254SOL    HW134761   6.625   7.599   1.859
 8254SOL    HW234762   6.769   7.637   1.793
 8255SOL     OW34763   6.170   6.081   1.211
 8255SOL    HW134764   6.126   6.166   1.239
 8255SOL    HW234765   6.231   6.048   1.283
 8256SOL     OW34766   3.989   0.476   0.337
 8256SOL    HW134767   4.038   0.547   0.389
 8256SOL    HW234768   3.970   0.508   0.244
 8257SOL     OW34769   0.366   0.444   6.098
 8257SOL    HW134770   0.292   0.475   6.038
 8257SOL    HW234771   0.402   0.357   6.065
 8258SOL     OW34772   2.194   3.840   0.829
 8258SOL    HW134773   2.283   3.796   0.817
 8258SOL    HW234774   2.191   3.925   0.776
 8259SOL     OW34775   7.528   6.110   6.084
 8259SOL    HW134776   7.606   6.047   6.076
 8259SOL    HW234777   7.515   6.159   5.998
 8260SOL     OW34778   2.912   6.602   2.441
 8260SOL    HW134779   2.951   6.626   2.352
 8260SOL    HW234780   2.852   6.676   2.473
 8261SOL     OW34781   0.219   2.584   1.623
 8261SOL    HW134782   0.184   2.677   1.635
 8261SOL    HW234783   0.227   2.539   1.712
 8262SOL     OW34784   5.506   6.665   2.765
 8262SOL    HW134785   5.476   6.570   2.761
 8262SOL    HW234786   5.437   6.722   2.808
 8263SOL     OW34787   0.311   3.220   4.734
 8263SOL    HW134788   0.230   3.272   4.761
 8263SOL    HW234789   0.284   3.144   4.675
 8264SOL     OW34790   6.617   4.422   3.467
 8264SOL    HW134791   6.573   4.341   3.430
 8264SOL    HW234792   6.562   4.461   3.541
 8265SOL     OW34793   3.112   2.717   3.274
 8265SOL    HW134794   3.021   2.719   3.231
 8265SOL    HW234795   3.103   2.733   3.372
 8266SOL     OW34796   1.991   6.081   7.637
 8266SOL    HW134797   2.009   6.052   7.731
 8266SOL    HW234798   1.927   6.018   7.593
 8267SOL     OW34799   7.621   4.989   4.559
 8267SOL    HW134800   7.711   4.976   4.516
 8267SOL    HW234801   7.586   4.901   4.591
 8268SOL     OW34802   6.653   3.300   2.875
 8268SOL    HW134803   6.706   3.380   2.901
 8268SOL    HW234804   6.694   3.218   2.914
 8269SOL     OW34805   6.784   7.204   7.524
 8269SOL    HW134806   6.838   7.124   7.548
 8269SOL    HW234807   6.724   7.230   7.600
 8270SOL     OW34808   0.118   5.133   2.188
 8270SOL    HW134809   0.170   5.108   2.269
 8270SOL    HW234810   0.154   5.085   2.108
 8271SOL     OW34811   6.584   3.719   1.646
 8271SOL    HW134812   6.611   3.770   1.728
 8271SOL    HW234813   6.485   3.711   1.641
 8272SOL     OW34814   1.816   6.686   6.028
 8272SOL    HW134815   1.735   6.660   6.082
 8272SOL    HW234816   1.800   6.666   5.931
 8273SOL     OW34817   2.241   4.121   4.526
 8273SOL    HW134818   2.164   4.149   4.583
 8273SOL    HW234819   2.218   4.131   4.429
 8274SOL     OW34820   4.397   3.908   4.677
 8274SOL    HW134821   4.431   3.865   4.593
 8274SOL    HW234822   4.465   3.973   4.711
 8275SOL     OW34823   6.025   6.092   4.900
 8275SOL    HW134824   5.977   6.005   4.913
 8275SOL    HW234825   5.991   6.137   4.818
 8276SOL     OW34826   6.789   2.663   6.050
 8276SOL    HW134827   6.873   2.669   5.996
 8276SOL    HW234828   6.737   2.581   6.024
 8277SOL     OW34829   1.195   3.807   5.292
 8277SOL    HW134830   1.122   3.868   5.261
 8277SOL    HW234831   1.224   3.833   5.385
 8278SOL     OW34832   1.304   0.602   2.107
 8278SOL    HW134833   1.353   0.527   2.152
 8278SOL    HW234834   1.330   0.607   2.011
 8279SOL     OW34835   1.601   3.423   0.641
 8279SOL    HW134836   1.623   3.370   0.559
 8279SOL    HW234837   1.524   3.485   0.622
 8280SOL     OW34838   0.161   3.020   4.199
 8280SOL    HW134839   0.107   2.943   4.234
 8280SOL    HW234840   0.187   3.003   4.104
 8281SOL     OW34841   7.015   4.592   0.491
 8281SOL    HW134842   6.968   4.515   0.534
 8281SOL    HW234843   7.022   4.577   0.392
 8282SOL     OW34844   2.097   0.624   7.779
 8282SOL    HW134845   2.134   0.644   7.870
 8282SOL    HW234846   2.040   0.700   7.748
 8283SOL     OW34847   1.331   2.744   3.477
 8283SOL    HW134848   1.319   2.660   3.531
 8283SOL    HW234849   1.391   2.727   3.399
 8284SOL     OW34850   4.859   3.573   4.470
 8284SOL    HW134851   4.793   3.598   4.541
 8284SOL    HW234852   4.827   3.604   4.381
 8285SOL     OW34853   3.227   7.759   2.201
 8285SOL    HW134854   3.289   7.687   2.169
 8285SOL    HW234855   3.271   7.848   2.193
 8286SOL     OW34856   4.182   5.058   2.650
 8286SOL    HW134857   4.278   5.032   2.638
 8286SOL    HW234858   4.154   5.121   2.578
 8287SOL     OW34859   2.557   4.378   4.728
 8287SOL    HW134860   2.651   4.385   4.695
 8287SOL    HW234861   2.557   4.361   4.826
 8288SOL     OW34862   0.413   3.940   1.143
 8288SOL    HW134863   0.381   3.988   1.061
 8288SOL    HW234864   0.506   3.905   1.127
 8289SOL     OW34865   3.635   5.076   0.566
 8289SOL    HW134866   3.714   5.088   0.506
 8289SOL    HW234867   3.555   5.048   0.513
 8290SOL     OW34868   6.380   4.831   7.664
 8290SOL    HW134869   6.463   4.879   7.694
 8290SOL    HW234870   6.397   4.786   7.576
 8291SOL     OW34871   7.299   1.628   0.795
 8291SOL    HW134872   7.336   1.537   0.815
 8291SOL    HW234873   7.242   1.660   0.871
 8292SOL     OW34874   4.159   0.129   7.478
 8292SOL    HW134875   4.212   0.188   7.417
 8292SOL    HW234876   4.094   0.184   7.531
 8293SOL     OW34877   0.494   3.239   4.179
 8293SOL    HW134878   0.592   3.238   4.198
 8293SOL    HW234879   0.443   3.274   4.258
 8294SOL     OW34880  -0.004   5.283   0.114
 8294SOL    HW134881  -0.004   5.372   0.160
 8294SOL    HW234882  -0.030   5.294   0.019
 8295SOL     OW34883   2.397   6.539   2.275
 8295SOL    HW134884   2.441   6.513   2.361
 8295SOL    HW234885   2.369   6.457   2.224
 8296SOL     OW34886   6.356   4.790   2.505
 8296SOL    HW134887   6.366   4.709   2.448
 8296SOL    HW234888   6.299   4.770   2.584
 8297SOL     OW34889   6.053   5.184   1.747
 8297SOL    HW134890   6.038   5.127   1.666
 8297SOL    HW234891   5.966   5.218   1.782
 8298SOL     OW34892   6.526   3.102   6.481
 8298SOL    HW134893   6.586   3.176   6.450
 8298SOL    HW234894   6.566   3.014   6.459
 8299SOL     OW34895   3.390   7.941   6.693
 8299SOL    HW134896   3.320   7.904   6.632
 8299SOL    HW234897   3.452   7.869   6.723
 8300SOL     OW34898   1.708   4.142   0.875
 8300SOL    HW134899   1.739   4.056   0.835
 8300SOL    HW234900   1.662   4.124   0.962
 8301SOL     OW34901   1.207   3.817   7.174
 8301SOL    HW134902   1.165   3.803   7.264
 8301SOL    HW234903   1.151   3.880   7.120
 8302SOL     OW34904   0.386   4.660   3.701
 8302SOL    HW134905   0.441   4.678   3.783
 8302SOL    HW234906   0.303   4.609   3.726
 8303SOL     OW34907   3.945   6.590   0.864
 8303SOL    HW134908   3.944   6.578   0.765
 8303SOL    HW234909   3.954   6.688   0.886
 8304SOL     OW34910   5.057   5.284   7.938
 8304SOL    HW134911   4.996   5.363   7.936
 8304SOL    HW234912   5.020   5.211   7.880
 8305SOL     OW34913   1.066   2.535   4.717
 8305SOL    HW134914   1.161   2.548   4.688
 8305SOL    HW234915   1.059   2.540   4.816
 8306SOL     OW34916   4.696   1.800   5.186
 8306SOL    HW134917   4.613   1.787   5.132
 8306SOL    HW234918   4.674   1.838   5.276
 8307SOL     OW34919   0.143   2.669   2.623
 8307SOL    HW134920   0.079   2.745   2.613
 8307SOL    HW234921   0.148   2.616   2.539
 8308SOL     OW34922   4.386   1.553   2.387
 8308SOL    HW134923   4.340   1.483   2.442
 8308SOL    HW234924   4.477   1.520   2.359
 8309SOL     OW34925   7.931   7.735   0.338
 8309SOL    HW134926   7.933   7.833   0.318
 8309SOL    HW234927   7.957   7.720   0.434
 8310SOL     OW34928   4.700   3.427   4.975
 8310SOL    HW134929   4.785   3.401   4.930
 8310SOL    HW234930   4.708   3.415   5.074
 8311SOL     OW34931   4.535   5.365   2.609
 8311SOL    HW134932   4.596   5.342   2.684
 8311SOL    HW234933   4.522   5.465   2.604
 8312SOL     OW34934   0.038   4.964   6.615
 8312SOL    HW134935   0.052   4.870   6.649
 8312SOL    HW234936   0.084   4.975   6.527
 8313SOL     OW34937   4.952   3.617   5.168
 8313SOL    HW134938   4.985   3.524   5.182
 8313SOL    HW234939   4.928   3.631   5.072
 8314SOL     OW34940   4.567   1.874   7.945
 8314SOL    HW134941   4.657   1.895   7.983
 8314SOL    HW234942   4.544   1.778   7.964
 8315SOL     OW34943   2.883   6.800   2.041
 8315SOL    HW134944   2.901   6.714   2.089
 8315SOL    HW234945   2.969   6.848   2.023
 8316SOL     OW34946   2.931   3.324   7.253
 8316SOL    HW134947   2.940   3.227   7.276
 8316SOL    HW234948   2.915   3.377   7.336
 8317SOL     OW34949   1.590   5.571   5.633
 8317SOL    HW134950   1.637   5.490   5.597
 8317SOL    HW234951   1.533   5.546   5.711
 8318SOL     OW34952   4.186   6.137   3.584
 8318SOL    HW134953   4.239   6.085   3.517
 8318SOL    HW234954   4.143   6.076   3.650
 8319SOL     OW34955   7.955   5.264   4.015
 8319SOL    HW134956   7.866   5.251   4.058
 8319SOL    HW234957   7.954   5.224   3.923
 8320SOL     OW34958   4.195   3.159   3.782
 8320SOL    HW134959   4.146   3.135   3.697
 8320SOL    HW234960   4.254   3.237   3.765
 8321SOL     OW34961   2.285   3.663   2.472
 8321SOL    HW134962   2.303   3.613   2.386
 8321SOL    HW234963   2.187   3.665   2.490
 8322SOL     OW34964   0.324   1.449   7.349
 8322SOL    HW134965   0.335   1.356   7.385
 8322SOL    HW234966   0.362   1.454   7.257
 8323SOL     OW34967   4.110   7.012   4.822
 8323SOL    HW134968   4.176   6.943   4.792
 8323SOL    HW234969   4.078   7.065   4.743
 8324SOL     OW34970   3.401   7.067   2.674
 8324SOL    HW134971   3.324   7.004   2.687
 8324SOL    HW234972   3.469   7.026   2.614
 8325SOL     OW34973   6.107   1.335   3.131
 8325SOL    HW134974   6.129   1.335   3.033
 8325SOL    HW234975   6.096   1.429   3.163
 8326SOL     OW34976   3.056   7.769   0.250
 8326SOL    HW134977   3.116   7.708   0.198
 8326SOL    HW234978   3.050   7.738   0.345
 8327SOL     OW34979   4.350   7.949   0.288
 8327SOL    HW134980   4.265   7.986   0.248
 8327SOL    HW234981   4.365   7.989   0.379
 8328SOL     OW34982   3.200   1.662   6.447
 8328SOL    HW134983   3.288   1.634   6.408
 8328SOL    HW234984   3.189   1.621   6.538
 8329SOL     OW34985   7.441   5.962   6.478
 8329SOL    HW134986   7.380   5.992   6.404
 8329SOL    HW234987   7.528   6.011   6.473
 8330SOL     OW34988   3.277   4.365   1.350
 8330SOL    HW134989   3.221   4.447   1.365
 8330SOL    HW234990   3.350   4.385   1.285
 8331SOL     OW34991   6.018   4.774   7.107
 8331SOL    HW134992   5.963   4.828   7.043
 8331SOL    HW234993   6.002   4.804   7.200
 8332SOL     OW34994   7.684   2.084   4.879
 8332SOL    HW134995   7.775   2.043   4.885
 8332SOL    HW234996   7.677   2.162   4.941
 8333SOL     OW34997   6.108   0.861   2.817
 8333SOL    HW134998   6.168   0.940   2.824
 8333SOL    HW234999   6.112   0.807   2.901
 8334SOL     OW35000   4.458   7.219   0.639
 8334SOL    HW135001   4.392   7.289   0.665
 8334SOL    HW235002   4.417   7.157   0.571
 8335SOL     OW35003   2.383   3.052   7.729
 8335SOL    HW135004   2.418   3.063   7.822
 8335SOL    HW235005   2.421   2.969   7.688
 8336SOL     OW35006   4.371   5.871   5.169
 8336SOL    HW135007   4.323   5.872   5.081
 8336SOL    HW235008   4.430   5.790   5.174
 8337SOL     OW35009   2.817   2.969   1.209
 8337SOL    HW135010   2.729   2.961   1.162
 8337SOL    HW235011   2.868   3.047   1.173
 8338SOL     OW35012   3.660   1.772   5.099
 8338SOL    HW135013   3.632   1.843   5.034
 8338SOL    HW235014   3.630   1.683   5.066
 8339SOL     OW35015   6.504   1.285   5.299
 8339SOL    HW135016   6.601   1.294   5.274
 8339SOL    HW235017   6.458   1.223   5.235
 8340SOL     OW35018   6.272   2.591   3.481
 8340SOL    HW135019   6.360   2.606   3.435
 8340SOL    HW235020   6.287   2.565   3.576
 8341SOL     OW35021   3.028   0.531   3.235
 8341SOL    HW135022   3.016   0.605   3.301
 8341SOL    HW235023   2.977   0.450   3.265
 8342SOL     OW35024   2.892   4.258   2.903
 8342SOL    HW135025   2.868   4.268   2.806
 8342SOL    HW235026   2.903   4.161   2.925
 8343SOL     OW35027   0.866   4.406   4.449
 8343SOL    HW135028   0.882   4.309   4.431
 8343SOL    HW235029   0.951   4.458   4.435
 8344SOL     OW35030   1.253   0.970   6.290
 8344SOL    HW135031   1.159   0.992   6.261
 8344SOL    HW235032   1.259   0.976   6.390
 8345SOL     OW35033   1.400   5.439   5.227
 8345SOL    HW135034   1.328   5.457   5.294
 8345SOL    HW235035   1.442   5.350   5.246
 8346SOL     OW35036   5.923   6.405   4.330
 8346SOL    HW135037   6.003   6.347   4.318
 8346SOL    HW235038   5.863   6.368   4.401
 8347SOL     OW35039   3.128   4.883   3.806
 8347SOL    HW135040   3.141   4.973   3.764
 8347SOL    HW235041   3.167   4.882   3.897
 8348SOL     OW35042   4.124   6.120   3.146
 8348SOL    HW135043   4.172   6.196   3.190
 8348SOL    HW235044   4.140   6.122   3.047
 8349SOL     OW35045   7.493   4.476   1.761
 8349SOL    HW135046   7.409   4.476   1.706
 8349SOL    HW235047   7.470   4.473   1.859
 8350SOL     OW35048   1.595   6.265   4.385
 8350SOL    HW135049   1.649   6.343   4.416
 8350SOL    HW235050   1.524   6.295   4.322
 8351SOL     OW35051   6.686   4.609   7.665
 8351SOL    HW135052   6.722   4.686   7.716
 8351SOL    HW235053   6.620   4.640   7.596
 8352SOL     OW35054   7.070   0.332   3.570
 8352SOL    HW135055   7.093   0.392   3.492
 8352SOL    HW235056   7.060   0.238   3.539
 8353SOL     OW35057   7.827   0.326   1.284
 8353SOL    HW135058   7.729   0.324   1.267
 8353SOL    HW235059   7.866   0.412   1.251
 8354SOL     OW35060   2.865   7.683   2.884
 8354SOL    HW135061   2.769   7.683   2.911
 8354SOL    HW235062   2.902   7.776   2.889
 8355SOL     OW35063   7.901   3.763   5.443
 8355SOL    HW135064   7.858   3.695   5.502
 8355SOL    HW235065   7.841   3.844   5.436
 8356SOL     OW35066   5.567   2.504   2.466
 8356SOL    HW135067   5.541   2.407   2.476
 8356SOL    HW235068   5.662   2.511   2.436
 8357SOL     OW35069   6.677   6.622   0.641
 8357SOL    HW135070   6.593   6.591   0.597
 8357SOL    HW235071   6.756   6.570   0.606
 8358SOL     OW35072   5.119   5.886   4.418
 8358SOL    HW135073   5.072   5.847   4.498
 8358SOL    HW235074   5.189   5.951   4.449
 8359SOL     OW35075   2.155   2.834   1.841
 8359SOL    HW135076   2.195   2.868   1.756
 8359SOL    HW235077   2.224   2.834   1.914
 8360SOL     OW35078   6.557   3.049   1.171
 8360SOL    HW135079   6.625   3.109   1.214
 8360SOL    HW235080   6.527   3.088   1.084
 8361SOL     OW35081   6.466   3.931   2.673
 8361SOL    HW135082   6.549   3.975   2.637
 8361SOL    HW235083   6.490   3.869   2.748
 8362SOL     OW35084   5.146   5.142   1.511
 8362SOL    HW135085   5.152   5.237   1.480
 8362SOL    HW235086   5.184   5.134   1.603
 8363SOL     OW35087   1.764   4.891   1.261
 8363SOL    HW135088   1.762   4.891   1.161
 8363SOL    HW235089   1.671   4.902   1.296
 8364SOL     OW35090   5.023   7.245   4.861
 8364SOL    HW135091   5.040   7.226   4.957
 8364SOL    HW235092   4.940   7.198   4.831
 8365SOL     OW35093   0.565   2.659   7.821
 8365SOL    HW135094   0.537   2.663   7.725
 8365SOL    HW235095   0.664   2.647   7.828
 8366SOL     OW35096   0.602   6.766   3.848
 8366SOL    HW135097   0.560   6.684   3.808
 8366SOL    HW235098   0.563   6.784   3.938
 8367SOL     OW35099   6.429   6.306   7.608
 8367SOL    HW135100   6.510   6.255   7.638
 8367SOL    HW235101   6.454   6.372   7.537
 8368SOL     OW35102   7.569   3.362   2.947
 8368SOL    HW135103   7.650   3.417   2.969
 8368SOL    HW235104   7.583   3.267   2.975
 8369SOL     OW35105   6.493   6.753   1.561
 8369SOL    HW135106   6.541   6.831   1.602
 8369SOL    HW235107   6.449   6.781   1.476
 8370SOL     OW35108   1.287   6.060   1.515
 8370SOL    HW135109   1.279   6.148   1.562
 8370SOL    HW235110   1.223   5.994   1.554
 8371SOL     OW35111   4.233   1.295   6.725
 8371SOL    HW135112   4.281   1.359   6.665
 8371SOL    HW235113   4.259   1.201   6.702
 8372SOL     OW35114   3.086   6.691   1.411
 8372SOL    HW135115   3.099   6.727   1.318
 8372SOL    HW235116   3.157   6.727   1.471
 8373SOL     OW35117   3.973   1.888   1.653
 8373SOL    HW135118   3.957   1.800   1.698
 8373SOL    HW235119   4.018   1.874   1.566
 8374SOL     OW35120   1.050   6.227   6.949
 8374SOL    HW135121   1.095   6.283   6.880
 8374SOL    HW235122   1.116   6.195   7.016
 8375SOL     OW35123   4.697   2.209   5.540
 8375SOL    HW135124   4.680   2.308   5.542
 8375SOL    HW235125   4.781   2.190   5.491
 8376SOL     OW35126   1.037   7.300   1.398
 8376SOL    HW135127   1.004   7.275   1.489
 8376SOL    HW235128   0.979   7.257   1.328
 8377SOL     OW35129   4.588   5.760   8.008
 8377SOL    HW135130   4.590   5.859   8.018
 8377SOL    HW235131   4.517   5.734   7.941
 8378SOL     OW35132   4.350   4.937   6.931
 8378SOL    HW135133   4.282   4.866   6.954
 8378SOL    HW235134   4.398   4.912   6.847
 8379SOL     OW35135   2.751   0.686   3.710
 8379SOL    HW135136   2.732   0.756   3.641
 8379SOL    HW235137   2.683   0.613   3.705
 8380SOL     OW35138   3.854   5.053   3.323
 8380SOL    HW135139   3.932   5.019   3.376
 8380SOL    HW235140   3.801   4.976   3.287
 8381SOL     OW35141   3.925   2.248   4.778
 8381SOL    HW135142   3.928   2.329   4.837
 8381SOL    HW235143   4.018   2.223   4.750
 8382SOL     OW35144   4.449   0.734   3.023
 8382SOL    HW135145   4.402   0.654   3.064
 8382SOL    HW235146   4.491   0.708   2.937
 8383SOL     OW35147   3.667   5.963   2.173
 8383SOL    HW135148   3.699   5.961   2.078
 8383SOL    HW235149   3.570   5.940   2.176
 8384SOL     OW35150   3.258   2.548   3.442
 8384SOL    HW135151   3.333   2.491   3.407
 8384SOL    HW235152   3.232   2.519   3.533
 8385SOL     OW35153   7.203   2.047   1.278
 8385SOL    HW135154   7.147   1.965   1.264
 8385SOL    HW235155   7.147   2.129   1.265
 8386SOL     OW35156   1.647   0.873   2.770
 8386SOL    HW135157   1.720   0.924   2.725
 8386SOL    HW235158   1.672   0.855   2.865
 8387SOL     OW35159   0.710   2.211   7.750
 8387SOL    HW135160   0.759   2.219   7.837
 8387SOL    HW235161   0.694   2.115   7.728
 8388SOL     OW35162   4.275   0.074   7.048
 8388SOL    HW135163   4.186   0.101   7.010
 8388SOL    HW235164   4.287   0.112   7.140
 8389SOL     OW35165   4.345   7.557   4.517
 8389SOL    HW135166   4.341   7.509   4.605
 8389SOL    HW235167   4.253   7.573   4.483
 8390SOL     OW35168   2.776   6.417   7.526
 8390SOL    HW135169   2.830   6.361   7.589
 8390SOL    HW235170   2.828   6.498   7.499
 8391SOL     OW35171   1.869   5.168   6.845
 8391SOL    HW135172   1.966   5.150   6.860
 8391SOL    HW235173   1.844   5.256   6.885
 8392SOL     OW35174   2.034   1.560   5.907
 8392SOL    HW135175   2.080   1.604   5.829
 8392SOL    HW235176   1.949   1.517   5.876
 8393SOL     OW35177   1.154   3.562   7.273
 8393SOL    HW135178   1.107   3.542   7.359
 8393SOL    HW235179   1.088   3.562   7.198
 8394SOL     OW35180   2.886   5.947   0.734
 8394SOL    HW135181   2.981   5.977   0.738
 8394SOL    HW235182   2.843   5.982   0.650
 8395SOL     OW35183   1.433   5.202   0.995
 8395SOL    HW135184   1.397   5.160   1.079
 8395SOL    HW235185   1.358   5.234   0.938
 8396SOL     OW35186   0.471   7.875   7.239
 8396SOL    HW135187   0.412   7.954   7.255
 8396SOL    HW235188   0.488   7.863   7.141
 8397SOL     OW35189   1.554   2.999   3.661
 8397SOL    HW135190   1.493   2.921   3.647
 8397SOL    HW235191   1.552   3.058   3.580
 8398SOL     OW35192   3.496   1.329   7.749
 8398SOL    HW135193   3.467   1.244   7.794
 8398SOL    HW235194   3.418   1.372   7.703
 8399SOL     OW35195   7.663   0.182   6.712
 8399SOL    HW135196   7.589   0.150   6.770
 8399SOL    HW235197   7.714   0.104   6.675
 8400SOL     OW35198   5.330   1.646   6.912
 8400SOL    HW135199   5.416   1.622   6.958
 8400SOL    HW235200   5.350   1.689   6.824
 8401SOL     OW35201   6.049   2.809   5.495
 8401SOL    HW135202   6.053   2.835   5.398
 8401SOL    HW235203   5.958   2.832   5.532
 8402SOL     OW35204   0.618   3.172   3.176
 8402SOL    HW135205   0.654   3.265   3.169
 8402SOL    HW235206   0.669   3.121   3.244
 8403SOL     OW35207   7.237   6.288   1.788
 8403SOL    HW135208   7.204   6.373   1.829
 8403SOL    HW235209   7.331   6.269   1.819
 8404SOL     OW35210   6.237   0.946   3.876
 8404SOL    HW135211   6.301   0.875   3.906
 8404SOL    HW235212   6.254   0.969   3.781
 8405SOL     OW35213   0.498   2.318   1.655
 8405SOL    HW135214   0.479   2.228   1.614
 8405SOL    HW235215   0.422   2.345   1.714
 8406SOL     OW35216   5.519   0.682   5.285
 8406SOL    HW135217   5.435   0.722   5.321
 8406SOL    HW235218   5.500   0.635   5.199
 8407SOL     OW35219   3.172   0.074   5.829
 8407SOL    HW135220   3.117   0.041   5.905
 8407SOL    HW235221   3.239   0.004   5.802
 8408SOL     OW35222   4.935   0.770   4.414
 8408SOL    HW135223   4.980   0.859   4.427
 8408SOL    HW235224   4.901   0.736   4.501
 8409SOL     OW35225   1.657   7.298   1.106
 8409SOL    HW135226   1.621   7.378   1.058
 8409SOL    HW235227   1.690   7.324   1.197
 8410SOL     OW35228   4.731   7.890   0.168
 8410SOL    HW135229   4.642   7.847   0.184
 8410SOL    HW235230   4.725   7.988   0.186
 8411SOL     OW35231   7.149   4.824   1.165
 8411SOL    HW135232   7.206   4.859   1.240
 8411SOL    HW235233   7.203   4.765   1.106
 8412SOL     OW35234   7.696   5.007   4.158
 8412SOL    HW135235   7.623   5.025   4.224
 8412SOL    HW235236   7.719   4.910   4.156
 8413SOL     OW35237   3.618   1.555   4.396
 8413SOL    HW135238   3.662   1.611   4.326
 8413SOL    HW235239   3.684   1.529   4.466
 8414SOL     OW35240   7.848   1.130   0.222
 8414SOL    HW135241   7.767   1.103   0.171
 8414SOL    HW235242   7.850   1.084   0.310
 8415SOL     OW35243   3.777   3.350   7.942
 8415SOL    HW135244   3.859   3.305   7.980
 8415SOL    HW235245   3.785   3.357   7.843
 8416SOL     OW35246   4.538   2.060   0.542
 8416SOL    HW135247   4.582   1.984   0.591
 8416SOL    HW235248   4.534   2.040   0.444
 8417SOL     OW35249   1.421   5.946   8.019
 8417SOL    HW135250   1.345   5.982   7.964
 8417SOL    HW235251   1.505   5.995   7.995
 8418SOL     OW35252   6.113   3.087   0.994
 8418SOL    HW135253   6.151   3.005   0.951
 8418SOL    HW235254   6.089   3.068   1.089
 8419SOL     OW35255   5.304   2.002   3.254
 8419SOL    HW135256   5.308   1.902   3.252
 8419SOL    HW235257   5.394   2.040   3.274
 8420SOL     OW35258   1.308   0.334   1.385
 8420SOL    HW135259   1.390   0.377   1.422
 8420SOL    HW235260   1.289   0.371   1.294
 8421SOL     OW35261   0.303   4.531   5.051
 8421SOL    HW135262   0.246   4.595   5.103
 8421SOL    HW235263   0.323   4.569   4.960
 8422SOL     OW35264   7.386   6.672   3.637
 8422SOL    HW135265   7.478   6.689   3.673
 8422SOL    HW235266   7.332   6.756   3.638
 8423SOL     OW35267   5.631   6.542   0.729
 8423SOL    HW135268   5.587   6.554   0.818
 8423SOL    HW235269   5.693   6.618   0.710
 8424SOL     OW35270   4.260   0.519   1.319
 8424SOL    HW135271   4.245   0.597   1.379
 8424SOL    HW235272   4.224   0.539   1.227
 8425SOL     OW35273   7.805   5.158   2.444
 8425SOL    HW135274   7.889   5.186   2.490
 8425SOL    HW235275   7.800   5.198   2.353
 8426SOL     OW35276   0.804   5.340   4.791
 8426SOL    HW135277   0.852   5.422   4.820
 8426SOL    HW235278   0.793   5.277   4.869
 8427SOL     OW35279   3.292   5.062   1.410
 8427SOL    HW135280   3.231   5.008   1.351
 8427SOL    HW235281   3.371   5.007   1.437
 8428SOL     OW35282   2.618   2.556   1.257
 8428SOL    HW135283   2.576   2.466   1.257
 8428SOL    HW235284   2.581   2.611   1.332
 8429SOL     OW35285   4.661   5.299   7.011
 8429SOL    HW135286   4.587   5.322   7.074
 8429SOL    HW235287   4.627   5.295   6.917
 8430SOL     OW35288   7.847   2.750   7.773
 8430SOL    HW135289   7.770   2.791   7.725
 8430SOL    HW235290   7.817   2.717   7.863
 8431SOL     OW35291   0.355   2.320   2.994
 8431SOL    HW135292   0.339   2.336   2.896
 8431SOL    HW235293   0.434   2.373   3.024
 8432SOL     OW35294   0.778   1.224   3.557
 8432SOL    HW135295   0.752   1.127   3.564
 8432SOL    HW235296   0.696   1.280   3.545
 8433SOL     OW35297   0.614   3.613   3.115
 8433SOL    HW135298   0.702   3.628   3.069
 8433SOL    HW235299   0.629   3.586   3.210
 8434SOL     OW35300   7.698   3.157   7.850
 8434SOL    HW135301   7.631   3.192   7.915
 8434SOL    HW235302   7.684   3.060   7.835
 8435SOL     OW35303   5.526   0.967   3.599
 8435SOL    HW135304   5.456   1.038   3.611
 8435SOL    HW235305   5.504   0.911   3.519
 8436SOL     OW35306   0.525   6.277   1.495
 8436SOL    HW135307   0.601   6.240   1.441
 8436SOL    HW235308   0.442   6.277   1.440
 8437SOL     OW35309   6.212   3.349   4.388
 8437SOL    HW135310   6.232   3.429   4.444
 8437SOL    HW235311   6.149   3.288   4.435
 8438SOL     OW35312   2.593   6.407   3.706
 8438SOL    HW135313   2.566   6.330   3.648
 8438SOL    HW235314   2.674   6.452   3.668
 8439SOL     OW35315   2.800   1.873   5.323
 8439SOL    HW135316   2.764   1.949   5.378
 8439SOL    HW235317   2.799   1.899   5.226
 8440SOL     OW35318   5.778   1.520   2.896
 8440SOL    HW135319   5.800   1.557   2.987
 8440SOL    HW235320   5.729   1.433   2.906
 8441SOL     OW35321   3.767   3.686   5.303
 8441SOL    HW135322   3.758   3.785   5.309
 8441SOL    HW235323   3.750   3.655   5.209
 8442SOL     OW35324   5.511   1.437   0.630
 8442SOL    HW135325   5.608   1.444   0.606
 8442SOL    HW235326   5.486   1.509   0.696
 8443SOL     OW35327   1.011   5.053   0.212
 8443SOL    HW135328   1.060   5.059   0.299
 8443SOL    HW235329   1.070   5.012   0.142
 8444SOL     OW35330   1.661   6.553   5.798
 8444SOL    HW135331   1.601   6.618   5.845
 8444SOL    HW235332   1.619   6.522   5.713
 8445SOL     OW35333   2.244   5.678   7.264
 8445SOL    HW135334   2.291   5.616   7.327
 8445SOL    HW235335   2.297   5.687   7.180
 8446SOL     OW35336   3.431   3.819   5.060
 8446SOL    HW135337   3.488   3.773   4.992
 8446SOL    HW235338   3.468   3.804   5.152
 8447SOL     OW35339   6.970   6.014   3.042
 8447SOL    HW135340   6.877   6.023   3.006
 8447SOL    HW235341   7.025   6.093   3.015
 8448SOL     OW35342   5.526   1.861   3.259
 8448SOL    HW135343   5.601   1.808   3.218
 8448SOL    HW235344   5.489   1.811   3.338
 8449SOL     OW35345   3.940   0.381   7.072
 8449SOL    HW135346   3.991   0.398   6.988
 8449SOL    HW235347   3.993   0.408   7.151
 8450SOL     OW35348   7.137   2.103   1.714
 8450SOL    HW135349   7.206   2.032   1.727
 8450SOL    HW235350   7.173   2.176   1.657
 8451SOL     OW35351   3.862   7.108   5.736
 8451SOL    HW135352   3.799   7.071   5.805
 8451SOL    HW235353   3.892   7.199   5.763
 8452SOL     OW35354   4.820   0.660   4.159
 8452SOL    HW135355   4.759   0.729   4.196
 8452SOL    HW235356   4.792   0.635   4.066
 8453SOL     OW35357   4.913   2.649   2.893
 8453SOL    HW135358   4.833   2.693   2.853
 8453SOL    HW235359   4.936   2.692   2.980
 8454SOL     OW35360   4.975   7.447   4.282
 8454SOL    HW135361   4.892   7.396   4.262
 8454SOL    HW235362   5.027   7.463   4.198
 8455SOL     OW35363   6.761   2.808   5.242
 8455SOL    HW135364   6.699   2.884   5.260
 8455SOL    HW235365   6.847   2.820   5.292
 8456SOL     OW35366   7.884   4.896   1.125
 8456SOL    HW135367   7.919   4.901   1.031
 8456SOL    HW235368   7.955   4.861   1.186
 8457SOL     OW35369   7.627   3.981   0.307
 8457SOL    HW135370   7.605   4.071   0.268
 8457SOL    HW235371   7.654   3.990   0.402
 8458SOL     OW35372   5.771   7.989   7.786
 8458SOL    HW135373   5.815   7.903   7.759
 8458SOL    HW235374   5.740   7.983   7.881
 8459SOL     OW35375   7.757   3.100   4.797
 8459SOL    HW135376   7.721   3.063   4.883
 8459SOL    HW235377   7.849   3.136   4.811
 8460SOL     OW35378   7.429   0.634   1.158
 8460SOL    HW135379   7.381   0.704   1.104
 8460SOL    HW235380   7.526   0.656   1.164
 8461SOL     OW35381   6.045   6.259   7.564
 8461SOL    HW135382   6.123   6.213   7.606
 8461SOL    HW235383   6.066   6.282   7.469
 8462SOL     OW35384   1.616   1.556   8.011
 8462SOL    HW135385   1.525   1.513   8.011
 8462SOL    HW235386   1.613   1.641   7.958
 8463SOL     OW35387   3.268   7.123   6.196
 8463SOL    HW135388   3.282   7.024   6.187
 8463SOL    HW235389   3.274   7.166   6.106
 8464SOL     OW35390   4.437   5.890   7.498
 8464SOL    HW135391   4.338   5.899   7.485
 8464SOL    HW235392   4.464   5.794   7.489
 8465SOL     OW35393   1.797   0.199   7.140
 8465SOL    HW135394   1.810   0.290   7.099
 8465SOL    HW235395   1.833   0.198   7.233
 8466SOL     OW35396   4.843   3.888   0.166
 8466SOL    HW135397   4.891   3.889   0.254
 8466SOL    HW235398   4.908   3.867   0.092
 8467SOL     OW35399   1.466   7.063   6.784
 8467SOL    HW135400   1.478   6.986   6.720
 8467SOL    HW235401   1.369   7.083   6.795
 8468SOL     OW35402   1.086   5.753   2.914
 8468SOL    HW135403   1.001   5.726   2.868
 8468SOL    HW235404   1.149   5.794   2.848
 8469SOL     OW35405   7.287   2.944   2.815
 8469SOL    HW135406   7.308   3.013   2.746
 8469SOL    HW235407   7.317   2.976   2.905
 8470SOL     OW35408   4.774   1.297   0.078
 8470SOL    HW135409   4.848   1.266   0.018
 8470SOL    HW235410   4.770   1.241   0.160
 8471SOL     OW35411   7.943   1.107   3.677
 8471SOL    HW135412   7.853   1.136   3.645
 8471SOL    HW235413   7.955   1.132   3.773
 8472SOL     OW35414   5.678   1.700   2.081
 8472SOL    HW135415   5.752   1.641   2.114
 8472SOL    HW235416   5.707   1.796   2.084
 8473SOL     OW35417   5.254   7.550   3.101
 8473SOL    HW135418   5.347   7.577   3.126
 8473SOL    HW235419   5.246   7.450   3.103
 8474SOL     OW35420   4.824   7.447   0.254
 8474SOL    HW135421   4.899   7.496   0.299
 8474SOL    HW235422   4.744   7.507   0.248
 8475SOL     OW35423   5.738   6.119   1.790
 8475SOL    HW135424   5.728   6.020   1.778
 8475SOL    HW235425   5.816   6.152   1.737
 8476SOL     OW35426   7.187   0.192   0.190
 8476SOL    HW135427   7.193   0.217   0.094
 8476SOL    HW235428   7.261   0.129   0.214
 8477SOL     OW35429   0.238   0.815   1.856
 8477SOL    HW135430   0.141   0.820   1.882
 8477SOL    HW235431   0.247   0.773   1.766
 8478SOL     OW35432   4.290   5.835   2.728
 8478SOL    HW135433   4.338   5.819   2.641
 8478SOL    HW235434   4.280   5.748   2.778
 8479SOL     OW35435   7.385   4.358   2.968
 8479SOL    HW135436   7.352   4.452   2.980
 8479SOL    HW235437   7.475   4.348   3.009
 8480SOL     OW35438   1.312   6.849   7.902
 8480SOL    HW135439   1.236   6.912   7.922
 8480SOL    HW235440   1.397   6.900   7.895
 8481SOL     OW35441   4.423   3.728   0.190
 8481SOL    HW135442   4.365   3.737   0.271
 8481SOL    HW235443   4.517   3.751   0.213
 8482SOL     OW35444   0.153   5.231   5.318
 8482SOL    HW135445   0.189   5.254   5.409
 8482SOL    HW235446   0.220   5.176   5.268
 8483SOL     OW35447  -0.034   1.587   7.530
 8483SOL    HW135448   0.034   1.517   7.546
 8483SOL    HW235449  -0.014   1.635   7.444
 8484SOL     OW35450   1.717   4.367   5.026
 8484SOL    HW135451   1.739   4.354   4.929
 8484SOL    HW235452   1.782   4.316   5.083
 8485SOL     OW35453   2.519   5.846   3.477
 8485SOL    HW135454   2.457   5.775   3.443
 8485SOL    HW235455   2.472   5.934   3.477
 8486SOL     OW35456   6.670   4.310   5.289
 8486SOL    HW135457   6.573   4.334   5.276
 8486SOL    HW235458   6.678   4.216   5.321
 8487SOL     OW35459   0.597   5.185   1.408
 8487SOL    HW135460   0.636   5.176   1.316
 8487SOL    HW235461   0.504   5.149   1.409
 8488SOL     OW35462   6.318   2.070   0.167
 8488SOL    HW135463   6.261   2.143   0.204
 8488SOL    HW235464   6.287   2.045   0.076
 8489SOL     OW35465   3.766   0.632   1.935
 8489SOL    HW135466   3.790   0.567   1.863
 8489SOL    HW235467   3.738   0.719   1.894
 8490SOL     OW35468   6.829   4.145   0.093
 8490SOL    HW135469   6.831   4.045   0.100
 8490SOL    HW235470   6.922   4.180   0.081
 8491SOL     OW35471   3.292   2.975   3.002
 8491SOL    HW135472   3.311   2.978   2.904
 8491SOL    HW235473   3.378   2.970   3.053
 8492SOL     OW35474   3.962   2.160   3.616
 8492SOL    HW135475   4.024   2.237   3.597
 8492SOL    HW235476   3.967   2.136   3.713
 8493SOL     OW35477   7.231   4.098   5.255
 8493SOL    HW135478   7.290   4.033   5.304
 8493SOL    HW235479   7.278   4.130   5.173
 8494SOL     OW35480   1.332   5.350   1.253
 8494SOL    HW135481   1.335   5.259   1.293
 8494SOL    HW235482   1.397   5.357   1.177
 8495SOL     OW35483   3.356   2.678   3.675
 8495SOL    HW135484   3.417   2.720   3.609
 8495SOL    HW235485   3.384   2.584   3.693
 8496SOL     OW35486   7.519   5.190   1.202
 8496SOL    HW135487   7.592   5.121   1.205
 8496SOL    HW235488   7.454   5.176   1.276
 8497SOL     OW35489   2.704   1.429   3.736
 8497SOL    HW135490   2.612   1.463   3.716
 8497SOL    HW235491   2.701   1.332   3.760
 8498SOL     OW35492   4.747   6.297   0.833
 8498SOL    HW135493   4.802   6.346   0.766
 8498SOL    HW235494   4.801   6.226   0.877
 8499SOL     OW35495   0.658   2.777   5.205
 8499SOL    HW135496   0.754   2.770   5.233
 8499SOL    HW235497   0.652   2.821   5.115
 8500SOL     OW35498   4.164   4.471   2.331
 8500SOL    HW135499   4.086   4.487   2.271
 8500SOL    HW235500   4.177   4.373   2.346
 8501SOL     OW35501   7.488   6.590   6.438
 8501SOL    HW135502   7.395   6.560   6.461
 8501SOL    HW235503   7.501   6.685   6.469
 8502SOL     OW35504   6.739   6.419   4.508
 8502SOL    HW135505   6.718   6.398   4.604
 8502SOL    HW235506   6.712   6.342   4.450
 8503SOL     OW35507   0.843   2.860   4.749
 8503SOL    HW135508   0.790   2.944   4.761
 8503SOL    HW235509   0.933   2.882   4.710
 8504SOL     OW35510   1.757   1.630   2.376
 8504SOL    HW135511   1.776   1.565   2.449
 8504SOL    HW235512   1.659   1.650   2.372
 8505SOL     OW35513   2.183   0.898   3.866
 8505SOL    HW135514   2.185   0.798   3.861
 8505SOL    HW235515   2.275   0.932   3.888
 8506SOL     OW35516   3.048   5.800   0.296
 8506SOL    HW135517   3.029   5.792   0.198
 8506SOL    HW235518   3.133   5.751   0.318
 8507SOL     OW35519   2.174   6.092   0.106
 8507SOL    HW135520   2.148   6.003   0.143
 8507SOL    HW235521   2.221   6.080   0.019
 8508SOL     OW35522   2.292   6.671   0.488
 8508SOL    HW135523   2.217   6.623   0.442
 8508SOL    HW235524   2.270   6.685   0.584
 8509SOL     OW35525   5.932   2.902   3.114
 8509SOL    HW135526   6.021   2.921   3.073
 8509SOL    HW235527   5.944   2.863   3.206
 8510SOL     OW35528   0.430   7.272   1.685
 8510SOL    HW135529   0.498   7.249   1.755
 8510SOL    HW235530   0.474   7.323   1.610
 8511SOL     OW35531   2.695   7.414   7.421
 8511SOL    HW135532   2.784   7.389   7.460
 8511SOL    HW235533   2.709   7.473   7.341
 8512SOL     OW35534   5.511   4.551   2.200
 8512SOL    HW135535   5.502   4.458   2.163
 8512SOL    HW235536   5.455   4.560   2.282
 8513SOL     OW35537   4.270   4.970   2.239
 8513SOL    HW135538   4.277   4.871   2.229
 8513SOL    HW235539   4.313   4.999   2.325
 8514SOL     OW35540   7.445   7.905   2.532
 8514SOL    HW135541   7.391   7.989   2.534
 8514SOL    HW235542   7.527   7.919   2.476
 8515SOL     OW35543   5.993   7.918   7.120
 8515SOL    HW135544   5.923   7.989   7.122
 8515SOL    HW235545   6.066   7.940   7.185
 8516SOL     OW35546   1.898   3.488   2.335
 8516SOL    HW135547   1.967   3.421   2.308
 8516SOL    HW235548   1.886   3.487   2.434
 8517SOL     OW35549   4.178   1.552   6.491
 8517SOL    HW135550   4.087   1.520   6.518
 8517SOL    HW235551   4.220   1.486   6.429
 8518SOL     OW35552   4.821   0.889   7.122
 8518SOL    HW135553   4.752   0.868   7.191
 8518SOL    HW235554   4.777   0.933   7.043
 8519SOL     OW35555   2.849   5.501   0.379
 8519SOL    HW135556   2.830   5.464   0.469
 8519SOL    HW235557   2.779   5.568   0.354
 8520SOL     OW35558   0.510   2.531   7.194
 8520SOL    HW135559   0.585   2.492   7.140
 8520SOL    HW235560   0.481   2.618   7.152
 8521SOL     OW35561   3.626   6.476   5.045
 8521SOL    HW135562   3.706   6.478   5.105
 8521SOL    HW235563   3.567   6.554   5.064
 8522SOL     OW35564   1.046   5.950   6.411
 8522SOL    HW135565   1.139   5.952   6.448
 8522SOL    HW235566   1.046   5.980   6.316
 8523SOL     OW35567   0.229   1.007   3.301
 8523SOL    HW135568   0.270   1.030   3.212
 8523SOL    HW235569   0.278   0.931   3.343
 8524SOL     OW35570   2.581   2.957   3.555
 8524SOL    HW135571   2.659   2.922   3.607
 8524SOL    HW235572   2.555   2.891   3.484
 8525SOL     OW35573   6.328   7.053   0.916
 8525SOL    HW135574   6.345   6.960   0.883
 8525SOL    HW235575   6.283   7.050   1.005
 8526SOL     OW35576   4.015   5.507   6.835
 8526SOL    HW135577   4.013   5.583   6.899
 8526SOL    HW235578   4.082   5.439   6.865
 8527SOL     OW35579   2.407   3.105   6.519
 8527SOL    HW135580   2.382   3.073   6.428
 8527SOL    HW235581   2.356   3.189   6.541
 8528SOL     OW35582   4.482   6.564   3.105
 8528SOL    HW135583   4.540   6.612   3.171
 8528SOL    HW235584   4.393   6.610   3.099
 8529SOL     OW35585   5.146   5.315   0.945
 8529SOL    HW135586   5.218   5.318   0.875
 8529SOL    HW235587   5.139   5.222   0.982
 8530SOL     OW35588   2.709   6.918   3.828
 8530SOL    HW135589   2.650   6.837   3.837
 8530SOL    HW235590   2.727   6.936   3.731
 8531SOL     OW35591   3.664   5.207   7.324
 8531SOL    HW135592   3.593   5.139   7.343
 8531SOL    HW235593   3.725   5.172   7.252
 8532SOL     OW35594   4.745   6.474   4.433
 8532SOL    HW135595   4.809   6.543   4.399
 8532SOL    HW235596   4.782   6.429   4.514
 8533SOL     OW35597   7.059   3.224   4.232
 8533SOL    HW135598   7.120   3.174   4.171
 8533SOL    HW235599   6.966   3.225   4.195
 8534SOL     OW35600   4.498   7.356   5.375
 8534SOL    HW135601   4.398   7.355   5.387
 8534SOL    HW235602   4.524   7.296   5.300
 8535SOL     OW35603   7.452   7.568   7.117
 8535SOL    HW135604   7.539   7.584   7.070
 8535SOL    HW235605   7.468   7.521   7.204
 8536SOL     OW35606   5.944   5.442   6.734
 8536SOL    HW135607   6.035   5.433   6.774
 8536SOL    HW235608   5.924   5.363   6.675
 8537SOL     OW35609   6.448   3.939   3.695
 8537SOL    HW135610   6.385   3.906   3.766
 8537SOL    HW235611   6.495   3.861   3.652
 8538SOL     OW35612   3.305   1.413   6.409
 8538SOL    HW135613   3.275   1.382   6.499
 8538SOL    HW235614   3.400   1.445   6.414
 8539SOL     OW35615   5.019   7.776   6.173
 8539SOL    HW135616   5.104   7.800   6.127
 8539SOL    HW235617   5.026   7.683   6.210
 8540SOL     OW35618   4.932   1.554   6.878
 8540SOL    HW135619   4.950   1.464   6.837
 8540SOL    HW235620   4.887   1.543   6.967
 8541SOL     OW35621   5.808   6.646   1.235
 8541SOL    HW135622   5.891   6.676   1.284
 8541SOL    HW235623   5.801   6.693   1.148
 8542SOL     OW35624   2.873   7.282   6.845
 8542SOL    HW135625   2.910   7.213   6.908
 8542SOL    HW235626   2.947   7.341   6.813
 8543SOL     OW35627   7.329   6.120   2.949
 8543SOL    HW135628   7.251   6.122   3.011
 8543SOL    HW235629   7.298   6.101   2.856
 8544SOL     OW35630   6.528   1.133   7.941
 8544SOL    HW135631   6.621   1.121   7.975
 8544SOL    HW235632   6.465   1.144   8.018
 8545SOL     OW35633   2.895   1.518   3.222
 8545SOL    HW135634   2.842   1.584   3.275
 8545SOL    HW235635   2.914   1.554   3.131
 8546SOL     OW35636   6.106   5.224   4.663
 8546SOL    HW135637   6.149   5.148   4.712
 8546SOL    HW235638   6.129   5.221   4.566
 8547SOL     OW35639   5.801   5.317   5.874
 8547SOL    HW135640   5.813   5.289   5.969
 8547SOL    HW235641   5.797   5.237   5.814
 8548SOL     OW35642   4.773   1.850   0.017
 8548SOL    HW135643   4.700   1.918   0.020
 8548SOL    HW235644   4.850   1.880   0.074
 8549SOL     OW35645   0.723   3.016   4.357
 8549SOL    HW135646   0.736   3.115   4.356
 8549SOL    HW235647   0.707   2.983   4.264
 8550SOL     OW35648   1.207   3.268   5.176
 8550SOL    HW135649   1.205   3.344   5.241
 8550SOL    HW235650   1.190   3.181   5.224
 8551SOL     OW35651   6.026   5.365   0.766
 8551SOL    HW135652   5.942   5.411   0.797
 8551SOL    HW235653   6.039   5.379   0.668
 8552SOL     OW35654   6.275   2.907   5.409
 8552SOL    HW135655   6.348   2.871   5.351
 8552SOL    HW235656   6.301   2.997   5.444
 8553SOL     OW35657   0.217   7.988   4.240
 8553SOL    HW135658   0.197   7.908   4.297
 8553SOL    HW235659   0.238   7.960   4.147
 8554SOL     OW35660   5.833   4.113   3.751
 8554SOL    HW135661   5.882   4.181   3.806
 8554SOL    HW235662   5.835   4.024   3.796
 8555SOL     OW35663   1.294   2.699   5.517
 8555SOL    HW135664   1.216   2.759   5.536
 8555SOL    HW235665   1.356   2.698   5.596
 8556SOL     OW35666   1.176   6.959   7.281
 8556SOL    HW135667   1.087   6.917   7.265
 8556SOL    HW235668   1.228   6.904   7.346
 8557SOL     OW35669   7.511   5.453   3.257
 8557SOL    HW135670   7.488   5.548   3.233
 8557SOL    HW235671   7.504   5.395   3.175
 8558SOL     OW35672   7.543   5.065   2.378
 8558SOL    HW135673   7.616   5.043   2.443
 8558SOL    HW235674   7.511   4.981   2.334
 8559SOL     OW35675   3.471   3.140   5.836
 8559SOL    HW135676   3.466   3.216   5.900
 8559SOL    HW235677   3.555   3.088   5.851
 8560SOL     OW35678   0.747   5.250   3.998
 8560SOL    HW135679   0.701   5.171   4.041
 8560SOL    HW235680   0.686   5.329   4.000
 8561SOL     OW35681   2.114   3.068   1.121
 8561SOL    HW135682   2.086   3.031   1.210
 8561SOL    HW235683   2.124   3.167   1.127
 8562SOL     OW35684   4.080   1.964   6.897
 8562SOL    HW135685   3.992   1.946   6.854
 8562SOL    HW235686   4.097   2.063   6.901
 8563SOL     OW35687   4.211   5.703   5.863
 8563SOL    HW135688   4.159   5.779   5.903
 8563SOL    HW235689   4.279   5.738   5.799
 8564SOL     OW35690   4.758   6.455   2.768
 8564SOL    HW135691   4.730   6.545   2.804
 8564SOL    HW235692   4.707   6.435   2.684
 8565SOL     OW35693   0.587   3.400   6.746
 8565SOL    HW135694   0.619   3.315   6.789
 8565SOL    HW235695   0.625   3.408   6.654
 8566SOL     OW35696   4.766   1.714   4.703
 8566SOL    HW135697   4.715   1.799   4.717
 8566SOL    HW235698   4.703   1.638   4.688
 8567SOL     OW35699   0.607   5.885   3.612
 8567SOL    HW135700   0.646   5.798   3.643
 8567SOL    HW235701   0.557   5.929   3.687
 8568SOL     OW35702   0.549   5.492   6.917
 8568SOL    HW135703   0.470   5.550   6.941
 8568SOL    HW235704   0.521   5.422   6.851
 8569SOL     OW35705   3.572   4.833   4.284
 8569SOL    HW135706   3.623   4.860   4.202
 8569SOL    HW235707   3.557   4.913   4.342
 8570SOL     OW35708   6.311   1.221   6.840
 8570SOL    HW135709   6.295   1.139   6.785
 8570SOL    HW235710   6.364   1.198   6.922
 8571SOL     OW35711   7.179   2.275   5.512
 8571SOL    HW135712   7.271   2.314   5.510
 8571SOL    HW235713   7.132   2.295   5.426
 8572SOL     OW35714   0.301   0.093   6.981
 8572SOL    HW135715   0.210   0.064   6.951
 8572SOL    HW235716   0.316   0.069   7.076
 8573SOL     OW35717   4.800   0.152   3.513
 8573SOL    HW135718   4.842   0.086   3.450
 8573SOL    HW235719   4.749   0.221   3.462
 8574SOL     OW35720   3.560   1.357   3.411
 8574SOL    HW135721   3.652   1.321   3.403
 8574SOL    HW235722   3.527   1.388   3.322
 8575SOL     OW35723   0.688   6.156   2.355
 8575SOL    HW135724   0.750   6.224   2.314
 8575SOL    HW235725   0.723   6.127   2.444
 8576SOL     OW35726   6.346   2.945   3.605
 8576SOL    HW135727   6.367   2.850   3.629
 8576SOL    HW235728   6.378   2.965   3.512
 8577SOL     OW35729   5.887   5.525   4.329
 8577SOL    HW135730   5.892   5.566   4.238
 8577SOL    HW235731   5.926   5.587   4.397
 8578SOL     OW35732   4.564   6.865   7.062
 8578SOL    HW135733   4.515   6.908   7.138
 8578SOL    HW235734   4.649   6.824   7.096
 8579SOL     OW35735   4.070   7.150   7.857
 8579SOL    HW135736   4.116   7.064   7.831
 8579SOL    HW235737   4.139   7.219   7.879
 8580SOL     OW35738   4.922   5.987   6.995
 8580SOL    HW135739   4.882   6.048   7.064
 8580SOL    HW235740   4.985   6.038   6.937
 8581SOL     OW35741   1.904   5.430   1.215
 8581SOL    HW135742   1.915   5.334   1.190
 8581SOL    HW235743   1.968   5.487   1.163
 8582SOL     OW35744   7.795   7.829   0.756
 8582SOL    HW135745   7.849   7.911   0.732
 8582SOL    HW235746   7.759   7.788   0.673
 8583SOL     OW35747   0.823   0.134   3.345
 8583SOL    HW135748   0.836   0.206   3.277
 8583SOL    HW235749   0.822   0.173   3.437
 8584SOL     OW35750   6.346   2.323   3.010
 8584SOL    HW135751   6.294   2.253   2.962
 8584SOL    HW235752   6.359   2.297   3.106
 8585SOL     OW35753   1.291   0.574   1.591
 8585SOL    HW135754   1.272   0.638   1.516
 8585SOL    HW235755   1.294   0.624   1.678
 8586SOL     OW35756   3.071   1.021   1.172
 8586SOL    HW135757   2.986   0.980   1.138
 8586SOL    HW235758   3.059   1.053   1.266
 8587SOL     OW35759   4.040   3.654   0.750
 8587SOL    HW135760   4.123   3.693   0.790
 8587SOL    HW235761   4.009   3.576   0.804
 8588SOL     OW35762   1.511   2.890   0.595
 8588SOL    HW135763   1.439   2.821   0.605
 8588SOL    HW235764   1.540   2.896   0.500
 8589SOL     OW35765   0.089   7.331   7.303
 8589SOL    HW135766   0.177   7.305   7.341
 8589SOL    HW235767   0.015   7.288   7.354
 8590SOL     OW35768   0.601   5.732   0.996
 8590SOL    HW135769   0.563   5.700   0.909
 8590SOL    HW235770   0.594   5.659   1.065
 8591SOL     OW35771   5.171   7.432   4.402
 8591SOL    HW135772   5.097   7.406   4.465
 8591SOL    HW235773   5.177   7.366   4.327
 8592SOL     OW35774   6.571   3.038   3.023
 8592SOL    HW135775   6.472   3.040   3.012
 8592SOL    HW235776   6.596   2.967   3.089
 8593SOL     OW35777   4.612   7.592   1.262
 8593SOL    HW135778   4.711   7.605   1.272
 8593SOL    HW235779   4.582   7.624   1.173
 8594SOL     OW35780   5.260   0.249   1.732
 8594SOL    HW135781   5.353   0.219   1.711
 8594SOL    HW235782   5.199   0.170   1.738
 8595SOL     OW35783   0.611   4.385   3.572
 8595SOL    HW135784   0.676   4.446   3.528
 8595SOL    HW235785   0.650   4.348   3.656
 8596SOL     OW35786   4.204   2.846   5.828
 8596SOL    HW135787   4.207   2.933   5.778
 8596SOL    HW235788   4.271   2.847   5.902
 8597SOL     OW35789   1.712   2.340   0.428
 8597SOL    HW135790   1.764   2.313   0.509
 8597SOL    HW235791   1.719   2.269   0.358
 8598SOL     OW35792   7.897   2.703   3.886
 8598SOL    HW135793   7.955   2.625   3.910
 8598SOL    HW235794   7.840   2.680   3.807
 8599SOL     OW35795   7.053   3.557   2.139
 8599SOL    HW135796   7.076   3.637   2.193
 8599SOL    HW235797   7.092   3.565   2.047
 8600SOL     OW35798   4.758   3.932   0.846
 8600SOL    HW135799   4.675   3.942   0.901
 8600SOL    HW235800   4.736   3.892   0.757
 8601SOL     OW35801   7.749   6.483   3.961
 8601SOL    HW135802   7.664   6.500   3.910
 8601SOL    HW235803   7.770   6.561   4.020
 8602SOL     OW35804   3.658   5.990   6.214
 8602SOL    HW135805   3.724   6.049   6.167
 8602SOL    HW235806   3.571   5.990   6.165
 8603SOL     OW35807   1.891   2.330   1.791
 8603SOL    HW135808   1.831   2.349   1.712
 8603SOL    HW235809   1.840   2.280   1.861
 8604SOL     OW35810   7.306   4.545   2.427
 8604SOL    HW135811   7.330   4.629   2.378
 8604SOL    HW235812   7.242   4.491   2.371
 8605SOL     OW35813   7.274   2.302   4.077
 8605SOL    HW135814   7.365   2.270   4.104
 8605SOL    HW235815   7.281   2.379   4.015
 8606SOL     OW35816   7.305   5.589   3.047
 8606SOL    HW135817   7.389   5.642   3.053
 8606SOL    HW235818   7.230   5.637   3.093
 8607SOL     OW35819   2.598   6.720   2.082
 8607SOL    HW135820   2.530   6.662   2.038
 8607SOL    HW235821   2.566   6.747   2.173
 8608SOL     OW35822   4.718   4.557   0.552
 8608SOL    HW135823   4.774   4.560   0.469
 8608SOL    HW235824   4.628   4.595   0.534
 8609SOL     OW35825   3.116   6.237   2.452
 8609SOL    HW135826   3.069   6.168   2.396
 8609SOL    HW235827   3.084   6.230   2.547
 8610SOL     OW35828   0.899   6.459   1.848
 8610SOL    HW135829   0.979   6.450   1.908
 8610SOL    HW235830   0.824   6.504   1.897
 8611SOL     OW35831   5.807   1.103   0.987
 8611SOL    HW135832   5.855   1.165   0.925
 8611SOL    HW235833   5.789   1.016   0.942
 8612SOL     OW35834   5.794   0.820   3.640
 8612SOL    HW135835   5.842   0.757   3.579
 8612SOL    HW235836   5.760   0.771   3.720
 8613SOL     OW35837   2.543   0.891   3.439
 8613SOL    HW135838   2.536   0.827   3.516
 8613SOL    HW235839   2.633   0.883   3.396
 8614SOL     OW35840   0.492   4.067   6.652
 8614SOL    HW135841   0.583   4.080   6.692
 8614SOL    HW235842   0.483   4.121   6.568
 8615SOL     OW35843   7.641   1.226   4.557
 8615SOL    HW135844   7.695   1.149   4.591
 8615SOL    HW235845   7.684   1.265   4.476
 8616SOL     OW35846   2.428   7.990   0.040
 8616SOL    HW135847   2.472   7.903   0.017
 8616SOL    HW235848   2.379   7.981   0.127
 8617SOL     OW35849   2.036   6.669   0.611
 8617SOL    HW135850   1.938   6.657   0.595
 8617SOL    HW235851   2.051   6.747   0.671
 8618SOL     OW35852   6.954   0.776   1.131
 8618SOL    HW135853   6.984   0.871   1.145
 8618SOL    HW235854   6.943   0.757   1.034
 8619SOL     OW35855   2.572   4.216   3.225
 8619SOL    HW135856   2.511   4.190   3.151
 8619SOL    HW235857   2.557   4.158   3.305
 8620SOL     OW35858   5.035   3.167   0.724
 8620SOL    HW135859   4.936   3.167   0.706
 8620SOL    HW235860   5.061   3.083   0.770
 8621SOL     OW35861   5.315   5.521   5.278
 8621SOL    HW135862   5.401   5.480   5.308
 8621SOL    HW235863   5.318   5.620   5.292
 8622SOL     OW35864   4.899   1.004   3.666
 8622SOL    HW135865   4.892   0.915   3.711
 8622SOL    HW235866   4.870   0.997   3.571
 8623SOL     OW35867   0.057   0.788   5.655
 8623SOL    HW135868   0.062   0.839   5.741
 8623SOL    HW235869   0.047   0.690   5.673
 8624SOL     OW35870   1.915   6.881   5.665
 8624SOL    HW135871   1.942   6.977   5.652
 8624SOL    HW235872   1.995   6.826   5.688
 8625SOL     OW35873   3.527   0.473   0.609
 8625SOL    HW135874   3.480   0.561   0.618
 8625SOL    HW235875   3.562   0.462   0.516
 8626SOL     OW35876   2.714   6.899   1.916
 8626SOL    HW135877   2.685   6.909   2.011
 8626SOL    HW235878   2.636   6.871   1.860
 8627SOL     OW35879   5.620   4.837   0.296
 8627SOL    HW135880   5.540   4.811   0.242
 8627SOL    HW235881   5.595   4.848   0.392
 8628SOL     OW35882   4.806   5.367   5.426
 8628SOL    HW135883   4.734   5.431   5.401
 8628SOL    HW235884   4.835   5.384   5.520
 8629SOL     OW35885   3.499   4.353   7.107
 8629SOL    HW135886   3.422   4.309   7.059
 8629SOL    HW235887   3.585   4.329   7.061
 8630SOL     OW35888   5.605   3.133   7.490
 8630SOL    HW135889   5.525   3.077   7.468
 8630SOL    HW235890   5.671   3.130   7.414
 8631SOL     OW35891   4.426   2.343   1.383
 8631SOL    HW135892   4.432   2.345   1.483
 8631SOL    HW235893   4.516   2.359   1.343
 8632SOL     OW35894   4.851   7.209   3.934
 8632SOL    HW135895   4.880   7.243   4.023
 8632SOL    HW235896   4.787   7.273   3.892
 8633SOL     OW35897   5.342   2.863   7.364
 8633SOL    HW135898   5.372   2.955   7.338
 8633SOL    HW235899   5.367   2.845   7.458
 8634SOL     OW35900   0.813   1.379   7.063
 8634SOL    HW135901   0.828   1.300   7.003
 8634SOL    HW235902   0.845   1.359   7.155
 8635SOL     OW35903   6.559   6.439   4.160
 8635SOL    HW135904   6.472   6.391   4.145
 8635SOL    HW235905   6.618   6.429   4.080
 8636SOL     OW35906   1.304   1.998   6.695
 8636SOL    HW135907   1.289   2.056   6.776
 8636SOL    HW235908   1.400   1.972   6.689
 8637SOL     OW35909   1.099   5.729   7.816
 8637SOL    HW135910   1.037   5.657   7.783
 8637SOL    HW235911   1.069   5.759   7.907
 8638SOL     OW35912   4.575   7.449   6.880
 8638SOL    HW135913   4.626   7.496   6.808
 8638SOL    HW235914   4.637   7.393   6.934
 8639SOL     OW35915   5.993   6.869   3.461
 8639SOL    HW135916   5.908   6.821   3.481
 8639SOL    HW235917   6.049   6.814   3.398
 8640SOL     OW35918   4.360   2.824   4.893
 8640SOL    HW135919   4.287   2.841   4.826
 8640SOL    HW235920   4.425   2.900   4.893
 8641SOL     OW35921   0.589   7.911   1.480
 8641SOL    HW135922   0.556   7.843   1.414
 8641SOL    HW235923   0.656   7.869   1.541
 8642SOL     OW35924   0.373   7.431   5.109
 8642SOL    HW135925   0.307   7.499   5.141
 8642SOL    HW235926   0.411   7.459   5.021
 8643SOL     OW35927   7.054   4.102   2.200
 8643SOL    HW135928   7.032   4.011   2.166
 8643SOL    HW235929   7.031   4.108   2.297
 8644SOL     OW35930   6.694   2.527   1.492
 8644SOL    HW135931   6.750   2.456   1.535
 8644SOL    HW235932   6.597   2.506   1.503
 8645SOL     OW35933   3.079   4.135   2.730
 8645SOL    HW135934   3.150   4.101   2.667
 8645SOL    HW235935   3.020   4.060   2.759
 8646SOL     OW35936   7.706   7.194   0.402
 8646SOL    HW135937   7.776   7.159   0.464
 8646SOL    HW235938   7.671   7.120   0.345
 8647SOL     OW35939   2.006   7.456   3.956
 8647SOL    HW135940   1.998   7.549   3.919
 8647SOL    HW235941   2.044   7.459   4.048
 8648SOL     OW35942   3.761   4.006   2.829
 8648SOL    HW135943   3.737   3.912   2.853
 8648SOL    HW235944   3.774   4.014   2.730
 8649SOL     OW35945   0.934   6.088   4.999
 8649SOL    HW135946   0.964   6.099   4.904
 8649SOL    HW235947   0.852   6.030   5.003
 8650SOL     OW35948   3.497   6.735   1.821
 8650SOL    HW135949   3.410   6.730   1.870
 8650SOL    HW235950   3.487   6.692   1.731
 8651SOL     OW35951   1.449   7.899   1.803
 8651SOL    HW135952   1.406   7.989   1.809
 8651SOL    HW235953   1.379   7.828   1.801
 8652SOL     OW35954   4.130   6.809   0.085
 8652SOL    HW135955   4.056   6.818   0.018
 8652SOL    HW235956   4.180   6.896   0.091
 8653SOL     OW35957   3.044   3.040   2.830
 8653SOL    HW135958   3.050   2.960   2.771
 8653SOL    HW235959   3.092   3.022   2.916
 8654SOL     OW35960   3.060   4.409   2.985
 8654SOL    HW135961   3.149   4.364   2.995
 8654SOL    HW235962   3.059   4.464   2.901
 8655SOL     OW35963   4.338   0.519   1.825
 8655SOL    HW135964   4.342   0.483   1.732
 8655SOL    HW235965   4.251   0.566   1.840
 8656SOL     OW35966   5.999   3.934   0.409
 8656SOL    HW135967   6.054   3.868   0.357
 8656SOL    HW235968   6.003   3.912   0.506
 8657SOL     OW35969   1.930   4.909   6.651
 8657SOL    HW135970   1.895   4.826   6.609
 8657SOL    HW235971   1.922   4.903   6.750
 8658SOL     OW35972   2.934   5.551   5.661
 8658SOL    HW135973   2.873   5.630   5.657
 8658SOL    HW235974   2.951   5.525   5.756
 8659SOL     OW35975   6.428   4.514   0.472
 8659SOL    HW135976   6.407   4.416   0.467
 8659SOL    HW235977   6.400   4.550   0.561
 8660SOL     OW35978   6.028   4.154   1.024
 8660SOL    HW135979   6.109   4.117   0.978
 8660SOL    HW235980   6.016   4.108   1.112
 8661SOL     OW35981   5.382   0.523   3.220
 8661SOL    HW135982   5.376   0.444   3.159
 8661SOL    HW235983   5.405   0.493   3.313
 8662SOL     OW35984   3.697   6.148   3.088
 8662SOL    HW135985   3.714   6.169   2.991
 8662SOL    HW235986   3.645   6.223   3.130
 8663SOL     OW35987  -0.042   5.620   1.673
 8663SOL    HW135988   0.031   5.596   1.609
 8663SOL    HW235989  -0.045   5.553   1.747
 8664SOL     OW35990   1.970   7.035   5.892
 8664SOL    HW135991   1.949   6.938   5.879
 8664SOL    HW235992   1.899   7.079   5.947
 8665SOL     OW35993   1.941   2.461   6.057
 8665SOL    HW135994   2.000   2.522   6.004
 8665SOL    HW235995   1.906   2.388   5.998
 8666SOL     OW35996   5.421   4.420   7.075
 8666SOL    HW135997   5.337   4.375   7.106
 8666SOL    HW235998   5.444   4.390   6.983
 8667SOL     OW35999   5.315   1.442   6.461
 8667SOL    HW136000   5.308   1.535   6.498
 8667SOL    HW236001   5.306   1.444   6.362
 8668SOL     OW36002   6.096   4.609   3.086
 8668SOL    HW136003   6.182   4.573   3.048
 8668SOL    HW236004   6.082   4.703   3.057
 8669SOL     OW36005   4.383   7.328   1.667
 8669SOL    HW136006   4.411   7.390   1.740
 8669SOL    HW236007   4.435   7.243   1.674
 8670SOL     OW36008   3.948   6.254   3.166
 8670SOL    HW136009   3.885   6.266   3.090
 8670SOL    HW236010   3.985   6.342   3.196
 8671SOL     OW36011   0.638   2.555   0.349
 8671SOL    HW136012   0.548   2.598   0.351
 8671SOL    HW236013   0.661   2.528   0.256
 8672SOL     OW36014   4.856   6.416   7.957
 8672SOL    HW136015   4.783   6.356   7.989
 8672SOL    HW236016   4.860   6.499   8.013
 8673SOL     OW36017   0.428   3.913   2.078
 8673SOL    HW136018   0.336   3.874   2.084
 8673SOL    HW236019   0.480   3.867   2.006
 8674SOL     OW36020   6.173   7.195   5.730
 8674SOL    HW136021   6.101   7.160   5.790
 8674SOL    HW236022   6.152   7.289   5.703
 8675SOL     OW36023   3.101   7.068   0.893
 8675SOL    HW136024   3.139   7.159   0.882
 8675SOL    HW236025   3.001   7.072   0.893
 8676SOL     OW36026   7.336   5.689   1.824
 8676SOL    HW136027   7.410   5.654   1.882
 8676SOL    HW236028   7.373   5.724   1.739
 8677SOL     OW36029   0.590   2.773   1.137
 8677SOL    HW136030   0.503   2.748   1.094
 8677SOL    HW236031   0.573   2.813   1.227
 8678SOL     OW36032   3.711   4.239   0.879
 8678SOL    HW136033   3.720   4.196   0.969
 8678SOL    HW236034   3.615   4.237   0.850
 8679SOL     OW36035   3.764   5.872   6.488
 8679SOL    HW136036   3.829   5.922   6.545
 8679SOL    HW236037   3.749   5.921   6.402
 8680SOL     OW36038   5.078   7.383   1.367
 8680SOL    HW136039   5.099   7.424   1.456
 8680SOL    HW236040   5.068   7.284   1.376
 8681SOL     OW36041   5.476   7.430   3.822
 8681SOL    HW136042   5.472   7.530   3.819
 8681SOL    HW236043   5.387   7.392   3.794
 8682SOL     OW36044   5.832   6.643   3.214
 8682SOL    HW136045   5.801   6.551   3.236
 8682SOL    HW236046   5.918   6.640   3.165
 8683SOL     OW36047   1.118   5.767   0.771
 8683SOL    HW136048   1.064   5.828   0.713
 8683SOL    HW236049   1.162   5.819   0.844
 8684SOL     OW36050   7.439   5.003   5.148
 8684SOL    HW136051   7.482   5.038   5.065
 8684SOL    HW236052   7.504   4.949   5.201
 8685SOL     OW36053   2.363   5.285   7.162
 8685SOL    HW136054   2.405   5.352   7.100
 8685SOL    HW236055   2.264   5.300   7.166
 8686SOL     OW36056   4.499   5.005   0.719
 8686SOL    HW136057   4.403   4.993   0.691
 8686SOL    HW236058   4.503   5.030   0.816
 8687SOL     OW36059   2.849   3.799   1.036
 8687SOL    HW136060   2.909   3.871   0.998
 8687SOL    HW236061   2.873   3.781   1.131
 8688SOL     OW36062   1.142   7.502   8.018
 8688SOL    HW136063   1.219   7.439   8.018
 8688SOL    HW236064   1.164   7.583   7.963
 8689SOL     OW36065   3.944   0.307   6.194
 8689SOL    HW136066   3.985   0.296   6.104
 8689SOL    HW236067   3.876   0.236   6.210
 8690SOL     OW36068   5.097   5.001   1.306
 8690SOL    HW136069   5.141   4.913   1.328
 8690SOL    HW236070   5.130   5.033   1.217
 8691SOL     OW36071   7.309   2.841   1.913
 8691SOL    HW136072   7.281   2.855   1.818
 8691SOL    HW236073   7.345   2.926   1.951
 8692SOL     OW36074   4.506   7.194   3.989
 8692SOL    HW136075   4.439   7.251   3.942
 8692SOL    HW236076   4.595   7.240   3.993
 8693SOL     OW36077   7.101   4.372   6.079
 8693SOL    HW136078   7.187   4.410   6.113
 8693SOL    HW236079   7.082   4.407   5.988
 8694SOL     OW36080   7.099   2.180   3.273
 8694SOL    HW136081   7.026   2.235   3.314
 8694SOL    HW236082   7.179   2.181   3.333
 8695SOL     OW36083   4.064   2.770   2.573
 8695SOL    HW136084   4.030   2.774   2.479
 8695SOL    HW236085   4.096   2.678   2.594
 8696SOL     OW36086   0.076   3.891   1.016
 8696SOL    HW136087   0.087   3.959   0.943
 8696SOL    HW236088   0.119   3.805   0.988
 8697SOL     OW36089   6.939   5.871   1.099
 8697SOL    HW136090   6.849   5.876   1.057
 8697SOL    HW236091   6.939   5.919   1.187
 8698SOL     OW36092   1.289   0.219   2.176
 8698SOL    HW136093   1.329   0.301   2.216
 8698SOL    HW236094   1.348   0.184   2.103
 8699SOL     OW36095   7.949   1.264   1.368
 8699SOL    HW136096   7.955   1.234   1.273
 8699SOL    HW236097   7.854   1.256   1.400
 8700SOL     OW36098   1.340   6.509   1.153
 8700SOL    HW136099   1.310   6.420   1.186
 8700SOL    HW236100   1.300   6.528   1.064
 8701SOL     OW36101   3.943   7.802   4.626
 8701SOL    HW136102   3.960   7.897   4.652
 8701SOL    HW236103   3.931   7.795   4.527
 8702SOL     OW36104   4.078   6.537   0.111
 8702SOL    HW136105   4.142   6.517   0.185
 8702SOL    HW236106   4.106   6.491   0.027
 8703SOL     OW36107   1.813   6.644   4.833
 8703SOL    HW136108   1.891   6.630   4.894
 8703SOL    HW236109   1.836   6.615   4.740
 8704SOL     OW36110   3.710   6.994   3.846
 8704SOL    HW136111   3.694   6.900   3.814
 8704SOL    HW236112   3.738   6.992   3.942
 8705SOL     OW36113   2.414   4.066   4.895
 8705SOL    HW136114   2.323   4.076   4.855
 8705SOL    HW236115   2.448   3.973   4.879
 8706SOL     OW36116   7.617   0.191   7.531
 8706SOL    HW136117   7.645   0.145   7.616
 8706SOL    HW236118   7.667   0.152   7.454
 8707SOL     OW36119   0.477   3.420   2.741
 8707SOL    HW136120   0.402   3.429   2.806
 8707SOL    HW236121   0.443   3.387   2.653
 8708SOL     OW36122   7.784   1.973   6.002
 8708SOL    HW136123   7.692   1.937   6.016
 8708SOL    HW236124   7.827   1.991   6.091
 8709SOL     OW36125   6.634   3.557   4.626
 8709SOL    HW136126   6.551   3.523   4.581
 8709SOL    HW236127   6.715   3.526   4.577
 8710SOL     OW36128   1.145   3.432   6.014
 8710SOL    HW136129   1.235   3.469   6.039
 8710SOL    HW236130   1.088   3.505   5.977
 8711SOL     OW36131   1.812   3.511   4.376
 8711SOL    HW136132   1.782   3.589   4.431
 8711SOL    HW236133   1.760   3.507   4.291
 8712SOL     OW36134   3.441   4.488   6.051
 8712SOL    HW136135   3.359   4.476   6.106
 8712SOL    HW236136   3.521   4.496   6.111
 8713SOL     OW36137   3.005   3.092   4.335
 8713SOL    HW136138   3.025   3.138   4.421
 8713SOL    HW236139   2.982   2.996   4.353
 8714SOL     OW36140   0.977   1.016   1.596
 8714SOL    HW136141   1.020   1.106   1.608
 8714SOL    HW236142   0.991   0.961   1.678
 8715SOL     OW36143   6.783   0.694   2.228
 8715SOL    HW136144   6.837   0.769   2.188
 8715SOL    HW236145   6.777   0.618   2.164
 8716SOL     OW36146   6.565   2.519   6.694
 8716SOL    HW136147   6.640   2.474   6.742
 8716SOL    HW236148   6.597   2.556   6.607
 8717SOL     OW36149   7.634   0.702   5.010
 8717SOL    HW136150   7.665   0.723   5.103
 8717SOL    HW236151   7.710   0.713   4.945
 8718SOL     OW36152   5.296   2.634   3.726
 8718SOL    HW136153   5.292   2.730   3.695
 8718SOL    HW236154   5.332   2.630   3.819
 8719SOL     OW36155   5.362   7.821   7.070
 8719SOL    HW136156   5.461   7.803   7.064
 8719SOL    HW236157   5.316   7.741   7.109
 8720SOL     OW36158   4.842   0.780   0.612
 8720SOL    HW136159   4.813   0.735   0.528
 8720SOL    HW236160   4.886   0.867   0.591
 8721SOL     OW36161   2.262   7.659   5.243
 8721SOL    HW136162   2.251   7.668   5.144
 8721SOL    HW236163   2.185   7.702   5.291
 8722SOL     OW36164   3.265   4.143   1.007
 8722SOL    HW136165   3.340   4.199   1.041
 8722SOL    HW236166   3.230   4.182   0.922
 8723SOL     OW36167   2.339   6.306   4.162
 8723SOL    HW136168   2.260   6.364   4.140
 8723SOL    HW236169   2.420   6.363   4.175
 8724SOL     OW36170   4.135   5.858   3.924
 8724SOL    HW136171   4.131   5.952   3.888
 8724SOL    HW236172   4.170   5.859   4.018
 8725SOL     OW36173   7.755   4.278   1.537
 8725SOL    HW136174   7.743   4.267   1.636
 8725SOL    HW236175   7.706   4.206   1.489
 8726SOL     OW36176   3.328   1.873   6.693
 8726SOL    HW136177   3.237   1.833   6.704
 8726SOL    HW236178   3.324   1.972   6.707
 8727SOL     OW36179   0.291   4.314   1.322
 8727SOL    HW136180   0.324   4.222   1.300
 8727SOL    HW236181   0.204   4.308   1.370
 8728SOL     OW36182   2.808   5.905   0.300
 8728SOL    HW136183   2.716   5.893   0.338
 8728SOL    HW236184   2.813   5.864   0.209
 8729SOL     OW36185   2.559   0.319   1.268
 8729SOL    HW136186   2.581   0.240   1.210
 8729SOL    HW236187   2.562   0.402   1.213
 8730SOL     OW36188   2.992   7.590   3.661
 8730SOL    HW136189   3.079   7.581   3.711
 8730SOL    HW236190   2.918   7.548   3.714
 8731SOL     OW36191   6.597   6.863   3.771
 8731SOL    HW136192   6.623   6.854   3.868
 8731SOL    HW236193   6.584   6.772   3.731
 8732SOL     OW36194   1.828   4.870   7.440
 8732SOL    HW136195   1.812   4.957   7.487
 8732SOL    HW236196   1.742   4.822   7.425
 8733SOL     OW36197   2.712   2.875   4.186
 8733SOL    HW136198   2.776   2.942   4.224
 8733SOL    HW236199   2.754   2.785   4.183
 8734SOL     OW36200   0.421   2.567   3.159
 8734SOL    HW136201   0.321   2.569   3.164
 8734SOL    HW236202   0.459   2.525   3.241
 8735SOL     OW36203   0.686   0.661   4.758
 8735SOL    HW136204   0.685   0.743   4.701
 8735SOL    HW236205   0.609   0.602   4.735
 8736SOL     OW36206   3.325   2.272   7.049
 8736SOL    HW136207   3.347   2.359   7.006
 8736SOL    HW236208   3.253   2.225   6.997
 8737SOL     OW36209   1.093   5.861   2.475
 8737SOL    HW136210   1.073   5.774   2.520
 8737SOL    HW236211   1.190   5.869   2.455
 8738SOL     OW36212   6.580   3.706   7.559
 8738SOL    HW136213   6.585   3.755   7.646
 8738SOL    HW236214   6.641   3.748   7.492
 8739SOL     OW36215   5.324   4.707   2.024
 8739SOL    HW136216   5.416   4.691   2.060
 8739SOL    HW236217   5.256   4.658   2.079
 8740SOL     OW36218   4.364   2.615   7.326
 8740SOL    HW136219   4.322   2.576   7.244
 8740SOL    HW236220   4.296   2.623   7.399
 8741SOL     OW36221   6.180   5.623   2.434
 8741SOL    HW136222   6.256   5.569   2.471
 8741SOL    HW236223   6.202   5.655   2.342
 8742SOL     OW36224   7.618   1.293   6.891
 8742SOL    HW136225   7.518   1.300   6.893
 8742SOL    HW236226   7.658   1.376   6.853
 8743SOL     OW36227   1.891   5.641   5.238
 8743SOL    HW136228   1.818   5.599   5.183
 8743SOL    HW236229   1.879   5.619   5.334
 8744SOL     OW36230   4.508   5.519   7.749
 8744SOL    HW136231   4.554   5.546   7.833
 8744SOL    HW236232   4.409   5.525   7.761
 8745SOL     OW36233   6.170   5.039   2.673
 8745SOL    HW136234   6.081   5.021   2.632
 8745SOL    HW236235   6.158   5.072   2.767
 8746SOL     OW36236   7.619   0.715   7.796
 8746SOL    HW136237   7.582   0.651   7.863
 8746SOL    HW236238   7.577   0.700   7.706
 8747SOL     OW36239   5.926   5.232   1.251
 8747SOL    HW136240   5.996   5.160   1.253
 8747SOL    HW236241   5.947   5.296   1.177
 8748SOL     OW36242   4.103   5.452   6.295
 8748SOL    HW136243   4.033   5.386   6.322
 8748SOL    HW236244   4.148   5.422   6.211
 8749SOL     OW36245   4.594   3.586   3.014
 8749SOL    HW136246   4.654   3.516   2.974
 8749SOL    HW236247   4.572   3.561   3.109
 8750SOL     OW36248   5.078   7.435   2.196
 8750SOL    HW136249   5.066   7.535   2.199
 8750SOL    HW236250   5.150   7.411   2.131
 8751SOL     OW36251   1.895   4.442   5.296
 8751SOL    HW136252   1.916   4.354   5.253
 8751SOL    HW236253   1.974   4.476   5.346
 8752SOL     OW36254   5.298   3.841   6.521
 8752SOL    HW136255   5.236   3.812   6.448
 8752SOL    HW236256   5.383   3.877   6.481
 8753SOL     OW36257   4.711   7.799   2.795
 8753SOL    HW136258   4.717   7.883   2.741
 8753SOL    HW236259   4.776   7.802   2.871
 8754SOL     OW36260   7.607   7.423   4.580
 8754SOL    HW136261   7.549   7.500   4.605
 8754SOL    HW236262   7.582   7.389   4.489
 8755SOL     OW36263   4.580   5.058   4.643
 8755SOL    HW136264   4.586   5.155   4.667
 8755SOL    HW236265   4.591   5.047   4.545
 8756SOL     OW36266   1.524   1.541   6.410
 8756SOL    HW136267   1.504   1.609   6.481
 8756SOL    HW236268   1.573   1.463   6.451
 8757SOL     OW36269   7.479   6.829   4.249
 8757SOL    HW136270   7.556   6.768   4.235
 8757SOL    HW236271   7.410   6.815   4.178
 8758SOL     OW36272   7.873   7.406   5.536
 8758SOL    HW136273   7.895   7.347   5.458
 8758SOL    HW236274   7.793   7.462   5.514
 8759SOL     OW36275   1.789   2.907   6.453
 8759SOL    HW136276   1.735   2.883   6.372
 8759SOL    HW236277   1.742   2.878   6.536
 8760SOL     OW36278   3.005   0.121   7.773
 8760SOL    HW136279   3.088   0.080   7.812
 8760SOL    HW236280   3.018   0.220   7.760
 8761SOL     OW36281   7.934   0.487   6.377
 8761SOL    HW136282   7.841   0.522   6.364
 8761SOL    HW236283   7.955   0.419   6.307
 8762SOL     OW36284   1.284   2.652   5.994
 8762SOL    HW136285   1.212   2.612   5.937
 8762SOL    HW236286   1.251   2.736   6.037
 8763SOL     OW36287   1.372   6.120   6.686
 8763SOL    HW136288   1.285   6.116   6.736
 8763SOL    HW236289   1.372   6.052   6.613
 8764SOL     OW36290   0.747   2.076   6.096
 8764SOL    HW136291   0.671   2.124   6.140
 8764SOL    HW236292   0.833   2.118   6.122
 8765SOL     OW36293   5.451   7.147   7.700
 8765SOL    HW136294   5.363   7.195   7.706
 8765SOL    HW236295   5.488   7.156   7.608
 8766SOL     OW36296   1.532   0.804   5.669
 8766SOL    HW136297   1.576   0.827   5.756
 8766SOL    HW236298   1.593   0.747   5.613
 8767SOL     OW36299   1.417   1.132   7.785
 8767SOL    HW136300   1.452   1.141   7.879
 8767SOL    HW236301   1.493   1.112   7.723
 8768SOL     OW36302   1.861   1.094   5.969
 8768SOL    HW136303   1.866   1.016   5.907
 8768SOL    HW236304   1.952   1.131   5.985
 8769SOL     OW36305   3.718   7.843   4.088
 8769SOL    HW136306   3.730   7.885   3.998
 8769SOL    HW236307   3.662   7.902   4.146
 8770SOL     OW36308   7.951   3.628   3.668
 8770SOL    HW136309   7.947   3.710   3.726
 8770SOL    HW236310   7.868   3.622   3.613
 8771SOL     OW36311   3.730   1.968   0.222
 8771SOL    HW136312   3.742   1.906   0.300
 8771SOL    HW236313   3.788   1.939   0.146
 8772SOL     OW36314   4.916   4.920   0.358
 8772SOL    HW136315   5.008   4.924   0.319
 8772SOL    HW236316   4.863   4.847   0.314
 8773SOL     OW36317   3.947   7.598   1.253
 8773SOL    HW136318   3.896   7.614   1.337
 8773SOL    HW236319   3.885   7.577   1.178
 8774SOL     OW36320   6.923   7.527   2.460
 8774SOL    HW136321   6.845   7.478   2.420
 8774SOL    HW236322   6.891   7.612   2.502
 8775SOL     OW36323   4.723   5.629   0.679
 8775SOL    HW136324   4.694   5.557   0.743
 8775SOL    HW236325   4.693   5.608   0.587
 8776SOL     OW36326   4.745   7.545   7.808
 8776SOL    HW136327   4.662   7.570   7.858
 8776SOL    HW236328   4.746   7.590   7.719
 8777SOL     OW36329   5.352   2.134   2.759
 8777SOL    HW136330   5.391   2.042   2.752
 8777SOL    HW236331   5.257   2.129   2.793
 8778SOL     OW36332   1.434   0.903   3.841
 8778SOL    HW136333   1.476   0.982   3.885
 8778SOL    HW236334   1.401   0.928   3.750
 8779SOL     OW36335   3.039   2.761   5.101
 8779SOL    HW136336   3.094   2.748   5.183
 8779SOL    HW236337   2.960   2.700   5.102
 8780SOL     OW36338   6.130   5.948   3.797
 8780SOL    HW136339   6.071   5.903   3.865
 8780SOL    HW236340   6.187   5.880   3.752
 8781SOL     OW36341   6.087   6.938   4.123
 8781SOL    HW136342   6.070   7.011   4.056
 8781SOL    HW236343   6.167   6.959   4.178
 8782SOL     OW36344   3.468   1.015   4.438
 8782SOL    HW136345   3.484   0.925   4.396
 8782SOL    HW236346   3.554   1.051   4.473
 8783SOL     OW36347   7.815   5.893   3.541
 8783SOL    HW136348   7.781   5.823   3.603
 8783SOL    HW236349   7.849   5.852   3.456
 8784SOL     OW36350   3.739   2.969   3.647
 8784SOL    HW136351   3.771   2.924   3.563
 8784SOL    HW236352   3.720   3.065   3.630
 8785SOL     OW36353   7.439   7.387   4.297
 8785SOL    HW136354   7.417   7.484   4.310
 8785SOL    HW236355   7.441   7.365   4.200
 8786SOL     OW36356   6.086   5.231   5.751
 8786SOL    HW136357   6.006   5.171   5.764
 8786SOL    HW236358   6.117   5.227   5.656
 8787SOL     OW36359   3.236   0.302   0.060
 8787SOL    HW136360   3.182   0.362   0.120
 8787SOL    HW236361   3.215   0.206   0.081
 8788SOL     OW36362   5.488   7.651   5.246
 8788SOL    HW136363   5.577   7.613   5.220
 8788SOL    HW236364   5.455   7.605   5.330
 8789SOL     OW36365   1.233   0.199   6.427
 8789SOL    HW136366   1.240   0.286   6.377
 8789SOL    HW236367   1.182   0.133   6.372
 8790SOL     OW36368   7.592   5.398   2.943
 8790SOL    HW136369   7.494   5.416   2.930
 8790SOL    HW236370   7.630   5.462   3.009
 8791SOL     OW36371   0.777   6.151   5.487
 8791SOL    HW136372   0.862   6.203   5.475
 8791SOL    HW236373   0.712   6.203   5.541
 8792SOL     OW36374   0.085   6.559   1.225
 8792SOL    HW136375   0.150   6.603   1.162
 8792SOL    HW236376  -0.006   6.598   1.212
 8793SOL     OW36377   2.844   6.079   2.908
 8793SOL    HW136378   2.812   6.015   2.979
 8793SOL    HW236379   2.858   6.030   2.822
 8794SOL     OW36380   3.095   0.640   7.918
 8794SOL    HW136381   3.155   0.712   7.882
 8794SOL    HW236382   3.129   0.609   8.007
 8795SOL     OW36383   6.181   3.918   4.136
 8795SOL    HW136384   6.224   3.854   4.199
 8795SOL    HW236385   6.184   3.880   4.043
 8796SOL     OW36386   2.512   3.275   1.293
 8796SOL    HW136387   2.465   3.187   1.291
 8796SOL    HW236388   2.458   3.344   1.243
 8797SOL     OW36389   4.418   0.366   1.087
 8797SOL    HW136390   4.433   0.434   1.159
 8797SOL    HW236391   4.488   0.377   1.016
 8798SOL     OW36392   2.135   6.246   4.407
 8798SOL    HW136393   2.108   6.341   4.420
 8798SOL    HW236394   2.190   6.237   4.323
 8799SOL     OW36395   6.708   0.933   4.950
 8799SOL    HW136396   6.684   0.937   5.047
 8799SOL    HW236397   6.770   1.008   4.926
 8800SOL     OW36398   5.635   4.788   5.029
 8800SOL    HW136399   5.603   4.864   5.084
 8800SOL    HW236400   5.585   4.785   4.942
 8801SOL     OW36401   2.159   6.887   4.541
 8801SOL    HW136402   2.175   6.865   4.638
 8801SOL    HW236403   2.128   6.805   4.493
 8802SOL     OW36404  -0.041   3.236   1.936
 8802SOL    HW136405   0.030   3.173   1.970
 8802SOL    HW236406  -0.046   3.316   1.995
 8803SOL     OW36407   1.627   5.042   4.293
 8803SOL    HW136408   1.562   4.981   4.339
 8803SOL    HW236409   1.637   5.017   4.197
 8804SOL     OW36410   5.218   1.867   4.012
 8804SOL    HW136411   5.291   1.874   4.080
 8804SOL    HW236412   5.223   1.779   3.965
 8805SOL     OW36413   7.847   2.345   0.638
 8805SOL    HW136414   7.915   2.316   0.705
 8805SOL    HW236415   7.818   2.439   0.657
 8806SOL     OW36416   7.409   5.752   4.160
 8806SOL    HW136417   7.345   5.770   4.085
 8806SOL    HW236418   7.386   5.809   4.239
 8807SOL     OW36419   4.031   2.200   7.982
 8807SOL    HW136420   3.949   2.145   7.967
 8807SOL    HW236421   4.093   2.191   7.904
 8808SOL     OW36422   3.435   6.156   0.874
 8808SOL    HW136423   3.409   6.253   0.873
 8808SOL    HW236424   3.382   6.106   0.806
 8809SOL     OW36425   1.633   4.070   2.248
 8809SOL    HW136426   1.713   4.109   2.201
 8809SOL    HW236427   1.661   3.992   2.303
 8810SOL     OW36428   0.234   5.952   4.821
 8810SOL    HW136429   0.230   5.945   4.721
 8810SOL    HW236430   0.325   5.924   4.853
 8811SOL     OW36431   4.588   4.817   6.357
 8811SOL    HW136432   4.524   4.874   6.409
 8811SOL    HW236433   4.547   4.790   6.270
 8812SOL     OW36434   4.244   5.651   2.500
 8812SOL    HW136435   4.332   5.622   2.539
 8812SOL    HW236436   4.219   5.590   2.425
 8813SOL     OW36437   4.729   5.561   1.599
 8813SOL    HW136438   4.647   5.507   1.579
 8813SOL    HW236439   4.785   5.512   1.666
 8814SOL     OW36440   2.272   2.763   3.507
 8814SOL    HW136441   2.339   2.809   3.449
 8814SOL    HW236442   2.184   2.811   3.502
 8815SOL     OW36443   2.655   0.884   2.466
 8815SOL    HW136444   2.708   0.854   2.387
 8815SOL    HW236445   2.564   0.841   2.464
 8816SOL     OW36446   1.382   4.065   0.368
 8816SOL    HW136447   1.449   4.125   0.411
 8816SOL    HW236448   1.317   4.119   0.315
 8817SOL     OW36449   7.867   3.457   1.335
 8817SOL    HW136450   7.779   3.471   1.289
 8817SOL    HW236451   7.870   3.512   1.419
 8818SOL     OW36452   6.539   6.855   1.919
 8818SOL    HW136453   6.526   6.761   1.951
 8818SOL    HW236454   6.471   6.876   1.849
 8819SOL     OW36455   2.300   3.603   1.279
 8819SOL    HW136456   2.272   3.513   1.245
 8819SOL    HW236457   2.337   3.657   1.204
 8820SOL     OW36458   3.695   3.008   0.630
 8820SOL    HW136459   3.734   2.917   0.614
 8820SOL    HW236460   3.757   3.062   0.686
 8821SOL     OW36461   5.668   1.857   4.523
 8821SOL    HW136462   5.751   1.817   4.562
 8821SOL    HW236463   5.687   1.889   4.430
 8822SOL     OW36464   7.432   7.827   6.319
 8822SOL    HW136465   7.370   7.887   6.369
 8822SOL    HW236466   7.384   7.782   6.244
 8823SOL     OW36467   4.671   1.530   6.173
 8823SOL    HW136468   4.721   1.444   6.162
 8823SOL    HW236469   4.687   1.589   6.094
 8824SOL     OW36470   1.514   5.860   5.839
 8824SOL    HW136471   1.542   5.772   5.877
 8824SOL    HW236472   1.550   5.871   5.747
 8825SOL     OW36473   4.086   6.944   2.300
 8825SOL    HW136474   4.036   6.860   2.323
 8825SOL    HW236475   4.133   6.933   2.212
 8826SOL     OW36476   3.578   3.449   6.280
 8826SOL    HW136477   3.605   3.448   6.377
 8826SOL    HW236478   3.565   3.544   6.250
 8827SOL     OW36479   7.156   2.368   7.354
 8827SOL    HW136480   7.098   2.400   7.429
 8827SOL    HW236481   7.241   2.420   7.352
 8828SOL     OW36482   4.268   6.633   7.008
 8828SOL    HW136483   4.182   6.650   7.056
 8828SOL    HW236484   4.256   6.556   6.946
 8829SOL     OW36485   5.904   5.324   3.931
 8829SOL    HW136486   5.884   5.366   4.020
 8829SOL    HW236487   5.972   5.379   3.882
 8830SOL     OW36488   1.385   4.453   1.433
 8830SOL    HW136489   1.285   4.452   1.440
 8830SOL    HW236490   1.425   4.424   1.520
 8831SOL     OW36491   0.701   1.824   6.149
 8831SOL    HW136492   0.623   1.883   6.130
 8831SOL    HW236493   0.782   1.858   6.102
 8832SOL     OW36494   2.362   5.311   6.561
 8832SOL    HW136495   2.354   5.241   6.490
 8832SOL    HW236496   2.458   5.328   6.583
 8833SOL     OW36497   6.923   6.050   7.448
 8833SOL    HW136498   6.847   6.110   7.424
 8833SOL    HW236499   6.942   6.056   7.546
 8834SOL     OW36500   0.967   6.538   4.758
 8834SOL    HW136501   1.006   6.453   4.722
 8834SOL    HW236502   0.960   6.533   4.858
 8835SOL     OW36503   1.323   6.981   2.256
 8835SOL    HW136504   1.258   6.918   2.298
 8835SOL    HW236505   1.352   6.946   2.167
 8836SOL     OW36506   5.325   6.350   0.116
 8836SOL    HW136507   5.309   6.331   0.212
 8836SOL    HW236508   5.423   6.351   0.096
 8837SOL     OW36509   3.432   1.789   3.590
 8837SOL    HW136510   3.455   1.716   3.526
 8837SOL    HW236511   3.414   1.751   3.681
 8838SOL     OW36512   3.483   0.580   4.762
 8838SOL    HW136513   3.575   0.597   4.797
 8838SOL    HW236514   3.448   0.661   4.715
 8839SOL     OW36515   6.124   6.527   2.830
 8839SOL    HW136516   6.131   6.506   2.733
 8839SOL    HW236517   6.111   6.443   2.883
 8840SOL     OW36518   4.084   7.212   7.021
 8840SOL    HW136519   4.078   7.241   6.926
 8840SOL    HW236520   3.994   7.184   7.054
 8841SOL     OW36521   2.692   0.649   1.609
 8841SOL    HW136522   2.635   0.713   1.662
 8841SOL    HW236523   2.694   0.677   1.513
 8842SOL     OW36524   2.603   6.766   5.856
 8842SOL    HW136525   2.539   6.806   5.790
 8842SOL    HW236526   2.695   6.799   5.839
 8843SOL     OW36527   5.417   2.176   0.453
 8843SOL    HW136528   5.342   2.113   0.475
 8843SOL    HW236529   5.455   2.152   0.364
 8844SOL     OW36530   7.611   2.599   4.803
 8844SOL    HW136531   7.668   2.536   4.857
 8844SOL    HW236532   7.664   2.680   4.779
 8845SOL     OW36533   6.337   0.229   6.081
 8845SOL    HW136534   6.248   0.249   6.123
 8845SOL    HW236535   6.326   0.208   5.984
 8846SOL     OW36536   2.932   7.470   0.933
 8846SOL    HW136537   2.846   7.421   0.950
 8846SOL    HW236538   2.942   7.488   0.835
 8847SOL     OW36539   4.286   5.162   5.914
 8847SOL    HW136540   4.249   5.250   5.883
 8847SOL    HW236541   4.385   5.159   5.901
 8848SOL     OW36542   2.549   4.591   3.417
 8848SOL    HW136543   2.463   4.549   3.447
 8848SOL    HW236544   2.573   4.559   3.325
 8849SOL     OW36545   0.895   7.537   4.604
 8849SOL    HW136546   0.915   7.631   4.579
 8849SOL    HW236547   0.936   7.515   4.692
 8850SOL     OW36548   3.780   1.207   3.933
 8850SOL    HW136549   3.860   1.184   3.877
 8850SOL    HW236550   3.724   1.126   3.948
 8851SOL     OW36551   0.467   5.955   0.947
 8851SOL    HW136552   0.386   5.931   1.002
 8851SOL    HW236553   0.450   6.040   0.898
 8852SOL     OW36554   7.015   0.407   0.321
 8852SOL    HW136555   6.932   0.389   0.268
 8852SOL    HW236556   6.999   0.480   0.388
 8853SOL     OW36557   0.689   5.980   1.636
 8853SOL    HW136558   0.762   5.974   1.567
 8853SOL    HW236559   0.643   6.069   1.629
 8854SOL     OW36560   4.939   2.168   1.525
 8854SOL    HW136561   4.939   2.180   1.624
 8854SOL    HW236562   4.896   2.081   1.501
 8855SOL     OW36563   2.331   1.260   0.635
 8855SOL    HW136564   2.239   1.240   0.669
 8855SOL    HW236565   2.351   1.357   0.645
 8856SOL     OW36566   7.277   5.626   1.522
 8856SOL    HW136567   7.353   5.672   1.477
 8856SOL    HW236568   7.298   5.529   1.534
 8857SOL     OW36569   2.253   4.953   7.439
 8857SOL    HW136570   2.202   5.009   7.374
 8857SOL    HW236571   2.331   4.911   7.393
 8858SOL     OW36572   4.092   6.548   7.270
 8858SOL    HW136573   4.041   6.631   7.247
 8858SOL    HW236574   4.089   6.484   7.193
 8859SOL     OW36575   4.861   5.931   1.790
 8859SOL    HW136576   4.846   5.962   1.696
 8859SOL    HW236577   4.861   6.009   1.853
 8860SOL     OW36578   6.211   3.060   3.866
 8860SOL    HW136579   6.250   3.045   3.775
 8860SOL    HW236580   6.253   2.998   3.932
 8861SOL     OW36581   2.120   3.848   4.127
 8861SOL    HW136582   2.152   3.921   4.188
 8861SOL    HW236583   2.148   3.868   4.033
 8862SOL     OW36584   0.682   5.211   1.667
 8862SOL    HW136585   0.643   5.214   1.759
 8862SOL    HW236586   0.649   5.130   1.618
 8863SOL     OW36587   1.622   0.867   5.391
 8863SOL    HW136588   1.677   0.786   5.414
 8863SOL    HW236589   1.531   0.858   5.432
 8864SOL     OW36590   1.109   6.386   2.662
 8864SOL    HW136591   1.133   6.326   2.585
 8864SOL    HW236592   1.180   6.455   2.674
 8865SOL     OW36593   2.171   4.885   6.455
 8865SOL    HW136594   2.083   4.865   6.499
 8865SOL    HW236595   2.240   4.821   6.488
 8866SOL     OW36596   5.536   0.189   7.226
 8866SOL    HW136597   5.577   0.128   7.158
 8866SOL    HW236598   5.475   0.138   7.286
 8867SOL     OW36599   2.641   1.299   6.071
 8867SOL    HW136600   2.741   1.303   6.063
 8867SOL    HW236601   2.602   1.261   5.987
 8868SOL     OW36602   6.370   4.567   7.355
 8868SOL    HW136603   6.298   4.497   7.364
 8868SOL    HW236604   6.346   4.647   7.409
 8869SOL     OW36605   1.844   6.391   2.286
 8869SOL    HW136606   1.902   6.317   2.251
 8869SOL    HW236607   1.813   6.369   2.378
 8870SOL     OW36608   7.787   1.023   1.277
 8870SOL    HW136609   7.724   1.090   1.237
 8870SOL    HW236610   7.802   1.043   1.374
 8871SOL     OW36611   1.866  -0.012   7.445
 8871SOL    HW136612   1.937   0.034   7.392
 8871SOL    HW236613   1.783   0.044   7.448
 8872SOL     OW36614   1.227   5.674   0.444
 8872SOL    HW136615   1.305   5.655   0.504
 8872SOL    HW236616   1.149   5.704   0.498
 8873SOL     OW36617   2.817   4.998   6.057
 8873SOL    HW136618   2.907   5.020   6.096
 8873SOL    HW236619   2.797   5.060   5.981
 8874SOL     OW36620   3.454   5.431   2.260
 8874SOL    HW136621   3.549   5.420   2.288
 8874SOL    HW236622   3.446   5.510   2.199
 8875SOL     OW36623   6.388   0.844   5.995
 8875SOL    HW136624   6.359   0.887   5.910
 8875SOL    HW236625   6.317   0.854   6.064
 8876SOL     OW36626   1.814   3.553   2.032
 8876SOL    HW136627   1.890   3.524   1.974
 8876SOL    HW236628   1.822   3.511   2.123
 8877SOL     OW36629   3.573   3.728   2.406
 8877SOL    HW136630   3.611   3.648   2.359
 8877SOL    HW236631   3.475   3.737   2.385
 8878SOL     OW36632   4.648   2.716   7.152
 8878SOL    HW136633   4.682   2.768   7.073
 8878SOL    HW236634   4.707   2.637   7.169
 8879SOL     OW36635   6.242   2.362   5.114
 8879SOL    HW136636   6.256   2.279   5.169
 8879SOL    HW236637   6.155   2.404   5.138
 8880SOL     OW36638   5.662   3.893   7.850
 8880SOL    HW136639   5.582   3.855   7.897
 8880SOL    HW236640   5.740   3.896   7.912
 8881SOL     OW36641   5.749   2.425   0.996
 8881SOL    HW136642   5.650   2.440   1.004
 8881SOL    HW236643   5.797   2.480   1.065
 8882SOL     OW36644   6.328   3.215   3.607
 8882SOL    HW136645   6.422   3.183   3.600
 8882SOL    HW236646   6.268   3.159   3.550
 8883SOL     OW36647   3.891   7.007   5.211
 8883SOL    HW136648   3.941   6.924   5.188
 8883SOL    HW236649   3.842   7.040   5.131
 8884SOL     OW36650   2.259   6.656   3.468
 8884SOL    HW136651   2.329   6.598   3.510
 8884SOL    HW236652   2.198   6.693   3.538
 8885SOL     OW36653   5.103   4.922   2.562
 8885SOL    HW136654   5.109   4.823   2.552
 8885SOL    HW236655   5.088   4.964   2.472
 8886SOL     OW36656   5.958   4.751   0.018
 8886SOL    HW136657   5.886   4.820   0.018
 8886SOL    HW236658   6.002   4.747   0.107
 8887SOL     OW36659   4.737   3.180   3.329
 8887SOL    HW136660   4.663   3.238   3.362
 8887SOL    HW236661   4.725   3.160   3.232
 8888SOL     OW36662   3.856   7.862   1.576
 8888SOL    HW136663   3.846   7.867   1.675
 8888SOL    HW236664   3.834   7.769   1.544
 8889SOL     OW36665  -0.045   4.966   2.254
 8889SOL    HW136666   0.032   4.908   2.282
 8889SOL    HW236667  -0.041   4.981   2.155
 8890SOL     OW36668   7.210   4.538   1.607
 8890SOL    HW136669   7.194   4.629   1.567
 8890SOL    HW236670   7.200   4.543   1.707
 8891SOL     OW36671   7.643   4.676   7.615
 8891SOL    HW136672   7.571   4.729   7.569
 8891SOL    HW236673   7.689   4.732   7.683
 8892SOL     OW36674   3.845   5.602   1.214
 8892SOL    HW136675   3.934   5.617   1.171
 8892SOL    HW236676   3.850   5.620   1.312
 8893SOL     OW36677   2.699   0.067   2.723
 8893SOL    HW136678   2.788   0.066   2.770
 8893SOL    HW236679   2.696  -0.006   2.655
 8894SOL     OW36680   0.023   0.732   3.027
 8894SOL    HW136681   0.112   0.687   3.031
 8894SOL    HW236682  -0.045   0.678   3.076
 8895SOL     OW36683   4.920   3.854   1.480
 8895SOL    HW136684   5.017   3.842   1.457
 8895SOL    HW236685   4.892   3.948   1.462
 8896SOL     OW36686   2.085   3.793   5.488
 8896SOL    HW136687   2.030   3.741   5.423
 8896SOL    HW236688   2.146   3.855   5.439
 8897SOL     OW36689   1.958   0.669   4.542
 8897SOL    HW136690   2.053   0.641   4.552
 8897SOL    HW236691   1.946   0.720   4.457
 8898SOL     OW36692   6.718   4.320   0.666
 8898SOL    HW136693   6.688   4.414   0.675
 8898SOL    HW236694   6.807   4.308   0.710
 8899SOL     OW36695   7.339   2.176   2.734
 8899SOL    HW136696   7.247   2.145   2.706
 8899SOL    HW236697   7.333   2.224   2.821
 8900SOL     OW36698   6.917   7.037   5.226
 8900SOL    HW136699   6.895   6.961   5.288
 8900SOL    HW236700   6.835   7.093   5.212
 8901SOL     OW36701   3.437   6.121   3.633
 8901SOL    HW136702   3.430   6.207   3.684
 8901SOL    HW236703   3.529   6.112   3.594
 8902SOL     OW36704   6.150   6.333   4.646
 8902SOL    HW136705   6.151   6.433   4.641
 8902SOL    HW236706   6.090   6.296   4.574
 8903SOL     OW36707   3.440   2.928   6.294
 8903SOL    HW136708   3.530   2.925   6.338
 8903SOL    HW236709   3.448   2.970   6.204
 8904SOL     OW36710   5.102   7.127   4.140
 8904SOL    HW136711   5.135   7.033   4.135
 8904SOL    HW236712   5.005   7.128   4.165
 8905SOL     OW36713   2.898   1.814   1.606
 8905SOL    HW136714   2.817   1.761   1.583
 8905SOL    HW236715   2.979   1.755   1.604
 8906SOL     OW36716   1.079   3.751   2.520
 8906SOL    HW136717   1.018   3.693   2.574
 8906SOL    HW236718   1.134   3.808   2.582
 8907SOL     OW36719   6.535   7.244   1.459
 8907SOL    HW136720   6.615   7.229   1.400
 8907SOL    HW236721   6.460   7.283   1.406
 8908SOL     OW36722   4.904   0.287   7.681
 8908SOL    HW136723   4.968   0.220   7.644
 8908SOL    HW236724   4.929   0.308   7.776
 8909SOL     OW36725   0.497   6.928   5.429
 8909SOL    HW136726   0.562   6.865   5.473
 8909SOL    HW236727   0.531   6.956   5.339
 8910SOL     OW36728   5.514   2.006   0.886
 8910SOL    HW136729   5.582   2.079   0.874
 8910SOL    HW236730   5.536   1.953   0.968
 8911SOL     OW36731   2.902   0.889   6.880
 8911SOL    HW136732   2.815   0.894   6.830
 8911SOL    HW236733   2.949   0.804   6.859
 8912SOL     OW36734   1.633   2.986   5.828
 8912SOL    HW136735   1.732   2.993   5.842
 8912SOL    HW236736   1.601   3.061   5.771
 8913SOL     OW36737   1.073   0.202   7.755
 8913SOL    HW136738   1.079   0.300   7.770
 8913SOL    HW236739   1.164   0.164   7.738
 8914SOL     OW36740   3.654   3.948   0.255
 8914SOL    HW136741   3.672   3.873   0.319
 8914SOL    HW236742   3.722   4.020   0.268
 8915SOL     OW36743   2.735   3.675   6.896
 8915SOL    HW136744   2.824   3.630   6.890
 8915SOL    HW236745   2.719   3.732   6.817
 8916SOL     OW36746   1.864   1.312   7.438
 8916SOL    HW136747   1.764   1.305   7.444
 8916SOL    HW236748   1.896   1.273   7.351
 8917SOL     OW36749   6.914   1.022   0.545
 8917SOL    HW136750   6.870   1.111   0.535
 8917SOL    HW236751   7.005   1.024   0.505
 8918SOL     OW36752   4.078   7.157   0.493
 8918SOL    HW136753   4.122   7.220   0.428
 8918SOL    HW236754   4.096   7.187   0.587
 8919SOL     OW36755   2.935   0.394   6.329
 8919SOL    HW136756   2.978   0.310   6.360
 8919SOL    HW236757   2.968   0.418   6.238
 8920SOL     OW36758   2.258   1.383   4.007
 8920SOL    HW136759   2.168   1.389   4.050
 8920SOL    HW236760   2.248   1.344   3.915
 8921SOL     OW36761   7.850   3.254   5.794
 8921SOL    HW136762   7.913   3.178   5.780
 8921SOL    HW236763   7.806   3.279   5.708
 8922SOL     OW36764   4.064   5.633   0.163
 8922SOL    HW136765   4.062   5.664   0.258
 8922SOL    HW236766   4.066   5.712   0.101
 8923SOL     OW36767   7.600   1.274   7.490
 8923SOL    HW136768   7.653   1.193   7.517
 8923SOL    HW236769   7.553   1.311   7.570
 8924SOL     OW36770   3.254   7.114   7.922
 8924SOL    HW136771   3.208   7.032   7.956
 8924SOL    HW236772   3.351   7.097   7.908
 8925SOL     OW36773   6.268   2.408   7.691
 8925SOL    HW136774   6.182   2.372   7.728
 8925SOL    HW236775   6.279   2.379   7.596
 8926SOL     OW36776   2.656   2.793   2.077
 8926SOL    HW136777   2.714   2.718   2.045
 8926SOL    HW236778   2.644   2.788   2.176
 8927SOL     OW36779   0.616   5.791   1.966
 8927SOL    HW136780   0.698   5.800   1.909
 8927SOL    HW236781   0.570   5.879   1.975
 8928SOL     OW36782   2.041   0.403   1.727
 8928SOL    HW136783   1.989   0.488   1.722
 8928SOL    HW236784   1.980   0.326   1.740
 8929SOL     OW36785   1.241   1.515   7.223
 8929SOL    HW136786   1.333   1.523   7.261
 8929SOL    HW236787   1.238   1.553   7.131
 8930SOL     OW36788   6.156   1.879   0.362
 8930SOL    HW136789   6.191   1.952   0.304
 8930SOL    HW236790   6.231   1.838   0.415
 8931SOL     OW36791   5.587   1.644   4.281
 8931SOL    HW136792   5.572   1.729   4.331
 8931SOL    HW236793   5.501   1.610   4.245
 8932SOL     OW36794   3.740   5.215   7.862
 8932SOL    HW136795   3.719   5.139   7.801
 8932SOL    HW236796   3.669   5.222   7.932
 8933SOL     OW36797   6.071   1.521   3.540
 8933SOL    HW136798   5.984   1.480   3.566
 8933SOL    HW236799   6.072   1.618   3.563
 8934SOL     OW36800   0.535   5.655   6.101
 8934SOL    HW136801   0.589   5.726   6.145
 8934SOL    HW236802   0.438   5.668   6.124
 8935SOL     OW36803   5.645   7.523   8.022
 8935SOL    HW136804   5.703   7.538   7.942
 8935SOL    HW236805   5.551   7.509   7.994
 8936SOL     OW36806   4.505   6.453   6.582
 8936SOL    HW136807   4.585   6.393   6.573
 8936SOL    HW236808   4.470   6.449   6.676
 8937SOL     OW36809   0.029   5.520   5.003
 8937SOL    HW136810  -0.012   5.489   5.089
 8937SOL    HW236811   0.122   5.554   5.020
 8938SOL     OW36812   0.129   4.931   5.429
 8938SOL    HW136813   0.224   4.899   5.425
 8938SOL    HW236814   0.106   4.958   5.522
 8939SOL     OW36815   4.292   2.759   4.337
 8939SOL    HW136816   4.228   2.682   4.337
 8939SOL    HW236817   4.294   2.802   4.247
 8940SOL     OW36818   1.997   5.799   6.708
 8940SOL    HW136819   1.937   5.719   6.699
 8940SOL    HW236820   2.038   5.801   6.798
 8941SOL     OW36821   4.434   3.533   6.821
 8941SOL    HW136822   4.510   3.557   6.882
 8941SOL    HW236823   4.466   3.475   6.746
 8942SOL     OW36824   1.328   0.151   4.639
 8942SOL    HW136825   1.246   0.111   4.599
 8942SOL    HW236826   1.384   0.194   4.567
 8943SOL     OW36827   1.835   5.774   3.682
 8943SOL    HW136828   1.782   5.737   3.759
 8943SOL    HW236829   1.836   5.708   3.607
 8944SOL     OW36830   5.711   5.580   6.220
 8944SOL    HW136831   5.716   5.490   6.177
 8944SOL    HW236832   5.637   5.583   6.287
 8945SOL     OW36833   7.827   1.144   4.900
 8945SOL    HW136834   7.793   1.053   4.877
 8945SOL    HW236835   7.918   1.137   4.941
 8946SOL     OW36836   4.449   3.146   3.540
 8946SOL    HW136837   4.516   3.219   3.525
 8946SOL    HW236838   4.458   3.109   3.632
 8947SOL     OW36839   3.825   2.616   5.269
 8947SOL    HW136840   3.727   2.631   5.257
 8947SOL    HW236841   3.876   2.669   5.201
 8948SOL     OW36842   4.848   0.725   0.177
 8948SOL    HW136843   4.847   0.808   0.120
 8948SOL    HW236844   4.905   0.741   0.258
 8949SOL     OW36845   2.180   4.080   1.383
 8949SOL    HW136846   2.220   4.012   1.320
 8949SOL    HW236847   2.219   4.069   1.474
 8950SOL     OW36848   6.013   3.302   1.111
 8950SOL    HW136849   6.110   3.287   1.094
 8950SOL    HW236850   5.988   3.396   1.085
 8951SOL     OW36851   7.412   6.408   0.086
 8951SOL    HW136852   7.508   6.391   0.061
 8951SOL    HW236853   7.405   6.426   0.184
 8952SOL     OW36854   7.889   7.814   6.042
 8952SOL    HW136855   7.836   7.729   6.049
 8952SOL    HW236856   7.828   7.891   6.023
 8953SOL     OW36857   3.192   5.176   4.989
 8953SOL    HW136858   3.281   5.218   5.007
 8953SOL    HW236859   3.166   5.189   4.894
 8954SOL     OW36860   6.006   0.951   5.291
 8954SOL    HW136861   5.925   1.007   5.313
 8954SOL    HW236862   5.995   0.908   5.202
 8955SOL     OW36863   4.597   1.903   7.231
 8955SOL    HW136864   4.503   1.910   7.198
 8955SOL    HW236865   4.626   1.990   7.270
 8956SOL     OW36866   0.753   3.104   6.596
 8956SOL    HW136867   0.819   3.037   6.561
 8956SOL    HW236868   0.717   3.074   6.684
 8957SOL     OW36869   3.984   0.602   1.339
 8957SOL    HW136870   3.976   0.681   1.278
 8957SOL    HW236871   3.966   0.518   1.289
 8958SOL     OW36872   6.898   5.157   3.949
 8958SOL    HW136873   6.984   5.123   3.985
 8958SOL    HW236874   6.911   5.194   3.857
 8959SOL     OW36875   4.978   7.161   1.564
 8959SOL    HW136876   5.028   7.104   1.630
 8959SOL    HW236877   4.963   7.110   1.479
 8960SOL     OW36878   6.566   7.461   7.602
 8960SOL    HW136879   6.559   7.559   7.585
 8960SOL    HW236880   6.496   7.433   7.668
 8961SOL     OW36881   6.558   6.564   1.791
 8961SOL    HW136882   6.654   6.566   1.821
 8961SOL    HW236883   6.532   6.471   1.769
 8962SOL     OW36884   2.563   0.136   6.450
 8962SOL    HW136885   2.577   0.193   6.370
 8962SOL    HW236886   2.638   0.070   6.459
 8963SOL     OW36887   5.290   7.600   4.781
 8963SOL    HW136888   5.366   7.649   4.738
 8963SOL    HW236889   5.326   7.529   4.841
 8964SOL     OW36890   0.300   7.697   7.447
 8964SOL    HW136891   0.356   7.698   7.530
 8964SOL    HW236892   0.335   7.764   7.382
 8965SOL     OW36893   2.867   0.545   5.091
 8965SOL    HW136894   2.792   0.489   5.127
 8965SOL    HW236895   2.894   0.512   5.001
 8966SOL     OW36896   3.688   1.563   1.283
 8966SOL    HW136897   3.780   1.548   1.248
 8966SOL    HW236898   3.676   1.660   1.308
 8967SOL     OW36899   5.613   2.948   6.821
 8967SOL    HW136900   5.599   2.992   6.732
 8967SOL    HW236901   5.607   3.016   6.894
 8968SOL     OW36902   2.367   2.687   0.191
 8968SOL    HW136903   2.313   2.612   0.228
 8968SOL    HW236904   2.400   2.664   0.100
 8969SOL     OW36905   6.154   7.544   7.747
 8969SOL    HW136906   6.099   7.468   7.782
 8969SOL    HW236907   6.235   7.557   7.803
 8970SOL     OW36908   5.557   4.786   5.526
 8970SOL    HW136909   5.606   4.859   5.574
 8970SOL    HW236910   5.536   4.815   5.433
 8971SOL     OW36911   5.586   3.505   4.197
 8971SOL    HW136912   5.634   3.417   4.200
 8971SOL    HW236913   5.549   3.527   4.287
 8972SOL     OW36914   7.855   2.231   7.408
 8972SOL    HW136915   7.949   2.210   7.436
 8972SOL    HW236916   7.855   2.264   7.313
 8973SOL     OW36917   4.125   4.261   5.644
 8973SOL    HW136918   4.119   4.209   5.558
 8973SOL    HW236919   4.065   4.221   5.712
 8974SOL     OW36920   0.034   6.662   2.761
 8974SOL    HW136921   0.070   6.583   2.813
 8974SOL    HW236922  -0.045   6.634   2.708
 8975SOL     OW36923   7.602   5.810   6.283
 8975SOL    HW136924   7.630   5.882   6.219
 8975SOL    HW236925   7.638   5.829   6.374
 8976SOL     OW36926   6.720   3.158   3.366
 8976SOL    HW136927   6.715   3.078   3.425
 8976SOL    HW236928   6.809   3.161   3.320
 8977SOL     OW36929   2.395   6.111   7.441
 8977SOL    HW136930   2.299   6.095   7.416
 8977SOL    HW236931   2.402   6.137   7.537
 8978SOL     OW36932   2.382   7.336   3.022
 8978SOL    HW136933   2.286   7.314   3.038
 8978SOL    HW236934   2.415   7.290   2.939
 8979SOL     OW36935   0.954   5.051   1.662
 8979SOL    HW136936   0.925   5.146   1.671
 8979SOL    HW236937   0.905   4.994   1.729
 8980SOL     OW36938   0.685   4.344   4.600
 8980SOL    HW136939   0.684   4.391   4.689
 8980SOL    HW236940   0.631   4.396   4.534
 8981SOL     OW36941   0.777   0.379   5.063
 8981SOL    HW136942   0.720   0.425   4.995
 8981SOL    HW236943   0.770   0.426   5.151
 8982SOL     OW36944   6.448   7.670   5.658
 8982SOL    HW136945   6.378   7.696   5.591
 8982SOL    HW236946   6.429   7.714   5.746
 8983SOL     OW36947   5.712   3.551   4.013
 8983SOL    HW136948   5.661   3.596   3.939
 8983SOL    HW236949   5.786   3.609   4.045
 8984SOL     OW36950   6.822   1.220   5.127
 8984SOL    HW136951   6.823   1.309   5.174
 8984SOL    HW236952   6.743   1.167   5.157
 8985SOL     OW36953   5.804   6.486   7.824
 8985SOL    HW136954   5.735   6.433   7.873
 8985SOL    HW236955   5.843   6.432   7.750
 8986SOL     OW36956   2.436   4.961   3.054
 8986SOL    HW136957   2.351   4.958   3.106
 8986SOL    HW236958   2.420   4.996   2.962
 8987SOL     OW36959   1.963   7.208   5.614
 8987SOL    HW136960   2.007   7.296   5.636
 8987SOL    HW236961   1.863   7.218   5.620
 8988SOL     OW36962   0.107   2.922   0.955
 8988SOL    HW136963   0.190   2.867   0.964
 8988SOL    HW236964   0.123   3.014   0.990
 8989SOL     OW36965   7.525   6.057   5.539
 8989SOL    HW136966   7.616   6.077   5.503
 8989SOL    HW236967   7.532   6.022   5.632
 8990SOL     OW36968   0.528   7.794   0.457
 8990SOL    HW136969   0.456   7.741   0.411
 8990SOL    HW236970   0.499   7.889   0.467
 8991SOL     OW36971   0.476   3.710   6.715
 8991SOL    HW136972   0.554   3.667   6.761
 8991SOL    HW236973   0.413   3.640   6.683
 8992SOL     OW36974   1.304   5.848   3.814
 8992SOL    HW136975   1.294   5.750   3.794
 8992SOL    HW236976   1.271   5.866   3.907
 8993SOL     OW36977   3.660   1.640   3.168
 8993SOL    HW136978   3.602   1.563   3.195
 8993SOL    HW236979   3.746   1.607   3.130
 8994SOL     OW36980   0.109   4.243   7.289
 8994SOL    HW136981   0.098   4.254   7.388
 8994SOL    HW236982   0.175   4.310   7.255
 8995SOL     OW36983   1.685   4.786   6.040
 8995SOL    HW136984   1.656   4.713   6.103
 8995SOL    HW236985   1.737   4.855   6.090
 8996SOL     OW36986   3.951   1.550   4.290
 8996SOL    HW136987   3.923   1.519   4.199
 8996SOL    HW236988   3.971   1.648   4.287
 8997SOL     OW36989   6.053   1.929   4.997
 8997SOL    HW136990   5.980   1.870   5.032
 8997SOL    HW236991   6.134   1.922   5.056
 8998SOL     OW36992   5.035   3.705   7.924
 8998SOL    HW136993   5.031   3.804   7.933
 8998SOL    HW236994   5.033   3.663   8.015
 8999SOL     OW36995   4.572   3.530   4.687
 8999SOL    HW136996   4.510   3.547   4.764
 8999SOL    HW236997   4.667   3.531   4.719
 9000SOL     OW36998   3.241   3.228   3.583
 9000SOL    HW136999   3.144   3.206   3.571
 9000SOL    HW237000   3.255   3.274   3.671
   8.00000   8.00000   8.00000
