 Include forcefield parameters
#include "../gromos54a7_atb.ff/forcefield.itp"


; Include water topology
#include "../gromos54a7_atb.ff/spc.itp"

#ifdef POSRES_WATER
; Position restraint for each water oxygen
[ position_restraints ]
;  i funct       fcx        fcy        fcz
   1    1       1000       1000       1000
#endif

;include solvent topology
#include "acetone.itp"



[ system ]
; Name
Water:acetone 9:1 solvent box

[ molecules ]
; Compound        #mols
ACTN            1000
SOL             9000
